chitosan Film  in water:acetic acid 2% t= 2000.00000 step= 2000000
64905
    1CHTO  H203    1   5.875   6.494   5.073  0.3476  0.6804  2.3422
    1CHTO   O82    2   5.933   6.421   5.070  0.1404  0.5753 -0.0981
    1CHTO  C123    3   6.046   6.440   4.987 -0.1071  0.2196  0.6302
    1CHTO  H227    4   6.127   6.476   5.052 -1.0873  2.2445  0.7520
    1CHTO   O77    5   6.068   6.307   4.936 -0.3786 -1.1207 -0.2910
    1CHTO  C118    6   6.190   6.302   4.864  0.0435  0.0659 -0.3114
    1CHTO  H222    7   6.280   6.330   4.921 -0.6426  0.8493  0.3906
    1CHTO  C125    8   6.201   6.152   4.814 -0.1368 -0.3334 -0.5891
    1CHTO   O84    9   6.329   6.124   4.765 -0.2022 -0.3421  0.3169
    1CHTO  H205   10   6.363   6.188   4.706 -0.2283  0.0187  0.6922
    1CHTO  C114   11   6.189   6.386   4.735 -0.3974 -0.2045  0.1773
    1CHTO  H218   12   6.117   6.341   4.666  0.1226  1.4706 -1.5010
    1CHTO  C116   13   6.156   6.537   4.771 -0.6738  0.2431 -0.4809
    1CHTO  H220   14   6.237   6.592   4.822 -1.0578  2.6270 -2.3712
    1CHTO   O79   15   6.127   6.597   4.644  0.1092  0.0805 -0.3931
    1CHTO  H201   16   6.068   6.669   4.658 -2.3553 -2.0176  0.4306
    1CHTO  C120   17   6.028   6.540   4.868 -0.2628  0.7703  0.4319
    1CHTO  H224   18   5.944   6.494   4.813  0.7893 -3.6919  2.3227
    1CHTO   N21   19   5.998   6.676   4.912  0.0418  0.6795  0.7516
    1CHTO  H211   20   6.040   6.749   4.844 -0.6524  1.2350  0.9090
    1CHTO  H212   21   5.892   6.698   4.911  0.1177  1.0561 -0.7829
    1CHTO   O75   22   6.318   6.382   4.669  0.2112 -0.2193 -0.6014
    1CHTO  C112   23   6.306   6.382   4.503  0.5052 -0.2510  0.6363
    1CHTO  H216   24   6.236   6.457   4.462 -0.1347  0.5776  3.1397
    1CHTO   O73   25   6.263   6.249   4.464 -0.0529 -0.1292  0.4879
    1CHTO  C113   26   6.242   6.238   4.323 -0.2095 -0.3638  0.7412
    1CHTO  H217   27   6.165   6.315   4.302  0.8577  0.7950  1.0218
    1CHTO  C124   28   6.183   6.103   4.318 -0.1343  0.2440  0.4747
    1CHTO   O83   29   6.050   6.103   4.380  0.2425  0.1504 -0.0751
    1CHTO  H204   30   5.996   6.043   4.331  0.5511  1.2049 -1.7432
    1CHTO  C109   31   6.368   6.252   4.239 -0.5793  0.6214  0.2613
    1CHTO  H213   32   6.436   6.171   4.269 -2.3448 -1.0850 -0.3017
    1CHTO  C110   33   6.439   6.389   4.279 -0.3240  0.4784 -0.0918
    1CHTO  H214   34   6.385   6.469   4.229 -2.5495 -1.1996 -0.4393
    1CHTO   O78   35   6.569   6.372   4.223 -0.1857 -0.1539  0.0559
    1CHTO  H200   36   6.622   6.331   4.289 -0.4925 -1.0631 -0.2600
    1CHTO  C111   37   6.453   6.406   4.433 -0.8803 -0.8408  0.9867
    1CHTO  H215   38   6.516   6.327   4.474  2.5001  1.2809  0.0741
    1CHTO   N19   39   6.518   6.531   4.476 -0.1299  0.0863  0.2163
    1CHTO  H207   40   6.478   6.614   4.419 -0.9860 -0.6044 -0.1984
    1CHTO  H208   41   6.623   6.540   4.500 -0.7845  1.3885  2.8121
    1CHTO   O74   42   6.344   6.256   4.093 -0.0580  0.3783  0.1312
    1CHTO  C115   43   6.377   6.118   4.026  0.3234  0.4112 -0.1347
    1CHTO  H219   44   6.391   6.037   4.098  1.9017  0.9025  0.1167
    1CHTO   O76   45   6.261   6.064   3.940 -0.1662 -0.8297 -0.3281
    1CHTO  C122   46   6.247   6.115   3.807 -0.8197  0.0831  0.6162
    1CHTO  H226   47   6.245   6.221   3.832 -1.0911  0.4478 -0.9335
    1CHTO  C126   48   6.109   6.082   3.737  0.3967  0.3943 -0.5809
    1CHTO   O85   49   6.093   5.939   3.719  0.4459  0.5549  0.2025
    1CHTO  H206   50   6.003   5.929   3.694  0.6341 -0.9218  0.0507
    1CHTO  C121   51   6.381   6.087   3.723 -0.2679  0.0299  0.4011
    1CHTO  H225   52   6.370   6.016   3.639  0.0352  0.1829  0.2289
    1CHTO   O81   53   6.417   6.204   3.646  0.1491 -0.1951 -0.3874
    1CHTO  H202   54   6.415   6.285   3.693 -0.4464 -1.1139  1.2207
    1CHTO  C119   55   6.502   6.042   3.809  0.1912 -0.3969  0.6493
    1CHTO  H223   56   6.482   5.940   3.839 -1.9056  0.5270  2.5254
    1CHTO  C117   57   6.511   6.132   3.941 -0.6447 -0.5710 -0.2690
    1CHTO  H221   58   6.514   6.239   3.922  1.8247 -0.6986 -0.7907
    1CHTO   N20   59   6.633   6.105   4.027  0.1739  0.0304  0.1702
    1CHTO  H209   60   6.627   6.172   4.112 -1.8938 -1.1012  0.9432
    1CHTO  H210   61   6.640   5.999   4.045  0.7830 -0.5692 -3.2537
    1CHTO   O80   62   6.634   6.026   3.730  0.1112 -0.5990  0.2342
    1CHTO  C103   63   6.700   5.883   3.708 -0.3617 -0.4806  0.2130
    1CHTO  H190   64   6.723   5.843   3.807  1.8740 -0.3403 -0.2197
    1CHTO  C101   65   6.611   5.785   3.624  0.1210 -1.4012 -0.3686
    1CHTO  H188   66   6.572   5.843   3.540  3.0245  1.0216 -0.0948
    1CHTO   O68   67   6.486   5.740   3.717  0.1620 -0.4459  0.6145
    1CHTO  H168   68   6.510   5.670   3.776 -2.1466 -1.1617  0.7376
    1CHTO   C99   69   6.689   5.657   3.572 -0.1578  0.2501  0.0150
    1CHTO  H186   70   6.714   5.597   3.662 -1.8149 -1.5096 -0.6557
    1CHTO   N17   71   6.601   5.572   3.486  0.3244  0.1774 -0.1858
    1CHTO  H174   72   6.512   5.566   3.546 -1.4725 -0.4207 -2.8283
    1CHTO  H175   73   6.574   5.635   3.403  0.2811  0.9483  0.4156
    1CHTO   C97   74   6.821   5.703   3.508 -0.5105  0.1018  0.3777
    1CHTO  H184   75   6.792   5.770   3.425 -0.5464 -1.3000 -0.7576
    1CHTO   O64   76   6.900   5.771   3.617  0.0128 -0.3996  0.1919
    1CHTO  C104   77   6.841   5.903   3.635  1.2667 -0.6213 -0.4270
    1CHTO  H191   78   6.826   5.957   3.542  0.6563 -1.1148 -0.6169
    1CHTO  C108   79   6.937   5.983   3.721 -0.2475  0.1900 -0.6499
    1CHTO   O71   80   7.062   6.021   3.662  0.2081  0.3369  0.3780
    1CHTO  H171   81   7.117   6.037   3.736  0.8503  0.5628 -0.1495
    1CHTO   O62   82   6.903   5.591   3.472 -0.1080 -0.5063 -0.1577
    1CHTO   C91   83   7.014   5.630   3.388 -0.0900 -0.0313  0.2227
    1CHTO  H178   84   7.024   5.739   3.391 -3.2380  0.3508 -1.4097
    1CHTO   C92   85   6.961   5.610   3.244 -1.1125 -0.2296 -0.8042
    1CHTO  H179   86   6.863   5.658   3.242 -0.7516  0.6339  1.1839
    1CHTO   O66   87   7.048   5.696   3.166  0.6182 -0.2231  0.1674
    1CHTO  H166   88   7.024   5.688   3.076  0.5332  1.4860  0.0112
    1CHTO   C93   89   6.967   5.467   3.186  0.1533  0.3077 -0.2252
    1CHTO  H180   90   6.972   5.473   3.077 -0.9322  1.9868 -0.2120
    1CHTO   N16   91   6.837   5.402   3.203 -0.7786  0.2508 -0.1809
    1CHTO  H172   92   6.824   5.324   3.278 -2.0924 -0.3318 -0.9879
    1CHTO  H173   93   6.745   5.459   3.203  0.3058  2.0592  1.0659
    1CHTO   C94   94   7.091   5.389   3.241  0.0181 -0.5711 -0.0899
    1CHTO  H181   95   7.067   5.328   3.328  0.1244 -1.0414 -0.3884
    1CHTO   O61   96   7.191   5.479   3.303 -0.5801 -0.0270 -0.3763
    1CHTO   C95   97   7.156   5.564   3.414 -0.2069 -0.2888 -0.4263
    1CHTO  H182   98   7.155   5.505   3.506  0.3614 -0.1168 -0.3033
    1CHTO  C106   99   7.263   5.678   3.428  0.4450  0.9168  0.1178
    1CHTO   O69  100   7.397   5.619   3.425 -0.0204 -0.1647  0.3735
    1CHTO  H169  101   7.415   5.605   3.516 -1.5263 -0.7394  0.6038
    1CHTO   O63  102   7.157   5.316   3.121  0.3222 -0.5621  0.0728
    1CHTO   C96  103   7.180   5.174   3.147 -0.5208 -0.1775 -0.7657
    1CHTO  H183  104   7.085   5.131   3.179 -0.6348  0.3775 -0.3344
    1CHTO   C98  105   7.277   5.141   3.270 -0.0090 -0.1203  0.1504
    1CHTO  H185  106   7.234   5.184   3.361  0.1027 -2.5623  1.3998
    1CHTO   O67  107   7.269   4.997   3.292 -0.1748 -0.2651 -0.4652
    1CHTO  H167  108   7.280   4.978   3.383 -0.6764  1.8828  0.0697
    1CHTO  C102  109   7.435   5.184   3.246  0.3544 -0.4109 -0.1410
    1CHTO  H189  110   7.493   5.126   3.319  0.3444  0.5961  0.6806
    1CHTO   N18  111   7.472   5.323   3.271  0.1994 -0.6738  0.0563
    1CHTO  H176  112   7.451   5.340   3.375 -1.5120 -0.9846 -0.2215
    1CHTO  H177  113   7.410   5.381   3.205 -1.9956 -2.3300  0.5726
    1CHTO  C105  114   7.470   5.143   3.095 -0.2292 -0.2379  0.1921
    1CHTO  H192  115   7.479   5.233   3.035 -0.2116  0.4939  1.2790
    1CHTO   O65  116   7.374   5.051   3.031 -0.0447  0.6031 -0.4734
    1CHTO  C100  117   7.244   5.103   3.018 -0.2468 -0.0475 -0.4912
    1CHTO  H187  118   7.244   5.158   2.923  1.2291  0.4783 -0.2079
    1CHTO  C107  119   7.158   4.984   2.983  0.2966 -0.0162  0.0109
    1CHTO   O70  120   7.022   5.021   2.965  0.0384 -0.1753  0.1184
    1CHTO  H170  121   6.983   4.970   2.897  1.7846  0.5039 -1.3988
    1CHTO   O57  122   7.613   5.085   3.111  0.0548  0.5581  0.2485
    1CHTO   C85  123   7.650   4.952   3.064 -0.3783 -0.2515 -0.0053
    1CHTO  H157  124   7.566   4.909   3.006 -0.4125 -0.8645  0.4999
    1CHTO   C83  125   7.665   4.859   3.190  0.0983 -0.4738  0.2357
    1CHTO  H155  126   7.562   4.827   3.209 -0.2865 -0.2748 -1.4744
    1CHTO   O56  127   7.714   4.947   3.302 -0.2910  0.2449  0.2009
    1CHTO  H135  128   7.684   4.912   3.384  0.6178  1.2711  0.9785
    1CHTO   C81  129   7.755   4.738   3.158  0.0126  1.1189 -0.0691
    1CHTO  H153  130   7.705   4.684   3.078 -0.0904 -3.0032  2.6502
    1CHTO   N14  131   7.761   4.640   3.276 -0.5938  0.4317 -0.6208
    1CHTO  H141  132   7.695   4.666   3.356  0.2184  1.0482 -0.1470
    1CHTO  H142  133   7.760   4.535   3.256  1.7168  0.6529 -2.1173
    1CHTO   C79  134   7.894   4.786   3.104 -0.4397 -0.1432  0.5709
    1CHTO  H151  135   7.952   4.695   3.092 -0.4606 -0.1968  0.8649
    1CHTO   O52  136   7.877   4.848   2.976 -0.6094  0.0700  0.3077
    1CHTO   C86  137   7.780   4.960   2.979  0.0992  0.1381  0.6227
    1CHTO  H158  138   7.847   5.041   3.015  0.7231 -0.3226  0.4851
    1CHTO   C90  139   7.727   5.007   2.842 -0.0272  0.2202  0.3713
    1CHTO   O60  140   7.829   5.008   2.738  0.0220 -0.0547  0.0012
    1CHTO  H138  141   7.810   4.992   2.647  0.7459  1.2216 -0.3860
    1CHTO   O50  142   7.957   4.877   3.195 -0.3475  0.2515  0.2586
    1CHTO   C73  143   8.071   4.944   3.234  0.0035  0.7256 -0.1177
    1CHTO  H145  144   8.130   4.958   3.142  2.5345  0.3371  1.3979
    1CHTO   C74  145   8.159   4.848   3.331 -0.3831 -0.0314  0.1502
    1CHTO  H146  146   8.174   4.756   3.272 -0.6015  0.3808 -0.5516
    1CHTO   O54  147   8.279   4.924   3.343 -0.2627  0.1461  0.2013
    1CHTO  H133  148   8.256   5.011   3.368  1.3523  0.2168  1.4769
    1CHTO   C75  149   8.070   4.825   3.463  0.2242 -0.0993  0.6471
    1CHTO  H147  150   7.984   4.761   3.436 -0.7551  1.3776  0.2170
    1CHTO   N13  151   8.126   4.742   3.562  0.1939  0.3561  0.0464
    1CHTO  H139  152   8.224   4.782   3.584  0.9389 -0.3066 -1.9678
    1CHTO  H140  153   8.073   4.746   3.656  2.1169  1.8648  1.1083
    1CHTO   C76  154   8.014   4.964   3.532 -0.2414 -0.1415  0.6871
    1CHTO  H148  155   8.102   5.011   3.576 -0.3375 -0.4195  1.1798
    1CHTO   O49  156   7.957   5.046   3.427  0.6502  0.1252 -0.1714
    1CHTO   C77  157   8.046   5.075   3.312 -0.6967 -0.2011 -0.5129
    1CHTO  H149  158   8.142   5.121   3.338 -0.0980 -2.4096  1.4007
    1CHTO   C88  159   7.985   5.193   3.229 -0.3069 -0.1762  0.3483
    1CHTO   O58  160   7.984   5.298   3.283  0.3339  0.6524 -0.7462
    1CHTO  H136  161   7.894   5.320   3.297 -0.6119 -3.3223  0.0975
    1CHTO   O51  162   7.895   4.940   3.641  0.3787 -0.1611  0.1309
    1CHTO   C78  163   7.865   5.066   3.723 -0.6834 -0.4786 -0.0949
    1CHTO  H150  164   7.884   5.155   3.658 -3.1378  0.8405  0.9172
    1CHTO   C80  165   7.952   5.068   3.851 -0.2623  0.0912  0.8406
    1CHTO  H152  166   7.958   4.968   3.898  2.9683 -0.2985 -0.2175
    1CHTO   O55  167   8.086   5.081   3.817  0.4194  0.0876  0.1509
    1CHTO  H134  168   8.131   5.000   3.804 -0.5429 -0.8108  2.1619
    1CHTO   C84  169   7.897   5.183   3.950  0.4002 -0.5110  0.3741
    1CHTO  H156  170   7.934   5.277   3.909 -0.2757 -1.0913 -1.6047
    1CHTO   N15  171   7.959   5.160   4.086 -0.0320 -0.6131 -0.3180
    1CHTO  H143  172   7.934   5.063   4.125  1.6815 -0.1827  1.9396
    1CHTO  H144  173   7.933   5.239   4.152  1.9000  1.8516 -2.4032
    1CHTO   C87  174   7.740   5.199   3.954  0.0395 -0.2492 -0.0712
    1CHTO  H159  175   7.709   5.117   4.020  1.0335  0.2123  0.9927
    1CHTO   O53  176   7.681   5.179   3.812  0.6858  0.3059  0.3005
    1CHTO   C82  177   7.713   5.055   3.751  0.2101  0.5751  0.5858
    1CHTO  H154  178   7.681   4.974   3.817 -0.3156 -0.2509 -0.6774
    1CHTO   C89  179   7.631   5.038   3.618 -0.1362  0.1683 -0.1282
    1CHTO   O59  180   7.494   5.026   3.649  0.1199 -0.3627 -0.4469
    1CHTO  H137  181   7.467   5.087   3.715  1.1545 -0.5631  0.1712
    1CHTO   O45  182   7.706   5.340   4.009  0.3526 -0.4218  0.4132
    1CHTO   C67  183   7.564   5.379   3.989 -0.1159  0.7404 -0.0838
    1CHTO  H124  184   7.498   5.297   3.960  1.2044 -0.1945 -0.5042
    1CHTO   C65  185   7.503   5.445   4.119  0.2365  0.3443  0.9697
    1CHTO  H122  186   7.515   5.373   4.200 -3.3345 -0.1977  1.1084
    1CHTO   O44  187   7.362   5.465   4.105  0.0745  0.0672  0.2907
    1CHTO  H102  188   7.325   5.385   4.075  2.0917  0.1435 -2.6929
    1CHTO   C63  189   7.591   5.561   4.161 -0.2020 -0.8789 -0.3003
    1CHTO  H120  190   7.693   5.523   4.158  0.3995  0.5004  1.8203
    1CHTO   N11  191   7.591   5.608   4.304  0.7419 -0.0995  0.4180
    1CHTO  H108  192   7.495   5.590   4.348  0.6460  0.0322  0.2617
    1CHTO  H109  193   7.662   5.555   4.365  0.0875  0.3552  1.5950
    1CHTO   C61  194   7.574   5.678   4.051  0.1462 -0.6103  0.2438
    1CHTO  H118  195   7.657   5.749   4.068  1.2866 -1.8527  0.0109
    1CHTO   O40  196   7.598   5.615   3.915  0.5917  0.2007 -0.4447
    1CHTO   C68  197   7.560   5.486   3.868 -0.2744  0.8018  0.2577
    1CHTO  H125  198   7.643   5.455   3.802  1.1104 -1.5188  2.9815
    1CHTO   C72  199   7.427   5.494   3.783  0.6006  0.6274  0.7025
    1CHTO   O48  200   7.407   5.365   3.718  0.4738 -0.2830 -0.4488
    1CHTO  H105  201   7.315   5.349   3.704  0.2325 -1.6700  2.2749
    1CHTO   O38  202   7.447   5.758   4.057 -0.2765  0.6040 -0.1930
    1CHTO   C55  203   7.465   5.899   4.035 -0.4518  0.5325 -0.0902
    1CHTO  H112  204   7.560   5.911   3.981  0.3929  0.9468  1.4627
    1CHTO   C56  205   7.467   5.984   4.180 -0.3854  0.9003 -0.1152
    1CHTO  H113  206   7.370   5.957   4.223 -0.2093  3.0309  1.7054
    1CHTO   O42  207   7.560   5.926   4.270  0.1671 -0.6471 -0.6241
    1CHTO  H100  208   7.527   5.936   4.357 -0.9063  0.1138 -1.1169
    1CHTO   C57  209   7.486   6.141   4.156  0.1808 -0.4614 -0.2162
    1CHTO  H114  210   7.588   6.162   4.123  0.3954 -0.6734  0.3153
    1CHTO   N10  211   7.459   6.224   4.278 -0.0667  0.2992  0.2062
    1CHTO  H106  212   7.376   6.187   4.335 -0.9423  2.5558  0.4562
    1CHTO  H107  213   7.541   6.227   4.349 -0.1772 -1.3532  0.4146
    1CHTO   C58  214   7.385   6.193   4.043  0.8552 -0.3042 -0.4469
    1CHTO  H115  215   7.288   6.217   4.092  0.9376  0.7847 -0.7953
    1CHTO   O37  216   7.378   6.107   3.927  0.2266  0.1606 -0.0256
    1CHTO   C59  217   7.351   5.967   3.951  0.5162 -0.0084 -0.6120
    1CHTO  H116  218   7.255   5.965   4.003  0.7004 -0.5854 -0.2816
    1CHTO   C70  219   7.333   5.908   3.811  0.3109  0.2740 -0.5115
    1CHTO   O46  220   7.465   5.886   3.752  0.4170 -0.2002  0.0625
    1CHTO  H103  221   7.503   5.970   3.735  1.7738 -0.3526  2.1537
    1CHTO   O39  222   7.453   6.333   3.969  0.9054  0.1674 -0.4652
    1CHTO   C60  223   7.352   6.423   3.921 -0.1844  0.7280  0.4538
    1CHTO  H117  224   7.263   6.374   3.880 -0.4756  2.2848 -0.8265
    1CHTO   C62  225   7.293   6.509   4.044  0.5049 -0.0183  0.1354
    1CHTO  H119  226   7.251   6.431   4.111 -0.2669 -0.8426 -1.3057
    1CHTO   O43  227   7.392   6.583   4.114  1.0371 -0.0739 -0.5463
    1CHTO  H101  228   7.413   6.657   4.061  0.8474  0.5124  0.1909
    1CHTO   C66  229   7.168   6.603   3.996 -0.0829 -0.1422 -0.6196
    1CHTO  H123  230   7.094   6.532   3.960 -0.2504 -0.8224  1.0406
    1CHTO   N12  231   7.104   6.682   4.106  0.3286 -0.2553  0.1385
    1CHTO  H110  232   7.055   6.616   4.176 -3.3707  0.3375 -1.7827
    1CHTO  H111  233   7.168   6.753   4.156 -0.9826  1.9101 -1.1736
    1CHTO   C69  234   7.223   6.682   3.875 -0.6337 -0.2703  0.0411
    1CHTO  H126  235   7.303   6.753   3.905 -0.5606 -0.5002  0.3954
    1CHTO   O41  236   7.280   6.594   3.769  0.4581 -0.0799 -0.2204
    1CHTO   C64  237   7.399   6.523   3.818  1.3052  0.3069 -0.5945
    1CHTO  H121  238   7.473   6.597   3.856  1.6695 -0.2719 -0.1625
    1CHTO   C71  239   7.466   6.438   3.712  0.0051  0.2958 -0.0123
    1CHTO   O47  240   7.552   6.521   3.632 -0.4770 -0.0555  0.0545
    1CHTO  H104  241   7.593   6.464   3.569 -1.5955  0.0704 -0.8134
    1CHTO   O34  242   7.112   6.759   3.800 -0.0857  0.3902 -0.4190
    1CHTO   C49  243   7.131   6.836   3.667  0.2941 -0.1567 -0.3173
    1CHTO   H91  244   7.223   6.891   3.683 -0.3992  0.9010  0.0950
    1CHTO   C47  245   7.015   6.934   3.647 -0.4455 -0.2538  0.7014
    1CHTO   H89  246   7.043   7.003   3.564 -0.5379  1.3167  1.9599
    1CHTO   O33  247   7.000   7.016   3.766 -0.3032  0.3283  0.5326
    1CHTO   H70  248   7.084   7.051   3.791  0.4573 -1.0357 -0.0914
    1CHTO   C45  249   6.881   6.843   3.610  0.0575 -0.5507 -0.0124
    1CHTO   H87  250   6.871   6.775   3.697 -0.8361  0.2172  0.4945
    1CHTO    N8  251   6.759   6.926   3.595 -0.4784  0.2112  0.0345
    1CHTO   H75  252   6.786   7.018   3.545 -2.3225  0.1623 -1.1049
    1CHTO   H76  253   6.682   6.871   3.543  0.2977 -0.6793 -0.1769
    1CHTO   C43  254   6.895   6.741   3.484 -0.0859  0.4231 -0.1805
    1CHTO   H85  255   6.808   6.676   3.483  0.7417 -0.7122 -0.2521
    1CHTO   O29  256   7.018   6.665   3.501  0.2546  0.2881 -0.0870
    1CHTO   C50  257   7.138   6.744   3.533 -0.6347  0.1519 -0.6766
    1CHTO   H92  258   7.214   6.665   3.546  1.7825  2.6856  1.0320
    1CHTO   C54  259   7.200   6.829   3.421  0.5590 -0.3150  0.1808
    1CHTO   O36  260   7.258   6.746   3.320  0.0599 -0.0446 -0.7771
    1CHTO   H72  261   7.256   6.795   3.240  0.8537  2.1509  0.4888
    1CHTO   O27  262   6.898   6.822   3.364 -0.4771  0.0689  0.2106
    1CHTO   C37  263   6.919   6.846   3.223  0.0547  0.0516 -0.2050
    1CHTO   H79  264   7.028   6.857   3.207 -0.1199  0.7973 -0.8743
    1CHTO   C38  265   6.861   6.721   3.148  0.1077  0.8525  0.5348
    1CHTO   H80  266   6.755   6.712   3.177  0.6665  0.7155  2.6167
    1CHTO   O31  267   6.941   6.607   3.185 -0.7225  0.5141 -0.1649
    1CHTO   H68  268   6.906   6.576   3.267 -1.6450  0.0273 -0.7372
    1CHTO   C39  269   6.877   6.728   2.989 -0.3143 -1.0095 -0.9080
    1CHTO   H81  270   6.985   6.735   2.973 -0.2984  1.5804  0.1578
    1CHTO    N7  271   6.823   6.614   2.914 -0.0698  0.1392 -0.1802
    1CHTO   H73  272   6.898   6.558   2.861  1.1125  0.0950  1.4860
    1CHTO   H74  273   6.734   6.651   2.866 -0.3281  1.6494  1.4015
    1CHTO   C40  274   6.816   6.865   2.938  0.1483 -0.0922  0.0058
    1CHTO   H82  275   6.707   6.860   2.944  0.2556 -0.3620  1.9681
    1CHTO   O26  276   6.867   6.975   3.020  0.1413  0.7498 -0.0248
    1CHTO   C41  277   6.842   6.966   3.161  0.3922  0.2550 -0.3072
    1CHTO   H83  278   6.734   6.944   3.161  0.6726 -1.1443 -0.2524
    1CHTO   C52  279   6.859   7.114   3.218  0.1504 -0.3458  0.1743
    1CHTO   O35  280   6.765   7.193   3.165 -0.0843  0.4538 -0.0486
    1CHTO   H71  281   6.689   7.202   3.219 -0.1246  1.5908 -0.2827
    1CHTO   O28  282   6.840   6.901   2.798 -0.2362 -0.1533 -0.3127
    1CHTO   C42  283   6.961   6.953   2.742  0.3023  0.2901 -0.0333
    1CHTO   H84  284   7.047   6.935   2.807  1.3490  0.1891 -1.4295
    1CHTO   C44  285   6.959   7.114   2.726 -0.4118  0.9757 -0.3963
    1CHTO   H86  286   6.883   7.139   2.651 -0.9632 -0.5092 -0.3564
    1CHTO   O32  287   6.913   7.189   2.847  0.2334 -0.4507 -0.3306
    1CHTO   H69  288   6.922   7.141   2.927 -1.0910 -0.0417  0.0752
    1CHTO   C48  289   7.102   7.149   2.671  0.1549 -0.1302 -0.2714
    1CHTO   H90  290   7.174   7.135   2.752  0.0398  2.2166  0.2485
    1CHTO    N9  291   7.111   7.300   2.647 -0.8435  0.1623 -0.3388
    1CHTO   H77  292   7.201   7.350   2.681  0.0379 -1.6000 -0.0556
    1CHTO   H78  293   7.103   7.320   2.541  0.3380  2.8189  0.0202
    1CHTO   C51  294   7.152   7.074   2.541 -0.4453  0.6127 -0.3505
    1CHTO   H93  295   7.092   7.117   2.461 -0.7808 -0.3638 -0.6365
    1CHTO   O30  296   7.123   6.932   2.554 -0.4456  0.4673 -0.5283
    1CHTO   C46  297   7.000   6.896   2.601 -0.2233  1.1389 -0.2720
    1CHTO   H88  298   6.927   6.921   2.524 -0.6343 -0.0372 -0.2744
    1CHTO   C53  299   6.999   6.738   2.602 -0.6923 -0.1395 -0.1545
    1CHTO   O72  300   7.015   6.680   2.473 -0.9249  0.2076  0.0427
    1CHTO  H199  301   6.986   6.591   2.463  0.4376 -0.0511 -1.9328
    1CHTO   O22  302   7.295   7.082   2.522 -0.2265 -0.0723  0.2943
    1CHTO   C31  303   7.341   7.150   2.404  0.3684  0.3016 -0.1823
    1CHTO   H59  304   7.263   7.221   2.371 -0.5131 -0.6842 -0.2710
    1CHTO   C29  305   7.468   7.234   2.444  0.2936 -0.0773 -0.0217
    1CHTO   H57  306   7.534   7.165   2.499  0.7517  1.0299  0.8432
    1CHTO   O21  307   7.437   7.330   2.544  0.6161 -0.3197  0.4566
    1CHTO   H37  308   7.513   7.359   2.590 -0.0493  1.4298  0.4963
    1CHTO   C27  309   7.554   7.294   2.328 -0.1591  0.2909 -0.0858
    1CHTO   H55  310   7.505   7.385   2.289  1.3903  1.4677  0.6717
    1CHTO    N5  311   7.691   7.335   2.382  0.3262 -0.2601  1.0357
    1CHTO   H43  312   7.747   7.251   2.420 -0.7387 -2.2463 -1.6410
    1CHTO   H44  313   7.752   7.374   2.302 -0.8221  1.7014  1.0863
    1CHTO   C25  314   7.554   7.193   2.205 -0.6119 -0.2719 -0.1484
    1CHTO   H53  315   7.629   7.115   2.224 -0.2922 -0.1172 -0.7530
    1CHTO   O17  316   7.425   7.132   2.175 -0.3853 -0.6469  0.5427
    1CHTO   C32  317   7.367   7.054   2.282 -0.1000  0.0988  0.2540
    1CHTO   H60  318   7.438   6.976   2.307  2.1798  0.9892 -3.1422
    1CHTO   C36  319   7.237   6.988   2.225 -0.4801 -0.1673  0.2708
    1CHTO   O25  320   7.215   6.860   2.293  0.7554  0.2120 -0.1416
    1CHTO   H40  321   7.132   6.820   2.276  0.8451  0.0054 -0.0977
    1CHTO   O15  322   7.614   7.277   2.076  0.2960 -0.5283 -1.4344
    1CHTO   C19  323   7.607   7.270   1.931 -0.1981  0.1480  0.3786
    1CHTO   H47  324   7.653   7.368   1.909  0.9073 -0.5235 -0.3485
    1CHTO   C20  325   7.681   7.145   1.868  0.5589  0.4622  0.4242
    1CHTO   H48  326   7.638   7.052   1.907  0.6717  1.2112  2.4211
    1CHTO   O19  327   7.817   7.145   1.918 -0.0853  0.5396 -0.1750
    1CHTO   H35  328   7.827   7.089   1.993  1.2414 -0.0969 -0.8156
    1CHTO   C21  329   7.689   7.147   1.712  0.0030  0.0535  0.2983
    1CHTO   H49  330   7.762   7.225   1.690  0.3228 -0.3593 -0.1154
    1CHTO    N4  331   7.752   7.018   1.652  0.3155 -0.2821 -0.4257
    1CHTO   H41  332   7.851   7.011   1.694 -0.8123 -1.0113  2.1801
    1CHTO   H42  333   7.698   6.929   1.680  1.8281 -0.3527  2.4790
    1CHTO   C22  334   7.545   7.172   1.660 -0.1194 -0.4077  0.3446
    1CHTO   H50  335   7.479   7.092   1.691  0.5380 -0.4569  1.6394
    1CHTO   O14  336   7.497   7.296   1.719  0.3297  0.4121 -0.1692
    1CHTO   C23  337   7.470   7.269   1.857  0.7670 -0.5446 -0.2501
    1CHTO   H51  338   7.422   7.170   1.863 -2.2630  0.9254  0.4637
    1CHTO   C34  339   7.373   7.382   1.904  0.3860 -0.4525 -0.3044
    1CHTO   O23  340   7.240   7.372   1.844  0.0475  0.1232  0.4033
    1CHTO   H38  341   7.234   7.412   1.759 -0.0573  0.5377  0.6037
    1CHTO   O16  342   7.539   7.192   1.520  0.2140 -0.5263  0.7106
    1CHTO   C24  343   7.470   7.071   1.435 -0.6748 -0.3965 -0.4648
    1CHTO   H52  344   7.475   6.976   1.488 -3.9941  0.2027  1.0119
    1CHTO   C26  345   7.555   7.065   1.306 -0.3121 -0.2216 -0.1604
    1CHTO   H54  346   7.570   7.170   1.273 -1.6738  0.5788  1.6479
    1CHTO   O20  347   7.692   7.017   1.330  0.5159  0.2742 -0.7595
    1CHTO   H36  348   7.736   7.012   1.248 -0.6465 -1.0890 -1.3224
    1CHTO   C30  349   7.478   6.979   1.202 -0.8707 -0.4040  0.2780
    1CHTO   H58  350   7.487   6.872   1.227  1.4594 -0.5975 -1.2358
    1CHTO    N6  351   7.531   7.001   1.069  0.3431  0.1790  0.2245
    1CHTO   H45  352   7.476   7.080   1.021 -3.9340 -2.6973  0.1593
    1CHTO   H46  353   7.637   7.022   1.067  0.5214 -0.7740 -1.2143
    1CHTO   C33  354   7.323   6.999   1.207  0.3006  0.2093  0.1587
    1CHTO   H61  355   7.290   7.096   1.165 -1.1096  0.0286  0.8320
    1CHTO   O18  356   7.278   6.998   1.340  0.6362  0.3796 -0.2474
    1CHTO   C28  357   7.318   7.110   1.412 -0.9015 -0.2045  0.1985
    1CHTO   H56  358   7.305   7.202   1.356 -0.3987 -1.5680 -2.2373
    1CHTO   C35  359   7.238   7.111   1.546  0.1416  0.0431 -0.6818
    1CHTO   O24  360   7.110   7.166   1.525 -0.0828  0.1062 -0.5977
    1CHTO   H39  361   7.089   7.182   1.435  1.6627  0.4402 -0.9554
    1CHTO    O9  362   7.261   6.893   1.135  0.0038 -0.4725 -0.5559
    1CHTO   C13  363   7.135   6.934   1.049 -0.1075 -0.5860 -1.3523
    1CHTO   H26  364   7.164   7.030   1.001 -0.7777  0.1055 -0.4044
    1CHTO   C11  365   7.018   6.957   1.145  0.5987 -0.3651 -0.0133
    1CHTO   H24  366   7.036   7.058   1.187  0.6414 -0.5324  0.3754
    1CHTO    O8  367   7.009   6.856   1.247  0.0162  0.1123  0.5624
    1CHTO    H3  368   7.054   6.881   1.325  2.3604 -1.4168 -0.2161
    1CHTO    C9  369   6.896   6.974   1.049  0.2835  0.2401  0.0606
    1CHTO   H22  370   6.926   7.049   0.974 -1.4081  1.4378  0.5718
    1CHTO    N2  371   6.783   7.040   1.122  0.0266  0.0195  0.1448
    1CHTO   H10  372   6.754   6.980   1.207  0.9474 -1.6144 -0.6574
    1CHTO   H11  373   6.810   7.140   1.150  0.2523  0.3059 -1.0851
    1CHTO    C7  374   6.867   6.839   0.972  0.1692 -0.6902 -1.0543
    1CHTO   H20  375   6.832   6.864   0.869 -1.0496  0.1733 -0.4483
    1CHTO    O4  376   6.983   6.760   0.951  0.2689 -0.1807 -0.2385
    1CHTO   C14  377   7.109   6.825   0.934 -0.9017 -0.0075  0.1712
    1CHTO   H27  378   7.112   6.866   0.831 -0.7056  1.0309  0.5829
    1CHTO   C18  379   7.213   6.705   0.943 -0.3378 -0.7152  0.1761
    1CHTO   O13  380   7.219   6.646   0.815  0.3876 -0.5012  0.4957
    1CHTO    H7  381   7.288   6.583   0.818 -0.4976 -1.5159 -0.0316
    1CHTO    O2  382   6.760   6.756   1.049  0.3743 -0.1786 -0.2059
    1CHTO    C1  383   6.679   6.676   0.968  0.0840 -0.3040 -0.3520
    1CHTO   H14  384   6.742   6.654   0.879  1.3777  0.1111  0.4456
    1CHTO    C2  385   6.552   6.746   0.916 -0.1683  0.0389  0.0337
    1CHTO   H15  386   6.493   6.774   1.005 -0.2882  1.1614 -0.3941
    1CHTO    O6  387   6.570   6.873   0.847  0.2763  0.2362  0.0393
    1CHTO    H1  388   6.483   6.900   0.824 -1.0178 -1.8197  2.3284
    1CHTO    C3  389   6.465   6.642   0.828  0.2780 -0.1006  0.5778
    1CHTO   H16  390   6.523   6.624   0.736 -1.1729  0.3260 -0.4416
    1CHTO    N1  391   6.329   6.689   0.787  0.2459  0.2019  0.2367
    1CHTO    H8  392   6.252   6.617   0.812 -1.3879  1.0957 -2.0338
    1CHTO    H9  393   6.313   6.708   0.682 -1.7228 -0.8683  0.3098
    1CHTO    C4  394   6.465   6.497   0.896  0.6505  0.0874  0.1836
    1CHTO   H17  395   6.387   6.490   0.972  2.6161 -0.8675  2.1413
    1CHTO    O1  396   6.589   6.455   0.958 -0.4853 -0.1344 -0.0410
    1CHTO    C5  397   6.648   6.550   1.042  0.3734 -0.3142  0.4625
    1CHTO   H18  398   6.573   6.572   1.118 -1.0481 -0.9836 -0.7258
    1CHTO   C16  399   6.768   6.483   1.116  0.2467 -0.0159  0.5146
    1CHTO   O11  400   6.879   6.465   1.029  0.0519  0.1884 -0.0439
    1CHTO    H5  401   6.938   6.410   1.077  0.9673  0.8150 -0.4285
    1CHTO    O3  402   6.444   6.391   0.794  0.1354  0.2641 -0.2375
    1CHTO    C6  403   6.392   6.261   0.841 -0.3175  0.2570 -0.1596
    1CHTO   H19  404   6.401   6.251   0.949 -1.2891  2.1017  0.1143
    1CHTO    C8  405   6.233   6.262   0.808 -0.0907  0.2224 -0.3192
    1CHTO   H21  406   6.213   6.289   0.704 -0.3774 -0.3359 -0.4118
    1CHTO    O7  407   6.166   6.355   0.891 -1.0505 -0.0000 -0.1557
    1CHTO    H2  408   6.176   6.338   0.982 -2.4411 -0.5281 -0.0887
    1CHTO   C12  409   6.168   6.117   0.822 -0.0171 -0.3131 -0.2389
    1CHTO   H25  410   6.145   6.101   0.930 -0.4625  0.6094 -0.1907
    1CHTO    N3  411   6.035   6.115   0.752 -0.2842 -0.1715 -0.2231
    1CHTO   H12  412   5.963   6.179   0.800 -0.5615 -1.3725  1.0056
    1CHTO   H13  413   6.026   6.126   0.645  1.6408  3.2588 -0.0880
    1CHTO   C15  414   6.259   6.002   0.767 -0.1148  0.1330 -0.1364
    1CHTO   H28  415   6.263   5.990   0.659 -0.8437  2.8799 -0.5188
    1CHTO   O10  416   6.217   5.857   0.841 -0.1759 -0.3955  0.1592
    1CHTO    H4  417   6.124   5.866   0.847 -0.1891  0.3178 -0.8854
    1CHTO    O5  418   6.397   6.018   0.816  0.2619 -0.3437 -0.2743
    1CHTO   C10  419   6.459   6.138   0.775 -0.3402 -0.8216  0.1578
    1CHTO   H23  420   6.461   6.144   0.666  2.8527 -1.0761  0.1606
    1CHTO   C17  421   6.605   6.127   0.819  0.2801  0.2807  0.0176
    1CHTO   O12  422   6.688   6.088   0.710 -0.0081 -0.2074  0.1097
    1CHTO    H6  423   6.774   6.100   0.746  0.1565 -1.1854  0.0676
    2CHTO  H203  424   6.216   4.705   6.224 -0.5095 -0.4534 -0.7130
    2CHTO   O82  425   6.147   4.768   6.231 -0.2857 -0.2693 -0.1695
    2CHTO  C123  426   6.077   4.788   6.109  0.0718 -0.8766  0.1675
    2CHTO  H227  427   5.997   4.861   6.128  0.2144 -0.7894  0.4464
    2CHTO   O77  428   6.181   4.851   6.027  0.0259 -0.2318  0.3815
    2CHTO  C118  429   6.134   4.895   5.898 -0.0057 -0.5533 -1.0333
    2CHTO  H222  430   6.043   4.951   5.922  0.3671 -1.2156  2.1646
    2CHTO  C125  431   6.240   4.997   5.827 -0.4063  0.1196 -0.5353
    2CHTO   O84  432   6.370   4.932   5.826 -0.4889  0.2825 -0.0197
    2CHTO  H205  433   6.406   4.926   5.739 -1.3877  2.5361 -0.6015
    2CHTO  C114  434   6.096   4.769   5.818 -0.2478  0.2157  0.2681
    2CHTO  H218  435   6.188   4.710   5.818  0.3034  1.0507  2.3290
    2CHTO  C116  436   5.978   4.686   5.889 -0.6858  0.0937  0.3932
    2CHTO  H220  437   5.886   4.748   5.894 -1.5822 -1.0949 -1.1710
    2CHTO   O79  438   5.964   4.565   5.810 -0.0753 -0.3752 -0.4360
    2CHTO  H201  439   6.024   4.499   5.839 -1.5494 -0.6429  2.1602
    2CHTO  C120  440   6.021   4.661   6.041  0.1346  0.4765  0.6877
    2CHTO  H224  441   6.102   4.586   6.028 -0.7736 -0.3201 -0.4094
    2CHTO   N21  442   5.916   4.604   6.120 -0.3870  0.3165  0.0506
    2CHTO  H211  443   5.967   4.557   6.203 -1.7844 -1.8611 -0.2572
    2CHTO  H212  444   5.841   4.673   6.155 -0.1987  0.7882 -0.4684
    2CHTO   O75  445   6.065   4.810   5.685  0.0785 -0.0812  0.0389
    2CHTO  C112  446   5.943   4.921   5.659 -0.8485 -0.3346 -0.2984
    2CHTO  H216  447   5.976   5.009   5.716 -0.0726 -0.0783 -1.1390
    2CHTO   O73  448   5.824   4.865   5.710  0.1685  0.0397 -0.1413
    2CHTO  C113  449   5.714   4.962   5.702  0.5576  0.2777  0.2520
    2CHTO  H217  450   5.759   5.045   5.761 -1.4694  1.3970  0.2447
    2CHTO  C124  451   5.594   4.911   5.771 -0.2959  0.3853  0.3918
    2CHTO   O83  452   5.601   4.872   5.913  0.5014  0.0448  0.4607
    2CHTO  H204  453   5.643   4.941   5.960 -0.5445  2.1852 -1.5981
    2CHTO  C109  454   5.674   4.996   5.558  0.6791  0.0789  0.4294
    2CHTO  H213  455   5.630   4.905   5.515  0.5874  0.0696  0.5444
    2CHTO  C110  456   5.798   5.034   5.474  0.5527 -0.2500  0.1287
    2CHTO  H214  457   5.821   5.140   5.481 -3.0309  0.6890 -1.0525
    2CHTO   O78  458   5.763   5.019   5.336 -0.3912 -0.0082  0.3528
    2CHTO  H200  459   5.702   5.085   5.309  0.3723  0.8871  0.8337
    2CHTO  C111  460   5.921   4.948   5.508  0.6066 -0.3117  0.7210
    2CHTO  H215  461   5.904   4.848   5.464  0.4202  0.1222 -0.2114
    2CHTO   N19  462   6.045   4.996   5.447  0.5181 -0.2970  0.2507
    2CHTO  H207  463   6.124   4.925   5.465 -1.6691 -2.4550  1.6507
    2CHTO  H208  464   6.083   5.088   5.488 -1.4056 -0.1884  1.8852
    2CHTO   O74  465   5.582   5.105   5.559  0.1128 -0.5619 -0.0265
    2CHTO  C115  466   5.473   5.102   5.473  0.6801 -0.2030  0.2157
    2CHTO  H219  467   5.500   5.054   5.379  0.5975  1.1266 -0.5094
    2CHTO   O76  468   5.343   5.022   5.543 -0.4294 -0.0939  0.3592
    2CHTO  C122  469   5.304   5.103   5.661  0.2386 -0.4099  0.2963
    2CHTO  H226  470   5.392   5.118   5.724 -0.0680  0.1673  0.5879
    2CHTO  C126  471   5.196   5.030   5.755  0.4287 -0.1663  0.2398
    2CHTO   O85  472   5.073   4.999   5.691 -0.3619  0.2851 -0.3492
    2CHTO  H206  473   5.061   5.056   5.618 -2.0599  1.1627  0.5515
    2CHTO  C121  474   5.255   5.248   5.610  0.4673  1.1237 -0.0455
    2CHTO  H225  475   5.145   5.245   5.624  0.3188  1.5778 -1.0601
    2CHTO   O81  476   5.306   5.345   5.698  0.1422 -0.4577  0.4093
    2CHTO  H202  477   5.399   5.349   5.707 -0.2602  1.4490  5.2099
    2CHTO  C119  478   5.286   5.277   5.469 -0.3921  0.5660 -0.0153
    2CHTO  H223  479   5.224   5.211   5.408 -1.7767  1.4129  0.4400
    2CHTO  C117  480   5.438   5.255   5.440 -0.1016 -0.1281  0.7433
    2CHTO  H221  481   5.507   5.318   5.497  0.7299 -0.1397 -0.2342
    2CHTO   N20  482   5.465   5.289   5.293  0.6640  0.2439  0.5159
    2CHTO  H209  483   5.522   5.206   5.255  1.9361  1.0900  0.5425
    2CHTO  H210  484   5.507   5.389   5.288 -1.5333  1.2567  1.4472
    2CHTO   O80  485   5.234   5.424   5.433 -0.0161 -0.5134  0.0600
    2CHTO  C103  486   5.111   5.453   5.325 -0.0823  0.1151  0.4238
    2CHTO  H190  487   5.131   5.394   5.236 -1.1780 -0.9382  0.8581
    2CHTO  C101  488   4.966   5.424   5.386 -0.3958 -0.0667  0.0356
    2CHTO  H188  489   4.955   5.488   5.474 -0.3305 -0.1577  0.1088
    2CHTO   O68  490   4.954   5.259   5.434  0.0098  0.3673  0.0870
    2CHTO  H168  491   5.030   5.228   5.480 -1.0137 -1.3965  0.6472
    2CHTO   C99  492   4.845   5.464   5.297  0.5200  0.1289 -0.0859
    2CHTO  H186  493   4.849   5.395   5.210  0.5467 -2.0410  1.5923
    2CHTO   N17  494   4.709   5.451   5.353 -0.1578 -0.1525  0.1257
    2CHTO  H174  495   4.647   5.536   5.328 -0.5753 -1.0469 -1.9372
    2CHTO  H175  496   4.711   5.424   5.458  1.7124 -0.0549  0.1417
    2CHTO   C97  497   4.872   5.609   5.240  0.1357 -0.6036 -0.0863
    2CHTO  H184  498   4.857   5.673   5.328 -0.5412  0.2681 -0.8192
    2CHTO   O64  499   5.007   5.624   5.185 -0.1383  0.1749 -0.3734
    2CHTO  C104  500   5.119   5.603   5.276  0.0224  0.2636 -0.4971
    2CHTO  H191  501   5.113   5.671   5.361 -0.2780  0.7441 -0.9040
    2CHTO  C108  502   5.249   5.636   5.200  0.4996  0.1319 -0.2811
    2CHTO   O71  503   5.263   5.777   5.194  0.2728 -0.4394  0.4765
    2CHTO  H171  504   5.345   5.791   5.151  0.6933 -0.2842  1.3141
    2CHTO   O62  505   4.774   5.643   5.134  0.3772 -0.0658  0.3663
    2CHTO   C91  506   4.746   5.788   5.111  0.1329 -0.0179  0.1814
    2CHTO  H178  507   4.732   5.836   5.208 -3.1768 -0.8881  0.1912
    2CHTO   C92  508   4.613   5.799   5.034 -0.4993  0.0699 -0.0641
    2CHTO  H179  509   4.547   5.721   5.073 -0.2585  0.1281  0.4573
    2CHTO   O66  510   4.557   5.932   5.057 -0.0908  0.0832  0.8590
    2CHTO  H166  511   4.534   5.947   5.147 -2.8497 -0.1434  0.2291
    2CHTO   C93  512   4.620   5.784   4.871  0.1722 -0.9730  0.4908
    2CHTO  H180  513   4.533   5.827   4.820  0.2338 -0.7304  0.5876
    2CHTO   N16  514   4.615   5.640   4.836 -0.4854  0.1306 -0.6620
    2CHTO  H172  515   4.700   5.606   4.779  0.1349  2.5754 -1.2685
    2CHTO  H173  516   4.521   5.607   4.795 -1.4042  1.9831 -0.1365
    2CHTO   C94  517   4.752   5.853   4.826  0.1395  1.0515  0.4235
    2CHTO  H181  518   4.826   5.782   4.791 -3.3476 -1.3775 -2.4017
    2CHTO   O61  519   4.821   5.942   4.918  0.3311  0.3359 -0.7052
    2CHTO   C95  520   4.867   5.864   5.033  0.8889  0.0394 -0.1730
    2CHTO  H182  521   4.935   5.789   4.995 -0.9281 -0.9643 -1.5317
    2CHTO  C106  522   4.955   5.953   5.122 -0.5724 -0.2547 -0.1870
    2CHTO   O69  523   4.962   5.925   5.260  0.6734 -0.3312  0.0854
    2CHTO  H169  524   5.030   5.977   5.297  2.0808  0.0474 -2.8455
    2CHTO   O63  525   4.692   5.945   4.685  0.8799 -0.1412 -0.1747
    2CHTO   C96  526   4.621   6.087   4.733 -0.0630 -0.4450  0.5581
    2CHTO  H183  527   4.637   6.090   4.841  1.2173  2.1225  0.3434
    2CHTO   C98  528   4.465   6.098   4.701 -0.3361  0.6428 -0.1805
    2CHTO  H185  529   4.441   6.063   4.600  0.9187 -0.0659 -0.2348
    2CHTO   O67  530   4.387   6.024   4.794 -0.2145 -0.4924 -0.3664
    2CHTO  H167  531   4.295   6.026   4.775 -0.4617  2.2267  0.7879
    2CHTO  C102  532   4.414   6.252   4.699  0.4832 -0.0787  0.2476
    2CHTO  H189  533   4.437   6.295   4.797  0.0676 -0.0318  0.3275
    2CHTO   N18  534   4.271   6.277   4.677  0.0495 -0.2597  0.2172
    2CHTO  H176  535   4.230   6.240   4.584  1.5621  0.0413 -0.5838
    2CHTO  H177  536   4.219   6.221   4.753 -0.2066  1.8787  1.6387
    2CHTO  C105  537   4.507   6.327   4.597 -0.4139  0.4763  0.4437
    2CHTO  H192  538   4.466   6.331   4.496  1.0117 -0.4436 -0.1880
    2CHTO   O65  539   4.642   6.272   4.568  0.1402 -0.5119 -0.3420
    2CHTO  C100  540   4.703   6.205   4.677 -0.2630 -0.4097  0.6386
    2CHTO  H187  541   4.796   6.172   4.628  0.6215  2.2670  0.4596
    2CHTO  C107  542   4.741   6.303   4.784 -1.0326  0.4561  0.1226
    2CHTO   O70  543   4.840   6.245   4.870  0.5100  0.0373 -0.4190
    2CHTO  H170  544   4.819   6.159   4.900  1.7028  0.4257  1.6011
    2CHTO   O57  545   4.518   6.479   4.654  0.0488  0.3216  0.0510
    2CHTO   C85  546   4.525   6.588   4.563 -0.3795  0.1080  0.3591
    2CHTO  H157  547   4.433   6.570   4.503 -0.3769  1.3268 -0.0144
    2CHTO   C83  548   4.638   6.573   4.454  0.0646 -0.1056 -0.0125
    2CHTO  H155  549   4.609   6.485   4.397 -3.9281  0.3660  1.1203
    2CHTO   O56  550   4.758   6.566   4.525  0.9647  0.3947  0.2069
    2CHTO  H135  551   4.753   6.483   4.568 -1.0956  0.2699 -0.1783
    2CHTO   C81  552   4.630   6.698   4.365 -0.5570 -0.4231 -0.0626
    2CHTO  H153  553   4.529   6.699   4.323 -0.3900 -0.1492 -0.4689
    2CHTO   N14  554   4.711   6.688   4.244 -0.1665 -0.8781 -0.3682
    2CHTO  H141  555   4.695   6.769   4.176 -1.1499 -0.4670  0.3342
    2CHTO  H142  556   4.679   6.598   4.195  1.4648 -2.0753  0.7077
    2CHTO   C79  557   4.655   6.832   4.439  0.4277  0.1204 -0.8776
    2CHTO  H151  558   4.642   6.912   4.366  2.0441  0.2577 -1.0335
    2CHTO   O52  559   4.560   6.850   4.547 -0.1430  0.2280  0.1316
    2CHTO   C86  560   4.532   6.734   4.633 -0.0218  0.0414  0.1171
    2CHTO  H158  561   4.613   6.740   4.708 -1.2853 -1.0485  1.6209
    2CHTO   C90  562   4.396   6.754   4.705  0.1169 -0.3918 -0.2010
    2CHTO   O60  563   4.366   6.661   4.810  0.0443 -0.8209 -0.2619
    2CHTO  H138  564   4.379   6.698   4.895 -0.4227  0.6438 -0.8139
    2CHTO   O50  565   4.781   6.845   4.496  0.2442 -0.1237  0.1781
    2CHTO   C73  566   4.885   6.946   4.519  0.2132 -0.4140 -0.4491
    2CHTO  H145  567   4.847   7.045   4.491  0.1307 -0.3468 -0.1052
    2CHTO   C74  568   4.999   6.922   4.425 -0.5398 -0.3601  0.3949
    2CHTO  H146  569   4.957   6.914   4.323  1.4352  0.4311 -0.4976
    2CHTO   O54  570   5.080   7.043   4.428 -0.1631  0.4140  0.7371
    2CHTO  H133  571   5.125   7.040   4.510 -1.3837  1.8994  1.4954
    2CHTO   C75  572   5.079   6.793   4.460  0.0602  0.1127  0.4458
    2CHTO  H147  573   5.012   6.706   4.448 -0.8425  0.9326 -0.5846
    2CHTO   N13  574   5.190   6.764   4.372  0.4384  0.4467  0.1151
    2CHTO  H139  575   5.183   6.664   4.334  0.0197 -0.6595  3.0143
    2CHTO  H140  576   5.193   6.838   4.293 -0.5627  2.2453  1.7211
    2CHTO   C76  577   5.116   6.795   4.616 -0.0979  0.5418 -0.3718
    2CHTO  H148  578   5.197   6.865   4.636  1.5304 -0.9081 -1.7488
    2CHTO   O49  579   4.997   6.821   4.699  0.3102  0.5521 -0.2388
    2CHTO   C77  580   4.933   6.944   4.669  0.1626  0.1137  0.3095
    2CHTO  H149  581   4.990   7.034   4.691 -1.1967  0.8154  1.0146
    2CHTO   C88  582   4.813   6.953   4.769 -0.5375  0.8301  0.5100
    2CHTO   O58  583   4.882   6.984   4.915  0.4167  0.5206  0.0261
    2CHTO  H136  584   4.903   6.906   4.963  0.3144 -0.4875 -1.5084
    2CHTO   O51  585   5.169   6.644   4.673  0.1386  0.6274  0.2544
    2CHTO   C78  586   5.253   6.657   4.801  0.1557 -0.4376  0.0687
    2CHTO  H150  587   5.237   6.756   4.849  2.7896  1.1732 -2.2324
    2CHTO   C80  588   5.404   6.638   4.771  0.3105  0.1777 -0.4210
    2CHTO  H152  589   5.416   6.548   4.707 -0.7194 -0.1256 -0.1998
    2CHTO   O55  590   5.458   6.737   4.685 -0.1062  0.1434 -0.1659
    2CHTO  H134  591   5.410   6.816   4.670  0.2570  0.2831 -0.6007
    2CHTO   C84  592   5.492   6.632   4.901 -0.3719 -0.4046 -0.7158
    2CHTO  H156  593   5.494   6.730   4.948 -0.1453 -0.2607 -1.0206
    2CHTO   N15  594   5.640   6.601   4.881  0.7057 -0.1881 -0.3551
    2CHTO  H143  595   5.679   6.508   4.916 -0.5705 -0.2944  0.8508
    2CHTO  H144  596   5.679   6.623   4.784  1.5371 -1.0467 -0.2244
    2CHTO   C87  597   5.430   6.521   4.997 -0.2454  0.1989 -0.0905
    2CHTO  H159  598   5.450   6.427   4.947 -1.0545  0.3517 -0.7101
    2CHTO   O53  599   5.279   6.535   5.015  0.3538 -0.2241 -0.2780
    2CHTO   C82  600   5.203   6.546   4.888  0.1153  0.1295 -0.0675
    2CHTO  H154  601   5.220   6.453   4.834  0.0654 -0.0334  0.2001
    2CHTO   C89  602   5.052   6.555   4.910 -0.3340  0.1559 -0.6953
    2CHTO   O59  603   5.018   6.686   4.975  0.2311 -0.1809 -0.1298
    2CHTO  H137  604   4.932   6.715   4.952  1.1060  2.3086 -0.3390
    2CHTO   O45  605   5.494   6.539   5.150  0.2095  0.1940  0.2240
    2CHTO   C67  606   5.482   6.425   5.238  0.1484 -0.1555  0.0067
    2CHTO  H124  607   5.411   6.352   5.200  0.2756 -1.0011  1.3443
    2CHTO   C65  608   5.619   6.353   5.252 -0.8415 -0.0768 -0.2656
    2CHTO  H122  609   5.690   6.423   5.208 -0.2793  1.5652  3.0805
    2CHTO   O44  610   5.619   6.239   5.166 -0.2104 -0.2674 -0.0853
    2CHTO  H102  611   5.564   6.172   5.201  1.0777 -1.0786  0.4007
    2CHTO   C63  612   5.661   6.331   5.403  0.5012 -0.4102  0.9780
    2CHTO  H120  613   5.675   6.425   5.456  0.1428  0.5493 -0.6068
    2CHTO   N11  614   5.802   6.269   5.430  0.5121  0.2096 -0.2521
    2CHTO  H108  615   5.874   6.320   5.370 -0.9268 -0.5627 -2.7250
    2CHTO  H109  616   5.789   6.166   5.406 -0.8516  0.2927  0.0766
    2CHTO   C61  617   5.536   6.268   5.473  1.1184  0.4816 -0.4792
    2CHTO  H118  618   5.565   6.251   5.578  0.6196  0.4088 -0.3492
    2CHTO   O40  619   5.420   6.358   5.470 -0.3510 -0.3157  0.0173
    2CHTO   C68  620   5.422   6.472   5.379  0.2628  0.4677  0.6850
    2CHTO  H125  621   5.492   6.546   5.422  1.2722  0.6700 -1.2673
    2CHTO   C72  622   5.284   6.543   5.372 -0.5133 -0.0273 -0.4216
    2CHTO   O48  623   5.278   6.667   5.301  0.1170  0.3781  0.3038
    2CHTO  H105  624   5.188   6.696   5.302 -0.3430 -0.8637 -1.4673
    2CHTO   O38  625   5.501   6.142   5.419  0.5564 -0.0485  0.1707
    2CHTO   C55  626   5.442   6.043   5.504 -0.2510  0.0406  0.2480
    2CHTO  H112  627   5.418   6.092   5.599 -1.4699  0.3973 -0.2360
    2CHTO   C56  628   5.546   5.924   5.522  0.3542 -0.0321  0.1909
    2CHTO  H113  629   5.577   5.889   5.422 -0.5406 -0.8338  0.1756
    2CHTO   O42  630   5.662   5.978   5.592  0.1279 -0.0241 -0.6227
    2CHTO  H100  631   5.744   5.937   5.569  0.7795  0.9053  0.0089
    2CHTO   C57  632   5.477   5.811   5.602 -0.4753 -0.0617 -0.2632
    2CHTO  H114  633   5.487   5.840   5.706 -2.2724 -0.9579  0.1754
    2CHTO   N10  634   5.539   5.681   5.581  0.1575  0.0981 -0.5402
    2CHTO  H106  635   5.615   5.668   5.656  0.4449  0.8867 -0.6888
    2CHTO  H107  636   5.580   5.664   5.482 -0.3879 -0.0394 -0.7463
    2CHTO   C58  637   5.326   5.787   5.574  0.0849 -0.0400 -0.6336
    2CHTO  H115  638   5.318   5.725   5.482 -0.0803 -0.3152 -0.4323
    2CHTO   O37  639   5.249   5.906   5.547 -0.3465 -0.5290 -0.0143
    2CHTO   C59  640   5.302   5.990   5.447 -0.7695  0.7306  0.1822
    2CHTO  H116  641   5.314   5.933   5.355  2.3525 -0.4805  1.2624
    2CHTO   C70  642   5.196   6.099   5.430 -0.0035  0.0129 -0.3586
    2CHTO   O46  643   5.230   6.181   5.320  0.0467  0.4347  0.1100
    2CHTO  H103  644   5.201   6.147   5.237 -2.9977  0.6705  1.0231
    2CHTO   O39  645   5.255   5.696   5.702 -0.6481 -0.9117 -0.5391
    2CHTO   C60  646   5.114   5.714   5.736  0.6329  0.4120 -0.2395
    2CHTO  H117  647   5.064   5.766   5.655  0.2743 -1.4185 -1.2238
    2CHTO   C62  648   5.033   5.593   5.758 -0.9517  0.4804 -0.1981
    2CHTO  H119  649   5.041   5.524   5.670  1.6868  0.2328  0.1793
    2CHTO   O43  650   5.086   5.520   5.868 -0.3458 -0.3533 -0.0987
    2CHTO  H101  651   5.112   5.432   5.850 -4.5554 -1.5742 -0.8427
    2CHTO   C66  652   4.885   5.624   5.773 -0.3893 -0.2015 -0.9419
    2CHTO  H123  653   4.857   5.679   5.683 -1.0779 -1.0169 -1.2224
    2CHTO   N12  654   4.795   5.508   5.775 -0.0455  0.1479 -0.5898
    2CHTO  H110  655   4.730   5.512   5.689 -0.6199 -2.1445 -0.2933
    2CHTO  H111  656   4.860   5.423   5.764  0.1449  0.5295 -2.7615
    2CHTO   C69  657   4.869   5.717   5.900  0.5278  0.0307 -0.1088
    2CHTO  H126  658   4.880   5.651   5.989 -0.5666 -1.5925 -1.1709
    2CHTO   O41  659   4.964   5.834   5.916  0.6506  0.0142  0.3744
    2CHTO   C64  660   5.107   5.807   5.862 -0.5743  0.2546 -0.7142
    2CHTO  H121  661   5.149   5.752   5.948  0.6994  0.4738 -1.1773
    2CHTO   C71  662   5.194   5.940   5.849  0.4656 -0.6715  0.7841
    2CHTO   O47  663   5.128   6.033   5.770 -0.2233 -0.1941  0.0775
    2CHTO  H104  664   5.060   6.079   5.816  1.1580  1.5074  0.4216
    2CHTO   O34  665   4.704   5.779   5.913  0.3034 -0.6852 -0.2944
    2CHTO   C49  666   4.631   5.910   5.883 -0.2315  0.4443 -0.0110
    2CHTO   H91  667   4.580   5.942   5.974  2.9102  1.1551  1.5604
    2CHTO   C47  668   4.532   5.891   5.765 -0.2821  0.6402 -0.4142
    2CHTO   H89  669   4.483   5.990   5.772  0.8807  1.2828 -1.0525
    2CHTO   O33  670   4.445   5.781   5.803  0.0073  0.1013 -0.4277
    2CHTO   H70  671   4.500   5.707   5.818 -1.5762 -0.8176  1.0549
    2CHTO   C45  672   4.616   5.869   5.632  0.3679 -0.1325  0.5456
    2CHTO   H87  673   4.689   5.788   5.645  2.8835  2.3306  2.3781
    2CHTO    N8  674   4.526   5.836   5.514  0.0391 -0.2893 -0.2900
    2CHTO   H75  675   4.586   5.790   5.436  0.1153  2.2307 -1.7466
    2CHTO   H76  676   4.472   5.920   5.475 -2.9267 -0.8277  2.4310
    2CHTO   C43  677   4.714   5.990   5.604 -0.1224 -0.7863  0.0136
    2CHTO   H85  678   4.776   5.958   5.521 -0.0428  0.5452 -0.4397
    2CHTO   O29  679   4.789   6.032   5.719 -1.7588 -0.2371  0.4146
    2CHTO   C50  680   4.720   6.029   5.846 -1.2543 -0.5108  0.2556
    2CHTO   H92  681   4.787   6.028   5.933  0.4289  1.7448 -0.9556
    2CHTO   C54  682   4.656   6.172   5.862 -0.2981  0.5740  0.3805
    2CHTO   O36  683   4.744   6.281   5.882  0.0296  0.3349  0.1869
    2CHTO   H72  684   4.834   6.255   5.875 -0.2462 -0.0633 -1.9616
    2CHTO   O27  685   4.652   6.112   5.556  0.0361 -0.2889 -0.5256
    2CHTO   C37  686   4.705   6.188   5.447  0.3959 -0.4143 -0.1280
    2CHTO   H79  687   4.763   6.126   5.378  0.3615 -0.2162 -0.3370
    2CHTO   C38  688   4.594   6.239   5.352 -0.5829 -0.2601 -0.0565
    2CHTO   H80  689   4.520   6.299   5.407 -1.9861 -0.6198 -1.5204
    2CHTO   O31  690   4.530   6.119   5.303 -0.1128  0.2706 -0.2444
    2CHTO   H68  691   4.439   6.138   5.289  0.4103  1.9776 -1.6387
    2CHTO   C39  692   4.651   6.331   5.243  0.7335  0.0088 -0.8414
    2CHTO   H81  693   4.726   6.279   5.182 -0.1925  0.0921 -2.0697
    2CHTO    N7  694   4.533   6.360   5.147  0.1655 -0.6504 -0.1021
    2CHTO   H73  695   4.489   6.456   5.167  2.2334  0.1213  0.8757
    2CHTO   H74  696   4.561   6.341   5.044  1.3240  1.0287 -0.1214
    2CHTO   C40  697   4.720   6.450   5.313 -0.4798 -0.7503 -0.4918
    2CHTO   H82  698   4.648   6.498   5.379 -0.7664 -0.1391 -1.2428
    2CHTO   O26  699   4.834   6.406   5.392  0.0951 -0.0198  0.7742
    2CHTO   C41  700   4.795   6.307   5.489  0.3808 -0.1163 -0.6080
    2CHTO   H83  701   4.742   6.362   5.568  2.8436  1.3102  0.0934
    2CHTO   C52  702   4.914   6.262   5.566  0.4775 -0.5160  0.3287
    2CHTO   O35  703   4.988   6.382   5.620  0.1394  0.0553 -0.1800
    2CHTO   H71  704   4.926   6.451   5.635  2.0823  2.0959 -1.3633
    2CHTO   O28  705   4.763   6.556   5.225  0.4450 -0.2578  0.4885
    2CHTO   C42  706   4.759   6.693   5.268  0.1632  0.4865  0.2532
    2CHTO   H84  707   4.823   6.737   5.192  0.6908 -2.4750 -1.0959
    2CHTO   C44  708   4.819   6.725   5.412 -0.1071 -0.0555  0.0935
    2CHTO   H86  709   4.759   6.671   5.485  0.3464 -0.5163  0.1275
    2CHTO   O32  710   4.955   6.684   5.411 -1.0076  0.4852  0.1438
    2CHTO   H69  711   4.991   6.688   5.497 -0.5069 -2.7297  0.1427
    2CHTO   C48  712   4.811   6.877   5.455 -0.3376  0.3620 -0.0014
    2CHTO   H90  713   4.883   6.923   5.387 -0.3879 -0.2879 -0.4976
    2CHTO    N9  714   4.860   6.899   5.601 -0.2478  0.4961  0.0187
    2CHTO   H77  715   4.839   7.004   5.617  2.7396  1.0192  0.7770
    2CHTO   H78  716   4.813   6.826   5.665  0.6222  1.3315  1.6269
    2CHTO   C51  717   4.658   6.915   5.433  0.2161 -0.6387 -0.0160
    2CHTO   H93  718   4.610   6.844   5.501  1.3087 -2.6716 -1.3045
    2CHTO   O30  719   4.618   6.892   5.299 -0.4888 -0.7092  0.1679
    2CHTO   C46  720   4.615   6.760   5.260 -1.1524 -0.5708  0.4724
    2CHTO   H88  721   4.550   6.709   5.332  0.2409 -0.8799  1.5377
    2CHTO   C53  722   4.550   6.761   5.118  0.4115  0.0702 -0.6123
    2CHTO   O72  723   4.622   6.833   5.015 -0.5014  0.9867 -0.2824
    2CHTO  H199  724   4.669   6.906   5.052 -0.6538  0.0776  1.7861
    2CHTO   O22  725   4.633   7.048   5.470 -0.0708  0.5780 -0.6803
    2CHTO   C31  726   4.500   7.093   5.517  0.1719 -0.2482 -0.2245
    2CHTO   H59  727   4.504   7.201   5.540 -1.7152 -0.1649 -0.1704
    2CHTO   C29  728   4.392   7.077   5.409 -0.0048 -0.4035 -0.0474
    2CHTO   H57  729   4.402   6.976   5.367  4.2343  0.6737 -1.8397
    2CHTO   O21  730   4.419   7.163   5.298 -0.2576 -0.4066  0.1074
    2CHTO   H37  731   4.464   7.239   5.329 -1.4864 -0.0547  1.0445
    2CHTO   C27  732   4.246   7.098   5.469 -0.8300  0.0601 -0.3524
    2CHTO   H55  733   4.232   7.205   5.488  0.6650  0.3404 -0.7794
    2CHTO    N5  734   4.148   7.053   5.364 -0.0304 -0.6845  0.0057
    2CHTO   H43  735   4.059   7.114   5.366  0.5162  0.2030 -1.5341
    2CHTO   H44  736   4.196   7.040   5.268  0.1709 -0.4143  0.0703
    2CHTO   C25  737   4.232   7.016   5.606  0.6041 -0.0819 -0.4099
    2CHTO   H53  738   4.267   6.915   5.580 -0.8860 -0.7640  0.1624
    2CHTO   O17  739   4.332   7.061   5.696 -0.2757  0.0418  0.6681
    2CHTO   C32  740   4.463   7.023   5.652 -0.0661 -0.1528 -0.2617
    2CHTO   H60  741   4.471   6.915   5.636 -0.0493 -0.0078 -1.3029
    2CHTO   C36  742   4.565   7.049   5.760 -0.4221  0.9057 -0.4292
    2CHTO   O25  743   4.516   6.986   5.881 -0.1615  0.0562  0.8724
    2CHTO   H40  744   4.570   6.909   5.887  0.2428  0.3857  1.5082
    2CHTO   O15  745   4.116   7.023   5.660  0.0759 -0.5597  1.0538
    2CHTO   C19  746   4.045   6.975   5.776 -0.1002 -0.6576 -0.0913
    2CHTO   H47  747   3.941   7.004   5.755 -0.2045 -1.4165 -0.6283
    2CHTO   C20  748   4.048   6.822   5.793  0.3571 -0.4245  0.2841
    2CHTO   H48  749   4.152   6.788   5.811  0.7282 -1.4842 -3.3907
    2CHTO   O19  750   3.999   6.766   5.675  0.1387 -0.3006 -0.1961
    2CHTO   H35  751   4.053   6.694   5.649 -0.2108 -1.2087  1.5082
    2CHTO   C21  752   3.952   6.781   5.918 -0.4548 -0.6067  0.3102
    2CHTO   H49  753   3.851   6.817   5.900 -0.4833  1.6615  4.5258
    2CHTO    N4  754   3.950   6.637   5.944 -0.3367 -0.0446  0.4706
    2CHTO   H41  755   3.879   6.614   6.022  0.8967 -0.7107  1.4027
    2CHTO   H42  756   3.924   6.579   5.857  0.7168  0.8149 -0.4256
    2CHTO   C22  757   3.997   6.863   6.040 -0.4764 -0.2062  0.0265
    2CHTO   H50  758   4.096   6.826   6.066  0.2197  0.3082 -1.8163
    2CHTO   O14  759   4.007   7.010   6.017  0.0804 -0.5937  0.2100
    2CHTO   C23  760   4.087   7.054   5.907  0.2331  0.4147  0.1514
    2CHTO   H51  761   4.189   7.027   5.940 -0.6231 -1.9349  0.9441
    2CHTO   C34  762   4.055   7.202   5.877 -0.2931 -0.1702 -0.1413
    2CHTO   O23  763   4.073   7.305   5.981 -0.2860 -0.1914  0.6764
    2CHTO   H38  764   4.117   7.380   5.946 -0.1391 -1.0378 -0.9858
    2CHTO   O16  765   3.905   6.848   6.152 -0.3399 -0.1632 -0.0527
    2CHTO   C24  766   3.977   6.901   6.290 -0.0069 -0.5174  0.2594
    2CHTO   H52  767   4.068   6.959   6.270 -1.3984  1.6554  0.0432
    2CHTO   C26  768   4.028   6.782   6.377  0.5971 -0.5004  0.2217
    2CHTO   H54  769   3.946   6.708   6.387 -0.8424  1.3576  2.2587
    2CHTO   O20  770   4.131   6.717   6.304 -0.9458  0.6218  0.1899
    2CHTO   H36  771   4.211   6.765   6.310 -0.5202 -0.1300  0.5582
    2CHTO   C30  772   4.079   6.821   6.517 -0.6796 -0.3358  0.1957
    2CHTO   H58  773   4.180   6.865   6.504  0.2014 -1.2667  3.3181
    2CHTO    N6  774   4.098   6.701   6.607 -0.1669  0.2151  0.8208
    2CHTO   H45  775   4.168   6.629   6.568 -0.9624 -0.1185 -0.0113
    2CHTO   H46  776   4.124   6.732   6.707  0.6080  0.9477  0.4023
    2CHTO   C33  777   3.996   6.941   6.583 -0.2871  0.4663 -0.3085
    2CHTO   H61  778   3.906   6.895   6.627  0.4775  1.1572  2.0552
    2CHTO   O18  779   3.952   7.042   6.485 -0.1959 -0.0573 -0.8148
    2CHTO   C28  780   3.880   6.989   6.374 -0.7216 -0.3659 -1.0086
    2CHTO   H56  781   3.797   6.928   6.408  0.8800 -1.3325  1.2619
    2CHTO   C35  782   3.817   7.100   6.287 -0.8965 -0.3774 -0.0450
    2CHTO   O24  783   3.915   7.199   6.245 -1.0177 -0.0314  0.4897
    2CHTO   H39  784   3.869   7.277   6.269  0.5877  1.0218  0.2464
    2CHTO    O9  785   4.066   6.999   6.695  0.1642 -0.8052 -0.5350
    2CHTO   C13  786   3.955   7.100   6.797  0.1013 -0.7007  0.1922
    2CHTO   H26  787   3.852   7.078   6.760  0.0566 -0.6502  0.2866
    2CHTO   C11  788   3.987   7.258   6.777 -0.3494 -0.0113 -0.5831
    2CHTO   H24  789   3.924   7.302   6.698 -3.1334 -1.5237  0.7110
    2CHTO    O8  790   4.121   7.273   6.741  0.0322 -0.2226 -0.2324
    2CHTO    H3  791   4.181   7.237   6.804  0.0481 -1.6885 -1.0510
    2CHTO    C9  792   3.946   7.330   6.914  0.6282  0.0516  0.4054
    2CHTO   H22  793   3.839   7.307   6.932  0.9439  2.0510  5.6053
    2CHTO    N2  794   3.952   7.476   6.903 -0.3447 -0.0493 -0.0588
    2CHTO   H10  795   3.862   7.526   6.938 -0.3024  1.2898 -1.8459
    2CHTO   H11  796   4.050   7.503   6.940 -0.0730  0.5183 -1.1680
    2CHTO    C7  797   4.017   7.270   7.042 -0.4626 -1.2159 -0.2240
    2CHTO   H20  798   3.940   7.290   7.119  0.9082 -1.2782  1.1980
    2CHTO    O4  799   4.041   7.129   7.041  0.2169 -0.4602 -0.2636
    2CHTO   C14  800   3.953   7.059   6.949  0.1541  0.4364 -0.7931
    2CHTO   H27  801   3.849   7.081   6.982 -0.0666 -1.9714  0.2294
    2CHTO   C18  802   3.975   6.907   6.984 -0.7677 -0.9180  0.5882
    2CHTO   O13  803   3.924   6.810   6.889  0.5145  0.0712  0.6989
    2CHTO    H7  804   3.832   6.809   6.908  0.1805 -0.9148 -0.8274
    2CHTO    O2  805   4.170   7.345   7.077 -0.1950 -0.0780 -0.2039
    2CHTO    C1  806   4.182   7.377   7.216  0.5681  0.3989  0.7181
    2CHTO   H14  807   4.117   7.308   7.274 -0.6010  1.2060  0.3987
    2CHTO    C2  808   4.153   7.525   7.267  0.1801  0.3139 -0.2090
    2CHTO   H15  809   4.208   7.590   7.198 -1.0905 -0.9980 -2.5050
    2CHTO    O6  810   4.010   7.552   7.246 -0.2878 -0.6645  0.1838
    2CHTO    H1  811   3.998   7.612   7.175  1.3517 -0.7114 -0.1600
    2CHTO    C3  812   4.206   7.539   7.427  0.1579 -0.3194  0.5437
    2CHTO   H16  813   4.144   7.467   7.484  1.3776 -2.0642 -0.2669
    2CHTO    N1  814   4.191   7.672   7.477 -0.2645  0.4904  0.8308
    2CHTO    H8  815   4.086   7.693   7.491 -0.4210  0.4466 -0.2300
    2CHTO    H9  816   4.235   7.678   7.575 -1.1928  1.5023  1.2002
    2CHTO    C4  817   4.348   7.487   7.438  0.1437  0.9878 -0.0928
    2CHTO   H17  818   4.412   7.555   7.381  0.6342  0.4155 -0.2268
    2CHTO    O1  819   4.369   7.352   7.385  0.2521 -0.1185 -0.7276
    2CHTO    C5  820   4.330   7.329   7.250 -0.3857 -0.2865 -0.0689
    2CHTO   H18  821   4.397   7.383   7.183 -1.9026 -0.4930 -1.8058
    2CHTO   C16  822   4.350   7.176   7.222 -0.5291  0.2730  0.2041
    2CHTO   O11  823   4.260   7.098   7.289  0.1907 -0.4642 -0.4492
    2CHTO    H5  824   4.296   7.068   7.370 -0.5433 -0.5841 -0.1638
    2CHTO    O3  825   4.373   7.477   7.583 -0.2661  0.1914  0.0070
    2CHTO    C6  826   4.508   7.495   7.635  0.7609  0.1995 -0.0848
    2CHTO   H19  827   4.586   7.475   7.562 -0.4751  0.5992 -1.5307
    2CHTO    C8  828   4.505   7.644   7.692  0.3561  0.9235 -0.0426
    2CHTO   H21  829   4.417   7.656   7.755  0.0634 -2.3867  0.2504
    2CHTO    O7  830   4.490   7.731   7.573  0.9660 -0.4289 -0.3808
    2CHTO    H2  831   4.413   7.712   7.523  1.1450  1.0620 -1.2356
    2CHTO   C12  832   4.640   7.673   7.780 -0.3589 -0.5142 -0.3205
    2CHTO   H25  833   4.731   7.668   7.717 -0.1750  1.2778 -0.2368
    2CHTO    N3  834   4.633   7.812   7.832 -0.2925 -0.6379  0.1293
    2CHTO   H12  835   4.534   7.821   7.874  0.6939  2.2664  2.0042
    2CHTO   H13  836   4.702   7.847   7.907  0.4389 -0.3517 -0.6754
    2CHTO   C15  837   4.656   7.568   7.895  0.5073  1.3520 -0.0129
    2CHTO   H28  838   4.577   7.576   7.970  0.3659  0.3607 -0.0537
    2CHTO   O10  839   4.792   7.565   7.968 -0.0945 -0.2189 -0.5811
    2CHTO    H4  840   4.784   7.523   8.052  2.1969  1.2273  0.3933
    2CHTO    O5  841   4.650   7.432   7.841 -0.5261  0.0900  0.0705
    2CHTO   C10  842   4.533   7.400   7.756 -0.3846  0.2049 -1.2504
    2CHTO   H23  843   4.444   7.415   7.817 -1.4484  0.7777 -2.9091
    2CHTO   C17  844   4.538   7.252   7.716  0.2023  0.1672 -0.9805
    2CHTO   O12  845   4.429   7.189   7.640 -0.2151  0.5886  0.5574
    2CHTO    H6  846   4.368   7.142   7.694  1.2393  0.5288  2.1840
    3CHTO  H203  847   6.171   3.538   3.467  1.2022  1.3152  0.6777
    3CHTO   O82  848   6.171   3.570   3.379 -0.5112  0.4952  0.3560
    3CHTO  C123  849   6.106   3.490   3.279 -0.4925 -0.0937  0.5048
    3CHTO  H227  850   6.004   3.463   3.309 -0.6883  0.2740  0.1650
    3CHTO   O77  851   6.115   3.589   3.176 -0.1411 -0.2295  0.1791
    3CHTO  C118  852   6.037   3.554   3.058  0.3944 -0.4223 -0.2511
    3CHTO  H222  853   5.941   3.511   3.089 -0.5512  1.9121  0.1291
    3CHTO  C125  854   6.006   3.692   2.979 -0.0279  0.0894  0.0390
    3CHTO   O84  855   6.120   3.744   2.910  0.4072  0.3716 -0.7096
    3CHTO  H205  856   6.121   3.716   2.820  0.0825 -1.7789 -0.0751
    3CHTO  C114  857   6.126   3.455   2.981 -0.2126 -0.5114  0.1501
    3CHTO  H218  858   6.215   3.510   2.951 -0.8240 -0.2656 -1.2866
    3CHTO  C116  859   6.156   3.338   3.073  1.2032 -0.0578 -0.4010
    3CHTO  H220  860   6.066   3.272   3.076  1.4080 -0.4413 -2.1290
    3CHTO   O79  861   6.251   3.252   3.010  0.3301 -0.6550  0.5555
    3CHTO  H201  862   6.339   3.284   3.009  1.0225 -2.3796 -3.6454
    3CHTO  C120  863   6.207   3.375   3.218  0.5078 -0.1354  0.3461
    3CHTO  H224  864   6.302   3.429   3.199 -1.1510  3.5340  1.9387
    3CHTO   N21  865   6.221   3.261   3.307  0.0370 -0.4735 -0.4041
    3CHTO  H211  866   6.201   3.293   3.409 -0.7781 -0.4939 -0.5535
    3CHTO  H212  867   6.150   3.183   3.283  0.2012 -0.7438 -0.0120
    3CHTO   O75  868   6.054   3.429   2.858 -0.1558  0.2204 -0.0993
    3CHTO  C112  869   6.119   3.339   2.749 -0.4739 -0.0083 -0.1139
    3CHTO  H216  870   6.120   3.232   2.775 -0.6755 -0.5515 -2.2740
    3CHTO   O73  871   6.252   3.389   2.730 -0.7523  0.0204 -0.3566
    3CHTO  C113  872   6.340   3.316   2.645 -0.2691 -0.1648 -0.1549
    3CHTO  H217  873   6.337   3.215   2.691 -2.6843 -0.1055 -0.1356
    3CHTO  C124  874   6.478   3.380   2.648 -0.3186  0.5268  0.2266
    3CHTO   O83  875   6.528   3.397   2.786 -0.1623 -0.2770  0.3358
    3CHTO  H204  876   6.465   3.437   2.843 -0.5966  0.0545 -0.3692
    3CHTO  C109  877   6.285   3.319   2.504  0.6152 -0.5988  0.5104
    3CHTO  H213  878   6.307   3.422   2.470  0.8994 -0.8068  0.0526
    3CHTO  C110  879   6.129   3.288   2.495  0.1699  0.0231  0.1179
    3CHTO  H214  880   6.110   3.181   2.499  1.4636 -0.1656  1.6069
    3CHTO   O78  881   6.084   3.329   2.367 -0.0087  0.0592  0.0307
    3CHTO  H200  882   6.145   3.299   2.302 -0.7935 -1.8985  0.1535
    3CHTO  C111  883   6.048   3.357   2.607  0.3581  0.2567  0.2820
    3CHTO  H215  884   6.048   3.466   2.589  0.5019  0.3377  0.7636
    3CHTO   N19  885   5.905   3.312   2.610  0.1562  0.1022  0.4605
    3CHTO  H207  886   5.858   3.366   2.690 -3.3149 -0.9215 -0.7712
    3CHTO  H208  887   5.870   3.342   2.512  3.0623  0.5342 -0.4884
    3CHTO   O74  888   6.366   3.223   2.423  0.1073  0.3591 -0.2453
    3CHTO  C115  889   6.462   3.287   2.311 -1.0088  0.6201  0.8225
    3CHTO  H219  890   6.475   3.395   2.326 -0.5874  0.3121  2.7265
    3CHTO   O76  891   6.612   3.220   2.315 -0.2446  1.0109 -0.4224
    3CHTO  C122  892   6.605   3.080   2.308 -0.3385  0.6371 -0.4313
    3CHTO  H226  893   6.584   3.040   2.408 -0.9225 -0.0423 -0.8202
    3CHTO  C126  894   6.748   3.018   2.275 -0.3398  0.0020 -0.2944
    3CHTO   O85  895   6.752   2.876   2.325  0.3005  0.1832 -0.2488
    3CHTO  H206  896   6.751   2.811   2.257  1.6497  0.8158 -0.9144
    3CHTO  C121  897   6.503   3.030   2.203  0.0286 -0.3594 -0.3837
    3CHTO  H225  898   6.553   2.949   2.146  1.2502 -0.0369  0.2221
    3CHTO   O81  899   6.386   2.971   2.265  0.0784 -0.2183 -0.3258
    3CHTO  H202  900   6.338   3.041   2.306  1.2390  0.0753  0.5313
    3CHTO  C119  901   6.458   3.137   2.103  0.0541  0.2683 -0.0318
    3CHTO  H223  902   6.553   3.180   2.070 -0.4902  0.3453 -1.5240
    3CHTO  C117  903   6.381   3.255   2.178 -0.4062 -1.0168  0.3716
    3CHTO  H221  904   6.277   3.233   2.202 -0.2889  0.1032  2.0628
    3CHTO   N20  905   6.370   3.371   2.076 -0.0449  0.2321 -0.3578
    3CHTO  H209  906   6.442   3.450   2.088 -1.2352  1.2352  0.3166
    3CHTO  H210  907   6.376   3.331   1.976 -1.1610  2.2436 -1.2484
    3CHTO   O80  908   6.395   3.081   1.968  0.0230 -0.2445 -0.1890
    3CHTO  C103  909   6.295   2.948   1.972  0.2075  0.9645 -0.3797
    3CHTO  H190  910   6.306   2.882   2.058 -0.4172  0.5186 -0.6398
    3CHTO  C101  911   6.138   2.977   1.960  0.1892  0.3059 -0.1238
    3CHTO  H188  912   6.136   3.033   1.866 -3.0037  2.3475  1.0851
    3CHTO   O68  913   6.083   3.062   2.075 -0.5604 -0.4085  0.6145
    3CHTO  H168  914   5.996   3.089   2.055  0.7069  0.8759 -3.8044
    3CHTO   C99  915   6.062   2.833   1.924  0.6477 -0.0901  0.4320
    3CHTO  H186  916   6.079   2.771   2.014 -0.1840  1.0975  1.4218
    3CHTO   N17  917   5.920   2.839   1.901 -0.7686  0.2220 -0.2323
    3CHTO  H174  918   5.903   2.914   1.824  1.6585  0.0533 -0.9691
    3CHTO  H175  919   5.867   2.846   1.995  0.2437  0.6729  0.3116
    3CHTO   C97  920   6.140   2.767   1.804  0.0807  0.3867  0.5529
    3CHTO  H184  921   6.133   2.824   1.710 -1.1277  0.0985  0.4617
    3CHTO   O64  922   6.279   2.742   1.845 -0.3322 -0.1170 -0.3893
    3CHTO  C104  923   6.350   2.866   1.855  0.2600  0.6154 -0.7959
    3CHTO  H191  924   6.338   2.922   1.763  0.5509  2.0189 -0.0003
    3CHTO  C108  925   6.500   2.827   1.864  0.1947 -0.3755 -0.5062
    3CHTO   O71  926   6.555   2.723   1.786 -0.1824 -0.1071 -0.4324
    3CHTO  H171  927   6.509   2.643   1.801 -0.3481 -0.2295 -1.5088
    3CHTO   O62  928   6.100   2.628   1.799 -0.1288 -0.0241  0.6903
    3CHTO   C91  929   6.083   2.561   1.668  0.3828  0.1909 -0.5419
    3CHTO  H178  930   6.010   2.622   1.614 -1.5161 -1.0395  0.5867
    3CHTO   C92  931   6.021   2.429   1.701  0.7633 -0.2975  0.1909
    3CHTO  H179  932   6.088   2.359   1.752 -0.0926 -0.5753  0.9537
    3CHTO   O66  933   5.914   2.446   1.797 -0.0439 -0.0243  0.0215
    3CHTO  H166  934   5.842   2.474   1.745  0.4645  0.1942 -0.5696
    3CHTO   C93  935   5.971   2.359   1.562  1.0309  0.4941 -0.3932
    3CHTO  H180  936   5.873   2.399   1.534 -0.0844 -2.0420 -0.3227
    3CHTO   N16  937   5.946   2.212   1.580 -0.2361 -0.1903  0.7365
    3CHTO  H172  938   5.854   2.203   1.637 -0.6403  2.5810  0.6193
    3CHTO  H173  939   5.927   2.169   1.482  1.2143 -1.0250  0.8175
    3CHTO   C94  940   6.076   2.384   1.448 -0.2252 -0.1169 -0.1898
    3CHTO  H181  941   6.093   2.295   1.389 -0.0931  1.7863 -3.1239
    3CHTO   O61  942   6.204   2.413   1.507  0.3501  0.4307  0.3429
    3CHTO   C95  943   6.219   2.529   1.583 -0.1203  0.3052 -0.1677
    3CHTO  H182  944   6.293   2.513   1.662  0.0307  2.3037  0.1325
    3CHTO  C106  945   6.274   2.661   1.509 -0.2442 -0.8795 -0.1781
    3CHTO   O69  946   6.192   2.718   1.407  0.5789 -0.2841  0.2124
    3CHTO  H169  947   6.200   2.810   1.416 -0.6207 -0.1970  0.5221
    3CHTO   O63  948   6.028   2.486   1.344  0.3693 -0.4364  0.3004
    3CHTO   C96  949   5.877   2.458   1.270  0.1451 -0.8396  0.5675
    3CHTO  H183  950   5.792   2.453   1.339  0.5278  2.7393  1.3630
    3CHTO   C98  951   5.875   2.337   1.181 -0.5335 -0.6596 -0.2682
    3CHTO  H185  952   5.965   2.336   1.117  0.2905 -0.0810  0.8517
    3CHTO   O67  953   5.882   2.222   1.258 -0.2776 -0.2317  0.1345
    3CHTO  H167  954   5.953   2.228   1.319 -0.1627 -3.5522  0.4155
    3CHTO  C102  955   5.745   2.322   1.077  0.2094  0.0911 -0.1975
    3CHTO  H189  956   5.658   2.308   1.143  1.0404  0.7516  1.0643
    3CHTO   N18  957   5.747   2.207   0.988  0.6761 -0.4262  0.0894
    3CHTO  H176  958   5.715   2.120   1.042 -1.0325  0.4006  0.4370
    3CHTO  H177  959   5.850   2.194   0.957  1.4412 -0.8528  2.7048
    3CHTO  C105  960   5.716   2.461   1.020  0.4551 -0.0667 -0.7487
    3CHTO  H192  961   5.788   2.486   0.942  2.3783  0.1879  1.0538
    3CHTO   O65  962   5.716   2.571   1.110 -0.8308 -0.1269 -0.1325
    3CHTO  C100  963   5.838   2.586   1.187 -0.1167  0.7215  0.0939
    3CHTO  H187  964   5.926   2.600   1.123  0.4269  0.1234  0.6911
    3CHTO  C107  965   5.815   2.711   1.271 -0.0820 -0.5176  0.3220
    3CHTO   O70  966   5.927   2.762   1.343  0.2931 -0.2561 -0.2121
    3CHTO  H170  967   5.994   2.807   1.295  0.7215  1.7922  2.2081
    3CHTO   O57  968   5.575   2.448   0.952  0.1666  0.4755 -0.5415
    3CHTO   C85  969   5.537   2.519   0.832  0.0602  0.2778 -0.4078
    3CHTO  H157  970   5.594   2.466   0.752  3.1485 -0.5463  2.2501
    3CHTO   C83  971   5.589   2.664   0.834 -0.3034 -0.4532  0.6543
    3CHTO  H155  972   5.697   2.653   0.822 -0.6137 -0.9405 -1.9722
    3CHTO   O56  973   5.552   2.723   0.958  0.3355 -0.0589  1.1444
    3CHTO  H135  974   5.572   2.815   0.961  1.1735 -0.1831 -0.1027
    3CHTO   C81  975   5.536   2.737   0.712  0.8583  0.3618 -0.2224
    3CHTO  H153  976   5.570   2.686   0.622  2.1300  0.7523  0.0262
    3CHTO   N14  977   5.596   2.870   0.689  0.2326 -0.1118 -0.2754
    3CHTO  H141  978   5.689   2.856   0.740 -1.2437 -3.6415  1.6983
    3CHTO  H142  979   5.617   2.890   0.586 -1.2143  2.1226 -0.1770
    3CHTO   C79  980   5.375   2.738   0.713  0.1274  0.2182  0.0854
    3CHTO  H151  981   5.344   2.779   0.617 -1.6669  0.4133  0.7128
    3CHTO   O52  982   5.325   2.600   0.706  0.1327  0.5140 -0.3890
    3CHTO   C86  983   5.377   2.513   0.811 -0.1313 -0.8642 -0.4136
    3CHTO  H158  984   5.328   2.554   0.902 -1.7751 -1.6946 -0.8971
    3CHTO   C90  985   5.315   2.374   0.784 -1.2540 -0.7650 -0.3580
    3CHTO   O60  986   5.390   2.271   0.857 -0.0596 -0.0098  0.4624
    3CHTO  H138  987   5.483   2.275   0.851 -0.0358 -1.3170 -0.2993
    3CHTO   O50  988   5.313   2.803   0.822  0.0138 -0.6351  0.1315
    3CHTO   C73  989   5.189   2.877   0.814 -0.4393 -0.2869  0.2256
    3CHTO  H145  990   5.122   2.843   0.734  1.4292  0.9847 -1.9454
    3CHTO   C74  991   5.218   3.027   0.777 -0.5916 -0.4045 -0.9609
    3CHTO  H146  992   5.275   3.009   0.685 -0.9884 -1.3236 -1.0251
    3CHTO   O54  993   5.093   3.096   0.752 -0.5347  0.7685  0.0995
    3CHTO  H133  994   5.112   3.172   0.700 -1.1847 -0.0236 -1.3526
    3CHTO   C75  995   5.314   3.080   0.896  0.5451 -0.5922 -0.2396
    3CHTO  H147  996   5.409   3.025   0.885  1.4305  0.9449 -0.4438
    3CHTO   N13  997   5.356   3.224   0.884 -0.2335 -0.3114 -0.1703
    3CHTO  H139  998   5.269   3.284   0.905  0.7221  0.9161  0.3647
    3CHTO  H140  999   5.388   3.232   0.781 -0.8156  0.8073 -0.2770
    3CHTO   C76 1000   5.246   3.051   1.039  0.4075 -0.4018 -0.6271
    3CHTO  H148 1001   5.161   3.118   1.033  1.9051  1.6050  0.2457
    3CHTO   O49 1002   5.206   2.914   1.053 -0.6416 -0.2481  0.7605
    3CHTO   C77 1003   5.123   2.871   0.952  0.1610 -0.9861  0.0507
    3CHTO  H149 1004   5.034   2.935   0.955  0.9906  0.0889  3.7236
    3CHTO   C88 1005   5.076   2.728   0.989  0.2926 -0.0550 -0.1278
    3CHTO   O58 1006   4.981   2.665   0.896  0.3042  0.3708 -0.6459
    3CHTO  H136 1007   4.891   2.680   0.915 -0.3143 -1.3764 -2.0912
    3CHTO   O51 1008   5.357   3.067   1.168  0.0367  0.4354  0.0550
    3CHTO   C78 1009   5.300   3.077   1.318  0.7538  0.1915  0.4194
    3CHTO  H150 1010   5.214   3.008   1.328  0.7656  0.3244  1.5158
    3CHTO   C80 1011   5.263   3.222   1.350  0.3227  0.3769  0.2122
    3CHTO  H152 1012   5.351   3.287   1.332 -0.7972  1.2822 -2.1157
    3CHTO   O55 1013   5.162   3.256   1.256 -0.2928  0.0940 -0.4192
    3CHTO  H134 1014   5.139   3.346   1.268 -0.3540  0.0063  0.1143
    3CHTO   C84 1015   5.204   3.237   1.499  0.1806  0.3397 -0.1266
    3CHTO  H156 1016   5.110   3.182   1.499 -0.6443  1.7250 -1.4468
    3CHTO   N15 1017   5.170   3.379   1.542  0.4116 -0.4832 -0.2237
    3CHTO  H143 1018   5.097   3.371   1.619  0.9186 -0.7629  0.2294
    3CHTO  H144 1019   5.249   3.446   1.569 -0.4432 -0.1721  1.5826
    3CHTO   C87 1020   5.292   3.163   1.599 -0.2902  0.8142 -0.3462
    3CHTO  H159 1021   5.383   3.216   1.627  0.7186 -1.8240  1.5672
    3CHTO   O53 1022   5.356   3.016   1.546 -0.7584 -0.9183  0.1047
    3CHTO   C82 1023   5.412   3.021   1.412  0.3089 -0.0980  0.1291
    3CHTO  H154 1024   5.504   3.078   1.398 -0.7004  1.1773 -1.4406
    3CHTO   C89 1025   5.437   2.869   1.370 -0.0175  0.1489 -0.0351
    3CHTO   O59 1026   5.559   2.825   1.433 -0.5192  0.2150  0.4659
    3CHTO  H137 1027   5.640   2.868   1.413  0.4594 -1.3841  0.9668
    3CHTO   O45 1028   5.214   3.129   1.726  0.2153  0.2101 -0.0161
    3CHTO   C67 1029   5.296   3.134   1.840  0.1303 -0.4338 -0.0107
    3CHTO  H124 1030   5.388   3.081   1.815  0.0315 -1.0622  0.9279
    3CHTO   C65 1031   5.344   3.276   1.886  0.1997 -0.0779  0.2127
    3CHTO  H122 1032   5.324   3.342   1.802  0.8086 -1.0931 -0.7406
    3CHTO   O44 1033   5.482   3.270   1.914 -0.2648 -0.3141  0.3590
    3CHTO  H102 1034   5.522   3.353   1.894  0.8662 -1.0879 -0.7324
    3CHTO   C63 1035   5.253   3.322   2.010  0.5609 -0.9902  0.2636
    3CHTO  H120 1036   5.153   3.326   1.968  0.1663 -1.8141  1.1104
    3CHTO   N11 1037   5.286   3.464   2.062 -0.1387  0.4698  0.1192
    3CHTO  H108 1038   5.334   3.516   1.982 -0.9933 -1.7805 -1.9127
    3CHTO  H109 1039   5.346   3.461   2.151 -1.2729 -1.2293  0.8333
    3CHTO   C61 1040   5.271   3.219   2.120 -0.5035 -0.8666 -1.1794
    3CHTO  H118 1041   5.188   3.227   2.192  1.0256 -1.0850  0.6364
    3CHTO   O40 1042   5.273   3.082   2.080  0.1658 -0.0183 -0.2896
    3CHTO   C68 1043   5.220   3.046   1.950 -0.2488 -0.6284  0.0364
    3CHTO  H125 1044   5.111   3.067   1.952 -0.6251 -2.4962 -0.0049
    3CHTO   C72 1045   5.236   2.894   1.929  0.4899 -0.1824  0.1898
    3CHTO   O48 1046   5.365   2.836   1.935 -0.0801 -0.1055 -0.0357
    3CHTO  H105 1047   5.392   2.828   2.025  1.7081  1.1777 -0.4397
    3CHTO   O38 1048   5.391   3.236   2.188 -0.1596 -0.0256 -0.0010
    3CHTO   C55 1049   5.409   3.168   2.318  0.5497 -0.4254 -1.2329
    3CHTO  H112 1050   5.342   3.081   2.320  0.9304 -0.6871  0.3540
    3CHTO   C56 1051   5.383   3.255   2.454 -0.1264 -0.2576  0.1096
    3CHTO  H113 1052   5.451   3.342   2.456 -0.6545  0.2201 -1.3616
    3CHTO   O42 1053   5.252   3.307   2.458 -0.3760  0.2581 -0.1192
    3CHTO  H100 1054   5.249   3.383   2.513 -0.7364  0.8470 -0.9319
    3CHTO   C57 1055   5.406   3.164   2.584  0.0060  0.3077 -0.2678
    3CHTO  H114 1056   5.327   3.090   2.588 -0.3619  0.6738 -0.6410
    3CHTO   N10 1057   5.402   3.242   2.709 -0.6896 -0.4660  0.1616
    3CHTO  H106 1058   5.491   3.302   2.717 -0.8346 -0.5857  3.3961
    3CHTO  H107 1059   5.316   3.306   2.701 -0.5509 -0.7056 -4.1871
    3CHTO   C58 1060   5.539   3.089   2.568  0.1727  0.2140  0.6729
    3CHTO  H115 1061   5.618   3.167   2.577 -1.0315  1.5630 -0.2230
    3CHTO   O37 1062   5.546   3.014   2.442  0.0480 -0.2254 -0.1659
    3CHTO   C59 1063   5.553   3.109   2.332 -0.2511 -0.1940 -0.0822
    3CHTO  H116 1064   5.624   3.188   2.358 -0.9732  0.9124 -1.3824
    3CHTO   C70 1065   5.605   3.038   2.203 -0.2585  0.3598  0.2904
    3CHTO   O46 1066   5.670   3.122   2.102  0.0019  0.2463 -0.3827
    3CHTO  H103 1067   5.696   3.071   2.028 -2.5375  1.2046 -1.9952
    3CHTO   O39 1068   5.556   2.968   2.695 -0.2150 -0.3918  0.1683
    3CHTO   C60 1069   5.694   2.929   2.697  0.9082 -0.0317  0.0434
    3CHTO  H117 1070   5.752   2.952   2.608  1.1394 -1.8279 -0.2882
    3CHTO   C62 1071   5.759   2.992   2.821 -0.2293  0.0666  0.3362
    3CHTO  H119 1072   5.741   3.099   2.801  0.4878  0.0210 -0.5665
    3CHTO   O43 1073   5.685   2.962   2.943  0.3732 -0.3816 -0.3009
    3CHTO  H101 1074   5.610   3.018   2.946  1.2533  0.8294 -0.6179
    3CHTO   C66 1075   5.920   2.955   2.829  0.2467 -0.1042  0.1014
    3CHTO  H123 1076   5.968   2.997   2.741 -4.0872  3.2157 -0.8829
    3CHTO   N12 1077   5.995   3.023   2.946  0.2839  0.3920 -0.0011
    3CHTO  H110 1078   5.973   3.129   2.939  1.7659  0.6890 -0.2208
    3CHTO  H111 1079   5.967   2.986   3.043  1.6343  0.9994  0.6226
    3CHTO   C69 1080   5.928   2.806   2.847  0.8282 -0.9167 -0.1561
    3CHTO  H126 1081   5.905   2.775   2.951  0.0239  1.3854  0.3779
    3CHTO   O41 1082   5.836   2.721   2.745  0.0769 -0.1267 -0.0446
    3CHTO   C64 1083   5.708   2.777   2.710  0.3788  0.1357 -0.4326
    3CHTO  H121 1084   5.639   2.746   2.791 -0.0921 -1.2972 -1.3649
    3CHTO   C71 1085   5.662   2.715   2.580 -0.0971  0.0192 -0.1219
    3CHTO   O47 1086   5.749   2.744   2.468 -0.2867 -0.2441  0.1318
    3CHTO  H104 1087   5.816   2.679   2.468 -0.0085  0.0337  0.8106
    3CHTO   O34 1088   6.088   2.761   2.821  0.1741  0.2919  0.0538
    3CHTO   C49 1089   6.193   2.723   2.742 -0.1385 -0.1838 -0.6640
    3CHTO   H91 1090   6.283   2.713   2.803 -0.2317 -0.6204 -0.5939
    3CHTO   C47 1091   6.210   2.827   2.628  0.2082 -0.1467 -0.1247
    3CHTO   H89 1092   6.299   2.801   2.568  1.3355 -1.0964  1.9302
    3CHTO   O33 1093   6.224   2.959   2.686  0.2761 -0.0752 -0.3744
    3CHTO   H70 1094   6.309   2.998   2.673 -1.0101  2.5320 -1.2569
    3CHTO   C45 1095   6.077   2.817   2.527  0.1937  0.4714 -0.0237
    3CHTO   H87 1096   5.986   2.826   2.588 -1.2741 -0.9590 -1.9034
    3CHTO    N8 1097   6.075   2.920   2.421  0.0070  0.0859 -0.4176
    3CHTO   H75 1098   6.103   3.009   2.474  0.7962  1.7193 -3.4669
    3CHTO   H76 1099   5.967   2.925   2.409  0.0376  1.4427 -0.2328
    3CHTO   C43 1100   6.061   2.671   2.469  0.0447 -0.4350 -0.3733
    3CHTO   H85 1101   5.968   2.657   2.413  1.3071  2.3562 -3.2957
    3CHTO   O29 1102   6.071   2.571   2.577  0.4067  0.1018 -0.0348
    3CHTO   C50 1103   6.164   2.584   2.679 -0.7023  0.3138  0.4822
    3CHTO   H92 1104   6.119   2.523   2.758  0.5985  2.4373  2.9361
    3CHTO   C54 1105   6.303   2.517   2.645 -0.2184  0.5446  0.1837
    3CHTO   O36 1106   6.287   2.374   2.616  0.4190 -0.2419  0.2190
    3CHTO   H72 1107   6.341   2.358   2.541 -0.8800  1.2025 -1.0551
    3CHTO   O27 1108   6.155   2.637   2.369 -0.0360 -0.2224 -0.0162
    3CHTO   C37 1109   6.211   2.523   2.301  0.8981  0.0005 -0.3835
    3CHTO   H79 1110   6.260   2.461   2.378  0.0634 -0.5513 -0.2936
    3CHTO   C38 1111   6.106   2.429   2.231 -0.3380 -0.5198 -0.8596
    3CHTO   H80 1112   6.039   2.495   2.173 -0.2618  0.7636  0.4760
    3CHTO   O31 1113   6.043   2.365   2.346 -0.0140  0.7447  0.1240
    3CHTO   H68 1114   5.989   2.427   2.392  1.2078  0.6948  1.6577
    3CHTO   C39 1115   6.176   2.323   2.141 -0.0144 -0.6109  0.3412
    3CHTO   H81 1116   6.222   2.252   2.210  0.4510  1.0553  1.7901
    3CHTO    N7 1117   6.070   2.241   2.065 -0.2897  0.1081 -0.6610
    3CHTO   H73 1118   6.034   2.286   1.973  0.2443  0.1784 -0.8419
    3CHTO   H74 1119   6.127   2.152   2.045  1.5143  1.2898 -0.9384
    3CHTO   C40 1120   6.290   2.385   2.051 -0.4787  0.3891  0.5049
    3CHTO   H82 1121   6.244   2.430   1.963  3.2892  1.7427 -0.8743
    3CHTO   O26 1122   6.380   2.477   2.116 -0.3059 -0.2656 -0.0484
    3CHTO   C41 1123   6.326   2.576   2.212  0.3649 -0.7935  0.7174
    3CHTO   H83 1124   6.290   2.660   2.150  1.8672  0.0589  0.9789
    3CHTO   C52 1125   6.446   2.615   2.300 -0.0855 -0.1174  0.3733
    3CHTO   O35 1126   6.566   2.634   2.235 -0.5657 -0.0027  0.4305
    3CHTO   H71 1127   6.605   2.552   2.210  3.7932  2.1670 -0.2542
    3CHTO   O28 1128   6.373   2.277   2.005 -0.8146  0.3167  0.7986
    3CHTO   C42 1129   6.465   2.260   1.889 -0.9607 -0.2656 -0.4793
    3CHTO   H84 1130   6.526   2.174   1.914 -1.2995  0.1796  1.9222
    3CHTO   C44 1131   6.567   2.375   1.853 -0.5565  0.4574 -0.1847
    3CHTO   H86 1132   6.509   2.467   1.840 -0.6890  0.4165  0.1148
    3CHTO   O32 1133   6.651   2.375   1.968 -0.0851  0.0044 -0.0753
    3CHTO   H69 1134   6.696   2.457   1.977 -0.0174  0.0082 -0.4546
    3CHTO   C48 1135   6.646   2.361   1.720  1.0329 -0.5745 -0.2952
    3CHTO   H90 1136   6.723   2.284   1.724  0.2662 -1.3372  0.0923
    3CHTO    N9 1137   6.733   2.484   1.684 -0.2219 -0.1078 -0.0410
    3CHTO   H77 1138   6.789   2.464   1.594 -1.9489 -0.1473 -1.1256
    3CHTO   H78 1139   6.779   2.548   1.758  0.0967 -0.9716  0.5110
    3CHTO   C51 1140   6.541   2.319   1.612 -0.2580 -0.2091  0.4510
    3CHTO   H93 1141   6.471   2.401   1.595  1.5896  1.1325 -0.8934
    3CHTO   O30 1142   6.474   2.200   1.651 -0.1334  0.1005 -0.0578
    3CHTO   C46 1143   6.384   2.220   1.762  0.7757 -0.1250 -0.2166
    3CHTO   H88 1144   6.318   2.305   1.741 -0.5011 -0.6445  1.5808
    3CHTO   C53 1145   6.302   2.094   1.799 -0.3892 -0.0112 -0.0388
    3CHTO   O72 1146   6.199   2.072   1.706 -0.3475 -0.3608 -0.1933
    3CHTO  H199 1147   6.156   2.149   1.674 -0.4251 -0.6266 -0.7349
    3CHTO   O22 1148   6.609   2.299   1.484 -0.5251  0.0877  0.0371
    3CHTO   C31 1149   6.542   2.285   1.349  0.4222  0.2232 -0.6417
    3CHTO   H59 1150   6.622   2.253   1.279  1.4931  1.7136 -0.1122
    3CHTO   C29 1151   6.429   2.177   1.351 -0.0522 -0.0064  0.5359
    3CHTO   H57 1152   6.359   2.210   1.429  0.7650  2.1770  0.3871
    3CHTO   O21 1153   6.489   2.054   1.394 -0.4740  0.2152  0.5040
    3CHTO   H37 1154   6.451   2.018   1.472 -0.2056 -1.0422  0.0690
    3CHTO   C27 1155   6.350   2.164   1.213  0.0323  0.0867 -0.6487
    3CHTO   H55 1156   6.419   2.126   1.136  1.8006  0.8514  0.5235
    3CHTO    N5 1157   6.237   2.074   1.217 -0.8383  0.1547 -0.0958
    3CHTO   H43 1158   6.264   1.987   1.274 -0.7507  0.3908  0.2251
    3CHTO   H44 1159   6.149   2.118   1.262 -0.5238  0.2292  0.4455
    3CHTO   C25 1160   6.312   2.306   1.158  0.3387 -0.7735  0.5001
    3CHTO   H53 1161   6.233   2.353   1.220 -0.5796  0.3721 -1.4718
    3CHTO   O17 1162   6.429   2.401   1.169  0.3217  0.8882 -0.4655
    3CHTO   C32 1163   6.485   2.415   1.300  0.0343 -0.6362 -0.0513
    3CHTO   H60 1164   6.406   2.447   1.368  2.2425  1.4038  1.6346
    3CHTO   C36 1165   6.599   2.516   1.299 -0.2213 -0.4013  0.5602
    3CHTO   O25 1166   6.558   2.654   1.293  0.5733 -0.0989  0.5070
    3CHTO   H40 1167   6.529   2.683   1.209 -1.4555 -0.4196  1.0680
    3CHTO   O15 1168   6.248   2.314   1.003 -0.4668 -0.1421 -0.0807
    3CHTO   C19 1169   6.231   2.397   0.886 -0.0124 -0.1542  0.1058
    3CHTO   H47 1170   6.336   2.426   0.871  0.6506 -0.1815  4.3290
    3CHTO   C20 1171   6.178   2.309   0.772 -0.7169 -0.1458 -0.5818
    3CHTO   H48 1172   6.094   2.247   0.806  0.7129 -1.2939  0.9199
    3CHTO   O19 1173   6.274   2.207   0.736  0.3184 -0.6321  0.2675
    3CHTO   H35 1174   6.269   2.171   0.649  2.5882  1.0524 -0.6173
    3CHTO   C21 1175   6.144   2.402   0.651  0.1146  0.1385 -0.2876
    3CHTO   H49 1176   6.238   2.432   0.605 -0.2372 -0.2956 -1.3005
    3CHTO    N4 1177   6.060   2.321   0.553 -0.1509 -0.7256 -0.0438
    3CHTO   H41 1178   5.985   2.269   0.612 -3.0700  2.7513 -0.4909
    3CHTO   H42 1179   6.123   2.257   0.494  1.4581  1.1933 -0.4738
    3CHTO   C22 1180   6.068   2.527   0.696 -0.7312  0.1125 -0.1269
    3CHTO   H50 1181   5.966   2.497   0.722 -1.7234  2.2884 -1.3784
    3CHTO   O14 1182   6.128   2.600   0.805 -0.0020  0.2205  0.6289
    3CHTO   C23 1183   6.147   2.527   0.927  0.6162 -0.1237  0.2807
    3CHTO   H51 1184   6.048   2.504   0.970 -0.7084  3.7368 -0.5155
    3CHTO   C34 1185   6.217   2.624   1.025 -0.4617  0.5037  0.6223
    3CHTO   O23 1186   6.122   2.726   1.061  0.2271  0.2395 -0.5552
    3CHTO   H38 1187   6.086   2.707   1.146 -0.4714  1.6422 -0.5258
    3CHTO   O16 1188   6.070   2.622   0.590 -0.1643  0.0871  0.1200
    3CHTO   C24 1189   5.953   2.715   0.571 -0.2722 -1.1162  0.3616
    3CHTO   H52 1190   5.878   2.698   0.648 -0.4550  0.3035  0.5056
    3CHTO   C26 1191   5.900   2.682   0.430 -0.4059  0.1249  0.5943
    3CHTO   H54 1192   5.983   2.690   0.356 -1.8558 -1.9469 -1.3067
    3CHTO   O20 1193   5.858   2.549   0.423  0.0870  0.2670 -0.7756
    3CHTO   H36 1194   5.930   2.489   0.420 -0.2894 -0.2606  0.4195
    3CHTO   C30 1195   5.793   2.781   0.379 -0.4028 -0.3438 -0.5825
    3CHTO   H58 1196   5.701   2.771   0.438 -1.6910  3.9986 -1.6236
    3CHTO    N6 1197   5.753   2.768   0.242  0.4960 -0.0490 -0.2088
    3CHTO   H45 1198   5.821   2.707   0.185 -1.5292 -1.9126 -0.6940
    3CHTO   H46 1199   5.654   2.725   0.240 -0.3488  1.8873 -2.3794
    3CHTO   C33 1200   5.842   2.928   0.410 -0.1176  0.4027  0.1811
    3CHTO   H61 1201   5.926   2.953   0.343  1.6765 -2.0232  1.4615
    3CHTO   O18 1202   5.886   2.941   0.546  0.3307 -0.3620 -0.0026
    3CHTO   C28 1203   5.998   2.854   0.585 -0.1572 -0.0961 -0.0620
    3CHTO   H56 1204   6.073   2.873   0.508 -0.1209  0.8398  0.2034
    3CHTO   C35 1205   6.046   2.893   0.728  0.2261  0.0537 -0.4611
    3CHTO   O24 1206   5.946   2.862   0.821  0.0509  1.0178 -0.1543
    3CHTO   H39 1207   5.977   2.875   0.908  1.6342  0.9899 -0.6968
    3CHTO    O9 1208   5.737   3.026   0.378  0.0653 -0.1794  0.1036
    3CHTO   C13 1209   5.762   3.195   0.356  0.0806 -0.8117  0.0587
    3CHTO   H26 1210   5.687   3.232   0.283  0.1435 -1.3382 -0.2774
    3CHTO   C11 1211   5.909   3.222   0.302  0.1399  0.5594 -0.1909
    3CHTO   H24 1212   5.928   3.179   0.203 -0.0854  1.7085 -0.7430
    3CHTO    O8 1213   6.000   3.158   0.391  0.2045 -0.1486  0.5387
    3CHTO    H3 1214   5.993   3.066   0.403 -1.6604  0.0646  1.1441
    3CHTO    C9 1215   5.922   3.380   0.294  0.0571 -0.2241 -0.3468
    3CHTO   H22 1216   5.841   3.404   0.224 -0.6029 -1.5097 -0.0202
    3CHTO    N2 1217   6.048   3.427   0.228  0.1314  0.0919 -0.6165
    3CHTO   H10 1218   6.068   3.386   0.130 -0.9296 -1.2966 -0.2691
    3CHTO   H11 1219   6.131   3.407   0.295  0.2681 -0.9458 -1.0817
    3CHTO    C7 1220   5.893   3.449   0.431  0.0811 -0.1276 -0.3946
    3CHTO   H20 1221   5.897   3.556   0.403  0.8631  0.1901  0.8802
    3CHTO    O4 1222   5.760   3.415   0.481  0.1238  1.0704  0.7184
    3CHTO   C14 1223   5.721   3.277   0.488  0.1868 -0.3410 -0.3782
    3CHTO   H27 1224   5.610   3.273   0.500  0.2433 -1.0734 -0.0276
    3CHTO   C18 1225   5.765   3.218   0.616 -0.2805  0.4960 -0.3128
    3CHTO   O13 1226   5.723   3.287   0.730 -0.2952 -0.2280 -0.2539
    3CHTO    H7 1227   5.800   3.287   0.783 -0.0349 -1.7928 -0.6268
    3CHTO    O2 1228   6.016   3.424   0.542 -0.3525  0.0930 -0.0264
    3CHTO    C1 1229   6.014   3.492   0.666 -0.7916  0.8628  0.2478
    3CHTO   H14 1230   5.918   3.468   0.717  0.1649  0.1391  1.7503
    3CHTO    C2 1231   6.028   3.653   0.660  0.3843  0.4351  0.6115
    3CHTO   H15 1232   6.105   3.672   0.583 -0.5073 -0.0925 -0.4320
    3CHTO    O6 1233   5.897   3.707   0.636 -0.3068 -0.0912 -0.1628
    3CHTO    H1 1234   5.870   3.706   0.546  0.3744  0.6555 -0.3852
    3CHTO    C3 1235   6.076   3.710   0.802 -0.5175 -0.4467 -0.3924
    3CHTO   H16 1236   5.992   3.691   0.872  0.8466  1.5826  1.8719
    3CHTO    N1 1237   6.091   3.857   0.791  0.4977 -0.2962 -0.4154
    3CHTO    H8 1238   6.004   3.908   0.830  0.6177  0.3501 -0.9824
    3CHTO    H9 1239   6.181   3.889   0.841 -0.5987  2.1068  0.1090
    3CHTO    C4 1240   6.199   3.638   0.865 -0.4753  0.2326  0.4603
    3CHTO   H17 1241   6.284   3.656   0.800 -2.0696 -1.2056 -2.1262
    3CHTO    O1 1242   6.156   3.501   0.877 -0.3863 -0.2475  0.3287
    3CHTO    C5 1243   6.137   3.440   0.749  0.4182  0.3605  0.1922
    3CHTO   H18 1244   6.218   3.447   0.676  0.1578 -0.9357 -0.2254
    3CHTO   C16 1245   6.112   3.290   0.782  0.4821 -0.4318  0.1437
    3CHTO   O11 1246   6.217   3.226   0.840 -0.0452  0.1588  0.0641
    3CHTO    H5 1247   6.249   3.270   0.917  0.3238  0.6048 -0.3379
    3CHTO    O3 1248   6.225   3.689   0.996 -0.3628 -0.3695 -0.0180
    3CHTO    C6 1249   6.366   3.681   1.033  0.3896 -0.4025 -0.8564
    3CHTO   H19 1250   6.431   3.611   0.982  1.9745  2.3449 -2.7521
    3CHTO    C8 1251   6.431   3.820   0.993  0.1745  0.2458 -0.9674
    3CHTO   H21 1252   6.375   3.903   1.036 -0.1448 -0.1545 -0.5982
    3CHTO    O7 1253   6.431   3.826   0.852 -0.5779  0.0223 -0.4199
    3CHTO    H2 1254   6.447   3.913   0.821  0.0621 -0.2024 -0.7254
    3CHTO   C12 1255   6.579   3.828   1.053 -0.4051  0.0095  1.0126
    3CHTO   H25 1256   6.642   3.759   0.993 -1.0181 -0.1151  0.5126
    3CHTO    N3 1257   6.637   3.968   1.038 -0.2979 -0.6471 -0.1354
    3CHTO   H12 1258   6.724   3.986   1.100  2.1989  0.2240 -3.7126
    3CHTO   H13 1259   6.558   4.040   1.054 -1.5120 -1.7511 -1.1981
    3CHTO   C15 1260   6.596   3.784   1.198 -0.2245  0.8399 -0.2956
    3CHTO   H28 1261   6.561   3.861   1.268  2.0128  0.4018  1.3571
    3CHTO   O10 1262   6.729   3.743   1.227  0.0940 -0.4097 -0.7921
    3CHTO    H4 1263   6.745   3.744   1.320  2.7784  0.6531 -1.2213
    3CHTO    O5 1264   6.520   3.664   1.221 -0.4119  0.1153 -0.8712
    3CHTO   C10 1265   6.379   3.657   1.194 -0.8304  0.7868  0.4595
    3CHTO   H23 1266   6.331   3.731   1.258 -2.0047  1.3224 -0.9914
    3CHTO   C17 1267   6.322   3.514   1.240 -0.5160 -0.1295  0.0079
    3CHTO   O12 1268   6.396   3.412   1.180  0.2338 -0.1021  0.8273
    3CHTO    H6 1269   6.369   3.326   1.205 -2.7792  0.4178 -0.4593
    4CHTO  H203 1270   6.936   7.204   2.216 -0.6458  0.6579 -0.0366
    4CHTO   O82 1271   7.022   7.234   2.240 -0.5043 -0.0579  0.3483
    4CHTO  C123 1272   7.027   7.376   2.230 -0.0299  0.2235  0.6800
    4CHTO  H227 1273   6.964   7.423   2.308 -0.5545  1.2265 -0.3263
    4CHTO   O77 1274   7.168   7.415   2.243 -0.6058 -0.1233 -0.8113
    4CHTO  C118 1275   7.182   7.561   2.231  0.4955 -0.2015  0.0327
    4CHTO  H222 1276   7.112   7.617   2.294  0.1832  0.9264 -1.2936
    4CHTO  C125 1277   7.326   7.592   2.285 -0.0937  0.0661  0.2230
    4CHTO   O84 1278   7.335   7.566   2.423  0.2920 -0.0172 -0.2945
    4CHTO  H205 1279   7.324   7.647   2.470 -1.2633 -0.6306  0.4338
    4CHTO  C114 1280   7.149   7.617   2.093 -0.0927 -0.0731  0.3178
    4CHTO  H218 1281   7.203   7.566   2.013  0.9912  1.1877  0.2209
    4CHTO  C116 1282   7.006   7.576   2.054  0.5460  0.0277  0.0087
    4CHTO  H220 1283   6.929   7.634   2.110 -0.3864 -1.2028  0.0297
    4CHTO   O79 1284   6.978   7.617   1.918 -1.1092 -0.4228 -0.4198
    4CHTO  H201 1285   6.891   7.592   1.892 -2.4591  2.3071  1.3248
    4CHTO  C120 1286   6.981   7.422   2.084 -0.6788 -0.2287 -0.2253
    4CHTO  H224 1287   7.034   7.360   2.008  0.4695 -0.5914  0.8434
    4CHTO   N21 1288   6.842   7.390   2.060  0.1554  0.8112 -0.4159
    4CHTO  H211 1289   6.838   7.288   2.025 -0.5006  0.7874 -0.2909
    4CHTO  H212 1290   6.805   7.448   1.976 -0.4385 -0.6243 -1.1643
    4CHTO   O75 1291   7.175   7.759   2.101  0.0645 -0.6234 -0.3418
    4CHTO  C112 1292   7.270   7.795   1.968  0.3495 -0.3778  0.0326
    4CHTO  H216 1293   7.242   7.725   1.888  0.2258 -0.3813  0.0785
    4CHTO   O73 1294   7.404   7.769   2.018  0.0943 -0.2588 -0.2779
    4CHTO  C113 1295   7.509   7.791   1.914  0.2819  0.6125 -0.4536
    4CHTO  H217 1296   7.484   7.739   1.820  2.5398 -1.3815 -0.0140
    4CHTO  C124 1297   7.650   7.746   1.965  0.6600  0.3751  0.3727
    4CHTO   O83 1298   7.658   7.604   1.964  0.0393  0.4596 -0.0133
    4CHTO  H204 1299   7.696   7.577   1.883 -0.7465 -2.7049  0.6258
    4CHTO  C109 1300   7.517   7.939   1.878  0.5213  0.2613  0.1618
    4CHTO  H213 1301   7.561   7.990   1.965 -0.4940  1.6847 -0.1350
    4CHTO  C110 1302   7.377   8.005   1.849 -0.6389  0.1261 -0.1796
    4CHTO  H214 1303   7.358   7.993   1.742 -0.5535 -2.6919  0.0772
    4CHTO   O78 1304   7.391   8.147   1.868  0.6299  0.3111  0.0727
    4CHTO  H200 1305   7.394   8.174   1.958 -1.4837  0.1362  0.2318
    4CHTO  C111 1306   7.250   7.949   1.925 -0.1043 -0.0580 -0.4228
    4CHTO  H215 1307   7.247   8.003   2.021  0.2207 -0.4612 -0.1840
    4CHTO   N19 1308   7.120   7.979   1.860  0.5208 -0.1703  1.3207
    4CHTO  H207 1309   7.134   8.074   1.811 -0.5585 -0.9594 -0.5514
    4CHTO  H208 1310   7.079   7.899   1.802 -0.1243 -0.5235  2.2458
    4CHTO   O74 1311   7.602   7.969   1.757 -0.1820  0.3944 -0.4626
    4CHTO  C115 1312   7.694   8.118   1.769  0.3872 -0.7816 -0.1767
    4CHTO  H219 1313   7.644   8.192   1.832 -0.3964 -1.4183 -0.0440
    4CHTO   O76 1314   7.849   8.089   1.836  0.4961  0.0134 -0.2090
    4CHTO  C122 1315   7.917   7.984   1.762  0.2261 -0.6628 -0.1898
    4CHTO  H226 1316   7.863   7.894   1.791 -1.8465  0.5069 -0.2469
    4CHTO  C126 1317   8.063   7.966   1.821 -1.2915  0.3641  0.0643
    4CHTO   O85 1318   8.148   8.080   1.785  0.0052 -0.3091  0.1178
    4CHTO  H206 1319   8.221   8.083   1.843  0.0555  0.6167  0.0126
    4CHTO  C121 1320   7.915   8.015   1.610  0.2812  0.5783 -0.7471
    4CHTO  H225 1321   8.019   8.010   1.573  1.1632  0.8452  1.5928
    4CHTO   O81 1322   7.837   7.915   1.540  0.4459  0.3584  0.3564
    4CHTO  H202 1323   7.848   7.828   1.575 -2.2451  0.6248  1.9486
    4CHTO  C119 1324   7.861   8.158   1.575  0.4412 -0.4698  0.3132
    4CHTO  H223 1325   7.931   8.222   1.629  0.5622  0.9754 -1.5053
    4CHTO  C117 1326   7.713   8.182   1.631  0.8512 -0.1812  0.2183
    4CHTO  H221 1327   7.644   8.146   1.555 -0.0949  0.7304  0.6186
    4CHTO   N20 1328   7.682   8.327   1.634  0.1359 -0.7042  0.0001
    4CHTO  H209 1329   7.723   8.378   1.720 -1.0732 -1.0679  0.8002
    4CHTO  H210 1330   7.576   8.343   1.617  0.2076  1.0307  1.0763
    4CHTO   O80 1331   7.889   8.187   1.434 -0.1808 -0.8200  0.6494
    4CHTO  C103 1332   8.001   8.296   1.400  1.1915 -0.0602 -0.1195
    4CHTO  H190 1333   7.963   8.395   1.423  0.8931 -0.1783 -0.0958
    4CHTO  C101 1334   8.150   8.277   1.468 -0.0925  0.1073  0.3129
    4CHTO  H188 1335   8.169   8.171   1.485  0.1642  0.1899  0.5355
    4CHTO   O68 1336   8.141   8.352   1.620  0.4080 -0.2554 -0.1062
    4CHTO  H168 1337   8.105   8.438   1.605 -0.0536 -0.7955 -2.2396
    4CHTO   C99 1338   8.259   8.355   1.386  1.1622 -0.1631 -0.6528
    4CHTO  H186 1339   8.248   8.462   1.412  1.5306 -0.7806  2.2423
    4CHTO   N17 1340   8.403   8.311   1.421  0.3468  0.4153  0.0153
    4CHTO  H174 1341   8.443   8.376   1.497 -0.9588  2.5591 -1.0590
    4CHTO  H175 1342   8.462   8.318   1.330  0.8506  0.0870  0.3158
    4CHTO   C97 1343   8.237   8.340   1.233 -0.1906 -0.2580  0.1054
    4CHTO  H184 1344   8.257   8.238   1.195  2.0668 -0.2841  1.2973
    4CHTO   O64 1345   8.105   8.383   1.200 -0.4614  0.0287  0.1738
    4CHTO  C104 1346   8.011   8.288   1.239  0.7220  0.2117  0.2609
    4CHTO  H191 1347   8.034   8.186   1.208  1.8236  1.1480 -2.1131
    4CHTO  C108 1348   7.874   8.322   1.176  0.1957 -0.2423 -0.2471
    4CHTO   O71 1349   7.810   8.446   1.231  0.0289 -0.4538 -0.3237
    4CHTO  H171 1350   7.727   8.463   1.191 -0.5671  0.1246  1.1177
    4CHTO   O62 1351   8.329   8.438   1.170 -0.0096 -0.7107  0.0960
    4CHTO   C91 1352   8.382   8.403   1.041 -0.0084  0.1064 -0.2407
    4CHTO  H178 1353   8.416   8.299   1.040  3.0834  1.0582  0.4564
    4CHTO   C92 1354   8.504   8.493   1.018 -0.7194 -0.6016  0.2118
    4CHTO  H179 1355   8.572   8.485   1.104 -2.3860 -0.2876  1.5947
    4CHTO   O66 1356   8.579   8.444   0.907  0.3647 -0.1053 -0.2690
    4CHTO  H166 1357   8.536   8.455   0.824 -0.6305  1.7283  0.4608
    4CHTO   C93 1358   8.475   8.646   0.990  0.0531 -0.0057  0.0374
    4CHTO  H180 1359   8.562   8.685   0.936 -0.8988  2.4688  0.2391
    4CHTO   N16 1360   8.455   8.728   1.113 -0.5467  0.1453  1.1034
    4CHTO  H172 1361   8.366   8.712   1.172 -0.7707  0.8910  0.9761
    4CHTO  H173 1362   8.540   8.732   1.179  0.1225 -0.8200  0.3148
    4CHTO   C94 1363   8.343   8.655   0.897 -0.2174  0.0056  0.1704
    4CHTO  H181 1364   8.253   8.682   0.953  0.4512 -0.5251  1.5156
    4CHTO   O61 1365   8.307   8.534   0.835  0.6103  0.0631  0.3968
    4CHTO   C95 1366   8.269   8.432   0.932 -0.3265  0.2148 -0.1055
    4CHTO  H182 1367   8.177   8.469   0.976 -0.4316 -1.2801  0.9789
    4CHTO  C106 1368   8.239   8.301   0.843 -0.1855 -0.0103  0.1428
    4CHTO   O69 1369   8.180   8.201   0.924  0.4756 -0.2561  0.2032
    4CHTO  H169 1370   8.179   8.129   0.865  0.5041  1.1461 -1.5315
    4CHTO   O63 1371   8.380   8.770   0.788 -0.3113  0.0463 -0.1824
    4CHTO   C96 1372   8.271   8.816   0.702  0.1503  0.3205  0.6172
    4CHTO  H183 1373   8.198   8.735   0.709  0.6241 -0.1588  0.0531
    4CHTO   C98 1374   8.310   8.821   0.558  0.0716 -0.6204 -0.7810
    4CHTO  H185 1375   8.403   8.879   0.553 -1.0539  1.0790 -2.2758
    4CHTO   O67 1376   8.347   8.686   0.528 -0.1437 -0.5031  0.2378
    4CHTO  H167 1377   8.347   8.681   0.434  1.7119  1.2619  0.1074
    4CHTO  C102 1378   8.194   8.868   0.464  0.7797  0.4692  0.0480
    4CHTO  H189 1379   8.130   8.779   0.454  1.8925  0.0263 -3.6277
    4CHTO   N18 1380   8.234   8.904   0.323  0.5160  0.5706  0.1387
    4CHTO  H176 1381   8.155   8.872   0.257  0.7775  0.2151 -0.0052
    4CHTO  H177 1382   8.318   8.837   0.311 -0.9457 -1.5932  1.5718
    4CHTO  C105 1383   8.103   8.969   0.529 -0.0836 -0.5173 -0.6415
    4CHTO  H192 1384   8.083   9.047   0.456  1.9703  0.3289 -0.3454
    4CHTO   O65 1385   8.163   9.039   0.641  0.0437 -0.0298 -0.1247
    4CHTO  C100 1386   8.211   8.956   0.749  1.1502  0.0768 -0.8553
    4CHTO  H187 1387   8.293   9.018   0.787  2.6089 -0.9742 -2.2434
    4CHTO  C107 1388   8.091   8.950   0.848 -0.0816  0.3665  0.0355
    4CHTO   O70 1389   8.069   9.068   0.932  0.3064 -0.4947 -0.2993
    4CHTO  H170 1390   7.980   9.098   0.929 -0.3992 -2.3752  0.7403
    4CHTO   O57 1391   7.971   8.892   0.572 -0.2657  0.7250  0.6335
    4CHTO   C85 1392   7.839   8.931   0.530 -0.2437  0.0512  0.2043
    4CHTO  H157 1393   7.852   8.963   0.425  0.4703  2.4614  0.9934
    4CHTO   C83 1394   7.785   9.055   0.613  0.7833 -0.0737  0.2087
    4CHTO  H155 1395   7.849   9.142   0.612  0.1187  0.4674  2.3394
    4CHTO   O56 1396   7.780   9.025   0.752  0.4909  0.4406  0.3712
    4CHTO  H135 1397   7.746   9.097   0.802  0.4533 -0.0833  1.1131
    4CHTO   C81 1398   7.641   9.091   0.558  0.3598  0.4419 -0.6204
    4CHTO  H153 1399   7.652   9.115   0.453  0.2750  2.7369 -0.1324
    4CHTO   N14 1400   7.589   9.221   0.607 -0.9276 -0.3630 -0.3140
    4CHTO  H141 1401   7.586   9.225   0.714  0.1341 -2.5305 -0.1841
    4CHTO  H142 1402   7.657   9.297   0.574 -1.2144  0.0059 -0.0597
    4CHTO   C79 1403   7.541   8.968   0.564  0.1811  0.2089 -0.0005
    4CHTO  H151 1404   7.448   9.000   0.517 -2.1273 -0.7609  3.7090
    4CHTO   O52 1405   7.592   8.858   0.488  0.2310  0.5887 -0.0098
    4CHTO   C86 1406   7.729   8.814   0.541 -0.5142 -0.2838 -0.4072
    4CHTO  H158 1407   7.720   8.779   0.646 -0.5983  1.3550  0.1526
    4CHTO   C90 1408   7.776   8.694   0.455 -0.5697 -0.0150 -0.6801
    4CHTO   O60 1409   7.683   8.581   0.457 -0.1466  0.5392 -0.5454
    4CHTO  H138 1410   7.727   8.514   0.407 -1.7331 -0.4599 -0.6206
    4CHTO   O50 1411   7.516   8.924   0.698  0.1510  0.0113 -0.4057
    4CHTO   C73 1412   7.443   8.860   0.808  0.3649  0.6514  0.5520
    4CHTO  H145 1413   7.344   8.907   0.807  0.0461  0.0163 -1.7762
    4CHTO   C74 1414   7.516   8.882   0.945  0.1165  0.0562  0.2694
    4CHTO  H146 1415   7.538   8.989   0.955 -0.4482  0.4219 -2.1044
    4CHTO   O54 1416   7.422   8.849   1.050  0.0522 -0.0715  0.5513
    4CHTO  H133 1417   7.465   8.855   1.133  0.8985 -0.6711  0.1689
    4CHTO   C75 1418   7.650   8.790   0.950  0.4460 -0.0788 -0.0463
    4CHTO  H147 1419   7.714   8.819   0.866 -0.0930  0.1979 -0.3631
    4CHTO   N13 1420   7.724   8.802   1.080  0.1014  0.3344  0.4282
    4CHTO  H139 1421   7.783   8.892   1.073  0.1473  0.1435 -1.9387
    4CHTO  H140 1422   7.791   8.717   1.090 -0.2689 -0.0958 -0.6610
    4CHTO   C76 1423   7.610   8.642   0.910  0.5120  0.0953  0.2569
    4CHTO  H148 1424   7.535   8.598   0.976  0.1147 -0.6763 -0.7108
    4CHTO   O49 1425   7.553   8.645   0.778 -0.2247  0.0830 -0.1806
    4CHTO   C77 1426   7.425   8.714   0.776  0.0831  0.0879 -0.3043
    4CHTO  H149 1427   7.377   8.666   0.860  1.2562 -1.8483 -0.7076
    4CHTO   C88 1428   7.341   8.693   0.647 -0.1625  0.5605  0.3142
    4CHTO   O58 1429   7.289   8.562   0.651 -0.7930 -0.4770 -0.1796
    4CHTO  H136 1430   7.228   8.543   0.583 -1.6231  1.4304  0.0044
    4CHTO   O51 1431   7.740   8.547   0.899 -0.0883  0.3350 -0.3518
    4CHTO   C78 1432   7.735   8.405   0.796 -0.0497 -0.1791 -0.3955
    4CHTO  H150 1433   7.685   8.430   0.700  0.6890  1.1844 -0.4388
    4CHTO   C80 1434   7.650   8.298   0.869  0.5979  0.0123 -0.2811
    4CHTO  H152 1435   7.688   8.281   0.972  0.5936 -2.8327 -0.6864
    4CHTO   O55 1436   7.515   8.341   0.879  0.5699 -0.2089  0.3122
    4CHTO  H134 1437   7.499   8.411   0.940 -1.7478  0.2942 -0.8158
    4CHTO   C84 1438   7.653   8.160   0.794 -0.0250  0.2815 -0.4831
    4CHTO  H156 1439   7.624   8.164   0.689 -1.7763 -0.4127 -0.0404
    4CHTO   N15 1440   7.575   8.052   0.865 -0.3928 -0.1869  0.3981
    4CHTO  H143 1441   7.596   8.062   0.969  2.2038 -4.4840  0.3895
    4CHTO  H144 1442   7.469   8.065   0.855 -0.3663 -0.7738 -0.8071
    4CHTO   C87 1443   7.806   8.124   0.786 -0.0088 -0.2683 -0.0074
    4CHTO  H159 1444   7.832   8.109   0.890  1.1654 -1.3492 -0.4406
    4CHTO   O53 1445   7.887   8.240   0.708  0.2881 -0.8890 -0.0431
    4CHTO   C82 1446   7.883   8.362   0.783 -0.3101  0.8687 -0.4991
    4CHTO  H154 1447   7.926   8.355   0.883 -0.3169 -1.0888 -0.6095
    4CHTO   C89 1448   7.949   8.482   0.714  0.1280 -0.4120 -0.4771
    4CHTO   O59 1449   7.998   8.575   0.806 -0.1292  0.3013  0.0839
    4CHTO  H137 1450   8.085   8.554   0.833 -0.4581 -0.2113  0.7766
    4CHTO   O45 1451   7.832   7.984   0.686 -0.1272  0.5222  1.0019
    4CHTO   C67 1452   7.972   7.960   0.676 -0.1912 -0.0011 -0.2935
    4CHTO  H124 1453   8.028   8.052   0.662 -0.3587 -0.2237 -2.6085
    4CHTO   C65 1454   8.024   7.886   0.808  0.0270 -0.6583 -0.1061
    4CHTO  H122 1455   7.991   7.952   0.889  0.3467  2.0657 -2.1220
    4CHTO   O44 1456   8.164   7.867   0.800 -0.5784 -0.0635 -0.2162
    4CHTO  H102 1457   8.205   7.901   0.878  0.2999 -0.0027 -0.6957
    4CHTO   C63 1458   7.943   7.751   0.816  0.8264  0.5588 -0.5335
    4CHTO  H120 1459   7.836   7.773   0.811  0.7967  0.5093 -0.0756
    4CHTO   N11 1460   7.951   7.682   0.950  0.3259 -0.8194 -0.2809
    4CHTO  H108 1461   8.045   7.697   0.998 -1.2200  1.1653  2.2988
    4CHTO  H109 1462   7.914   7.582   0.945 -1.1745 -0.4445  2.2876
    4CHTO   C61 1463   7.985   7.665   0.689 -0.4650  0.4906  0.1978
    4CHTO  H118 1464   7.899   7.596   0.684 -0.5223  0.5082  0.8639
    4CHTO   O40 1465   7.992   7.729   0.561 -0.2603  0.1969  0.0951
    4CHTO   C68 1466   8.004   7.878   0.548  0.0958  0.7012  0.3843
    4CHTO  H125 1467   7.922   7.898   0.475 -0.1732 -0.8756  0.2237
    4CHTO   C72 1468   8.137   7.906   0.472 -0.1761  0.1281  0.0713
    4CHTO   O48 1469   8.124   7.873   0.333  0.0996 -0.6078 -0.3009
    4CHTO  H105 1470   8.034   7.867   0.306 -0.0961  2.4427 -0.5733
    4CHTO   O38 1471   8.109   7.589   0.696  0.7413  0.2612  0.6069
    4CHTO   C55 1472   8.096   7.467   0.621 -0.1477  0.1245 -0.4955
    4CHTO  H112 1473   8.023   7.482   0.539  0.7722 -0.3151 -1.4024
    4CHTO   C56 1474   8.063   7.334   0.716 -0.4940 -0.2166  0.4185
    4CHTO  H113 1475   8.149   7.327   0.784 -0.3018  1.0691  0.3173
    4CHTO   O42 1476   7.949   7.364   0.798 -0.2911  0.5595 -0.3403
    4CHTO  H100 1477   7.905   7.285   0.824  2.1712 -0.8455 -0.2674
    4CHTO   C57 1478   8.053   7.216   0.618 -0.3912 -0.4142 -0.4738
    4CHTO  H114 1479   7.966   7.236   0.556 -0.4082  1.7256  0.1972
    4CHTO   N10 1480   8.025   7.094   0.683  0.9548  0.1330 -0.6118
    4CHTO  H106 1481   7.947   7.118   0.753 -0.9936 -0.4820 -2.5226
    4CHTO  H107 1482   8.111   7.055   0.735 -0.0019  0.2405  1.0796
    4CHTO   C58 1483   8.177   7.199   0.533 -0.7447  1.0809  0.2781
    4CHTO  H115 1484   8.262   7.168   0.599  0.1842  0.3467 -1.2373
    4CHTO   O37 1485   8.216   7.319   0.471  0.7934  0.1032 -0.2579
    4CHTO   C59 1486   8.235   7.436   0.556 -0.3555  0.3201  0.8043
    4CHTO  H116 1487   8.315   7.397   0.620  3.3277 -0.1808 -3.8278
    4CHTO   C70 1488   8.285   7.557   0.474  0.0179 -0.3227  0.9506
    4CHTO   O46 1489   8.418   7.533   0.417  0.2316  0.2669 -0.1526
    4CHTO  H103 1490   8.436   7.612   0.369 -0.3527  0.0294 -0.7642
    4CHTO   O39 1491   8.158   7.095   0.421  0.0921 -0.2407 -0.1838
    4CHTO   C60 1492   8.056   7.096   0.319  0.8637  1.0883 -0.1872
    4CHTO  H117 1493   7.962   7.143   0.349 -0.4021 -0.9662 -0.8507
    4CHTO   C62 1494   8.087   7.189   0.203  0.0925  0.2009  0.1058
    4CHTO  H119 1495   8.071   7.292   0.243  0.2950  0.7951 -1.3078
    4CHTO   O43 1496   8.222   7.159   0.173  0.0158  0.3471  0.3454
    4CHTO  H101 1497   8.293   7.194   0.223 -0.5417  2.5847 -0.4007
    4CHTO   C66 1498   7.994   7.166   0.072  0.0173  0.9242 -0.5392
    4CHTO  H123 1499   7.895   7.206   0.094 -0.1937  0.2838 -0.3322
    4CHTO   N12 1500   8.028   7.250  -0.042 -0.0536 -0.1321 -0.0950
    4CHTO  H110 1501   8.038   7.351  -0.004  0.2674 -0.3852  0.5008
    4CHTO  H111 1502   7.941   7.252  -0.105 -1.2784  0.1143  1.5630
    4CHTO   C69 1503   7.967   7.013   0.040  0.1375  0.2553 -0.1196
    4CHTO  H126 1504   8.058   6.983  -0.017 -0.1397  1.4342 -1.2065
    4CHTO   O41 1505   7.935   6.932   0.167  0.0778  0.5775  0.1564
    4CHTO   C64 1506   8.023   6.950   0.274 -0.3390  0.0629  0.3726
    4CHTO  H121 1507   8.121   6.908   0.243  0.6478  1.5862  1.3784
    4CHTO   C71 1508   7.969   6.864   0.393 -0.1709  0.2301 -0.0481
    4CHTO   O47 1509   7.980   6.720   0.356  0.5591  0.1114 -0.2015
    4CHTO  H104 1510   7.966   6.670   0.435 -0.3826  0.5478 -0.0814
    4CHTO   O34 1511   7.838   7.004  -0.048  0.1592  0.2025  0.2665
    4CHTO   C49 1512   7.833   6.856  -0.160  0.4025 -0.1738  0.7418
    4CHTO   H91 1513   7.936   6.837  -0.190  0.8764 -1.2614  2.9348
    4CHTO   C47 1514   7.749   6.891  -0.282  0.4147 -0.5902 -0.5832
    4CHTO   H89 1515   7.761   6.804  -0.350  1.9736 -0.1924 -0.8283
    4CHTO   O33 1516   7.807   7.005  -0.343 -0.1168 -0.2457 -0.4954
    4CHTO   H70 1517   7.764   7.013  -0.427  0.5086  2.1799 -0.5942
    4CHTO   C45 1518   7.594   6.904  -0.242 -0.5434  0.1240 -0.2242
    4CHTO   H87 1519   7.592   6.984  -0.166 -0.3872  0.4408 -0.5553
    4CHTO    N8 1520   7.503   6.934  -0.361 -0.7978 -0.7415 -0.2860
    4CHTO   H75 1521   7.539   7.021  -0.414 -2.1525  0.8685  1.3774
    4CHTO   H76 1522   7.504   6.848  -0.426  0.1964 -0.4663 -0.6586
    4CHTO   C43 1523   7.547   6.771  -0.164 -0.1214  0.3801 -0.0408
    4CHTO   H85 1524   7.446   6.795  -0.132 -0.9992 -0.4592 -2.1487
    4CHTO   O29 1525   7.639   6.749  -0.059  0.4861 -0.1484  0.5054
    4CHTO   C50 1526   7.774   6.740  -0.073  0.1902  0.3747 -0.3344
    4CHTO   H92 1527   7.819   6.743   0.027  1.9617 -0.0244 -1.0972
    4CHTO   C54 1528   7.832   6.605  -0.122 -0.2531 -0.4622  0.4473
    4CHTO   O36 1529   7.813   6.500  -0.033  0.7990  0.5108  0.2083
    4CHTO   H72 1530   7.737   6.511   0.022 -0.2449  0.8612 -1.2714
    4CHTO   O27 1531   7.541   6.647  -0.238 -0.0246 -0.3719 -0.1764
    4CHTO   C37 1532   7.482   6.534  -0.297  0.3398 -0.4272  0.1725
    4CHTO   H79 1533   7.446   6.566  -0.396 -2.7775  3.9280  2.5277
    4CHTO   C38 1534   7.598   6.432  -0.322 -0.0374  0.1920  0.4560
    4CHTO   H80 1535   7.659   6.426  -0.231  0.4863  0.2000  0.1054
    4CHTO   O31 1536   7.685   6.480  -0.425  0.3927  0.2810 -0.0099
    4CHTO   H68 1537   7.732   6.418  -0.478 -0.4487  0.6966 -1.2689
    4CHTO   C39 1538   7.535   6.287  -0.363 -0.2041  0.4430 -0.1608
    4CHTO   H81 1539   7.490   6.295  -0.462 -1.1513  0.3673  0.2602
    4CHTO    N7 1540   7.640   6.181  -0.369  0.0093 -0.7522 -0.8925
    4CHTO   H73 1541   7.730   6.199  -0.426 -0.4448  1.2795 -0.9737
    4CHTO   H74 1542   7.599   6.089  -0.409  0.2994 -0.3857 -2.0430
    4CHTO   C40 1543   7.414   6.255  -0.263 -0.3693 -0.8485  0.7203
    4CHTO   H82 1544   7.457   6.247  -0.164  1.2977 -1.9486 -0.0693
    4CHTO   O26 1545   7.312   6.353  -0.270  0.3942 -0.3674 -0.0647
    4CHTO   C41 1546   7.359   6.483  -0.217  0.0931  0.4841 -0.7014
    4CHTO   H83 1547   7.377   6.484  -0.109 -0.2539 -0.2824 -0.6311
    4CHTO   C52 1548   7.240   6.580  -0.238 -1.0943  0.4939  0.6793
    4CHTO   O35 1549   7.124   6.538  -0.160 -0.7908 -0.0634  0.8451
    4CHTO   H71 1550   7.061   6.607  -0.169 -1.5379 -0.6948  1.2239
    4CHTO   O28 1551   7.352   6.121  -0.296  0.3320 -0.4834  0.6514
    4CHTO   C42 1552   7.272   6.035  -0.205 -0.6308  0.4206  0.2927
    4CHTO   H84 1553   7.284   5.936  -0.249 -2.3750  1.1501 -1.9022
    4CHTO   C44 1554   7.112   6.061  -0.206 -0.3075 -0.2157 -0.0942
    4CHTO   H86 1555   7.099   6.168  -0.191 -0.2956 -0.1093 -0.8169
    4CHTO   O32 1556   7.067   6.027  -0.336  0.0519 -0.3332  0.5235
    4CHTO   H69 1557   7.119   6.060  -0.407 -0.6380  2.9335  1.4819
    4CHTO   C48 1558   7.031   5.985  -0.094  0.0853 -0.1782  0.1737
    4CHTO   H90 1559   7.015   5.882  -0.127  0.7665 -0.1725 -0.1877
    4CHTO    N9 1560   6.890   6.024  -0.089 -0.2121 -0.6322  0.5532
    4CHTO   H77 1561   6.876   6.130  -0.104  0.5273 -0.9034 -2.3252
    4CHTO   H78 1562   6.831   5.983  -0.008 -0.0535 -0.2797  0.8492
    4CHTO   C51 1563   7.104   5.991   0.049 -0.0945 -0.5174  0.1602
    4CHTO   H93 1564   7.112   6.096   0.076  1.2271 -0.5387 -0.1057
    4CHTO   O30 1565   7.237   5.931   0.027  0.2290  0.3882 -0.0080
    4CHTO   C46 1566   7.328   6.030  -0.065  0.3551  0.6160 -0.1076
    4CHTO   H88 1567   7.332   6.135  -0.035  2.0282  0.3005  0.8597
    4CHTO   C53 1568   7.476   5.980  -0.059  0.6188 -0.0626 -0.3183
    4CHTO   O72 1569   7.549   6.008   0.059 -0.2486  0.0821 -0.1878
    4CHTO  H199 1570   7.528   5.970   0.142  0.7225  0.0060  0.0216
    4CHTO   O22 1571   7.056   5.906   0.158  0.6151  0.3118  0.2288
    4CHTO   C31 1572   7.110   5.886   0.296  0.0439 -0.0767  0.3172
    4CHTO   H59 1573   7.218   5.860   0.293 -0.2655 -1.4609  0.5430
    4CHTO   C29 1574   7.101   6.023   0.371  0.4510  0.0079  0.0649
    4CHTO   H57 1575   7.007   6.074   0.349 -0.4673 -1.5046  0.4361
    4CHTO   O21 1576   7.192   6.120   0.312 -0.2029  0.7420  0.2567
    4CHTO   H37 1577   7.169   6.131   0.221 -2.7796  1.5972  0.9715
    4CHTO   C27 1578   7.125   6.005   0.525  0.7400 -0.0435  0.5675
    4CHTO   H55 1579   7.232   5.981   0.537  0.4197 -1.0579  1.4643
    4CHTO    N5 1580   7.092   6.132   0.596  0.0204  0.2226  0.2564
    4CHTO   H43 1581   7.074   6.122   0.702  2.8789 -2.0864  0.6089
    4CHTO   H44 1582   7.170   6.206   0.585  0.4604 -0.0816  1.2430
    4CHTO   C25 1583   7.033   5.897   0.579  0.2993  0.1042 -0.0245
    4CHTO   H53 1584   6.931   5.925   0.549  0.5917  2.2456  0.8984
    4CHTO   O17 1585   7.074   5.773   0.509 -0.7836 -0.8753  0.2962
    4CHTO   C32 1586   7.040   5.762   0.371  0.0252  0.3142  0.1389
    4CHTO   H60 1587   6.935   5.766   0.342 -0.1954  2.8469  1.1249
    4CHTO   C36 1588   7.105   5.625   0.321 -0.4880  0.6868  0.2062
    4CHTO   O25 1589   7.028   5.519   0.372  0.7856 -0.5080 -0.1308
    4CHTO   H40 1590   7.048   5.445   0.318  0.8480 -0.0725 -0.7167
    4CHTO   O15 1591   7.031   5.873   0.733  0.2219  0.0271  0.8315
    4CHTO   C19 1592   7.132   5.861   0.838  0.2159  0.0128 -0.1516
    4CHTO   H47 1593   7.079   5.798   0.910  0.6095  0.4581  0.5297
    4CHTO   C20 1594   7.254   5.774   0.801  0.4506  0.4601 -0.2325
    4CHTO   H48 1595   7.302   5.809   0.708  1.6861 -0.6815 -0.0423
    4CHTO   O19 1596   7.205   5.640   0.767 -0.1145 -0.8968 -0.0583
    4CHTO   H35 1597   7.145   5.653   0.696 -0.9535  0.3990  0.8582
    4CHTO   C21 1598   7.366   5.772   0.914 -0.0499 -0.0984  0.2480
    4CHTO   H49 1599   7.334   5.707   0.995 -0.9188  0.8669  0.6870
    4CHTO    N4 1600   7.490   5.712   0.855 -0.1471  0.1888  0.2178
    4CHTO   H41 1601   7.499   5.734   0.750 -0.3463  2.2052  0.6126
    4CHTO   H42 1602   7.482   5.605   0.867 -0.3836  0.1788 -0.0222
    4CHTO   C22 1603   7.386   5.915   0.974 -0.1913  0.9260 -0.3237
    4CHTO   H50 1604   7.437   5.971   0.896 -0.6731  2.1048  0.2029
    4CHTO   O14 1605   7.259   5.972   1.023 -0.2997  0.4647  0.1292
    4CHTO   C23 1606   7.171   5.994   0.916  0.5454  0.6181  0.8100
    4CHTO   H51 1607   7.218   6.070   0.852  0.1907  0.0511 -0.1338
    4CHTO   C34 1608   7.033   6.059   0.969 -0.8316 -0.1675  0.6594
    4CHTO   O23 1609   7.049   6.197   1.019 -0.2330 -0.3132  0.1057
    4CHTO   H38 1610   7.063   6.199   1.112  1.6305 -0.2109 -0.1513
    4CHTO   O16 1611   7.472   5.899   1.093  0.0395 -0.3745 -0.1506
    4CHTO   C24 1612   7.522   6.040   1.141 -0.0862 -0.1907  0.1668
    4CHTO   H52 1613   7.465   6.120   1.093  1.4274 -0.2151 -1.7230
    4CHTO   C26 1614   7.670   6.052   1.095  0.4051 -0.4118  0.3795
    4CHTO   H54 1615   7.719   5.954   1.115  0.9602 -0.1215  0.4722
    4CHTO   O20 1616   7.669   6.091   0.957 -0.1600  0.5884 -0.2135
    4CHTO   H36 1617   7.729   6.033   0.914 -2.2987 -0.0408 -2.4086
    4CHTO   C30 1618   7.751   6.161   1.172  0.4014  0.4035 -0.0355
    4CHTO   H58 1619   7.725   6.259   1.130 -1.3739 -0.7189 -1.6211
    4CHTO    N6 1620   7.897   6.156   1.147  0.4551  0.5441 -1.1731
    4CHTO   H45 1621   7.937   6.056   1.148  1.1622  0.8375  0.8037
    4CHTO   H46 1622   7.954   6.216   1.216  1.8769 -0.4683 -1.4520
    4CHTO   C33 1623   7.715   6.163   1.323  0.0742  0.4621 -0.1119
    4CHTO   H61 1624   7.747   6.070   1.372 -0.7363 -0.4585 -1.2982
    4CHTO   O18 1625   7.570   6.181   1.331 -0.6306 -0.2276 -0.3627
    4CHTO   C28 1626   7.505   6.056   1.296  0.4952 -0.6298  0.1464
    4CHTO   H56 1627   7.550   5.970   1.346 -0.5272  0.9347  3.8781
    4CHTO   C35 1628   7.351   6.096   1.331 -0.0577 -0.0948 -0.2282
    4CHTO   O24 1629   7.340   6.044   1.467  0.0179 -0.3799  0.1329
    4CHTO   H39 1630   7.270   6.084   1.514  0.9821 -0.0414  1.3058
    4CHTO    O9 1631   7.785   6.271   1.389 -0.6131  0.0244  0.2249
    4CHTO   C13 1632   7.811   6.235   1.553 -0.4457 -0.1771 -0.0304
    4CHTO   H26 1633   7.881   6.149   1.556  1.6032  1.3867 -1.8650
    4CHTO   C11 1634   7.669   6.203   1.628 -0.5184 -0.0335  0.5112
    4CHTO   H24 1635   7.635   6.100   1.611 -1.6629  0.4930 -0.4520
    4CHTO    O8 1636   7.567   6.297   1.590  0.3689  0.7293  0.1079
    4CHTO    H3 1637   7.502   6.250   1.542 -0.0656 -0.9768  2.2858
    4CHTO    C9 1638   7.694   6.204   1.782 -0.1050 -0.3849 -0.4615
    4CHTO   H22 1639   7.769   6.127   1.802  1.4516  1.8177  2.6325
    4CHTO    N2 1640   7.575   6.170   1.862 -0.3875 -0.1157 -0.1007
    4CHTO   H10 1641   7.522   6.089   1.813 -0.5115  0.5230 -1.0303
    4CHTO   H11 1642   7.508   6.253   1.877 -1.1617 -0.5049 -1.2843
    4CHTO    C7 1643   7.766   6.338   1.830  0.3063  0.7085  0.3634
    4CHTO   H20 1644   7.854   6.297   1.884  0.7839 -2.8110 -2.8961
    4CHTO    O4 1645   7.811   6.418   1.718 -0.1983 -0.6272 -0.3843
    4CHTO   C14 1646   7.894   6.354   1.624 -0.2980  0.2837 -0.5095
    4CHTO   H27 1647   7.976   6.311   1.686 -0.7200 -1.2088 -0.9657
    4CHTO   C18 1648   7.961   6.463   1.539 -0.6839  0.3128 -0.2918
    4CHTO   O13 1649   8.053   6.421   1.433 -0.1908  0.1597 -0.1240
    4CHTO    H7 1650   8.011   6.439   1.351  0.3586 -2.3210 -0.9989
    4CHTO    O2 1651   7.653   6.448   1.944 -0.1841  0.6575  0.5429
    4CHTO    C1 1652   7.702   6.467   2.078  0.4503  0.0108  0.4258
    4CHTO   H14 1653   7.807   6.500   2.079  0.3143  0.4583  2.1832
    4CHTO    C2 1654   7.699   6.333   2.178 -0.1016  0.2056 -0.0006
    4CHTO   H15 1655   7.598   6.288   2.176 -0.6713  1.4963 -1.1607
    4CHTO    O6 1656   7.799   6.245   2.123  0.4292 -0.2566  0.3544
    4CHTO    H1 1657   7.841   6.182   2.179 -1.2950 -1.2037  0.6254
    4CHTO    C3 1658   7.729   6.381   2.329  0.5208  0.6012 -0.3069
    4CHTO   H16 1659   7.829   6.427   2.341 -0.6195  2.9027  0.5831
    4CHTO    N1 1660   7.724   6.267   2.431 -0.2555  0.0299 -0.0003
    4CHTO    H8 1661   7.820   6.217   2.427  0.3568  1.1640  0.1598
    4CHTO    H9 1662   7.641   6.202   2.410  1.0642 -0.9435 -2.3669
    4CHTO    C4 1663   7.633   6.501   2.358  0.2092  0.2310  0.2011
    4CHTO   H17 1664   7.530   6.468   2.367  0.4329 -1.0489 -1.6930
    4CHTO    O1 1665   7.653   6.607   2.263 -0.3600 -0.0085 -0.6738
    4CHTO    C5 1666   7.611   6.584   2.134  0.2094 -0.4330 -0.7107
    4CHTO   H18 1667   7.506   6.558   2.124 -0.0356  0.5569 -0.7934
    4CHTO   C16 1668   7.633   6.714   2.046  0.1470  0.4880 -0.6258
    4CHTO   O11 1669   7.561   6.821   2.105  0.3249 -0.5463  0.0245
    4CHTO    H5 1670   7.592   6.906   2.081 -1.0938  0.1381  0.5212
    4CHTO    O3 1671   7.676   6.564   2.481  0.5071 -0.4341  0.3546
    4CHTO    C6 1672   7.584   6.666   2.530  0.6069 -0.3465 -0.4380
    4CHTO   H19 1673   7.507   6.702   2.461  0.0711 -1.6617 -0.5272
    4CHTO    C8 1674   7.501   6.604   2.652  0.1265 -0.6537  0.3182
    4CHTO   H21 1675   7.572   6.552   2.716  1.3368  0.1170 -0.3757
    4CHTO    O7 1676   7.404   6.503   2.614  0.2451  0.1809 -0.7160
    4CHTO    H2 1677   7.433   6.414   2.620 -0.4115  0.0031 -0.0904
    4CHTO   C12 1678   7.426   6.724   2.730  0.4451  0.4909  0.2860
    4CHTO   H25 1679   7.345   6.757   2.663  2.9748  1.9984 -2.1244
    4CHTO    N3 1680   7.367   6.667   2.854 -0.9040  0.2017  0.0034
    4CHTO   H12 1681   7.294   6.594   2.824 -0.5575 -0.6502  1.2314
    4CHTO   H13 1682   7.318   6.738   2.919 -0.5359  1.5766 -1.1776
    4CHTO   C15 1683   7.513   6.855   2.748 -0.3346  0.2277 -0.0410
    4CHTO   H28 1684   7.596   6.841   2.818  1.7068  4.5084 -1.4111
    4CHTO   O10 1685   7.413   6.988   2.793  0.2632  0.4513 -0.2113
    4CHTO    H4 1686   7.451   7.072   2.777 -1.9098  1.3122 -1.0631
    4CHTO    O5 1687   7.568   6.890   2.621  0.4273  0.3695 -0.1077
    4CHTO   C10 1688   7.665   6.799   2.573  0.1609 -0.2327  0.0598
    4CHTO   H23 1689   7.740   6.784   2.651 -0.1596 -0.4787  0.3183
    4CHTO   C17 1690   7.735   6.864   2.457 -0.5173 -0.7715  0.2378
    4CHTO   O12 1691   7.820   6.970   2.487 -0.1468  0.3088 -0.1263
    4CHTO    H6 1692   7.901   6.935   2.518 -0.8174 -2.0129 -0.8774
    5CHTO  H203 1693   7.556   4.037   3.311 -0.2471 -0.3508 -0.7730
    5CHTO   O82 1694   7.543   3.971   3.376 -0.0742  0.0282 -0.3550
    5CHTO  C123 1695   7.521   4.008   3.518 -0.4696  0.1042 -0.0777
    5CHTO  H227 1696   7.609   4.067   3.548  1.6147 -2.2407 -1.3765
    5CHTO   O77 1697   7.397   4.083   3.514 -0.2503  0.0134 -0.3453
    5CHTO  C118 1698   7.369   4.168   3.637 -0.5794  0.5022 -0.4515
    5CHTO  H222 1699   7.452   4.239   3.650 -1.1188  0.8305  1.2058
    5CHTO  C125 1700   7.229   4.242   3.608 -0.2857  0.3236 -0.1305
    5CHTO   O84 1701   7.233   4.310   3.488  0.1944 -0.1151  0.5000
    5CHTO  H205 1702   7.147   4.341   3.467  0.7874  1.5451  0.4377
    5CHTO  C114 1703   7.351   4.073   3.756  0.3761 -0.0563  0.4794
    5CHTO  H218 1704   7.253   4.026   3.747  0.4121  0.1681 -1.1676
    5CHTO  C116 1705   7.459   3.963   3.762  0.3213  0.2517 -0.1488
    5CHTO  H220 1706   7.550   3.994   3.817  1.9605  0.4282 -2.8828
    5CHTO   O79 1707   7.409   3.865   3.856  0.0571  0.2503  0.2433
    5CHTO  H201 1708   7.341   3.820   3.810  1.8167 -2.5399  0.2144
    5CHTO  C120 1709   7.493   3.894   3.624  0.3420 -0.3777  0.6178
    5CHTO  H224 1710   7.400   3.844   3.591  0.8821 -0.9686 -0.0557
    5CHTO   N21 1711   7.606   3.797   3.630 -0.4932  0.2689  0.4063
    5CHTO  H211 1712   7.686   3.830   3.566  0.8213 -2.0461  0.7642
    5CHTO  H212 1713   7.583   3.694   3.606 -0.5681 -0.0445  1.7974
    5CHTO   O75 1714   7.354   4.162   3.870  0.0582  0.4233 -0.6653
    5CHTO  C112 1715   7.220   4.151   3.966 -0.4040  0.5637 -0.2729
    5CHTO  H216 1716   7.198   4.045   3.982 -0.6878  0.6589 -0.0297
    5CHTO   O73 1717   7.112   4.218   3.913  0.4046 -0.0064  0.4841
    5CHTO  C113 1718   6.990   4.225   3.987 -0.2618  0.2935  0.4398
    5CHTO  H217 1719   6.945   4.125   3.996 -0.7698  0.3557 -1.3161
    5CHTO  C124 1720   6.887   4.304   3.904 -0.2002 -0.0207 -0.2006
    5CHTO   O83 1721   6.939   4.428   3.877  0.2292 -0.6969  0.3018
    5CHTO  H204 1722   6.873   4.492   3.859  0.4094 -0.7268 -0.4758
    5CHTO  C109 1723   7.010   4.287   4.125  0.0857  0.4478  0.2792
    5CHTO  H213 1724   7.046   4.390   4.110 -4.3114  2.1109  0.6740
    5CHTO  C110 1725   7.126   4.209   4.197 -0.0380 -0.1114 -0.0533
    5CHTO  H214 1726   7.099   4.105   4.218 -0.4877 -0.2077 -1.0994
    5CHTO   O78 1727   7.152   4.273   4.325  0.0471 -0.4819 -0.6310
    5CHTO  H200 1728   7.243   4.293   4.334 -0.1666  0.4820 -0.5230
    5CHTO  C111 1729   7.255   4.208   4.108  0.8679 -0.3581 -0.5278
    5CHTO  H215 1730   7.296   4.310   4.101 -1.4517  0.7301  1.1104
    5CHTO   N19 1731   7.367   4.124   4.171 -0.2151  0.1471 -0.0506
    5CHTO  H207 1732   7.439   4.183   4.226 -1.4919  0.5493  1.1995
    5CHTO  H208 1733   7.338   4.063   4.255 -1.9742  1.5127  0.3573
    5CHTO   O74 1734   6.885   4.281   4.197  0.3932 -0.5091  0.3368
    5CHTO  C115 1735   6.862   4.414   4.308  0.3115  0.3647 -0.0534
    5CHTO  H219 1736   6.939   4.412   4.386  1.9170 -1.4447 -1.6236
    5CHTO   O76 1737   6.880   4.556   4.236 -0.1054 -0.1013  0.0639
    5CHTO  C122 1738   6.775   4.579   4.148 -0.4844 -0.3468  0.9682
    5CHTO  H226 1739   6.771   4.502   4.070  2.1144  2.6549 -2.3263
    5CHTO  C126 1740   6.806   4.711   4.067  0.1544  0.1439  0.0656
    5CHTO   O85 1741   6.928   4.706   4.001 -0.6801  0.0492  0.4687
    5CHTO  H206 1742   7.004   4.721   4.054 -0.5676 -1.7223  0.8361
    5CHTO  C121 1743   6.639   4.603   4.227  0.1681 -0.9215  0.1707
    5CHTO  H225 1744   6.611   4.711   4.233  3.6208 -0.0037  0.3530
    5CHTO   O81 1745   6.531   4.546   4.152  0.0866  0.1188  0.1802
    5CHTO  H202 1746   6.548   4.510   4.067 -0.2828 -0.3076  0.2884
    5CHTO  C119 1747   6.648   4.543   4.370  0.2170  0.0126  0.1708
    5CHTO  H223 1748   6.721   4.602   4.425  0.1717 -0.3313  0.6028
    5CHTO  C117 1749   6.715   4.400   4.366  0.7286 -0.2094 -0.2342
    5CHTO  H221 1750   6.661   4.328   4.305 -2.5151  0.5521  1.5929
    5CHTO   N20 1751   6.705   4.336   4.504 -0.5651  0.4732  0.2303
    5CHTO  H209 1752   6.603   4.303   4.510 -0.6892  0.8911  0.3774
    5CHTO  H210 1753   6.768   4.249   4.514 -0.4657  0.1100 -2.9965
    5CHTO   O80 1754   6.519   4.556   4.462 -0.5867 -0.4410 -0.1216
    5CHTO  C103 1755   6.370   4.512   4.394 -0.0274 -0.2041  0.0945
    5CHTO  H190 1756   6.370   4.527   4.286  0.9494  1.5112  0.3193
    5CHTO  C101 1757   6.312   4.370   4.425 -0.0933  0.0401  0.1011
    5CHTO  H188 1758   6.331   4.347   4.529 -1.0280  0.3077  0.3321
    5CHTO   O68 1759   6.388   4.274   4.332  0.2115  0.0310 -0.3570
    5CHTO  H168 1760   6.335   4.197   4.343 -1.6569  1.2648 -0.4620
    5CHTO   C99 1761   6.151   4.362   4.411  0.3769  0.9923  0.6109
    5CHTO  H186 1762   6.128   4.372   4.303  2.0828 -1.9207 -0.0769
    5CHTO   N17 1763   6.093   4.235   4.455  0.5242  0.0212  0.5761
    5CHTO  H174 1764   6.123   4.150   4.395  1.4156  0.1320  0.8641
    5CHTO  H175 1765   6.120   4.225   4.559 -1.7209 -1.1930  1.0673
    5CHTO   C97 1766   6.089   4.484   4.482  0.1444  0.5368  0.0681
    5CHTO  H184 1767   6.119   4.476   4.587 -2.4185 -0.1691  0.7818
    5CHTO   O64 1768   6.137   4.608   4.425  0.3113 -0.5307 -0.1925
    5CHTO  C104 1769   6.280   4.628   4.455  0.1122  0.4002 -0.2717
    5CHTO  H191 1770   6.286   4.624   4.564  0.3372 -1.2310 -0.3286
    5CHTO  C108 1771   6.336   4.758   4.404 -0.1389 -0.5680  0.0677
    5CHTO   O71 1772   6.430   4.800   4.501 -0.1268 -1.3446  0.1725
    5CHTO  H171 1773   6.392   4.866   4.556 -0.2729 -0.6505 -0.7465
    5CHTO   O62 1774   5.939   4.489   4.473 -0.0504  0.8453 -0.4438
    5CHTO   C91 1775   5.865   4.561   4.372 -0.3169 -0.9201 -0.1511
    5CHTO  H178 1776   5.906   4.662   4.368 -2.0648  0.1025  4.7072
    5CHTO   C92 1777   5.719   4.576   4.435  0.6075 -0.6875  0.0779
    5CHTO  H179 1778   5.735   4.618   4.536 -0.4119 -0.5387  0.1840
    5CHTO   O66 1779   5.640   4.672   4.362  0.0768  0.0466 -0.3477
    5CHTO  H166 1780   5.635   4.751   4.412  0.2951  1.1118 -1.9959
    5CHTO   C93 1781   5.643   4.435   4.423 -0.5742 -0.0767 -0.4753
    5CHTO  H180 1782   5.538   4.458   4.399  0.1250  2.1355 -1.5556
    5CHTO   N16 1783   5.641   4.353   4.551 -0.4506  0.9500 -0.1041
    5CHTO  H172 1784   5.594   4.409   4.631 -2.2638  0.8356 -1.0735
    5CHTO  H173 1785   5.589   4.262   4.527  2.1163 -1.0350  1.5324
    5CHTO   C94 1786   5.698   4.342   4.305  0.0471  0.2631  0.5559
    5CHTO  H181 1787   5.783   4.282   4.339  0.7633  1.8458  1.6241
    5CHTO   O61 1788   5.740   4.429   4.197 -0.0210 -0.7272 -0.1827
    5CHTO   C95 1789   5.862   4.497   4.228 -0.1310  0.1273  0.1405
    5CHTO  H182 1790   5.944   4.426   4.220 -1.3864 -1.4045  0.4935
    5CHTO  C106 1791   5.890   4.602   4.107 -0.1085 -0.0221 -0.6407
    5CHTO   O69 1792   6.013   4.676   4.129  0.1169 -0.2119  0.5699
    5CHTO  H169 1793   5.994   4.750   4.184  0.4366 -0.3190  0.8291
    5CHTO   O63 1794   5.580   4.237   4.250  0.3871 -0.5125  0.4755
    5CHTO   C96 1795   5.615   4.169   4.112 -0.2953  0.2425 -0.6727
    5CHTO  H183 1796   5.670   4.245   4.055 -0.0196  0.4622 -0.1085
    5CHTO   C98 1797   5.491   4.122   4.018  0.6377  0.7978  0.0229
    5CHTO  H185 1798   5.412   4.198   4.007 -0.3187 -0.2914 -0.6506
    5CHTO   O67 1799   5.539   4.102   3.883  0.0276  0.0219 -0.7698
    5CHTO  H167 1800   5.576   4.181   3.850  2.0445 -0.5798 -0.0473
    5CHTO  C102 1801   5.429   3.987   4.072  1.0355 -0.5415  0.3290
    5CHTO  H189 1802   5.372   3.948   3.987  0.1455 -0.3482  0.8271
    5CHTO   N18 1803   5.334   3.988   4.190 -0.2971  0.1757 -0.5585
    5CHTO  H176 1804   5.366   3.933   4.277  0.0097  0.6361 -0.3820
    5CHTO  H177 1805   5.241   3.938   4.166 -0.2570  0.1157 -0.5924
    5CHTO  C105 1806   5.542   3.881   4.083 -0.3937 -0.3987 -0.2373
    5CHTO  H192 1807   5.524   3.822   4.173  0.3564 -2.8629 -1.6502
    5CHTO   O65 1808   5.680   3.926   4.081  0.3540 -0.2711  0.3437
    5CHTO  C100 1809   5.717   4.050   4.144  0.6982  0.3238  0.3421
    5CHTO  H187 1810   5.727   4.038   4.253  0.6167  4.8611  0.9659
    5CHTO  C107 1811   5.854   4.067   4.087  0.5420  0.0668  0.0342
    5CHTO   O70 1812   5.924   4.159   4.167  0.1909  0.1001  0.2694
    5CHTO  H170 1813   6.007   4.174   4.126  0.5741 -0.7219  0.7316
    5CHTO   O57 1814   5.527   3.796   3.962  0.3811  0.3725  0.2936
    5CHTO   C85 1815   5.521   3.656   3.960  0.2403  0.4542  0.1553
    5CHTO  H157 1816   5.444   3.631   4.037  0.5785 -1.4262 -0.0952
    5CHTO   C83 1817   5.653   3.597   4.005  0.1464  0.1646 -0.3057
    5CHTO  H155 1818   5.655   3.629   4.109 -0.8733 -1.6193  0.2851
    5CHTO   O56 1819   5.766   3.659   3.934  0.0178 -0.7713  0.5392
    5CHTO  H135 1820   5.757   3.753   3.936  3.7079 -0.3032 -0.7951
    5CHTO   C81 1821   5.658   3.436   3.996 -0.1347  0.1538 -0.3425
    5CHTO  H153 1822   5.580   3.394   4.059 -0.5983 -0.1187 -1.0954
    5CHTO   N14 1823   5.776   3.371   4.062 -0.1277 -0.0131 -0.4666
    5CHTO  H141 1824   5.865   3.375   4.002  0.0097 -1.5824 -0.3844
    5CHTO  H142 1825   5.758   3.274   4.104 -0.1632 -0.1863 -0.8851
    5CHTO   C79 1826   5.638   3.394   3.841  0.1419 -0.3820  0.2572
    5CHTO  H151 1827   5.625   3.286   3.839  2.5279 -0.6678 -1.7377
    5CHTO   O52 1828   5.511   3.457   3.806 -0.5498  0.5651 -0.0342
    5CHTO   C86 1829   5.482   3.599   3.819  0.9346  0.2176  0.1328
    5CHTO  H158 1830   5.539   3.645   3.736  1.1601 -0.3636 -0.0376
    5CHTO   C90 1831   5.330   3.624   3.789 -1.0395  0.2082  0.0401
    5CHTO   O60 1832   5.303   3.763   3.780  0.1565 -0.0906 -0.4887
    5CHTO  H138 1833   5.214   3.786   3.800 -0.2215 -2.2210  0.4635
    5CHTO   O50 1834   5.746   3.430   3.756 -0.0111  0.2645 -0.5201
    5CHTO   C73 1835   5.808   3.418   3.629 -0.1139  0.6057  0.0436
    5CHTO  H145 1836   5.734   3.416   3.547 -1.9968  2.6110  1.6197
    5CHTO   C74 1837   5.897   3.293   3.624 -0.5247  0.1707  0.4419
    5CHTO  H146 1838   5.838   3.202   3.644  1.2222 -1.1131 -0.1000
    5CHTO   O54 1839   5.945   3.276   3.492  0.2025  0.1533  0.0231
    5CHTO  H133 1840   6.010   3.208   3.494  0.9115  0.7875 -0.9004
    5CHTO   C75 1841   6.006   3.314   3.731 -0.7737  0.1088  0.8629
    5CHTO  H147 1842   5.966   3.312   3.833 -1.1551 -0.2235  0.7107
    5CHTO   N13 1843   6.101   3.198   3.738  0.2749  0.1494 -0.3844
    5CHTO  H139 1844   6.183   3.219   3.671 -0.9344 -0.8639 -2.2339
    5CHTO  H140 1845   6.144   3.182   3.835  0.2703 -0.9650 -0.5563
    5CHTO   C76 1846   6.079   3.458   3.716 -0.5747  0.2136  0.1361
    5CHTO  H148 1847   6.148   3.445   3.633 -0.4460  2.5519 -0.1491
    5CHTO   O49 1848   5.975   3.558   3.711 -0.2421 -0.0156  0.1676
    5CHTO   C77 1849   5.883   3.542   3.602  0.5436 -0.0804 -0.0135
    5CHTO  H149 1850   5.941   3.532   3.510  0.0472  0.1837 -0.3553
    5CHTO   C88 1851   5.796   3.674   3.590  0.0272 -0.2763  0.2284
    5CHTO   O58 1852   5.731   3.695   3.479  0.6016 -0.1286  0.0667
    5CHTO  H136 1853   5.724   3.786   3.458  0.9348 -0.2932 -0.8028
    5CHTO   O51 1854   6.145   3.473   3.827  0.1523 -0.1490  0.6269
    5CHTO   C78 1855   6.250   3.598   3.831 -0.8734  0.8607  0.6735
    5CHTO  H150 1856   6.227   3.687   3.770 -0.7014  0.7888  0.5031
    5CHTO   C80 1857   6.389   3.556   3.790  0.5109 -0.1662 -0.9468
    5CHTO  H152 1858   6.420   3.468   3.850  0.4561 -0.8521 -1.9227
    5CHTO   O55 1859   6.369   3.536   3.650 -0.1939 -0.1650  0.2459
    5CHTO  H134 1860   6.391   3.451   3.618  1.0994 -0.4494  1.8740
    5CHTO   C84 1861   6.503   3.667   3.814  0.4141 -0.2909 -0.8594
    5CHTO  H156 1862   6.473   3.758   3.763 -4.1178 -0.7204  0.8631
    5CHTO   N15 1863   6.638   3.626   3.757  0.0532 -0.4644 -0.2099
    5CHTO  H143 1864   6.696   3.581   3.835 -1.7186 -1.9458  0.3048
    5CHTO  H144 1865   6.686   3.711   3.716  0.9625 -0.2469  1.2658
    5CHTO   C87 1866   6.504   3.705   3.956  0.3542 -0.9325  0.5069
    5CHTO  H159 1867   6.530   3.621   4.020 -1.0424 -2.2604 -0.6183
    5CHTO   O53 1868   6.355   3.750   3.983 -0.3317 -0.4907  0.2386
    5CHTO   C82 1869   6.256   3.650   3.978 -0.4627  0.4210  0.4478
    5CHTO  H154 1870   6.291   3.576   4.050 -1.4776 -0.0401  0.4679
    5CHTO   C89 1871   6.116   3.700   4.033  0.2235  0.9233 -0.5010
    5CHTO   O59 1872   6.037   3.593   4.085 -0.3179 -0.0403  0.2897
    5CHTO  H137 1873   6.080   3.550   4.157  0.4891  0.2399 -0.0219
    5CHTO   O45 1874   6.612   3.829   3.983 -0.0545  0.1781 -0.6592
    5CHTO   C67 1875   6.609   3.869   4.123  0.1206 -0.1278 -0.0002
    5CHTO  H124 1876   6.511   3.852   4.168 -0.5305  0.0982 -1.3165
    5CHTO   C65 1877   6.721   3.777   4.195  0.3317 -0.2632 -0.0941
    5CHTO  H122 1878   6.772   3.729   4.112  0.7777  0.1783 -0.0756
    5CHTO   O44 1879   6.648   3.672   4.264  0.4417 -0.0195 -0.0116
    5CHTO  H102 1880   6.711   3.604   4.278  0.2106 -0.1663  0.3088
    5CHTO   C63 1881   6.819   3.870   4.274  0.0784  0.4878  0.5743
    5CHTO  H120 1882   6.874   3.937   4.208  0.3794  0.3644  0.7007
    5CHTO   N11 1883   6.926   3.799   4.352 -0.5968  0.1900 -0.5678
    5CHTO  H108 1884   7.022   3.826   4.313  0.0819  0.7724  1.4522
    5CHTO  H109 1885   6.908   3.694   4.362 -2.1028  0.5330  0.5073
    5CHTO   C61 1886   6.739   3.977   4.362  0.2753  0.4862 -0.1620
    5CHTO  H118 1887   6.809   4.043   4.415 -0.8075  2.1622 -0.7976
    5CHTO   O40 1888   6.656   4.061   4.272  0.3816  0.0682  0.3702
    5CHTO   C68 1889   6.634   4.028   4.134 -0.1350 -0.2624  0.5307
    5CHTO  H125 1890   6.728   4.043   4.077  1.5210 -2.5655  2.5303
    5CHTO   C72 1891   6.528   4.121   4.077 -0.3359 -0.2716 -0.5231
    5CHTO   O48 1892   6.519   4.106   3.936 -0.1292 -0.2567  0.0456
    5CHTO  H105 1893   6.450   4.044   3.922 -0.4583  0.4150 -1.4713
    5CHTO   O38 1894   6.654   3.912   4.461  0.3776 -0.3285  0.0835
    5CHTO   C55 1895   6.573   3.997   4.542 -0.4636  0.4647 -0.0009
    5CHTO  H112 1896   6.575   4.100   4.505  0.0577  0.9847  1.4348
    5CHTO   C56 1897   6.633   3.991   4.694 -0.1268  0.3317  0.1969
    5CHTO  H113 1898   6.637   3.885   4.724  2.1534  0.6843  1.2928
    5CHTO   O42 1899   6.768   4.046   4.696  0.3023  0.7412  0.6960
    5CHTO  H100 1900   6.769   4.112   4.629  0.3168  0.6441  0.5989
    5CHTO   C57 1901   6.535   4.073   4.793  0.0665 -0.7333 -0.2847
    5CHTO  H114 1902   6.556   4.179   4.775 -0.3682 -0.6267 -0.1648
    5CHTO   N10 1903   6.564   4.048   4.933  0.0405 -0.0813 -0.0519
    5CHTO  H106 1904   6.523   4.132   4.987  0.6976  0.2117 -0.0056
    5CHTO  H107 1905   6.513   3.959   4.965 -2.3597  0.4308 -2.3224
    5CHTO   C58 1906   6.386   4.042   4.761  0.0353  0.8507  0.4060
    5CHTO  H115 1907   6.356   3.939   4.788  1.9106  0.1320 -0.2060
    5CHTO   O37 1908   6.359   4.054   4.623  0.2581  0.0736  0.0067
    5CHTO   C59 1909   6.424   3.956   4.540 -0.0914  0.1039  0.4491
    5CHTO  H116 1910   6.411   3.858   4.586  0.6520 -0.9747 -1.5871
    5CHTO   C70 1911   6.374   3.938   4.400  0.2704  0.7081  0.6089
    5CHTO   O46 1912   6.234   3.944   4.384  0.6630  0.3650 -0.4148
    5CHTO  H103 1913   6.212   3.936   4.293 -2.7776 -0.1983  0.4116
    5CHTO   O39 1914   6.278   4.138   4.839 -0.1018  0.0464 -0.4466
    5CHTO   C60 1915   6.136   4.132   4.819 -0.2955  0.4303  0.2445
    5CHTO  H117 1916   6.109   4.165   4.719 -1.4807  1.6843  0.9543
    5CHTO   C62 1917   6.077   3.986   4.822 -0.1548 -0.1615 -0.0681
    5CHTO  H119 1918   6.119   3.939   4.731 -2.4249 -1.2102 -0.5902
    5CHTO   O43 1919   6.118   3.925   4.949 -0.2077  0.3627 -0.1461
    5CHTO  H101 1920   6.206   3.954   4.962  0.6633 -1.9751 -0.5203
    5CHTO   C66 1921   5.918   3.988   4.796  0.2491 -0.4549 -0.3448
    5CHTO  H123 1922   5.897   4.026   4.696 -2.3391 -0.3918  0.1984
    5CHTO   N12 1923   5.866   3.850   4.799  0.2931  0.2679 -0.4511
    5CHTO  H110 1924   5.924   3.805   4.878 -0.3567  1.4727  0.7410
    5CHTO  H111 1925   5.889   3.802   4.705  0.4081 -1.2581  0.3244
    5CHTO   C69 1926   5.846   4.080   4.897 -0.0551  0.0299  0.3449
    5CHTO  H126 1927   5.869   4.037   4.997  2.6772  1.0941  0.2242
    5CHTO   O41 1928   5.904   4.222   4.883 -0.3864  0.0510  0.2513
    5CHTO   C64 1929   6.055   4.229   4.917 -0.2512  0.1856  0.7884
    5CHTO  H121 1930   6.066   4.200   5.024 -0.4351 -0.5083  0.6215
    5CHTO   C71 1931   6.110   4.368   4.905 -0.1225  0.4700  0.2774
    5CHTO   O47 1932   6.037   4.461   4.986  0.2427  0.0196  0.7000
    5CHTO  H104 1933   6.052   4.441   5.076 -1.7056 -0.3977  0.9463
    5CHTO   O34 1934   5.693   4.087   4.875 -0.7878 -0.5638 -0.1553
    5CHTO   C49 1935   5.600   4.077   4.998  0.5630  0.6171  1.0277
    5CHTO   H91 1936   5.623   3.985   5.052 -1.4477 -1.0612 -0.8879
    5CHTO   C47 1937   5.456   4.066   4.953  0.7280  0.5941 -0.1968
    5CHTO   H89 1938   5.403   4.041   5.047 -0.0408 -0.2220 -0.8406
    5CHTO   O33 1939   5.456   3.951   4.873  0.0388 -0.1225 -0.1696
    5CHTO   H70 1940   5.419   3.874   4.912 -0.8571  0.0463 -0.6662
    5CHTO   C45 1941   5.395   4.202   4.887  0.5792 -0.0908 -0.2723
    5CHTO   H87 1942   5.458   4.234   4.803 -0.4736  0.4625 -0.8557
    5CHTO    N8 1943   5.257   4.178   4.836 -0.0568  0.3559  0.0884
    5CHTO   H75 1944   5.259   4.110   4.751 -0.0278 -1.3177  1.3981
    5CHTO   H76 1945   5.215   4.117   4.915  0.4115  1.2009  0.9863
    5CHTO   C43 1946   5.408   4.315   5.006  0.7218  0.0868 -0.1290
    5CHTO   H85 1947   5.379   4.413   4.967 -0.4955  0.1483  0.8910
    5CHTO   O29 1948   5.542   4.312   5.051 -0.2360 -0.1531  0.5194
    5CHTO   C50 1949   5.618   4.198   5.083  0.1632  0.5495 -0.8496
    5CHTO   H92 1950   5.724   4.228   5.074  0.5110 -0.6318 -0.8051
    5CHTO   C54 1951   5.617   4.151   5.225 -0.2007 -0.0795 -0.0281
    5CHTO   O36 1952   5.640   4.257   5.318  0.0214  0.2124 -0.4021
    5CHTO   H72 1953   5.684   4.333   5.285 -0.9159  0.8047 -0.3062
    5CHTO   O27 1954   5.323   4.278   5.111  0.4239  0.2088  0.4493
    5CHTO   C37 1955   5.231   4.361   5.187  1.0640  0.1526 -0.0422
    5CHTO   H79 1956   5.271   4.461   5.209  1.1580  0.3207 -0.9843
    5CHTO   C38 1957   5.098   4.389   5.104 -0.1679 -1.0919  0.4082
    5CHTO   H80 1958   5.059   4.298   5.055 -2.0668  1.2059 -2.5566
    5CHTO   O31 1959   5.136   4.486   5.004 -0.2474  0.2752 -0.6199
    5CHTO   H68 1960   5.136   4.447   4.919  2.9113 -1.4835  0.1153
    5CHTO   C39 1961   4.976   4.440   5.197 -0.8142  0.3627  0.4895
    5CHTO   H81 1962   4.991   4.547   5.214 -0.3040  0.1547  1.3291
    5CHTO    N7 1963   4.844   4.436   5.128  0.4532 -0.5977 -0.7801
    5CHTO   H73 1964   4.840   4.511   5.051 -2.4086 -0.5569 -0.6282
    5CHTO   H74 1965   4.829   4.345   5.071 -1.6591 -0.9577  0.3239
    5CHTO   C40 1966   4.978   4.361   5.332  1.0577  0.4080 -0.0299
    5CHTO   H82 1967   4.951   4.257   5.310 -1.2774  1.1454 -0.7421
    5CHTO   O26 1968   5.102   4.373   5.398 -0.1524  0.0480 -0.6308
    5CHTO   C41 1969   5.209   4.294   5.338 -0.3184 -0.8203 -0.6840
    5CHTO   H83 1970   5.180   4.188   5.336  2.3402 -1.6656  2.0430
    5CHTO   C52 1971   5.340   4.300   5.421  0.0100 -0.5473 -0.2310
    5CHTO   O35 1972   5.330   4.205   5.540  0.1814  0.2830 -0.2128
    5CHTO   H71 1973   5.406   4.200   5.595  0.1407  1.6355 -0.0059
    5CHTO   O28 1974   4.866   4.415   5.413 -0.3213  0.0471 -0.2899
    5CHTO   C42 1975   4.834   4.373   5.548  0.0078 -0.1105 -0.5678
    5CHTO   H84 1976   4.726   4.391   5.557  0.4102  2.2203  0.0099
    5CHTO   C44 1977   4.897   4.463   5.667 -0.4015  0.3775  0.3901
    5CHTO   H86 1978   5.000   4.487   5.645 -0.6947  1.5364  0.2309
    5CHTO   O32 1979   4.817   4.586   5.664 -0.0735  0.5581  0.6680
    5CHTO   H69 1980   4.858   4.649   5.721  0.5994 -1.0343  1.9680
    5CHTO   C48 1981   4.896   4.403   5.812  0.7672 -0.5650 -0.9219
    5CHTO   H90 1982   4.792   4.404   5.846  1.1451 -1.9490  0.3483
    5CHTO    N9 1983   4.970   4.472   5.926  0.2900 -0.2503  0.1921
    5CHTO   H77 1984   4.904   4.521   5.996 -0.6587  0.6215 -1.2786
    5CHTO   H78 1985   5.056   4.521   5.882  1.3809 -0.9997  1.4632
    5CHTO   C51 1986   4.938   4.251   5.793  0.6557 -0.6694  0.2483
    5CHTO   H93 1987   5.038   4.258   5.750  0.5219  1.4625  0.2351
    5CHTO   O30 1988   4.846   4.180   5.712  0.7659  0.5485 -0.6486
    5CHTO   C46 1989   4.857   4.223   5.574 -0.5658 -1.0383  0.0632
    5CHTO   H88 1990   4.961   4.203   5.547  0.1056  2.3140 -0.0470
    5CHTO   C53 1991   4.756   4.145   5.491 -0.0993  0.1120  0.5994
    5CHTO   O72 1992   4.767   4.006   5.498  0.4343 -0.4743  0.1914
    5CHTO  H199 1993   4.693   3.976   5.450  1.2428 -1.4661 -0.4727
    5CHTO   O22 1994   4.943   4.174   5.916  0.0426 -0.4184  0.1645
    5CHTO   C31 1995   5.052   4.077   5.945 -0.2396 -1.3962 -0.0683
    5CHTO   H59 1996   5.012   4.024   6.034 -1.4706  1.6138  1.2395
    5CHTO   C29 1997   5.071   3.976   5.831  0.4434  0.1498  0.5215
    5CHTO   H57 1998   5.057   4.031   5.737  0.0293 -2.3874 -0.9677
    5CHTO   O21 1999   4.958   3.883   5.836 -0.0928 -0.1118 -0.1130
    5CHTO   H37 2000   4.978   3.811   5.892  2.1092 -0.1752 -0.9033
    5CHTO   C27 2001   5.207   3.901   5.826  0.3789  0.4023 -0.9104
    5CHTO   H55 2002   5.210   3.828   5.908  2.9983 -0.0395 -1.3301
    5CHTO    N5 2003   5.221   3.827   5.699  0.0930 -0.4778  0.5567
    5CHTO   H43 2004   5.294   3.747   5.705  1.0025 -0.0186 -3.1057
    5CHTO   H44 2005   5.225   3.905   5.624 -1.0505 -0.1982  0.7814
    5CHTO   C25 2006   5.321   4.001   5.863 -0.5092 -0.1891 -0.6603
    5CHTO   H53 2007   5.301   4.084   5.793  2.7393  0.5273 -0.8072
    5CHTO   O17 2008   5.292   4.051   5.999 -0.0948 -0.2594 -0.2566
    5CHTO   C32 2009   5.181   4.141   6.002 -0.0159 -0.0972 -0.0853
    5CHTO   H60 2010   5.195   4.238   5.954 -0.1064  0.4542  0.9956
    5CHTO   C36 2011   5.166   4.171   6.154 -0.3836  0.0514 -0.2972
    5CHTO   O25 2012   5.264   4.259   6.201  0.5884 -0.4247  0.3465
    5CHTO   H40 2013   5.343   4.210   6.212 -0.0557 -1.5715 -0.0551
    5CHTO   O15 2014   5.488   3.940   5.861  0.9829 -0.2311  0.4525
    5CHTO   C19 2015   5.581   4.039   5.841 -0.3080  0.7518 -0.2123
    5CHTO   H47 2016   5.532   4.125   5.793  0.6891  1.8262  0.6468
    5CHTO   C20 2017   5.645   4.094   5.976  0.3165  0.1737 -0.0175
    5CHTO   H48 2018   5.674   4.012   6.044 -1.0318  0.9931  1.5850
    5CHTO   O19 2019   5.540   4.163   6.045 -0.2518 -0.2463  0.1006
    5CHTO   H35 2020   5.486   4.210   5.984  1.4620  0.9649 -0.5105
    5CHTO   C21 2021   5.766   4.190   5.960  0.3333  0.4375 -0.2808
    5CHTO   H49 2022   5.728   4.292   5.962  1.1059  0.7461 -1.2765
    5CHTO    N4 2023   5.847   4.199   6.085 -0.2724 -0.0113 -0.1586
    5CHTO   H41 2024   5.937   4.259   6.080 -0.4763  0.6856  3.1339
    5CHTO   H42 2025   5.786   4.240   6.164  1.7396  0.2017  1.3194
    5CHTO   C22 2026   5.862   4.145   5.842  0.0818  0.2155 -0.6714
    5CHTO   H50 2027   5.932   4.070   5.880 -1.5842 -0.1034  1.8916
    5CHTO   O14 2028   5.799   4.094   5.725 -0.0493  0.0268  0.5363
    5CHTO   C23 2029   5.697   3.994   5.739  0.0007  0.4499 -0.1901
    5CHTO   H51 2030   5.753   3.906   5.774  2.3422 -0.0092 -4.6538
    5CHTO   C34 2031   5.641   3.965   5.601  0.2050  0.0317 -0.3085
    5CHTO   O23 2032   5.575   3.837   5.583  0.0556 -0.0584 -0.0153
    5CHTO   H38 2033   5.501   3.843   5.526  0.2378 -0.5590 -0.3027
    5CHTO   O16 2034   5.939   4.258   5.796  0.5363 -0.1747  0.2104
    5CHTO   C24 2035   6.091   4.215   5.726 -0.3963  0.3869  0.4528
    5CHTO   H52 2036   6.111   4.108   5.724 -0.0067  0.4285  1.7942
    5CHTO   C26 2037   6.201   4.287   5.810  0.1937  0.5097 -0.0523
    5CHTO   H54 2038   6.182   4.396   5.803 -2.2065  0.0058 -1.7028
    5CHTO   O20 2039   6.185   4.243   5.945  0.4196 -0.2785  0.5037
    5CHTO   H36 2040   6.264   4.266   5.991 -0.1493  3.0920 -0.0730
    5CHTO   C30 2041   6.336   4.250   5.737  0.8353 -0.2298  0.9709
    5CHTO   H58 2042   6.343   4.141   5.731 -3.2854 -0.4961 -0.3738
    5CHTO    N6 2043   6.455   4.283   5.812 -0.9857 -0.8439 -0.1919
    5CHTO   H45 2044   6.455   4.226   5.904 -0.7068  0.3231  0.5335
    5CHTO   H46 2045   6.547   4.264   5.759 -0.0388 -1.1383  1.5290
    5CHTO   C33 2046   6.332   4.305   5.584  0.3050 -0.1185 -0.0094
    5CHTO   H61 2047   6.304   4.411   5.588 -1.5048 -0.5796 -0.0644
    5CHTO   O18 2048   6.223   4.230   5.522 -0.0997  0.5558 -0.1674
    5CHTO   C28 2049   6.094   4.259   5.574 -0.4353  0.6618 -0.3700
    5CHTO   H56 2050   6.064   4.364   5.564 -0.0499  0.8605  0.5050
    5CHTO   C35 2051   5.983   4.179   5.503  0.1875 -0.4253  0.1923
    5CHTO   O24 2052   5.952   4.233   5.373  0.3378 -0.0837 -0.3949
    5CHTO   H39 2053   5.885   4.178   5.337  0.9980 -1.8108  0.9872
    5CHTO    O9 2054   6.454   4.293   5.508  0.0129 -0.6257  0.0414
    5CHTO   C13 2055   6.500   4.145   5.457  0.3183  0.4357  0.1702
    5CHTO   H26 2056   6.418   4.075   5.481 -1.1400  1.4201 -1.8406
    5CHTO   C11 2057   6.632   4.109   5.529 -0.4861 -0.6987  0.3438
    5CHTO   H24 2058   6.609   4.103   5.637 -1.1515  0.0194  0.2506
    5CHTO    O8 2059   6.726   4.209   5.522  0.5787 -0.5509  0.4031
    5CHTO    H3 2060   6.687   4.292   5.539  1.3902 -0.3335  1.2647
    5CHTO    C9 2061   6.690   3.980   5.464 -0.3991 -0.0292 -0.0884
    5CHTO   H22 2062   6.610   3.905   5.455 -0.2276 -0.4211  1.5597
    5CHTO    N2 2063   6.783   3.901   5.552 -0.1549 -0.4816  0.6891
    5CHTO   H10 2064   6.820   3.960   5.634  1.9125 -0.0600 -0.5034
    5CHTO   H11 2065   6.870   3.864   5.498 -0.1595  1.9727 -1.0928
    5CHTO    C7 2066   6.723   4.009   5.317 -0.0742  0.4373  0.6633
    5CHTO   H20 2067   6.693   3.917   5.262 -2.0833  2.8602 -2.4529
    5CHTO    O4 2068   6.642   4.110   5.255  0.0302 -0.2766 -0.0663
    5CHTO   C14 2069   6.506   4.138   5.299 -0.4246 -0.9793  0.2658
    5CHTO   H27 2070   6.450   4.052   5.256  0.7486 -0.6174 -2.0788
    5CHTO   C18 2071   6.453   4.270   5.231  0.0014  0.7122 -0.0394
    5CHTO   O13 2072   6.314   4.255   5.237  0.3599  0.2044 -0.4168
    5CHTO    H7 2073   6.279   4.301   5.311  0.1902  0.2499 -0.5260
    5CHTO    O2 2074   6.882   4.052   5.289 -0.0798  0.3906  0.7802
    5CHTO    C1 2075   6.927   4.010   5.162 -0.2875  0.4877  0.5957
    5CHTO   H14 2076   6.843   3.995   5.091  1.1978  0.9327 -1.2947
    5CHTO    C2 2077   7.009   3.870   5.171 -0.4099 -0.2856 -0.0471
    5CHTO   H15 2078   7.093   3.881   5.241 -0.2065  0.8758 -0.4615
    5CHTO    O6 2079   6.918   3.775   5.228  0.4564  0.5643 -0.0152
    5CHTO    H1 2080   6.961   3.692   5.222  1.4733  0.9613  1.5671
    5CHTO    C3 2081   7.072   3.831   5.029  0.5980  0.3423 -0.4862
    5CHTO   H16 2082   6.990   3.800   4.963  1.2380 -1.8248 -0.2942
    5CHTO    N1 2083   7.160   3.710   5.044  0.0886 -0.3378  0.6626
    5CHTO    H8 2084   7.261   3.748   5.051 -0.4162  0.7952  2.2359
    5CHTO    H9 2085   7.159   3.655   4.951  0.0521  0.9422 -0.1160
    5CHTO    C4 2086   7.141   3.956   4.967 -0.5948 -0.1122 -0.0171
    5CHTO   H17 2087   7.234   3.968   5.023  0.3530 -3.7471 -0.6831
    5CHTO    O1 2088   7.071   4.079   4.977  0.1449  0.1111  0.5108
    5CHTO    C5 2089   7.022   4.113   5.104 -0.2188 -0.0373  0.1076
    5CHTO   H18 2090   7.106   4.126   5.173 -0.3502 -2.1035  0.6930
    5CHTO   C16 2091   6.951   4.249   5.087  0.2024 -0.4155 -0.3000
    5CHTO   O11 2092   6.851   4.251   4.983 -0.1026 -0.0151 -0.6030
    5CHTO    H5 2093   6.786   4.189   5.009  0.7128 -0.4061  0.5717
    5CHTO    O3 2094   7.168   3.935   4.828  0.7443 -0.8316  0.4995
    5CHTO    C6 2095   7.290   4.003   4.777  0.1917 -0.7277 -0.2102
    5CHTO   H19 2096   7.325   4.086   4.839 -3.4472  1.2458 -0.6755
    5CHTO    C8 2097   7.397   3.886   4.770 -0.6415  0.2602  0.5517
    5CHTO   H21 2098   7.355   3.801   4.717 -1.7604  0.6859  0.7270
    5CHTO    O7 2099   7.429   3.847   4.904 -0.6130 -0.2551  0.1243
    5CHTO    H2 2100   7.471   3.913   4.955 -0.7701 -0.5442  0.6327
    5CHTO   C12 2101   7.514   3.945   4.691 -0.0034 -0.6946 -0.5435
    5CHTO   H25 2102   7.564   4.022   4.755 -1.0032 -0.0006 -0.5773
    5CHTO    N3 2103   7.617   3.843   4.667 -0.7749  1.0570  0.2033
    5CHTO   H12 2104   7.583   3.758   4.610  0.0744  0.1447  1.0291
    5CHTO   H13 2105   7.696   3.891   4.610 -0.1839 -0.3906 -0.2209
    5CHTO   C15 2106   7.472   4.008   4.555 -0.2325  0.5649  0.1174
    5CHTO   H28 2107   7.434   3.936   4.482 -0.2793 -0.1245  0.8276
    5CHTO   O10 2108   7.592   4.114   4.495  0.0916 -0.1382  0.6636
    5CHTO    H4 2109   7.666   4.072   4.454 -1.1758 -0.9861 -0.7881
    5CHTO    O5 2110   7.375   4.110   4.584 -0.3649  0.8156  0.6261
    5CHTO   C10 2111   7.255   4.067   4.643 -0.6443  0.1344  0.5845
    5CHTO   H23 2112   7.199   4.000   4.578 -0.3262  0.2375  0.2120
    5CHTO   C17 2113   7.170   4.196   4.655  0.0354 -0.3480 -0.1616
    5CHTO   O12 2114   7.030   4.161   4.659  0.6141 -0.1254  0.0819
    5CHTO    H6 2115   6.989   4.163   4.744  0.1091  0.0740 -0.1639
    6CHTO  H203 2116   7.660   5.501   1.734 -1.1067 -0.2935 -1.4686
    6CHTO   O82 2117   7.573   5.482   1.764 -0.6826 -0.3459 -0.2171
    6CHTO  C123 2118   7.476   5.560   1.697  0.3355  0.0499  0.0311
    6CHTO  H227 2119   7.512   5.575   1.594  0.1814 -1.5917 -0.2696
    6CHTO   O77 2120   7.353   5.478   1.683  0.6460 -0.8337  0.0737
    6CHTO  C118 2121   7.249   5.541   1.604  0.3291  0.6390  0.0611
    6CHTO  H222 2122   7.287   5.575   1.507  0.0134  0.2801 -0.1910
    6CHTO  C125 2123   7.133   5.439   1.580  0.3262  0.3553  0.1192
    6CHTO   O84 2124   7.183   5.309   1.546  0.4821  0.5620 -0.3781
    6CHTO  H205 2125   7.122   5.252   1.502 -0.9254  0.7213  1.2897
    6CHTO  C114 2126   7.197   5.659   1.687  0.1339 -0.0228 -0.3241
    6CHTO  H218 2127   7.158   5.616   1.779 -0.8278  0.1414 -0.6573
    6CHTO  C116 2128   7.307   5.761   1.716 -0.0196  0.0462  0.2228
    6CHTO  H220 2129   7.319   5.799   1.612 -0.5676  0.8619  0.4480
    6CHTO   O79 2130   7.253   5.872   1.790  0.1396  0.3439  0.4068
    6CHTO  H201 2131   7.312   5.945   1.787  0.2813  0.2772  1.4102
    6CHTO  C120 2132   7.436   5.691   1.780  1.2781  0.1288  0.3575
    6CHTO  H224 2133   7.408   5.667   1.884  1.1604  0.2330  0.3505
    6CHTO   N21 2134   7.548   5.788   1.792 -0.0876  0.3185 -0.1039
    6CHTO  H211 2135   7.612   5.773   1.878  1.0428 -1.1984 -1.1711
    6CHTO  H212 2136   7.510   5.889   1.797 -0.7419  0.1201 -1.0003
    6CHTO   O75 2137   7.092   5.710   1.605  0.2492 -0.0971 -0.6060
    6CHTO  C112 2138   6.956   5.750   1.662  0.1387  0.4844  0.4414
    6CHTO  H216 2139   6.981   5.780   1.765 -0.3993 -0.2707  0.7965
    6CHTO   O73 2140   6.877   5.628   1.659 -0.1569  0.5284 -0.1559
    6CHTO  C113 2141   6.737   5.632   1.684 -0.4502 -0.0602  0.5780
    6CHTO  H217 2142   6.715   5.651   1.791  0.7042  3.2579  0.2973
    6CHTO  C124 2143   6.674   5.493   1.643 -0.4744  0.0916  0.6726
    6CHTO   O83 2144   6.701   5.468   1.509  0.2351  0.3896  0.9506
    6CHTO  H204 2145   6.638   5.406   1.479  0.6544  1.8127 -3.1464
    6CHTO  C109 2146   6.668   5.739   1.601  0.2188  0.8002  0.4741
    6CHTO  H213 2147   6.667   5.707   1.496 -0.2809 -2.7654  1.4877
    6CHTO  C110 2148   6.734   5.880   1.602 -0.0817  0.3148 -0.0546
    6CHTO  H214 2149   6.715   5.930   1.697  1.4879  0.6463  0.0930
    6CHTO   O78 2150   6.672   5.967   1.502  0.3938 -0.6724 -0.2519
    6CHTO  H200 2151   6.581   5.976   1.523 -0.0843 -0.7135 -2.1988
    6CHTO  C111 2152   6.889   5.866   1.578 -0.0489 -0.0732  0.2327
    6CHTO  H215 2153   6.909   5.841   1.473 -1.1559 -2.1942  0.5043
    6CHTO   N19 2154   6.965   5.991   1.605 -0.4744  0.5445 -0.3814
    6CHTO  H207 2155   7.070   5.982   1.582 -0.3457 -0.4366  0.5459
    6CHTO  H208 2156   6.913   6.082   1.579 -2.4230  0.1692  2.0150
    6CHTO   O74 2157   6.527   5.751   1.638  0.4101  1.2364  0.2176
    6CHTO  C115 2158   6.494   5.824   1.774 -0.3610  0.4205 -0.7503
    6CHTO  H219 2159   6.583   5.835   1.836 -0.4177 -0.9522 -0.4042
    6CHTO   O76 2160   6.439   5.972   1.747  0.1376  0.6669 -0.1927
    6CHTO  C122 2161   6.322   5.977   1.667  0.0141 -0.0453  0.2540
    6CHTO  H226 2162   6.350   5.975   1.561  1.2358 -0.4347  0.5786
    6CHTO  C126 2163   6.254   6.112   1.686  0.3883  0.0774  0.1513
    6CHTO   O85 2164   6.335   6.224   1.639 -0.5532 -0.5939  0.0677
    6CHTO  H206 2165   6.294   6.309   1.645 -1.0677 -0.7538 -1.2171
    6CHTO  C121 2166   6.224   5.852   1.688 -0.1311 -0.2965 -0.1771
    6CHTO  H225 2167   6.122   5.894   1.679  1.1932  2.5949 -2.6285
    6CHTO   O81 2168   6.231   5.760   1.583  0.2768 -0.5493 -0.2584
    6CHTO  H202 2169   6.195   5.799   1.505 -0.5117 -2.8776 -1.0812
    6CHTO  C119 2170   6.243   5.780   1.821 -0.3339  0.0668 -0.6785
    6CHTO  H223 2171   6.214   5.857   1.892 -1.2308 -0.2225 -0.7199
    6CHTO  C117 2172   6.391   5.734   1.854 -0.5597  0.6185  0.1720
    6CHTO  H221 2173   6.421   5.637   1.813 -0.3485  0.5179  0.5569
    6CHTO   N20 2174   6.423   5.735   2.004 -0.5573  0.0340  0.5396
    6CHTO  H209 2175   6.528   5.744   2.024 -0.5058  0.1194  0.2241
    6CHTO  H210 2176   6.359   5.796   2.065 -1.1730 -1.1399  1.1012
    6CHTO   O80 2177   6.129   5.666   1.847 -0.0621  0.3292  0.4046
    6CHTO  C103 2178   6.067   5.644   1.991  0.9919 -0.7969 -0.0896
    6CHTO  H190 2179   6.145   5.647   2.067  0.9142 -2.0211  0.0352
    6CHTO  C101 2180   5.947   5.742   2.017 -0.2702 -0.1745  0.2129
    6CHTO  H188 2181   5.876   5.759   1.937 -1.7858 -3.7258  0.7235
    6CHTO   O68 2182   6.032   5.876   2.035 -0.2912  0.2338  0.0069
    6CHTO  H168 2183   5.967   5.944   2.040 -0.8961 -0.2915 -0.5038
    6CHTO   C99 2184   5.864   5.696   2.151  0.2936  0.6604  0.2332
    6CHTO  H186 2185   5.931   5.697   2.239  1.9199  0.0743 -0.9874
    6CHTO   N17 2186   5.749   5.787   2.188  0.4845  0.5260 -0.6821
    6CHTO  H174 2187   5.777   5.886   2.223 -2.4411  0.8564  0.8715
    6CHTO  H175 2188   5.677   5.802   2.109  1.4358  1.9286 -1.3065
    6CHTO   C97 2189   5.825   5.544   2.127 -0.2505 -0.4311  0.1862
    6CHTO  H184 2190   5.764   5.545   2.036  1.3174  0.2197 -0.8727
    6CHTO   O64 2191   5.949   5.473   2.114 -0.1469  0.2568  0.4499
    6CHTO  C104 2192   6.016   5.500   1.991  0.0486  0.4995  0.2719
    6CHTO  H191 2193   5.948   5.479   1.909  1.1242  2.9442 -1.2908
    6CHTO  C108 2194   6.136   5.398   1.979 -0.2335 -0.3581  0.2263
    6CHTO   O71 2195   6.082   5.263   1.968  0.3163 -0.0732 -0.1293
    6CHTO  H171 2196   6.135   5.191   1.996  1.6811 -0.0558 -2.5312
    6CHTO   O62 2197   5.745   5.484   2.231 -0.4834 -0.1342  0.2828
    6CHTO   C91 2198   5.678   5.361   2.184 -0.4614  0.1718 -0.1567
    6CHTO  H178 2199   5.704   5.346   2.079 -1.8347  1.1025 -0.6474
    6CHTO   C92 2200   5.525   5.396   2.174  0.3354 -0.8312 -0.1122
    6CHTO  H179 2201   5.515   5.499   2.137 -2.4165 -1.1220 -0.2936
    6CHTO   O66 2202   5.484   5.316   2.061  0.0520  0.5495 -0.3735
    6CHTO  H166 2203   5.461   5.364   1.984 -1.5128  0.2789 -0.0907
    6CHTO   C93 2204   5.441   5.361   2.295 -0.9115 -0.1842 -1.7317
    6CHTO  H180 2205   5.336   5.379   2.265 -1.1581  0.2657 -0.6234
    6CHTO   N16 2206   5.454   5.461   2.403  0.0563  0.4640  0.5098
    6CHTO  H172 2207   5.386   5.439   2.484 -1.4703  1.1287 -0.5641
    6CHTO  H173 2208   5.555   5.461   2.442  0.3841 -1.0424 -0.2639
    6CHTO   C94 2209   5.454   5.206   2.344  0.8883  0.1262 -0.5481
    6CHTO  H181 2210   5.474   5.192   2.450  0.2110 -1.0952 -0.5775
    6CHTO   O61 2211   5.574   5.145   2.274 -0.4651 -0.3373 -0.1213
    6CHTO   C95 2212   5.696   5.223   2.273  0.2866  0.0239  0.5575
    6CHTO  H182 2213   5.719   5.251   2.376 -0.8795  2.4782  0.1955
    6CHTO  C106 2214   5.807   5.130   2.216 -0.0262 -1.1019 -0.2865
    6CHTO   O69 2215   5.935   5.193   2.231  0.0517  0.5016  0.8372
    6CHTO  H169 2216   5.934   5.215   2.322 -2.5499  0.3249  0.8777
    6CHTO   O63 2217   5.335   5.133   2.290 -0.8985 -0.2272 -0.1791
    6CHTO   C96 2218   5.348   4.961   2.285 -0.0640  0.0111  0.5996
    6CHTO  H183 2219   5.442   4.932   2.331  0.1066  0.7970  0.7554
    6CHTO   C98 2220   5.355   4.909   2.139 -0.2529  0.0133 -0.0121
    6CHTO  H185 2221   5.260   4.932   2.087  0.1017  2.6963  0.4341
    6CHTO   O67 2222   5.456   4.983   2.072 -0.2342 -0.0407 -0.1954
    6CHTO  H167 2223   5.505   4.929   2.013 -0.2123 -1.2755  0.9404
    6CHTO  C102 2224   5.386   4.750   2.142  0.2171 -0.4073  0.1054
    6CHTO  H189 2225   5.494   4.746   2.160  0.1144  0.1207  0.8823
    6CHTO   N18 2226   5.365   4.688   2.003 -0.0540 -0.0121 -0.1470
    6CHTO  H176 2227   5.271   4.719   1.959  0.2850  1.6519  0.2930
    6CHTO  H177 2228   5.450   4.691   1.937  1.5072 -0.3716  1.8079
    6CHTO  C105 2229   5.307   4.681   2.264  0.0066 -0.7960  0.2025
    6CHTO  H192 2230   5.250   4.593   2.234 -2.6723  0.8942  0.1767
    6CHTO   O65 2231   5.205   4.758   2.327  0.0242 -0.5987 -0.1622
    6CHTO  C100 2232   5.224   4.899   2.356  0.4306  0.3584  0.0205
    6CHTO  H187 2233   5.138   4.961   2.329 -0.6240 -0.0526  2.3632
    6CHTO  C107 2234   5.240   4.906   2.509  0.4182 -0.2471  0.4268
    6CHTO   O70 2235   5.120   4.891   2.585  0.1627 -0.0612  0.4019
    6CHTO  H170 2236   5.100   4.801   2.599  0.8908 -0.1742  0.7495
    6CHTO   O57 2237   5.416   4.645   2.346  0.1825  0.2530 -0.1098
    6CHTO   C85 2238   5.425   4.516   2.412 -0.5659 -0.1648  0.6890
    6CHTO  H157 2239   5.410   4.442   2.331 -0.4818  0.6921 -0.1268
    6CHTO   C83 2240   5.297   4.504   2.509  0.2692  0.6116  0.3859
    6CHTO  H155 2241   5.210   4.487   2.446  0.4847  1.3284 -0.0987
    6CHTO   O56 2242   5.286   4.619   2.595 -0.2286 -0.8997  0.0909
    6CHTO  H135 2243   5.195   4.633   2.614 -0.2952  1.0122 -1.5164
    6CHTO   C81 2244   5.318   4.375   2.598 -0.1112 -0.6602 -0.2899
    6CHTO  H153 2245   5.322   4.286   2.536  0.1482 -0.0502 -1.1578
    6CHTO   N14 2246   5.198   4.348   2.685  0.0119  0.4542 -0.1010
    6CHTO  H141 2247   5.124   4.287   2.637  0.5894 -0.1754 -0.2001
    6CHTO  H142 2248   5.227   4.298   2.774 -0.0020  0.5718 -0.0300
    6CHTO   C79 2249   5.459   4.392   2.680 -0.2696 -0.4996  0.0341
    6CHTO  H151 2250   5.478   4.298   2.731  0.2591 -1.4058 -1.7554
    6CHTO   O52 2251   5.566   4.403   2.587  0.2948  0.3797 -0.4315
    6CHTO   C86 2252   5.560   4.498   2.484 -0.1428 -0.1694  0.0647
    6CHTO  H158 2253   5.580   4.593   2.537 -2.0549 -0.4423  1.2884
    6CHTO   C90 2254   5.681   4.485   2.389  0.0221 -0.0060 -0.1566
    6CHTO   O60 2255   5.807   4.485   2.444  0.3386  0.0608  0.4981
    6CHTO  H138 2256   5.810   4.557   2.505 -0.7397  0.9138 -0.4353
    6CHTO   O50 2257   5.460   4.496   2.782  0.1021 -0.3199  0.1050
    6CHTO   C73 2258   5.533   4.555   2.896 -0.4451  1.0432  0.4262
    6CHTO  H145 2259   5.539   4.489   2.984  3.1813  2.0462  1.0111
    6CHTO   C74 2260   5.451   4.677   2.936 -0.1810 -0.3415 -0.1996
    6CHTO  H146 2261   5.348   4.641   2.933 -0.3444 -0.3798  3.5444
    6CHTO   O54 2262   5.484   4.700   3.076 -0.3291  0.5432 -0.4011
    6CHTO  H133 2263   5.475   4.619   3.123  0.6143  0.4263 -0.4147
    6CHTO   C75 2264   5.471   4.807   2.846  0.0585 -0.5646  0.1610
    6CHTO  H147 2265   5.403   4.801   2.760 -2.0394  0.5583  1.6886
    6CHTO   N13 2266   5.426   4.933   2.898  0.0242  0.3673  0.0834
    6CHTO  H139 2267   5.461   4.956   2.997 -0.9522 -2.1208  1.0473
    6CHTO  H140 2268   5.443   5.009   2.824  0.1848 -0.0477 -0.3114
    6CHTO   C76 2269   5.629   4.827   2.794  0.1279 -0.2589  0.8605
    6CHTO  H148 2270   5.689   4.865   2.876  2.1460 -1.3703 -0.0654
    6CHTO   O49 2271   5.676   4.696   2.749 -1.3861  0.5234  0.1389
    6CHTO   C77 2272   5.683   4.601   2.857 -0.8890  0.7334  0.6789
    6CHTO  H149 2273   5.730   4.640   2.947 -0.4881  0.0547  0.7723
    6CHTO   C88 2274   5.760   4.479   2.817 -0.4812 -0.2172 -0.1866
    6CHTO   O58 2275   5.898   4.517   2.796  0.1340  0.1928  0.6923
    6CHTO  H136 2276   5.929   4.533   2.883  0.8061 -1.5782  0.7954
    6CHTO   O51 2277   5.639   4.917   2.686 -0.5678 -0.1669 -0.1770
    6CHTO   C78 2278   5.773   5.035   2.700 -0.6663 -1.0143  0.2220
    6CHTO  H150 2279   5.815   5.024   2.802 -1.6622 -1.1631  0.6236
    6CHTO   C80 2280   5.720   5.181   2.687 -0.2191 -0.1661  0.7891
    6CHTO  H152 2281   5.669   5.195   2.590  0.2262  0.0125  0.5781
    6CHTO   O55 2282   5.626   5.205   2.792 -0.1938 -0.0982  0.7441
    6CHTO  H134 2283   5.585   5.288   2.779  2.0379  1.2370  1.8661
    6CHTO   C84 2284   5.835   5.297   2.681 -1.1179  0.0843  0.2427
    6CHTO  H156 2285   5.878   5.293   2.781  0.4471  0.9614 -0.3679
    6CHTO   N15 2286   5.787   5.431   2.651 -0.2249  0.0336 -0.2499
    6CHTO  H143 2287   5.754   5.490   2.734 -1.3152 -0.3676 -0.4030
    6CHTO  H144 2288   5.710   5.426   2.577  0.2933 -0.9435 -0.7363
    6CHTO   C87 2289   5.954   5.258   2.588  0.4687  0.1250 -0.1631
    6CHTO  H159 2290   5.939   5.286   2.483  0.2187 -0.8575 -0.3952
    6CHTO   O53 2291   5.985   5.090   2.605 -0.2460  0.6701  0.0698
    6CHTO   C82 2292   5.878   5.007   2.590 -0.8335 -0.0005  0.1905
    6CHTO  H154 2293   5.844   5.019   2.487  0.0811 -1.8955 -0.3599
    6CHTO   C89 2294   5.920   4.858   2.600 -0.1106  0.5463 -0.0201
    6CHTO   O59 2295   5.984   4.817   2.476  0.1929 -0.0233 -0.1208
    6CHTO  H137 2296   5.910   4.799   2.422 -1.1132 -0.0940  1.6285
    6CHTO   O45 2297   6.096   5.335   2.651 -0.1511  0.2973 -0.8408
    6CHTO   C67 2298   6.197   5.353   2.551  0.3802  0.5557 -0.1016
    6CHTO  H124 2299   6.193   5.272   2.478 -1.4145  0.0459  0.5417
    6CHTO   C65 2300   6.178   5.491   2.477  0.0471 -0.2284 -0.7914
    6CHTO  H122 2301   6.081   5.528   2.509  1.0682  0.4299  1.6312
    6CHTO   O44 2302   6.168   5.465   2.338 -0.2755  0.0024  0.8463
    6CHTO  H102 2303   6.078   5.467   2.313  0.0867 -2.6413 -0.8805
    6CHTO   C63 2304   6.296   5.589   2.516  0.4743  0.3549 -0.4067
    6CHTO  H120 2305   6.300   5.593   2.625 -0.2708 -1.2190 -0.3108
    6CHTO   N11 2306   6.297   5.728   2.468 -0.4835 -0.1397 -0.2670
    6CHTO  H108 2307   6.208   5.782   2.495 -1.2838 -1.6902  0.2210
    6CHTO  H109 2308   6.378   5.781   2.514  0.3084 -0.9469 -0.7298
    6CHTO   C61 2309   6.435   5.525   2.485 -0.2918  0.1507  0.1571
    6CHTO  H118 2310   6.507   5.582   2.546 -0.2422  0.9960 -0.6892
    6CHTO   O40 2311   6.444   5.393   2.531 -0.2575 -0.2728  0.3017
    6CHTO   C68 2312   6.342   5.335   2.615  0.3235  0.4754 -0.2086
    6CHTO  H125 2313   6.337   5.383   2.715 -1.7174 -1.6554  0.7708
    6CHTO   C72 2314   6.392   5.186   2.639  0.3879  0.2867  0.5385
    6CHTO   O48 2315   6.502   5.177   2.726 -0.4107  0.4472  0.0613
    6CHTO  H105 2316   6.498   5.095   2.771  0.2490  1.1086  1.3811
    6CHTO   O38 2317   6.470   5.524   2.345  0.3314  0.3295  0.3128
    6CHTO   C55 2318   6.602   5.483   2.291  0.0975  0.8788  0.5712
    6CHTO  H112 2319   6.662   5.416   2.354  0.9399  0.2384 -0.8919
    6CHTO   C56 2320   6.683   5.615   2.254  0.6185  0.1098  0.0086
    6CHTO  H113 2321   6.606   5.689   2.225  1.6582  0.8447 -0.9302
    6CHTO   O42 2322   6.739   5.672   2.376  0.0578 -0.3485 -0.1529
    6CHTO  H100 2323   6.819   5.629   2.403  1.1104 -0.2642 -2.9493
    6CHTO   C57 2324   6.791   5.591   2.145 -0.3600 -0.5022  0.2093
    6CHTO  H114 2325   6.872   5.540   2.197 -0.9999 -0.5196  1.2054
    6CHTO   N10 2326   6.829   5.720   2.089  0.5325  0.2548  0.2484
    6CHTO  H106 2327   6.822   5.810   2.149  1.3076  1.0702 -0.8746
    6CHTO  H107 2328   6.925   5.711   2.040 -0.2975 -1.3085 -1.1454
    6CHTO   C58 2329   6.748   5.497   2.033  0.7910 -0.4590  0.5304
    6CHTO  H115 2330   6.667   5.540   1.970 -1.0910 -3.4614  0.8215
    6CHTO   O37 2331   6.697   5.376   2.094 -0.1251  0.3436 -0.0822
    6CHTO   C59 2332   6.574   5.404   2.165 -0.2328 -0.7766 -0.4544
    6CHTO  H116 2333   6.501   5.457   2.103  0.8652  1.0252 -0.2315
    6CHTO   C70 2334   6.517   5.262   2.184  0.2540  0.4172 -0.7193
    6CHTO   O46 2335   6.381   5.273   2.229  0.0320  0.0729  0.4499
    6CHTO  H103 2336   6.323   5.219   2.178  1.9698 -1.1965 -0.4738
    6CHTO   O39 2337   6.873   5.452   1.935  0.2409  0.0723 -0.4723
    6CHTO   C60 2338   6.920   5.320   1.948 -0.3271  0.3677 -0.1774
    6CHTO  H117 2339   6.894   5.267   2.040  1.1300  0.2080  0.1604
    6CHTO   C62 2340   6.858   5.230   1.833  0.8188 -0.1172  0.5579
    6CHTO  H119 2341   6.749   5.233   1.855  0.8641  0.5894  0.6924
    6CHTO   O43 2342   6.889   5.285   1.705  0.2857  0.0657  0.3032
    6CHTO  H101 2343   6.960   5.346   1.699  0.0505  0.0614 -3.0001
    6CHTO   C66 2344   6.926   5.082   1.842  0.0853 -0.5101 -0.8163
    6CHTO  H123 2345   6.914   5.052   1.946 -0.7532  1.9573 -0.1635
    6CHTO   N12 2346   6.860   4.983   1.746  0.3749  0.0250 -0.0897
    6CHTO  H110 2347   6.908   4.987   1.649 -0.5467 -3.5450 -0.7754
    6CHTO  H111 2348   6.871   4.883   1.785 -1.1363 -0.6111 -1.2329
    6CHTO   C69 2349   7.083   5.094   1.826 -0.8498  0.5115  0.6817
    6CHTO  H126 2350   7.105   5.134   1.725 -2.7071  0.8768  0.3888
    6CHTO   O41 2351   7.132   5.186   1.936  0.0185  0.4539 -0.9033
    6CHTO   C64 2352   7.074   5.326   1.941 -0.3021  0.6193 -0.1867
    6CHTO  H121 2353   7.102   5.372   1.843  1.8018 -0.0725  0.0650
    6CHTO   C71 2354   7.123   5.401   2.065  0.0721 -0.6929  0.3101
    6CHTO   O47 2355   7.129   5.543   2.050  0.2143 -0.2240 -0.1395
    6CHTO  H104 2356   7.128   5.572   1.961  0.7822  0.4059  0.0535
    6CHTO   O34 2357   7.145   4.945   1.850  0.1294  0.3109  0.2347
    6CHTO   C49 2358   7.278   4.880   1.784 -0.8135 -0.0139  0.0490
    6CHTO   H91 2359   7.245   4.825   1.696 -1.3207  1.0553 -0.4408
    6CHTO   C47 2360   7.342   4.779   1.882  0.1760 -0.3417 -0.6272
    6CHTO   H89 2361   7.413   4.723   1.818  1.4811  1.4132 -0.7603
    6CHTO   O33 2362   7.238   4.689   1.922 -0.0005 -0.1545  0.1349
    6CHTO   H70 2363   7.263   4.599   1.932  0.5156 -0.1775 -1.2589
    6CHTO   C45 2364   7.403   4.850   2.011 -0.2924 -0.3984  0.3766
    6CHTO   H87 2365   7.324   4.847   2.089 -0.1513  0.2755  0.5487
    6CHTO    N8 2366   7.518   4.765   2.051 -0.0479 -0.7849 -0.2942
    6CHTO   H75 2367   7.588   4.750   1.970 -0.4674  0.1648 -0.8368
    6CHTO   H76 2368   7.477   4.670   2.081 -1.0184 -1.2337 -2.8676
    6CHTO   C43 2369   7.428   5.006   1.982 -0.5133 -0.6304 -0.6530
    6CHTO   H85 2370   7.330   5.051   1.998  0.4176  0.0294  3.8982
    6CHTO   O29 2371   7.477   5.025   1.845  0.5241 -0.1551  0.2295
    6CHTO   C50 2372   7.384   4.994   1.742  0.5448 -0.1371  0.5705
    6CHTO   H92 2373   7.336   5.084   1.700  3.8247  0.8517 -1.2930
    6CHTO   C54 2374   7.472   4.950   1.619 -0.3347 -0.3756  0.5488
    6CHTO   O36 2375   7.389   4.919   1.511  0.1027  0.1565 -0.3735
    6CHTO   H72 2376   7.302   4.953   1.513  0.1901  0.3611 -0.0332
    6CHTO   O27 2377   7.522   5.067   2.070  0.6156 -0.3152  0.2179
    6CHTO   C37 2378   7.590   5.183   2.116  0.5438 -0.6481  0.1354
    6CHTO   H79 2379   7.680   5.195   2.053 -1.1909 -2.5177 -2.8032
    6CHTO   C38 2380   7.506   5.311   2.112  0.0700  0.0205  0.1893
    6CHTO   H80 2381   7.423   5.295   2.182  2.4382 -1.3042  2.8572
    6CHTO   O31 2382   7.448   5.332   1.981 -0.0621 -0.3157  0.8419
    6CHTO   H68 2383   7.498   5.396   1.934 -1.8778 -0.2029 -0.9473
    6CHTO   C39 2384   7.594   5.433   2.161 -0.1624  0.1376 -0.1758
    6CHTO   H81 2385   7.687   5.442   2.104 -0.0628  0.3799  0.0219
    6CHTO    N7 2386   7.523   5.568   2.160  0.2345 -0.3697  0.2779
    6CHTO   H73 2387   7.584   5.646   2.202 -0.4855  2.3085 -3.3737
    6CHTO   H74 2388   7.426   5.555   2.205  1.1013 -2.2452  1.6377
    6CHTO   C40 2389   7.631   5.398   2.307 -0.0525 -0.0310 -0.3028
    6CHTO   H82 2390   7.538   5.392   2.362  1.0852  1.9008  1.9290
    6CHTO   O26 2391   7.697   5.270   2.309  0.1022  0.0536  0.0354
    6CHTO   C41 2392   7.630   5.157   2.258  0.6312 -0.3465 -0.0083
    6CHTO   H83 2393   7.544   5.144   2.324  1.8543  1.4825  2.0185
    6CHTO   C52 2394   7.730   5.044   2.271  0.0431  0.0951  0.1940
    6CHTO   O35 2395   7.779   5.028   2.416 -0.4511 -0.0288 -0.2817
    6CHTO   H71 2396   7.859   4.979   2.416 -1.4718 -1.7430  0.1134
    6CHTO   O28 2397   7.728   5.498   2.357 -0.8792  0.5876 -0.5340
    6CHTO   C42 2398   7.763   5.537   2.496 -0.0796  0.2854 -0.0486
    6CHTO   H84 2399   7.872   5.533   2.498  0.0136 -1.0526 -3.3405
    6CHTO   C44 2400   7.707   5.437   2.608  0.2598  0.1682 -0.7735
    6CHTO   H86 2401   7.603   5.410   2.590 -0.0833  0.0669  1.2110
    6CHTO   O32 2402   7.776   5.316   2.591  0.0717 -0.1767 -0.1154
    6CHTO   H69 2403   7.721   5.244   2.620  1.0055  0.2084  2.7802
    6CHTO   C48 2404   7.722   5.499   2.760  0.2547  0.0445 -0.7220
    6CHTO   H90 2405   7.828   5.486   2.782 -0.4523 -1.7019  1.8060
    6CHTO    N9 2406   7.643   5.417   2.852  0.2851  0.7095 -0.4253
    6CHTO   H77 2407   7.683   5.330   2.902 -1.7142 -0.6608 -1.1632
    6CHTO   H78 2408   7.578   5.480   2.912 -0.8637  1.2995 -2.2465
    6CHTO   C51 2409   7.682   5.654   2.765  0.0417 -0.6427 -0.5902
    6CHTO   H93 2410   7.574   5.664   2.749  0.2590  2.2700 -0.5202
    6CHTO   O30 2411   7.760   5.722   2.668 -0.4555 -0.6657  0.3191
    6CHTO   C46 2412   7.722   5.682   2.525  0.2471 -0.5148 -0.4025
    6CHTO   H88 2413   7.615   5.703   2.516  0.2529  1.2017  2.5509
    6CHTO   C53 2414   7.784   5.783   2.426 -0.3442 -0.5053 -0.5801
    6CHTO   O72 2415   7.744   5.917   2.460  0.1680  0.9022 -0.3056
    6CHTO  H199 2416   7.768   5.983   2.397  1.1387  1.5065  0.6648
    6CHTO   O22 2417   7.709   5.714   2.893 -0.2137  0.2907 -0.2836
    6CHTO   C31 2418   7.622   5.831   2.948 -0.3122 -0.2153 -0.4801
    6CHTO   H59 2419   7.659   5.855   3.050 -2.3484 -0.1122  0.2639
    6CHTO   C29 2420   7.630   5.965   2.867 -0.2756 -0.3063 -0.1766
    6CHTO   H57 2421   7.600   5.920   2.772 -0.7740 -1.1936  0.3898
    6CHTO   O21 2422   7.766   6.005   2.859 -0.3376  0.3775  0.2196
    6CHTO   H37 2423   7.792   6.069   2.922  1.7302 -1.7989  1.6508
    6CHTO   C27 2424   7.525   6.076   2.925 -1.2211 -0.1905  0.2966
    6CHTO   H55 2425   7.558   6.102   3.027  2.7094 -0.8572 -0.7342
    6CHTO    N5 2426   7.524   6.198   2.840 -0.5998  0.6906 -0.4031
    6CHTO   H43 2427   7.554   6.285   2.895  1.2896 -1.0030  1.3122
    6CHTO   H44 2428   7.430   6.209   2.788 -1.3826 -2.5475  0.2310
    6CHTO   C25 2429   7.388   6.022   2.954  0.1832 -0.1480  0.0633
    6CHTO   H53 2430   7.328   5.996   2.866  0.2542  1.2889 -0.4258
    6CHTO   O17 2431   7.398   5.902   3.031  0.2248 -0.0110  0.3054
    6CHTO   C32 2432   7.473   5.794   2.975  0.2215  0.5003  0.4784
    6CHTO   H60 2433   7.427   5.748   2.887 -1.4621 -1.1302  2.1513
    6CHTO   C36 2434   7.450   5.677   3.075  0.2491  0.0131  0.4316
    6CHTO   O25 2435   7.320   5.624   3.066  1.0832 -0.0725 -0.2081
    6CHTO   H40 2436   7.321   5.530   3.072  0.1696  0.0147  1.4826
    6CHTO   O15 2437   7.309   6.114   3.035  0.3588  0.6250 -0.2821
    6CHTO   C19 2438   7.179   6.154   3.089  0.2856  0.2123  0.2538
    6CHTO   H47 2439   7.134   6.205   3.002  0.4278 -4.3370 -2.6387
    6CHTO   C20 2440   7.087   6.033   3.121 -1.2616 -0.3074 -0.3552
    6CHTO   H48 2441   7.127   5.975   3.206 -0.0125  1.4397  0.2830
    6CHTO   O19 2442   7.081   5.956   3.004 -0.4813 -0.3768 -0.0688
    6CHTO   H35 2443   7.074   5.864   3.022 -0.6744 -0.1738  0.8951
    6CHTO   C21 2444   6.939   6.071   3.165 -0.2464  0.0120 -0.0037
    6CHTO   H49 2445   6.888   6.113   3.078  0.7752 -0.8227 -1.0232
    6CHTO    N4 2446   6.852   5.958   3.209 -1.1853  0.4951 -0.1775
    6CHTO   H41 2447   6.905   5.922   3.297  1.3423  0.6917 -1.5712
    6CHTO   H42 2448   6.754   5.997   3.235 -1.4985 -0.5940  0.3027
    6CHTO   C22 2449   6.947   6.182   3.271 -0.4769  0.3985  0.0533
    6CHTO   H50 2450   6.971   6.135   3.367 -2.3495 -1.8227 -0.5250
    6CHTO   O14 2451   7.043   6.284   3.233  0.1179  0.2945 -0.1017
    6CHTO   C23 2452   7.176   6.247   3.210 -0.3683  0.5383  0.2540
    6CHTO   H51 2453   7.206   6.197   3.303 -0.6280  1.1791  0.6819
    6CHTO   C34 2454   7.257   6.373   3.190  0.1901  0.4091 -0.1967
    6CHTO   O23 2455   7.277   6.444   3.313  1.2097 -0.2201 -0.0733
    6CHTO   H38 2456   7.251   6.534   3.305 -0.6508 -0.6932  0.4455
    6CHTO   O16 2457   6.825   6.254   3.284 -0.7326 -0.2786  0.6487
    6CHTO   C24 2458   6.818   6.366   3.401  1.0536 -0.1802 -0.5057
    6CHTO   H52 2459   6.875   6.456   3.380 -0.2742  1.1037  1.2110
    6CHTO   C26 2460   6.871   6.314   3.542 -0.1732  0.2583 -0.5851
    6CHTO   H54 2461   6.832   6.211   3.555 -0.5686  0.5457  0.5312
    6CHTO   O20 2462   7.010   6.305   3.531  0.0800 -0.1861 -0.6135
    6CHTO   H36 2463   7.036   6.224   3.492  0.8315  1.0982 -2.8548
    6CHTO   C30 2464   6.830   6.401   3.664 -1.0788  0.2397 -0.0540
    6CHTO   H58 2465   6.884   6.496   3.653  0.0019 -0.4025 -0.3705
    6CHTO    N6 2466   6.864   6.349   3.800 -0.0843  0.8732 -0.7567
    6CHTO   H45 2467   6.971   6.344   3.810 -0.1529  0.6773 -0.1105
    6CHTO   H46 2468   6.827   6.413   3.879  0.0370 -1.7848  1.5274
    6CHTO   C33 2469   6.681   6.443   3.655  0.0787 -0.0437 -0.5847
    6CHTO   H61 2470   6.620   6.352   3.671  0.2936 -0.4154 -1.8287
    6CHTO   O18 2471   6.652   6.498   3.527  0.0987 -0.2222  0.3511
    6CHTO   C28 2472   6.672   6.406   3.418  0.0488  0.2420 -0.6751
    6CHTO   H56 2473   6.609   6.318   3.428  0.3396 -0.1833 -2.4364
    6CHTO   C35 2474   6.624   6.473   3.288 -0.2762  0.2475 -0.5139
    6CHTO   O24 2475   6.502   6.552   3.298 -0.4180  0.1217 -0.5253
    6CHTO   H39 2476   6.448   6.514   3.365  1.3046  1.8150  1.9135
    6CHTO    O9 2477   6.638   6.525   3.763  0.2331  0.4589 -0.5583
    6CHTO   C13 2478   6.475   6.505   3.780  0.0432 -0.7637  0.0596
    6CHTO   H26 2479   6.454   6.398   3.801  0.9600 -0.5705  2.0911
    6CHTO   C11 2480   6.388   6.565   3.659  0.0819  0.0280  0.1442
    6CHTO   H24 2481   6.411   6.516   3.563  2.0438  0.2062  0.4949
    6CHTO    O8 2482   6.424   6.705   3.642 -0.2378 -0.3838 -0.8111
    6CHTO    H3 2483   6.357   6.751   3.596 -0.2165 -0.0630 -0.5203
    6CHTO    C9 2484   6.245   6.534   3.694  0.6091 -0.0788 -0.4082
    6CHTO   H22 2485   6.231   6.425   3.686 -1.6002  0.3244 -2.3307
    6CHTO    N2 2486   6.154   6.586   3.588 -0.4181  0.5768  0.6955
    6CHTO   H10 2487   6.144   6.693   3.581  1.7066  0.7849  0.4314
    6CHTO   H11 2488   6.057   6.540   3.579  0.6453 -1.2716 -1.8948
    6CHTO    C7 2489   6.208   6.585   3.838 -0.7918  0.3504  0.0150
    6CHTO   H20 2490   6.191   6.490   3.892  0.7533  1.4689  2.5666
    6CHTO    O4 2491   6.316   6.662   3.898  0.0268 -0.2646  0.5660
    6CHTO   C14 2492   6.426   6.573   3.920  0.0049 -0.4988  0.1949
    6CHTO   H27 2493   6.392   6.497   3.993 -1.6928 -0.5297 -0.6158
    6CHTO   C18 2494   6.539   6.662   3.989  0.7766 -0.1537  0.1260
    6CHTO   O13 2495   6.636   6.576   4.035 -0.1231 -0.3370 -0.4061
    6CHTO    H7 2496   6.688   6.607   4.107 -1.0395  2.3416 -0.8725
    6CHTO    O2 2497   6.071   6.670   3.841  0.4528 -0.1857  0.5803
    6CHTO    C1 2498   5.992   6.681   3.958 -1.3159 -0.0987  0.2417
    6CHTO   H14 2499   5.905   6.748   3.941 -0.8396  0.4601 -0.0243
    6CHTO    C2 2500   6.078   6.727   4.087  0.3282 -0.2893  0.1761
    6CHTO   H15 2501   6.171   6.669   4.093  1.5188  1.6242  0.1894
    6CHTO    O6 2502   6.120   6.863   4.060 -0.3244 -0.0305 -0.3371
    6CHTO    H1 2503   6.048   6.918   4.034  0.2462  0.7010 -0.4021
    6CHTO    C3 2504   5.993   6.720   4.221  0.1593  0.2613 -0.1734
    6CHTO   H16 2505   5.921   6.801   4.199  0.8730  1.1747  0.8039
    6CHTO    N1 2506   6.079   6.746   4.338 -0.3221 -0.4261 -0.0335
    6CHTO    H8 2507   6.038   6.826   4.397  0.6779 -0.5876  0.8822
    6CHTO    H9 2508   6.094   6.654   4.393  4.2646  0.0525 -0.3492
    6CHTO    C4 2509   5.917   6.581   4.229  0.3033 -0.3051  0.8947
    6CHTO   H17 2510   5.990   6.505   4.254  0.7443  0.0578  0.7138
    6CHTO    O1 2511   5.843   6.553   4.105 -0.3676  0.3043  0.0619
    6CHTO    C5 2512   5.929   6.545   3.991 -0.6588  0.0531 -0.4987
    6CHTO   H18 2513   6.012   6.479   4.016 -1.4297 -1.0839 -0.9187
    6CHTO   C16 2514   5.858   6.489   3.868 -1.3249  0.5998  0.1632
    6CHTO   O11 2515   5.828   6.349   3.871  0.0747 -1.0809  0.2723
    6CHTO    H5 2516   5.782   6.343   3.790 -0.1317 -0.7102  0.3576
    6CHTO    O3 2517   5.817   6.586   4.336 -1.1061 -0.2146 -0.0667
    6CHTO    C6 2518   5.766   6.458   4.384  0.5454  0.4548 -0.1823
    6CHTO   H19 2519   5.787   6.370   4.323 -0.7397 -1.2546  1.7742
    6CHTO    C8 2520   5.810   6.409   4.528 -0.0355 -0.1464 -0.3182
    6CHTO   H21 2521   5.781   6.479   4.606 -0.8688  0.2765 -1.0032
    6CHTO    O7 2522   5.951   6.400   4.525  0.2230  0.0354 -0.1265
    6CHTO    H2 2523   5.985   6.487   4.530  0.0285  0.0389  1.4823
    6CHTO   C12 2524   5.745   6.269   4.562  0.5593 -0.1674 -0.2954
    6CHTO   H25 2525   5.784   6.199   4.485  1.5789  0.6643 -0.5475
    6CHTO    N3 2526   5.784   6.224   4.700  0.0388 -0.2056  0.5154
    6CHTO   H12 2527   5.720   6.143   4.732 -0.9231  0.7225  1.0003
    6CHTO   H13 2528   5.889   6.199   4.706  0.1790  0.5568  1.5433
    6CHTO   C15 2529   5.587   6.272   4.543 -0.1016 -0.3170 -0.3730
    6CHTO   H28 2530   5.543   6.336   4.620  1.8789  2.5850 -1.5202
    6CHTO   O10 2531   5.511   6.131   4.536  0.4807 -0.7141 -1.1420
    6CHTO    H4 2532   5.470   6.104   4.616  0.7699 -0.0067 -0.7475
    6CHTO    O5 2533   5.565   6.329   4.413  0.2784  0.4885 -0.2132
    6CHTO   C10 2534   5.611   6.466   4.386 -0.0319  0.1968  0.3195
    6CHTO   H23 2535   5.576   6.539   4.459 -0.7333 -1.2335  1.4473
    6CHTO   C17 2536   5.543   6.510   4.255 -0.6527 -0.0492  0.1325
    6CHTO   O12 2537   5.402   6.517   4.245 -0.1882 -0.1677 -0.2979
    6CHTO    H6 2538   5.372   6.544   4.330 -0.1680 -1.8928  0.2768
    7CHTO  H203 2539   5.447   3.435   4.367  2.4231 -1.2157 -0.2639
    7CHTO   O82 2540   5.498   3.497   4.415  0.3052  0.1943  0.2417
    7CHTO  C123 2541   5.639   3.496   4.395  0.6816  0.2237  0.7055
    7CHTO  H227 2542   5.656   3.487   4.286 -1.8205 -3.0174  0.4688
    7CHTO   O77 2543   5.689   3.620   4.445  0.5222 -0.4357 -0.5273
    7CHTO  C118 2544   5.831   3.636   4.409  0.6211  0.5127  0.0183
    7CHTO  H222 2545   5.848   3.612   4.303  0.0677  1.1893 -0.2273
    7CHTO  C125 2546   5.870   3.789   4.431 -0.5531 -0.0170  0.6296
    7CHTO   O84 2547   5.997   3.813   4.373  0.1628  0.3488  0.2290
    7CHTO  H205 2548   6.011   3.884   4.313  3.9499  0.4295  1.0882
    7CHTO  C114 2549   5.911   3.545   4.504 -0.1838 -0.6678 -0.5345
    7CHTO  H218 2550   5.902   3.582   4.606  1.7190 -2.1295  0.2085
    7CHTO  C116 2551   5.860   3.400   4.501  0.5984  0.0158 -0.0422
    7CHTO  H220 2552   5.913   3.349   4.418  0.3002  0.3186 -0.4283
    7CHTO   O79 2553   5.892   3.335   4.623 -0.3045 -0.1060  0.1144
    7CHTO  H201 2554   5.853   3.254   4.650 -0.3222 -0.4229 -0.8660
    7CHTO  C120 2555   5.702   3.379   4.482  0.4024 -0.3195 -0.2874
    7CHTO  H224 2556   5.650   3.378   4.580  0.3873 -0.1709 -0.2941
    7CHTO   N21 2557   5.671   3.244   4.429  0.3125 -0.3013  0.1456
    7CHTO  H211 2558   5.668   3.232   4.322  0.4952  0.2657  0.0790
    7CHTO  H212 2559   5.733   3.170   4.478  1.5081 -0.4974 -1.6288
    7CHTO   O75 2560   6.047   3.553   4.465  0.5570 -0.7501 -0.0528
    7CHTO  C112 2561   6.151   3.514   4.582  0.6133 -0.3843  0.2927
    7CHTO  H216 2562   6.164   3.405   4.582 -2.9624 -0.8811  0.8119
    7CHTO   O73 2563   6.100   3.560   4.710  0.0146  0.0428 -0.1031
    7CHTO  C113 2564   6.187   3.517   4.820  0.4301 -0.2015  0.2494
    7CHTO  H217 2565   6.186   3.408   4.838  0.3292  0.0163  1.6642
    7CHTO  C124 2566   6.124   3.575   4.945 -0.2294  0.0195 -0.3467
    7CHTO   O83 2567   6.180   3.534   5.071  0.2588  0.3860  0.2985
    7CHTO  H204 2568   6.150   3.446   5.084 -0.0826  0.6022  0.9852
    7CHTO  C109 2569   6.334   3.570   4.802 -0.1360 -0.3892  0.3258
    7CHTO  H213 2570   6.337   3.680   4.809 -0.0455 -0.4390  1.1496
    7CHTO  C110 2571   6.395   3.526   4.665 -0.9003  0.1643  0.0853
    7CHTO  H214 2572   6.402   3.417   4.661  1.0133  0.1938  2.0351
    7CHTO   O78 2573   6.524   3.588   4.647 -0.1753  0.0770 -0.3179
    7CHTO  H200 2574   6.596   3.531   4.664  1.0767  2.1893  1.5379
    7CHTO  C111 2575   6.296   3.575   4.553 -0.5564  0.5625  0.7566
    7CHTO  H215 2576   6.297   3.685   4.558  0.7936  0.5204  1.6346
    7CHTO   N19 2577   6.339   3.541   4.414 -0.3563 -0.0135 -0.5196
    7CHTO  H207 2578   6.347   3.626   4.348  1.9126 -1.1324 -1.7450
    7CHTO  H208 2579   6.421   3.473   4.400 -0.4017 -0.0192 -0.7665
    7CHTO   O74 2580   6.421   3.517   4.908  0.1255  0.0240  0.0305
    7CHTO  C115 2581   6.556   3.607   4.929  1.3059 -1.2377  0.3609
    7CHTO  H219 2582   6.568   3.677   4.846 -0.0099 -2.5442 -0.9617
    7CHTO   O76 2583   6.544   3.689   5.063 -0.8886  0.1554  0.1126
    7CHTO  C122 2584   6.545   3.605   5.180  0.5651 -0.1577 -0.8320
    7CHTO  H226 2585   6.459   3.541   5.160  0.1873  0.4361 -1.1230
    7CHTO  C126 2586   6.510   3.696   5.309  0.3311  0.3056 -0.1787
    7CHTO   O85 2587   6.367   3.717   5.310  0.2505 -0.3161 -0.3100
    7CHTO  H206 2588   6.352   3.755   5.225 -1.8130 -0.3690  0.0084
    7CHTO  C121 2589   6.666   3.506   5.188  0.6239  0.1408  0.2217
    7CHTO  H225 2590   6.760   3.559   5.211  1.8543 -0.9542 -2.1247
    7CHTO   O81 2591   6.634   3.421   5.295  0.3209  0.2051 -0.4757
    7CHTO  H202 2592   6.692   3.448   5.362  0.7596  2.0166 -1.5460
    7CHTO  C119 2593   6.675   3.418   5.058  0.0580 -0.1935 -0.7333
    7CHTO  H223 2594   6.769   3.364   5.065  0.4737  0.3804 -1.8040
    7CHTO  C117 2595   6.677   3.506   4.924  0.2729 -0.5024  0.6156
    7CHTO  H221 2596   6.663   3.444   4.836 -0.3803 -1.4952  1.4070
    7CHTO   N20 2597   6.807   3.584   4.903 -0.3111  0.0729  0.3317
    7CHTO  H209 2598   6.806   3.666   4.972 -0.7673 -0.0715  0.4982
    7CHTO  H210 2599   6.896   3.529   4.930  1.1051  2.4093  0.4882
    7CHTO   O80 2600   6.573   3.299   5.050  0.0794 -0.5852  0.2683
    7CHTO  C103 2601   6.622   3.154   5.034 -0.3388 -0.5373  0.0323
    7CHTO  H190 2602   6.547   3.095   4.981  0.4307 -0.3606 -1.2672
    7CHTO  C101 2603   6.760   3.124   4.961 -0.3291  0.0952 -0.8681
    7CHTO  H188 2604   6.842   3.182   5.003 -0.5419  1.0202 -1.7358
    7CHTO   O68 2605   6.746   3.158   4.824  0.0805  0.7290  0.2596
    7CHTO  H168 2606   6.776   3.244   4.804 -2.7006  1.5884 -0.4172
    7CHTO   C99 2607   6.805   2.970   4.982  0.2186  0.0326 -0.0132
    7CHTO  H186 2608   6.732   2.904   4.931  1.7454 -0.9346 -0.9484
    7CHTO   N17 2609   6.936   2.936   4.918  0.0910 -0.6430  0.6050
    7CHTO  H174 2610   6.962   3.029   4.870  1.7994 -0.6224  1.5341
    7CHTO  H175 2611   6.921   2.860   4.843  1.0170  0.6209 -0.8861
    7CHTO   C97 2612   6.800   2.927   5.136  0.4543 -0.0520  0.6208
    7CHTO  H184 2613   6.878   2.992   5.178  1.3135  0.1072 -1.1700
    7CHTO   O64 2614   6.671   2.953   5.193 -0.0157  0.1072  0.2715
    7CHTO  C104 2615   6.628   3.093   5.181 -0.2801  0.0637  0.6697
    7CHTO  H191 2616   6.695   3.157   5.238  1.1523 -0.2288 -0.6356
    7CHTO  C108 2617   6.487   3.104   5.241 -0.4085 -0.2599 -0.0872
    7CHTO   O71 2618   6.486   3.071   5.381  1.0481 -1.0032  0.1479
    7CHTO  H171 2619   6.398   3.073   5.413  0.5563 -2.9744 -0.9789
    7CHTO   O62 2620   6.814   2.783   5.155  0.1128  0.0602 -0.2802
    7CHTO   C91 2621   6.847   2.730   5.286  1.0606 -0.3678 -0.4191
    7CHTO  H178 2622   6.918   2.801   5.328 -0.5975  0.1882  1.5793
    7CHTO   C92 2623   6.928   2.600   5.269 -0.2595 -0.2333  0.2580
    7CHTO  H179 2624   7.002   2.611   5.188  0.3376 -0.7936  0.7312
    7CHTO   O66 2625   7.011   2.580   5.383  0.2853 -0.5196  0.6339
    7CHTO  H166 2626   6.959   2.563   5.459  0.0201  0.9335  0.7982
    7CHTO   C93 2627   6.841   2.471   5.255  0.1288  0.0501  0.0713
    7CHTO  H180 2628   6.906   2.390   5.292  0.7904  0.7536  0.4690
    7CHTO   N16 2629   6.812   2.427   5.122 -0.0407 -0.2077  0.5795
    7CHTO  H172 2630   6.706   2.442   5.110  0.2183  1.8370  0.6452
    7CHTO  H173 2631   6.838   2.326   5.094 -1.4510 -0.2020 -0.8232
    7CHTO   C94 2632   6.713   2.480   5.348 -0.0160 -0.0464  0.9732
    7CHTO  H181 2633   6.625   2.494   5.287  0.2705  1.1283  0.8142
    7CHTO   O61 2634   6.707   2.590   5.441 -0.1071 -0.0835 -1.0766
    7CHTO   C95 2635   6.731   2.725   5.399  0.2506  0.6118  0.9414
    7CHTO  H182 2636   6.640   2.772   5.363 -0.5163 -0.8402  0.9710
    7CHTO  C106 2637   6.772   2.799   5.524 -0.0491 -0.4310 -0.3673
    7CHTO   O69 2638   6.653   2.810   5.606  0.0452 -0.5020  0.7107
    7CHTO  H169 2639   6.641   2.902   5.620  0.0515 -0.3071 -0.5043
    7CHTO   O63 2640   6.701   2.332   5.420 -0.4202 -0.5864 -0.0654
    7CHTO   C96 2641   6.548   2.304   5.486  0.4095  0.3940 -0.3321
    7CHTO  H183 2642   6.476   2.325   5.407  1.0743  1.2091 -0.7224
    7CHTO   C98 2643   6.521   2.395   5.612  0.3511  0.9922 -0.1339
    7CHTO  H185 2644   6.513   2.500   5.581  1.2859  1.0951 -0.0434
    7CHTO   O67 2645   6.385   2.368   5.655  0.5971  0.2154 -0.1669
    7CHTO  H167 2646   6.331   2.353   5.580 -2.0994  0.3286  1.6855
    7CHTO  C102 2647   6.628   2.355   5.730  0.2865  0.3670 -0.2172
    7CHTO  H189 2648   6.575   2.364   5.826  0.9516 -0.0029  0.1888
    7CHTO   N18 2649   6.751   2.443   5.740  0.1445  1.0144 -0.5485
    7CHTO  H176 2650   6.800   2.452   5.836 -0.5236  1.1214 -0.2168
    7CHTO  H177 2651   6.722   2.540   5.703  2.5510  1.9997  0.1001
    7CHTO  C105 2652   6.657   2.200   5.728 -0.0047  0.3471 -0.4781
    7CHTO  H192 2653   6.753   2.189   5.678  0.7913  2.3687  0.5675
    7CHTO   O65 2654   6.553   2.122   5.669  0.0945 -0.2244 -0.1714
    7CHTO  C100 2655   6.542   2.147   5.531  1.3742 -0.3743  0.1824
    7CHTO  H187 2656   6.625   2.094   5.481  3.7627  3.9017 -0.6816
    7CHTO  C107 2657   6.410   2.077   5.487 -0.2162 -0.7613 -0.6272
    7CHTO   O70 2658   6.411   1.940   5.518 -0.0180  0.5679  0.2368
    7CHTO  H170 2659   6.372   1.898   5.443  0.8356  1.1302 -0.5273
    7CHTO   O57 2660   6.659   2.148   5.889 -0.2396  0.0057 -0.0500
    7CHTO   C85 2661   6.690   2.010   5.906 -0.1842 -0.0827 -0.1256
    7CHTO  H157 2662   6.732   1.985   5.806  1.5554 -0.0585  0.5925
    7CHTO   C83 2663   6.557   1.917   5.918  0.3044 -0.5446  0.2579
    7CHTO  H155 2664   6.505   1.916   5.822 -1.5060  1.1482  1.1853
    7CHTO   O56 2665   6.467   1.978   6.009 -0.5746 -0.8079 -0.0439
    7CHTO  H135 2666   6.381   1.944   5.994 -1.8597  2.8429 -1.4959
    7CHTO   C81 2667   6.602   1.774   5.952 -0.2302  0.2961  0.1276
    7CHTO  H153 2668   6.657   1.730   5.869 -0.3564  0.4924 -0.0608
    7CHTO   N14 2669   6.486   1.681   5.970  0.5726  0.2692  0.8080
    7CHTO  H141 2670   6.391   1.728   5.950  0.4327 -0.7299 -0.9703
    7CHTO  H142 2671   6.490   1.596   5.906  0.8106  0.7974  0.1037
    7CHTO   C79 2672   6.685   1.773   6.082 -0.9584  0.1977  0.7739
    7CHTO  H151 2673   6.719   1.670   6.095 -2.2888 -0.2850  0.5245
    7CHTO   O52 2674   6.814   1.843   6.064  0.3271 -0.4206  0.2509
    7CHTO   C86 2675   6.800   1.985   6.020  0.4782  0.3027 -0.6163
    7CHTO  H158 2676   6.770   2.043   6.109 -0.1116 -0.1770 -0.4968
    7CHTO   C90 2677   6.934   2.044   5.975 -0.1747  0.5938 -0.7365
    7CHTO   O60 2678   6.933   2.185   5.932 -0.3223 -0.0306 -0.4878
    7CHTO  H138 2679   6.930   2.238   6.009 -0.6681  0.7210 -1.0160
    7CHTO   O50 2680   6.615   1.821   6.194  0.0829 -0.3912  0.0915
    7CHTO   C73 2681   6.622   1.773   6.331 -0.1784  0.1124 -0.3146
    7CHTO  H145 2682   6.723   1.738   6.355  0.1651 -0.4410 -2.4919
    7CHTO   C74 2683   6.515   1.659   6.352 -0.5389  0.1876  0.2984
    7CHTO  H146 2684   6.534   1.576   6.282 -1.5160 -1.2953  1.7570
    7CHTO   O54 2685   6.537   1.601   6.478  0.3405  0.2999 -0.2455
    7CHTO  H133 2686   6.492   1.519   6.480 -2.1956  1.6017 -1.7325
    7CHTO   C75 2687   6.371   1.720   6.341 -0.3863  0.2944 -0.8572
    7CHTO  H147 2688   6.352   1.755   6.238 -1.7489  0.3647 -0.6007
    7CHTO   N13 2689   6.262   1.620   6.357 -0.1150  0.6631 -0.0304
    7CHTO  H139 2690   6.168   1.673   6.353 -0.4628  0.0517  0.0495
    7CHTO  H140 2691   6.274   1.570   6.452  0.8579  2.6257  0.9180
    7CHTO   C76 2692   6.347   1.846   6.440 -0.5532 -0.9730  0.4325
    7CHTO  H148 2693   6.344   1.820   6.546 -0.2957 -0.7042  0.5053
    7CHTO   O49 2694   6.455   1.945   6.423 -0.5873  0.2538 -0.1649
    7CHTO   C77 2695   6.587   1.895   6.430 -0.1673 -0.2416 -0.3814
    7CHTO  H149 2696   6.589   1.849   6.529 -0.1476  2.7530  1.0599
    7CHTO   C88 2697   6.696   2.001   6.429  0.3958  0.2011 -0.7716
    7CHTO   O58 2698   6.715   2.060   6.565  0.5595 -0.2413 -0.3007
    7CHTO  H136 2699   6.801   2.030   6.589  0.5111  0.5729  0.9015
    7CHTO   O51 2700   6.203   1.920   6.389  0.3597  0.2068  0.3658
    7CHTO   C78 2701   6.100   1.971   6.507  0.1587  0.1897 -0.8976
    7CHTO  H150 2702   6.149   1.962   6.607 -3.4551 -2.6551  0.7229
    7CHTO   C80 2703   5.975   1.880   6.520 -0.2576  0.8678  0.7560
    7CHTO  H152 2704   5.928   1.877   6.420 -1.3551 -3.0020  1.2863
    7CHTO   O55 2705   6.032   1.752   6.546 -0.1764  0.2314  0.4785
    7CHTO  H134 2706   6.058   1.754   6.636 -1.2919  0.4387  0.8081
    7CHTO   C84 2707   5.873   1.934   6.630 -0.3627  0.1212 -0.0202
    7CHTO  H156 2708   5.927   1.925   6.724  1.4028 -1.6157 -1.1520
    7CHTO   N15 2709   5.755   1.843   6.647  0.5937 -0.6336 -0.4168
    7CHTO  H143 2710   5.743   1.813   6.749 -3.2915 -0.5554 -0.7656
    7CHTO  H144 2711   5.764   1.755   6.587 -0.9299 -1.6417  0.7877
    7CHTO   C87 2712   5.840   2.080   6.595  0.3782 -0.8240 -0.4715
    7CHTO  H159 2713   5.792   2.080   6.497 -1.3673  0.1610  0.3523
    7CHTO   O53 2714   5.985   2.169   6.596  0.1585  0.0696 -0.1000
    7CHTO   C82 2715   6.070   2.122   6.496  0.4976  0.0131  0.0813
    7CHTO  H154 2716   6.030   2.155   6.400  0.9719  4.1329  1.1846
    7CHTO   C89 2717   6.207   2.193   6.507 -0.3210 -0.5836  0.3079
    7CHTO   O59 2718   6.185   2.333   6.489 -0.3957 -0.2404  0.2775
    7CHTO  H137 2719   6.180   2.369   6.403  0.9035  0.2254  0.3823
    7CHTO   O45 2720   5.745   2.136   6.694 -0.1089  0.1236  0.5333
    7CHTO   C67 2721   5.714   2.274   6.664  0.0297  0.1027  0.1220
    7CHTO  H124 2722   5.784   2.341   6.617 -1.1938  1.8025  0.6726
    7CHTO   C65 2723   5.587   2.265   6.569  0.4295  0.4759  0.8834
    7CHTO  H122 2724   5.553   2.162   6.578  1.7793  0.0942  1.7156
    7CHTO   O44 2725   5.639   2.287   6.437  0.0565 -0.5961  0.6117
    7CHTO  H102 2726   5.570   2.261   6.378 -1.6208  0.1802  2.2048
    7CHTO   C63 2727   5.474   2.358   6.618  0.2531 -0.4625  0.6177
    7CHTO  H120 2728   5.423   2.311   6.703 -0.7043 -0.0550  0.2696
    7CHTO   N11 2729   5.362   2.384   6.518 -0.0738 -0.0245 -0.2513
    7CHTO  H108 2730   5.390   2.348   6.421 -0.2695 -0.9974  0.0408
    7CHTO  H109 2731   5.335   2.487   6.507 -2.2107 -0.5877 -0.5682
    7CHTO   C61 2732   5.536   2.493   6.669 -0.3271  0.1218  0.3597
    7CHTO  H118 2733   5.460   2.568   6.696  0.7713  1.8671 -1.2618
    7CHTO   O40 2734   5.629   2.475   6.782 -0.4337 -0.7358  0.1071
    7CHTO   C68 2735   5.684   2.342   6.805 -0.9720 -0.0833 -0.5287
    7CHTO  H125 2736   5.610   2.282   6.862  2.2461 -1.6132  2.1440
    7CHTO   C72 2737   5.795   2.376   6.904  0.4959 -0.2784 -0.1856
    7CHTO   O48 2738   5.848   2.254   6.962 -0.1282 -0.5306 -0.4564
    7CHTO  H105 2739   5.935   2.269   6.991  0.5189 -3.0603 -0.9659
    7CHTO   O38 2740   5.608   2.555   6.562  0.0054 -0.1429  0.6343
    7CHTO   C55 2741   5.632   2.699   6.572  1.2017  0.6864 -0.6002
    7CHTO  H112 2742   5.624   2.731   6.677 -2.1660 -0.5026 -0.4656
    7CHTO   C56 2743   5.530   2.770   6.481  0.9764  0.3023  0.2577
    7CHTO  H113 2744   5.536   2.723   6.381  4.4689 -1.6290  1.2752
    7CHTO   O42 2745   5.403   2.745   6.529 -0.0304  0.6506  0.2893
    7CHTO  H100 2746   5.372   2.666   6.491  1.3946  1.1985 -2.0924
    7CHTO   C57 2747   5.567   2.921   6.467  0.0853  0.9851  0.3494
    7CHTO  H114 2748   5.522   2.970   6.553 -0.2114  2.4629 -0.6312
    7CHTO   N10 2749   5.494   2.983   6.354 -0.2940 -0.0061 -0.0899
    7CHTO  H106 2750   5.559   3.060   6.314 -0.4427  0.2174  0.1000
    7CHTO  H107 2751   5.469   2.918   6.271  1.1234  0.8584 -1.2312
    7CHTO   C58 2752   5.720   2.943   6.457 -0.2376  0.3808 -0.9763
    7CHTO  H115 2753   5.753   2.905   6.358 -1.8216  0.2228 -1.4570
    7CHTO   O37 2754   5.790   2.873   6.548  0.0682 -0.8273  0.6827
    7CHTO   C59 2755   5.774   2.729   6.525 -0.4514  0.1987 -0.1414
    7CHTO  H116 2756   5.790   2.704   6.420 -1.3925  1.4435 -0.5927
    7CHTO   C70 2757   5.880   2.654   6.614  0.1899  0.0222 -0.9101
    7CHTO   O46 2758   5.940   2.545   6.546  0.6852  0.4433 -0.2477
    7CHTO  H103 2759   6.003   2.579   6.485  0.5639  0.4163 -0.3865
    7CHTO   O39 2760   5.750   3.087   6.485  0.0758  0.1361  0.4455
    7CHTO   C60 2761   5.866   3.123   6.409  0.2067 -0.9756 -0.1139
    7CHTO  H117 2762   5.944   3.049   6.425  2.8409  1.6208 -0.4600
    7CHTO   C62 2763   5.841   3.146   6.258 -0.4153 -0.2421  0.3579
    7CHTO  H119 2764   5.810   3.045   6.224  1.7529  0.1998 -3.2205
    7CHTO   O43 2765   5.737   3.246   6.236 -0.8009  0.1726  0.0556
    7CHTO  H101 2766   5.776   3.330   6.248 -0.2894 -0.3879  2.6661
    7CHTO   C66 2767   5.978   3.191   6.188 -0.3540  0.1611 -0.5354
    7CHTO  H123 2768   6.062   3.131   6.224 -1.5084 -1.1683 -0.0144
    7CHTO   N12 2769   5.973   3.192   6.037  0.0577  0.4379  0.0511
    7CHTO  H110 2770   5.974   3.089   6.004  0.7279  0.9433 -1.5681
    7CHTO  H111 2771   5.884   3.241   5.999 -0.3088  0.7011  1.2139
    7CHTO   C69 2772   6.003   3.336   6.249  1.0774  0.2080 -0.1878
    7CHTO  H126 2773   5.908   3.393   6.246  0.3224 -1.0872 -1.6275
    7CHTO   O41 2774   6.042   3.303   6.395  0.2975 -0.5017 -0.1937
    7CHTO   C64 2775   5.920   3.254   6.470 -1.0105 -0.2440 -0.5070
    7CHTO  H121 2776   5.843   3.334   6.473  0.0614  0.7638  2.6465
    7CHTO   C71 2777   5.972   3.234   6.620 -0.3594  0.4997 -0.1692
    7CHTO   O47 2778   6.056   3.126   6.644  0.5082 -0.0281  0.1111
    7CHTO  H104 2779   6.129   3.168   6.686 -0.7317  1.2403  1.0153
    7CHTO   O34 2780   6.123   3.426   6.196  0.0447 -0.4180 -0.7653
    7CHTO   C49 2781   6.280   3.480   6.183  0.7171  0.5387  0.1662
    7CHTO   H91 2782   6.263   3.568   6.120  0.9346  0.8643  0.5563
    7CHTO   C47 2783   6.369   3.377   6.119 -0.2303  0.4994 -0.5167
    7CHTO   H89 2784   6.470   3.421   6.104  0.3589 -0.5983  0.1026
    7CHTO   O33 2785   6.320   3.349   5.992 -0.3420 -0.2728 -0.3237
    7CHTO   H70 2786   6.381   3.294   5.946  1.1445  1.4755 -0.4929
    7CHTO   C45 2787   6.377   3.243   6.214 -0.3223 -0.6174 -0.4087
    7CHTO   H87 2788   6.285   3.185   6.200  0.0086 -1.6255  1.4609
    7CHTO    N8 2789   6.489   3.167   6.164 -0.6640 -0.4424  0.3579
    7CHTO   H75 2790   6.576   3.232   6.167 -2.5183  2.1793 -0.2876
    7CHTO   H76 2791   6.503   3.071   6.210 -1.3447 -0.7394 -0.0490
    7CHTO   C43 2792   6.378   3.293   6.368  0.1219  0.5290 -0.1518
    7CHTO   H85 2793   6.276   3.284   6.406  0.0425 -0.4449 -0.5901
    7CHTO   O29 2794   6.432   3.433   6.386 -0.1548  0.1653  0.4187
    7CHTO   C50 2795   6.349   3.526   6.315  0.4728  0.8984  0.2983
    7CHTO   H92 2796   6.263   3.558   6.376  0.3604  3.2457 -1.0099
    7CHTO   C54 2797   6.428   3.662   6.288 -0.4072  0.3264 -0.6874
    7CHTO   O36 2798   6.484   3.726   6.407 -0.1131  0.0729 -0.5376
    7CHTO   H72 2799   6.416   3.761   6.461 -1.2283  0.4250 -2.1110
    7CHTO   O27 2800   6.460   3.205   6.450  0.7680 -0.2146 -0.2642
    7CHTO   C37 2801   6.412   3.107   6.539  0.4089  0.2091 -0.6173
    7CHTO   H79 2802   6.328   3.150   6.596  1.6773  0.2065  1.2876
    7CHTO   C38 2803   6.354   2.978   6.465  0.2310 -0.3429  0.3196
    7CHTO   H80 2804   6.407   2.961   6.370 -0.2278 -0.8643  0.1557
    7CHTO   O31 2805   6.218   3.003   6.424  0.3955 -0.1248 -0.0492
    7CHTO   H68 2806   6.174   2.943   6.367 -0.6450  1.1530 -0.6182
    7CHTO   C39 2807   6.359   2.842   6.547 -0.8416  0.3267  0.3726
    7CHTO   H81 2808   6.281   2.853   6.623 -0.3884 -0.9398  1.0381
    7CHTO    N7 2809   6.329   2.724   6.471  0.1683  0.0819  0.1780
    7CHTO   H73 2810   6.331   2.634   6.531 -1.3602 -0.4802 -0.5660
    7CHTO   H74 2811   6.239   2.741   6.413 -0.7258 -0.4994  1.3832
    7CHTO   C40 2812   6.490   2.833   6.627  0.0463 -0.2667 -0.4054
    7CHTO   H82 2813   6.571   2.833   6.555  0.8532  1.0749  0.4717
    7CHTO   O26 2814   6.498   2.946   6.716  0.5791 -0.1641  0.0264
    7CHTO   C41 2815   6.522   3.072   6.646  0.3882 -0.5777 -0.5407
    7CHTO   H83 2816   6.623   3.070   6.603  1.5425  2.0774  1.8660
    7CHTO   C52 2817   6.533   3.186   6.753  0.4284 -0.5753  0.3808
    7CHTO   O35 2818   6.414   3.209   6.850 -0.1666  0.8618 -0.7741
    7CHTO   H71 2819   6.377   3.295   6.851 -2.0571  0.0557  1.2566
    7CHTO   O28 2820   6.498   2.712   6.710 -0.2029 -0.2134  0.1823
    7CHTO   C42 2821   6.631   2.656   6.747 -0.0196  0.1296 -0.1250
    7CHTO   H84 2822   6.600   2.585   6.822 -1.2111  1.0092  0.2227
    7CHTO   C44 2823   6.735   2.755   6.817 -0.1116 -0.0114  0.2098
    7CHTO   H86 2824   6.749   2.842   6.753  1.1393 -1.8830 -2.1117
    7CHTO   O32 2825   6.673   2.821   6.933  0.3270  0.3894  0.3210
    7CHTO   H69 2826   6.621   2.752   6.970 -3.4861  0.9042 -3.5898
    7CHTO   C48 2827   6.869   2.683   6.842 -0.1633  0.3863 -0.0551
    7CHTO   H90 2828   6.851   2.622   6.931 -2.5377  0.7893 -0.2400
    7CHTO    N9 2829   6.974   2.787   6.885 -0.7169  0.3739  0.3902
    7CHTO   H77 2830   7.062   2.728   6.905 -0.1410  1.4120  0.9497
    7CHTO   H78 2831   6.941   2.847   6.968  0.5968  4.4154 -1.8587
    7CHTO   C51 2832   6.912   2.602   6.721 -0.0974  0.0045 -0.0319
    7CHTO   H93 2833   6.933   2.666   6.635 -1.4092 -0.8394 -0.9827
    7CHTO   O30 2834   6.804   2.512   6.696 -0.1511 -0.5431 -0.1607
    7CHTO   C46 2835   6.690   2.570   6.638 -1.0173  0.3155 -0.4800
    7CHTO   H88 2836   6.718   2.640   6.559  0.3904  0.1051 -0.1945
    7CHTO   C53 2837   6.582   2.466   6.600  1.0009 -0.4784 -0.2631
    7CHTO   O72 2838   6.634   2.366   6.517  0.3470 -0.1021  0.6303
    7CHTO  H199 2839   6.586   2.289   6.493  0.6529 -0.4216  1.0516
    7CHTO   O22 2840   7.021   2.511   6.742 -0.4143 -0.1214 -0.5399
    7CHTO   C31 2841   7.112   2.478   6.635 -0.6598  0.3536 -0.3954
    7CHTO   H59 2842   7.192   2.413   6.677 -1.0143 -0.4733 -0.9858
    7CHTO   C29 2843   7.044   2.394   6.523  0.5022  0.1787 -0.7124
    7CHTO   H57 2844   6.960   2.455   6.485 -0.3884  0.5426  1.7348
    7CHTO   O21 2845   6.992   2.271   6.589 -0.5027 -0.3846  0.1245
    7CHTO   H37 2846   6.914   2.291   6.638  0.4444  1.5735  0.8746
    7CHTO   C27 2847   7.134   2.348   6.401  0.7066 -0.6588  0.0930
    7CHTO   H55 2848   7.214   2.284   6.439  1.9630  1.9371  1.9714
    7CHTO    N5 2849   7.062   2.275   6.295 -0.8343  0.6743  0.6076
    7CHTO   H43 2850   6.962   2.318   6.293 -1.8136 -1.5458  0.6788
    7CHTO   H44 2851   7.078   2.169   6.299 -0.0392  0.8559  4.9305
    7CHTO   C25 2852   7.198   2.475   6.343  0.1534 -0.0060 -0.3349
    7CHTO   H53 2853   7.113   2.533   6.303 -0.1568 -0.2414 -0.0212
    7CHTO   O17 2854   7.268   2.550   6.454 -0.1190 -0.5286  0.4813
    7CHTO   C32 2855   7.187   2.598   6.566 -0.0904  0.1146 -0.0125
    7CHTO   H60 2856   7.115   2.659   6.511 -0.2960  1.0487  1.2729
    7CHTO   C36 2857   7.263   2.691   6.662 -0.0911 -0.8353 -0.3119
    7CHTO   O25 2858   7.379   2.613   6.711  0.1034 -0.2493 -0.3333
    7CHTO   H40 2859   7.455   2.627   6.657  0.2079  0.3055 -0.0395
    7CHTO   O15 2860   7.301   2.448   6.238 -0.0470 -0.5261  0.8102
    7CHTO   C19 2861   7.332   2.502   6.107  0.8015 -0.1591 -0.0015
    7CHTO   H47 2862   7.435   2.477   6.075  0.1633  0.8335 -2.9942
    7CHTO   C20 2863   7.250   2.456   5.987  0.4835 -0.1990 -0.1605
    7CHTO   H48 2864   7.146   2.491   5.999  0.3538 -0.6733  0.1236
    7CHTO   O19 2865   7.247   2.316   5.979  0.2026  0.1329 -0.2633
    7CHTO   H35 2866   7.162   2.278   5.984 -0.0056  0.6989  0.5166
    7CHTO   C21 2867   7.292   2.516   5.843 -0.0619 -0.4536  0.0204
    7CHTO   H49 2868   7.396   2.490   5.824  0.3814  0.8085  0.6918
    7CHTO    N4 2869   7.218   2.473   5.722  0.0911  0.0238  0.2962
    7CHTO   H41 2870   7.181   2.563   5.677 -0.0058 -0.6067 -0.8940
    7CHTO   H42 2871   7.134   2.412   5.752 -1.2049  0.3498 -2.5593
    7CHTO   C22 2872   7.298   2.667   5.858  0.2221 -0.1644  0.3820
    7CHTO   H50 2873   7.198   2.706   5.876  0.7718  1.1869  0.6443
    7CHTO   O14 2874   7.375   2.707   5.970 -0.3463  0.0808 -0.2165
    7CHTO   C23 2875   7.324   2.662   6.093  0.3062  0.0478  1.0855
    7CHTO   H51 2876   7.223   2.702   6.111  0.2204  1.1884 -1.6813
    7CHTO   C34 2877   7.411   2.747   6.188 -0.0369  0.4669 -0.5210
    7CHTO   O23 2878   7.543   2.695   6.214  0.9530  0.3623  0.1178
    7CHTO   H38 2879   7.552   2.675   6.305  1.1661  1.1640  0.2756
    7CHTO   O16 2880   7.363   2.740   5.754  0.7372 -0.0050  0.0820
    7CHTO   C24 2881   7.289   2.878   5.721 -0.1285 -0.5927 -0.3998
    7CHTO   H52 2882   7.217   2.906   5.798  0.6572  0.7483 -0.1446
    7CHTO   C26 2883   7.213   2.864   5.588 -0.1133  0.7188 -0.6356
    7CHTO   H54 2884   7.286   2.835   5.510  1.8929  1.1151  1.0648
    7CHTO   O20 2885   7.110   2.763   5.610  0.1580  0.0398 -0.4975
    7CHTO   H36 2886   7.091   2.706   5.538 -0.7756  1.0356 -1.0513
    7CHTO   C30 2887   7.151   3.002   5.553 -0.2370 -0.7487 -0.0547
    7CHTO   H58 2888   7.057   3.015   5.608 -0.8631 -0.8243 -1.0836
    7CHTO    N6 2889   7.098   2.998   5.413  0.5296 -0.0199  0.0011
    7CHTO   H45 2890   7.173   3.001   5.336  2.4484 -0.9927  1.7889
    7CHTO   H46 2891   7.021   3.069   5.389 -1.3565 -1.7053  0.9115
    7CHTO   C33 2892   7.249   3.118   5.571 -0.2709 -0.1443 -0.3687
    7CHTO   H61 2893   7.316   3.123   5.484 -0.4891  1.6788 -0.4601
    7CHTO   O18 2894   7.336   3.111   5.690  0.3446 -0.8030  0.1833
    7CHTO   C28 2895   7.399   2.987   5.716  0.2314 -0.1404 -0.3239
    7CHTO   H56 2896   7.472   2.965   5.638 -0.3855 -0.2780 -0.8598
    7CHTO   C35 2897   7.473   3.000   5.850 -0.9730 -0.0854 -0.9771
    7CHTO   O24 2898   7.415   3.070   5.962 -0.1197 -0.0793  0.2155
    7CHTO   H39 2899   7.472   3.070   6.036  0.2150  1.5694 -0.0193
    7CHTO    O9 2900   7.175   3.242   5.569  0.0609  0.6357 -0.5742
    7CHTO   C13 2901   7.249   3.356   5.484  0.8932 -0.0095 -0.4603
    7CHTO   H26 2902   7.291   3.308   5.393  0.0413 -1.3947 -0.1371
    7CHTO   C11 2903   7.359   3.432   5.570  0.0536  0.3768  0.2764
    7CHTO   H24 2904   7.440   3.360   5.591  0.4136  0.0915 -1.9716
    7CHTO    O8 2905   7.311   3.474   5.699  0.4908 -0.0050 -0.7458
    7CHTO    H3 2906   7.379   3.511   5.752 -1.9743  0.6602  2.1310
    7CHTO    C9 2907   7.414   3.551   5.484 -1.0030  0.1655  0.1218
    7CHTO   H22 2908   7.442   3.510   5.386  2.6174  0.7292  0.8643
    7CHTO    N2 2909   7.548   3.610   5.526 -0.0322  0.6001  0.1696
    7CHTO   H10 2910   7.611   3.631   5.441 -0.3584  0.5536 -0.0859
    7CHTO   H11 2911   7.523   3.706   5.570 -1.1173  0.7385 -0.7144
    7CHTO    C7 2912   7.296   3.656   5.468  0.5919  0.3080 -0.1938
    7CHTO   H20 2913   7.301   3.695   5.365 -1.9414 -0.1052 -0.5117
    7CHTO    O4 2914   7.159   3.591   5.478  0.0870 -0.1388 -0.2494
    7CHTO   C14 2915   7.146   3.463   5.422 -0.4359  0.8714  0.0540
    7CHTO   H27 2916   7.170   3.483   5.315  2.2216 -0.3604  0.3861
    7CHTO   C18 2917   6.998   3.422   5.426 -0.1080  0.4075 -0.2658
    7CHTO   O13 2918   6.978   3.303   5.341 -0.3092  0.2735 -0.2748
    7CHTO    H7 2919   7.032   3.230   5.362 -0.2384  0.2216 -0.6371
    7CHTO    O2 2920   7.304   3.767   5.590 -0.2170  0.3225  0.6770
    7CHTO    C1 2921   7.198   3.866   5.593  0.0137 -0.0341  0.8320
    7CHTO   H14 2922   7.110   3.824   5.539  0.6271  1.2334 -1.2082
    7CHTO    C2 2923   7.226   4.003   5.534 -0.0981 -0.4823  0.2313
    7CHTO   H15 2924   7.321   4.036   5.579  0.5620 -1.4411 -0.4370
    7CHTO    O6 2925   7.246   3.987   5.392  0.1947  0.3266 -0.0773
    7CHTO    H1 2926   7.319   3.932   5.371  0.3829 -0.7814  3.1806
    7CHTO    C3 2927   7.108   4.116   5.556 -0.7561 -0.4045 -0.3719
    7CHTO   H16 2928   7.019   4.073   5.508  0.7062 -0.1505 -3.4288
    7CHTO    N1 2929   7.143   4.251   5.488  0.0342  0.0598 -0.1615
    7CHTO    H8 2930   7.193   4.233   5.395 -1.7464 -0.8045 -0.9714
    7CHTO    H9 2931   7.055   4.313   5.476 -1.3485 -1.7256  0.5209
    7CHTO    C4 2932   7.074   4.115   5.707 -0.5791 -0.3269 -0.3106
    7CHTO   H17 2933   7.153   4.170   5.758 -0.6343  0.3280 -0.9200
    7CHTO    O1 2934   7.059   3.981   5.763 -0.6553 -0.1992  0.3047
    7CHTO    C5 2935   7.168   3.890   5.746  0.3639  0.1896 -0.3789
    7CHTO   H18 2936   7.244   3.946   5.802  0.0986  1.2577 -1.0885
    7CHTO   C16 2937   7.126   3.756   5.815  0.1113  0.2473 -0.1053
    7CHTO   O11 2938   7.018   3.693   5.739  0.0250 -0.0383 -0.3384
    7CHTO    H5 2939   7.050   3.636   5.672 -2.0290 -0.0370 -1.3711
    7CHTO    O3 2940   6.947   4.190   5.721  0.0657 -0.2027 -0.2916
    7CHTO    C6 2941   6.941   4.260   5.859 -1.1104  0.0863  0.1057
    7CHTO   H19 2942   7.013   4.215   5.927  0.0355 -2.8954 -2.9360
    7CHTO    C8 2943   6.952   4.415   5.837 -0.4920 -0.5033  0.0371
    7CHTO   H21 2944   6.877   4.452   5.767 -0.0941  1.2960  0.5310
    7CHTO    O7 2945   7.081   4.451   5.784 -0.0006  0.4352  0.2371
    7CHTO    H2 2946   7.098   4.397   5.709  1.3842  0.6728  0.3695
    7CHTO   C12 2947   6.933   4.491   5.976  0.3749  0.9980 -0.1917
    7CHTO   H25 2948   7.021   4.464   6.039 -0.1358  0.6993  0.3905
    7CHTO    N3 2949   6.933   4.638   5.958 -0.4979 -0.5445  0.6795
    7CHTO   H12 2950   7.021   4.672   5.905  0.1297  0.9037  2.5852
    7CHTO   H13 2951   6.845   4.673   5.905 -0.0062  1.0989  0.9164
    7CHTO   C15 2952   6.804   4.442   6.048 -0.2456 -0.0805  0.4377
    7CHTO   H28 2953   6.713   4.484   6.004 -0.5748 -2.2584 -1.0286
    7CHTO   O10 2954   6.815   4.467   6.204  0.1129 -0.0530 -0.4982
    7CHTO    H4 2955   6.896   4.428   6.230 -0.8706 -1.2038  0.9654
    7CHTO    O5 2956   6.810   4.298   6.053  0.6223 -0.2865 -0.5674
    7CHTO   C10 2957   6.799   4.241   5.926 -0.0380  0.0145 -0.5209
    7CHTO   H23 2958   6.718   4.284   5.866 -0.9867 -0.4192  0.4332
    7CHTO   C17 2959   6.763   4.090   5.924 -0.3288 -0.2866 -0.5593
    7CHTO   O12 2960   6.637   4.075   5.995 -0.0856  0.4917 -0.1046
    7CHTO    H6 2961   6.605   3.987   6.004  1.2913 -0.2369 -1.8566
    8CHTO  H203 2962   8.047   7.330   1.238  0.8474  0.5415  0.1876
    8CHTO   O82 2963   8.024   7.325   1.329  0.7059  0.2848  0.1341
    8CHTO  C123 2964   7.892   7.362   1.364 -0.1248  0.1789  0.4299
    8CHTO  H227 2965   7.837   7.271   1.389  1.7184 -1.6821 -2.0780
    8CHTO   O77 2966   7.905   7.446   1.479  0.4226 -0.2666 -0.7265
    8CHTO  C118 2967   7.778   7.490   1.537 -0.5318 -0.1257 -0.3083
    8CHTO  H222 2968   7.711   7.407   1.563  0.8412 -1.9088 -2.2799
    8CHTO  C125 2969   7.817   7.565   1.672 -1.3436  0.2695 -0.3270
    8CHTO   O84 2970   7.901   7.485   1.757  0.2071  0.6710  0.4830
    8CHTO  H205 2971   7.869   7.398   1.769 -0.7137  0.6863 -1.6356
    8CHTO  C114 2972   7.707   7.584   1.436  0.2693  0.0185  0.2409
    8CHTO  H218 2973   7.770   7.670   1.414  0.5664 -0.0233  0.9127
    8CHTO  C116 2974   7.672   7.500   1.303  0.0508  0.2135 -0.0410
    8CHTO  H220 2975   7.593   7.427   1.328  0.2645 -0.1230 -0.3409
    8CHTO   O79 2976   7.615   7.595   1.205  0.0317 -1.0748  0.1801
    8CHTO  H201 2977   7.522   7.609   1.204  0.0132 -1.1502 -1.1019
    8CHTO  C120 2978   7.809   7.434   1.252 -0.6265  0.0489  0.7608
    8CHTO  H224 2979   7.863   7.522   1.212  1.5146 -1.1698  0.9000
    8CHTO   N21 2980   7.789   7.344   1.135  0.1545 -0.3424 -0.5949
    8CHTO  H211 2981   7.703   7.360   1.071 -0.6790  0.1712  0.6283
    8CHTO  H212 2982   7.806   7.238   1.143 -2.4963 -0.8664 -1.2799
    8CHTO   O75 2983   7.586   7.619   1.506 -0.1325 -0.0981  0.4465
    8CHTO  C112 2984   7.489   7.730   1.425 -0.1886 -1.1370  0.7714
    8CHTO  H216 2985   7.438   7.676   1.344 -1.6594  2.7677 -0.9810
    8CHTO   O73 2986   7.582   7.839   1.379  0.2122 -0.0864  0.1303
    8CHTO  C113 2987   7.520   7.934   1.294  0.6645 -0.0576 -0.7143
    8CHTO  H217 2988   7.487   7.886   1.200  1.5496  0.2852 -1.2052
    8CHTO  C124 2989   7.627   8.030   1.254  0.2974  0.3441  0.0937
    8CHTO   O83 2990   7.732   7.961   1.177  0.5924 -0.3017  0.3951
    8CHTO  H204 2991   7.771   7.896   1.233 -0.7653 -1.3701  0.1096
    8CHTO  C109 2992   7.398   8.003   1.367  0.1974  0.3352  0.0008
    8CHTO  H213 2993   7.441   8.054   1.455  0.6410 -0.8866  0.5048
    8CHTO  C110 2994   7.299   7.893   1.416 -1.0556 -0.5173 -0.9691
    8CHTO  H214 2995   7.277   7.835   1.327 -0.0865  1.0730 -2.2548
    8CHTO   O78 2996   7.195   7.961   1.480  0.6108 -0.2684  0.3898
    8CHTO  H200 2997   7.113   7.955   1.435 -0.2697 -1.2790  2.0779
    8CHTO  C111 2998   7.379   7.795   1.512 -0.6780  0.6098  0.2952
    8CHTO  H215 2999   7.427   7.849   1.595 -0.4480 -0.7928  1.0896
    8CHTO   N19 3000   7.294   7.686   1.574  0.0691  0.1343 -0.8231
    8CHTO  H207 3001   7.363   7.614   1.617 -0.3913  0.4375  0.4363
    8CHTO  H208 3002   7.229   7.743   1.638 -0.1210 -1.9910  0.9654
    8CHTO   O74 3003   7.333   8.102   1.285 -0.5385 -1.1478 -0.7648
    8CHTO  C115 3004   7.340   8.266   1.336 -0.3906 -0.3295 -0.0322
    8CHTO  H219 3005   7.365   8.272   1.442 -0.9268 -1.6243  0.1666
    8CHTO   O76 3006   7.458   8.337   1.268 -0.0216  1.0769  0.4659
    8CHTO  C122 3007   7.460   8.478   1.257  0.1011  0.5008  0.7566
    8CHTO  H226 3008   7.536   8.512   1.187 -0.2750  3.8476  1.8742
    8CHTO  C126 3009   7.515   8.540   1.390 -0.0225 -0.2281  0.4425
    8CHTO   O85 3010   7.540   8.678   1.387  0.2739 -0.3056  0.1837
    8CHTO  H206 3011   7.489   8.719   1.454  0.5686  0.5175 -0.0821
    8CHTO  C121 3012   7.326   8.548   1.215 -0.4417  0.1376 -0.4694
    8CHTO  H225 3013   7.328   8.658   1.230  0.0261  0.0044  0.5287
    8CHTO   O81 3014   7.308   8.535   1.074 -0.8020  0.0790  0.4442
    8CHTO  H202 3015   7.390   8.555   1.033 -1.1402  1.0336  0.2241
    8CHTO  C119 3016   7.205   8.491   1.292 -0.2476 -0.0336  0.6526
    8CHTO  H223 3017   7.211   8.530   1.394  1.3648  0.5911  0.3366
    8CHTO  C117 3018   7.205   8.332   1.292  0.2363 -0.6366  0.4263
    8CHTO  H221 3019   7.186   8.280   1.198  0.9819 -3.9972  2.0643
    8CHTO   N20 3020   7.092   8.280   1.377  0.3953  0.5014  0.0076
    8CHTO  H209 3021   7.053   8.356   1.444  0.5088  0.0580  0.5851
    8CHTO  H210 3022   7.006   8.262   1.315  0.0504  1.7056  0.1135
    8CHTO   O80 3023   7.070   8.558   1.240 -0.2178 -0.4868 -0.1413
    8CHTO  C103 3024   7.037   8.723   1.272 -0.0393 -0.3255 -0.3783
    8CHTO  H190 3025   6.930   8.729   1.290 -0.2025 -0.6908 -1.1770
    8CHTO  C101 3026   7.112   8.802   1.387  0.3410  0.1848 -0.3447
    8CHTO  H188 3027   7.220   8.807   1.371  0.3987  1.2784  0.3836
    8CHTO   O68 3028   7.071   8.743   1.516  0.1535  0.1755 -0.0803
    8CHTO  H168 3029   7.103   8.795   1.587  0.9104  0.7155 -0.8180
    8CHTO   C99 3030   7.065   8.953   1.391 -0.9081  0.9614  0.0881
    8CHTO  H186 3031   6.954   8.954   1.394 -0.9955  0.6053 -2.1976
    8CHTO   N17 3032   7.125   9.036   1.507 -0.6557 -0.6857 -0.3003
    8CHTO  H174 3033   7.048   9.070   1.573 -1.3493 -2.4297 -0.1781
    8CHTO  H175 3034   7.202   8.984   1.561 -0.9406  0.1835  0.9598
    8CHTO   C97 3035   7.101   9.008   1.248  0.7220 -0.2211  0.0721
    8CHTO  H184 3036   7.210   9.001   1.237  0.5892 -2.4948  0.0249
    8CHTO   O64 3037   7.033   8.936   1.144  0.2051 -0.1156  0.2566
    8CHTO  C104 3038   7.069   8.793   1.136 -0.2303 -0.6839 -0.3204
    8CHTO  H191 3039   7.169   8.767   1.103 -0.2382 -1.2074  0.0696
    8CHTO  C108 3040   6.979   8.736   1.025 -0.5773 -0.4439  0.2212
    8CHTO   O71 3041   7.014   8.794   0.898 -0.1528 -0.4884  0.1990
    8CHTO  H171 3042   6.980   8.747   0.824  0.6599 -0.4557 -0.2064
    8CHTO   O62 3043   7.060   9.148   1.223  0.1716  0.0856 -0.4458
    8CHTO   C91 3044   7.147   9.236   1.144  0.3620 -0.2489 -0.5057
    8CHTO  H178 3045   7.251   9.203   1.145  0.7593  1.0080 -0.6724
    8CHTO   C92 3046   7.145   9.361   1.232  0.7592 -0.2409 -0.3428
    8CHTO  H179 3047   7.044   9.384   1.268  2.1377  2.1812  2.1275
    8CHTO   O66 3048   7.212   9.329   1.353 -0.1546 -0.1674 -0.9999
    8CHTO  H166 3049   7.177   9.368   1.430  0.4215 -0.1969 -0.7177
    8CHTO   C93 3050   7.212   9.489   1.163  0.5958  0.0515  0.3235
    8CHTO  H180 3051   7.320   9.472   1.168  0.8624  0.7539 -2.2788
    8CHTO   N16 3052   7.191   9.614   1.237 -0.0263  0.1070  0.1664
    8CHTO  H172 3053   7.086   9.637   1.231 -0.3537 -1.6883 -1.4260
    8CHTO  H173 3054   7.243   9.695   1.188  2.2565 -1.4815 -0.1179
    8CHTO   C94 3055   7.180   9.501   1.011  0.5751 -0.3634 -0.5894
    8CHTO  H181 3056   7.076   9.526   0.992  0.3793  0.3329  1.2602
    8CHTO   O61 3057   7.194   9.372   0.955 -0.5213 -0.1970  0.3295
    8CHTO   C95 3058   7.102   9.274   1.002 -0.1281  0.3368  0.5888
    8CHTO  H182 3059   7.000   9.311   0.995  0.1485  0.5852 -3.3052
    8CHTO  C106 3060   7.102   9.150   0.905  0.4262  0.0943  0.1710
    8CHTO   O69 3061   7.234   9.109   0.864  0.1030  0.4220  0.6325
    8CHTO  H169 3062   7.262   9.176   0.804 -0.4524  0.6368  0.6104
    8CHTO   O63 3063   7.282   9.600   0.941  0.8199  0.0864  0.6001
    8CHTO   C96 3064   7.241   9.635   0.778 -0.6111  0.3690 -0.7495
    8CHTO  H183 3065   7.150   9.579   0.755 -0.2921  0.1516 -1.5069
    8CHTO   C98 3066   7.340   9.568   0.678  0.1095  0.6281 -0.1026
    8CHTO  H185 3067   7.441   9.597   0.709 -0.1832  2.1966 -0.5625
    8CHTO   O67 3068   7.326   9.429   0.694  0.1243 -0.0408 -0.1548
    8CHTO  H167 3069   7.338   9.403   0.783  2.6454 -0.6890 -0.6432
    8CHTO  C102 3070   7.303   9.610   0.535 -0.0287  0.1635  0.1606
    8CHTO  H189 3071   7.198   9.578   0.523  0.0505  0.2032 -0.6523
    8CHTO   N18 3072   7.374   9.544   0.426 -0.2690 -0.2915  0.2462
    8CHTO  H176 3073   7.365   9.436   0.434  2.3193 -0.4491  1.5425
    8CHTO  H177 3074   7.476   9.576   0.441 -1.4253  2.6702  2.1836
    8CHTO  C105 3075   7.293   9.767   0.516  0.1707  0.1637 -0.4731
    8CHTO  H192 3076   7.386   9.810   0.479 -0.0894  1.3139  0.2051
    8CHTO   O65 3077   7.258   9.843   0.633  0.3838  0.0687 -0.2890
    8CHTO  C100 3078   7.215   9.789   0.761  0.6320  0.0657  0.3428
    8CHTO  H187 3079   7.281   9.839   0.834  2.7283  0.7828 -1.9749
    8CHTO  C107 3080   7.068   9.829   0.795 -0.5797 -0.4121  0.4063
    8CHTO   O70 3081   6.978   9.746   0.720  0.7198  0.3338  0.2248
    8CHTO  H170 3082   6.904   9.789   0.682 -0.4764 -2.5240 -0.8195
    8CHTO   O57 3083   7.179   9.784   0.408 -0.0006  0.0120  0.1397
    8CHTO   C85 3084   7.173   9.903   0.327 -0.5369 -0.5230  0.3706
    8CHTO  H157 3085   7.281   9.908   0.302 -0.4301 -1.6682  0.6042
    8CHTO   C83 3086   7.140  10.032   0.405  0.4505  0.4505 -0.3835
    8CHTO  H155 3087   7.214  10.038   0.484 -0.8686 -1.7418  1.0733
    8CHTO   O56 3088   7.015  10.002   0.469 -0.3741  0.5172  0.2898
    8CHTO  H135 3089   6.952   9.969   0.408  1.0589 -2.5269  0.3478
    8CHTO   C81 3090   7.140  10.159   0.318 -0.5940 -0.4728  0.4366
    8CHTO  H153 3091   7.238  10.172   0.273 -0.2078 -2.3216  0.6954
    8CHTO   N14 3092   7.120  10.285   0.389 -0.0053  0.4201  0.1964
    8CHTO  H141 3093   7.018  10.286   0.420  0.2860  1.6891  1.1305
    8CHTO  H142 3094   7.133  10.363   0.317 -1.3425 -0.0074 -0.5260
    8CHTO   C79 3095   7.032  10.137   0.200  0.0044 -0.6600 -0.5286
    8CHTO  H151 3096   7.035  10.226   0.138 -1.5497  0.3432  0.7781
    8CHTO   O52 3097   7.067  10.016   0.121  0.6974 -0.8491  0.3083
    8CHTO   C86 3098   7.085   9.897   0.199  0.3431  0.2014 -0.4663
    8CHTO  H158 3099   6.982   9.863   0.225  1.4057 -2.8554 -0.0480
    8CHTO   C90 3100   7.142   9.790   0.109 -0.6343 -0.0949  0.9672
    8CHTO   O60 3101   7.097   9.657   0.146  0.4251 -0.2028 -0.3551
    8CHTO  H138 3102   7.174   9.603   0.142  0.0204 -0.7120 -1.7091
    8CHTO   O50 3103   6.897  10.135   0.240  0.5614 -0.3148  0.0899
    8CHTO   C73 3104   6.783  10.172   0.161  0.3957  0.2544  0.6431
    8CHTO  H145 3105   6.815  10.163   0.056  2.1361 -0.6522  1.2350
    8CHTO   C74 3106   6.750  10.320   0.186 -0.4249  0.3172  0.2875
    8CHTO  H146 3107   6.847  10.368   0.166  0.0776 -0.6670  0.2819
    8CHTO   O54 3108   6.658  10.369   0.087 -0.4243  0.4111  0.0674
    8CHTO  H133 3109   6.662  10.462   0.076  1.2807  0.8016  3.1934
    8CHTO   C75 3110   6.703  10.338   0.335  0.5263  0.4646  0.2587
    8CHTO  H147 3111   6.782  10.318   0.408  0.6923  1.1488  0.2615
    8CHTO   N13 3112   6.671  10.475   0.388  0.4123  0.0315  0.3457
    8CHTO  H139 3113   6.574  10.478   0.435 -0.0058 -0.8023 -0.4306
    8CHTO  H140 3114   6.748  10.512   0.454  0.0439  1.1682  0.1509
    8CHTO   C76 3115   6.588  10.231   0.370  0.4081 -0.1513 -0.3370
    8CHTO  H148 3116   6.494  10.272   0.334  0.1409 -0.5266 -0.0724
    8CHTO   O49 3117   6.609  10.100   0.314 -0.2084 -0.2050  0.1354
    8CHTO   C77 3118   6.659  10.083   0.176  0.0434  0.2319 -0.4944
    8CHTO  H149 3119   6.583  10.113   0.105 -0.3031  0.7653  0.0981
    8CHTO   C88 3120   6.689   9.936   0.165 -0.1019 -0.5030 -0.1339
    8CHTO   O58 3121   6.717   9.902   0.010  0.0651  0.0336 -0.4903
    8CHTO  H136 3122   6.754   9.977  -0.033 -1.0085  0.8472 -0.0366
    8CHTO   O51 3123   6.571  10.212   0.540  0.5644  0.4034 -0.2677
    8CHTO   C78 3124   6.453  10.093   0.574 -0.5206 -0.2477  0.2300
    8CHTO  H150 3125   6.425  10.026   0.490  0.4296  0.3429 -0.5628
    8CHTO   C80 3126   6.327  10.151   0.634  0.0265  0.6750 -0.0130
    8CHTO  H152 3127   6.357  10.233   0.702 -0.0456 -0.9425  1.9945
    8CHTO   O55 3128   6.255  10.219   0.537 -0.4750  0.1061 -0.2396
    8CHTO  H134 3129   6.232  10.162   0.467  1.4915  0.5586 -1.3045
    8CHTO   C84 3130   6.226  10.049   0.707 -0.1509  0.4937  0.0965
    8CHTO  H156 3131   6.189   9.972   0.639 -1.7259  0.4276  0.9923
    8CHTO   N15 3132   6.107  10.107   0.770 -0.2224 -0.0018 -0.2245
    8CHTO  H143 3133   6.125  10.213   0.775  0.9351 -0.1908 -0.2765
    8CHTO  H144 3134   6.015  10.093   0.716 -0.9143  0.6961  0.7501
    8CHTO   C87 3135   6.308   9.959   0.804  0.2691  0.4299 -0.3368
    8CHTO  H159 3136   6.354  10.017   0.884 -0.7349 -0.5015  0.9476
    8CHTO   O53 3137   6.416   9.889   0.726 -0.3578 -0.7793  0.3870
    8CHTO   C82 3138   6.513   9.994   0.683  0.7968  0.9540 -0.2854
    8CHTO  H154 3139   6.558  10.039   0.771  3.1214  0.1865 -1.0328
    8CHTO   C89 3140   6.628   9.917   0.613  0.0521 -0.3494 -0.5941
    8CHTO   O59 3141   6.747   9.999   0.606  0.2883  0.4721  0.0551
    8CHTO  H137 3142   6.722  10.086   0.580 -1.2480  0.4902  1.5070
    8CHTO   O45 3143   6.206   9.835   0.871 -0.0751  0.2630 -0.2556
    8CHTO   C67 3144   6.274   9.747   0.959 -0.2237  0.2621 -0.5850
    8CHTO  H124 3145   6.373   9.741   0.915  0.3367  1.1272  0.5340
    8CHTO   C65 3146   6.283   9.807   1.105  0.3428 -0.5181 -0.0833
    8CHTO  H122 3147   6.205   9.882   1.120 -0.1598 -1.0291 -0.1297
    8CHTO   O44 3148   6.409   9.875   1.110  0.7878 -0.5054 -0.2025
    8CHTO  H102 3149   6.422   9.903   1.198 -0.3267 -2.0394  0.4874
    8CHTO   C63 3150   6.244   9.699   1.215  0.0040  0.9334 -0.1242
    8CHTO  H120 3151   6.139   9.671   1.205  0.6797 -1.8361  0.0420
    8CHTO   N11 3152   6.251   9.738   1.352 -0.0574 -0.1718  0.1029
    8CHTO  H108 3153   6.154   9.740   1.396 -0.8801 -0.7731 -1.6421
    8CHTO  H109 3154   6.300   9.833   1.359 -0.2459 -0.1670  1.6536
    8CHTO   C61 3155   6.319   9.563   1.181 -0.8469  0.1860  0.1508
    8CHTO  H118 3156   6.281   9.489   1.253 -0.5187  0.3047  0.4548
    8CHTO   O40 3157   6.278   9.506   1.043  0.5749 -0.6368  0.6311
    8CHTO   C68 3158   6.208   9.601   0.952  0.7417 -0.1867  0.0989
    8CHTO  H125 3159   6.100   9.611   0.974  0.5588  1.3923 -1.3843
    8CHTO   C72 3160   6.219   9.551   0.808 -0.2917  0.3205 -0.2311
    8CHTO   O48 3161   6.203   9.408   0.786 -0.4492  0.4378 -0.0437
    8CHTO  H105 3162   6.129   9.396   0.730  0.2402 -1.0202 -0.6992
    8CHTO   O38 3163   6.466   9.580   1.193 -0.0479 -0.9973  0.4788
    8CHTO   C55 3164   6.553   9.470   1.163 -0.0868 -0.1656 -0.1734
    8CHTO  H112 3165   6.495   9.395   1.108 -0.6342 -0.3734  0.6727
    8CHTO   C56 3166   6.629   9.411   1.293 -0.3078  0.7322 -0.0333
    8CHTO  H113 3167   6.712   9.478   1.318 -0.0234 -0.6229  2.8459
    8CHTO   O42 3168   6.540   9.407   1.397  0.4117 -0.5787 -0.0155
    8CHTO  H100 3169   6.526   9.492   1.436 -1.8615 -0.3267 -1.2839
    8CHTO   C57 3170   6.672   9.264   1.251 -0.0381 -0.5428  0.3037
    8CHTO  H114 3171   6.584   9.209   1.217 -0.7664  1.1068 -0.5029
    8CHTO   N10 3172   6.739   9.187   1.361  1.8035 -0.1755 -0.0304
    8CHTO  H106 3173   6.666   9.137   1.423  1.4529 -0.7002 -0.8519
    8CHTO  H107 3174   6.794   9.260   1.418 -1.9711  3.0556 -0.3114
    8CHTO   C58 3175   6.775   9.278   1.130 -0.5092  0.4789 -0.3588
    8CHTO  H115 3176   6.875   9.303   1.171 -0.5874 -0.0250  0.1458
    8CHTO   O37 3177   6.745   9.382   1.027 -0.1646  0.3707 -0.3304
    8CHTO   C59 3178   6.669   9.497   1.069  0.2386 -0.1366 -0.4095
    8CHTO  H116 3179   6.737   9.575   1.104  0.7078 -0.7183 -0.0126
    8CHTO   C70 3180   6.614   9.548   0.931 -0.6352  0.3790 -0.4904
    8CHTO   O46 3181   6.711   9.618   0.855 -0.1906 -0.2253  0.0495
    8CHTO  H103 3182   6.737   9.694   0.903 -1.2440  1.2557 -1.6453
    8CHTO   O39 3183   6.767   9.117   1.057 -0.1239 -0.0382  0.1319
    8CHTO   C60 3184   6.658   9.112   0.962 -0.0024 -0.1009  0.5178
    8CHTO  H117 3185   6.584   9.189   0.983  0.6334  0.3431  1.1450
    8CHTO   C62 3186   6.712   9.119   0.808 -0.3175 -0.4679 -0.6637
    8CHTO  H119 3187   6.752   9.219   0.782 -1.8006  0.0049 -1.2337
    8CHTO   O43 3188   6.816   9.019   0.795  0.0150  0.5195 -0.6482
    8CHTO  H101 3189   6.823   8.962   0.870 -1.6217  3.3327  1.7667
    8CHTO   C66 3190   6.571   9.094   0.717  0.7157  0.1549  0.0114
    8CHTO  H123 3191   6.502   9.177   0.738 -0.1923 -0.2713 -1.1999
    8CHTO   N12 3192   6.594   9.099   0.569  0.1251  0.2893  0.8337
    8CHTO  H110 3193   6.642   9.194   0.551  1.1497 -0.1383  1.2928
    8CHTO  H111 3194   6.495   9.094   0.525  0.9506 -4.4105 -0.8209
    8CHTO   C69 3195   6.512   8.955   0.758 -0.4035 -0.2631 -0.1951
    8CHTO  H126 3196   6.588   8.876   0.744  0.1323  0.7597 -3.6308
    8CHTO   O41 3197   6.473   8.960   0.911 -0.0934  0.0832  0.2365
    8CHTO   C64 3198   6.587   8.967   0.985 -0.2015 -0.7338 -0.3684
    8CHTO  H121 3199   6.659   8.888   0.957  0.2219 -0.7645  0.7728
    8CHTO   C71 3200   6.542   8.941   1.133 -0.5366 -0.0160  0.4378
    8CHTO   O47 3201   6.492   8.807   1.147  0.3575 -0.4922 -0.6194
    8CHTO  H104 3202   6.527   8.772   1.227  1.8730  1.6330 -0.2897
    8CHTO   O34 3203   6.370   8.927   0.680 -0.6486 -0.2139  0.3770
    8CHTO   C49 3204   6.298   8.811   0.719  0.7316 -0.1384  0.9521
    8CHTO   H91 3205   6.363   8.739   0.769  1.7476 -0.3720 -0.6587
    8CHTO   C47 3206   6.250   8.754   0.587 -0.2902  0.0336  0.0686
    8CHTO   H89 3207   6.197   8.660   0.612 -0.4680 -0.5403 -2.3486
    8CHTO   O33 3208   6.368   8.719   0.510 -0.1153  0.0600 -0.5328
    8CHTO   H70 3209   6.338   8.709   0.421  0.5952 -1.0222 -0.6587
    8CHTO   C45 3210   6.147   8.852   0.510 -0.1224 -0.0159  0.4203
    8CHTO   H87 3211   6.200   8.931   0.455  0.1171  0.3385  1.1591
    8CHTO    N8 3212   6.065   8.770   0.413 -0.3793 -0.4962 -0.3452
    8CHTO   H75 3213   5.962   8.762   0.444 -0.2674 -1.9128 -0.3144
    8CHTO   H76 3214   6.071   8.804   0.311 -1.1735  2.9619  0.6876
    8CHTO   C43 3215   6.054   8.937   0.616 -0.3970  0.3357 -0.2439
    8CHTO   H85 3216   6.118   9.024   0.632  1.2007 -0.9170  0.3627
    8CHTO   O29 3217   6.039   8.855   0.740  0.1965  0.4843 -0.0117
    8CHTO   C50 3218   6.167   8.839   0.806 -0.4867  0.0180  0.7327
    8CHTO   H92 3219   6.190   8.922   0.874 -1.3503  0.5952  0.3253
    8CHTO   C54 3220   6.151   8.733   0.901  0.1492 -0.3019 -0.0818
    8CHTO   O36 3221   6.098   8.615   0.847 -0.0022  0.0478  0.4470
    8CHTO   H72 3222   6.096   8.546   0.911  0.3018  0.1433  0.5568
    8CHTO   O27 3223   5.940   8.993   0.557  0.0184 -0.4451 -0.4145
    8CHTO   C37 3224   5.858   9.105   0.582 -0.3129 -0.1028  0.4842
    8CHTO   H79 3225   5.753   9.077   0.597 -1.8818  4.7049 -0.8236
    8CHTO   C38 3226   5.882   9.172   0.715  0.7325  0.4404 -0.4178
    8CHTO   H80 3227   5.991   9.182   0.724  0.7303  2.4832 -2.1942
    8CHTO   O31 3228   5.846   9.066   0.812  0.5396 -0.7818 -0.0877
    8CHTO   H68 3229   5.878   9.093   0.896 -0.1468  2.1074 -0.6938
    8CHTO   C39 3230   5.808   9.310   0.731 -0.7719 -0.1950  0.5884
    8CHTO   H81 3231   5.704   9.284   0.750 -1.4838  0.9147 -1.6001
    8CHTO    N7 3232   5.856   9.373   0.861 -0.2070 -0.9008  0.3687
    8CHTO   H73 3233   5.827   9.323   0.952 -0.3966  0.3902  1.0248
    8CHTO   H74 3234   5.844   9.480   0.862  1.2874 -0.6501 -2.5972
    8CHTO   C40 3235   5.819   9.402   0.603  0.2985 -0.0534 -0.1032
    8CHTO   H82 3236   5.919   9.445   0.602  0.4671 -0.4368 -2.7123
    8CHTO   O26 3237   5.790   9.328   0.483 -0.2410  0.4763  0.2886
    8CHTO   C41 3238   5.869   9.209   0.466  0.3343  0.0700 -0.6980
    8CHTO   H83 3239   5.975   9.230   0.446  0.8627 -1.9862 -0.2063
    8CHTO   C52 3240   5.821   9.131   0.338 -0.6306 -0.2332 -0.0196
    8CHTO   O35 3241   5.703   9.069   0.352  0.1111 -0.1032 -0.0259
    8CHTO   H71 3242   5.675   9.042   0.267  3.2836  0.0414 -1.1659
    8CHTO   O28 3243   5.723   9.509   0.598 -0.0796  0.1425  0.2383
    8CHTO   C42 3244   5.708   9.622   0.502 -0.0757 -0.5374  0.2208
    8CHTO   H84 3245   5.631   9.684   0.548 -1.2260 -1.0026 -1.0344
    8CHTO   C44 3246   5.662   9.591   0.356 -0.0748 -0.7976 -0.6903
    8CHTO   H86 3247   5.736   9.531   0.303 -0.2219  0.2739 -2.1329
    8CHTO   O32 3248   5.549   9.505   0.361 -0.1314 -0.0209  0.2902
    8CHTO   H69 3249   5.573   9.428   0.409  0.0126 -0.5179 -0.5645
    8CHTO   C48 3250   5.641   9.728   0.270  0.6328  0.0380 -1.1048
    8CHTO   H90 3251   5.559   9.788   0.311  1.5438  0.1006  0.6647
    8CHTO    N9 3252   5.595   9.701   0.130  0.0784 -0.2262  0.1867
    8CHTO   H77 3253   5.675   9.724   0.060  1.6685  0.9359  2.3367
    8CHTO   H78 3254   5.572   9.596   0.133  0.7587 -0.3449  1.3904
    8CHTO   C51 3255   5.768   9.818   0.267 -0.0049  0.3872  0.1031
    8CHTO   H93 3256   5.845   9.771   0.207 -0.4371 -2.2416  1.5057
    8CHTO   O30 3257   5.806   9.834   0.402  0.2862 -0.4663  0.8668
    8CHTO   C46 3258   5.835   9.709   0.481 -0.2639 -0.2431 -0.1655
    8CHTO   H88 3259   5.910   9.648   0.432  1.4565  1.8618 -0.2007
    8CHTO   C53 3260   5.887   9.755   0.619  0.1902  0.3918 -0.4670
    8CHTO   O72 3261   5.799   9.844   0.692 -0.1608  0.1288  0.3888
    8CHTO  H199 3262   5.712   9.820   0.668 -0.4691  1.4339  0.1750
    8CHTO   O22 3263   5.737   9.957   0.238  0.0975  0.1739  0.3528
    8CHTO   C31 3264   5.830  10.047   0.165  0.7935 -0.8928  0.2642
    8CHTO   H59 3265   5.785  10.148   0.157  1.3831 -0.6837 -0.5030
    8CHTO   C29 3266   5.964  10.064   0.240  0.1139  0.5163  0.2274
    8CHTO   H57 3267   5.994   9.964   0.275  1.5523  0.3848 -1.3393
    8CHTO   O21 3268   5.940  10.135   0.359 -0.0919  0.2438 -0.1693
    8CHTO   H37 3269   5.868  10.091   0.400  0.2811 -1.9947 -1.8287
    8CHTO   C27 3270   6.084  10.128   0.159  0.0214 -0.2152  0.6427
    8CHTO   H55 3271   6.057  10.234   0.141 -0.6345 -0.5497 -0.4074
    8CHTO    N5 3272   6.219  10.127   0.234 -0.0263  0.4189 -0.2969
    8CHTO   H43 3273   6.234  10.225   0.277 -1.2997 -0.1230  1.4321
    8CHTO   H44 3274   6.303  10.122   0.167 -0.5684  0.2461 -0.9693
    8CHTO   C25 3275   6.095  10.058   0.022 -0.4447 -1.1037  0.9756
    8CHTO   H53 3276   6.131   9.956   0.043  1.1536 -1.3435 -2.5844
    8CHTO   O17 3277   5.966  10.079  -0.034  0.5739 -0.0880  0.3266
    8CHTO   C32 3278   5.856  10.001   0.013 -0.5428  0.5671  0.4611
    8CHTO   H60 3279   5.890   9.898   0.012 -1.5718  0.2210  0.4838
    8CHTO   C36 3280   5.737  10.007  -0.083 -0.0019 -0.0500 -0.0278
    8CHTO   O25 3281   5.677  10.135  -0.087 -0.0670  0.5708  0.3537
    8CHTO   H40 3282   5.588  10.129  -0.115 -0.1993  0.5819  0.7772
    8CHTO   O15 3283   6.218  10.115  -0.084 -0.2641  0.5811  0.2128
    8CHTO   C19 3284   6.322  10.080  -0.179  0.6142  0.3279 -0.3369
    8CHTO   H47 3285   6.268  10.026  -0.258 -0.3809 -0.1026  0.6172
    8CHTO   C20 3286   6.400  10.203  -0.231  0.1830  0.4600 -0.4655
    8CHTO   H48 3287   6.449  10.254  -0.146  0.2882  1.5002 -1.1361
    8CHTO   O19 3288   6.304  10.279  -0.301  0.1238  0.1224 -0.0210
    8CHTO   H35 3289   6.331  10.368  -0.295 -2.3777  0.9620 -0.3316
    8CHTO   C21 3290   6.515  10.161  -0.329  0.3153  0.4664 -0.4784
    8CHTO   H49 3291   6.469  10.119  -0.418  2.0726  0.0094 -1.1975
    8CHTO    N4 3292   6.607  10.268  -0.366 -0.8095 -0.1900 -0.2920
    8CHTO   H41 3293   6.647  10.314  -0.277 -0.1718 -0.5557 -0.3811
    8CHTO   H42 3294   6.541  10.339  -0.413 -1.9182  0.4403  2.1292
    8CHTO   C22 3295   6.594  10.038  -0.274  0.2185  0.1090  0.6536
    8CHTO   H50 3296   6.657  10.072  -0.193 -0.7522  3.3260  0.1095
    8CHTO   O14 3297   6.514   9.930  -0.227  0.2434 -0.2752  0.4500
    8CHTO   C23 3298   6.420   9.968  -0.129  0.0664 -0.4372 -0.0523
    8CHTO   H51 3299   6.473   9.999  -0.038 -5.6423  0.5660  3.1596
    8CHTO   C34 3300   6.350   9.841  -0.073 -0.0730  0.4444 -0.0722
    8CHTO   O23 3301   6.450   9.733  -0.055  1.0174  0.1025  0.3186
    8CHTO   H38 3302   6.520   9.749   0.004  0.8283 -0.1660  0.6231
    8CHTO   O16 3303   6.677   9.977  -0.378  0.6014  0.1646 -0.1878
    8CHTO   C24 3304   6.807   9.885  -0.317  0.4730  0.8829 -0.1131
    8CHTO   H52 3305   6.788   9.851  -0.215  2.0221 -1.3683 -0.5200
    8CHTO   C26 3306   6.939   9.962  -0.331 -0.0987 -0.2283 -0.0640
    8CHTO   H54 3307   6.951   9.993  -0.436  0.1325  1.6432  0.5017
    8CHTO   O20 3308   6.937  10.062  -0.229  0.3671  0.0731 -0.1150
    8CHTO   H36 3309   6.876  10.128  -0.254 -0.0253 -0.1599  0.2398
    8CHTO   C30 3310   7.056   9.863  -0.300  0.0864 -0.2328  0.0008
    8CHTO   H58 3311   7.050   9.845  -0.192 -1.7116  0.3827  0.0336
    8CHTO    N6 3312   7.185   9.933  -0.336 -0.3310  0.0351  0.4577
    8CHTO   H45 3313   7.275   9.891  -0.295 -1.4047  0.1537  3.0825
    8CHTO   H46 3314   7.180  10.035  -0.301  3.5800  0.7512 -0.9129
    8CHTO   C33 3315   7.040   9.725  -0.368  0.3478  0.3605 -0.1042
    8CHTO   H61 3316   7.057   9.741  -0.475 -0.3238 -0.0677 -0.2752
    8CHTO   O18 3317   6.908   9.673  -0.352  0.0625  0.9383 -0.2354
    8CHTO   C28 3318   6.806   9.753  -0.407  0.3199 -0.7259  0.1888
    8CHTO   H56 3319   6.835   9.785  -0.507  0.7779 -0.9946  0.2358
    8CHTO   C35 3320   6.668   9.679  -0.409 -0.5630 -0.1363 -0.6836
    8CHTO   O24 3321   6.663   9.569  -0.494  0.6835  0.5199 -0.8615
    8CHTO   H39 3322   6.576   9.536  -0.505  0.8499  0.0366 -0.7761
    8CHTO    O9 3323   7.139   9.633  -0.326  0.0338 -0.7192  0.1685
    8CHTO   C13 3324   7.116   9.466  -0.373  0.6069 -0.1268 -0.1827
    8CHTO   H26 3325   7.065   9.473  -0.471 -0.0950 -0.3298  0.1634
    8CHTO   C11 3326   7.020   9.392  -0.266  0.1610  0.4961 -0.4757
    8CHTO   H24 3327   6.916   9.424  -0.284 -0.1337 -1.8213 -3.1021
    8CHTO    O8 3328   7.065   9.428  -0.132  0.3467 -0.2956  0.1785
    8CHTO    H3 3329   7.054   9.520  -0.115  0.9601 -0.2930  0.5754
    8CHTO    C9 3330   7.027   9.241  -0.306 -0.3771  0.1768  0.0270
    8CHTO   H22 3331   6.994   9.240  -0.411 -1.6024 -0.1860  0.4046
    8CHTO    N2 3332   6.927   9.160  -0.234 -0.2567 -0.4824 -0.0207
    8CHTO   H10 3333   6.946   9.164  -0.127  1.1050  1.4109 -0.3075
    8CHTO   H11 3334   6.829   9.193  -0.266  0.1707 -0.6293 -1.5093
    8CHTO    C7 3335   7.174   9.179  -0.300 -0.3882  0.0599  0.4694
    8CHTO   H20 3336   7.180   9.121  -0.394 -0.4341 -2.5620  2.0431
    8CHTO    O4 3337   7.275   9.278  -0.296  0.1882 -0.6569 -0.2767
    8CHTO   C14 3338   7.263   9.395  -0.378 -0.5315 -0.4676  0.7057
    8CHTO   H27 3339   7.267   9.366  -0.485 -1.7155  1.2399  0.1688
    8CHTO   C18 3340   7.385   9.475  -0.345  0.3109  0.2558 -0.3790
    8CHTO   O13 3341   7.503   9.408  -0.375 -0.4388 -0.4065 -0.2655
    8CHTO    H7 3342   7.567   9.429  -0.311 -0.3553 -0.3869 -0.3541
    8CHTO    O2 3343   7.205   9.078  -0.190  0.3599 -0.7138  0.0617
    8CHTO    C1 3344   7.314   8.982  -0.208 -0.3929 -0.4450 -0.5960
    8CHTO   H14 3345   7.365   8.975  -0.109 -1.5340  0.6195  0.0745
    8CHTO    C2 3346   7.422   9.001  -0.317 -0.4849  1.1116 -0.4101
    8CHTO   H15 3347   7.364   9.025  -0.407 -1.1275 -0.5044 -0.4524
    8CHTO    O6 3348   7.493   9.119  -0.278  0.1585 -0.1453 -0.0098
    8CHTO    H1 3349   7.516   9.152  -0.363  0.5940 -1.6843 -0.5099
    8CHTO    C3 3350   7.515   8.880  -0.333 -0.3971  0.4171  0.3830
    8CHTO   H16 3351   7.566   8.873  -0.236 -1.8009 -1.9594  1.0070
    8CHTO    N1 3352   7.619   8.896  -0.442  0.2604 -0.2541 -0.3275
    8CHTO    H8 3353   7.685   8.981  -0.430 -0.9830  0.6295  0.3769
    8CHTO    H9 3354   7.678   8.809  -0.468 -1.2514 -0.6461 -2.5290
    8CHTO    C4 3355   7.437   8.752  -0.343  0.1516 -0.6217 -0.3615
    8CHTO   H17 3356   7.388   8.753  -0.441  1.7565  1.0194 -1.1893
    8CHTO    O1 3357   7.340   8.738  -0.238 -0.0193 -0.5175  0.0610
    8CHTO    C5 3358   7.247   8.850  -0.238  0.5209 -0.1544 -0.9915
    8CHTO   H18 3359   7.209   8.861  -0.339  0.0111  1.1121 -0.6759
    8CHTO   C16 3360   7.132   8.801  -0.145  0.2212 -0.0519  0.1877
    8CHTO   O11 3361   7.060   8.691  -0.201 -0.1051  0.2979 -0.5241
    8CHTO    H5 3362   7.101   8.608  -0.189  1.2693  0.9263 -0.7793
    8CHTO    O3 3363   7.511   8.624  -0.340  0.2302  0.0953 -0.0950
    8CHTO    C6 3364   7.446   8.511  -0.410  0.6299  0.3938  0.2824
    8CHTO   H19 3365   7.339   8.524  -0.419  0.7210  0.6389 -0.4265
    8CHTO    C8 3366   7.514   8.497  -0.549 -0.2458 -0.1762  0.0665
    8CHTO   H21 3367   7.622   8.500  -0.534 -0.3422 -1.9415  1.3664
    8CHTO    O7 3368   7.455   8.606  -0.624  0.3178  0.2369  0.3862
    8CHTO    H2 3369   7.364   8.602  -0.646  0.0731 -0.0783  1.4313
    8CHTO   C12 3370   7.469   8.361  -0.621  0.5551  0.5371  0.5812
    8CHTO   H25 3371   7.364   8.372  -0.655 -0.1982  0.1751  2.7219
    8CHTO    N3 3372   7.539   8.331  -0.749  0.6130 -0.1877 -0.7753
    8CHTO   H12 3373   7.593   8.421  -0.774  0.5552  0.1909  0.4495
    8CHTO   H13 3374   7.603   8.243  -0.754 -1.2437 -1.6733  0.7703
    8CHTO   C15 3375   7.473   8.237  -0.519 -0.4205 -0.6356 -0.0612
    8CHTO   H28 3376   7.573   8.203  -0.494 -0.0955  0.1567 -0.2643
    8CHTO   O10 3377   7.397   8.122  -0.563  0.5333 -0.1038 -0.1570
    8CHTO    H4 3378   7.426   8.036  -0.541  0.7203 -0.7364 -2.7726
    8CHTO    O5 3379   7.409   8.266  -0.390  0.8957  0.4636  0.1397
    8CHTO   C10 3380   7.469   8.380  -0.325  0.0418  0.2023  0.1841
    8CHTO   H23 3381   7.575   8.357  -0.315  0.1482  0.5002 -0.2423
    8CHTO   C17 3382   7.418   8.387  -0.179 -0.1798 -0.0571 -0.0431
    8CHTO   O12 3383   7.274   8.387  -0.189  0.2170 -0.1897 -0.2918
    8CHTO    H6 3384   7.244   8.461  -0.239 -0.8455 -0.1767  0.3491
    9CHTO  H203 3385   7.030   5.150   4.905 -0.0647  0.6899  1.7501
    9CHTO   O82 3386   7.083   5.082   4.943  0.0031 -0.5555 -0.4441
    9CHTO  C123 3387   7.216   5.085   4.884 -0.0425 -0.0029 -0.4483
    9CHTO  H227 3388   7.292   5.123   4.955 -1.2344 -0.6607  1.2165
    9CHTO   O77 3389   7.236   4.948   4.868 -0.1932  0.6290 -0.1974
    9CHTO  C118 3390   7.374   4.900   4.838  0.0605 -0.2731  0.0036
    9CHTO  H222 3391   7.456   4.935   4.903 -0.4772  1.6764 -0.3306
    9CHTO  C125 3392   7.371   4.743   4.833  0.2315 -0.4944 -0.5308
    9CHTO   O84 3393   7.332   4.663   4.947 -0.3264  0.5561 -0.5266
    9CHTO  H205 3394   7.277   4.591   4.920 -0.8870  0.5877  0.5115
    9CHTO  C114 3395   7.392   4.959   4.697 -0.1800 -0.4837 -0.9806
    9CHTO  H218 3396   7.315   4.919   4.631 -1.3954 -0.3282  0.3237
    9CHTO  C116 3397   7.376   5.112   4.691  0.2016  0.0762  0.5781
    9CHTO  H220 3398   7.452   5.167   4.751  0.0834  1.1435 -0.2300
    9CHTO   O79 3399   7.404   5.156   4.555 -0.3369 -0.4961 -0.1213
    9CHTO  H201 3400   7.497   5.150   4.545 -0.6554 -2.9573 -2.0521
    9CHTO  C120 3401   7.233   5.153   4.749 -0.3414  0.0763  0.9794
    9CHTO  H224 3402   7.142   5.135   4.688 -0.9830 -0.9367  2.2046
    9CHTO   N21 3403   7.221   5.302   4.768 -0.2591  0.5395  0.5795
    9CHTO  H211 3404   7.173   5.335   4.677 -0.9395 -3.1129 -0.4545
    9CHTO  H212 3405   7.315   5.351   4.790  0.7823 -1.1022 -0.1493
    9CHTO   O75 3406   7.525   4.919   4.652 -0.3905 -0.1640  0.3382
    9CHTO  C112 3407   7.537   4.869   4.486 -0.7444 -0.6833  0.4936
    9CHTO  H216 3408   7.451   4.915   4.434  0.5378  1.5529  0.2660
    9CHTO   O73 3409   7.524   4.731   4.486  0.1319 -0.1729 -0.7596
    9CHTO  C113 3410   7.522   4.663   4.358 -0.1422  0.4540 -0.2290
    9CHTO  H217 3411   7.430   4.693   4.303 -0.4307 -0.3642 -0.2006
    9CHTO  C124 3412   7.508   4.512   4.394  0.6355 -0.0865 -0.3368
    9CHTO   O83 3413   7.387   4.489   4.469 -0.3256 -0.2549  0.8990
    9CHTO  H204 3414   7.382   4.398   4.490 -2.2247 -0.2151  0.7106
    9CHTO  C109 3415   7.659   4.698   4.277  0.6632  0.2661 -0.3041
    9CHTO  H213 3416   7.736   4.635   4.326 -0.7697  0.1246  1.8414
    9CHTO  C110 3417   7.696   4.853   4.286  0.5295 -0.7323  0.4901
    9CHTO  H214 3418   7.627   4.900   4.215  0.3658 -0.4840  0.8139
    9CHTO   O78 3419   7.831   4.871   4.244  0.0691  0.1676 -0.1301
    9CHTO  H200 3420   7.890   4.826   4.302  0.0710  1.0806  0.5857
    9CHTO  C111 3421   7.674   4.916   4.424  0.1204  0.1109  0.0634
    9CHTO  H215 3422   7.754   4.880   4.491 -0.2934 -0.1216  0.4414
    9CHTO   N19 3423   7.685   5.069   4.417 -0.0938 -0.0716  0.6709
    9CHTO  H207 3424   7.688   5.116   4.515 -2.8366  0.9878  0.2888
    9CHTO  H208 3425   7.765   5.107   4.355  0.4758  0.4519  1.7052
    9CHTO   O74 3426   7.650   4.648   4.146 -0.3305  0.0916  0.8326
    9CHTO  C115 3427   7.782   4.575   4.100 -0.1593 -0.2131 -0.3412
    9CHTO  H219 3428   7.870   4.623   4.142 -2.3111  2.2658  1.4955
    9CHTO   O76 3429   7.794   4.417   4.161 -0.2478 -0.0635 -0.2831
    9CHTO  C122 3430   7.723   4.315   4.093  0.5600  0.2583  0.3167
    9CHTO  H226 3431   7.617   4.324   4.116  0.4695  1.4385 -0.5193
    9CHTO  C126 3432   7.770   4.184   4.149 -0.6010  0.5591  0.2080
    9CHTO   O85 3433   7.702   4.065   4.102  0.2611  0.1261  0.1896
    9CHTO  H206 3434   7.766   4.011   4.060  0.8882  1.9671 -1.3329
    9CHTO  C121 3435   7.749   4.323   3.934 -0.6843 -0.3097 -0.7846
    9CHTO  H225 3436   7.859   4.320   3.919 -0.7141  3.8144 -2.4979
    9CHTO   O81 3437   7.690   4.223   3.851  0.4325  0.4430 -0.7645
    9CHTO  H202 3438   7.712   4.140   3.888 -1.3131  0.6045  0.7433
    9CHTO  C119 3439   7.697   4.471   3.884 -0.0081 -0.0993  1.8094
    9CHTO  H223 3440   7.709   4.473   3.776  0.4601 -2.7589  1.7684
    9CHTO  C117 3441   7.787   4.588   3.943 -0.0588  0.7083 -0.1543
    9CHTO  H221 3442   7.750   4.687   3.916 -0.9430  0.1016 -1.2507
    9CHTO   N20 3443   7.927   4.579   3.890 -0.3476  0.0970  0.3327
    9CHTO  H209 3444   7.976   4.670   3.922 -0.9805  0.4533  0.2865
    9CHTO  H210 3445   7.915   4.578   3.782  2.5780 -1.1787 -0.0341
    9CHTO   O80 3446   7.552   4.494   3.900  0.6367 -0.1413  0.2646
    9CHTO  C103 3447   7.472   4.615   3.804 -0.2396 -1.0659  0.3744
    9CHTO  H190 3448   7.515   4.713   3.822  0.2009 -1.2005  0.0554
    9CHTO  C101 3449   7.464   4.600   3.648  0.7603  0.5021  0.2312
    9CHTO  H188 3450   7.428   4.498   3.635  1.6048  0.1419  0.7059
    9CHTO   O68 3451   7.606   4.612   3.593 -0.1462  0.2437  0.2603
    9CHTO  H168 3452   7.599   4.620   3.500 -1.4702 -0.5781  0.2830
    9CHTO   C99 3453   7.359   4.705   3.577 -0.3132  0.1112  0.7502
    9CHTO  H186 3454   7.395   4.810   3.583  0.6744 -0.1752  0.0171
    9CHTO   N17 3455   7.334   4.679   3.432 -0.7360 -0.4360 -0.5934
    9CHTO  H174 3456   7.377   4.584   3.405 -1.2755 -0.5255 -1.1372
    9CHTO  H175 3457   7.380   4.763   3.381  2.6185 -0.6420  1.8876
    9CHTO   C97 3458   7.221   4.708   3.659 -0.4739  0.0965 -0.0319
    9CHTO  H184 3459   7.168   4.614   3.639 -1.9574  0.8256  0.4043
    9CHTO   O64 3460   7.247   4.725   3.799  0.2362 -0.2809  0.2625
    9CHTO  C104 3461   7.318   4.619   3.853 -0.2867  0.3172  0.6100
    9CHTO  H191 3462   7.269   4.524   3.833  0.2969 -0.2524  1.8902
    9CHTO  C108 3463   7.317   4.635   4.009  0.4074  0.6231 -0.1440
    9CHTO   O71 3464   7.185   4.616   4.060  0.1012  0.1817  0.1595
    9CHTO  H171 3465   7.155   4.531   4.032 -0.1887 -0.0293  1.0823
    9CHTO   O62 3466   7.146   4.820   3.616  0.3259  0.3904 -0.5859
    9CHTO   C91 3467   7.016   4.812   3.555 -0.6318 -0.0155  0.0298
    9CHTO  H178 3468   7.038   4.765   3.459  0.3183  1.1929 -0.3597
    9CHTO   C92 3469   6.979   4.957   3.524 -0.3430  0.1737 -0.0332
    9CHTO  H179 3470   7.066   5.005   3.477  0.2198  0.7108  1.5036
    9CHTO   O66 3471   6.879   4.966   3.419  0.3467 -0.2567  0.8047
    9CHTO  H166 3472   6.888   5.044   3.368 -3.0134  0.2624  0.8717
    9CHTO   C93 3473   6.921   5.040   3.649 -0.1428 -0.6371 -0.4013
    9CHTO  H180 3474   6.873   5.124   3.597  2.2321  0.7762 -0.3676
    9CHTO   N16 3475   7.022   5.092   3.746 -0.1936  0.2119  0.2245
    9CHTO  H172 3476   7.120   5.103   3.701 -0.5140  3.7802  0.2574
    9CHTO  H173 3477   6.993   5.189   3.785  2.4085  0.3286  1.9857
    9CHTO   C94 3478   6.803   4.953   3.720 -0.3061 -0.2349 -0.5915
    9CHTO  H181 3479   6.818   4.946   3.828  3.9892  1.6792 -0.9768
    9CHTO   O61 3480   6.790   4.823   3.671  0.2626 -0.5076  0.3795
    9CHTO   C95 3481   6.908   4.744   3.647 -0.1994  0.4038  0.6544
    9CHTO  H182 3482   6.954   4.710   3.740 -0.1297 -0.5747  0.2676
    9CHTO  C106 3483   6.863   4.613   3.574  0.2471 -0.1595  0.1953
    9CHTO   O69 3484   6.969   4.522   3.555 -0.3799 -0.0387 -0.5059
    9CHTO  H169 3485   7.016   4.542   3.476 -1.1802  0.0254 -0.9737
    9CHTO   O63 3486   6.659   5.033   3.686 -0.4844 -0.5002 -0.8131
    9CHTO   C96 3487   6.540   5.020   3.805 -0.3622 -0.1681 -0.6208
    9CHTO  H183 3488   6.586   5.049   3.899  1.0475 -3.4074 -0.2498
    9CHTO   C98 3489   6.475   4.888   3.822 -0.0136  0.0671  0.5827
    9CHTO  H185 3490   6.434   4.862   3.723  0.2171  0.2550  0.4384
    9CHTO   O67 3491   6.576   4.790   3.849  0.2023  0.1838  0.3188
    9CHTO  H167 3492   6.607   4.763   3.764  1.4910 -1.0716  1.1741
    9CHTO  C102 3493   6.356   4.890   3.935  0.3753  0.4372  0.9315
    9CHTO  H189 3494   6.403   4.906   4.033 -1.1555 -1.8164  2.0539
    9CHTO   N18 3495   6.273   4.765   3.947  0.5849  0.2520 -0.1539
    9CHTO  H176 3496   6.286   4.713   4.041 -0.9634  1.0779  0.5325
    9CHTO  H177 3497   6.172   4.800   3.927  1.5934  2.3146 -1.8469
    9CHTO  C105 3498   6.267   5.016   3.917 -0.5236  0.4850 -0.6965
    9CHTO  H192 3499   6.195   5.000   3.837 -1.8858  0.9887  0.4207
    9CHTO   O65 3500   6.339   5.139   3.891  0.2034 -0.6542  0.3741
    9CHTO  C100 3501   6.435   5.133   3.781  0.2417  0.4174  0.4559
    9CHTO  H187 3502   6.382   5.111   3.687 -1.1110  0.7480  1.1364
    9CHTO  C107 3503   6.484   5.280   3.773  0.2517  0.6942 -0.8491
    9CHTO   O70 3504   6.385   5.370   3.732  0.9081  0.3181 -0.7229
    9CHTO  H170 3505   6.331   5.384   3.807 -0.4358 -0.6501 -1.4919
    9CHTO   O57 3506   6.180   5.038   4.069  0.0855 -0.0399 -0.0640
    9CHTO   C85 3507   6.057   5.112   4.076 -0.1248 -0.7131 -0.3458
    9CHTO  H157 3508   5.982   5.046   4.029 -1.0524  0.7524 -0.9517
    9CHTO   C83 3509   6.058   5.246   3.994 -0.8533  0.3965  0.4161
    9CHTO  H155 3510   6.075   5.227   3.888 -0.1760 -0.0283  0.6000
    9CHTO   O56 3511   6.175   5.324   4.029  0.1549  0.0532 -0.2909
    9CHTO  H135 3512   6.209   5.366   3.952  2.1092  1.5393  1.3560
    9CHTO   C81 3513   5.923   5.321   4.016  0.0709 -0.0077  0.7654
    9CHTO  H153 3514   5.842   5.255   3.986  0.1423  0.0578  0.4224
    9CHTO   N14 3515   5.904   5.439   3.923  0.4253  0.4080 -0.0004
    9CHTO  H141 3516   5.856   5.410   3.832  0.1723  1.3952 -0.1848
    9CHTO  H142 3517   5.994   5.489   3.895 -0.4296  3.3879  2.2817
    9CHTO   C79 3518   5.903   5.352   4.170 -0.0449  0.2154  0.5222
    9CHTO  H151 3519   5.812   5.413   4.177 -0.1738  0.3322 -1.9041
    9CHTO   O52 3520   5.898   5.227   4.243  0.0584  0.4642  0.3195
    9CHTO   C86 3521   6.020   5.144   4.229  0.0188 -0.3904  1.3565
    9CHTO  H158 3522   6.094   5.205   4.284 -2.0900  2.3580  1.2389
    9CHTO   C90 3523   6.004   5.010   4.312  0.3862 -0.3290  0.0556
    9CHTO   O60 3524   5.973   5.032   4.447  0.6154 -0.0253  0.1553
    9CHTO  H138 3525   6.026   5.099   4.486 -1.0741  1.9200 -0.8025
    9CHTO   O50 3526   6.006   5.430   4.232 -0.5402 -0.1774  0.9649
    9CHTO   C73 3527   6.042   5.545   4.316  0.0005  0.2474 -0.6445
    9CHTO  H145 3528   5.959   5.563   4.385  0.5122  1.2954 -0.3005
    9CHTO   C74 3529   6.061   5.674   4.224  0.1662 -0.0234 -0.3872
    9CHTO  H146 3530   5.966   5.686   4.171 -1.4002  0.4576  2.4025
    9CHTO   O54 3531   6.080   5.790   4.309 -0.0688  0.5648 -0.3205
    9CHTO  H133 3532   6.100   5.862   4.251 -0.0357  0.5905 -0.2760
    9CHTO   C75 3533   6.182   5.644   4.133 -0.7543  0.4790  0.3967
    9CHTO  H147 3534   6.150   5.574   4.055 -0.3321  2.4359 -1.5739
    9CHTO   N13 3535   6.210   5.765   4.046 -0.1311 -0.3639  0.2923
    9CHTO  H139 3536   6.210   5.856   4.103 -0.6226  1.4410 -2.5025
    9CHTO  H140 3537   6.309   5.760   4.005  0.0197 -0.1461  0.6321
    9CHTO   C76 3538   6.316   5.582   4.206  0.3873 -0.3895 -0.0998
    9CHTO  H148 3539   6.365   5.667   4.255  1.5414 -0.3783 -1.2498
    9CHTO   O49 3540   6.288   5.486   4.310 -0.0696 -0.6286 -0.8310
    9CHTO   C77 3541   6.174   5.506   4.390  0.5443  0.3633  1.2835
    9CHTO  H149 3542   6.197   5.590   4.454  1.3936  0.9196  0.2700
    9CHTO   C88 3543   6.173   5.393   4.490  0.1211  0.6250 -0.7311
    9CHTO   O58 3544   6.066   5.412   4.619 -0.4465  0.8117 -0.2148
    9CHTO  H136 3545   5.981   5.410   4.579 -0.7247  1.5449  0.3108
    9CHTO   O51 3546   6.404   5.515   4.107 -0.2940 -0.0273 -0.3619
    9CHTO   C78 3547   6.567   5.516   4.155  0.4321 -0.1637 -0.3112
    9CHTO  H150 3548   6.580   5.543   4.262 -0.7174 -2.7452  0.5336
    9CHTO   C80 3549   6.642   5.612   4.070 -0.2886 -0.3524 -0.2767
    9CHTO  H152 3550   6.617   5.590   3.964 -0.0248  2.6943 -1.0021
    9CHTO   O55 3551   6.593   5.744   4.092  0.1979 -0.5156  0.0899
    9CHTO  H134 3552   6.501   5.759   4.082  0.1995  0.8420  1.8137
    9CHTO   C84 3553   6.793   5.596   4.101  0.4456 -0.3108 -0.0355
    9CHTO  H156 3554   6.800   5.629   4.204 -1.7145 -1.1985  0.4268
    9CHTO   N15 3555   6.881   5.679   4.008  0.0348 -0.7256 -0.1050
    9CHTO  H143 3556   6.962   5.620   3.971  0.6824 -0.3788  0.7445
    9CHTO  H144 3557   6.919   5.767   4.056 -0.5142  0.3321 -1.5479
    9CHTO   C87 3558   6.844   5.448   4.109 -0.1967  0.5066  0.4253
    9CHTO  H159 3559   6.846   5.398   4.012 -0.2816  1.8422 -0.2787
    9CHTO   O53 3560   6.752   5.373   4.202  0.0450  0.0766  0.1850
    9CHTO   C82 3561   6.620   5.373   4.149 -0.2322  0.9842  0.0420
    9CHTO  H154 3562   6.623   5.321   4.053  0.8591  0.5769  0.2890
    9CHTO   C89 3563   6.521   5.280   4.243 -0.2960 -0.0446  0.6498
    9CHTO   O59 3564   6.545   5.141   4.208 -0.3607  0.4582  0.1407
    9CHTO  H137 3565   6.497   5.076   4.256 -0.9453  0.0069 -1.0487
    9CHTO   O45 3566   6.997   5.445   4.171  0.2675  0.4772 -0.0130
    9CHTO   C67 3567   7.044   5.324   4.224 -0.5161 -1.0334  0.1760
    9CHTO  H124 3568   6.956   5.270   4.261 -1.8721  0.8235 -0.2608
    9CHTO   C65 3569   7.114   5.221   4.125 -0.0384 -0.0780  0.6527
    9CHTO  H122 3570   7.160   5.289   4.054  0.2805  0.3247  1.2453
    9CHTO   O44 3571   7.012   5.135   4.074  0.1294  0.0847 -0.1905
    9CHTO  H102 3572   7.051   5.051   4.055  0.2708  0.1479 -0.1793
    9CHTO   C63 3573   7.239   5.147   4.187  0.0381 -0.0785 -0.0379
    9CHTO  H120 3574   7.323   5.216   4.192  0.6557 -0.9093  1.2695
    9CHTO   N11 3575   7.307   5.035   4.110 -0.5157  0.6399  0.5982
    9CHTO  H108 3576   7.230   4.971   4.072  0.6313  0.2264 -1.0783
    9CHTO  H109 3577   7.367   5.072   4.030  1.2520  0.7931  1.9715
    9CHTO   C61 3578   7.198   5.109   4.333 -0.4071 -0.6254  0.3960
    9CHTO  H118 3579   7.286   5.055   4.370 -0.2459 -1.7877 -1.6370
    9CHTO   O40 3580   7.178   5.223   4.418  0.2894  0.3287  0.4947
    9CHTO   C68 3581   7.140   5.347   4.348 -0.9940 -0.0176 -0.1442
    9CHTO  H125 3582   7.233   5.392   4.307  1.6667 -3.7475  1.5323
    9CHTO   C72 3583   7.077   5.448   4.443 -0.2167 -0.2682 -0.3789
    9CHTO   O48 3584   7.177   5.493   4.541 -0.7116 -0.0625  0.0282
    9CHTO  H105 3585   7.131   5.538   4.609 -1.6022 -2.2987  0.9869
    9CHTO   O38 3586   7.080   5.022   4.339  0.0424 -0.1731 -0.7215
    9CHTO   C55 3587   7.052   4.953   4.464  0.2778  0.3323  0.3222
    9CHTO  H112 3588   7.112   5.002   4.542 -0.4293 -0.2215  1.2300
    9CHTO   C56 3589   7.076   4.791   4.465 -0.7859 -0.2229 -0.4911
    9CHTO  H113 3590   7.003   4.752   4.392 -1.8736  0.8970 -0.0190
    9CHTO   O42 3591   7.206   4.763   4.419 -0.0755  0.1170  0.1850
    9CHTO  H100 3592   7.270   4.817   4.460 -0.7386  0.3120  0.9848
    9CHTO   C57 3593   7.041   4.738   4.606 -0.4449 -0.7026 -0.4197
    9CHTO  H114 3594   7.110   4.780   4.679 -0.2819  0.9246 -1.4924
    9CHTO   N10 3595   7.051   4.590   4.608 -0.5021 -0.0942 -0.3827
    9CHTO  H106 3596   7.104   4.548   4.524 -0.0168  1.1973 -0.7415
    9CHTO  H107 3597   7.085   4.550   4.703  0.1653 -0.1539 -0.6461
    9CHTO   C58 3598   6.893   4.778   4.645 -0.2103 -0.3595 -0.7119
    9CHTO  H115 3599   6.831   4.731   4.566  0.5637  0.7757 -2.0232
    9CHTO   O37 3600   6.877   4.924   4.635 -0.6673  0.0766 -0.1511
    9CHTO   C59 3601   6.902   4.979   4.508 -0.3202  0.2305 -0.6004
    9CHTO  H116 3602   6.830   4.928   4.445 -0.9148 -0.3657  0.5570
    9CHTO   C70 3603   6.869   5.125   4.534 -0.1455 -0.5498  0.0858
    9CHTO   O46 3604   6.796   5.182   4.427 -0.3810 -0.3156  0.3245
    9CHTO  H103 3605   6.831   5.153   4.345  0.7716 -1.3564  1.1710
    9CHTO   O39 3606   6.858   4.734   4.801  0.2785  0.4902 -0.0726
    9CHTO   C60 3607   6.717   4.758   4.830 -0.0204 -0.3292 -0.3334
    9CHTO  H117 3608   6.666   4.837   4.776 -0.8047  0.4286  1.4759
    9CHTO   C62 3609   6.638   4.624   4.799  0.5222 -0.5833 -0.0339
    9CHTO  H119 3610   6.646   4.617   4.689  2.6831  0.1074  0.0570
    9CHTO   O43 3611   6.699   4.514   4.862 -0.9858  0.8910 -0.5992
    9CHTO  H101 3612   6.767   4.478   4.808 -0.5356 -0.8675  1.0758
    9CHTO   C66 3613   6.486   4.633   4.837  0.4975 -0.5603  0.2978
    9CHTO  H123 3614   6.443   4.722   4.791 -0.5985  0.4137  3.0802
    9CHTO   N12 3615   6.410   4.513   4.789  0.3975  0.5343  0.1572
    9CHTO  H110 3616   6.328   4.514   4.859 -0.3009  2.0146 -0.6747
    9CHTO  H111 3617   6.374   4.527   4.688 -1.4219 -2.5724  0.2975
    9CHTO   C69 3618   6.478   4.651   4.993  0.1020  0.1671  0.3577
    9CHTO  H126 3619   6.521   4.570   5.056 -0.0201 -1.4099 -1.5509
    9CHTO   O41 3620   6.552   4.787   5.033  0.1378  0.0592 -0.3069
    9CHTO   C64 3621   6.710   4.802   4.975  0.8350 -0.2577 -0.3357
    9CHTO  H121 3622   6.775   4.742   5.042  0.5053 -1.8385 -1.3891
    9CHTO   C71 3623   6.750   4.946   4.998 -0.2575 -0.6706  0.2185
    9CHTO   O47 3624   6.749   4.991   5.132 -0.0896  0.3332 -0.1604
    9CHTO  H104 3625   6.758   5.084   5.131 -0.5634  0.4247 -4.0544
    9CHTO   O34 3626   6.324   4.650   5.033 -0.0297 -0.3184 -0.2925
    9CHTO   C49 3627   6.233   4.708   5.154 -0.2518  0.0819  0.0478
    9CHTO   H91 3628   6.134   4.736   5.119  0.2456 -0.3863 -1.7932
    9CHTO   C47 3629   6.293   4.835   5.215  0.5285  0.4969 -0.2065
    9CHTO   H89 3630   6.205   4.873   5.271  0.0027 -1.0558  0.0620
    9CHTO   O33 3631   6.328   4.930   5.111 -0.3476  0.5167 -0.6129
    9CHTO   H70 3632   6.409   4.909   5.068 -0.1923  2.9055 -1.5793
    9CHTO   C45 3633   6.420   4.799   5.308  0.1049 -0.4236  0.6833
    9CHTO   H87 3634   6.513   4.816   5.251 -0.1904 -1.3318 -0.0915
    9CHTO    N8 3635   6.428   4.898   5.424  0.3578 -0.3771  0.6471
    9CHTO   H75 3636   6.401   4.848   5.516 -1.1123 -0.9650 -0.0967
    9CHTO   H76 3637   6.532   4.925   5.439 -0.1976  1.8074  0.7876
    9CHTO   C43 3638   6.428   4.642   5.334  0.4228 -0.1970  0.7670
    9CHTO   H85 3639   6.459   4.597   5.240  1.1566 -3.1302  2.3320
    9CHTO   O29 3640   6.299   4.591   5.374  0.0841  0.3147 -0.1216
    9CHTO   C50 3641   6.209   4.593   5.264  0.2713 -0.0184  0.2753
    9CHTO   H92 3642   6.211   4.494   5.218 -1.9954 -0.1602  0.4548
    9CHTO   C54 3643   6.071   4.601   5.326 -0.2287  0.0745 -0.2893
    9CHTO   O36 3644   5.964   4.591   5.231 -0.7748 -0.4757  0.0212
    9CHTO   H72 3645   5.976   4.518   5.172  0.5497 -1.5298  1.5714
    9CHTO   O27 3646   6.536   4.606   5.424  0.1205 -0.0414  0.6690
    9CHTO   C37 3647   6.677   4.604   5.445  0.3013 -0.3473 -0.0625
    9CHTO   H79 3648   6.702   4.514   5.503  1.7260 -0.0851 -0.2588
    9CHTO   C38 3649   6.751   4.602   5.313  0.2126  0.0036 -0.3715
    9CHTO   H80 3650   6.718   4.684   5.248  0.2003  1.1698  1.0719
    9CHTO   O31 3651   6.719   4.479   5.250 -0.0584 -0.3371 -0.6512
    9CHTO   H68 3652   6.750   4.482   5.161 -0.3816  0.9405 -0.7229
    9CHTO   C39 3653   6.908   4.612   5.344  0.1796 -1.1921 -0.5828
    9CHTO   H81 3654   6.934   4.518   5.394  1.3603 -1.4900 -1.7340
    9CHTO    N7 3655   6.994   4.612   5.211  0.3985  0.8304  0.4178
    9CHTO   H73 3656   6.942   4.602   5.117 -0.2372  1.9736  0.6406
    9CHTO   H74 3657   7.093   4.569   5.216  0.6545  1.4247  0.4503
    9CHTO   C40 3658   6.943   4.728   5.447 -0.2718  0.2148 -0.1042
    9CHTO   H82 3659   6.924   4.818   5.389  0.2392  0.4237  0.0485
    9CHTO   O26 3660   6.859   4.726   5.562 -0.6053  0.7660  0.0783
    9CHTO   C41 3661   6.718   4.726   5.538 -0.7337 -0.0797 -0.1733
    9CHTO   H83 3662   6.703   4.820   5.484 -2.6538  0.2597  0.8928
    9CHTO   C52 3663   6.643   4.731   5.676 -0.6260  0.1321 -0.0227
    9CHTO   O35 3664   6.650   4.606   5.755  0.5374 -0.1781  0.1970
    9CHTO   H71 3665   6.703   4.611   5.832  0.9604 -0.5801 -0.0658
    9CHTO   O28 3666   7.079   4.730   5.496  0.1883  0.1375  0.3113
    9CHTO   C42 3667   7.129   4.848   5.562  1.0077  0.3942  0.1662
    9CHTO   H84 3668   7.236   4.824   5.557  0.8818 -0.1228 -0.1165
    9CHTO   C44 3669   7.092   4.856   5.719 -0.3095  0.9512 -0.4171
    9CHTO   H86 3670   7.003   4.797   5.742  0.4509  0.4765  1.4721
    9CHTO   O32 3671   7.196   4.785   5.791 -0.1430 -0.3750 -0.5034
    9CHTO   H69 3672   7.174   4.702   5.830 -1.1501  0.0683 -0.1185
    9CHTO   C48 3673   7.080   5.009   5.770 -0.2588 -0.6377  0.5983
    9CHTO   H90 3674   7.179   5.045   5.797 -0.9787  1.3388  0.7422
    9CHTO    N9 3675   6.990   5.020   5.891 -0.3074  0.0661 -0.2201
    9CHTO   H77 3676   6.896   4.968   5.884  1.8881 -4.2928  0.7318
    9CHTO   H78 3677   6.989   5.115   5.943 -0.4401 -0.6776  1.1734
    9CHTO   C51 3678   7.025   5.100   5.657  0.4612 -0.5406 -0.1151
    9CHTO   H93 3679   6.935   5.052   5.619 -2.2863  2.3656  2.3857
    9CHTO   O30 3680   7.133   5.096   5.554  0.3681 -0.4510 -0.7180
    9CHTO   C46 3681   7.108   4.985   5.479 -0.4930  0.4404 -0.3571
    9CHTO   H88 3682   7.006   4.978   5.440 -0.7024 -1.6533  0.4890
    9CHTO   C53 3683   7.200   4.996   5.358  0.9535  0.2540 -0.2630
    9CHTO   O72 3684   7.161   4.908   5.249  0.0982  0.0500 -0.0673
    9CHTO  H199 3685   7.220   4.836   5.239 -0.3145 -0.3014 -0.0065
    9CHTO   O22 3686   6.999   5.245   5.683  0.4567  0.0768  0.1460
    9CHTO   C31 3687   6.913   5.324   5.588 -0.8058  1.0056 -0.4074
    9CHTO   H59 3688   6.902   5.426   5.632  1.6793  1.6288 -1.1546
    9CHTO   C29 3689   6.985   5.351   5.453 -0.2203  0.3754 -0.3336
    9CHTO   H57 3690   7.022   5.258   5.408  1.7663  0.9960 -0.0635
    9CHTO   O21 3691   7.108   5.428   5.485 -0.4387  0.0990  0.3015
    9CHTO   H37 3692   7.169   5.446   5.416  0.9597  3.0558  2.1863
    9CHTO   C27 3693   6.900   5.428   5.348  0.3998 -0.2508  0.8621
    9CHTO   H55 3694   6.890   5.532   5.382  1.1359  0.0529  0.1617
    9CHTO    N5 3695   6.960   5.431   5.209 -0.3358 -0.2121 -0.5687
    9CHTO   H43 3696   6.881   5.400   5.142 -0.8545 -2.3847  1.0059
    9CHTO   H44 3697   7.048   5.368   5.207 -0.4411 -0.3879  0.1854
    9CHTO   C25 3698   6.758   5.362   5.333 -0.7229 -0.3455 -0.4772
    9CHTO   H53 3699   6.767   5.263   5.288 -0.8099 -0.5556 -0.0335
    9CHTO   O17 3700   6.700   5.360   5.469 -0.5745 -0.2199  0.1180
    9CHTO   C32 3701   6.773   5.271   5.560  0.0969  0.0542  0.4083
    9CHTO   H60 3702   6.778   5.176   5.505  1.3162 -0.8666  2.0833
    9CHTO   C36 3703   6.684   5.243   5.689  0.0941 -0.1115 -0.0335
    9CHTO   O25 3704   6.559   5.179   5.658 -0.1032  0.1384  0.1945
    9CHTO   H40 3705   6.570   5.086   5.649 -0.3529  0.3502 -2.3881
    9CHTO   O15 3706   6.664   5.429   5.249 -0.1265  0.1062 -0.3968
    9CHTO   C19 3707   6.563   5.397   5.142 -0.1049  0.1547 -0.9215
    9CHTO   H47 3708   6.512   5.490   5.114  0.2740  0.5032 -0.4607
    9CHTO   C20 3709   6.617   5.326   5.022  0.2748  0.2247  0.1419
    9CHTO   H48 3710   6.657   5.225   5.041  1.7512  0.9090  0.7159
    9CHTO   O19 3711   6.720   5.411   4.981  1.1051  0.1494  0.3900
    9CHTO   H35 3712   6.740   5.384   4.893 -2.9005 -0.6544 -0.3939
    9CHTO   C21 3713   6.498   5.313   4.912  0.2765 -0.0592  0.4513
    9CHTO   H49 3714   6.459   5.414   4.895 -1.6582 -0.9751 -0.6686
    9CHTO    N4 3715   6.532   5.256   4.780  0.2612 -0.1583 -0.3668
    9CHTO   H41 3716   6.491   5.319   4.702 -0.2124  1.2471  1.0084
    9CHTO   H42 3717   6.493   5.156   4.768 -0.1688 -0.1054  0.5771
    9CHTO   C22 3718   6.377   5.241   4.976  0.6338  0.9394 -0.0037
    9CHTO   H50 3719   6.398   5.135   4.971  1.0814  1.1088 -1.8375
    9CHTO   O14 3720   6.338   5.288   5.102  0.2689  0.7307 -0.4329
    9CHTO   C23 3721   6.446   5.296   5.197  0.1110  0.0699  0.0765
    9CHTO   H51 3722   6.480   5.193   5.214 -2.3626 -0.6562  0.8242
    9CHTO   C34 3723   6.381   5.346   5.330 -0.1506 -0.0626 -0.2412
    9CHTO   O23 3724   6.256   5.280   5.357 -0.7732  0.8633  0.1294
    9CHTO   H38 3725   6.260   5.218   5.426  2.5479 -0.8078 -1.4435
    9CHTO   O16 3726   6.258   5.257   4.901 -0.5097  0.2585 -0.2675
    9CHTO   C24 3727   6.154   5.128   4.940  0.1868 -0.2846 -0.6494
    9CHTO   H52 3728   6.176   5.087   5.039  0.7603  1.1758 -0.1575
    9CHTO   C26 3729   6.157   5.023   4.828 -0.0293 -0.1883 -0.5525
    9CHTO   H54 3730   6.131   5.072   4.731 -0.4706  0.4688 -0.1051
    9CHTO   O20 3731   6.288   4.968   4.819  0.0391  0.0151  0.1549
    9CHTO   H36 3732   6.287   4.899   4.755  1.1032  0.8607 -0.7967
    9CHTO   C30 3733   6.054   4.910   4.851  0.2058 -0.2887  0.5952
    9CHTO   H58 3734   6.073   4.850   4.941 -0.2597  0.1456  0.9967
    9CHTO    N6 3735   6.052   4.801   4.752 -0.0863 -0.4767 -0.5354
    9CHTO   H45 3736   6.122   4.810   4.670 -0.1327  2.5942 -0.2829
    9CHTO   H46 3737   6.054   4.703   4.796  1.7678  1.7238  4.6308
    9CHTO   C33 3738   5.913   4.975   4.878 -0.0980 -0.2373 -0.1553
    9CHTO   H61 3739   5.880   5.019   4.783  0.3719 -1.5156 -0.9242
    9CHTO   O18 3740   5.923   5.078   4.980  0.0387 -0.4943 -0.3548
    9CHTO   C28 3741   6.011   5.179   4.947 -0.5882 -0.5638  0.3570
    9CHTO   H56 3742   5.999   5.226   4.849  1.1790 -1.6793 -0.4256
    9CHTO   C35 3743   5.985   5.294   5.052 -0.2897  0.5110  0.2075
    9CHTO   O24 3744   6.005   5.270   5.195 -0.1780 -0.2382  0.0224
    9CHTO   H39 3745   5.975   5.342   5.247 -1.5742  1.2155 -2.6832
    9CHTO    O9 3746   5.816   4.876   4.908  0.1758  0.6120 -0.2866
    9CHTO   C13 3747   5.675   4.902   4.846 -0.4267 -0.0191  0.9838
    9CHTO   H26 3748   5.681   4.935   4.740  0.7707  0.0466  1.0598
    9CHTO   C11 3749   5.595   5.005   4.933  0.3199 -0.9605 -0.2273
    9CHTO   H24 3750   5.601   5.103   4.883  0.9456 -0.1076  1.4455
    9CHTO    O8 3751   5.644   5.016   5.067 -0.1828 -0.2130 -0.5119
    9CHTO    H3 3752   5.711   5.080   5.081 -2.3381  1.9051  0.4104
    9CHTO    C9 3753   5.439   4.978   4.934 -0.7166 -0.1890 -0.6969
    9CHTO   H22 3754   5.412   4.971   4.827 -3.1800  1.4480 -0.2077
    9CHTO    N2 3755   5.355   5.089   4.987 -0.1107 -0.0282  0.5935
    9CHTO   H10 3756   5.341   5.076   5.094 -0.8426  1.7648  0.7521
    9CHTO   H11 3757   5.394   5.185   4.956  0.2667 -0.8168 -1.4379
    9CHTO    C7 3758   5.428   4.845   5.010  0.3264 -0.7453 -0.1466
    9CHTO   H20 3759   5.321   4.824   4.991 -0.0160  0.5466  0.3138
    9CHTO    O4 3760   5.514   4.735   4.968  0.5298  0.5488  0.0185
    9CHTO   C14 3761   5.598   4.754   4.847 -0.1714  0.4888  0.0365
    9CHTO   H27 3762   5.536   4.738   4.756  0.0386 -0.5095  0.0642
    9CHTO   C18 3763   5.703   4.639   4.843  0.0395  0.3689  0.2304
    9CHTO   O13 3764   5.657   4.503   4.842  0.9452  0.0346  0.3918
    9CHTO    H7 3765   5.575   4.503   4.795  2.1896  0.5248 -1.8421
    9CHTO    O2 3766   5.440   4.862   5.168 -0.0805  0.5756 -0.0739
    9CHTO    C1 3767   5.379   4.750   5.235 -0.4510  0.4231 -0.0574
    9CHTO   H14 3768   5.362   4.662   5.169 -2.2437  1.5453 -1.1266
    9CHTO    C2 3769   5.241   4.781   5.301 -0.1633  0.0875  0.5174
    9CHTO   H15 3770   5.257   4.882   5.342 -0.1741  0.9571 -1.5266
    9CHTO    O6 3771   5.136   4.771   5.204 -0.6888  0.2308  0.0723
    9CHTO    H1 3772   5.120   4.683   5.177  0.3258  0.1717 -0.3646
    9CHTO    C3 3773   5.201   4.681   5.421  0.0040  0.8421  0.8479
    9CHTO   H16 3774   5.178   4.577   5.393 -0.4497  0.4855  2.4760
    9CHTO    N1 3775   5.080   4.727   5.496  0.0515 -0.2880 -0.1756
    9CHTO    H8 3776   5.006   4.649   5.509 -0.3333  0.2422  0.9012
    9CHTO    H9 3777   5.032   4.814   5.453  0.8619  0.3251  0.1420
    9CHTO    C4 3778   5.325   4.666   5.518  0.5010 -0.6829 -0.1949
    9CHTO   H17 3779   5.345   4.760   5.569  2.1065 -0.9864 -0.2209
    9CHTO    O1 3780   5.440   4.622   5.446  0.3409  0.3072  0.7901
    9CHTO    C5 3781   5.484   4.720   5.349  0.6582 -0.4142 -0.7667
    9CHTO   H18 3782   5.496   4.815   5.400 -2.1876 -1.4810  2.0825
    9CHTO   C16 3783   5.618   4.676   5.287 -0.3242  0.0790  0.1303
    9CHTO   O11 3784   5.620   4.552   5.212  0.0916 -0.2387  0.0845
    9CHTO    H5 3785   5.603   4.583   5.125  0.1997  1.3162  0.5884
    9CHTO    O3 3786   5.319   4.558   5.613  0.1336 -0.4301  0.2428
    9CHTO    C6 3787   5.397   4.575   5.739 -0.2505 -0.5340  0.2979
    9CHTO   H19 3788   5.464   4.660   5.734  1.0199 -1.6457 -2.2409
    9CHTO    C8 3789   5.311   4.587   5.866  0.2228 -0.2369 -0.2124
    9CHTO   H21 3790   5.240   4.504   5.865  1.1518 -1.0357 -0.2832
    9CHTO    O7 3791   5.227   4.702   5.839  0.3419 -0.0939 -0.3494
    9CHTO    H2 3792   5.225   4.762   5.910 -0.1871  0.2675 -0.6646
    9CHTO   C12 3793   5.396   4.587   6.000 -0.3148  0.6904 -0.4565
    9CHTO   H25 3794   5.456   4.680   6.006  1.6526 -0.6585  1.6786
    9CHTO    N3 3795   5.312   4.591   6.121 -0.0851 -1.1089  0.7226
    9CHTO   H12 3796   5.381   4.604   6.203  1.3897  0.7182 -0.7519
    9CHTO   H13 3797   5.248   4.505   6.130 -0.3829 -0.8037  1.5019
    9CHTO   C15 3798   5.491   4.465   5.995  0.2237 -0.6005  1.1105
    9CHTO   H28 3799   5.425   4.378   6.004 -0.4700 -0.1631  0.2647
    9CHTO   O10 3800   5.597   4.462   6.108 -0.1178 -0.1486  0.1830
    9CHTO    H4 3801   5.572   4.516   6.181  0.8184 -1.6256  1.6441
    9CHTO    O5 3802   5.570   4.457   5.874 -0.4349  0.0612 -0.3981
    9CHTO   C10 3803   5.497   4.448   5.753  0.2021 -0.3449 -0.1590
    9CHTO   H23 3804   5.450   4.350   5.755 -0.3267 -0.0989 -0.4655
    9CHTO   C17 3805   5.596   4.446   5.637  0.3084  0.1094  0.0836
    9CHTO   O12 3806   5.704   4.349   5.654 -0.0172  0.2266  0.1504
    9CHTO    H6 3807   5.668   4.262   5.649  0.1675  0.1543  0.0837
   10CHTO  H203 3808   6.134   7.037  -1.531  1.7627 -3.3538  0.6532
   10CHTO   O82 3809   6.120   7.081  -1.449  0.2141 -0.4604 -1.1127
   10CHTO  C123 3810   5.982   7.063  -1.413  0.4250 -0.5104 -0.1180
   10CHTO  H227 3811   5.920   7.122  -1.483  1.6666 -1.2226 -1.8541
   10CHTO   O77 3812   5.960   6.918  -1.442  0.2266 -0.0842 -0.1989
   10CHTO  C118 3813   5.826   6.882  -1.407  0.1697 -0.6641  0.4231
   10CHTO  H222 3814   5.760   6.947  -1.466  2.9069  0.0880 -1.9036
   10CHTO  C125 3815   5.794   6.738  -1.440  0.0487 -0.0034 -0.3228
   10CHTO   O84 3816   5.841   6.715  -1.573 -0.6374 -0.5090 -0.4708
   10CHTO  H205 3817   5.931   6.743  -1.574 -0.5909 -0.3263  3.3054
   10CHTO  C114 3818   5.800   6.905  -1.254 -0.2697  0.4697 -0.3496
   10CHTO  H218 3819   5.861   6.838  -1.194 -0.0025  1.4735  0.5101
   10CHTO  C116 3820   5.828   7.052  -1.203  0.0867  0.5268 -0.7235
   10CHTO  H220 3821   5.745   7.112  -1.246 -0.3533  0.5784  0.1904
   10CHTO   O79 3822   5.828   7.049  -1.060  0.1046  0.7032  0.0352
   10CHTO  H201 3823   5.752   7.006  -1.026  0.1630  0.4334 -0.1754
   10CHTO  C120 3824   5.962   7.094  -1.259 -0.2370 -0.6698  0.0183
   10CHTO  H224 3825   6.035   7.041  -1.196  0.8206  0.1119 -0.5280
   10CHTO   N21 3826   5.990   7.231  -1.231  0.1284 -0.1975 -0.2086
   10CHTO  H211 3827   6.094   7.257  -1.243  0.2167 -0.6744 -0.4787
   10CHTO  H212 3828   5.931   7.285  -1.304  0.9756 -1.2672 -1.7160
   10CHTO   O75 3829   5.660   6.873  -1.236 -0.1613 -0.6355  0.3353
   10CHTO  C112 3830   5.619   6.814  -1.104 -0.3829 -0.1120  0.1252
   10CHTO  H216 3831   5.661   6.869  -1.019 -2.8037 -1.7768  2.5249
   10CHTO   O73 3832   5.665   6.680  -1.103  0.1687  0.4435 -0.1170
   10CHTO  C113 3833   5.648   6.612  -0.977  0.0357  0.3117 -0.3810
   10CHTO  H217 3834   5.699   6.657  -0.889 -1.6006  1.2855  0.0847
   10CHTO  C124 3835   5.724   6.478  -0.994  0.3306 -0.1787 -0.0222
   10CHTO   O83 3836   5.859   6.511  -1.032  0.6961  0.3416  0.2561
   10CHTO  H204 3837   5.907   6.431  -1.042  2.2948  1.3357 -0.2275
   10CHTO  C109 3838   5.496   6.586  -0.956  0.6817  0.1806 -0.0737
   10CHTO  H213 3839   5.468   6.516  -1.037  0.6525 -2.8047  2.4360
   10CHTO  C110 3840   5.426   6.723  -0.973 -0.3407  0.2762  0.2212
   10CHTO  H214 3841   5.453   6.780  -0.884  0.4685 -0.6310  0.5690
   10CHTO   O78 3842   5.285   6.694  -0.977  0.0189 -0.4169  0.7602
   10CHTO  H200 3843   5.245   6.779  -0.975 -0.6349 -0.6966 -0.0899
   10CHTO  C111 3844   5.467   6.803  -1.099  0.1867 -0.1231  0.0322
   10CHTO  H215 3845   5.426   6.751  -1.187 -0.6911 -0.4073  0.6060
   10CHTO   N19 3846   5.405   6.944  -1.101 -0.2431  0.9693  0.6075
   10CHTO  H207 3847   5.429   6.996  -1.009  1.8141  1.1175  0.0013
   10CHTO  H208 3848   5.444   7.007  -1.179 -1.7060  1.4756  0.2568
   10CHTO   O74 3849   5.476   6.519  -0.832  0.9289  0.6400 -0.7728
   10CHTO  C115 3850   5.365   6.396  -0.845 -0.1254 -0.5499 -0.8671
   10CHTO  H219 3851   5.296   6.416  -0.927  0.2646  2.7947 -0.4538
   10CHTO   O76 3852   5.437   6.263  -0.884  0.4507 -0.1064 -0.5864
   10CHTO  C122 3853   5.504   6.213  -0.763 -0.7800 -0.1360  0.4691
   10CHTO  H226 3854   5.560   6.288  -0.707 -0.8939  1.6529 -1.7282
   10CHTO  C126 3855   5.610   6.096  -0.805  0.0373 -0.2980 -0.2038
   10CHTO   O85 3856   5.716   6.130  -0.893 -0.0419 -0.4002  0.2164
   10CHTO  H206 3857   5.779   6.060  -0.885  0.6264  0.1408 -0.2421
   10CHTO  C121 3858   5.396   6.162  -0.661 -0.0446  0.2202  0.0848
   10CHTO  H225 3859   5.377   6.053  -0.670  1.1966  0.1102 -1.4025
   10CHTO   O81 3860   5.455   6.163  -0.535 -0.6459  0.4589  0.1957
   10CHTO  H202 3861   5.502   6.082  -0.523 -0.3112  0.7856  1.1223
   10CHTO  C119 3862   5.257   6.237  -0.671 -0.3984 -0.7129 -0.2662
   10CHTO  H223 3863   5.198   6.203  -0.756  1.6219 -2.2991 -1.0655
   10CHTO  C117 3864   5.278   6.386  -0.713  0.8303  0.1197  0.5758
   10CHTO  H221 3865   5.332   6.447  -0.640 -0.8281  0.9939  1.0926
   10CHTO   N20 3866   5.146   6.457  -0.734 -0.0763  0.3842 -0.0612
   10CHTO  H209 3867   5.157   6.564  -0.741  1.3695  0.1593 -1.5302
   10CHTO  H210 3868   5.078   6.411  -0.804 -0.1191  1.1001 -0.4860
   10CHTO   O80 3869   5.146   6.214  -0.548 -0.2540 -0.2866 -0.0219
   10CHTO  C103 3870   5.036   6.112  -0.556 -0.1377  0.1987  0.0305
   10CHTO  H190 3871   5.012   6.101  -0.662  1.6684  1.9302 -0.5841
   10CHTO  C101 3872   5.055   5.968  -0.505  0.5118 -0.6429  0.2444
   10CHTO  H188 3873   5.082   5.974  -0.400  0.6381  0.7478  0.1327
   10CHTO   O68 3874   5.180   5.898  -0.569  0.4419 -0.3963  0.2396
   10CHTO  H168 3875   5.249   5.960  -0.580 -0.4193  0.2130 -1.9558
   10CHTO   C99 3876   4.918   5.887  -0.512 -0.3181  0.4712  0.1277
   10CHTO  H186 3877   4.882   5.873  -0.616 -0.3200 -2.6952  0.4973
   10CHTO   N17 3878   4.922   5.753  -0.449  0.3654 -0.2649  0.1494
   10CHTO  H174 3879   5.010   5.739  -0.388 -0.4335  0.3478  1.4516
   10CHTO  H175 3880   4.909   5.678  -0.526 -1.9638 -0.4373  0.6983
   10CHTO   C97 3881   4.801   5.962  -0.429 -0.5428 -0.0025  0.3583
   10CHTO  H184 3882   4.819   5.974  -0.321 -0.3617 -0.3012  0.3626
   10CHTO   O64 3883   4.792   6.087  -0.496  0.2237  0.0070  0.1911
   10CHTO  C104 3884   4.906   6.170  -0.487  0.2450 -0.1074 -0.7754
   10CHTO  H191 3885   4.932   6.187  -0.382 -1.2261 -2.4105  0.0066
   10CHTO  C108 3886   4.863   6.306  -0.535  0.2429  0.8327  0.5431
   10CHTO   O71 3887   4.749   6.358  -0.466  0.0818 -0.2320  0.0860
   10CHTO  H171 3888   4.753   6.450  -0.480  0.7578 -0.5976 -2.2705
   10CHTO   O62 3889   4.668   5.898  -0.441 -0.1205  0.2857  0.4487
   10CHTO   C91 3890   4.572   5.917  -0.343 -1.0107 -0.1632 -0.0053
   10CHTO  H178 3891   4.606   5.999  -0.280 -0.5843  0.2709 -0.7951
   10CHTO   C92 3892   4.555   5.793  -0.253  0.2793 -0.1489  0.3583
   10CHTO  H179 3893   4.517   5.712  -0.317 -1.8556 -0.6947  2.2412
   10CHTO   O66 3894   4.679   5.770  -0.189  0.3929 -0.4651  0.2996
   10CHTO  H166 3895   4.715   5.689  -0.220  1.9947  0.8885 -1.4759
   10CHTO   C93 3896   4.450   5.817  -0.140  0.1535  0.2103  1.0199
   10CHTO  H180 3897   4.494   5.889  -0.069 -0.8765  2.9250 -0.9773
   10CHTO   N16 3898   4.429   5.697  -0.061  0.2007 -0.1154  0.6255
   10CHTO  H172 3899   4.334   5.647  -0.069  1.1616 -1.8378 -0.2172
   10CHTO  H173 3900   4.468   5.708   0.039 -2.2813 -1.1323  1.7526
   10CHTO   C94 3901   4.321   5.876  -0.208  0.5640  0.3521 -0.6772
   10CHTO  H181 3902   4.265   5.799  -0.261 -0.8596 -0.4835  1.9411
   10CHTO   O61 3903   4.340   5.982  -0.300  0.1059 -0.2973  0.4343
   10CHTO   C95 3904   4.435   5.962  -0.408 -0.0110 -0.5360 -0.0574
   10CHTO  H182 3905   4.403   5.883  -0.476  2.2921 -1.6748  0.1513
   10CHTO  C106 3906   4.433   6.093  -0.496  0.5710 -0.1071  0.1183
   10CHTO   O69 3907   4.482   6.209  -0.434 -0.1058 -0.1327 -0.6607
   10CHTO  H169 3908   4.571   6.199  -0.408  0.9157  2.7115 -2.7643
   10CHTO   O63 3909   4.223   5.939  -0.084  0.5147  0.9679 -0.5370
   10CHTO   C96 3910   4.307   6.063   0.007 -0.3716 -0.5636 -0.2874
   10CHTO  H183 3911   4.391   6.087  -0.058 -0.2187 -0.5152 -0.0705
   10CHTO   C98 3912   4.334   6.037   0.154 -0.3994  0.2427 -0.2367
   10CHTO  H185 3913   4.241   5.992   0.191 -0.2081 -0.2869 -0.3899
   10CHTO   O67 3914   4.424   5.928   0.169 -0.0463  0.1490  0.2168
   10CHTO  H167 3915   4.399   5.855   0.115  0.5231  2.1354 -2.8520
   10CHTO  C102 3916   4.378   6.167   0.246  0.3604  0.2975  1.1232
   10CHTO  H189 3917   4.488   6.170   0.234  0.2746 -0.0512  0.1664
   10CHTO   N18 3918   4.351   6.139   0.391 -0.2206  0.3311  0.0886
   10CHTO  H176 3919   4.289   6.053   0.413 -1.4069  1.3758  0.9085
   10CHTO  H177 3920   4.301   6.221   0.440 -0.8328  0.5735 -0.9496
   10CHTO  C105 3921   4.321   6.300   0.190  0.0281  0.3455  0.7551
   10CHTO  H192 3922   4.222   6.317   0.232 -1.0381  0.4382 -1.7049
   10CHTO   O65 3923   4.288   6.297   0.049 -0.4633  0.5641  0.3658
   10CHTO  C100 3924   4.213   6.184   0.002 -0.3041 -0.7167 -0.6020
   10CHTO  H187 3925   4.126   6.168   0.068  1.2998 -2.0446  1.2469
   10CHTO  C107 3926   4.163   6.218  -0.140  0.7436  0.1313  0.4814
   10CHTO   O70 3927   4.078   6.334  -0.137 -0.1507 -0.4653  0.3032
   10CHTO  H170 3928   4.067   6.372  -0.222 -1.6645 -2.7707 -0.5830
   10CHTO   O57 3929   4.437   6.415   0.232 -0.4490 -0.1082 -0.0425
   10CHTO   C85 3930   4.381   6.544   0.236  0.8084 -1.2939 -0.3629
   10CHTO  H157 3931   4.270   6.541   0.231  0.7466  0.2631 -0.0621
   10CHTO   C83 3932   4.425   6.638   0.115  0.2833 -0.2692 -0.1113
   10CHTO  H155 3933   4.371   6.604   0.027 -0.2675 -1.4408  0.6576
   10CHTO   O56 3934   4.564   6.641   0.092 -0.1175  0.7855  0.1007
   10CHTO  H135 3935   4.605   6.581   0.033  1.7009  1.1728  0.9426
   10CHTO   C81 3936   4.368   6.782   0.150 -0.1521  0.6982 -0.5400
   10CHTO  H153 3937   4.261   6.778   0.171  0.2451  0.9174  1.7502
   10CHTO   N14 3938   4.367   6.885   0.038  0.3680  0.2256 -0.4629
   10CHTO  H141 3939   4.289   6.953   0.066 -0.1227 -0.2199 -0.7130
   10CHTO  H142 3940   4.345   6.840  -0.057 -0.9924 -0.9279  0.3745
   10CHTO   C79 3941   4.431   6.845   0.281 -0.6449 -0.2426  0.4034
   10CHTO  H151 3942   4.385   6.942   0.298 -0.5618 -0.3297  1.1098
   10CHTO   O52 3943   4.404   6.756   0.402 -0.0895  0.1880 -0.0619
   10CHTO   C86 3944   4.427   6.610   0.377  0.0653 -0.1196 -0.2790
   10CHTO  H158 3945   4.537   6.603   0.385  0.4351  2.9700 -1.7779
   10CHTO   C90 3946   4.373   6.530   0.504 -0.1277  0.0432 -0.2542
   10CHTO   O60 3947   4.229   6.550   0.523 -0.7586  0.3891 -0.1987
   10CHTO  H138 3948   4.186   6.560   0.440 -0.2875  2.7099 -0.1939
   10CHTO   O50 3949   4.567   6.865   0.271 -0.4292 -0.7695 -0.5682
   10CHTO   C73 3950   4.703   6.845   0.303  0.0318  0.8853  0.4564
   10CHTO  H145 3951   4.746   6.757   0.254 -1.9134  0.8922 -1.3448
   10CHTO   C74 3952   4.719   6.818   0.452  0.9200  0.0054 -0.3122
   10CHTO  H146 3953   4.670   6.725   0.483 -1.3686  1.1263 -0.4517
   10CHTO   O54 3954   4.853   6.778   0.469  0.0824 -0.1488  0.5191
   10CHTO  H133 3955   4.887   6.815   0.548  0.3590  1.4936 -0.3447
   10CHTO   C75 3956   4.667   6.941   0.535  0.1889 -0.2977 -0.9399
   10CHTO  H147 3957   4.561   6.958   0.515  0.5102  1.4211 -1.2651
   10CHTO   N13 3958   4.669   6.916   0.679 -0.0110  0.8432  0.1397
   10CHTO  H139 3959   4.745   6.960   0.742  0.5949  0.0053  0.0123
   10CHTO  H140 3960   4.654   6.811   0.701 -0.9597  1.0489  0.4671
   10CHTO   C76 3961   4.741   7.071   0.481  0.2273 -0.0312 -0.0983
   10CHTO  H148 3962   4.844   7.064   0.516  0.4987  0.2112 -0.8265
   10CHTO   O49 3963   4.742   7.096   0.339 -0.1659  0.0228 -0.3360
   10CHTO   C77 3964   4.777   6.981   0.264  0.3277  0.1636  0.1464
   10CHTO  H149 3965   4.884   6.965   0.274  1.2261  2.8754 -3.8830
   10CHTO   C88 3966   4.764   7.002   0.113 -1.0760 -0.0689 -0.3712
   10CHTO   O58 3967   4.827   6.896   0.035  0.6863  0.4605 -0.4505
   10CHTO  H136 3968   4.907   6.926  -0.002  1.5699 -2.4822 -1.0416
   10CHTO   O51 3969   4.675   7.209   0.557  0.1958 -0.3287 -0.2262
   10CHTO   C78 3970   4.784   7.312   0.573  0.6084 -0.5039  0.2844
   10CHTO  H150 3971   4.861   7.319   0.494 -0.8546  2.3108 -0.9463
   10CHTO   C80 3972   4.852   7.295   0.710  0.0207 -0.5594 -0.3387
   10CHTO  H152 3973   4.777   7.270   0.787  1.2425 -0.1923  1.0028
   10CHTO   O55 3974   4.941   7.180   0.711  0.4661 -0.4345  0.5972
   10CHTO  H134 3975   5.012   7.188   0.772 -1.4804  1.6123  2.6937
   10CHTO   C84 3976   4.934   7.428   0.759  0.2577  0.1505 -0.8685
   10CHTO  H156 3977   5.030   7.415   0.709 -0.4637 -2.6915 -1.6705
   10CHTO   N15 3978   4.961   7.426   0.905  0.4861  0.7298  0.1673
   10CHTO  H143 3979   5.065   7.428   0.933  0.5692 -0.0620 -0.0669
   10CHTO  H144 3980   4.903   7.504   0.950  1.5972 -1.1653  5.3033
   10CHTO   C87 3981   4.871   7.558   0.712  0.1059 -0.1598  0.0738
   10CHTO  H159 3982   4.794   7.600   0.777  1.2797  0.7580  0.8876
   10CHTO   O53 3983   4.823   7.553   0.576  0.6110  0.9959 -0.3672
   10CHTO   C82 3984   4.725   7.451   0.551 -0.6897  0.5182  1.0486
   10CHTO  H154 3985   4.644   7.463   0.623 -0.0715 -1.8697  2.1906
   10CHTO   C89 3986   4.664   7.466   0.412  0.3774  0.1643 -0.5184
   10CHTO   O59 3987   4.756   7.448   0.306  0.3043  0.0446  0.6653
   10CHTO  H137 3988   4.783   7.529   0.268 -0.3560  0.7122  1.5890
   10CHTO   O45 3989   4.987   7.662   0.704  0.4506  0.4849  0.2971
   10CHTO   C67 3990   4.947   7.797   0.725 -0.7838 -0.2434  0.2165
   10CHTO  H124 3991   4.845   7.816   0.690 -0.7101 -1.2717 -0.5925
   10CHTO   C65 3992   4.965   7.828   0.875 -0.0286  0.8146  0.4855
   10CHTO  H122 3993   4.895   7.758   0.921 -0.9584  0.3935 -1.5051
   10CHTO   O44 3994   4.919   7.956   0.919  0.0482 -0.0506 -0.1841
   10CHTO  H102 3995   4.882   7.950   1.005 -1.3745 -0.8025 -0.8369
   10CHTO   C63 3996   5.110   7.798   0.921  0.3166 -0.0726 -0.0174
   10CHTO  H120 3997   5.144   7.701   0.885  0.0997  1.0307 -3.3249
   10CHTO   N11 3998   5.129   7.777   1.073  0.3443 -0.6118 -0.2365
   10CHTO  H108 3999   5.034   7.754   1.117 -0.1492 -0.6183 -1.2903
   10CHTO  H109 4000   5.181   7.858   1.121  1.0342 -1.8950  1.2087
   10CHTO   C61 4001   5.199   7.897   0.847  0.1129 -0.0001 -0.6774
   10CHTO  H118 4002   5.298   7.852   0.867 -0.5649 -1.5223 -0.7024
   10CHTO   O40 4003   5.188   7.897   0.704  0.3170  0.1044  0.3125
   10CHTO   C68 4004   5.047   7.893   0.647 -0.5891  0.1469 -1.5080
   10CHTO  H125 4005   5.058   7.845   0.548  2.6593 -1.3625 -0.4972
   10CHTO   C72 4006   4.999   8.039   0.632 -0.3317  0.2694  0.3795
   10CHTO   O48 4007   5.028   8.104   0.513 -0.3598 -0.3163 -0.1136
   10CHTO  H105 4008   5.027   8.197   0.528 -0.7510 -0.4808  0.8788
   10CHTO   O38 4009   5.187   8.036   0.903  0.3354  0.4500  0.3827
   10CHTO   C55 4010   5.318   8.106   0.917  0.7015  0.3213 -0.4442
   10CHTO  H112 4011   5.386   8.079   0.834  2.0254  1.7155  0.1599
   10CHTO   C56 4012   5.388   8.087   1.055 -0.0256  0.0089  0.0832
   10CHTO  H113 4013   5.316   8.097   1.137 -0.3335  0.8766 -0.2892
   10CHTO   O42 4014   5.433   7.954   1.062 -0.1851 -0.0695 -0.0288
   10CHTO  H100 4015   5.508   7.951   1.118 -0.4894 -1.8515  0.3126
   10CHTO   C57 4016   5.507   8.189   1.073 -0.2946  0.2173 -0.3390
   10CHTO  H114 4017   5.592   8.156   1.013 -0.5431 -0.1506 -0.4888
   10CHTO   N10 4018   5.567   8.182   1.206  0.0232  0.1027  0.3794
   10CHTO  H106 4019   5.573   8.088   1.257 -1.7281 -0.4671 -0.4126
   10CHTO  H107 4020   5.663   8.231   1.198  0.1148 -0.0452  0.5895
   10CHTO   C58 4021   5.460   8.329   1.036 -0.1470 -0.2874  0.4612
   10CHTO  H115 4022   5.382   8.361   1.108 -0.5171 -1.2204  0.4780
   10CHTO   O37 4023   5.409   8.318   0.905 -0.1996  0.1973  0.1871
   10CHTO   C59 4024   5.286   8.252   0.889 -0.6200 -0.6362 -0.5323
   10CHTO  H116 4025   5.213   8.285   0.963  1.0000 -0.6431  1.0945
   10CHTO   C70 4026   5.242   8.273   0.746 -0.2028 -0.3988 -0.1703
   10CHTO   O46 4027   5.217   8.414   0.732 -0.5963  0.3177 -0.3214
   10CHTO  H103 4028   5.285   8.461   0.688  1.1601 -2.6460 -0.8960
   10CHTO   O39 4029   5.587   8.440   1.029  0.0010 -0.0764  0.3569
   10CHTO   C60 4030   5.544   8.572   0.992 -0.3392 -0.1232  0.8037
   10CHTO  H117 4031   5.458   8.558   0.925  0.2961  1.2777 -0.3080
   10CHTO   C62 4032   5.484   8.641   1.122  0.2096  0.4468 -0.2003
   10CHTO  H119 4033   5.413   8.560   1.149 -1.1067  1.6472  0.0204
   10CHTO   O43 4034   5.585   8.648   1.221  0.1272 -0.3385 -0.1993
   10CHTO  H101 4035   5.623   8.564   1.239  1.3315  0.4845  1.2450
   10CHTO   C66 4036   5.424   8.784   1.093  0.1033 -0.1912 -0.2671
   10CHTO  H123 4037   5.345   8.768   1.020  0.2622 -1.3710 -0.1846
   10CHTO   N12 4038   5.349   8.834   1.209  0.1735  0.3729 -0.0230
   10CHTO  H110 4039   5.335   8.773   1.297  1.1993 -0.9618 -0.7838
   10CHTO  H111 4040   5.314   8.936   1.215 -0.8333 -0.0598  1.7752
   10CHTO   C69 4041   5.534   8.873   1.027 -0.3408 -0.1441 -0.0916
   10CHTO  H126 4042   5.605   8.903   1.107  1.9932 -3.1098 -0.9845
   10CHTO   O41 4043   5.611   8.790   0.899  0.4581  0.2585 -0.5441
   10CHTO   C64 4044   5.651   8.654   0.921  0.7257  0.1694 -0.8935
   10CHTO  H121 4045   5.742   8.658   0.985 -0.9217 -0.7581  1.6011
   10CHTO   C71 4046   5.690   8.589   0.788  0.1931 -0.1015  0.5878
   10CHTO   O47 4047   5.589   8.584   0.692  0.1994 -0.1157  0.3855
   10CHTO  H104 4048   5.608   8.637   0.617  2.6640  0.2345  1.1854
   10CHTO   O34 4049   5.470   8.995   0.963  0.0077  0.0310 -0.0237
   10CHTO   C49 4050   5.487   9.110   0.853  0.1552 -0.5715  0.8574
   10CHTO   H91 4051   5.587   9.100   0.812 -1.2504 -2.0321 -2.4161
   10CHTO   C47 4052   5.481   9.246   0.933  0.6708  0.1952 -0.2024
   10CHTO   H89 4053   5.508   9.322   0.857 -2.0736  2.1381  0.7101
   10CHTO   O33 4054   5.573   9.251   1.039  0.3064 -0.1701  0.1638
   10CHTO   H70 4055   5.525   9.250   1.120 -0.6369  0.0712 -0.3782
   10CHTO   C45 4056   5.330   9.277   0.983  0.0191  0.1106  0.2909
   10CHTO   H87 4057   5.292   9.193   1.044 -3.0567  1.8155  0.8435
   10CHTO    N8 4058   5.316   9.404   1.067 -0.1581 -0.1576 -0.0101
   10CHTO   H75 4059   5.224   9.416   1.122  0.0315 -0.0586  0.2859
   10CHTO   H76 4060   5.346   9.498   1.024  1.0988  0.7880  2.8645
   10CHTO   C43 4061   5.232   9.283   0.846 -0.0853  0.5766  0.2129
   10CHTO   H85 4062   5.130   9.299   0.881 -0.1424  1.0362 -0.1622
   10CHTO   O29 4063   5.244   9.155   0.780 -0.1618 -0.1443  0.1128
   10CHTO   C50 4064   5.375   9.099   0.748 -0.0893  0.0003 -0.3992
   10CHTO   H92 4065   5.349   8.994   0.725  0.8372 -0.2888 -0.1257
   10CHTO   C54 4066   5.419   9.141   0.607 -0.2126  0.1364  0.5024
   10CHTO   O36 4067   5.364   9.068   0.497  0.3559  0.7271 -0.2857
   10CHTO   H72 4068   5.297   9.119   0.454 -0.9109  1.5901  2.5813
   10CHTO   O27 4069   5.265   9.389   0.756  0.5185  0.2595  0.1905
   10CHTO   C37 4070   5.289   9.479   0.654 -0.3661 -0.0205 -0.3951
   10CHTO   H79 4071   5.383   9.453   0.604  1.0929  1.8214  1.3005
   10CHTO   C38 4072   5.169   9.475   0.550  0.7901 -0.1273  0.6297
   10CHTO   H80 4073   5.077   9.496   0.607 -0.0219  0.3597 -0.8265
   10CHTO   O31 4074   5.173   9.342   0.497  0.0900  0.0551  0.3934
   10CHTO   H68 4075   5.152   9.285   0.568  1.6345 -0.6153  0.3309
   10CHTO   C39 4076   5.198   9.587   0.439 -0.3861  0.6255  0.1656
   10CHTO   H81 4077   5.286   9.560   0.381  0.6032  1.1786  1.3708
   10CHTO    N7 4078   5.085   9.586   0.345  0.0365 -0.2708 -0.2642
   10CHTO   H73 4079   5.078   9.491   0.295 -2.0045 -0.6600  0.7028
   10CHTO   H74 4080   4.987   9.605   0.387 -0.0325 -1.8927  0.3578
   10CHTO   C40 4081   5.233   9.733   0.490 -0.0931  0.3463 -0.7496
   10CHTO   H82 4082   5.142   9.789   0.513  0.2814 -0.3438  2.6839
   10CHTO   O26 4083   5.321   9.722   0.607 -0.7744 -0.1036  0.4292
   10CHTO   C41 4084   5.297   9.623   0.714  0.2793 -0.5189  0.7956
   10CHTO   H83 4085   5.215   9.650   0.782 -0.5614 -0.9777 -0.0227
   10CHTO   C52 4086   5.427   9.629   0.797 -0.0500 -0.2265  0.9585
   10CHTO   O35 4087   5.461   9.751   0.859  0.1745 -0.6780 -0.4431
   10CHTO   H71 4088   5.554   9.746   0.872  0.2060 -0.6522 -0.6513
   10CHTO   O28 4089   5.323   9.804   0.404  0.1774  0.0970 -0.2993
   10CHTO   C42 4090   5.313   9.952   0.412  0.7148  0.1994  0.0933
   10CHTO   H84 4091   5.269   9.976   0.509  1.9755 -1.1002  1.0020
   10CHTO   C44 4092   5.225  10.016   0.303  0.2098 -0.2312 -0.4582
   10CHTO   H86 4093   5.259   9.985   0.204 -2.5137 -2.4644 -0.7448
   10CHTO   O32 4094   5.098   9.950   0.310  0.1519  0.7115 -0.0956
   10CHTO   H69 4095   5.038   9.979   0.244 -0.2762 -0.4661 -0.2464
   10CHTO   C48 4096   5.206  10.173   0.312  0.6162  0.8168 -0.4092
   10CHTO   H90 4097   5.155  10.193   0.407 -0.6894  3.3552 -1.5866
   10CHTO    N9 4098   5.112  10.209   0.198  0.1333  0.0094  0.1110
   10CHTO   H77 4099   5.161  10.265   0.120 -0.8360  0.2956 -0.2986
   10CHTO   H78 4100   5.071  10.124   0.146  0.7780  0.3590 -1.0022
   10CHTO   C51 4101   5.353  10.223   0.287  0.1718  0.0602  1.0641
   10CHTO   H93 4102   5.387  10.175   0.195  1.4709 -1.9705  2.5328
   10CHTO   O30 4103   5.430  10.179   0.397  0.4573 -0.3826 -0.5003
   10CHTO   C46 4104   5.448  10.028   0.399  0.1764 -0.0238  0.7665
   10CHTO   H88 4105   5.497   9.998   0.306  0.8795 -1.3269  1.5355
   10CHTO   C53 4106   5.541   9.996   0.518  0.0227 -0.1911  0.1647
   10CHTO   O72 4107   5.503  10.048   0.643  0.3059 -0.2125 -0.4594
   10CHTO  H199 4108   5.411  10.034   0.655 -0.1356 -1.0130 -4.1319
   10CHTO   O22 4109   5.363  10.365   0.282  0.4345  0.4275  0.4648
   10CHTO   C31 4110   5.468  10.445   0.225  0.0213 -0.1351 -0.3708
   10CHTO   H59 4111   5.448  10.550   0.256  0.5949 -0.3661  0.8288
   10CHTO   C29 4112   5.605  10.417   0.280 -0.8951 -0.0730  0.4985
   10CHTO   H57 4113   5.632  10.315   0.248  1.7130  0.8855 -0.4222
   10CHTO   O21 4114   5.599  10.416   0.424 -0.6813  0.9647  0.6396
   10CHTO   H37 4115   5.515  10.391   0.458 -0.3378  0.3549  1.0289
   10CHTO   C27 4116   5.711  10.512   0.220 -0.6085 -0.2477 -0.0563
   10CHTO   H55 4117   5.685  10.614   0.250  1.7081  0.4381 -0.2266
   10CHTO    N5 4118   5.853  10.483   0.264  0.1566  0.4299  0.2459
   10CHTO   H43 4119   5.848  10.465   0.371 -2.2721 -0.6262 -0.0220
   10CHTO   H44 4120   5.907  10.577   0.257  0.0147  0.6558  1.8384
   10CHTO   C25 4121   5.696  10.527   0.063 -0.5693 -0.0666 -0.1121
   10CHTO   H53 4122   5.738  10.434   0.022 -1.1098  0.0155 -0.8585
   10CHTO   O17 4123   5.562  10.537   0.007  0.1279  0.1773 -0.2544
   10CHTO   C32 4124   5.470  10.442   0.067  0.2770  0.5405 -0.1530
   10CHTO   H60 4125   5.490  10.339   0.039 -1.9051  0.0183  0.1751
   10CHTO   C36 4126   5.330  10.483   0.012 -0.2743  0.7281  0.2865
   10CHTO   O25 4127   5.285  10.610   0.049  0.0817  0.0294 -0.2544
   10CHTO   H40 4128   5.203  10.629   0.006  0.6897 -1.2232 -2.0334
   10CHTO   O15 4129   5.791  10.655   0.014  0.0402 -0.4543 -0.0500
   10CHTO   C19 4130   5.784  10.795  -0.010  0.0831 -0.4556 -0.6621
   10CHTO   H47 4131   5.742  10.807  -0.111  0.7791  2.1850 -0.6586
   10CHTO   C20 4132   5.685  10.872   0.092  0.6807 -0.3817  0.7033
   10CHTO   H48 4133   5.711  10.859   0.198 -1.7070 -0.6668  1.2826
   10CHTO   O19 4134   5.556  10.815   0.065 -0.3732  0.3825  0.0541
   10CHTO   H35 4135   5.487  10.876   0.085 -0.9989 -1.0557  2.5513
   10CHTO   C21 4136   5.675  11.032   0.052  0.1426  0.0281 -0.7369
   10CHTO   H49 4137   5.618  11.044  -0.041 -0.1863  0.6561 -0.4563
   10CHTO    N4 4138   5.594  11.105   0.159  0.3201  0.5433  0.3103
   10CHTO   H41 4139   5.498  11.059   0.178 -0.0428  0.4104 -1.7619
   10CHTO   H42 4140   5.653  11.088   0.248 -0.9191  0.8426  1.2096
   10CHTO   C22 4141   5.814  11.092   0.028  0.1740  0.2643  0.1800
   10CHTO   H50 4142   5.871  11.101   0.120  0.0531 -0.7014  0.3549
   10CHTO   O14 4143   5.878  11.006  -0.070 -0.1647 -0.5577  0.2494
   10CHTO   C23 4144   5.914  10.877  -0.016  0.4534  1.2759 -0.6346
   10CHTO   H51 4145   5.959  10.893   0.083 -1.8576 -0.0874  0.6668
   10CHTO   C34 4146   6.019  10.812  -0.107  0.3062 -1.0372 -0.0686
   10CHTO   O23 4147   6.095  10.713  -0.046 -0.2633  0.0996  0.1190
   10CHTO   H38 4148   6.176  10.694  -0.090 -0.3364 -0.0520  0.0508
   10CHTO   O16 4149   5.804  11.222  -0.037  0.3686 -0.2146  0.4610
   10CHTO   C24 4150   5.912  11.344   0.053  0.2228  0.1213 -0.0011
   10CHTO   H52 4151   6.005  11.299   0.086  1.0988  0.9272 -1.3222
   10CHTO   C26 4152   5.834  11.406   0.173 -0.3367  0.3148  1.1320
   10CHTO   H54 4153   5.732  11.436   0.141 -0.0902  1.0733  1.0602
   10CHTO   O20 4154   5.814  11.305   0.273 -0.7056  0.0695  0.0938
   10CHTO   H36 4155   5.896  11.270   0.301 -0.4911 -1.7526 -2.6517
   10CHTO   C30 4156   5.918  11.524   0.230  0.6007 -0.1560  0.1805
   10CHTO   H58 4157   5.999  11.486   0.295  1.0213 -0.5071 -0.5394
   10CHTO    N6 4158   5.826  11.598   0.319  0.0634 -0.1301 -0.2045
   10CHTO   H45 4159   5.776  11.527   0.382 -0.4720  1.2310  0.9356
   10CHTO   H46 4160   5.877  11.667   0.384 -0.0698 -3.0440  3.0917
   10CHTO   C33 4161   5.999  11.618   0.133 -0.6850 -0.3274  0.0551
   10CHTO   H61 4162   5.938  11.702   0.097  1.1068  0.4367 -1.2720
   10CHTO   O18 4163   6.053  11.548   0.019  0.6381 -0.1706 -0.2055
   10CHTO   C28 4164   5.961  11.460  -0.046 -0.3342 -0.0138 -0.0792
   10CHTO   H56 4165   5.873  11.513  -0.082 -0.3172 -1.4545 -2.2947
   10CHTO   C35 4166   6.040  11.409  -0.167 -0.6683  0.6544 -0.3981
   10CHTO   O24 4167   5.960  11.325  -0.246  0.3111 -0.2532 -0.3713
   10CHTO   H39 4168   5.932  11.255  -0.191 -1.0995  0.0397 -0.6995
   10CHTO    O9 4169   6.109  11.679   0.203  0.5924 -0.5897  0.1174
   10CHTO   C13 4170   6.170  11.806   0.146  0.4442  0.4406 -0.3590
   10CHTO   H26 4171   6.145  11.799   0.038  1.0610 -0.8313 -0.4324
   10CHTO   C11 4172   6.324  11.799   0.168  0.1246  0.6585  0.7286
   10CHTO   H24 4173   6.355  11.704   0.123 -2.1656 -0.4261  1.3664
   10CHTO    O8 4174   6.352  11.791   0.312 -0.1231 -0.4632 -0.6570
   10CHTO    H3 4175   6.445  11.779   0.318 -0.2055 -0.2955  1.2624
   10CHTO    C9 4176   6.388  11.913   0.088 -0.0970 -0.0020  0.4018
   10CHTO   H22 4177   6.373  11.889  -0.018 -0.0545 -0.7484  0.5660
   10CHTO    N2 4178   6.537  11.921   0.100 -0.5000  1.1961 -0.4805
   10CHTO   H10 4179   6.565  11.947   0.201  0.0480 -1.5862  0.1147
   10CHTO   H11 4180   6.590  11.979   0.026 -1.9363  1.9258 -0.9727
   10CHTO    C7 4181   6.310  12.053   0.114 -0.2011 -0.5216  0.4160
   10CHTO   H20 4182   6.243  12.074   0.029  1.3937  1.2488 -0.4543
   10CHTO    O4 4183   6.216  12.043   0.224 -0.8246 -0.0794 -0.8550
   10CHTO   C14 4184   6.112  11.950   0.202  0.3577 -0.5620 -0.2627
   10CHTO   H27 4185   6.044  11.999   0.129  0.9253  2.0419  0.9073
   10CHTO   C18 4186   6.033  11.913   0.331  0.6935 -0.5587  0.5370
   10CHTO   O13 4187   5.987  12.033   0.389 -0.3959  0.1650  0.5475
   10CHTO    H7 4188   6.030  12.046   0.472 -0.2818  2.4745  0.1543
   10CHTO    O2 4189   6.412  12.210   0.144  0.3687 -0.3293  0.3277
   10CHTO    C1 4190   6.352  12.309   0.218 -0.0372 -0.0498  0.6165
   10CHTO   H14 4191   6.267  12.272   0.279  0.3042 -1.8128  0.0492
   10CHTO    C2 4192   6.292  12.422   0.129 -0.0794 -0.6518 -0.3465
   10CHTO   H15 4193   6.371  12.451   0.059  0.4991  0.3992  0.7186
   10CHTO    O6 4194   6.173  12.372   0.055 -0.5125 -0.0552  0.4150
   10CHTO    H1 4195   6.099  12.345   0.106 -1.6074  0.8765 -0.6132
   10CHTO    C3 4196   6.253  12.556   0.213 -0.2038  0.0850 -0.1955
   10CHTO   H16 4197   6.169  12.521   0.275  0.5748 -1.9188 -0.2451
   10CHTO    N1 4198   6.205  12.674   0.134  0.2580 -0.0091 -0.0437
   10CHTO    H8 4199   6.284  12.713   0.071  0.5775 -0.0284  0.3478
   10CHTO    H9 4200   6.170  12.748   0.204  2.1919  1.9161 -1.0585
   10CHTO    C4 4201   6.365  12.595   0.315  0.8375  1.2590 -0.2107
   10CHTO   H17 4202   6.453  12.632   0.263  1.5001  1.4030  0.9892
   10CHTO    O1 4203   6.399  12.481   0.390 -0.7478  0.4730  0.0372
   10CHTO    C5 4204   6.454  12.376   0.317  1.1421 -0.0226  0.0286
   10CHTO   H18 4205   6.538  12.426   0.268 -1.0663  2.1827 -1.6473
   10CHTO   C16 4206   6.506  12.268   0.420  0.6859 -1.0501  0.3221
   10CHTO   O11 4207   6.598  12.177   0.361 -0.0082 -0.1966 -0.0511
   10CHTO    H5 4208   6.680  12.219   0.348  0.2354 -0.9882 -1.1531
   10CHTO    O3 4209   6.312  12.688   0.414 -0.0587 -0.2073 -0.9889
   10CHTO    C6 4210   6.411  12.775   0.485 -0.3583 -0.9618 -0.1075
   10CHTO   H19 4211   6.515  12.773   0.454  0.1529  3.0053  0.9809
   10CHTO    C8 4212   6.381  12.921   0.462  0.0210 -0.0103 -0.0521
   10CHTO   H21 4213   6.281  12.941   0.501  1.0565  3.0094  1.2143
   10CHTO    O7 4214   6.395  12.956   0.321 -0.0390 -0.0894  0.0430
   10CHTO    H2 4215   6.444  13.035   0.305 -0.8992  0.4046 -0.1804
   10CHTO   C12 4216   6.485  13.008   0.544  0.4384  0.3037  0.4995
   10CHTO   H25 4217   6.586  12.985   0.505  0.6411 -0.6957  1.5917
   10CHTO    N3 4218   6.459  13.152   0.523 -0.3806 -0.7437  0.0484
   10CHTO   H12 4219   6.359  13.167   0.486 -0.7162 -0.5042  1.0428
   10CHTO   H13 4220   6.524  13.186   0.443  0.6064  0.7436  1.4534
   10CHTO   C15 4221   6.477  12.973   0.692  0.1736 -0.1577  0.2491
   10CHTO   H28 4222   6.386  12.995   0.748  1.1566 -0.3472  1.9543
   10CHTO   O10 4223   6.608  13.039   0.769 -0.0218  0.3221 -0.2437
   10CHTO    H4 4224   6.612  13.016   0.860  0.3838 -3.8886 -1.2179
   10CHTO    O5 4225   6.502  12.836   0.703 -0.8896 -0.1926 -0.0432
   10CHTO   C10 4226   6.415  12.742   0.633 -0.2450  0.1207  0.4238
   10CHTO   H23 4227   6.314  12.733   0.674  0.1562 -1.6039  1.0816
   10CHTO   C17 4228   6.483  12.605   0.659 -0.5982 -0.0547 -0.6119
   10CHTO   O12 4229   6.616  12.597   0.610  0.4552 -0.1166  0.4447
   10CHTO    H6 4230   6.618  12.553   0.527 -1.0986  1.8433 -0.6940
   11CHTO  H203 4231   7.660   5.055   1.111  0.1399  0.9018  0.1192
   11CHTO   O82 4232   7.586   5.066   1.055 -0.1731 -0.0059  0.3426
   11CHTO  C123 4233   7.542   5.203   1.056  0.5686 -0.3090  0.5155
   11CHTO  H227 4234   7.627   5.260   1.016 -0.6167  2.5812  1.9593
   11CHTO   O77 4235   7.421   5.203   0.967  0.2594  0.2325  0.7372
   11CHTO  C118 4236   7.338   5.321   0.963  0.0173 -0.5384 -0.3307
   11CHTO  H222 4237   7.400   5.394   0.909 -0.7432  1.1167  0.9986
   11CHTO  C125 4238   7.198   5.293   0.880  0.2974  0.0312  0.3036
   11CHTO   O84 4239   7.233   5.253   0.750  0.0124  0.0148 -0.0456
   11CHTO  H205 4240   7.275   5.169   0.746 -0.7496 -0.3376 -0.6265
   11CHTO  C114 4241   7.297   5.372   1.102  0.1919  0.1387  0.6406
   11CHTO  H218 4242   7.245   5.293   1.156 -1.0060  0.4938  0.0071
   11CHTO  C116 4243   7.430   5.399   1.183  0.0332  0.2661  0.1337
   11CHTO  H220 4244   7.485   5.482   1.133 -1.8192  1.9835  0.8817
   11CHTO   O79 4245   7.381   5.440   1.309 -0.2779  0.3525 -0.2005
   11CHTO  H201 4246   7.441   5.424   1.380  0.5471  0.4073 -0.8839
   11CHTO  C120 4247   7.513   5.263   1.200 -0.6446 -0.5114 -0.0028
   11CHTO  H224 4248   7.452   5.192   1.261 -1.5281  0.8154  0.6881
   11CHTO   N21 4249   7.637   5.278   1.282 -0.0406 -0.1003  0.1780
   11CHTO  H211 4250   7.731   5.306   1.236 -0.7015  3.3541  0.7886
   11CHTO  H212 4251   7.653   5.187   1.338  2.1027 -0.0729 -0.3341
   11CHTO   O75 4252   7.217   5.487   1.085 -0.5680  0.0482  0.5465
   11CHTO  C112 4253   7.071   5.482   1.180 -0.5585 -0.4025  0.1243
   11CHTO  H216 4254   7.110   5.455   1.279 -0.5956  0.4366  0.3750
   11CHTO   O73 4255   6.983   5.382   1.128  0.1234 -0.3690  0.4322
   11CHTO  C113 4256   6.848   5.378   1.175  0.0669 -0.9077  0.7110
   11CHTO  H217 4257   6.845   5.367   1.285 -1.8135 -0.5534  0.7040
   11CHTO  C124 4258   6.770   5.265   1.116 -0.6890  0.0138 -0.2105
   11CHTO   O83 4259   6.785   5.232   0.973 -0.1680 -0.0890 -0.3753
   11CHTO  H204 4260   6.726   5.292   0.933  1.3665  0.4976 -1.8406
   11CHTO  C109 4261   6.776   5.516   1.148  0.2107  0.4952  0.2603
   11CHTO  H213 4262   6.776   5.531   1.039  1.7503  0.2705  0.2160
   11CHTO  C110 4263   6.861   5.625   1.225 -0.4008 -0.6532  0.0592
   11CHTO  H214 4264   6.846   5.607   1.331 -0.1436  0.5374  0.3002
   11CHTO   O78 4265   6.796   5.758   1.205 -0.1171  0.1202  0.0293
   11CHTO  H200 4266   6.711   5.757   1.247  0.1716 -2.3629  0.5977
   11CHTO  C111 4267   7.008   5.623   1.175  0.2218  0.5673  0.5004
   11CHTO  H215 4268   7.010   5.651   1.068  0.2472  0.9429  0.5982
   11CHTO   N19 4269   7.099   5.711   1.245 -0.1104  0.0954  0.0711
   11CHTO  H207 4270   7.065   5.813   1.236 -0.3636  0.0046  0.0078
   11CHTO  H208 4271   7.103   5.687   1.351  0.7679 -0.9707 -0.1917
   11CHTO   O74 4272   6.640   5.515   1.204 -0.1140 -0.4142 -0.8661
   11CHTO  C115 4273   6.526   5.511   1.092  0.2371  0.1776 -0.3621
   11CHTO  H219 4274   6.569   5.480   0.996 -0.4405  0.4693 -0.7581
   11CHTO   O76 4275   6.420   5.393   1.120 -0.3512 -0.1571  0.0977
   11CHTO  C122 4276   6.361   5.424   1.242 -0.2355 -0.5931 -0.0130
   11CHTO  H226 4277   6.434   5.402   1.319  0.7094  2.2414 -0.0372
   11CHTO  C126 4278   6.242   5.319   1.263  0.2567  0.1421 -0.1131
   11CHTO   O85 4279   6.295   5.190   1.289 -0.0382 -0.4693 -0.0817
   11CHTO  H206 4280   6.334   5.151   1.213 -1.5799  1.2322 -1.7967
   11CHTO  C121 4281   6.316   5.578   1.267 -0.5972 -0.2619 -1.0074
   11CHTO  H225 4282   6.214   5.585   1.310  0.3694  2.0271  1.0123
   11CHTO   O81 4283   6.407   5.628   1.372  0.0729 -0.2862 -0.1466
   11CHTO  H202 4284   6.422   5.719   1.354 -0.3917 -0.0578  0.5904
   11CHTO  C119 4285   6.323   5.654   1.132  0.6604 -0.6496 -0.6049
   11CHTO  H223 4286   6.263   5.593   1.064 -1.3839  1.2007 -0.5017
   11CHTO  C117 4287   6.472   5.655   1.081  0.1777 -0.1580 -0.4125
   11CHTO  H221 4288   6.548   5.714   1.133  1.3136 -0.2729 -1.9158
   11CHTO   N20 4289   6.479   5.707   0.937 -0.0182  0.3485 -0.1652
   11CHTO  H209 4290   6.454   5.626   0.870 -0.8957 -0.2821  0.9103
   11CHTO  H210 4291   6.423   5.799   0.939  0.9540  0.9262  1.1698
   11CHTO   O80 4292   6.245   5.793   1.126  0.0368 -0.4410 -0.0558
   11CHTO  C103 4293   6.266   5.891   1.237 -0.6466 -0.5010  0.2427
   11CHTO  H190 4294   6.269   5.838   1.332  0.3917 -1.4717 -0.3112
   11CHTO  C101 4295   6.398   5.980   1.206 -0.2572 -0.5462  0.4201
   11CHTO  H188 4296   6.404   5.997   1.099 -1.0912  1.7014  0.7004
   11CHTO   O68 4297   6.521   5.911   1.254  0.3493  0.0973 -0.5507
   11CHTO  H168 4298   6.513   5.887   1.344  0.3242  1.2604 -0.2271
   11CHTO   C99 4299   6.394   6.120   1.279  0.3711 -0.1022  0.1362
   11CHTO  H186 4300   6.409   6.114   1.388  0.3458 -0.8075  0.1044
   11CHTO   N17 4301   6.497   6.221   1.234  0.0106 -0.4520  0.4549
   11CHTO  H174 4302   6.581   6.184   1.178  1.2893  2.2331  0.5507
   11CHTO  H175 4303   6.529   6.280   1.319  0.0827  1.8739 -1.1618
   11CHTO   C97 4304   6.252   6.172   1.256  0.0694  0.1688 -0.0658
   11CHTO  H184 4305   6.228   6.191   1.151  0.6327  2.6791  0.2222
   11CHTO   O64 4306   6.155   6.086   1.325 -0.3272  0.5645  0.6076
   11CHTO  C104 4307   6.132   5.969   1.242  0.2811 -0.1084  0.0741
   11CHTO  H191 4308   6.102   6.000   1.142  2.4902  2.4199  0.1474
   11CHTO  C108 4309   6.015   5.884   1.304  0.6180  0.0514 -0.0144
   11CHTO   O71 4310   5.882   5.933   1.281 -0.4967  0.3998 -0.1241
   11CHTO  H171 4311   5.864   5.929   1.189 -0.0148 -0.7526 -0.1715
   11CHTO   O62 4312   6.218   6.285   1.332 -0.1303 -0.3982 -0.2068
   11CHTO   C91 4313   6.135   6.389   1.268  0.0372 -0.0384 -0.2746
   11CHTO  H178 4314   6.092   6.343   1.180  0.3649  1.4477 -1.2309
   11CHTO   C92 4315   6.212   6.522   1.224 -0.0962 -0.1805  0.0544
   11CHTO  H179 4316   6.303   6.505   1.165 -1.0223  1.2219 -1.7973
   11CHTO   O66 4317   6.132   6.593   1.131 -0.2789  0.0452 -0.1918
   11CHTO  H166 4318   6.150   6.560   1.045 -0.9362 -1.6311  0.2833
   11CHTO   C93 4319   6.248   6.615   1.352  0.7956  0.2613  0.2088
   11CHTO  H180 4320   6.262   6.719   1.318 -0.2150  0.2577 -0.2497
   11CHTO   N16 4321   6.372   6.572   1.423  0.6732  0.1280 -0.2777
   11CHTO  H172 4322   6.464   6.585   1.369  2.9666 -2.9207  2.7708
   11CHTO  H173 4323   6.390   6.629   1.513  0.5776  0.9557 -0.7684
   11CHTO   C94 4324   6.129   6.608   1.456  0.5340  0.3217  0.3746
   11CHTO  H181 4325   6.156   6.548   1.544  0.6578  1.3960  1.0829
   11CHTO   O61 4326   6.011   6.559   1.389  0.0982 -0.3777  0.5036
   11CHTO   C95 4327   6.011   6.420   1.358  0.8779 -0.5067  0.1914
   11CHTO  H182 4328   6.017   6.356   1.446  0.2334 -0.2867  0.3985
   11CHTO  C106 4329   5.870   6.387   1.295  0.0259 -0.4786 -0.2705
   11CHTO   O69 4330   5.869   6.250   1.251 -0.5646 -0.0986 -0.1287
   11CHTO  H169 4331   5.908   6.193   1.315  0.3962  0.6619 -0.0177
   11CHTO   O63 4332   6.092   6.755   1.504  0.1797 -0.1886  0.2365
   11CHTO   C96 4333   6.076   6.756   1.654  0.1474 -0.3613 -0.1634
   11CHTO  H183 4334   6.050   6.654   1.678 -0.6920 -0.1423 -0.1399
   11CHTO   C98 4335   5.968   6.865   1.707  0.2108  0.3937  0.1677
   11CHTO  H185 4336   5.877   6.846   1.648  0.0809 -1.2185  0.8550
   11CHTO   O67 4337   5.939   6.843   1.841 -0.2260  0.3772 -0.1454
   11CHTO  H167 4338   5.850   6.859   1.865 -0.5026  1.2313 -1.6992
   11CHTO  C102 4339   6.018   7.017   1.697  0.2212  0.5999 -0.2163
   11CHTO  H189 4340   5.940   7.068   1.756 -0.3288  0.9499 -1.2467
   11CHTO   N18 4341   6.007   7.080   1.566  1.0997 -0.2941 -0.2407
   11CHTO  H176 4342   6.070   7.030   1.494  0.2265 -0.0095 -1.2091
   11CHTO  H177 4343   5.913   7.075   1.513  0.2678 -1.9187  1.3567
   11CHTO  C105 4344   6.160   7.028   1.765 -0.1116 -0.6832 -0.6283
   11CHTO  H192 4345   6.230   7.078   1.698 -0.8819 -0.2148 -1.0785
   11CHTO   O65 4346   6.219   6.901   1.803  0.6770  0.3883  0.1223
   11CHTO  C100 4347   6.224   6.795   1.705  0.1158  1.0844  0.5690
   11CHTO  H187 4348   6.293   6.822   1.624  2.2237 -0.2950  1.8498
   11CHTO  C107 4349   6.280   6.668   1.776  0.2903 -0.3578 -0.2826
   11CHTO   O70 4350   6.204   6.619   1.886  0.1297  0.2394 -0.6929
   11CHTO  H170 4351   6.226   6.531   1.911  1.6406  0.7171 -0.2834
   11CHTO   O57 4352   6.145   7.112   1.885  0.3093  0.0075 -0.0656
   11CHTO   C85 4353   6.247   7.208   1.916 -0.4754 -0.3829 -0.5411
   11CHTO  H157 4354   6.231   7.227   2.024  1.4250  2.1996 -0.6738
   11CHTO   C83 4355   6.205   7.342   1.855  0.6778 -0.5618  0.7916
   11CHTO  H155 4356   6.105   7.365   1.892 -0.2296 -0.3100 -1.7163
   11CHTO   O56 4357   6.187   7.316   1.716 -0.5136 -0.2805  0.1476
   11CHTO  H135 4358   6.263   7.288   1.667 -2.0653 -0.7381 -2.1021
   11CHTO   C81 4359   6.305   7.457   1.891 -0.4612  0.0557 -0.2248
   11CHTO  H153 4360   6.314   7.458   2.000  0.0750 -2.7139 -0.2029
   11CHTO   N14 4361   6.256   7.595   1.849 -0.1031  0.1138  0.2902
   11CHTO  H141 4362   6.342   7.657   1.862 -0.6693  0.7033  1.2940
   11CHTO  H142 4363   6.183   7.626   1.920 -0.9242 -2.2112  0.5249
   11CHTO   C79 4364   6.440   7.408   1.828 -0.3508 -0.4371 -0.1939
   11CHTO  H151 4365   6.514   7.482   1.858 -1.0518 -1.2600  3.7467
   11CHTO   O52 4366   6.479   7.286   1.895  0.1855 -0.2904  0.3887
   11CHTO   C86 4367   6.397   7.168   1.889 -0.3742  0.3678  0.4385
   11CHTO  H158 4368   6.405   7.127   1.787 -0.1932  1.8173 -0.1530
   11CHTO   C90 4369   6.449   7.057   1.989 -0.1283 -0.3744 -0.3018
   11CHTO   O60 4370   6.478   7.115   2.120  0.4660 -0.0786 -0.0300
   11CHTO  H138 4371   6.398   7.102   2.166 -0.0579  1.5236 -0.4409
   11CHTO   O50 4372   6.452   7.400   1.683 -0.6712  0.1782  0.0373
   11CHTO   C73 4373   6.524   7.403   1.564 -0.3888 -0.8361 -1.2726
   11CHTO  H145 4374   6.537   7.508   1.532  1.9930 -1.8968 -3.9984
   11CHTO   C74 4375   6.457   7.325   1.449  0.2105 -0.1172 -0.8156
   11CHTO  H146 4376   6.361   7.377   1.433  0.4571  0.6491  0.1671
   11CHTO   O54 4377   6.537   7.338   1.333 -0.5490 -0.4864 -0.1430
   11CHTO  H133 4378   6.630   7.344   1.347 -0.2299 -2.3901 -1.3681
   11CHTO   C75 4379   6.431   7.173   1.497 -0.3606  0.1214  0.8853
   11CHTO  H147 4380   6.367   7.172   1.587 -0.0327  1.6353  1.1490
   11CHTO   N13 4381   6.363   7.082   1.402 -0.0762 -0.3900  0.1232
   11CHTO  H139 4382   6.343   6.986   1.447 -2.9842  0.1259 -0.0016
   11CHTO  H140 4383   6.262   7.109   1.375  0.5546  0.6477 -1.2753
   11CHTO   C76 4384   6.575   7.120   1.553  0.0590 -0.5528 -0.0308
   11CHTO  H148 4385   6.641   7.115   1.466 -0.0113 -0.7320 -0.0738
   11CHTO   O49 4386   6.643   7.205   1.643 -0.2408  0.4652  0.1941
   11CHTO   C77 4387   6.658   7.341   1.594  0.5091  0.0960 -0.0244
   11CHTO  H149 4388   6.717   7.334   1.503 -0.1572  0.1423 -0.4619
   11CHTO   C88 4389   6.740   7.425   1.691  0.0832 -0.6544  0.3987
   11CHTO   O58 4390   6.752   7.545   1.654  0.0825  0.6292  0.1377
   11CHTO  H136 4391   6.751   7.612   1.720  2.5682  0.2669  0.5924
   11CHTO   O51 4392   6.571   6.979   1.619  0.4769 -0.4492  0.5023
   11CHTO   C78 4393   6.692   6.900   1.616  0.3371  0.5218 -0.6410
   11CHTO  H150 4394   6.777   6.955   1.572  1.2297 -0.6668 -0.4468
   11CHTO   C80 4395   6.668   6.773   1.527 -0.0406  0.1571  0.2851
   11CHTO  H152 4396   6.564   6.736   1.538  0.7038 -1.8444  0.7420
   11CHTO   O55 4397   6.652   6.822   1.396 -0.1274  0.7096  0.3503
   11CHTO  H134 4398   6.624   6.753   1.338 -0.0385  0.3545  0.7337
   11CHTO   C84 4399   6.777   6.660   1.549 -0.8309  0.0813  0.1144
   11CHTO  H156 4400   6.868   6.689   1.496 -0.7635  1.7304  1.0993
   11CHTO   N15 4401   6.732   6.531   1.476 -0.1391  0.4779 -0.3934
   11CHTO  H143 4402   6.645   6.553   1.418  0.0729 -0.1005 -0.9364
   11CHTO  H144 4403   6.702   6.458   1.548  0.6182  0.8547  0.3212
   11CHTO   C87 4404   6.796   6.636   1.699  0.2765 -0.8206 -0.5686
   11CHTO  H159 4405   6.709   6.590   1.745 -0.0397 -0.4578 -0.8031
   11CHTO   O53 4406   6.837   6.763   1.761  0.4059 -0.0951 -0.0178
   11CHTO   C82 4407   6.728   6.852   1.759 -0.0623 -0.0768  0.2503
   11CHTO  H154 4408   6.641   6.806   1.808  1.1320 -0.1017  2.3747
   11CHTO   C89 4409   6.767   6.981   1.843 -0.1308  0.8229  0.1362
   11CHTO   O59 4410   6.875   7.056   1.777 -0.3005 -0.5286 -0.2105
   11CHTO  H137 4411   6.829   7.121   1.727 -0.3161 -0.8372 -0.5960
   11CHTO   O45 4412   6.933   6.533   1.738  0.1778  0.7445 -0.3339
   11CHTO   C67 4413   7.061   6.567   1.681 -0.0178 -0.4399  1.0297
   11CHTO  H124 4414   7.057   6.558   1.572  0.5295  1.3441  0.8583
   11CHTO   C65 4415   7.119   6.704   1.716 -0.1385 -0.7617  0.5254
   11CHTO  H122 4416   7.064   6.749   1.799  1.0127  3.3082 -0.7887
   11CHTO   O44 4417   7.111   6.787   1.597 -0.1350 -0.1879 -0.3819
   11CHTO  H102 4418   7.024   6.823   1.594  0.4113  1.1565  0.0362
   11CHTO   C63 4419   7.263   6.692   1.776 -0.0701 -0.1628  0.5090
   11CHTO  H120 4420   7.252   6.642   1.872 -0.9847 -0.2110  0.3820
   11CHTO   N11 4421   7.327   6.821   1.812  0.3704 -0.2567  0.3994
   11CHTO  H108 4422   7.278   6.877   1.889 -1.6466 -1.0145 -0.3060
   11CHTO  H109 4423   7.357   6.874   1.724  0.9712 -1.0176  0.1336
   11CHTO   C61 4424   7.346   6.607   1.676 -0.0617 -0.0793 -0.5395
   11CHTO  H118 4425   7.447   6.598   1.719 -0.2026 -1.3292 -0.4350
   11CHTO   O40 4426   7.295   6.470   1.668 -0.1902 -0.7945  0.7547
   11CHTO   C68 4427   7.162   6.444   1.724 -0.1632  0.0048 -0.4866
   11CHTO  H125 4428   7.168   6.438   1.835  0.4701 -2.2910 -0.6145
   11CHTO   C72 4429   7.130   6.303   1.679  0.6015  0.2326 -0.2201
   11CHTO   O48 4430   7.212   6.202   1.732 -0.3803 -0.0069 -0.1450
   11CHTO  H105 4431   7.228   6.223   1.822  1.2791 -0.4810 -0.3245
   11CHTO   O38 4432   7.356   6.671   1.548 -0.1873 -0.3928  0.1533
   11CHTO   C55 4433   7.431   6.593   1.452  0.6841 -0.2864  0.1209
   11CHTO  H112 4434   7.430   6.491   1.492  0.6786 -0.9144 -1.4780
   11CHTO   C56 4435   7.576   6.655   1.436 -0.2878 -0.1759  0.5098
   11CHTO  H113 4436   7.556   6.761   1.414  1.9118 -0.1214 -1.2840
   11CHTO   O42 4437   7.652   6.645   1.555 -0.5004 -0.3095 -0.4606
   11CHTO  H100 4438   7.610   6.684   1.629 -0.4715  1.1497 -1.1968
   11CHTO   C57 4439   7.652   6.587   1.307  0.5496 -0.2392  0.2311
   11CHTO  H114 4440   7.683   6.488   1.341 -1.0166 -0.4593  1.0683
   11CHTO   N10 4441   7.772   6.668   1.267  0.4058 -0.6593 -0.0608
   11CHTO  H106 4442   7.739   6.753   1.209 -0.5800  0.2524  1.7924
   11CHTO  H107 4443   7.807   6.704   1.363  0.6852  1.1049 -0.8120
   11CHTO   C58 4444   7.562   6.576   1.183  0.0812 -0.4360 -0.4095
   11CHTO  H115 4445   7.546   6.677   1.142  0.3315 -0.0001  0.5508
   11CHTO   O37 4446   7.437   6.516   1.223 -0.0700  0.7015  0.4436
   11CHTO   C59 4447   7.352   6.586   1.320  0.4176 -0.2378 -0.0424
   11CHTO  H116 4448   7.346   6.691   1.291  1.6244  0.4334  2.0635
   11CHTO   C70 4449   7.214   6.518   1.333  0.0760 -0.3586 -0.2152
   11CHTO   O46 4450   7.128   6.508   1.213  0.0477 -0.2146 -0.2564
   11CHTO  H103 4451   7.078   6.587   1.211 -1.3089 -1.0568 -0.2271
   11CHTO   O39 4452   7.631   6.499   1.068 -0.2871  0.5229  0.1617
   11CHTO   C60 4453   7.589   6.545   0.942  0.6859  0.5782  0.7684
   11CHTO  H117 4454   7.499   6.604   0.956  1.2706  0.9045  3.4893
   11CHTO   C62 4455   7.692   6.637   0.876  0.6434 -0.4862  0.4407
   11CHTO  H119 4456   7.710   6.720   0.948 -2.0352 -0.1244  0.7350
   11CHTO   O43 4457   7.816   6.571   0.860 -0.0922 -0.5510  0.5005
   11CHTO  H101 4458   7.807   6.480   0.880  1.5832 -0.5850  1.2035
   11CHTO   C66 4459   7.630   6.695   0.745  0.0555 -0.9421  0.5078
   11CHTO  H123 4460   7.531   6.738   0.763 -0.5889 -2.1104 -0.1790
   11CHTO   N12 4461   7.716   6.802   0.690  0.5235 -0.1530 -0.1253
   11CHTO  H110 4462   7.734   6.878   0.764  0.8284 -0.9665  0.6466
   11CHTO  H111 4463   7.808   6.752   0.663  1.2555  1.2314 -0.2326
   11CHTO   C69 4464   7.601   6.589   0.636 -0.6518 -0.3455 -0.3658
   11CHTO  H126 4465   7.698   6.558   0.594  0.2095  2.5008 -0.6183
   11CHTO   O41 4466   7.514   6.480   0.691  0.0181 -0.0026 -0.2676
   11CHTO   C64 4467   7.552   6.428   0.837  0.0238 -0.7947 -0.0508
   11CHTO  H121 4468   7.637   6.356   0.834 -1.1797 -2.3815  2.4112
   11CHTO   C71 4469   7.428   6.357   0.889  0.0511 -0.0219  0.0054
   11CHTO   O47 4470   7.408   6.255   0.791  0.1485  0.2327  0.2169
   11CHTO  H104 4471   7.464   6.184   0.816  0.2248  0.8103  1.7172
   11CHTO   O34 4472   7.515   6.649   0.504  0.1747 -0.3076 -0.6379
   11CHTO   C49 4473   7.549   6.600   0.338 -0.6284 -0.5987 -0.5736
   11CHTO   H91 4474   7.657   6.587   0.327 -0.4552  1.7337 -1.8040
   11CHTO   C47 4475   7.497   6.719   0.248 -0.5405 -0.1429 -0.5799
   11CHTO   H89 4476   7.542   6.706   0.147  0.2858  0.0521 -0.2397
   11CHTO   O33 4477   7.550   6.839   0.304 -0.2679  0.2044 -0.4199
   11CHTO   H70 4478   7.517   6.910   0.253 -0.0516  1.0194  0.5556
   11CHTO   C45 4479   7.329   6.725   0.245  0.3524  0.1428 -0.2623
   11CHTO   H87 4480   7.305   6.812   0.308 -0.7491 -1.8457  2.1300
   11CHTO    N8 4481   7.272   6.735   0.112 -0.5642  0.0901 -1.1157
   11CHTO   H75 4482   7.352   6.728   0.040  0.7190 -0.1444  0.3096
   11CHTO   H76 4483   7.223   6.831   0.103 -0.1251  0.3205 -1.0279
   11CHTO   C43 4484   7.262   6.593   0.317  0.5155  0.4787  0.0482
   11CHTO   H85 4485   7.274   6.613   0.424  0.0420 -1.6477  0.5107
   11CHTO   O29 4486   7.330   6.472   0.280 -0.0937 -0.0764 -0.2514
   11CHTO   C50 4487   7.475   6.467   0.300  0.4781  0.3453 -0.0227
   11CHTO   H92 4488   7.493   6.384   0.369 -2.2340 -0.0879  0.2491
   11CHTO   C54 4489   7.541   6.398   0.180  0.3232 -0.7372 -0.5095
   11CHTO   O36 4490   7.532   6.478   0.059 -0.2052  0.5694  0.0632
   11CHTO   H72 4491   7.556   6.421  -0.011 -1.6950 -0.8646  0.6784
   11CHTO   O27 4492   7.118   6.586   0.308 -0.8017  0.4497  0.1029
   11CHTO   C37 4493   7.041   6.475   0.366  0.1043 -0.0761  0.2556
   11CHTO   H79 4494   7.091   6.384   0.403 -3.5291 -1.6914  1.4161
   11CHTO   C38 4495   6.967   6.521   0.486  0.2531 -0.4184  0.0159
   11CHTO   H80 4496   6.934   6.625   0.474 -1.8461 -1.0867 -0.2920
   11CHTO   O31 4497   7.059   6.536   0.590 -0.6243  0.2897  0.6793
   11CHTO   H68 4498   7.055   6.624   0.623 -1.2509  0.3925  0.3324
   11CHTO   C39 4499   6.849   6.425   0.530  0.0157 -0.3406 -0.2128
   11CHTO   H81 4500   6.898   6.340   0.578  2.1320  1.2104  0.4608
   11CHTO    N7 4501   6.764   6.495   0.632 -0.8933 -0.0397  0.8696
   11CHTO   H73 4502   6.691   6.426   0.671 -0.7158 -0.1964  0.9254
   11CHTO   H74 4503   6.824   6.512   0.720 -0.6974  0.1350  0.7028
   11CHTO   C40 4504   6.765   6.379   0.405  1.2203 -0.0468 -0.1450
   11CHTO   H82 4505   6.697   6.456   0.367  3.4569  1.5328 -1.0262
   11CHTO   O26 4506   6.846   6.332   0.304 -0.7751 -0.5060 -0.0349
   11CHTO   C41 4507   6.939   6.430   0.260 -0.3895 -0.1304  0.1948
   11CHTO   H83 4508   6.892   6.518   0.214 -0.4546  0.2421  0.9741
   11CHTO   C52 4509   7.008   6.364   0.139 -0.3687 -0.8598 -0.2623
   11CHTO   O35 4510   6.926   6.376   0.022 -0.4025 -0.3359  0.0475
   11CHTO   H71 4511   6.950   6.309  -0.040  1.5044  0.9259 -0.6290
   11CHTO   O28 4512   6.680   6.276   0.440  0.3999 -0.0782 -0.3163
   11CHTO   C42 4513   6.554   6.237   0.371  0.2732  0.5961 -0.5395
   11CHTO   H84 4514   6.564   6.275   0.269 -0.0765  0.3551 -0.6665
   11CHTO   C44 4515   6.416   6.295   0.429  0.3635 -0.4900 -0.5015
   11CHTO   H86 4516   6.414   6.283   0.537  1.2735  1.2805 -0.2804
   11CHTO   O32 4517   6.420   6.437   0.403  0.1943 -0.1962  0.0239
   11CHTO   H69 4518   6.350   6.477   0.450  1.0801  0.7876  0.5188
   11CHTO   C48 4519   6.292   6.233   0.364  0.6524 -0.0359  0.1542
   11CHTO   H90 4520   6.289   6.283   0.267  0.4538 -0.5350 -0.0952
   11CHTO    N9 4521   6.156   6.264   0.422 -0.1266 -0.9197 -0.1984
   11CHTO   H77 4522   6.150   6.233   0.525  1.0126 -0.8906 -0.1104
   11CHTO   H78 4523   6.083   6.214   0.361  0.2871 -0.6664 -0.9266
   11CHTO   C51 4524   6.306   6.082   0.354  0.5673  0.8222  0.0487
   11CHTO   H93 4525   6.293   6.039   0.453  0.0402  1.7196  0.3810
   11CHTO   O30 4526   6.431   6.046   0.297  0.1414 -0.1882  0.2876
   11CHTO   C46 4527   6.547   6.082   0.364  0.2510  0.3218  0.0423
   11CHTO   H88 4528   6.556   6.034   0.461 -3.8880 -1.5240 -0.3467
   11CHTO   C53 4529   6.664   6.031   0.289  0.3803 -0.0743 -0.3782
   11CHTO   O72 4530   6.649   6.038   0.146  0.2055 -0.2202 -0.3783
   11CHTO  H199 4531   6.575   5.988   0.117  2.3486 -3.1774 -0.9075
   11CHTO   O22 4532   6.218   6.027   0.261 -0.0826 -0.6516 -0.0425
   11CHTO   C31 4533   6.197   5.886   0.258  0.0145  0.3117  0.5874
   11CHTO   H59 4534   6.292   5.843   0.297  2.5003  2.2575 -3.0217
   11CHTO   C29 4535   6.077   5.845   0.343 -0.6584 -0.5761  0.0249
   11CHTO   H57 4536   5.984   5.882   0.298 -0.3485  1.1726  0.7981
   11CHTO   O21 4537   6.086   5.897   0.476 -0.2492  0.3971 -0.2795
   11CHTO   H37 4538   6.005   5.923   0.516  1.7135  2.1288  2.6800
   11CHTO   C27 4539   6.064   5.687   0.341 -0.1960 -0.9283  0.3209
   11CHTO   H55 4540   6.151   5.641   0.389  0.0885 -0.5761  0.1459
   11CHTO    N5 4541   5.941   5.643   0.418 -0.7252 -0.1416  0.1842
   11CHTO   H43 4542   5.895   5.728   0.466  1.0871  0.1390  1.5167
   11CHTO   H44 4543   5.867   5.591   0.359 -0.0659 -2.3754  1.2823
   11CHTO   C25 4544   6.066   5.635   0.196 -0.1956 -0.0835  0.3165
   11CHTO   H53 4545   5.981   5.685   0.147 -1.2961 -1.9108  0.2774
   11CHTO   O17 4546   6.177   5.682   0.112  0.2051  0.0649 -0.0218
   11CHTO   C32 4547   6.191   5.825   0.106 -0.0657  0.1330 -0.3065
   11CHTO   H60 4548   6.113   5.875   0.049 -0.8458 -2.1819 -1.3087
   11CHTO   C36 4549   6.327   5.842   0.035 -0.2403 -0.1692 -0.1045
   11CHTO   O25 4550   6.341   5.976  -0.014 -1.0516  0.8155  0.7437
   11CHTO   H40 4551   6.346   6.040   0.054 -1.4623  1.7049 -0.0554
   11CHTO   O15 4552   6.066   5.463   0.197 -0.1256  0.4393 -0.1038
   11CHTO   C19 4553   6.010   5.369   0.108 -0.4922  0.4731  0.3018
   11CHTO   H47 4554   6.032   5.270   0.151  2.8833 -0.0136 -2.3695
   11CHTO   C20 4555   5.860   5.377   0.084  0.7725  0.7636 -0.7462
   11CHTO   H48 4556   5.829   5.478   0.054 -0.2721  0.7071  0.0865
   11CHTO   O19 4557   5.790   5.352   0.211  0.6056 -0.3129 -0.1494
   11CHTO   H35 4558   5.783   5.434   0.257 -0.5138 -0.5208  0.0707
   11CHTO   C21 4559   5.812   5.269  -0.021 -0.9488  0.0199  0.2217
   11CHTO   H49 4560   5.838   5.171   0.018  0.0981  0.6700  1.1762
   11CHTO    N4 4561   5.666   5.269  -0.043  0.3168 -0.0715  0.3825
   11CHTO   H41 4562   5.625   5.365  -0.013 -2.3815 -1.0091 -0.2309
   11CHTO   H42 4563   5.627   5.189   0.018  0.1477 -0.5411 -0.3340
   11CHTO   C22 4564   5.888   5.286  -0.153 -0.5230  0.3968 -0.4316
   11CHTO   H50 4565   5.855   5.380  -0.199  0.0348  0.8346  0.0620
   11CHTO   O14 4566   6.030   5.285  -0.131  0.2249 -0.3642  0.0628
   11CHTO   C23 4567   6.085   5.370  -0.032  0.3253  1.0764  0.4471
   11CHTO   H51 4568   6.093   5.471  -0.074  2.4372  0.3713 -0.9650
   11CHTO   C34 4569   6.221   5.318  -0.021  0.0046  0.2342 -0.1940
   11CHTO   O23 4570   6.312   5.409   0.037  0.3266 -0.1306 -0.4791
   11CHTO   H38 4571   6.281   5.495   0.016 -1.8123 -0.9234 -0.7929
   11CHTO   O16 4572   5.872   5.168  -0.243 -0.1900  0.1305  0.5151
   11CHTO   C24 4573   5.888   5.189  -0.395 -0.0922  0.1211 -0.4200
   11CHTO   H52 4574   5.939   5.283  -0.417  1.2579 -0.3107  0.8212
   11CHTO   C26 4575   5.748   5.186  -0.456  0.0164 -0.7150  0.4289
   11CHTO   H54 4576   5.701   5.087  -0.443  1.6017 -1.4801  0.3963
   11CHTO   O20 4577   5.660   5.268  -0.378  0.2959  0.1251  0.4080
   11CHTO   H36 4578   5.677   5.359  -0.389 -3.3523  1.1635  2.3693
   11CHTO   C30 4579   5.754   5.225  -0.611  0.0290 -0.2899 -0.6583
   11CHTO   H58 4580   5.793   5.327  -0.620  1.7587 -1.0523 -2.1634
   11CHTO    N6 4581   5.621   5.223  -0.667 -0.3520  0.5170 -0.7120
   11CHTO   H45 4582   5.572   5.127  -0.664  0.7260 -0.0677 -1.7397
   11CHTO   H46 4583   5.623   5.255  -0.770 -0.5830  0.3716 -0.7623
   11CHTO   C33 4584   5.855   5.138  -0.685  0.3898  0.1793 -0.1366
   11CHTO   H61 4585   5.812   5.036  -0.680 -1.0273  0.8576  4.5806
   11CHTO   O18 4586   5.977   5.133  -0.608 -0.2385  0.1995 -0.6162
   11CHTO   C28 4587   5.969   5.083  -0.469  0.5429 -0.2104  0.0894
   11CHTO   H56 4588   5.918   4.987  -0.464  0.9840 -0.4060  0.8034
   11CHTO   C35 4589   6.114   5.066  -0.411 -1.2872  0.1561  0.4923
   11CHTO   O24 4590   6.129   4.985  -0.298 -0.7523  0.0551  0.1452
   11CHTO   H39 4591   6.110   5.037  -0.223 -4.0679 -0.2511 -0.4300
   11CHTO    O9 4592   5.883   5.166  -0.819  0.0411 -0.0851  0.8688
   11CHTO   C13 4593   5.877   5.326  -0.885  0.7178  0.0709  0.3918
   11CHTO   H26 4594   5.770   5.349  -0.871  1.2522  1.2448  2.7710
   11CHTO   C11 4595   5.908   5.310  -1.029  0.3239  0.7402  0.2566
   11CHTO   H24 4596   5.828   5.247  -1.070  0.1911 -0.0942  1.7796
   11CHTO    O8 4597   6.041   5.247  -1.043  0.2275  0.1109 -0.4558
   11CHTO    H3 4598   6.066   5.179  -0.983  2.1572  1.4423  0.2859
   11CHTO    C9 4599   5.890   5.442  -1.102 -0.0419  0.2024  0.3117
   11CHTO   H22 4600   5.789   5.478  -1.079 -0.1431 -0.5049  0.9716
   11CHTO    N2 4601   5.904   5.428  -1.254 -0.5781  0.5077  0.4921
   11CHTO   H10 4602   5.834   5.357  -1.294 -0.9334  2.3243 -2.1813
   11CHTO   H11 4603   5.896   5.523  -1.304  0.5167 -0.6039 -1.8446
   11CHTO    C7 4604   5.995   5.547  -1.040 -0.6108 -0.5725 -0.2494
   11CHTO   H20 4605   5.964   5.640  -1.091  0.7460 -0.4501 -0.8694
   11CHTO    O4 4606   5.970   5.560  -0.899 -0.2716 -0.1149 -0.0092
   11CHTO   C14 4607   5.963   5.447  -0.813  0.0169 -0.0839  0.9604
   11CHTO   H27 4608   5.896   5.471  -0.728  0.5326 -1.3943  1.7491
   11CHTO   C18 4609   6.104   5.419  -0.755  0.5768 -0.1268  0.1214
   11CHTO   O13 4610   6.169   5.530  -0.693 -0.3162 -0.9622 -0.2773
   11CHTO    H7 4611   6.107   5.600  -0.683 -0.0248 -0.4407 -1.9075
   11CHTO    O2 4612   6.161   5.508  -1.077 -0.5963  0.4528  0.5090
   11CHTO    C1 4613   6.250   5.620  -1.107 -0.5715 -0.5502 -0.2364
   11CHTO   H14 4614   6.234   5.699  -1.031  2.4475 -0.7006  0.6099
   11CHTO    C2 4615   6.225   5.680  -1.254  0.0651  0.1209  0.4330
   11CHTO   H15 4616   6.227   5.595  -1.325  0.8306  1.0974 -0.7332
   11CHTO    O6 4617   6.095   5.748  -1.246 -0.2100  0.2559 -0.3345
   11CHTO    H1 4618   6.075   5.796  -1.324 -2.0132  0.4660  0.2286
   11CHTO    C3 4619   6.349   5.776  -1.290  0.0665  0.4503  0.3166
   11CHTO   H16 4620   6.338   5.869  -1.232 -1.1610 -1.0232  2.5252
   11CHTO    N1 4621   6.340   5.830  -1.426 -0.1851 -0.6925 -0.2016
   11CHTO    H8 4622   6.260   5.902  -1.435 -0.2327 -0.8728 -1.3695
   11CHTO    H9 4623   6.313   5.749  -1.492 -0.8792 -0.1600 -0.5810
   11CHTO    C4 4624   6.481   5.707  -1.254  0.0060 -0.0343  0.5450
   11CHTO   H17 4625   6.498   5.626  -1.326 -1.1830  0.4438 -0.2746
   11CHTO    O1 4626   6.492   5.669  -1.118 -0.4835  0.3869 -0.5284
   11CHTO    C5 4627   6.391   5.575  -1.081  0.5939 -0.3881 -0.3500
   11CHTO   H18 4628   6.404   5.477  -1.128  0.0568  0.3031 -1.9607
   11CHTO   C16 4629   6.416   5.555  -0.931 -0.7788 -0.5479  0.2092
   11CHTO   O11 4630   6.439   5.680  -0.858 -0.2866  0.3563  0.1616
   11CHTO    H5 4631   6.378   5.682  -0.788 -2.6178  0.8792 -1.8348
   11CHTO    O3 4632   6.588   5.800  -1.273 -0.7374 -0.1462  0.6836
   11CHTO    C6 4633   6.704   5.750  -1.353  0.5500 -0.3335  0.0373
   11CHTO   H19 4634   6.692   5.642  -1.362  1.5302 -0.4213 -0.2044
   11CHTO    C8 4635   6.717   5.814  -1.496  0.4747  0.4692  1.0423
   11CHTO   H21 4636   6.700   5.922  -1.489  1.4789  0.9145 -2.4078
   11CHTO    O7 4637   6.620   5.750  -1.584  0.2728 -0.0970  0.1968
   11CHTO    H2 4638   6.543   5.724  -1.536 -1.2772  1.7098 -1.1958
   11CHTO   C12 4639   6.861   5.794  -1.556 -0.1802 -0.4066  0.8288
   11CHTO   H25 4640   6.867   5.687  -1.588 -0.5978  0.0196 -0.7512
   11CHTO    N3 4641   6.890   5.875  -1.680  0.5399  0.2017 -0.2713
   11CHTO   H12 4642   6.871   5.981  -1.677  2.0682  0.4468  1.4832
   11CHTO   H13 4643   6.840   5.831  -1.766 -2.9090  1.3442  1.0809
   11CHTO   C15 4644   6.974   5.827  -1.449 -0.2565 -1.3381 -0.3656
   11CHTO   H28 4645   6.968   5.934  -1.432 -2.3591 -0.9383 -3.2870
   11CHTO   O10 4646   7.114   5.768  -1.490  0.2704 -0.5117 -0.3916
   11CHTO    H4 4647   7.118   5.681  -1.456 -3.9833 -0.0586  1.5597
   11CHTO    O5 4648   6.948   5.747  -1.333 -0.4028 -0.3415  0.3597
   11CHTO   C10 4649   6.829   5.776  -1.260  0.4466  0.5798 -0.1772
   11CHTO   H23 4650   6.837   5.877  -1.219 -0.8855  1.1122 -1.1642
   11CHTO   C17 4651   6.822   5.681  -1.144 -0.1251 -0.0701  0.1659
   11CHTO   O12 4652   6.930   5.700  -1.058 -0.1382 -0.0416  0.6368
   11CHTO    H6 4653   6.967   5.617  -1.035  2.0231  0.4626 -0.8209
   12CHTO  H203 4654   5.489  12.689   5.962 -0.1774 -0.2075 -0.7146
   12CHTO   O82 4655   5.548  12.622   5.933  0.0945  0.1082 -0.8916
   12CHTO  C123 4656   5.484  12.506   5.902  0.4172 -0.3853 -0.1163
   12CHTO  H227 4657   5.416  12.540   5.822 -0.5952 -2.0143  0.0416
   12CHTO   O77 4658   5.589  12.411   5.841  0.2502 -0.0252 -0.0071
   12CHTO  C118 4659   5.533  12.288   5.796  0.0332 -0.2925 -0.3241
   12CHTO  H222 4660   5.457  12.321   5.724  0.4587  2.0089  0.2567
   12CHTO  C125 4661   5.646  12.201   5.722  0.2114 -0.4593  0.2838
   12CHTO   O84 4662   5.664  12.247   5.590 -0.2079  0.1122 -0.4958
   12CHTO  H205 4663   5.685  12.338   5.594  2.2484 -0.4644  0.8872
   12CHTO  C114 4664   5.480  12.209   5.915 -0.1562 -0.4183 -0.2685
   12CHTO  H218 4665   5.560  12.189   5.986 -1.6638 -2.8683  0.8189
   12CHTO  C116 4666   5.357  12.293   5.971  0.1735  0.1941 -0.5766
   12CHTO  H220 4667   5.282  12.306   5.889 -1.3584  2.2996  1.0927
   12CHTO   O79 4668   5.293  12.220   6.080 -0.4080 -0.5675  0.4950
   12CHTO  H201 4669   5.215  12.263   6.108  0.2834  1.1141 -0.1159
   12CHTO  C120 4670   5.404  12.440   6.021  0.6754  0.4153 -0.0657
   12CHTO  H224 4671   5.470  12.420   6.108  1.1563  1.6339 -0.1513
   12CHTO   N21 4672   5.294  12.529   6.071  0.1864  0.2087  0.2629
   12CHTO  H211 4673   5.318  12.629   6.040  2.9860 -0.5674 -0.2056
   12CHTO  H212 4674   5.209  12.488   6.019 -0.1510  2.0166 -0.6534
   12CHTO   O75 4675   5.437  12.082   5.867 -0.3641 -0.1737  0.2381
   12CHTO  C112 4676   5.430  11.953   5.967 -0.2944  0.1507  0.4370
   12CHTO  H216 4677   5.333  11.902   5.962  0.3887 -1.4946  2.8163
   12CHTO   O73 4678   5.462  11.988   6.106 -0.6450  0.1230 -0.1122
   12CHTO  C113 4679   5.443  11.878   6.200  0.1445 -0.3629 -0.3321
   12CHTO  H217 4680   5.348  11.827   6.173  1.2654 -2.3000 -0.7390
   12CHTO  C124 4681   5.450  11.918   6.345  0.0883 -0.3177  0.1536
   12CHTO   O83 4682   5.367  12.035   6.362 -0.0830 -0.1831 -0.2116
   12CHTO  H204 4683   5.354  12.044   6.454 -0.5706  0.3060 -0.3212
   12CHTO  C109 4684   5.555  11.775   6.171  0.5400  0.2274 -0.6119
   12CHTO  H213 4685   5.653  11.816   6.200  0.3877 -1.0898  1.9327
   12CHTO  C110 4686   5.556  11.734   6.019 -0.0877  0.0310  0.1509
   12CHTO  H214 4687   5.478  11.659   6.007 -0.2263  0.0886  0.6494
   12CHTO   O78 4688   5.685  11.662   6.009  0.2952 -0.5709 -0.0326
   12CHTO  H200 4689   5.678  11.570   6.020 -0.9215 -0.7424 -1.9913
   12CHTO  C111 4690   5.541  11.851   5.917 -0.4550 -0.7069 -0.6355
   12CHTO  H215 4691   5.629  11.917   5.920  0.0060 -1.3483  0.1612
   12CHTO   N19 4692   5.525  11.814   5.774  0.2289 -0.3330  0.3337
   12CHTO  H207 4693   5.422  11.818   5.740 -0.2546  1.3309  1.8809
   12CHTO  H208 4694   5.577  11.877   5.704 -0.2578 -0.6004 -0.2732
   12CHTO   O74 4695   5.528  11.664   6.267  0.0238  0.3232 -0.3349
   12CHTO  C115 4696   5.657  11.583   6.326  0.6846 -0.2845  0.6098
   12CHTO  H219 4697   5.751  11.634   6.305  0.1212 -0.0250 -1.4122
   12CHTO   O76 4698   5.647  11.580   6.475  0.2313  1.0366 -0.5585
   12CHTO  C122 4699   5.526  11.512   6.526  0.4992  1.1512  0.1229
   12CHTO  H226 4700   5.442  11.582   6.522 -1.8294 -1.5392  0.7226
   12CHTO  C126 4701   5.525  11.474   6.678 -0.0909 -0.9836  0.4980
   12CHTO   O85 4702   5.540  11.585   6.764 -0.0017 -0.2860 -0.4565
   12CHTO  H206 4703   5.515  11.661   6.715  3.1180 -0.1483 -1.9599
   12CHTO  C121 4704   5.506  11.368   6.460 -0.8884 -0.1291  0.2252
   12CHTO  H225 4705   5.486  11.289   6.535  2.4151 -0.1025  1.2106
   12CHTO   O81 4706   5.393  11.384   6.370 -0.2516 -0.2260 -0.1258
   12CHTO  H202 4707   5.322  11.430   6.411  2.0007  2.1471  1.2344
   12CHTO  C119 4708   5.627  11.323   6.376 -0.9374 -0.3482  0.5173
   12CHTO  H223 4709   5.711  11.319   6.445 -1.8767  0.3619  1.7207
   12CHTO  C117 4710   5.665  11.437   6.263 -0.5006  0.2159  0.4724
   12CHTO  H221 4711   5.596  11.450   6.179  0.0364  2.6987  0.3753
   12CHTO   N20 4712   5.797  11.414   6.199 -0.7182 -0.0246  0.6949
   12CHTO  H209 4713   5.864  11.344   6.246 -0.0520  0.1293 -0.0133
   12CHTO  H210 4714   5.783  11.390   6.094 -1.2728  0.4512  0.6589
   12CHTO   O80 4715   5.629  11.183   6.312  0.4179 -0.4716  0.6404
   12CHTO  C103 4716   5.599  11.049   6.391  0.4662  0.0603 -0.0915
   12CHTO  H190 4717   5.626  11.064   6.495 -1.9449  0.0541  0.5501
   12CHTO  C101 4718   5.452  10.990   6.396  0.3206  0.2148  1.0087
   12CHTO  H188 4719   5.406  10.986   6.297  0.7577 -0.5511  0.8353
   12CHTO   O68 4720   5.372  11.094   6.479  0.0307 -0.4526 -1.1406
   12CHTO  H168 4721   5.281  11.095   6.454 -0.2664  1.3762 -0.0765
   12CHTO   C99 4722   5.453  10.844   6.461 -0.1769 -0.4250 -0.1156
   12CHTO  H186 4723   5.494  10.852   6.564 -1.2150 -0.6838  0.3274
   12CHTO   N17 4724   5.320  10.783   6.460  0.7979  0.1760 -0.3224
   12CHTO  H174 4725   5.280  10.758   6.363  0.8752 -0.5615 -0.1643
   12CHTO  H175 4726   5.258  10.856   6.511  1.1310  0.1521  0.1217
   12CHTO   C97 4727   5.553  10.746   6.388  0.0965 -0.7516 -0.2008
   12CHTO  H184 4728   5.510  10.722   6.289 -0.5318  1.3498 -0.4683
   12CHTO   O64 4729   5.685  10.810   6.377 -0.4730 -0.2563  0.1380
   12CHTO  C104 4730   5.698  10.947   6.321  0.4142  0.4012  0.0585
   12CHTO  H191 4731   5.677  10.938   6.214  4.5602 -0.6659 -0.7566
   12CHTO  C108 4732   5.842  10.996   6.330 -0.5094  0.5718  0.1545
   12CHTO   O71 4733   5.930  10.915   6.249  0.3307  0.0224  0.3864
   12CHTO  H171 4734   6.008  10.908   6.301 -1.2275  1.3304  3.0105
   12CHTO   O62 4735   5.568  10.617   6.456  0.0609 -0.7677  0.4368
   12CHTO   C91 4736   5.604  10.507   6.368  0.8913  0.1708  0.6380
   12CHTO  H178 4737   5.640  10.536   6.270  1.4879  0.7672  1.0313
   12CHTO   C92 4738   5.479  10.422   6.343 -0.2993  0.1461 -0.2639
   12CHTO  H179 4739   5.424  10.399   6.436  0.6102 -0.1486  0.2050
   12CHTO   O66 4740   5.386  10.495   6.256 -0.2546 -0.0613  0.4867
   12CHTO  H166 4741   5.360  10.578   6.292  1.2726 -0.6191  3.0129
   12CHTO   C93 4742   5.505  10.285   6.266 -0.3734  0.1493  0.1769
   12CHTO  H180 4743   5.524  10.313   6.161 -1.3882 -2.8013 -0.8437
   12CHTO   N16 4744   5.393  10.184   6.278 -0.5749  0.2318  0.2532
   12CHTO  H172 4745   5.301  10.235   6.251 -0.4059  2.0020  2.8145
   12CHTO  H173 4746   5.422  10.099   6.219  0.6735  1.2133 -0.5629
   12CHTO   C94 4747   5.630  10.215   6.327  0.4054  0.1602  0.7617
   12CHTO  H181 4748   5.610  10.176   6.426  0.0596  0.9543  1.0054
   12CHTO   O61 4749   5.735  10.309   6.335 -0.0358  0.5527  0.0102
   12CHTO   C95 4750   5.715  10.412   6.430 -0.0318 -0.4975 -0.1795
   12CHTO  H182 4751   5.684  10.374   6.527 -1.7069  3.1942  0.8458
   12CHTO  C106 4752   5.852  10.495   6.444  0.2718 -0.1211 -0.4907
   12CHTO   O69 4753   5.954  10.412   6.488  0.3750 -0.4598  1.0254
   12CHTO  H169 4754   5.970  10.345   6.425 -0.4029  1.6342 -1.4486
   12CHTO   O63 4755   5.684  10.095   6.242  0.0926 -0.1530  0.2711
   12CHTO   C96 4756   5.793   9.997   6.318  0.2501 -0.4609 -0.5906
   12CHTO  H183 4757   5.815  10.024   6.422 -1.0954 -0.2794 -0.3519
   12CHTO   C98 4758   5.926  10.007   6.249  0.2319  0.6211  0.1069
   12CHTO  H185 4759   5.919   9.982   6.142  1.3422 -1.1414  0.4139
   12CHTO   O67 4760   5.981  10.142   6.250  0.0593  0.0084 -0.6036
   12CHTO  H167 4761   5.915  10.195   6.210 -2.7890 -1.5181  1.8802
   12CHTO  C102 4762   6.032   9.915   6.314  0.4930 -0.1549 -0.9598
   12CHTO  H189 4763   6.054   9.957   6.413 -1.9861 -0.5150 -0.2254
   12CHTO   N18 4764   6.164   9.907   6.243  0.6214  0.4558  0.6474
   12CHTO  H176 4765   6.249   9.877   6.303  0.7829 -2.5466 -0.9708
   12CHTO  H177 4766   6.146   9.823   6.178 -2.8878  1.5344  0.1051
   12CHTO  C105 4767   5.976   9.767   6.348 -0.5505 -0.2690 -0.6393
   12CHTO  H192 4768   5.999   9.703   6.263 -0.7738  0.0860 -0.9706
   12CHTO   O65 4769   5.833   9.761   6.380  0.2566 -0.3952  0.7012
   12CHTO  C100 4770   5.748   9.846   6.303 -0.4798 -0.3711 -0.0819
   12CHTO  H187 4771   5.760   9.825   6.196 -3.7742  0.4396 -0.6782
   12CHTO  C107 4772   5.604   9.829   6.354 -0.1951 -0.2803 -0.0035
   12CHTO   O70 4773   5.540   9.721   6.294  0.6277 -0.1334  0.4862
   12CHTO  H170 4774   5.451   9.708   6.322  0.1759 -4.1465 -2.2887
   12CHTO   O57 4775   6.065   9.726   6.466  0.1686  0.1207  0.3730
   12CHTO   C85 4776   6.058   9.589   6.517 -0.4079 -0.1418  0.2524
   12CHTO  H157 4777   6.003   9.525   6.445  0.2996  0.4046 -0.7732
   12CHTO   C83 4778   5.969   9.583   6.643 -0.3378 -0.0301  0.3694
   12CHTO  H155 4779   5.873   9.630   6.622  1.1286  3.0906  0.3555
   12CHTO   O56 4780   6.022   9.668   6.750  0.4582 -0.0989 -0.0166
   12CHTO  H135 4781   6.108   9.640   6.774 -0.1143 -1.5013  0.4061
   12CHTO   C81 4782   5.942   9.440   6.687  0.2821  0.4081 -0.6873
   12CHTO  H153 4783   5.890   9.386   6.607  1.8058 -0.4155 -1.1524
   12CHTO   N14 4784   5.846   9.425   6.799  0.1469  0.1308 -0.6561
   12CHTO  H141 4785   5.832   9.320   6.811 -0.0114  0.4212  1.8512
   12CHTO  H142 4786   5.754   9.468   6.767 -0.2567 -0.7238 -0.6579
   12CHTO   C79 4787   6.084   9.363   6.724 -0.0996 -0.5352  0.4744
   12CHTO  H151 4788   6.067   9.255   6.726  0.3232 -0.6585 -1.6355
   12CHTO   O52 4789   6.181   9.389   6.612 -0.5242  0.4242  0.2630
   12CHTO   C86 4790   6.196   9.524   6.565 -0.1758  0.2317  0.1496
   12CHTO  H158 4791   6.233   9.589   6.648  1.0599 -2.1197  1.4762
   12CHTO   C90 4792   6.319   9.516   6.463  0.1940  0.5660  0.3418
   12CHTO   O60 4793   6.341   9.643   6.409 -0.0171 -0.3606  0.5334
   12CHTO  H138 4794   6.380   9.641   6.324  2.4785  1.1002  1.5591
   12CHTO   O50 4795   6.147   9.411   6.846  0.2388  0.3930  0.7181
   12CHTO   C73 4796   6.141   9.386   6.984 -0.1767  0.6792 -0.7676
   12CHTO  H145 4797   6.051   9.327   7.006  0.1406 -0.1529 -1.6302
   12CHTO   C74 4798   6.134   9.523   7.056  0.7047 -0.2081  0.2890
   12CHTO  H146 4799   6.044   9.579   7.029  0.2109 -0.8582  0.5589
   12CHTO   O54 4800   6.112   9.500   7.200  0.3460  0.5877  0.5778
   12CHTO  H133 4801   6.183   9.447   7.232 -0.4573  1.1685  3.4689
   12CHTO   C75 4802   6.264   9.607   7.030  0.7579 -0.1687  0.8026
   12CHTO  H147 4803   6.262   9.634   6.923 -2.1469 -2.9908  0.0739
   12CHTO   N13 4804   6.283   9.743   7.099 -0.2302 -0.2881 -0.4926
   12CHTO  H139 4805   6.301   9.719   7.203 -1.1764 -2.6266 -0.8237
   12CHTO  H140 4806   6.377   9.780   7.061  0.2602  0.3629  1.2881
   12CHTO   C76 4807   6.391   9.518   7.068  0.2364  0.2204 -0.2805
   12CHTO  H148 4808   6.389   9.501   7.176  0.2481  0.7744 -0.1909
   12CHTO   O49 4809   6.388   9.386   6.999 -0.7130  0.3717 -0.0825
   12CHTO   C77 4810   6.273   9.308   7.026  1.0068  0.4117 -0.9062
   12CHTO  H149 4811   6.266   9.287   7.133  0.1020 -0.7414 -1.1857
   12CHTO   C88 4812   6.273   9.174   6.959  0.3416  0.4220  0.5452
   12CHTO   O58 4813   6.153   9.087   7.000  0.1138 -0.1341 -0.0032
   12CHTO  H136 4814   6.180   8.997   7.003 -0.5694 -0.3015  1.8502
   12CHTO   O51 4815   6.527   9.582   7.023  0.1662 -0.3955 -0.4226
   12CHTO   C78 4816   6.663   9.503   7.049  0.0400 -0.4089 -0.1165
   12CHTO  H150 4817   6.641   9.398   7.023  0.9460 -0.2712 -1.5087
   12CHTO   C80 4818   6.724   9.509   7.186 -0.0505  0.0367 -0.4793
   12CHTO  H152 4819   6.748   9.615   7.206  0.4187 -0.2055  0.2867
   12CHTO   O55 4820   6.619   9.475   7.283 -0.0938 -0.4429 -0.1233
   12CHTO  H134 4821   6.574   9.550   7.317 -0.3204 -0.3997 -0.5229
   12CHTO   C84 4822   6.857   9.423   7.195 -0.1752 -0.4984  0.2785
   12CHTO  H156 4823   6.838   9.318   7.171  3.3903 -0.9127 -1.0555
   12CHTO   N15 4824   6.915   9.432   7.338  0.2897 -0.1978  0.4823
   12CHTO  H143 4825   6.852   9.386   7.412 -1.1649  0.4816 -0.3114
   12CHTO  H144 4826   7.011   9.387   7.346  1.8414  2.9409 -0.0128
   12CHTO   C87 4827   6.962   9.480   7.094 -0.6915 -0.4207 -0.5101
   12CHTO  H159 4828   7.002   9.576   7.128  2.6444 -1.7553 -0.5197
   12CHTO   O53 4829   6.898   9.491   6.951 -0.1832  0.1641 -0.5552
   12CHTO   C82 4830   6.771   9.552   6.946  0.3479  0.0200 -0.6292
   12CHTO  H154 4831   6.787   9.658   6.963  1.4445  0.1621 -2.4541
   12CHTO   C89 4832   6.722   9.535   6.800  1.1814 -0.0873  0.0465
   12CHTO   O59 4833   6.810   9.617   6.716  0.4905  0.6927 -0.0038
   12CHTO  H137 4834   6.758   9.656   6.648 -0.6885  0.7804  0.9435
   12CHTO   O45 4835   7.112   9.399   7.080 -0.2740 -0.3731 -0.1243
   12CHTO   C67 4836   7.096   9.257   7.040  0.2961 -0.7292 -0.1522
   12CHTO  H124 4837   6.995   9.219   7.051  0.2334 -0.8063 -0.9959
   12CHTO   C65 4838   7.143   9.241   6.894 -0.3021 -0.9774  0.3295
   12CHTO  H122 4839   7.101   9.319   6.831  2.4562 -0.6383 -1.1479
   12CHTO   O44 4840   7.111   9.114   6.846 -0.0775  0.2441  0.3307
   12CHTO  H102 4841   7.025   9.117   6.808 -0.2196  0.4063  0.6635
   12CHTO   C63 4842   7.302   9.280   6.894 -0.1393  0.1955  0.1582
   12CHTO  H120 4843   7.307   9.384   6.925 -1.6799  0.1247  0.6678
   12CHTO   N11 4844   7.365   9.283   6.763  0.5450  0.0650 -0.1038
   12CHTO  H108 4845   7.402   9.381   6.741  0.2910  0.5967  1.7325
   12CHTO  H109 4846   7.437   9.205   6.748 -0.1266 -0.1967 -1.9711
   12CHTO   C61 4847   7.384   9.195   7.000 -0.6673 -0.2183  0.1251
   12CHTO  H118 4848   7.474   9.257   7.018 -1.6402  0.8828  1.3238
   12CHTO   O40 4849   7.325   9.174   7.128 -0.4429  0.0940 -0.0908
   12CHTO   C68 4850   7.183   9.167   7.144 -0.1812  0.3326 -0.1802
   12CHTO  H125 4851   7.158   9.205   7.246  2.1540 -0.0543  0.5623
   12CHTO   C72 4852   7.144   9.013   7.143  0.2547 -0.1098  0.6541
   12CHTO   O48 4853   7.197   8.951   7.259  0.0288 -0.6553  0.4420
   12CHTO  H105 4854   7.181   9.001   7.337 -0.3452  0.6259 -0.4255
   12CHTO   O38 4855   7.411   9.067   6.943  0.1159 -0.2545 -0.9585
   12CHTO   C55 4856   7.524   8.985   6.943 -0.6523  0.0540  0.2557
   12CHTO  H112 4857   7.574   8.989   7.041 -1.1235 -2.0283  0.5956
   12CHTO   C56 4858   7.623   9.039   6.825 -0.5806  0.0854  0.4325
   12CHTO  H113 4859   7.562   9.074   6.740 -0.5205 -2.7436 -0.8404
   12CHTO   O42 4860   7.686   9.160   6.868  0.0758 -0.4783 -0.1613
   12CHTO  H100 4861   7.760   9.187   6.818  0.5225  1.0260  1.2792
   12CHTO   C57 4862   7.734   8.930   6.787  0.3457  0.5470 -0.4304
   12CHTO  H114 4863   7.811   8.932   6.864  0.8145  2.1517 -0.9090
   12CHTO   N10 4864   7.796   8.961   6.653  0.3129 -0.3318 -0.1341
   12CHTO  H106 4865   7.812   9.067   6.637  0.9040 -0.2977  0.6492
   12CHTO  H107 4866   7.891   8.910   6.644  0.7426  0.9376 -3.7520
   12CHTO   C58 4867   7.667   8.790   6.780  0.4398  0.1448  0.1404
   12CHTO  H115 4868   7.612   8.780   6.684  0.2580 -3.6757  0.5531
   12CHTO   O37 4869   7.587   8.750   6.892  0.4753  0.1873  0.4306
   12CHTO   C59 4870   7.477   8.848   6.901 -0.1640  0.0636 -0.5374
   12CHTO  H116 4871   7.435   8.850   6.801  0.7449  0.9111 -0.9137
   12CHTO   C70 4872   7.367   8.778   6.986  0.1769  0.0793 -0.5404
   12CHTO   O46 4873   7.311   8.658   6.926 -0.9889  0.3362 -0.9177
   12CHTO  H103 4874   7.267   8.679   6.846  0.9613  0.2476 -2.0203
   12CHTO   O39 4875   7.799   8.681   6.787 -0.2419 -0.5425 -0.0974
   12CHTO   C60 4876   7.800   8.595   6.673 -0.0793  0.2056 -0.3297
   12CHTO  H117 4877   7.695   8.567   6.662  0.6195 -3.2124  1.1398
   12CHTO   C62 4878   7.875   8.655   6.545  0.3667  0.4489  0.1547
   12CHTO  H119 4879   7.820   8.743   6.505 -2.5795 -1.9256 -1.1437
   12CHTO   O43 4880   8.013   8.672   6.581  0.7425  0.0701  0.1785
   12CHTO  H101 4881   8.036   8.625   6.659 -0.7372  1.1327  1.3013
   12CHTO   C66 4882   7.866   8.550   6.429 -0.1948  0.4875  0.3416
   12CHTO  H123 4883   7.759   8.537   6.414 -0.0224  1.3570 -1.7920
   12CHTO   N12 4884   7.923   8.598   6.300 -0.4514  0.2514  0.3770
   12CHTO  H110 4885   7.964   8.696   6.321  3.3732 -0.9873 -0.8446
   12CHTO  H111 4886   7.848   8.603   6.223 -0.2447 -0.1738  0.1515
   12CHTO   C69 4887   7.930   8.416   6.481  1.0952 -0.2778 -0.1720
   12CHTO  H126 4888   8.039   8.432   6.491  0.9759  1.6077 -1.6687
   12CHTO   O41 4889   7.882   8.372   6.619  0.0163  0.6527  0.3261
   12CHTO   C64 4890   7.867   8.461   6.725  0.3572  0.1269 -0.4070
   12CHTO  H121 4891   7.969   8.482   6.764  1.3034  0.1503 -2.8133
   12CHTO   C71 4892   7.782   8.393   6.844  0.5932 -0.6715 -0.5640
   12CHTO   O47 4893   7.868   8.328   6.932 -0.8288  0.0089  0.0020
   12CHTO  H104 4894   7.882   8.369   7.015  0.4126 -0.7606  0.1903
   12CHTO   O34 4895   7.899   8.305   6.394 -0.3562  0.0122 -0.8154
   12CHTO   C49 4896   8.011   8.203   6.360  0.3940  0.1311 -0.3477
   12CHTO   H91 4897   8.078   8.248   6.286 -0.3496 -1.1525 -1.8181
   12CHTO   C47 4898   7.947   8.085   6.280  0.0997  0.6538 -0.7447
   12CHTO   H89 4899   8.026   8.013   6.249  0.9330  0.8216  0.9808
   12CHTO   O33 4900   7.876   8.127   6.163  0.2029 -0.3168  0.2081
   12CHTO   H70 4901   7.829   8.207   6.177  3.0652  1.6283 -0.9119
   12CHTO   C45 4902   7.846   7.999   6.371  0.6737  0.4372 -0.4431
   12CHTO   H87 4903   7.744   8.038   6.358 -0.7672 -2.6954  0.7549
   12CHTO    N8 4904   7.839   7.855   6.333 -0.1599 -0.2733  0.1021
   12CHTO   H75 4905   7.937   7.810   6.341 -0.6677 -1.3936  0.0883
   12CHTO   H76 4906   7.803   7.842   6.232  0.0051 -0.9478  0.1272
   12CHTO   C43 4907   7.885   8.028   6.526  0.1298  0.7155  0.3499
   12CHTO   H85 4908   7.851   8.130   6.548 -0.7501  0.6976 -0.8482
   12CHTO   O29 4909   8.028   8.021   6.531 -0.9636 -0.0511 -0.3781
   12CHTO   C50 4910   8.092   8.140   6.478  0.3219 -0.0714 -1.3603
   12CHTO   H92 4911   8.096   8.220   6.554 -1.5975 -0.6943 -0.5665
   12CHTO   C54 4912   8.237   8.102   6.445 -0.5176  0.6141 -0.5945
   12CHTO   O36 4913   8.310   8.058   6.565  0.4641  0.1972  0.2407
   12CHTO   H72 4914   8.341   8.135   6.607 -0.6432  0.0116  1.4235
   12CHTO   O27 4915   7.814   7.944   6.615 -0.0731 -0.1343 -0.4119
   12CHTO   C37 4916   7.710   7.962   6.718 -0.8963 -0.3350 -0.5024
   12CHTO   H79 4917   7.669   7.861   6.736 -1.5996  0.2891  1.4063
   12CHTO   C38 4918   7.772   8.011   6.855  0.2575  0.1966  0.2435
   12CHTO   H80 4919   7.808   8.114   6.841 -1.0035  0.4537 -1.3219
   12CHTO   O31 4920   7.878   7.922   6.893 -0.2390 -0.0741  0.0651
   12CHTO   H68 4921   7.946   7.967   6.940 -0.2837  0.2693 -0.1912
   12CHTO   C39 4922   7.652   8.018   6.964 -0.0150 -0.6235 -0.9383
   12CHTO   H81 4923   7.628   7.912   6.976 -1.3027 -0.0039  2.5051
   12CHTO    N7 4924   7.690   8.069   7.105 -0.0520 -0.1622  0.3454
   12CHTO   H73 4925   7.603   8.046   7.165 -0.1995 -1.0839 -0.2289
   12CHTO   H74 4926   7.703   8.176   7.099  0.2895 -0.1865  0.5956
   12CHTO   C40 4927   7.527   8.105   6.913 -1.0575  0.1792  0.2477
   12CHTO   H82 4928   7.550   8.211   6.916 -0.6597  0.0693  1.6079
   12CHTO   O26 4929   7.491   8.057   6.778 -0.0732  0.2344 -0.1974
   12CHTO   C41 4930   7.592   8.045   6.671  0.1140 -0.2816 -0.1822
   12CHTO   H83 4931   7.619   8.146   6.637 -0.5313 -0.1017 -0.1700
   12CHTO   C52 4932   7.528   7.964   6.556  0.6186  0.3263 -0.1224
   12CHTO   O35 4933   7.389   8.008   6.528 -0.0862 -0.0153  0.0804
   12CHTO   H71 4934   7.367   8.008   6.437  3.4110  1.7920 -0.8812
   12CHTO   O28 4935   7.410   8.081   6.999 -0.2490 -0.0581 -0.5014
   12CHTO   C42 4936   7.273   8.128   6.980  0.4085  0.2181 -0.5817
   12CHTO   H84 4937   7.227   8.074   7.063  0.7328  0.1811 -0.4252
   12CHTO   C44 4938   7.200   8.081   6.850 -0.6149  0.2535  0.5976
   12CHTO   H86 4939   7.242   8.131   6.763 -2.1583 -0.7573 -0.7696
   12CHTO   O32 4940   7.219   7.938   6.828  0.4673 -0.5445  0.5229
   12CHTO   H69 4941   7.162   7.889   6.884  0.7660 -1.0970  0.3481
   12CHTO   C48 4942   7.044   8.125   6.854  0.4635 -0.2117  0.3161
   12CHTO   H90 4943   6.980   8.076   6.928  0.4500  0.2006  0.5783
   12CHTO    N9 4944   6.982   8.086   6.719  0.4950  0.1302 -0.2664
   12CHTO   H77 4945   7.024   8.158   6.651  0.6693  0.7952  0.5358
   12CHTO   H78 4946   6.987   7.982   6.692  1.2455 -0.2779  1.3705
   12CHTO   C51 4947   7.034   8.279   6.884  0.2020 -0.7899  0.0950
   12CHTO   H93 4948   7.067   8.338   6.799  0.0037  0.8493  1.1415
   12CHTO   O30 4949   7.112   8.311   7.002 -0.2337  0.1863  0.7511
   12CHTO   C46 4950   7.253   8.277   7.002  0.5650  0.3078 -0.3125
   12CHTO   H88 4951   7.299   8.337   6.923 -1.0365  2.0465  0.0416
   12CHTO   C53 4952   7.292   8.317   7.147  0.4965 -0.4296 -0.4017
   12CHTO   O72 4953   7.428   8.308   7.195 -0.3187  0.4261 -0.2757
   12CHTO  H199 4954   7.491   8.330   7.128  0.3486  1.4051  0.6526
   12CHTO   O22 4955   6.907   8.324   6.923  0.1903 -0.8245  0.0219
   12CHTO   C31 4956   6.854   8.468   6.934 -0.5312 -0.5017 -0.5921
   12CHTO   H59 4957   6.744   8.456   6.945 -0.4042 -1.3425 -0.2453
   12CHTO   C29 4958   6.903   8.547   7.055 -0.0458 -0.5600  0.2332
   12CHTO   H57 4959   7.008   8.576   7.043  0.1067 -1.8302 -1.6874
   12CHTO   O21 4960   6.907   8.449   7.165  0.4478  0.0993  0.0534
   12CHTO   H37 4961   6.942   8.486   7.244  0.5265 -0.3197  0.2131
   12CHTO   C27 4962   6.816   8.676   7.064 -0.1221 -0.5265 -0.0793
   12CHTO   H55 4963   6.709   8.649   7.057 -0.0508 -0.4178 -1.8079
   12CHTO    N5 4964   6.839   8.756   7.188 -0.1653  0.1083 -0.4195
   12CHTO   H43 4965   6.852   8.693   7.274 -0.0764 -0.5682 -0.9246
   12CHTO   H44 4966   6.762   8.830   7.199 -0.3922  0.0448 -1.4815
   12CHTO   C25 4967   6.831   8.765   6.932  0.0512  0.2456  0.2110
   12CHTO   H53 4968   6.935   8.801   6.927 -0.1239  0.5908 -1.0618
   12CHTO   O17 4969   6.804   8.683   6.816 -0.3850 -0.2105 -0.6422
   12CHTO   C32 4970   6.875   8.555   6.806 -0.9195  1.2184 -0.0761
   12CHTO   H60 4971   6.979   8.576   6.780 -1.2577  0.8455 -1.8085
   12CHTO   C36 4972   6.804   8.474   6.687 -0.9386  0.4028  0.5376
   12CHTO   O25 4973   6.809   8.560   6.572  0.1215  0.0885 -0.0527
   12CHTO   H40 4974   6.728   8.560   6.525  0.8277 -1.9127 -1.3145
   12CHTO   O15 4975   6.731   8.890   6.931 -0.1833  0.0051  0.2766
   12CHTO   C19 4976   6.608   8.936   6.861  0.0639  0.5973 -0.1721
   12CHTO   H47 4977   6.552   8.985   6.942  0.2520 -1.2076  1.0809
   12CHTO   C20 4978   6.644   9.037   6.751  0.4999  0.1114 -0.0717
   12CHTO   H48 4979   6.706   8.992   6.672  1.0782 -1.1735  1.1001
   12CHTO   O19 4980   6.725   9.149   6.801 -0.3750 -0.2752  0.3625
   12CHTO   H35 4981   6.773   9.115   6.874 -1.6716 -0.6993  1.0413
   12CHTO   C21 4982   6.511   9.089   6.687 -0.8286  0.4916  0.2409
   12CHTO   H49 4983   6.460   9.145   6.766 -0.4807 -0.9191  1.4701
   12CHTO    N4 4984   6.537   9.183   6.578  0.3743  0.3061 -0.3069
   12CHTO   H41 4985   6.590   9.276   6.595 -0.9208  1.2061 -1.0790
   12CHTO   H42 4986   6.459   9.208   6.507 -0.1424 -0.1405  0.1020
   12CHTO   C22 4987   6.418   8.968   6.650  1.1094 -0.1837  0.5070
   12CHTO   H50 4988   6.467   8.921   6.566 -0.1706 -2.3939  0.9734
   12CHTO   O14 4989   6.392   8.888   6.760  0.1379 -0.4644  0.0725
   12CHTO   C23 4990   6.508   8.832   6.816  0.4023 -0.1269  0.3142
   12CHTO   H51 4991   6.551   8.772   6.734  1.1357  0.7131  0.0763
   12CHTO   C34 4992   6.451   8.744   6.928 -0.0845 -0.2025  0.1260
   12CHTO   O23 4993   6.358   8.639   6.900  0.2692 -0.1614  0.7978
   12CHTO   H38 4994   6.362   8.573   6.966  0.1866 -1.4080 -0.4034
   12CHTO   O16 4995   6.284   9.012   6.621  0.0373 -0.4334 -0.6118
   12CHTO   C24 4996   6.210   8.904   6.519 -0.3702 -0.0761 -0.5234
   12CHTO   H52 4997   6.266   8.810   6.517  0.1581  0.2094  0.3665
   12CHTO   C26 4998   6.201   8.955   6.376  0.0090  0.0264  0.1504
   12CHTO   H54 4999   6.172   9.062   6.384  0.8261  0.3537 -1.0137
   12CHTO   O20 5000   6.335   8.967   6.325 -0.1059  0.3188  0.2967
   12CHTO   H36 5001   6.376   9.040   6.368 -0.2301 -0.6247  2.0882
   12CHTO   C30 5002   6.115   8.874   6.279 -0.3883 -0.0910  0.0055
   12CHTO   H58 5003   6.153   8.774   6.255 -0.7463 -0.2932  0.2654
   12CHTO    N6 5004   6.094   8.934   6.149  0.2560 -0.3633  0.3778
   12CHTO   H45 5005   6.156   9.020   6.126 -1.2404 -0.2103 -3.4327
   12CHTO   H46 5006   6.105   8.863   6.069  0.8103  0.0884  0.0489
   12CHTO   C33 5007   5.978   8.832   6.356 -0.2117  0.4078 -0.0836
   12CHTO   H61 5008   5.920   8.926   6.358  0.0779  0.6968 -2.8194
   12CHTO   O18 5009   5.994   8.786   6.485 -0.5248  0.1719  0.2054
   12CHTO   C28 5010   6.064   8.876   6.571  0.6852 -0.9599  1.0468
   12CHTO   H56 5011   6.010   8.971   6.573  2.1670 -0.1106  1.0924
   12CHTO   C35 5012   6.073   8.813   6.718  0.2406  0.4763  0.0371
   12CHTO   O24 5013   6.140   8.693   6.714 -0.6683 -0.0876  0.1344
   12CHTO   H39 5014   6.100   8.631   6.655  0.8717  0.5059 -1.5822
   12CHTO    O9 5015   5.895   8.742   6.278  0.0986 -0.0942  0.4431
   12CHTO   C13 5016   5.949   8.570   6.286 -0.2017 -0.3417 -0.1632
   12CHTO   H26 5017   6.028   8.558   6.363 -0.4220  1.0180  0.2973
   12CHTO   C11 5018   6.007   8.540   6.137  0.5166 -0.2169  0.2811
   12CHTO   H24 5019   6.106   8.586   6.122  0.8076 -0.7200  0.6724
   12CHTO    O8 5020   5.920   8.601   6.044  0.0274 -0.2118 -0.2359
   12CHTO    H3 5021   5.870   8.675   6.072  0.5754  0.4175 -0.9253
   12CHTO    C9 5022   6.018   8.389   6.121  0.5550  0.7598  0.8622
   12CHTO   H22 5023   6.081   8.351   6.203 -1.4698  1.5744  2.8303
   12CHTO    N2 5024   6.096   8.351   5.998  0.7585  0.4214 -0.6154
   12CHTO   H10 5025   6.076   8.420   5.917 -0.8443  0.0825 -0.5227
   12CHTO   H11 5026   6.093   8.246   5.973  2.1179  0.2159  0.0495
   12CHTO    C7 5027   5.878   8.314   6.142 -0.5392  0.3866  0.7170
   12CHTO   H20 5028   5.914   8.226   6.198 -0.6544 -0.5130 -0.6046
   12CHTO    O4 5029   5.783   8.381   6.224 -0.1019 -0.2154  0.1909
   12CHTO   C14 5030   5.828   8.473   6.328  0.3663  0.5145  0.6086
   12CHTO   H27 5031   5.869   8.410   6.410  2.1778 -1.7573 -1.9615
   12CHTO   C18 5032   5.700   8.545   6.383  0.0575 -0.2077 -0.8987
   12CHTO   O13 5033   5.616   8.467   6.477  0.0331 -0.0122 -0.4998
   12CHTO    H7 5034   5.679   8.434   6.538 -0.0395 -3.2803 -2.1333
   12CHTO    O2 5035   5.815   8.280   6.014 -0.1345 -0.2673  0.0114
   12CHTO    C1 5036   5.756   8.147   6.026 -0.4283  0.0281  0.1646
   12CHTO   H14 5037   5.737   8.113   6.130  1.3990  0.2314  0.5847
   12CHTO    C2 5038   5.838   8.033   5.946 -0.3496 -1.0017  0.2025
   12CHTO   H15 5039   5.846   8.067   5.842 -0.0457  2.8793  1.4294
   12CHTO    O6 5040   5.969   8.007   5.999  0.2143  0.8889  0.3272
   12CHTO    H1 5041   6.026   7.953   5.948  0.1813  1.2217 -0.0643
   12CHTO    C3 5042   5.753   7.907   5.946 -0.0948  0.2037  0.2111
   12CHTO   H16 5043   5.748   7.872   6.050  2.4348  0.1562  0.3508
   12CHTO    N1 5044   5.812   7.799   5.853  0.2965 -0.2143 -0.5563
   12CHTO    H8 5045   5.751   7.787   5.764  0.5596  2.3569 -1.1390
   12CHTO    H9 5046   5.823   7.711   5.914 -0.2680  0.6537  0.8005
   12CHTO    C4 5047   5.599   7.931   5.909 -0.3804  0.0256  0.5203
   12CHTO   H17 5048   5.594   7.943   5.801 -0.7207  0.4384  0.5826
   12CHTO    O1 5049   5.540   8.042   5.977 -0.1582 -0.3230 -0.2899
   12CHTO    C5 5050   5.617   8.157   5.963  0.7670  0.3372  0.8836
   12CHTO   H18 5051   5.632   8.168   5.855 -0.4544  2.4508  0.9076
   12CHTO   C16 5052   5.525   8.269   6.024 -0.4705  0.1750  0.7441
   12CHTO   O11 5053   5.513   8.243   6.162  0.5335  0.2671  0.1978
   12CHTO    H5 5054   5.447   8.177   6.174 -0.8587  1.9773  2.2115
   12CHTO    O3 5055   5.503   7.822   5.945 -0.2308 -0.1730 -0.1347
   12CHTO    C6 5056   5.411   7.778   5.844  0.2365  0.3844  0.1855
   12CHTO   H19 5057   5.446   7.800   5.743 -1.7005 -0.0983 -0.6138
   12CHTO    C8 5058   5.410   7.621   5.852 -0.7965  0.4506 -0.3472
   12CHTO   H21 5059   5.391   7.588   5.954 -2.1432 -1.6754 -1.2668
   12CHTO    O7 5060   5.545   7.579   5.819  0.3045 -0.0838 -0.0073
   12CHTO    H2 5061   5.565   7.494   5.854 -2.8578 -0.9612 -0.1569
   12CHTO   C12 5062   5.313   7.565   5.740  0.4328 -0.9053  0.2109
   12CHTO   H25 5063   5.364   7.594   5.646 -0.8910 -0.3597 -0.3495
   12CHTO    N3 5064   5.300   7.415   5.751 -0.5656  0.2652  0.0041
   12CHTO   H12 5065   5.295   7.390   5.856  1.1569 -1.9721 -0.4215
   12CHTO   H13 5066   5.387   7.369   5.709  1.3107  3.0722  0.6851
   12CHTO   C15 5067   5.177   7.641   5.751 -0.2306  0.6372  0.2389
   12CHTO   H28 5068   5.125   7.625   5.845 -0.9310 -2.2202 -0.5844
   12CHTO   O10 5069   5.095   7.621   5.625  0.8459  0.0586  0.4321
   12CHTO    H4 5070   5.109   7.535   5.592  2.4504  0.7176 -0.6940
   12CHTO    O5 5071   5.199   7.781   5.736 -1.1005  0.6565 -0.8199
   12CHTO   C10 5072   5.267   7.833   5.851  0.4957 -0.5818 -0.0985
   12CHTO   H23 5073   5.221   7.791   5.940  1.3664  0.5012  0.8744
   12CHTO   C17 5074   5.255   7.984   5.857 -0.3288  0.1792  0.5751
   12CHTO   O12 5075   5.124   8.021   5.853  0.2551  0.0415  0.2482
   12CHTO    H6 5076   5.075   8.006   5.774 -0.3986  0.5841  0.5481
   13CHTO  H203 5077   7.338   4.679   2.400 -0.2317 -0.0117 -0.4561
   13CHTO   O82 5078   7.327   4.759   2.354 -0.5954  0.4339  0.3780
   13CHTO  C123 5079   7.330   4.892   2.407 -0.1119 -0.0981 -0.2916
   13CHTO  H227 5080   7.398   4.954   2.347  0.3010  1.4346  1.6969
   13CHTO   O77 5081   7.193   4.950   2.398  0.2569 -0.0983  0.1498
   13CHTO  C118 5082   7.188   5.094   2.421 -0.0757  0.3788 -0.4676
   13CHTO  H222 5083   7.258   5.141   2.351 -0.5804  0.3200 -1.0136
   13CHTO  C125 5084   7.045   5.138   2.378  0.0390  0.5853  0.3597
   13CHTO   O84 5085   7.043   5.112   2.238 -0.2988  0.4541  0.2066
   13CHTO  H205 5086   7.020   5.021   2.234 -0.7610  0.6116 -0.6527
   13CHTO  C114 5087   7.236   5.124   2.567  0.2759 -0.7565 -0.3893
   13CHTO  H218 5088   7.162   5.082   2.636 -1.2311  1.7395 -0.4355
   13CHTO  C116 5089   7.374   5.054   2.596  0.4435 -0.4135 -0.1963
   13CHTO  H220 5090   7.447   5.102   2.528  2.2651 -1.1816  1.1693
   13CHTO   O79 5091   7.417   5.084   2.724 -0.0054  0.3805  0.4338
   13CHTO  H201 5092   7.506   5.060   2.736  0.4852  2.7154  1.7920
   13CHTO  C120 5093   7.379   4.898   2.559 -0.7675 -0.2937  0.3882
   13CHTO  H224 5094   7.305   4.851   2.626  0.1111  0.6916  2.0803
   13CHTO   N21 5095   7.515   4.836   2.585  0.6605 -0.2874 -0.0677
   13CHTO  H211 5096   7.509   4.793   2.684  1.5662  0.8282  0.4886
   13CHTO  H212 5097   7.586   4.917   2.580 -1.1632  1.3909  0.7325
   13CHTO   O75 5098   7.234   5.269   2.571  0.1072  0.0351 -0.1609
   13CHTO  C112 5099   7.144   5.344   2.711 -0.0398  0.1199 -0.2527
   13CHTO  H216 5100   7.185   5.298   2.802  0.9608 -0.8689 -1.1930
   13CHTO   O73 5101   7.005   5.315   2.695 -0.0371 -0.9118 -0.0508
   13CHTO  C113 5102   6.925   5.369   2.794 -0.0816 -0.7155  0.1611
   13CHTO  H217 5103   6.969   5.335   2.890  0.7061  0.5251  0.2624
   13CHTO  C124 5104   6.789   5.306   2.767 -0.0156  0.8625  0.4047
   13CHTO   O83 5105   6.792   5.168   2.820  0.4490 -0.0494  0.3850
   13CHTO  H204 5106   6.841   5.112   2.763 -0.6978 -1.3352  0.6548
   13CHTO  C109 5107   6.930   5.525   2.794  0.1619  0.0735 -0.4391
   13CHTO  H213 5108   6.901   5.556   2.692  1.9347 -0.9159 -1.2716
   13CHTO  C110 5109   7.071   5.573   2.816  0.6435 -0.1060 -0.7101
   13CHTO  H214 5110   7.096   5.556   2.921  0.5977 -0.9710 -0.8341
   13CHTO   O78 5111   7.075   5.710   2.795 -0.6257  0.5123 -0.1772
   13CHTO  H200 5112   7.154   5.758   2.809 -2.4859  3.4767  0.8525
   13CHTO  C111 5113   7.166   5.502   2.715  0.0020 -0.3709  0.5042
   13CHTO  H215 5114   7.143   5.539   2.615  1.4992 -0.6490  0.0416
   13CHTO   N19 5115   7.312   5.525   2.735  0.2607  0.0424 -0.1028
   13CHTO  H207 5116   7.335   5.524   2.841  0.1414  1.3759 -0.0536
   13CHTO  H208 5117   7.352   5.609   2.679 -0.1292 -0.1886 -0.7294
   13CHTO   O74 5118   6.831   5.575   2.890 -0.0863  0.1626 -0.2454
   13CHTO  C115 5119   6.712   5.649   2.822 -0.1295 -0.1261 -0.6056
   13CHTO  H219 5120   6.731   5.663   2.715  0.0257  0.6609 -0.4745
   13CHTO   O76 5121   6.562   5.561   2.830  0.2860 -0.2439 -0.3812
   13CHTO  C122 5122   6.519   5.554   2.968  0.1895  0.5236  0.0078
   13CHTO  H226 5123   6.599   5.505   3.023  0.4106  2.2208  1.2407
   13CHTO  C126 5124   6.389   5.464   2.992  0.4076  0.3010 -0.4913
   13CHTO   O85 5125   6.280   5.507   2.908  0.1447 -0.2966  0.2057
   13CHTO  H206 5126   6.206   5.452   2.924 -2.4051  2.8304 -0.1272
   13CHTO  C121 5127   6.495   5.701   3.029  0.3659  0.1460  0.0222
   13CHTO  H225 5128   6.387   5.713   3.051 -0.0337 -1.6407 -0.8474
   13CHTO   O81 5129   6.565   5.702   3.151  0.4724 -0.1077 -0.3894
   13CHTO  H202 5130   6.544   5.624   3.197 -1.0206  0.3218 -0.3150
   13CHTO  C119 5131   6.543   5.810   2.935 -0.2901 -0.1790 -0.3779
   13CHTO  H223 5132   6.478   5.811   2.847 -0.2133 -1.5856 -0.4537
   13CHTO  C117 5133   6.693   5.791   2.897 -0.0406  0.3637  0.2679
   13CHTO  H221 5134   6.760   5.785   2.983  1.2225  1.9784 -0.5604
   13CHTO   N20 5135   6.747   5.892   2.808 -0.6602 -0.3662 -0.7860
   13CHTO  H209 5136   6.798   5.859   2.718  1.2384 -1.4369  0.6590
   13CHTO  H210 5137   6.815   5.963   2.852  0.3466 -0.8319 -1.5848
   13CHTO   O80 5138   6.502   5.953   3.002  0.7349 -0.5430  0.4264
   13CHTO  C103 5139   6.355   6.007   3.010 -0.2264 -1.3069  0.2918
   13CHTO  H190 5140   6.368   6.115   3.017  2.7894 -1.6459  0.6093
   13CHTO  C101 5141   6.273   5.976   2.885 -0.9138  0.3085 -0.4691
   13CHTO  H188 5142   6.264   5.868   2.876  0.3516  0.3174 -2.2362
   13CHTO   O68 5143   6.351   6.037   2.762  0.0916  0.1653  0.1813
   13CHTO  H168 5144   6.358   5.969   2.698 -0.4782 -1.2230  1.5492
   13CHTO   C99 5145   6.122   6.037   2.889 -0.7182  0.2003 -0.3254
   13CHTO  H186 5146   6.124   6.148   2.891 -3.3432  0.2931 -1.0700
   13CHTO   N17 5147   6.034   6.002   2.774  0.0409  0.0892 -0.1551
   13CHTO  H174 5148   5.965   6.080   2.746 -0.1699 -0.3891 -1.0019
   13CHTO  H175 5149   6.092   5.975   2.687 -0.2160  1.6105 -0.8198
   13CHTO   C97 5150   6.063   5.996   3.023 -0.4905 -0.3702  0.5116
   13CHTO  H184 5151   6.053   5.886   3.024 -0.5107 -0.3691  1.4654
   13CHTO   O64 5152   6.142   6.038   3.129 -0.4688  0.6321 -0.0732
   13CHTO  C104 5153   6.270   5.964   3.136 -0.1722 -0.0125 -0.7085
   13CHTO  H191 5154   6.256   5.856   3.132  0.9642 -0.1354 -1.5920
   13CHTO  C108 5155   6.345   5.994   3.266  0.3000 -0.4232  0.5158
   13CHTO   O71 5156   6.278   5.941   3.377 -0.1670 -0.1649 -0.2247
   13CHTO  H171 5157   6.197   5.988   3.386 -0.0335  0.0722 -0.2588
   13CHTO   O62 5158   5.942   6.067   3.049  0.3415 -0.0682  0.1007
   13CHTO   C91 5159   5.843   6.010   3.144 -0.2848 -0.7759  0.2804
   13CHTO  H178 5160   5.894   5.925   3.188  0.0498 -0.5106  0.4091
   13CHTO   C92 5161   5.723   5.960   3.063 -0.6896 -0.3743  0.4972
   13CHTO  H179 5162   5.677   6.035   2.997 -1.3956 -0.4718  0.8681
   13CHTO   O66 5163   5.779   5.866   2.970 -0.1070 -0.6015 -0.0979
   13CHTO  H166 5164   5.851   5.905   2.925  1.6112 -3.5765 -0.0436
   13CHTO   C93 5165   5.606   5.899   3.156  0.1781 -0.1495  0.2067
   13CHTO  H180 5166   5.644   5.805   3.198 -0.8733 -0.2661  0.9247
   13CHTO   N16 5167   5.489   5.857   3.085 -0.3235  0.2137 -0.1747
   13CHTO  H172 5168   5.408   5.826   3.149 -1.0483  0.0284 -1.1734
   13CHTO  H173 5169   5.462   5.943   3.025  2.8342  1.0745 -0.4479
   13CHTO   C94 5170   5.564   5.998   3.268  0.5033  0.0131 -0.3805
   13CHTO  H181 5171   5.518   6.088   3.226  1.5898  0.5594 -0.4493
   13CHTO   O61 5172   5.680   6.044   3.338 -0.8945  0.0528 -0.0965
   13CHTO   C95 5173   5.791   6.105   3.260  0.7077  0.3200 -0.4192
   13CHTO  H182 5174   5.756   6.199   3.217  3.6454  0.7751 -1.9382
   13CHTO  C106 5175   5.906   6.129   3.371  0.4771  0.0586  0.1810
   13CHTO   O69 5176   5.862   6.220   3.473 -0.0006 -0.2606  0.0083
   13CHTO  H169 5177   5.923   6.225   3.544 -0.2754 -0.4803  0.2578
   13CHTO   O63 5178   5.472   5.918   3.384  0.0606  0.0402  0.1813
   13CHTO   C96 5179   5.336   5.978   3.391 -0.8497  0.2412 -0.3339
   13CHTO  H183 5180   5.311   5.991   3.286 -1.1566 -1.7009 -0.5197
   13CHTO   C98 5181   5.344   6.122   3.464  0.4675 -0.5455 -0.3990
   13CHTO  H185 5182   5.423   6.185   3.421 -1.0017  2.1274  0.7363
   13CHTO   O67 5183   5.220   6.188   3.439  0.4991 -0.0666  0.2651
   13CHTO  H167 5184   5.197   6.168   3.350  1.4228  0.3093 -0.0660
   13CHTO  C102 5185   5.362   6.104   3.627 -0.1302 -0.1431  1.0298
   13CHTO  H189 5186   5.318   6.193   3.675 -1.3140  0.0497 -0.3766
   13CHTO   N18 5187   5.506   6.101   3.671  0.8056 -0.0505 -0.1934
   13CHTO  H176 5188   5.527   5.996   3.688  0.8623  0.0336  0.2433
   13CHTO  H177 5189   5.516   6.153   3.765 -0.8325 -1.5987  0.8906
   13CHTO  C105 5190   5.285   5.975   3.674 -0.6797  0.3348  0.1345
   13CHTO  H192 5191   5.355   5.891   3.680  0.0704  0.8265 -1.5118
   13CHTO   O65 5192   5.181   5.943   3.585 -0.6724 -0.0874 -0.5497
   13CHTO  C100 5193   5.225   5.885   3.457 -0.1298  0.3698 -0.7189
   13CHTO  H187 5194   5.262   5.784   3.481 -1.6682  0.3696  1.8651
   13CHTO  C107 5195   5.114   5.858   3.358 -0.1954  0.4165 -0.0292
   13CHTO   O70 5196   5.149   5.774   3.246  0.3325 -0.1747  0.0090
   13CHTO  H170 5197   5.082   5.776   3.179  0.0230  0.5871  0.3354
   13CHTO   O57 5198   5.234   6.003   3.817 -0.7994  0.0755 -0.1293
   13CHTO   C85 5199   5.229   5.901   3.921 -0.1230  0.2842  0.2631
   13CHTO  H157 5200   5.320   5.838   3.904 -0.3617  0.2259 -0.8631
   13CHTO   C83 5201   5.105   5.810   3.899 -0.1996  0.6378 -0.2172
   13CHTO  H155 5202   5.121   5.767   3.800  0.3612 -1.4831  0.7628
   13CHTO   O56 5203   4.992   5.890   3.882 -0.6368 -0.3007 -0.1289
   13CHTO  H135 5204   4.917   5.841   3.911 -1.9042 -0.1121 -2.9027
   13CHTO   C81 5205   5.099   5.702   4.012 -0.0432 -0.5421 -0.2640
   13CHTO  H153 5206   5.193   5.647   4.008  0.0695 -0.4762  1.0285
   13CHTO   N14 5207   5.006   5.592   4.003  1.0368 -0.1743 -0.3132
   13CHTO  H141 5208   5.037   5.518   4.073  0.3001 -1.0397 -0.8830
   13CHTO  H142 5209   5.006   5.551   3.904  0.9183  1.0883 -0.8505
   13CHTO   C79 5210   5.083   5.776   4.148  0.3027  0.4734 -0.7119
   13CHTO  H151 5211   5.102   5.698   4.222  1.3089  0.5913 -0.8388
   13CHTO   O52 5212   5.197   5.865   4.159  0.5210  0.5693  0.1534
   13CHTO   C86 5213   5.232   5.962   4.063  0.0317  0.4823 -0.3818
   13CHTO  H158 5214   5.151   6.037   4.073  0.4012  0.4297  3.6649
   13CHTO   C90 5215   5.357   6.039   4.090  0.6915  0.2136  0.3871
   13CHTO   O60 5216   5.357   6.094   4.223 -0.3586 -0.3045  0.0053
   13CHTO  H138 5217   5.439   6.135   4.243  1.7245 -4.1375 -0.1795
   13CHTO   O50 5218   4.959   5.836   4.173  0.6922 -0.3702 -0.2689
   13CHTO   C73 5219   4.854   5.903   4.247  0.0173  0.1491  0.2009
   13CHTO  H145 5220   4.760   5.909   4.191  0.8810  0.6234 -1.2086
   13CHTO   C74 5221   4.908   6.049   4.278 -0.6962  0.0796  0.3792
   13CHTO  H146 5222   4.937   6.083   4.177  0.7214  0.5517  0.9232
   13CHTO   O54 5223   4.797   6.123   4.327 -0.5572  0.6442  0.1030
   13CHTO  H133 5224   4.762   6.179   4.259 -1.3498 -0.8804 -0.7624
   13CHTO   C75 5225   5.032   6.044   4.370 -0.1345  0.4069  0.3928
   13CHTO  H147 5226   5.117   5.998   4.317  0.3682  1.6210  0.1257
   13CHTO   N13 5227   5.086   6.169   4.422  0.6365 -0.8357 -0.0787
   13CHTO  H139 5228   5.066   6.183   4.528  2.0927  3.0700 -0.2559
   13CHTO  H140 5229   5.193   6.175   4.410  0.6068 -1.5417 -0.7045
   13CHTO   C76 5230   4.996   5.940   4.491  0.2004 -0.7615  0.4114
   13CHTO  H148 5231   4.935   5.992   4.565  0.9544 -1.0936  1.2827
   13CHTO   O49 5232   4.933   5.812   4.461 -0.7164  0.1639  0.4004
   13CHTO   C77 5233   4.823   5.834   4.380 -0.7315  0.1961 -0.9521
   13CHTO  H149 5234   4.749   5.894   4.434 -0.0608  0.7283 -0.6224
   13CHTO   C88 5235   4.755   5.702   4.360  0.2994  0.1007 -0.3660
   13CHTO   O58 5236   4.719   5.627   4.497  0.5395  0.3611 -0.4975
   13CHTO  H136 5237   4.805   5.606   4.525  0.6700  0.8502 -0.5244
   13CHTO   O51 5238   5.137   5.889   4.557  0.1776  0.5072 -0.7337
   13CHTO   C78 5239   5.133   5.905   4.721 -0.0992 -0.2331  0.0892
   13CHTO  H150 5240   5.029   5.900   4.759  0.1071  1.0156  0.8181
   13CHTO   C80 5241   5.189   6.039   4.757  0.5275  0.2329 -0.6731
   13CHTO  H152 5242   5.260   6.066   4.676 -0.2430 -1.5398 -1.9487
   13CHTO   O55 5243   5.074   6.131   4.778 -0.1408 -0.1234  0.0453
   13CHTO  H134 5244   5.054   6.150   4.688  1.0547 -0.4241 -0.2974
   13CHTO   C84 5245   5.268   6.045   4.887  0.4337 -0.5088 -0.7062
   13CHTO  H156 5246   5.199   6.024   4.970  2.0199  1.2733  1.1335
   13CHTO   N15 5247   5.341   6.172   4.919 -0.3293 -0.0856 -0.0731
   13CHTO  H143 5248   5.259   6.240   4.915  0.8677  1.4511  0.7184
   13CHTO  H144 5249   5.378   6.172   5.020 -0.6412  1.5501  0.0538
   13CHTO   C87 5250   5.360   5.917   4.898 -0.2388 -0.2049 -0.6624
   13CHTO  H159 5251   5.418   5.922   4.806  1.7591  0.5607  0.6218
   13CHTO   O53 5252   5.264   5.791   4.903 -0.3808 -0.3925  0.0619
   13CHTO   C82 5253   5.210   5.781   4.773 -0.5904  0.1476  0.1123
   13CHTO  H154 5254   5.296   5.757   4.711 -0.1229 -2.4891  1.6945
   13CHTO   C89 5255   5.116   5.654   4.768 -0.3233  0.4061  0.4152
   13CHTO   O59 5256   5.194   5.542   4.797 -0.0693 -0.0786 -0.2915
   13CHTO  H137 5257   5.242   5.518   4.720  1.1693  1.1003  0.0962
   13CHTO   O45 5258   5.465   5.908   5.020 -0.9053 -0.2817 -0.0309
   13CHTO   C67 5259   5.599   5.856   4.990 -0.4275 -0.4627  0.0640
   13CHTO  H124 5260   5.629   5.874   4.887  2.4467  0.8483  1.0688
   13CHTO   C65 5261   5.698   5.937   5.072  0.0484 -0.3509  0.2937
   13CHTO  H122 5262   5.634   5.986   5.146  0.1043 -0.0977  0.1749
   13CHTO   O44 5263   5.748   6.037   4.986  0.0903  0.0882  0.1128
   13CHTO  H102 5264   5.836   6.023   4.958 -0.1491 -0.2741 -0.4647
   13CHTO   C63 5265   5.812   5.856   5.151  0.7805  0.0497 -0.3215
   13CHTO  H120 5266   5.766   5.811   5.239  0.9307 -0.0644 -0.3023
   13CHTO   N11 5267   5.917   5.948   5.211 -0.1488  0.1698  0.6577
   13CHTO  H108 5268   5.970   6.001   5.134  0.1497 -2.7735 -1.2234
   13CHTO  H109 5269   5.869   6.021   5.273  1.8970 -0.4917  3.1134
   13CHTO   C61 5270   5.867   5.748   5.049  0.3587 -0.2674  0.2051
   13CHTO  H118 5271   5.929   5.691   5.120 -0.2982  3.4153  3.9236
   13CHTO   O40 5272   5.770   5.657   4.991  0.6560 -0.3755 -0.2117
   13CHTO   C68 5273   5.628   5.700   5.016  0.9678  0.9861 -0.3294
   13CHTO  H125 5274   5.603   5.670   5.120  1.8114  1.0950 -0.0929
   13CHTO   C72 5275   5.537   5.612   4.914 -0.0112 -0.2528  0.3199
   13CHTO   O48 5276   5.554   5.667   4.781  0.3731 -0.1556 -0.1594
   13CHTO  H105 5277   5.557   5.596   4.720  0.3337  1.7180 -2.4186
   13CHTO   O38 5278   5.943   5.818   4.949 -0.0206  0.7737 -0.1015
   13CHTO   C55 5279   6.027   5.750   4.857  0.4602 -0.2569 -0.1085
   13CHTO  H112 5280   5.990   5.649   4.834 -2.6286  0.9131 -0.5104
   13CHTO   C56 5281   6.178   5.739   4.925  0.2786  0.5915  0.2443
   13CHTO  H113 5282   6.191   5.840   4.965 -1.2063  0.9978 -0.2355
   13CHTO   O42 5283   6.163   5.643   5.031  0.1285 -0.1243 -0.0778
   13CHTO  H100 5284   6.152   5.557   4.995  0.1806  0.7334 -2.2290
   13CHTO   C57 5285   6.289   5.703   4.826  0.0187  0.2874 -0.2202
   13CHTO  H114 5286   6.278   5.598   4.799 -0.3985  0.6161 -1.3847
   13CHTO   N10 5287   6.419   5.730   4.889  0.1700 -0.0939 -0.1736
   13CHTO  H106 5288   6.494   5.770   4.823 -1.0066  0.9881 -0.8745
   13CHTO  H107 5289   6.453   5.635   4.929 -1.9325 -1.3113 -1.2276
   13CHTO   C58 5290   6.273   5.786   4.692  0.3548 -0.0915 -0.8339
   13CHTO  H115 5291   6.285   5.895   4.709 -1.6425  0.0689 -0.2127
   13CHTO   O37 5292   6.144   5.752   4.637  0.1283 -0.1631 -0.4898
   13CHTO   C59 5293   6.037   5.813   4.716  0.1191 -0.3998 -0.2057
   13CHTO  H116 5294   6.054   5.921   4.722 -2.6269  0.2986 -3.4234
   13CHTO   C70 5295   5.908   5.786   4.631  0.0394  0.5262  0.0725
   13CHTO   O46 5296   5.797   5.861   4.684 -0.3079 -0.0357  0.1768
   13CHTO  H103 5297   5.726   5.864   4.624 -0.3280  1.8231  0.2519
   13CHTO   O39 5298   6.382   5.721   4.582  0.4010  0.1686 -0.0310
   13CHTO   C60 5299   6.518   5.762   4.590 -0.5984  0.1521 -0.1934
   13CHTO  H117 5300   6.535   5.848   4.655  0.9653 -1.0813  1.0781
   13CHTO   C62 5301   6.622   5.648   4.635 -0.0829 -0.6185  0.5666
   13CHTO  H119 5302   6.573   5.613   4.729 -0.5484  0.5360  0.7614
   13CHTO   O43 5303   6.614   5.542   4.538  0.4780  0.0753 -0.0839
   13CHTO  H101 5304   6.528   5.503   4.541  1.1031 -1.3347 -0.0095
   13CHTO   C66 5305   6.775   5.689   4.663 -1.2570 -0.2579  0.6743
   13CHTO  H123 5306   6.775   5.765   4.741  0.5711 -0.5362  0.9595
   13CHTO   N12 5307   6.850   5.584   4.737 -0.0186  0.7104 -1.4164
   13CHTO  H110 5308   6.867   5.484   4.698  3.1120 -0.3830  2.3975
   13CHTO  H111 5309   6.934   5.620   4.794 -0.1684  1.2459 -1.5318
   13CHTO   C69 5310   6.824   5.742   4.523  0.6350  0.2125  0.2088
   13CHTO  H126 5311   6.833   5.658   4.452 -2.3844 -0.3344  0.3844
   13CHTO   O41 5312   6.712   5.853   4.471 -0.6442 -0.0032 -0.4403
   13CHTO   C64 5313   6.565   5.809   4.448 -0.3168 -0.0033 -0.2996
   13CHTO  H121 5314   6.557   5.732   4.368 -2.1147 -0.3202  0.1786
   13CHTO   C71 5315   6.495   5.928   4.391  0.2845 -0.3845  0.1503
   13CHTO   O47 5316   6.524   6.047   4.461  0.2629 -0.1252 -0.1698
   13CHTO  H104 5317   6.609   6.081   4.441 -0.0858 -0.6363 -2.6881
   13CHTO   O34 5318   6.982   5.819   4.539 -0.1605  0.5929  0.4650
   13CHTO   C49 5319   7.060   5.895   4.437  0.9066 -0.1577  0.0393
   13CHTO   H91 5320   7.092   5.819   4.367 -2.5957  0.0144 -1.8989
   13CHTO   C47 5321   7.172   5.968   4.513 -0.4372  0.8468  0.2308
   13CHTO   H89 5322   7.230   6.019   4.432  0.7975 -0.8229  0.0494
   13CHTO   O33 5323   7.265   5.881   4.584 -0.5637  0.5030 -0.1124
   13CHTO   H70 5324   7.326   5.926   4.638  0.0727  1.4873 -1.6221
   13CHTO   C45 5325   7.126   6.081   4.615 -0.8990 -0.2323 -0.6996
   13CHTO   H87 5326   7.123   6.037   4.716  2.4748  0.9051 -0.0467
   13CHTO    N8 5327   7.223   6.186   4.619 -0.2085  0.3384 -0.7389
   13CHTO   H75 5328   7.328   6.167   4.603  0.3107  4.2527 -2.7785
   13CHTO   H76 5329   7.215   6.243   4.711 -0.8020 -0.3414 -0.3671
   13CHTO   C43 5330   6.976   6.122   4.578  0.5519  0.1920 -0.2172
   13CHTO   H85 5331   6.913   6.041   4.615 -0.6129  1.1623 -0.0267
   13CHTO   O29 5332   6.970   6.138   4.433 -0.2898  0.1145 -0.1694
   13CHTO   C50 5333   6.986   6.016   4.359  0.2746  0.9148  0.1002
   13CHTO   H92 5334   6.884   5.985   4.332  0.0439  1.1686  0.6745
   13CHTO   C54 5335   7.043   6.049   4.217  0.4751  0.3682  0.2727
   13CHTO   O36 5336   6.975   6.164   4.157 -0.1921 -0.2567 -0.1138
   13CHTO   H72 5337   6.882   6.152   4.154 -0.6903  2.8459  0.9497
   13CHTO   O27 5338   6.935   6.239   4.651 -0.5689 -0.4332  0.0800
   13CHTO   C37 5339   6.874   6.298   4.760 -0.0563 -0.4095 -0.1713
   13CHTO   H79 5340   6.901   6.246   4.852 -0.2772 -1.2033 -0.5482
   13CHTO   C38 5341   6.931   6.442   4.788  0.0998 -0.1356  0.2811
   13CHTO   H80 5342   6.911   6.507   4.701  2.4425  1.5196  0.9409
   13CHTO   O31 5343   7.070   6.436   4.810  0.7319  0.6544 -0.1234
   13CHTO   H68 5344   7.094   6.365   4.867 -1.2067  0.1023  0.0270
   13CHTO   C39 5345   6.862   6.514   4.908 -0.5403  0.0158 -0.3112
   13CHTO   H81 5346   6.895   6.452   4.992  1.7980  0.1515 -1.0974
   13CHTO    N7 5347   6.906   6.658   4.924 -0.5926  0.2749 -0.7805
   13CHTO   H73 5348   6.821   6.717   4.893  0.0775  0.9769 -1.3013
   13CHTO   H74 5349   6.928   6.689   5.025  3.5810  0.3363 -1.6072
   13CHTO   C40 5350   6.705   6.498   4.888 -0.8818  0.0324  0.1389
   13CHTO   H82 5351   6.670   6.567   4.811 -0.1191 -1.8568 -1.9362
   13CHTO   O26 5352   6.663   6.361   4.856 -0.6825 -0.1783 -0.3575
   13CHTO   C41 5353   6.723   6.303   4.737  0.4413 -0.3113  0.3948
   13CHTO   H83 5354   6.706   6.363   4.646 -0.3938 -0.2104  0.6179
   13CHTO   C52 5355   6.661   6.162   4.713  0.0666 -0.0487 -0.0457
   13CHTO   O35 5356   6.641   6.102   4.848 -0.0290 -0.2057  0.8708
   13CHTO   H71 5357   6.550   6.109   4.870 -0.3226  0.6256 -0.5053
   13CHTO   O28 5358   6.653   6.513   5.022 -0.2568 -0.0313  0.3306
   13CHTO   C42 5359   6.508   6.539   5.054 -0.4363 -0.5380 -0.3376
   13CHTO   H84 5360   6.450   6.488   4.977 -1.8835 -0.7993  0.9160
   13CHTO   C44 5361   6.476   6.692   5.047  0.2242  0.3023  0.5345
   13CHTO   H86 5362   6.543   6.748   5.112  0.7556 -0.5684  0.7449
   13CHTO   O32 5363   6.507   6.749   4.916  0.4327  0.2216 -0.2718
   13CHTO   H69 5364   6.526   6.840   4.923  1.5900 -0.1023  0.9285
   13CHTO   C48 5365   6.333   6.741   5.107  0.2386 -0.2083  0.6615
   13CHTO   H90 5366   6.255   6.691   5.049  1.2984  0.0632 -1.0380
   13CHTO    N9 5367   6.310   6.890   5.095  0.7676  0.4722 -0.2743
   13CHTO   H77 5368   6.230   6.912   5.164  2.6005  4.0291  0.8340
   13CHTO   H78 5369   6.397   6.948   5.124  0.8676 -0.4185  1.2310
   13CHTO   C51 5370   6.331   6.681   5.251 -0.4500  0.5205 -0.4917
   13CHTO   H93 5371   6.425   6.717   5.295  0.0902 -1.9805  0.5124
   13CHTO   O30 5372   6.330   6.532   5.241 -0.0838 -0.1246 -0.2764
   13CHTO   C46 5373   6.462   6.477   5.191 -0.0463 -0.0054  0.1101
   13CHTO   H88 5374   6.548   6.499   5.254  1.3301 -1.5247 -1.2006
   13CHTO   C53 5375   6.449   6.325   5.175 -0.3458  0.0486 -1.1814
   13CHTO   O72 5376   6.557   6.237   5.139 -0.0356  0.5794  0.2235
   13CHTO  H199 5377   6.555   6.216   5.048 -0.1111 -0.0211  0.3619
   13CHTO   O22 5378   6.221   6.719   5.330  0.5435  0.2828 -0.2570
   13CHTO   C31 5379   6.252   6.721   5.476  0.0687 -0.3172 -0.1361
   13CHTO   H59 5380   6.337   6.652   5.493  0.2382  0.0754  0.6422
   13CHTO   C29 5381   6.291   6.859   5.522 -0.7452  0.8374  0.5279
   13CHTO   H57 5382   6.227   6.941   5.485  0.0712  0.7082 -1.2159
   13CHTO   O21 5383   6.415   6.888   5.457 -0.0495 -0.0940 -0.2508
   13CHTO   H37 5384   6.465   6.953   5.502  1.3789 -0.3853 -1.4116
   13CHTO   C27 5385   6.311   6.869   5.681 -0.3678 -0.1294 -0.0272
   13CHTO   H55 5386   6.395   6.804   5.711 -1.8381 -1.9954  0.1244
   13CHTO    N5 5387   6.340   7.006   5.726 -0.0073 -0.3936  0.1904
   13CHTO   H43 5388   6.270   7.080   5.690  2.7134  2.6699  0.9595
   13CHTO   H44 5389   6.309   7.013   5.829  0.0209  2.6090  0.0177
   13CHTO   C25 5390   6.183   6.812   5.747 -0.1672 -0.1183  0.1025
   13CHTO   H53 5391   6.093   6.863   5.711 -0.5475 -1.9944 -1.6864
   13CHTO   O17 5392   6.176   6.671   5.703  0.3621 -0.0328 -0.2139
   13CHTO   C32 5393   6.137   6.665   5.563 -0.4554 -0.4828 -0.2501
   13CHTO   H60 5394   6.045   6.722   5.552  0.6838  2.0506  2.6282
   13CHTO   C36 5395   6.102   6.514   5.533 -0.1114  0.2388 -0.0778
   13CHTO   O25 5396   6.053   6.502   5.401 -0.0362 -0.0175 -0.1500
   13CHTO   H40 5397   6.124   6.467   5.350 -0.3731 -0.6877 -0.1625
   13CHTO   O15 5398   6.191   6.829   5.909 -0.9216 -0.3113 -0.3108
   13CHTO   C19 5399   6.086   6.860   6.012 -0.5077  0.2688  0.0114
   13CHTO   H47 5400   6.118   6.860   6.117 -0.4351  1.5131 -0.0117
   13CHTO   C20 5401   6.018   6.995   5.983 -0.6738 -0.1678  0.4169
   13CHTO   H48 5402   5.975   6.998   5.882 -0.3487  4.6143  0.3221
   13CHTO   O19 5403   6.128   7.088   5.999 -0.0304  0.2722  0.0225
   13CHTO   H35 5404   6.093   7.173   6.021  0.5016  0.2987  0.7781
   13CHTO   C21 5405   5.902   7.028   6.080  0.4035 -1.2332 -0.5788
   13CHTO   H49 5406   5.931   7.025   6.186  1.5415  0.6375 -0.8256
   13CHTO    N4 5407   5.839   7.162   6.061  0.2436 -0.4628 -0.1410
   13CHTO   H41 5408   5.879   7.218   5.978 -0.8005  1.4253  0.5989
   13CHTO   H42 5409   5.732   7.152   6.052 -0.0816  1.4409  1.1169
   13CHTO   C22 5410   5.800   6.909   6.074 -0.6201  0.3920  0.3741
   13CHTO   H50 5411   5.747   6.905   5.979 -1.0600  0.1811  0.6252
   13CHTO   O14 5412   5.864   6.779   6.091  0.0349 -0.2223 -0.1268
   13CHTO   C23 5413   5.982   6.745   6.014 -0.0014 -0.3250  1.1557
   13CHTO   H51 5414   5.939   6.732   5.913 -1.6783 -0.7754  1.8976
   13CHTO   C34 5415   6.043   6.620   6.068 -0.2296 -0.0676  0.4417
   13CHTO   O23 5416   6.070   6.638   6.207  0.4289  0.0559  0.1395
   13CHTO   H38 5417   6.123   6.564   6.229 -1.1866 -0.8622  0.9943
   13CHTO   O16 5418   5.706   6.915   6.178  0.3105  0.1842  1.0822
   13CHTO   C24 5419   5.559   6.869   6.133 -0.3404  0.0842  0.0989
   13CHTO   H52 5420   5.567   6.801   6.048 -0.0949 -1.9483  1.7144
   13CHTO   C26 5421   5.476   6.990   6.085 -0.6731 -0.0615 -0.2919
   13CHTO   H54 5422   5.487   7.071   6.159  1.2905  0.8897 -1.6043
   13CHTO   O20 5423   5.532   7.042   5.962 -0.2601  0.1619 -0.0298
   13CHTO   H36 5424   5.501   6.984   5.894 -1.1019  1.0641 -0.4185
   13CHTO   C30 5425   5.324   6.971   6.066  0.0628  0.0341 -0.0220
   13CHTO   H58 5426   5.302   6.921   5.971 -1.0970 -0.1545  0.3314
   13CHTO    N6 5427   5.250   7.097   6.053  0.4549 -0.1607  0.1420
   13CHTO   H45 5428   5.254   7.139   5.954 -2.1871  2.7143  1.1290
   13CHTO   H46 5429   5.145   7.090   6.077 -0.3390 -0.3645 -3.1865
   13CHTO   C33 5430   5.272   6.873   6.175  0.1565 -0.4962 -0.4533
   13CHTO   H61 5431   5.265   6.928   6.271 -0.2988 -1.1115 -0.1335
   13CHTO   O18 5432   5.359   6.754   6.189 -0.4180  0.1744 -0.6090
   13CHTO   C28 5433   5.485   6.788   6.242  0.5636  0.3056 -0.8670
   13CHTO   H56 5434   5.478   6.845   6.335  0.3515 -0.3225 -0.4890
   13CHTO   C35 5435   5.556   6.650   6.277  0.4597  0.8594 -0.1380
   13CHTO   O24 5436   5.498   6.570   6.390  0.1511  0.2816 -0.0105
   13CHTO   H39 5437   5.451   6.493   6.365 -0.9064  0.8203  0.2982
   13CHTO    O9 5438   5.137   6.831   6.151  0.3175  0.0438 -0.0819
   13CHTO   C13 5439   5.013   6.881   6.233 -0.5954  0.1112 -0.7798
   13CHTO   H26 5440   5.044   6.959   6.306  0.5298 -1.6937  0.7046
   13CHTO   C11 5441   4.955   6.759   6.308  0.8186 -0.3462  0.6104
   13CHTO   H24 5442   5.021   6.746   6.395  1.1996  0.9785  0.5412
   13CHTO    O8 5443   4.965   6.648   6.223  0.0904  0.5214  0.1896
   13CHTO    H3 5444   5.056   6.630   6.209 -0.1558 -0.4558 -0.2361
   13CHTO    C9 5445   4.807   6.787   6.354  0.5545 -0.3885 -0.3414
   13CHTO   H22 5446   4.815   6.871   6.425  2.6814 -2.0215  1.3861
   13CHTO    N2 5447   4.751   6.686   6.446  0.2537  0.0340 -0.5809
   13CHTO   H10 5448   4.718   6.599   6.390  0.3481 -0.6619  0.4202
   13CHTO   H11 5449   4.809   6.670   6.535  1.5986 -0.5807 -1.5455
   13CHTO    C7 5450   4.715   6.833   6.230  0.3786  0.2331 -0.2638
   13CHTO   H20 5451   4.628   6.869   6.288  2.2142 -0.1180  2.7987
   13CHTO    O4 5452   4.772   6.952   6.172 -0.0699  0.3193 -0.5390
   13CHTO   C14 5453   4.911   6.957   6.135  0.6683  0.0957 -0.3275
   13CHTO   H27 5454   4.955   7.058   6.141  2.0141 -0.4645 -0.4036
   13CHTO   C18 5455   4.931   6.905   5.988  0.6097 -0.2148  0.5950
   13CHTO   O13 5456   4.867   6.998   5.897 -0.1585  0.2815  0.0090
   13CHTO    H7 5457   4.910   6.985   5.815  0.4113  1.5348  0.1023
   13CHTO    O2 5458   4.697   6.718   6.121  0.0752 -0.5871  0.4552
   13CHTO    C1 5459   4.577   6.686   6.062  0.0374  0.2452  0.2260
   13CHTO   H14 5460   4.537   6.778   6.016  0.9693  0.5626  0.0363
   13CHTO    C2 5461   4.465   6.614   6.160 -0.9513 -0.0231 -0.6371
   13CHTO   H15 5462   4.521   6.533   6.209 -0.3281  0.7596 -0.0428
   13CHTO    O6 5463   4.425   6.714   6.256 -0.5308 -0.5278  0.3401
   13CHTO    H1 5464   4.393   6.669   6.331  0.9401 -1.5597  0.3797
   13CHTO    C3 5465   4.342   6.557   6.073  0.4765  0.1947  0.2259
   13CHTO   H16 5466   4.279   6.644   6.048 -1.2673 -0.8073  1.1044
   13CHTO    N1 5467   4.250   6.471   6.150 -0.7628  0.1967 -0.0799
   13CHTO    H8 5468   4.196   6.401   6.088  0.8736 -0.1543 -1.1226
   13CHTO    H9 5469   4.300   6.426   6.234  2.5174  2.7021 -0.5930
   13CHTO    C4 5470   4.381   6.489   5.933 -0.2537 -0.3156  0.0974
   13CHTO   H17 5471   4.419   6.391   5.963 -4.3311 -2.1120 -0.2099
   13CHTO    O1 5472   4.488   6.560   5.868  0.1309 -0.1212  0.0068
   13CHTO    C5 5473   4.603   6.584   5.948 -0.7327 -0.6785  0.5139
   13CHTO   H18 5474   4.632   6.494   6.001 -0.5905 -0.9985 -0.1016
   13CHTO   C16 5475   4.726   6.626   5.861 -0.2571  0.6690 -0.0029
   13CHTO   O11 5476   4.737   6.551   5.741 -0.7138  0.6152  0.7257
   13CHTO    H5 5477   4.726   6.599   5.661 -2.6299 -1.4170 -0.2787
   13CHTO    O3 5478   4.270   6.477   5.841 -0.3957 -0.0139  0.0768
   13CHTO    C6 5479   4.285   6.367   5.745  0.6823 -0.3189 -0.5689
   13CHTO   H19 5480   4.377   6.308   5.754  1.2555  0.8929  1.8980
   13CHTO    C8 5481   4.164   6.269   5.753  0.5803 -0.1715  0.1931
   13CHTO   H21 5482   4.073   6.330   5.749  0.1946 -0.7710 -0.2478
   13CHTO    O7 5483   4.173   6.206   5.881  0.3477 -0.4345 -0.1573
   13CHTO    H2 5484   4.110   6.138   5.898  0.4697 -0.5092 -0.0116
   13CHTO   C12 5485   4.172   6.158   5.644  0.0317  0.3452  0.1969
   13CHTO   H25 5486   4.258   6.090   5.663  0.0783 -0.7739 -3.6679
   13CHTO    N3 5487   4.058   6.062   5.644 -0.0776  0.2571  0.0456
   13CHTO   H12 5488   4.070   5.992   5.562 -2.4816 -1.0270  0.7404
   13CHTO   H13 5489   3.961   6.107   5.636 -0.3152 -0.4356 -1.1619
   13CHTO   C15 5490   4.196   6.234   5.503  0.0562  0.2357 -0.2978
   13CHTO   H28 5491   4.105   6.289   5.477 -0.2721 -0.1759 -0.0487
   13CHTO   O10 5492   4.241   6.142   5.399  0.6630  0.8149 -0.0566
   13CHTO    H4 5493   4.231   6.185   5.316 -1.5629 -0.4376 -0.4640
   13CHTO    O5 5494   4.302   6.335   5.502 -0.2316  0.1865 -0.3568
   13CHTO   C10 5495   4.284   6.435   5.610 -0.3029 -0.2753 -0.7184
   13CHTO   H23 5496   4.188   6.483   5.591  1.1495  3.3767  0.6552
   13CHTO   C17 5497   4.386   6.541   5.585  0.1246  0.3983 -0.1209
   13CHTO   O12 5498   4.340   6.617   5.473  0.6622  0.3517  0.2229
   13CHTO    H6 5499   4.408   6.645   5.415 -1.7075  1.5107 -2.1259
   14CHTO  H203 5500   5.863   5.973   3.740  0.1322  2.8703  0.1571
   14CHTO   O82 5501   5.788   5.985   3.794 -0.1346 -0.0122  0.5280
   14CHTO  C123 5502   5.787   5.906   3.917  0.3004 -0.4371  0.4869
   14CHTO  H227 5503   5.883   5.859   3.940  0.3160 -0.6950 -0.1033
   14CHTO   O77 5504   5.762   5.999   4.023 -0.4892 -0.1170  0.2625
   14CHTO  C118 5505   5.757   5.934   4.155  0.0664 -0.6889  0.6805
   14CHTO  H222 5506   5.856   5.898   4.186  0.7679 -0.4128 -1.1800
   14CHTO  C125 5507   5.726   6.060   4.248  0.0423 -0.8900  0.2690
   14CHTO   O84 5508   5.830   6.165   4.237  0.1931 -0.1731  0.5581
   14CHTO  H205 5509   5.802   6.255   4.236  0.7180  0.0264 -3.4301
   14CHTO  C114 5510   5.654   5.819   4.163  0.2706 -0.2379 -0.5686
   14CHTO  H218 5511   5.558   5.863   4.191  0.6417 -0.5083  1.1595
   14CHTO  C116 5512   5.641   5.723   4.041  0.0846  0.2096 -0.8159
   14CHTO  H220 5513   5.713   5.640   4.054 -0.7726 -0.1135  2.2171
   14CHTO   O79 5514   5.513   5.653   4.043  0.3957  0.1379 -0.1463
   14CHTO  H201 5515   5.438   5.707   4.024  0.6323  0.6928  0.4545
   14CHTO  C120 5516   5.664   5.796   3.908  0.9446 -0.2172 -0.1228
   14CHTO  H224 5517   5.573   5.858   3.888  2.0263  1.0115 -1.3699
   14CHTO   N21 5518   5.677   5.703   3.790  0.4654 -0.4905 -0.6190
   14CHTO  H211 5519   5.582   5.684   3.744  0.4055  0.3229 -0.8371
   14CHTO  H212 5520   5.717   5.611   3.832  1.7560 -0.3128 -1.4243
   14CHTO   O75 5521   5.708   5.754   4.279  0.0770 -0.0419  0.7110
   14CHTO  C112 5522   5.605   5.654   4.375 -0.5709  1.2499 -0.2375
   14CHTO  H216 5523   5.650   5.650   4.475 -1.4398 -3.0449  0.0933
   14CHTO   O73 5524   5.613   5.522   4.310  0.4282 -0.1556  0.0536
   14CHTO  C113 5525   5.534   5.427   4.380 -0.4522 -0.0115  0.0849
   14CHTO  H217 5526   5.564   5.422   4.486 -0.2882 -0.9504 -0.0058
   14CHTO  C124 5527   5.565   5.288   4.325  0.1264 -0.0803 -0.1497
   14CHTO   O83 5528   5.526   5.271   4.185  0.0264 -0.5297  0.3377
   14CHTO  H204 5529   5.447   5.222   4.174 -0.4197 -0.1711  1.7850
   14CHTO  C109 5530   5.386   5.460   4.367 -0.1785  0.5339 -0.4810
   14CHTO  H213 5531   5.369   5.472   4.259 -1.4004 -0.5893 -0.4251
   14CHTO  C110 5532   5.353   5.598   4.438  0.3271 -0.3484 -0.2349
   14CHTO  H214 5533   5.372   5.587   4.544 -0.5590 -0.2775 -0.0610
   14CHTO   O78 5534   5.212   5.629   4.421 -0.1549  0.0165 -0.2410
   14CHTO  H200 5535   5.186   5.715   4.446  0.8930  0.2078  0.2209
   14CHTO  C111 5536   5.455   5.710   4.382 -0.1158 -0.1394 -0.5515
   14CHTO  H215 5537   5.436   5.724   4.274 -2.1275 -1.4100 -0.3871
   14CHTO   N19 5538   5.443   5.843   4.441  1.0825  0.4966 -0.1410
   14CHTO  H207 5539   5.438   5.820   4.546 -0.2902 -0.8673 -0.4980
   14CHTO  H208 5540   5.372   5.902   4.385 -0.0834 -0.7088  0.0374
   14CHTO   O74 5541   5.305   5.349   4.418 -0.3367 -0.2906 -0.1133
   14CHTO  C115 5542   5.191   5.284   4.315  0.0026  0.3120 -0.1567
   14CHTO  H219 5543   5.167   5.350   4.232 -1.6901  1.3061  1.0819
   14CHTO   O76 5544   5.231   5.149   4.257 -0.6917 -0.0289  0.1384
   14CHTO  C122 5545   5.139   5.099   4.158  0.0988  0.1151 -0.5138
   14CHTO  H226 5546   5.163   4.993   4.147  0.9237  0.1673  0.7520
   14CHTO  C126 5547   5.185   5.164   4.021  0.7546 -0.1838 -0.4391
   14CHTO   O85 5548   5.308   5.114   3.973 -0.0716 -0.5332  0.4098
   14CHTO  H206 5549   5.288   5.023   3.959  0.0026 -0.4702 -0.1099
   14CHTO  C121 5550   4.985   5.110   4.189  0.3530  0.0711  0.7373
   14CHTO  H225 5551   4.932   5.116   4.091 -1.3631 -2.9365  1.4229
   14CHTO   O81 5552   4.946   4.985   4.252  0.0997  0.2568  0.0910
   14CHTO  H202 5553   4.854   4.985   4.268 -0.1445 -0.9005 -1.2364
   14CHTO  C119 5554   4.946   5.237   4.271 -0.4161 -0.4055  0.9303
   14CHTO  H223 5555   4.941   5.319   4.199  2.0850 -0.5643  0.5335
   14CHTO  C117 5556   5.047   5.269   4.386 -1.0904  0.6489  0.0260
   14CHTO  H221 5557   5.056   5.188   4.458 -0.5364  0.4096 -0.3095
   14CHTO   N20 5558   5.018   5.392   4.464  0.4663 -0.4823  0.3812
   14CHTO  H209 5559   5.031   5.382   4.571  0.4820 -2.0494  0.2426
   14CHTO  H210 5560   4.917   5.426   4.449  0.0785 -1.1964  1.3429
   14CHTO   O80 5561   4.793   5.236   4.323 -0.0435 -0.4723 -0.5530
   14CHTO  C103 5562   4.693   5.326   4.255 -0.3840 -0.3799 -0.2346
   14CHTO  H190 5563   4.716   5.432   4.265 -1.7414 -0.2336  1.7212
   14CHTO  C101 5564   4.652   5.287   4.107 -0.1711 -0.3710  0.2176
   14CHTO  H188 5565   4.647   5.179   4.092  2.8443 -0.7864  1.8062
   14CHTO   O68 5566   4.763   5.348   4.001 -0.2769  0.4263  0.0678
   14CHTO  H168 5567   4.845   5.306   4.019 -1.4171 -1.2722  1.5463
   14CHTO   C99 5568   4.516   5.360   4.066  0.2908 -0.0310 -0.1270
   14CHTO  H186 5569   4.536   5.469   4.058 -0.9109  0.0439 -2.5140
   14CHTO   N17 5570   4.450   5.316   3.938 -0.3350  0.6288  0.5658
   14CHTO  H174 5571   4.402   5.395   3.881  0.1265  1.2454  1.0290
   14CHTO  H175 5572   4.524   5.267   3.876 -1.6037 -0.1336 -0.3748
   14CHTO   C97 5573   4.404   5.353   4.179  0.6859 -0.1780  0.8475
   14CHTO  H184 5574   4.369   5.249   4.178  1.3202 -0.3908  0.2686
   14CHTO   O64 5575   4.462   5.391   4.303 -0.2103 -0.4865  0.3571
   14CHTO  C104 5576   4.571   5.308   4.345 -0.4906  0.0821 -0.2406
   14CHTO  H191 5577   4.542   5.203   4.342 -1.8619  0.1798  4.6740
   14CHTO  C108 5578   4.600   5.331   4.496  0.5315  0.6815  0.5638
   14CHTO   O71 5579   4.486   5.324   4.583  0.2789 -0.0283  0.5977
   14CHTO  H171 5580   4.420   5.384   4.556  0.6200 -0.5722 -1.4992
   14CHTO   O62 5581   4.293   5.448   4.156  0.8740  0.4683 -0.8714
   14CHTO   C91 5582   4.245   5.550   4.246  0.0498 -0.5085  0.5191
   14CHTO  H178 5583   4.232   5.496   4.340  0.1272 -0.1244  0.7570
   14CHTO   C92 5584   4.101   5.597   4.198 -0.4690 -0.0211  0.1969
   14CHTO  H179 5585   4.038   5.508   4.186  0.2477 -0.9029  2.6845
   14CHTO   O66 5586   4.041   5.668   4.306 -0.4443 -0.3565 -0.2833
   14CHTO  H166 5587   3.969   5.616   4.336  0.7321 -1.0133  1.4789
   14CHTO   C93 5588   4.105   5.688   4.074 -0.3566 -0.6410  0.3629
   14CHTO  H180 5589   4.011   5.746   4.076 -0.9393 -1.5945  0.7621
   14CHTO   N16 5590   4.092   5.624   3.942 -0.5318 -0.5429 -0.5780
   14CHTO  H172 5591   4.153   5.537   3.925  0.4366  0.0158 -0.0645
   14CHTO  H173 5592   4.126   5.689   3.862  1.5710 -0.3909  0.3967
   14CHTO   C94 5593   4.233   5.789   4.086 -0.4662  0.0557  0.1434
   14CHTO  H181 5594   4.319   5.760   4.027 -1.1161 -2.5404  0.3863
   14CHTO   O61 5595   4.271   5.809   4.223 -0.4851 -0.4052 -0.5462
   14CHTO   C95 5596   4.331   5.688   4.265 -0.1480  0.1030 -0.0897
   14CHTO  H182 5597   4.428   5.673   4.217  0.9485  4.6494  0.4389
   14CHTO  C106 5598   4.357   5.696   4.415 -0.8848 -0.7441 -0.2364
   14CHTO   O69 5599   4.472   5.777   4.443 -0.1732  0.6111 -0.2187
   14CHTO  H169 5600   4.524   5.803   4.369  1.8250 -0.7527  0.6636
   14CHTO   O63 5601   4.197   5.919   4.025  0.0333  0.0984  0.2572
   14CHTO   C96 5602   4.325   6.016   3.983 -0.3193 -0.2476  0.4762
   14CHTO  H183 5603   4.272   6.111   3.975 -0.0776 -0.1357  0.2271
   14CHTO   C98 5604   4.374   5.954   3.848  0.4066  0.4142 -0.3192
   14CHTO  H185 5605   4.416   5.854   3.869 -3.9034 -1.5081 -0.2827
   14CHTO   O67 5606   4.260   5.935   3.766 -0.3523 -0.3158 -0.2000
   14CHTO  H167 5607   4.239   5.844   3.762  1.2450 -0.9904  4.0258
   14CHTO  C102 5608   4.484   6.052   3.787 -0.0458 -0.2548  0.6094
   14CHTO  H189 5609   4.439   6.151   3.775  0.5387 -0.2627 -2.0335
   14CHTO   N18 5610   4.528   6.011   3.650  0.3097 -0.7354  0.2443
   14CHTO  H176 5611   4.461   6.023   3.566  0.3571 -0.7324  0.2065
   14CHTO  H177 5612   4.632   6.033   3.629  0.0369 -0.9821 -1.5123
   14CHTO  C105 5613   4.597   6.071   3.888 -0.1933 -0.9082 -0.6095
   14CHTO  H192 5614   4.654   5.979   3.900  0.8207 -0.3131 -0.8030
   14CHTO   O65 5615   4.559   6.107   4.025  0.3915  0.0295 -0.0262
   14CHTO  C100 5616   4.447   6.031   4.085  0.5447  0.2950 -0.0906
   14CHTO  H187 5617   4.491   5.931   4.103 -0.7658  0.1020  2.2819
   14CHTO  C107 5618   4.401   6.102   4.217 -0.6057 -0.0298  0.1733
   14CHTO   O70 5619   4.479   6.053   4.325 -0.6528 -0.1861 -0.3340
   14CHTO  H170 5620   4.460   6.097   4.406  2.0411 -1.9858  1.3809
   14CHTO   O57 5621   4.685   6.198   3.819 -0.4342  0.7257  0.1011
   14CHTO   C85 5622   4.826   6.192   3.828  0.4532 -0.0741 -0.0333
   14CHTO  H157 5623   4.841   6.087   3.862 -1.6083 -0.7340 -1.0890
   14CHTO   C83 5624   4.872   6.294   3.944 -0.3030  0.3238  0.2286
   14CHTO  H155 5625   4.814   6.262   4.031 -1.4455 -1.8065 -1.2589
   14CHTO   O56 5626   4.818   6.420   3.909  0.1555 -0.6653  0.4055
   14CHTO  H135 5627   4.730   6.405   3.879  0.3690 -0.0134 -0.5929
   14CHTO   C81 5628   5.021   6.290   3.965  0.7412 -0.7534  0.1947
   14CHTO  H153 5629   5.050   6.188   3.990  0.5308 -0.7771  0.3376
   14CHTO   N14 5630   5.060   6.373   4.080 -0.3148  0.1745  0.4753
   14CHTO  H141 5631   5.017   6.469   4.065 -2.5899 -0.7768  0.7309
   14CHTO  H142 5632   5.167   6.382   4.085  0.0002 -2.8394  0.4974
   14CHTO   C79 5633   5.098   6.329   3.826 -0.1221 -0.3413 -0.1091
   14CHTO  H151 5634   5.201   6.298   3.843 -0.7335 -2.2284  0.2656
   14CHTO   O52 5635   5.057   6.247   3.711  0.4816 -0.5730 -0.3239
   14CHTO   C86 5636   4.911   6.223   3.696 -0.3639  0.3602 -0.4413
   14CHTO  H158 5637   4.875   6.322   3.661 -0.9249 -0.0008 -0.8910
   14CHTO   C90 5638   4.871   6.125   3.586 -0.3876 -0.5092  1.2200
   14CHTO   O60 5639   4.894   6.171   3.453  0.4719  0.9871 -0.2730
   14CHTO  H138 5640   4.958   6.131   3.397 -0.2870 -0.1813 -0.3255
   14CHTO   O50 5641   5.101   6.466   3.792 -0.4176 -0.3593 -0.2826
   14CHTO   C73 5642   5.107   6.600   3.764 -0.0698  0.0373 -0.1925
   14CHTO  H145 5643   5.076   6.654   3.855  0.8937  0.7775 -0.2995
   14CHTO   C74 5644   5.025   6.636   3.631 -0.1514 -0.9419  0.8576
   14CHTO  H146 5645   4.923   6.601   3.655  0.0996 -3.0121 -1.0009
   14CHTO   O54 5646   5.030   6.780   3.610  0.1102  0.6452 -0.2903
   14CHTO  H133 5647   4.968   6.800   3.542  2.4225  1.7657 -2.1388
   14CHTO   C75 5648   5.084   6.556   3.506 -0.1891 -0.5212 -0.0712
   14CHTO  H147 5649   5.096   6.450   3.532 -0.9378 -0.6152 -0.1047
   14CHTO   N13 5650   4.997   6.568   3.377 -0.2903  0.0822 -0.3886
   14CHTO  H139 5651   5.046   6.633   3.306 -1.6185 -0.5082 -1.8729
   14CHTO  H140 5652   4.900   6.611   3.399 -0.5475  1.2287 -3.4892
   14CHTO   C76 5653   5.238   6.598   3.500  0.0406 -0.5753  0.8179
   14CHTO  H148 5654   5.238   6.706   3.482  1.8817 -1.2996 -4.3699
   14CHTO   O49 5655   5.307   6.565   3.627  1.0690 -0.5512 -0.0885
   14CHTO   C77 5656   5.256   6.640   3.736 -0.2423 -0.5224 -0.7246
   14CHTO  H149 5657   5.256   6.745   3.709 -1.0925 -0.0350  1.0689
   14CHTO   C88 5658   5.356   6.632   3.854  0.2760 -0.3491 -0.0805
   14CHTO   O58 5659   5.419   6.497   3.866  0.1384  0.1308  0.3298
   14CHTO  H136 5660   5.435   6.461   3.781  1.7791 -0.6765  0.9657
   14CHTO   O51 5661   5.304   6.515   3.391  0.8769 -0.6484  0.0092
   14CHTO   C78 5662   5.443   6.580   3.346 -0.2650  0.0123  0.1571
   14CHTO  H150 5663   5.477   6.663   3.411  0.8773 -1.5934  1.6727
   14CHTO   C80 5664   5.431   6.633   3.202 -0.2655 -0.4058 -0.0824
   14CHTO  H152 5665   5.400   6.551   3.135  2.9532 -0.5374 -1.5299
   14CHTO   O55 5666   5.329   6.730   3.191 -0.0797 -0.2938  0.2740
   14CHTO  H134 5667   5.241   6.698   3.194  0.8108 -2.7724  1.8522
   14CHTO   C84 5668   5.571   6.688   3.153 -0.3171 -0.2026 -0.2902
   14CHTO  H156 5669   5.607   6.772   3.212  0.6166  0.0560 -1.2119
   14CHTO   N15 5670   5.570   6.730   3.009  0.2303 -0.2326  0.6119
   14CHTO  H143 5671   5.486   6.792   2.985  2.0320  0.9823 -2.9943
   14CHTO  H144 5672   5.565   6.641   2.950  0.3839 -1.4690  2.4128
   14CHTO   C87 5673   5.676   6.574   3.168 -0.4879  0.6843  0.2860
   14CHTO  H159 5674   5.656   6.488   3.106  0.7848  0.5576  0.0460
   14CHTO   O53 5675   5.679   6.534   3.312 -0.0277 -0.2787  0.0597
   14CHTO   C82 5676   5.556   6.474   3.359  0.4496 -0.1130 -0.2280
   14CHTO  H154 5677   5.542   6.386   3.297  0.2072  1.6219 -2.6798
   14CHTO   C89 5678   5.575   6.423   3.501  0.2423 -0.4495 -0.1992
   14CHTO   O59 5679   5.620   6.532   3.591 -0.1954  0.0145  0.1264
   14CHTO  H137 5680   5.548   6.584   3.622 -1.9673 -1.2575 -1.6967
   14CHTO   O45 5681   5.848   6.625   3.129 -0.0801 -0.4496 -1.1002
   14CHTO   C67 5682   5.926   6.515   3.095 -0.6700  0.2469  0.9507
   14CHTO  H124 5683   5.910   6.436   3.168 -0.4713  0.2872  1.0390
   14CHTO   C65 5684   5.897   6.453   2.947 -0.1893  0.5506 -0.0601
   14CHTO  H122 5685   5.789   6.449   2.938  0.1172 -0.3546 -4.1980
   14CHTO   O44 5686   5.943   6.320   2.940 -0.6781 -0.0366  0.0488
   14CHTO  H102 5687   5.931   6.285   2.854  1.2897 -1.0935  0.1793
   14CHTO   C63 5688   5.941   6.556   2.845  0.6835  0.2124 -0.2177
   14CHTO  H120 5689   5.908   6.654   2.879  1.9429 -0.0396  1.8235
   14CHTO   N11 5690   5.883   6.539   2.703 -1.0134  0.7043  0.4765
   14CHTO  H108 5691   5.870   6.434   2.685  0.0391  0.6801 -0.1412
   14CHTO  H109 5692   5.946   6.599   2.641 -0.3378  1.0154  1.4549
   14CHTO   C61 5693   6.094   6.569   2.846 -0.0787  0.0113  0.1844
   14CHTO  H118 5694   6.131   6.641   2.772  0.6560  0.1443  0.6733
   14CHTO   O40 5695   6.138   6.618   2.985  0.1527 -0.0518 -0.4357
   14CHTO   C68 5696   6.083   6.539   3.096  0.6634 -0.3111 -0.5411
   14CHTO  H125 5697   6.092   6.610   3.181 -1.2815 -0.4718 -0.1748
   14CHTO   C72 5698   6.180   6.418   3.126  0.7300 -0.2939 -0.0196
   14CHTO   O48 5699   6.167   6.377   3.265 -0.3016 -0.4415  0.0513
   14CHTO  H105 5700   6.106   6.306   3.263 -1.6624  0.6476  1.5356
   14CHTO   O38 5701   6.172   6.441   2.822 -0.1154  0.1741  0.7337
   14CHTO   C55 5702   6.277   6.435   2.725 -0.2795 -0.4026 -0.6491
   14CHTO  H112 5703   6.278   6.535   2.679  1.1685 -0.2808 -0.3890
   14CHTO   C56 5704   6.254   6.320   2.616  0.0737 -0.1460 -1.5053
   14CHTO  H113 5705   6.235   6.226   2.669 -1.0627  0.8829 -0.0519
   14CHTO   O42 5706   6.123   6.342   2.545  0.9054 -0.3982 -0.1976
   14CHTO  H100 5707   6.066   6.365   2.616 -0.3179 -0.7075 -1.0565
   14CHTO   C57 5708   6.381   6.321   2.524 -0.7426  0.0271 -0.0638
   14CHTO  H114 5709   6.381   6.410   2.460 -0.9407 -0.0385 -0.1551
   14CHTO   N10 5710   6.382   6.212   2.425 -0.3453 -0.1649 -0.2135
   14CHTO  H106 5711   6.335   6.239   2.332  1.0362 -0.7479 -1.0784
   14CHTO  H107 5712   6.339   6.117   2.454 -0.6866  0.0209 -0.1115
   14CHTO   C58 5713   6.520   6.321   2.598 -0.3345 -0.2986  0.5070
   14CHTO  H115 5714   6.537   6.224   2.649 -0.9667  0.4981  2.2564
   14CHTO   O37 5715   6.527   6.425   2.698 -0.1181 -0.0966  1.0951
   14CHTO   C59 5716   6.419   6.430   2.789  0.1605 -0.6817  0.2951
   14CHTO  H116 5717   6.427   6.347   2.859 -0.0464  1.0864  2.4680
   14CHTO   C70 5718   6.444   6.544   2.890 -0.1091  0.0982  0.4361
   14CHTO   O46 5719   6.474   6.667   2.823 -0.0374  0.6890 -0.2634
   14CHTO  H103 5720   6.394   6.697   2.784 -0.0755 -0.6301 -1.2561
   14CHTO   O39 5721   6.644   6.358   2.485  0.3105 -0.0940 -0.1007
   14CHTO   C60 5722   6.781   6.317   2.499  0.3193  0.9497 -0.0399
   14CHTO  H117 5723   6.832   6.369   2.418 -0.0539  0.6007 -0.5011
   14CHTO   C62 5724   6.856   6.356   2.625  0.2227  0.2146 -0.0143
   14CHTO  H119 5725   6.843   6.466   2.627  1.8047  0.3992  1.1927
   14CHTO   O43 5726   6.786   6.299   2.735 -0.0028 -0.1790  0.2748
   14CHTO  H101 5727   6.792   6.361   2.806  2.4138  1.5973 -1.3731
   14CHTO   C66 5728   7.011   6.323   2.615  0.3783  0.4241  0.5989
   14CHTO  H123 5729   7.048   6.374   2.526 -0.5100  1.2718  0.7115
   14CHTO   N12 5730   7.090   6.379   2.726 -0.4250  0.5670 -0.1811
   14CHTO  H110 5731   7.074   6.314   2.812  0.1404  1.2270  0.4317
   14CHTO  H111 5732   7.061   6.482   2.743 -0.1964  0.1205  3.2260
   14CHTO   C69 5733   7.028   6.166   2.598 -0.0420 -0.9186 -0.0047
   14CHTO  H126 5734   6.987   6.123   2.692  0.0128 -1.0698 -0.0501
   14CHTO   O41 5735   6.934   6.117   2.479  0.0921 -0.0570 -0.4858
   14CHTO   C64 5736   6.794   6.157   2.474  0.0719 -0.8352  0.4799
   14CHTO  H121 5737   6.740   6.096   2.549 -0.8965 -1.5956 -0.8119
   14CHTO   C71 5738   6.750   6.109   2.331 -0.4301 -0.5854  0.0278
   14CHTO   O47 5739   6.737   5.965   2.325  0.0501  0.0332 -0.4144
   14CHTO  H104 5740   6.669   5.940   2.384  0.2995 -0.0515 -0.1643
   14CHTO   O34 5741   7.184   6.118   2.577 -0.2694  0.5664  0.1312
   14CHTO   C49 5742   7.224   5.959   2.535 -0.0356 -0.1659 -0.0629
   14CHTO   H91 5743   7.216   5.893   2.622  0.6250 -2.8646 -1.9696
   14CHTO   C47 5744   7.362   5.966   2.474  0.6862 -0.1309 -0.0003
   14CHTO   H89 5745   7.392   5.860   2.464  1.1274 -0.2536  2.4524
   14CHTO   O33 5746   7.450   6.023   2.567  0.5451  0.3321  0.0746
   14CHTO   H70 5747   7.538   6.026   2.536 -0.0947  1.7454 -1.7188
   14CHTO   C45 5748   7.370   6.048   2.329 -0.1072  0.4009 -1.1551
   14CHTO   H87 5749   7.410   6.150   2.343  1.6580 -0.2507 -1.3637
   14CHTO    N8 5750   7.468   5.968   2.242 -0.0837 -0.5358 -0.0420
   14CHTO   H75 5751   7.551   6.036   2.227 -0.5921 -0.8927 -5.3408
   14CHTO   H76 5752   7.423   5.939   2.148 -0.1307  0.4196 -0.3219
   14CHTO   C43 5753   7.218   6.064   2.273 -0.4975  0.9821 -0.1548
   14CHTO   H85 5754   7.189   6.152   2.330 -1.2182  1.4008 -1.1481
   14CHTO   O29 5755   7.129   5.953   2.299  0.0794  0.2254 -0.9852
   14CHTO   C50 5756   7.121   5.897   2.431 -0.1971  1.1596 -0.4361
   14CHTO   H92 5757   7.021   5.904   2.477  0.2799 -1.4089  1.1078
   14CHTO   C54 5758   7.145   5.742   2.417  0.8008 -0.0253  0.5538
   14CHTO   O36 5759   7.081   5.672   2.309 -0.9699  0.3145  0.1822
   14CHTO   H72 5760   7.105   5.582   2.313 -0.9683  0.2645 -0.7589
   14CHTO   O27 5761   7.209   6.099   2.133 -0.2733  0.0013  0.1165
   14CHTO   C37 5762   7.112   6.179   2.054  0.6789  0.5105  0.4672
   14CHTO   H79 5763   7.153   6.201   1.954 -0.4974  0.3860 -0.0543
   14CHTO   C38 5764   6.971   6.107   2.045 -0.5553 -0.0512  0.0116
   14CHTO   H80 5765   6.951   6.066   2.145  0.3917 -1.4099 -0.3460
   14CHTO   O31 5766   7.006   6.000   1.957 -0.1364 -0.0508 -0.0307
   14CHTO   H68 5767   7.072   5.942   1.990  1.1775  1.2070 -0.3951
   14CHTO   C39 5768   6.870   6.208   1.975  0.1666  0.7447 -0.0275
   14CHTO   H81 5769   6.914   6.227   1.877  2.8246 -0.0870  0.9711
   14CHTO    N7 5770   6.740   6.137   1.945  0.2032 -0.2334 -0.9986
   14CHTO   H73 5771   6.674   6.162   2.027  0.7164  1.6956 -1.1535
   14CHTO   H74 5772   6.686   6.172   1.859  0.0911 -0.5159 -1.0447
   14CHTO   C40 5773   6.852   6.339   2.055  0.1522  0.3888 -0.4701
   14CHTO   H82 5774   6.805   6.316   2.151 -0.4731  1.2969 -0.5563
   14CHTO   O26 5775   6.979   6.398   2.071  0.3781  0.3976 -0.2683
   14CHTO   C41 5776   7.089   6.312   2.127  0.5431  0.2211 -0.0058
   14CHTO   H83 5777   7.062   6.282   2.230  1.0405 -0.3422 -0.0380
   14CHTO   C52 5778   7.211   6.413   2.142  0.4728 -0.2365 -0.7739
   14CHTO   O35 5779   7.183   6.518   2.228 -0.7223 -0.1205 -0.5007
   14CHTO   H71 5780   7.234   6.590   2.197  1.3251 -1.7506 -1.0316
   14CHTO   O28 5781   6.775   6.443   1.992 -0.3001 -0.0463  0.4540
   14CHTO   C42 5782   6.713   6.556   2.064  0.3307 -0.0742 -0.2164
   14CHTO   H84 5783   6.652   6.614   1.994  0.1967 -3.2339 -2.8531
   14CHTO   C44 5784   6.816   6.660   2.140 -0.7633 -0.4074  0.5077
   14CHTO   H86 5785   6.849   6.606   2.229 -0.5171  0.4582  0.9414
   14CHTO   O32 5786   6.940   6.669   2.070 -0.2358 -0.0362 -0.0048
   14CHTO   H69 5787   6.956   6.760   2.055  0.5389  0.0432  1.2734
   14CHTO   C48 5788   6.732   6.789   2.188 -0.1867  0.4464  0.1643
   14CHTO   H90 5789   6.692   6.826   2.094  1.3883 -1.0427 -1.1109
   14CHTO    N9 5790   6.827   6.899   2.231  0.3027 -0.4857 -0.0398
   14CHTO   H77 5791   6.830   6.907   2.338 -1.1263 -0.5714  0.0141
   14CHTO   H78 5792   6.923   6.910   2.183  0.6552 -2.1212  0.2380
   14CHTO   C51 5793   6.627   6.740   2.295  0.5660 -0.0199 -0.1889
   14CHTO   H93 5794   6.689   6.695   2.372  2.8934  1.2106 -1.2879
   14CHTO   O30 5795   6.540   6.645   2.236  0.2249  0.0113 -0.0841
   14CHTO   C46 5796   6.618   6.518   2.179 -0.3310  0.2995 -0.4765
   14CHTO   H88 5797   6.670   6.474   2.264  0.2560  1.0119 -0.4610
   14CHTO   C53 5798   6.506   6.424   2.132  0.0409  0.2720 -0.2889
   14CHTO   O72 5799   6.427   6.461   2.021 -0.1316 -0.2009  0.0644
   14CHTO  H199 5800   6.370   6.390   1.999  0.0593 -0.4335  0.3085
   14CHTO   O22 5801   6.549   6.853   2.338  0.5460 -0.7148 -0.0844
   14CHTO   C31 5802   6.504   6.860   2.479 -0.6388 -0.1508 -0.1791
   14CHTO   H59 5803   6.553   6.772   2.525  1.7260  0.1041 -2.0969
   14CHTO   C29 5804   6.558   6.984   2.548 -0.1732  0.2692  0.4645
   14CHTO   H57 5805   6.522   7.068   2.487 -1.0245 -0.2287  0.2749
   14CHTO   O21 5806   6.701   6.969   2.532  0.0804 -0.0100 -0.2456
   14CHTO   H37 5807   6.737   6.888   2.562 -0.2741 -0.0228  0.1497
   14CHTO   C27 5808   6.519   7.000   2.699 -0.1379 -0.6629 -0.6370
   14CHTO   H55 5809   6.565   6.928   2.768 -0.8676 -1.4063 -0.9172
   14CHTO    N5 5810   6.564   7.133   2.753  0.5132  0.0215  0.4209
   14CHTO   H43 5811   6.613   7.189   2.675 -1.1038  1.5083  0.4567
   14CHTO   H44 5812   6.640   7.133   2.830 -0.6201 -0.5233  1.5616
   14CHTO   C25 5813   6.370   6.973   2.725  0.2196 -0.0520 -0.7070
   14CHTO   H53 5814   6.314   7.060   2.688  1.9155  0.8185 -1.3285
   14CHTO   O17 5815   6.320   6.854   2.655 -0.3621  0.3176  0.2990
   14CHTO   C32 5816   6.349   6.852   2.511  0.2161  0.3355 -0.1042
   14CHTO   H60 5817   6.296   6.933   2.460 -2.1863  0.4860  2.5063
   14CHTO   C36 5818   6.278   6.722   2.464 -0.2442  0.5052  0.3647
   14CHTO   O25 5819   6.281   6.718   2.319 -0.3610  0.1991  0.3082
   14CHTO   H40 5820   6.227   6.786   2.284  1.2644  0.3789 -2.0311
   14CHTO   O15 5821   6.333   6.968   2.862  0.3348  0.0931  0.7218
   14CHTO   C19 5822   6.290   6.916   2.986  0.7049  0.1741 -0.8414
   14CHTO   H47 5823   6.252   6.816   2.963 -0.6071  0.0262  1.7385
   14CHTO   C20 5824   6.398   6.906   3.101  0.3969  0.1137  0.2960
   14CHTO   H48 5825   6.455   7.000   3.113  1.9091 -0.8077  0.4597
   14CHTO   O19 5826   6.503   6.819   3.061 -0.4109 -0.3416  0.5236
   14CHTO   H35 5827   6.476   6.740   3.017 -1.2108  0.3937 -0.3148
   14CHTO   C21 5828   6.343   6.870   3.245  0.1379 -0.1790  0.4876
   14CHTO   H49 5829   6.330   6.762   3.248 -0.3334 -0.0920  1.8925
   14CHTO    N4 5830   6.443   6.896   3.352 -0.0551 -0.4672 -0.2883
   14CHTO   H41 5831   6.528   6.832   3.337  1.2592  1.4928 -1.4878
   14CHTO   H42 5832   6.474   7.000   3.344 -4.2343  0.8747 -0.5078
   14CHTO   C22 5833   6.200   6.933   3.275 -0.9673  0.1551  0.4144
   14CHTO   H50 5834   6.224   7.038   3.294 -0.1829  0.4044 -1.8382
   14CHTO   O14 5835   6.118   6.921   3.162  0.0716  0.3998  0.3948
   14CHTO   C23 5836   6.163   6.996   3.048 -0.4825  0.0430 -0.1403
   14CHTO   H51 5837   6.194   7.093   3.090 -0.0156 -0.7143  1.2781
   14CHTO   C34 5838   6.048   7.008   2.944 -0.1868 -0.1949 -0.2394
   14CHTO   O23 5839   6.076   7.117   2.855 -0.4836  0.5879  0.4309
   14CHTO   H38 5840   6.167   7.124   2.833 -0.1573  0.6827  1.7599
   14CHTO   O16 5841   6.131   6.881   3.390 -0.2569 -0.2670  0.1310
   14CHTO   C24 5842   6.037   6.993   3.470 -0.4080  0.9101 -0.2564
   14CHTO   H52 5843   6.002   7.074   3.405  0.2154  2.0520  0.8111
   14CHTO   C26 5844   6.115   7.055   3.588  0.2010  0.5881 -0.9245
   14CHTO   H54 5845   6.152   6.973   3.653 -2.2070  0.8978  0.9206
   14CHTO   O20 5846   6.235   7.121   3.526  0.0823  0.1308  0.4585
   14CHTO   H36 5847   6.282   7.157   3.598 -0.7800  0.1777  1.0107
   14CHTO   C30 5848   6.022   7.148   3.671 -0.4381 -0.2118  0.6506
   14CHTO   H58 5849   5.972   7.217   3.601  0.0264 -0.1895  0.3375
   14CHTO    N6 5850   6.102   7.239   3.763  0.4847  0.6448  0.3897
   14CHTO   H45 5851   6.203   7.203   3.777  0.0538 -0.6139  0.3874
   14CHTO   H46 5852   6.106   7.335   3.714  0.7789  0.7939  0.6994
   14CHTO   C33 5853   5.909   7.058   3.727 -0.5230  0.3094 -0.5182
   14CHTO   H61 5854   5.946   6.970   3.782 -0.5410  0.7536  0.2089
   14CHTO   O18 5855   5.833   7.009   3.612  0.5017 -0.0153 -0.4457
   14CHTO   C28 5856   5.909   6.919   3.525  0.2166 -0.1562 -0.6131
   14CHTO   H56 5857   5.934   6.826   3.575  0.0249 -0.0095 -0.2379
   14CHTO   C35 5858   5.823   6.871   3.409 -0.0926  0.3269 -0.4112
   14CHTO   O24 5859   5.878   6.743   3.361 -0.3101  0.0218 -0.2130
   14CHTO   H39 5860   5.834   6.683   3.418  0.4600 -0.1895  0.1725
   14CHTO    O9 5861   5.826   7.131   3.821  0.2887 -0.1266  0.2867
   14CHTO   C13 5862   5.731   7.022   3.915 -0.5928  0.0071  0.0101
   14CHTO   H26 5863   5.719   6.930   3.854  1.5732 -1.1754  1.3202
   14CHTO   C11 5864   5.580   7.092   3.951  0.3694 -0.1421  0.1542
   14CHTO   H24 5865   5.521   7.103   3.859  0.5968  0.5500  0.0929
   14CHTO    O8 5866   5.603   7.222   4.010  0.7066 -0.0838  0.0749
   14CHTO    H3 5867   5.522   7.254   4.045  0.3449 -0.9764  0.0750
   14CHTO    C9 5868   5.504   6.989   4.036  0.1905 -0.3368 -0.1697
   14CHTO   H22 5869   5.481   6.902   3.974  0.5108  0.4048 -1.3511
   14CHTO    N2 5870   5.365   7.038   4.069  0.2136  0.0600 -0.4009
   14CHTO   H10 5871   5.316   7.093   3.990 -2.0369  0.9983  1.6055
   14CHTO   H11 5872   5.310   6.949   4.094  1.6718 -0.1781  2.1732
   14CHTO    C7 5873   5.574   6.940   4.164 -0.0306  0.1977  0.2543
   14CHTO   H20 5874   5.521   6.848   4.194 -0.2070 -0.0475 -0.8009
   14CHTO    O4 5875   5.712   6.900   4.126 -0.1901  0.2357 -0.0209
   14CHTO   C14 5876   5.802   6.982   4.045  0.6898  0.0706  0.3673
   14CHTO   H27 5877   5.892   6.924   4.015  0.7356  1.5538 -2.4714
   14CHTO   C18 5878   5.856   7.101   4.133  0.6018 -0.3424  0.1244
   14CHTO   O13 5879   5.961   7.185   4.084 -0.1220  0.7999 -0.0835
   14CHTO    H7 5880   5.932   7.244   4.016 -3.1973  0.4020  0.8239
   14CHTO    O2 5881   5.591   7.061   4.296 -0.3518  0.4481 -0.0354
   14CHTO    C1 5882   5.539   7.027   4.419 -0.5423 -0.2974  0.3510
   14CHTO   H14 5883   5.475   6.937   4.403  0.7864 -0.8413 -2.2926
   14CHTO    C2 5884   5.444   7.138   4.474 -0.5666  0.7687 -0.0391
   14CHTO   H15 5885   5.503   7.230   4.462 -1.6654  1.0755 -3.7907
   14CHTO    O6 5886   5.328   7.151   4.391  0.0941 -0.4937  0.1339
   14CHTO    H1 5887   5.292   7.069   4.362 -0.5911 -0.3891  0.6780
   14CHTO    C3 5888   5.402   7.107   4.625 -0.6565  0.6857  0.3029
   14CHTO   H16 5889   5.328   7.025   4.623  2.0893 -1.8952  0.2162
   14CHTO    N1 5890   5.342   7.229   4.680 -0.6648 -0.2426 -0.3120
   14CHTO    H8 5891   5.418   7.305   4.683  1.8339 -2.6348 -0.1988
   14CHTO    H9 5892   5.275   7.212   4.763 -1.4207 -1.2240 -1.1142
   14CHTO    C4 5893   5.523   7.062   4.717 -0.1249  0.1756 -0.0309
   14CHTO   H17 5894   5.580   7.146   4.757  0.4398 -0.1127 -0.2204
   14CHTO    O1 5895   5.612   6.971   4.648  0.0464 -0.2154  0.2221
   14CHTO    C5 5896   5.658   6.995   4.515  0.3711 -0.9721 -0.4240
   14CHTO   H18 5897   5.733   7.074   4.518  1.6845 -2.1527 -1.6984
   14CHTO   C16 5898   5.729   6.866   4.470 -0.4012 -0.6595  0.1377
   14CHTO   O11 5899   5.823   6.820   4.569  0.5620 -0.0866 -0.0241
   14CHTO    H5 5900   5.857   6.743   4.526  1.0095  0.4801 -0.6958
   14CHTO    O3 5901   5.483   6.982   4.834 -0.0016 -0.1825 -0.2906
   14CHTO    C6 5902   5.458   7.037   4.964 -0.3524  0.4726 -0.8202
   14CHTO   H19 5903   5.444   7.145   4.961  2.2101  0.8229 -0.9369
   14CHTO    C8 5904   5.328   6.976   5.041  0.1586  0.0966 -0.1325
   14CHTO   H21 5905   5.339   6.869   5.056 -1.5136 -0.4843 -2.8499
   14CHTO    O7 5906   5.212   6.998   4.955 -0.0299 -0.2197 -0.0527
   14CHTO    H2 5907   5.159   6.922   4.942  2.5005 -2.1498  0.2783
   14CHTO   C12 5908   5.312   7.048   5.184 -0.0333  0.0517  0.4423
   14CHTO   H25 5909   5.272   7.149   5.161 -2.5735 -0.5637  1.9811
   14CHTO    N3 5910   5.202   6.981   5.260 -0.1451 -0.6029 -0.0624
   14CHTO   H12 5911   5.124   7.049   5.291  0.0030 -0.9676  1.1461
   14CHTO   H13 5912   5.165   6.899   5.200 -1.7727 -0.6961  1.0246
   14CHTO   C15 5913   5.452   7.057   5.263 -0.4625 -0.1849  0.0498
   14CHTO   H28 5914   5.492   6.961   5.295 -0.2024 -1.5113 -3.9686
   14CHTO   O10 5915   5.449   7.161   5.380  0.1252 -0.6111  0.0425
   14CHTO    H4 5916   5.478   7.121   5.460 -2.5718  2.2907  2.5887
   14CHTO    O5 5917   5.558   7.104   5.172  0.1380 -0.2857 -0.3979
   14CHTO   C10 5918   5.581   7.018   5.065  0.0004  0.0435  0.5659
   14CHTO   H23 5919   5.595   6.914   5.094  2.4121 -0.1692 -1.2051
   14CHTO   C17 5920   5.716   7.066   5.003 -0.0270 -0.0405  0.8501
   14CHTO   O12 5921   5.755   6.992   4.890 -0.7599 -0.6800  0.4807
   14CHTO    H6 5922   5.841   6.959   4.906 -1.5055 -2.9734 -0.0347
   15CHTO  H203 5923   5.832   5.879   3.402  1.0045 -2.4959 -2.8405
   15CHTO   O82 5924   5.843   5.816   3.470 -0.1083  0.3103  0.1092
   15CHTO  C123 5925   5.838   5.678   3.423  0.3486  0.3068 -0.1579
   15CHTO  H227 5926   5.856   5.615   3.511 -0.3192  1.0781  0.5394
   15CHTO   O77 5927   5.698   5.668   3.373 -0.2524 -0.2489  0.5296
   15CHTO  C118 5928   5.670   5.534   3.319 -0.0588  0.5244 -0.4320
   15CHTO  H222 5929   5.703   5.456   3.390 -1.5796 -1.0549 -1.4309
   15CHTO  C125 5930   5.517   5.527   3.302 -0.3424 -0.6184 -0.0450
   15CHTO   O84 5931   5.450   5.498   3.429 -0.1219 -0.1915  0.2735
   15CHTO  H205 5932   5.359   5.483   3.413 -0.2634  0.5177  0.4183
   15CHTO  C114 5933   5.753   5.523   3.191 -1.0140 -0.2625  0.0411
   15CHTO  H218 5934   5.742   5.614   3.131  1.0760  0.0134  0.0396
   15CHTO  C116 5935   5.906   5.526   3.225 -1.2052  0.2214 -0.4003
   15CHTO  H220 5936   5.948   5.434   3.271 -0.4906  1.2258  1.0145
   15CHTO   O79 5937   5.986   5.533   3.102  0.1382  0.1416 -0.0269
   15CHTO  H201 5938   5.964   5.457   3.051  0.9953 -0.6243  0.7264
   15CHTO  C120 5939   5.945   5.655   3.312  0.0503  0.1459  0.2281
   15CHTO  H224 5940   5.947   5.736   3.235 -0.6587 -0.7322 -0.7273
   15CHTO   N21 5941   6.084   5.641   3.362  0.8251 -0.1755 -0.0034
   15CHTO  H211 5942   6.104   5.541   3.398 -3.3291 -0.9173  0.4545
   15CHTO  H212 5943   6.096   5.723   3.433 -1.4512  0.9928 -0.9096
   15CHTO   O75 5944   5.710   5.405   3.120  0.0820 -0.4146 -0.6635
   15CHTO  C112 5945   5.774   5.257   3.166  0.4587 -0.7168  0.4126
   15CHTO  H216 5946   5.802   5.259   3.272 -2.0008 -1.8727  1.1170
   15CHTO   O73 5947   5.887   5.232   3.080 -0.1335  0.0432 -0.1111
   15CHTO  C113 5948   5.979   5.130   3.133 -0.5432 -0.4983 -0.7470
   15CHTO  H217 5949   5.997   5.157   3.239 -0.9584 -1.3193 -0.4699
   15CHTO  C124 5950   6.113   5.120   3.059  0.3098  0.2361  0.1170
   15CHTO   O83 5951   6.103   5.118   2.915 -0.1240 -0.0907  0.4601
   15CHTO  H204 5952   6.186   5.088   2.883 -0.2725 -1.6051  1.4423
   15CHTO  C109 5953   5.899   4.993   3.140 -0.2524  0.4110 -0.9630
   15CHTO  H213 5954   5.876   4.970   3.035  0.3332  1.2146 -1.2716
   15CHTO  C110 5955   5.756   5.008   3.213 -0.3202 -0.0956 -0.1461
   15CHTO  H214 5956   5.781   5.005   3.320  0.4566 -3.7308 -0.3386
   15CHTO   O78 5957   5.682   4.886   3.192 -0.2346 -0.6203 -0.0437
   15CHTO  H200 5958   5.714   4.813   3.240  3.9040  0.0489 -1.5248
   15CHTO  C111 5959   5.675   5.127   3.153 -0.8729 -0.2295 -0.1810
   15CHTO  H215 5960   5.656   5.112   3.046 -0.9754 -0.2281 -0.1635
   15CHTO   N19 5961   5.545   5.147   3.218  0.5193 -0.0369 -0.7735
   15CHTO  H207 5962   5.541   5.244   3.265  1.7852 -1.0236  1.4103
   15CHTO  H208 5963   5.519   5.075   3.295  3.3366  0.9595  1.1897
   15CHTO   O74 5964   5.993   4.890   3.191  0.0580 -0.3639 -0.3785
   15CHTO  C115 5965   5.976   4.752   3.117  0.2503 -0.0059  0.3254
   15CHTO  H219 5966   5.872   4.727   3.094  0.7067 -1.3182 -0.3324
   15CHTO   O76 5967   6.034   4.758   2.965 -0.0111 -0.0732 -0.0766
   15CHTO  C122 5968   6.169   4.727   2.964  0.4586  0.0346  0.2401
   15CHTO  H226 5969   6.219   4.797   3.032 -0.4717  2.7623 -1.7965
   15CHTO  C126 5970   6.238   4.760   2.821  0.1614 -0.5992  0.1146
   15CHTO   O85 5971   6.255   4.900   2.797  0.2266  0.2379 -0.5505
   15CHTO  H206 5972   6.239   4.946   2.877  1.0178  0.7040 -0.6569
   15CHTO  C121 5973   6.193   4.569   2.994 -0.3417  0.3084 -0.4040
   15CHTO  H225 5974   6.187   4.515   2.898  1.3424 -0.4953 -0.0707
   15CHTO   O81 5975   6.323   4.548   3.049  0.9820 -0.2373 -0.1789
   15CHTO  H202 5976   6.347   4.624   3.099 -1.0678  1.8149 -2.1859
   15CHTO  C119 5977   6.077   4.515   3.084 -0.4274 -0.7523  0.4288
   15CHTO  H223 5978   5.998   4.495   3.011  0.5053 -1.3551 -0.4394
   15CHTO  C117 5979   6.035   4.628   3.202  0.5329 -0.7445  0.1583
   15CHTO  H221 5980   6.102   4.686   3.265  1.5950 -1.4630 -0.2974
   15CHTO   N20 5981   5.926   4.588   3.293 -0.2794  0.4526 -0.8469
   15CHTO  H209 5982   5.959   4.505   3.355 -2.0822 -1.6236 -2.5633
   15CHTO  H210 5983   5.909   4.676   3.353  0.5452 -0.0135  0.0942
   15CHTO   O80 5984   6.106   4.367   3.149 -0.0379 -0.1261 -0.7960
   15CHTO  C103 5985   6.016   4.244   3.109  0.0516 -0.1321 -0.1782
   15CHTO  H190 5986   6.035   4.160   3.176  0.4728  0.1797  0.0927
   15CHTO  C101 5987   5.857   4.265   3.108  0.1079  0.4617 -0.3345
   15CHTO  H188 5988   5.831   4.360   3.061 -1.0558  1.2977  1.9374
   15CHTO   O68 5989   5.805   4.252   3.255 -0.2100 -0.1504  0.0280
   15CHTO  H168 5990   5.853   4.303   3.318 -1.9738 -0.2869  1.5165
   15CHTO   C99 5991   5.787   4.151   3.025  0.2859  0.1315 -0.0294
   15CHTO  H186 5992   5.796   4.056   3.082 -0.1963  0.3228  0.3634
   15CHTO   N17 5993   5.645   4.176   3.001 -0.0884 -0.1291 -0.2242
   15CHTO  H174 5994   5.611   4.228   2.913  0.4860  0.2979 -0.1903
   15CHTO  H175 5995   5.593   4.082   3.014 -2.0901  0.7992 -1.2239
   15CHTO   C97 5996   5.858   4.124   2.887 -0.8499  0.4491 -0.1909
   15CHTO  H184 5997   5.850   4.214   2.824 -0.9440  0.1279 -0.6454
   15CHTO   O64 5998   5.997   4.092   2.912  0.2660 -0.3369  0.2248
   15CHTO  C104 5999   6.074   4.203   2.972 -0.1275 -0.6157  0.0391
   15CHTO  H191 6000   6.065   4.287   2.903 -1.4967 -1.3819 -0.7319
   15CHTO  C108 6001   6.224   4.166   2.980  0.6547 -0.7016  0.2861
   15CHTO   O71 6002   6.259   4.040   3.039 -0.1990  0.2149 -0.4228
   15CHTO  H171 6003   6.224   3.976   2.980 -0.0231  0.8834 -1.2757
   15CHTO   O62 6004   5.809   4.006   2.814  0.0055 -0.0662  0.4691
   15CHTO   C91 6005   5.738   4.030   2.691 -0.0330 -0.1408 -0.2293
   15CHTO  H178 6006   5.718   4.138   2.689  2.9047  0.4817  1.9298
   15CHTO   C92 6007   5.602   3.962   2.694  0.5333 -0.2548  0.2056
   15CHTO  H179 6008   5.559   3.976   2.794  0.5621  1.0681  0.0378
   15CHTO   O66 6009   5.526   4.032   2.598  0.2189 -0.4353 -0.2359
   15CHTO  H166 6010   5.546   4.016   2.508 -0.1813 -0.6464 -0.2923
   15CHTO   C93 6011   5.611   3.814   2.646 -0.1791  0.0986 -0.4684
   15CHTO  H180 6012   5.508   3.782   2.627 -0.3037 -0.9767  1.7977
   15CHTO   N16 6013   5.662   3.714   2.739  0.0747  0.1434 -0.3736
   15CHTO  H172 6014   5.673   3.740   2.843  1.3343 -1.1757 -0.1593
   15CHTO  H173 6015   5.619   3.616   2.725  0.2003 -0.1110  1.0091
   15CHTO   C94 6016   5.695   3.804   2.509  0.5695  0.3237 -0.0500
   15CHTO  H181 6017   5.765   3.720   2.506  0.0182 -0.1513  0.5284
   15CHTO   O61 6018   5.757   3.932   2.467 -0.6953 -0.3161 -0.0933
   15CHTO   C95 6019   5.825   4.005   2.564 -0.1586 -0.0125  0.6285
   15CHTO  H182 6020   5.908   3.947   2.605  0.1114 -2.1437 -2.7099
   15CHTO  C106 6021   5.893   4.133   2.498  0.3315 -0.3905  0.0369
   15CHTO   O69 6022   5.973   4.189   2.599  0.4894 -0.5311  0.3023
   15CHTO  H169 6023   6.052   4.141   2.618  0.1945 -0.7056  1.1353
   15CHTO   O63 6024   5.597   3.770   2.400  0.4514 -0.2103 -0.4453
   15CHTO   C96 6025   5.647   3.758   2.249  0.0473  0.3080  0.8662
   15CHTO  H183 6026   5.754   3.776   2.241  0.0837 -0.1537  0.2309
   15CHTO   C98 6027   5.570   3.853   2.144  0.2445 -0.6555  0.7127
   15CHTO  H185 6028   5.461   3.852   2.160 -0.2288 -3.6782 -2.1981
   15CHTO   O67 6029   5.619   3.991   2.158 -0.2174  0.2311 -0.1922
   15CHTO  H167 6030   5.550   4.049   2.183  1.3469  1.9076  0.3139
   15CHTO  C102 6031   5.601   3.811   1.987 -0.7535  0.7986  0.3090
   15CHTO  H189 6032   5.701   3.851   1.964 -1.1127  1.0444 -0.8775
   15CHTO   N18 6033   5.511   3.882   1.897  0.2124 -0.0628  0.1166
   15CHTO  H176 6034   5.476   3.815   1.820  1.0066 -1.0903  0.6470
   15CHTO  H177 6035   5.561   3.960   1.841  1.3351  0.8754  2.3633
   15CHTO  C105 6036   5.613   3.660   1.966  0.1087  0.7813  0.1904
   15CHTO  H192 6037   5.513   3.618   1.973  1.2125 -1.7876  1.0653
   15CHTO   O65 6038   5.687   3.597   2.070  0.2848 -0.4121  0.0621
   15CHTO  C100 6039   5.630   3.619   2.200 -0.0292  0.7033  0.4821
   15CHTO  H187 6040   5.524   3.591   2.195 -0.2312  1.0548  2.4167
   15CHTO  C107 6041   5.697   3.504   2.284  0.5193 -0.0521 -0.6190
   15CHTO   O70 6042   5.837   3.514   2.291 -0.3403  0.1378  0.0556
   15CHTO  H170 6043   5.883   3.464   2.355 -0.0620 -1.6587 -1.4821
   15CHTO   O57 6044   5.674   3.637   1.818 -0.8092  0.1814 -0.5892
   15CHTO   C85 6045   5.622   3.524   1.751  0.9506 -0.1482 -0.3227
   15CHTO  H157 6046   5.541   3.488   1.817  1.7028 -0.5849  0.3716
   15CHTO   C83 6047   5.732   3.412   1.728 -0.1527 -0.2222 -0.0045
   15CHTO  H155 6048   5.767   3.379   1.826  0.3089 -1.2162 -0.4939
   15CHTO   O56 6049   5.842   3.465   1.647 -0.0071 -0.0685 -0.2347
   15CHTO  H135 6050   5.923   3.419   1.651 -0.5116 -0.8977  0.6549
   15CHTO   C81 6051   5.657   3.293   1.659 -0.4507 -0.1639 -0.4522
   15CHTO  H153 6052   5.572   3.267   1.721  1.3032 -0.8655  1.7537
   15CHTO   N14 6053   5.727   3.167   1.661  0.0548 -0.2008  0.3363
   15CHTO  H141 6054   5.751   3.141   1.762  0.5350 -2.4210 -0.3340
   15CHTO  H142 6055   5.816   3.166   1.601  1.0443  2.0428  1.6781
   15CHTO   C79 6056   5.600   3.346   1.516 -0.7520 -0.1366  0.2822
   15CHTO  H151 6057   5.533   3.269   1.477 -0.6125 -0.3325  0.4332
   15CHTO   O52 6058   5.509   3.462   1.520  0.0849 -0.7731  0.3897
   15CHTO   C86 6059   5.567   3.560   1.605  0.3019  0.6961 -0.0320
   15CHTO  H158 6060   5.654   3.585   1.541 -1.6071  1.7998 -2.2855
   15CHTO   C90 6061   5.481   3.686   1.603 -0.1550  0.3381  0.0290
   15CHTO   O60 6062   5.500   3.745   1.468 -0.3745 -0.3145 -0.4929
   15CHTO  H138 6063   5.581   3.792   1.466 -1.1293  1.1242  0.8049
   15CHTO   O50 6064   5.693   3.376   1.416 -0.3790 -0.2755  0.5096
   15CHTO   C73 6065   5.718   3.409   1.273 -0.1267 -0.2996 -0.6145
   15CHTO  H145 6066   5.645   3.488   1.252 -1.2372 -0.6256  1.8097
   15CHTO   C74 6067   5.694   3.292   1.172 -0.5294  0.4786 -0.0281
   15CHTO  H146 6068   5.588   3.265   1.177 -0.2480 -0.7421 -0.3531
   15CHTO   O54 6069   5.708   3.347   1.040  0.9775 -0.2539 -0.1944
   15CHTO  H133 6070   5.682   3.437   1.031  1.6068 -0.1792 -1.4436
   15CHTO   C75 6071   5.787   3.167   1.214 -0.8138  0.0474  0.9021
   15CHTO  H147 6072   5.758   3.129   1.313 -0.2643  0.2471  1.1437
   15CHTO   N13 6073   5.771   3.052   1.125  0.1745  0.6295  0.0776
   15CHTO  H139 6074   5.691   2.987   1.156 -0.3405  0.9939 -0.4962
   15CHTO  H140 6075   5.751   3.087   1.025 -3.9752  1.5281  1.1463
   15CHTO   C76 6076   5.938   3.218   1.230  0.0309 -0.5123  0.8072
   15CHTO  H148 6077   5.984   3.235   1.132  0.6058  1.3141  1.3780
   15CHTO   O49 6078   5.951   3.348   1.298  0.6801  0.3652 -0.2894
   15CHTO   C77 6079   5.866   3.453   1.254 -0.5040  0.6327  0.6768
   15CHTO  H149 6080   5.886   3.483   1.151  0.3623  0.1041  0.6790
   15CHTO   C88 6081   5.899   3.583   1.333  0.8776 -0.0398 -0.3240
   15CHTO   O58 6082   5.777   3.689   1.313 -0.3685 -0.3019 -0.1286
   15CHTO  H136 6083   5.760   3.706   1.222 -0.4953 -0.1845 -0.0828
   15CHTO   O51 6084   6.014   3.120   1.306 -0.1215 -0.4651 -0.4268
   15CHTO   C78 6085   6.170   3.137   1.297  0.0255 -0.2455  0.0814
   15CHTO  H150 6086   6.192   3.238   1.257 -0.1605 -0.3423 -0.2653
   15CHTO   C80 6087   6.226   3.039   1.193 -0.2309 -0.0389 -0.6196
   15CHTO  H152 6088   6.205   2.935   1.226  3.1911 -0.9492 -1.1113
   15CHTO   O55 6089   6.149   3.068   1.070 -0.4848 -0.5394 -0.1673
   15CHTO  H134 6090   6.164   3.011   0.997  2.0031  0.3000 -0.3254
   15CHTO   C84 6091   6.383   3.060   1.172  0.2905  0.0895  0.2066
   15CHTO  H156 6092   6.410   3.154   1.124  0.8220  1.1031  2.4036
   15CHTO   N15 6093   6.437   2.954   1.086 -0.0320  0.3485  0.1052
   15CHTO  H143 6094   6.536   2.988   1.063  1.1154 -3.2607 -0.6667
   15CHTO  H144 6095   6.380   2.965   0.996 -0.1437  1.0179  0.2535
   15CHTO   C87 6096   6.454   3.055   1.308 -1.3913  0.6371  0.3846
   15CHTO  H159 6097   6.436   2.953   1.343 -2.0420  0.7364  0.3381
   15CHTO   O53 6098   6.376   3.161   1.412 -0.3391 -0.3928 -0.0742
   15CHTO   C82 6099   6.241   3.129   1.433  0.9662 -0.0027 -0.0016
   15CHTO  H154 6100   6.229   3.025   1.464 -0.1701  0.5447  1.4454
   15CHTO   C89 6101   6.175   3.210   1.541  0.3266  0.4016  0.3130
   15CHTO   O59 6102   6.224   3.191   1.671 -0.0209 -0.4757  0.4515
   15CHTO  H137 6103   6.185   3.259   1.722 -0.4850 -0.2818 -0.1578
   15CHTO   O45 6104   6.612   3.090   1.289 -0.0586  0.2314  0.6479
   15CHTO   C67 6105   6.667   3.135   1.416  1.0741  0.2378 -0.5295
   15CHTO  H124 6106   6.595   3.202   1.463  0.0063 -0.5900 -0.9669
   15CHTO   C65 6107   6.690   2.999   1.500  0.5335  0.0311 -0.2706
   15CHTO  H122 6108   6.682   2.925   1.421 -0.6324  0.0641 -0.1833
   15CHTO   O44 6109   6.581   2.962   1.583  0.4889  0.0375  0.0470
   15CHTO  H102 6110   6.578   2.871   1.606 -3.7436 -0.4408 -1.8926
   15CHTO   C63 6111   6.831   2.990   1.555  0.0269  0.1995  0.2381
   15CHTO  H120 6112   6.896   2.977   1.468 -0.7593  1.1700 -0.4933
   15CHTO   N11 6113   6.873   2.872   1.646  0.2450  0.0797  0.5011
   15CHTO  H108 6114   6.896   2.791   1.580 -0.4777  1.3759 -1.3862
   15CHTO  H109 6115   6.787   2.851   1.707 -0.2551  1.9775  0.4728
   15CHTO   C61 6116   6.866   3.129   1.616  0.2945 -0.8564 -0.3110
   15CHTO  H118 6117   6.971   3.125   1.649  0.6190  1.8621 -0.8302
   15CHTO   O40 6118   6.860   3.239   1.520  0.3625 -0.4121  0.4103
   15CHTO   C68 6119   6.798   3.206   1.394  0.7750  0.5955  0.2328
   15CHTO  H125 6120   6.865   3.144   1.330 -0.5931 -2.2980  1.5071
   15CHTO   C72 6121   6.768   3.335   1.316 -0.3912 -0.0515 -0.0606
   15CHTO   O48 6122   6.886   3.401   1.268 -0.1058  0.1528 -0.3804
   15CHTO  H105 6123   6.954   3.339   1.253  0.4638  0.4331  0.9777
   15CHTO   O38 6124   6.787   3.146   1.735  0.0433  0.1999 -0.0480
   15CHTO   C55 6125   6.812   3.266   1.811  0.3213  0.5879 -0.4933
   15CHTO  H112 6126   6.865   3.343   1.752 -0.9666  0.5623 -1.7276
   15CHTO   C56 6127   6.890   3.236   1.951 -0.3174  0.0808  0.3688
   15CHTO  H113 6128   6.839   3.154   2.004 -1.3859 -0.9596 -2.2104
   15CHTO   O42 6129   7.019   3.170   1.923  0.2030  0.1783  0.4513
   15CHTO  H100 6130   7.091   3.227   1.904 -0.3866  0.7536 -0.0730
   15CHTO   C57 6131   6.896   3.368   2.036 -0.2619  0.2909 -0.1083
   15CHTO  H114 6132   6.960   3.438   1.982  3.3321 -0.9222  2.3736
   15CHTO   N10 6133   6.964   3.363   2.169 -0.4140 -0.0268  0.2630
   15CHTO  H106 6134   6.998   3.458   2.208 -0.9961  0.7738 -1.1508
   15CHTO  H107 6135   6.910   3.312   2.247 -1.8959 -0.9727 -1.3468
   15CHTO   C58 6136   6.756   3.422   2.060 -0.4148  0.5979  0.2086
   15CHTO  H115 6137   6.706   3.356   2.135 -0.2400  3.9580  3.4065
   15CHTO   O37 6138   6.683   3.441   1.938 -0.0209 -0.1534  0.0595
   15CHTO   C59 6139   6.675   3.334   1.844  0.2494 -0.0071  0.2326
   15CHTO  H116 6140   6.592   3.275   1.884 -3.3328  2.2525 -3.4479
   15CHTO   C70 6141   6.618   3.385   1.707  0.3850  0.1594  0.3825
   15CHTO   O46 6142   6.487   3.439   1.703  0.2193 -0.5541 -0.6536
   15CHTO  H103 6143   6.430   3.385   1.653 -0.9203  1.3441 -1.4792
   15CHTO   O39 6144   6.765   3.567   2.108 -0.2847 -0.6592  0.2304
   15CHTO   C60 6145   6.688   3.623   2.216 -0.1212  0.5175 -0.4442
   15CHTO  H117 6146   6.601   3.563   2.242 -0.2066  1.4235  1.4483
   15CHTO   C62 6147   6.769   3.631   2.351  0.3039  0.1252 -0.4146
   15CHTO  H119 6148   6.797   3.526   2.374 -1.3477 -0.4083 -0.7850
   15CHTO   O43 6149   6.881   3.712   2.319  0.1020  0.1555 -0.2000
   15CHTO  H101 6150   6.860   3.801   2.336 -0.7252 -0.2015  0.6701
   15CHTO   C66 6151   6.687   3.698   2.480 -0.3494  0.1232  0.5723
   15CHTO  H123 6152   6.599   3.636   2.502 -0.1806 -0.0772  0.6873
   15CHTO   N12 6153   6.768   3.700   2.606  0.7169  0.4485 -0.0574
   15CHTO  H110 6154   6.728   3.751   2.693 -0.3814 -0.2711 -0.1328
   15CHTO  H111 6155   6.826   3.610   2.620 -0.3966 -0.1837  0.5800
   15CHTO   C69 6156   6.639   3.833   2.437  0.6542  0.0499 -0.0313
   15CHTO  H126 6157   6.725   3.904   2.431  0.1250  0.8130  1.3225
   15CHTO   O41 6158   6.560   3.825   2.284  0.0979  0.1596 -0.1139
   15CHTO   C64 6159   6.634   3.760   2.173  0.6296 -0.1847  0.0062
   15CHTO  H121 6160   6.724   3.822   2.153 -0.3839  0.6796 -2.0684
   15CHTO   C71 6161   6.560   3.752   2.042  0.3473  0.4795  0.1013
   15CHTO   O47 6162   6.428   3.715   2.066  0.0901 -0.7058 -0.8318
   15CHTO  H104 6163   6.379   3.794   2.076 -0.1342 -0.7867 -1.3170
   15CHTO   O34 6164   6.549   3.900   2.541 -0.4001  0.4951  0.5077
   15CHTO   C49 6165   6.433   3.952   2.618  0.2755 -0.4835  0.6078
   15CHTO   H91 6166   6.473   3.985   2.714  2.2986 -0.4016 -0.2406
   15CHTO   C47 6167   6.330   3.840   2.657 -0.0473 -0.4800 -0.2099
   15CHTO   H89 6168   6.275   3.886   2.742  1.8199  3.5993 -1.0507
   15CHTO   O33 6169   6.405   3.729   2.709  0.1192  0.8831  0.2868
   15CHTO   H70 6170   6.479   3.717   2.653  0.5083  0.8618  0.7958
   15CHTO   C45 6171   6.252   3.796   2.522  0.2441 -0.8059  0.2131
   15CHTO   H87 6172   6.308   3.712   2.478  2.1400  0.8070 -0.5242
   15CHTO    N8 6173   6.128   3.740   2.572 -0.4857  0.3651  0.4584
   15CHTO   H75 6174   6.054   3.768   2.498 -0.0293  1.5344  0.4357
   15CHTO   H76 6175   6.134   3.632   2.575  0.0088  0.3391 -0.8465
   15CHTO   C43 6176   6.244   3.912   2.417 -0.3694 -0.3632  0.0786
   15CHTO   H85 6177   6.344   3.895   2.379 -0.1522 -1.4969  1.1057
   15CHTO   O29 6178   6.235   4.031   2.487 -0.4169 -0.3777 -0.0497
   15CHTO   C50 6179   6.358   4.073   2.546 -0.0607 -1.4684  0.5251
   15CHTO   H92 6180   6.424   4.120   2.470  1.8033 -0.9999  2.3860
   15CHTO   C54 6181   6.324   4.188   2.641  0.1961  0.8849  0.6618
   15CHTO   O36 6182   6.248   4.290   2.574 -0.2240 -0.4911  0.4691
   15CHTO   H72 6183   6.242   4.361   2.635 -0.5008 -0.5016  0.4554
   15CHTO   O27 6184   6.155   3.894   2.306  0.3100  0.4172 -0.3125
   15CHTO   C37 6185   6.143   3.848   2.170  0.3963  0.1482 -0.2465
   15CHTO   H79 6186   6.240   3.851   2.119  0.6625  0.8761  0.2801
   15CHTO   C38 6187   6.086   3.696   2.170 -0.4683  1.1404 -0.4793
   15CHTO   H80 6188   5.982   3.696   2.204 -0.9501 -1.5904 -1.8534
   15CHTO   O31 6189   6.174   3.608   2.249 -0.3764 -0.0148  0.0350
   15CHTO   H68 6190   6.118   3.556   2.305  0.0014  0.3965  0.8078
   15CHTO   C39 6191   6.074   3.651   2.019 -0.4778  0.7176  0.2967
   15CHTO   H81 6192   6.176   3.667   1.981 -1.1703  3.9213 -0.4190
   15CHTO    N7 6193   6.023   3.507   2.007 -0.1929 -0.2133 -0.3113
   15CHTO   H73 6194   6.017   3.478   1.903  1.4622  0.0893 -0.5013
   15CHTO   H74 6195   5.937   3.481   2.068 -1.0290  4.2552  0.5433
   15CHTO   C40 6196   5.980   3.745   1.940 -0.5165  0.0079 -0.5523
   15CHTO   H82 6197   5.884   3.729   1.988  0.1661  0.4462  0.9950
   15CHTO   O26 6198   6.028   3.882   1.952  0.4640 -0.3763 -0.0757
   15CHTO   C41 6199   6.052   3.933   2.083 -0.1642 -0.0127  0.1390
   15CHTO   H83 6200   5.959   3.957   2.136  0.2635  0.0042  0.8835
   15CHTO   C52 6201   6.124   4.065   2.072 -1.2280  0.4402  0.1236
   15CHTO   O35 6202   6.194   4.083   1.955  0.2264 -0.5512  0.2498
   15CHTO   H71 6203   6.238   4.006   1.925 -0.9521  0.0516 -3.3242
   15CHTO   O28 6204   5.967   3.719   1.796  0.0116  0.4376 -0.5879
   15CHTO   C42 6205   6.057   3.747   1.679  0.4632  0.4393 -0.7796
   15CHTO   H84 6206   6.024   3.686   1.595 -0.2878 -0.7771  0.3669
   15CHTO   C44 6207   6.207   3.708   1.698  0.4691  0.7357  0.1543
   15CHTO   H86 6208   6.242   3.761   1.786 -0.9671  0.9955  0.5810
   15CHTO   O32 6209   6.213   3.561   1.723 -0.2824  0.1554 -0.2027
   15CHTO   H69 6210   6.301   3.544   1.752 -0.2160  0.7061 -0.0659
   15CHTO   C48 6211   6.286   3.749   1.568  0.9931  0.2817 -0.5083
   15CHTO   H90 6212   6.244   3.681   1.493  0.7530 -0.2006  0.0548
   15CHTO    N9 6213   6.431   3.725   1.581 -0.0508 -0.1471 -0.2812
   15CHTO   H77 6214   6.480   3.781   1.660  2.7503 -0.6837 -1.5740
   15CHTO   H78 6215   6.457   3.622   1.598  0.7411  0.0603 -0.1948
   15CHTO   C51 6216   6.258   3.898   1.527 -0.4219  0.3349  0.4094
   15CHTO   H93 6217   6.294   3.972   1.598 -2.1780 -0.0932  1.7812
   15CHTO   O30 6218   6.118   3.903   1.516  0.0704 -0.0372  0.0390
   15CHTO   C46 6219   6.045   3.891   1.635 -0.5425 -0.5813 -0.7628
   15CHTO   H88 6220   6.069   3.965   1.711  1.5118 -1.8140 -0.1685
   15CHTO   C53 6221   5.889   3.918   1.593 -0.8282 -0.9287 -0.2657
   15CHTO   O72 6222   5.851   4.057   1.573 -0.0162 -0.3718  0.7770
   15CHTO  H199 6223   5.854   4.079   1.482  0.8507 -1.3823  0.5484
   15CHTO   O22 6224   6.302   3.922   1.391 -0.2832  0.6680  0.1563
   15CHTO   C31 6225   6.278   4.046   1.320  0.5232  0.1146 -0.3058
   15CHTO   H59 6226   6.343   4.029   1.232  1.8742 -4.7913  1.4421
   15CHTO   C29 6227   6.137   4.074   1.267 -0.5747 -0.2568 -0.8564
   15CHTO   H57 6228   6.080   4.078   1.360  0.3640  1.7834 -0.3379
   15CHTO   O21 6229   6.101   3.960   1.193  0.4066 -0.2262 -0.0704
   15CHTO   H37 6230   6.025   3.980   1.142 -1.8683 -1.5218  2.6769
   15CHTO   C27 6231   6.132   4.212   1.188 -0.0564 -0.1837 -0.7005
   15CHTO   H55 6232   6.198   4.213   1.100 -1.5688  0.5412 -1.8544
   15CHTO    N5 6233   5.991   4.243   1.146  0.4891 -0.3935  0.1438
   15CHTO   H43 6234   5.993   4.299   1.054 -1.8221 -0.8429 -0.2201
   15CHTO   H44 6235   5.934   4.156   1.119  1.8742 -1.2147 -0.1874
   15CHTO   C25 6236   6.184   4.331   1.285 -0.2056 -0.0815  0.6106
   15CHTO   H53 6237   6.117   4.341   1.372 -1.3432  0.3153 -0.3001
   15CHTO   O17 6238   6.316   4.300   1.325 -0.3523 -0.1750  0.0090
   15CHTO   C32 6239   6.333   4.174   1.394 -0.1868 -0.1430 -0.4554
   15CHTO   H60 6240   6.283   4.187   1.490  1.0978  0.6408  0.1122
   15CHTO   C36 6241   6.488   4.162   1.411  0.5393 -0.4390  0.1295
   15CHTO   O25 6242   6.559   4.266   1.484 -0.0719  0.5139 -0.3355
   15CHTO   H40 6243   6.605   4.229   1.557  1.0028  3.5608  0.5849
   15CHTO   O15 6244   6.203   4.474   1.217  0.0745 -0.1486  1.2511
   15CHTO   C19 6245   6.211   4.599   1.292 -0.5267 -0.6734 -0.6109
   15CHTO   H47 6246   6.223   4.681   1.220 -0.4029 -1.6468 -1.7013
   15CHTO   C20 6247   6.083   4.642   1.379 -0.7271  0.3497  0.5130
   15CHTO   H48 6248   6.050   4.564   1.448 -1.2164 -1.0373 -1.2489
   15CHTO   O19 6249   5.971   4.653   1.290  0.6952 -0.4439  0.3482
   15CHTO   H35 6250   5.983   4.589   1.222  2.1364  0.9064 -0.6744
   15CHTO   C21 6251   6.099   4.768   1.470  0.1517 -0.2201 -0.2617
   15CHTO   H49 6252   6.121   4.860   1.415  0.0835 -0.8119 -1.2953
   15CHTO    N4 6253   5.977   4.789   1.556  0.2739 -0.3152 -0.1377
   15CHTO   H41 6254   5.991   4.882   1.609  0.4277 -0.1421 -0.4774
   15CHTO   H42 6255   5.966   4.711   1.630  0.3906  1.9865  2.3717
   15CHTO   C22 6256   6.226   4.730   1.561 -0.1264 -0.3912  0.2202
   15CHTO   H50 6257   6.212   4.642   1.623 -1.8481 -0.1746  0.1653
   15CHTO   O14 6258   6.341   4.712   1.471 -0.0330 -0.1100  0.0938
   15CHTO   C23 6259   6.340   4.602   1.382  0.5432  0.4548 -0.1546
   15CHTO   H51 6260   6.345   4.510   1.442  0.4929 -0.1067 -1.0088
   15CHTO   C34 6261   6.464   4.604   1.293 -0.0789 -0.4067 -0.3536
   15CHTO   O23 6262   6.585   4.620   1.366  0.3945 -0.5053  0.2173
   15CHTO   H38 6263   6.621   4.706   1.356 -2.0866  0.4374 -0.9917
   15CHTO   O16 6264   6.258   4.846   1.646  0.2481 -0.3514  0.0895
   15CHTO   C24 6265   6.299   4.800   1.802  0.6823 -0.7053  0.5976
   15CHTO   H52 6266   6.273   4.697   1.824  4.5178 -1.9163 -0.1989
   15CHTO   C26 6267   6.237   4.898   1.903 -0.0163 -0.0758 -0.3807
   15CHTO   H54 6268   6.262   5.000   1.867 -0.7897 -0.1467 -1.1422
   15CHTO   O20 6269   6.094   4.884   1.896 -0.1848  0.3260 -0.2808
   15CHTO   H36 6270   6.043   4.938   1.953 -0.5398  0.0024 -0.2898
   15CHTO   C30 6271   6.291   4.886   2.048  0.2195  0.1542 -0.2918
   15CHTO   H58 6272   6.273   4.783   2.082 -1.9279  0.4898 -0.3016
   15CHTO    N6 6273   6.228   4.987   2.143  0.0934 -0.7797 -0.6255
   15CHTO   H45 6274   6.315   5.042   2.175 -0.8841 -0.2293  1.1733
   15CHTO   H46 6275   6.181   4.935   2.226  0.7344  0.9371  0.8497
   15CHTO   C33 6276   6.451   4.886   2.051 -0.9842  0.5469  0.0588
   15CHTO   H61 6277   6.496   4.985   2.034  1.8111 -0.3970  1.6207
   15CHTO   O18 6278   6.501   4.798   1.953  0.1647 -0.1848  0.3178
   15CHTO   C28 6279   6.452   4.811   1.818  0.1039  0.3592  0.5432
   15CHTO   H56 6280   6.493   4.894   1.760  1.4988 -1.7668 -1.6154
   15CHTO   C35 6281   6.522   4.695   1.752  0.1824 -0.2203 -0.2689
   15CHTO   O24 6282   6.664   4.710   1.734 -0.7761  0.1684  0.8878
   15CHTO   H39 6283   6.719   4.635   1.734  0.0946  0.8022  0.2412
   15CHTO    O9 6284   6.500   4.850   2.183  0.1146  0.3120 -0.1081
   15CHTO   C13 6285   6.670   4.876   2.206 -0.0663  0.4107 -0.0119
   15CHTO   H26 6286   6.708   4.974   2.173 -0.0562 -0.7113 -3.5162
   15CHTO   C11 6287   6.754   4.755   2.136  0.4001  0.5424 -0.1370
   15CHTO   H24 6288   6.744   4.768   2.027 -0.8107  0.8075  0.0022
   15CHTO    O8 6289   6.688   4.628   2.163  0.3311 -0.2349 -0.3534
   15CHTO    H3 6290   6.734   4.553   2.129 -1.4191 -1.9477  0.9167
   15CHTO    C9 6291   6.899   4.757   2.192  0.0428 -0.4177 -0.0773
   15CHTO   H22 6292   6.932   4.860   2.171  0.5772 -0.2996  1.3237
   15CHTO    N2 6293   6.987   4.668   2.114 -1.1820 -0.0704  0.0744
   15CHTO   H10 6294   7.026   4.722   2.030  0.4258 -1.5990 -0.1777
   15CHTO   H11 6295   7.047   4.608   2.180 -1.4115 -0.2411  0.1299
   15CHTO    C7 6296   6.901   4.740   2.347  0.4279  0.8824  0.5965
   15CHTO   H20 6297   6.974   4.815   2.383  0.2447  2.0287 -1.3066
   15CHTO    O4 6298   6.774   4.762   2.407 -0.2311 -0.0605  0.4077
   15CHTO   C14 6299   6.707   4.882   2.363 -0.2324 -0.7272 -0.2743
   15CHTO   H27 6300   6.756   4.981   2.375 -1.7399 -0.2676  2.7242
   15CHTO   C18 6301   6.572   4.893   2.452  0.6689  0.1186 -0.7480
   15CHTO   O13 6302   6.612   4.877   2.591 -0.6062  0.2992  0.1719
   15CHTO    H7 6303   6.550   4.828   2.640  1.9459 -1.7220  1.5240
   15CHTO    O2 6304   6.955   4.578   2.392  0.1648  0.6004 -0.2818
   15CHTO    C1 6305   7.069   4.576   2.482  0.0410  0.3100  0.1766
   15CHTO   H14 6306   7.123   4.673   2.489 -1.4308  1.0920  1.0818
   15CHTO    C2 6307   7.177   4.463   2.446  1.1788 -0.6074 -0.0546
   15CHTO   H15 6308   7.125   4.367   2.440  2.0752 -1.1077  0.1783
   15CHTO    O6 6309   7.228   4.502   2.317 -0.0948 -0.5231  0.4999
   15CHTO    H1 6310   7.298   4.564   2.325  0.5112 -0.8481 -1.7381
   15CHTO    C3 6311   7.294   4.449   2.560 -0.5667 -0.1331 -0.2929
   15CHTO   H16 6312   7.357   4.538   2.548  1.3366 -1.4287 -0.1044
   15CHTO    N1 6313   7.383   4.337   2.526 -0.2384  0.0807  0.7716
   15CHTO    H8 6314   7.413   4.350   2.423 -0.9427  0.3017  0.5878
   15CHTO    H9 6315   7.345   4.236   2.529 -0.8080  0.3457  3.1966
   15CHTO    C4 6316   7.232   4.456   2.704  0.2400 -0.4340 -0.6534
   15CHTO   H17 6317   7.188   4.360   2.729 -1.7634 -0.2943 -3.4310
   15CHTO    O1 6318   7.136   4.559   2.726  0.0262  0.1668 -0.0724
   15CHTO    C5 6319   7.027   4.558   2.635 -0.1524 -0.2008  0.4031
   15CHTO   H18 6320   6.979   4.461   2.649 -0.3480  0.0257  1.3008
   15CHTO   C16 6321   6.926   4.666   2.669  0.1745  0.6627 -1.2158
   15CHTO   O11 6322   7.000   4.788   2.691  0.3986  0.4080 -0.7719
   15CHTO    H5 6323   6.977   4.829   2.773  0.5737  0.7369 -0.8827
   15CHTO    O3 6324   7.341   4.481   2.803 -0.0470 -0.2412 -0.4869
   15CHTO    C6 6325   7.343   4.415   2.938  1.0128 -0.3824 -0.2843
   15CHTO   H19 6326   7.241   4.397   2.971  1.6222 -2.6152  0.4350
   15CHTO    C8 6327   7.434   4.288   2.930  0.1744  0.7727  0.3411
   15CHTO   H21 6328   7.524   4.322   2.878 -0.4191  2.3908  0.3228
   15CHTO    O7 6329   7.358   4.190   2.854 -0.3529  0.3928  0.4818
   15CHTO    H2 6330   7.267   4.213   2.841 -0.3751  0.3227  0.5166
   15CHTO   C12 6331   7.479   4.231   3.073  0.3775  0.4704  0.1269
   15CHTO   H25 6332   7.389   4.178   3.110  1.9544 -1.9661  0.5339
   15CHTO    N3 6333   7.604   4.144   3.060  0.5418 -0.2515  0.3988
   15CHTO   H12 6334   7.658   4.159   2.968  0.7138 -1.0119  0.3653
   15CHTO   H13 6335   7.562   4.044   3.059 -0.2177  0.0204  2.5818
   15CHTO   C15 6336   7.503   4.355   3.167 -0.4510 -0.0930 -0.5765
   15CHTO   H28 6337   7.601   4.398   3.146 -0.2154 -0.5259 -0.3642
   15CHTO   O10 6338   7.518   4.298   3.324  0.2498  0.0547 -0.0632
   15CHTO    H4 6339   7.481   4.358   3.386 -0.5500 -1.5094  1.0076
   15CHTO    O5 6340   7.398   4.454   3.168  0.2663  0.5097  0.3530
   15CHTO   C10 6341   7.403   4.518   3.042  0.1506  0.9468  0.1545
   15CHTO   H23 6342   7.507   4.530   3.009  0.9184 -1.9842  1.3146
   15CHTO   C17 6343   7.333   4.657   3.041  0.2885  0.5481  0.0821
   15CHTO   O12 6344   7.388   4.746   2.950  0.3749  0.3464 -0.7505
   15CHTO    H6 6345   7.477   4.772   2.969 -0.4211  1.3987  1.7886
   16CHTO  H203 6346   5.643   4.732   1.723  1.6397  1.4178  0.0264
   16CHTO   O82 6347   5.675   4.645   1.711 -0.0101  0.7837  0.0716
   16CHTO  C123 6348   5.749   4.603   1.830 -0.3419 -0.3590  0.1308
   16CHTO  H227 6349   5.677   4.551   1.894 -0.2679 -2.5908 -1.5347
   16CHTO   O77 6350   5.844   4.512   1.777 -0.3363  0.0421 -0.2507
   16CHTO  C118 6351   5.919   4.430   1.863  0.0614 -0.1121 -1.1134
   16CHTO  H222 6352   5.858   4.361   1.924  1.6401 -1.1261 -0.6549
   16CHTO  C125 6353   6.021   4.341   1.772 -0.5183 -0.4034  0.6156
   16CHTO   O84 6354   6.109   4.412   1.692 -0.3717  0.2914  0.3330
   16CHTO  H205 6355   6.163   4.456   1.755 -0.0165  0.9590 -0.4267
   16CHTO  C114 6356   5.999   4.526   1.957 -0.2563 -0.1838 -0.3475
   16CHTO  H218 6357   6.075   4.579   1.900  0.9778  1.7155  2.9372
   16CHTO  C116 6358   5.910   4.638   2.018  0.0860  0.3876  0.4040
   16CHTO  H220 6359   5.839   4.592   2.090  1.1013 -0.9261  0.5818
   16CHTO   O79 6360   6.003   4.714   2.096 -0.4688  0.0490  0.8898
   16CHTO  H201 6361   5.998   4.807   2.085  2.2131  0.5119  2.8078
   16CHTO  C120 6362   5.825   4.711   1.908 -0.1051 -0.2006  0.4614
   16CHTO  H224 6363   5.901   4.765   1.847 -0.0744 -1.1973 -0.3944
   16CHTO   N21 6364   5.733   4.813   1.966 -0.7729 -0.1748 -0.7871
   16CHTO  H211 6365   5.718   4.890   1.892  1.7235 -0.6243 -1.8433
   16CHTO  H212 6366   5.787   4.859   2.048 -0.6030 -0.8173 -0.5271
   16CHTO   O75 6367   6.072   4.432   2.038 -0.4773 -0.2080 -0.1350
   16CHTO  C112 6368   6.218   4.466   2.069 -0.8285  0.4555 -0.0530
   16CHTO  H216 6369   6.239   4.573   2.054 -0.5147  0.1436 -1.9465
   16CHTO   O73 6370   6.301   4.377   1.986 -0.0024  0.1598  0.1440
   16CHTO  C113 6371   6.442   4.357   2.007 -0.1900  0.4533 -0.0046
   16CHTO  H217 6372   6.496   4.446   1.969 -0.4926  0.6651  0.0553
   16CHTO  C124 6373   6.479   4.242   1.912  0.0244  0.0010  0.7914
   16CHTO   O83 6374   6.629   4.249   1.888  0.8350 -0.4816  0.0942
   16CHTO  H204 6375   6.655   4.159   1.875 -0.0417 -0.7809  0.3417
   16CHTO  C109 6376   6.480   4.331   2.157  0.6475 -1.2221 -0.0867
   16CHTO  H213 6377   6.445   4.229   2.179  2.0099 -2.2173 -2.2617
   16CHTO  C110 6378   6.407   4.443   2.241  0.4133 -0.3545 -0.2814
   16CHTO  H214 6379   6.434   4.544   2.208 -1.6890 -0.5059 -2.5860
   16CHTO   O78 6380   6.451   4.429   2.375 -0.4725 -0.4029 -0.3871
   16CHTO  H200 6381   6.450   4.506   2.429  1.3464 -0.1350 -0.6785
   16CHTO  C111 6382   6.251   4.434   2.225 -0.4735  0.3920  1.1407
   16CHTO  H215 6383   6.221   4.333   2.257  1.2228  0.4454  2.9948
   16CHTO   N19 6384   6.172   4.528   2.313 -0.1622  0.2159 -0.2378
   16CHTO  H207 6385   6.082   4.565   2.267  0.5953  0.4263 -1.5748
   16CHTO  H208 6386   6.155   4.490   2.413 -0.3618 -0.9809 -0.7122
   16CHTO   O74 6387   6.629   4.323   2.171  0.7331 -0.5584  0.0812
   16CHTO  C115 6388   6.695   4.189   2.235 -0.3376  0.2267 -0.3534
   16CHTO  H219 6389   6.622   4.124   2.282 -1.3269  0.6822 -1.2281
   16CHTO   O76 6390   6.767   4.097   2.116  0.3799  0.3535 -0.2680
   16CHTO  C122 6391   6.899   4.135   2.092  0.4742  0.1586  0.0347
   16CHTO  H226 6392   6.900   4.237   2.054 -0.1262  0.5056  0.9439
   16CHTO  C126 6393   6.956   4.046   1.980 -0.1589  0.2707  0.3776
   16CHTO   O85 6394   7.078   4.106   1.923 -0.1941 -0.0706 -0.3544
   16CHTO  H206 6395   7.056   4.147   1.842 -0.3631  3.2820  1.2909
   16CHTO  C121 6396   6.995   4.124   2.218  0.4108 -0.8007  0.1906
   16CHTO  H225 6397   7.051   4.028   2.210  0.8444 -0.6998  1.9239
   16CHTO   O81 6398   7.082   4.231   2.208  0.0740 -0.0519 -0.2774
   16CHTO  H202 6399   7.155   4.218   2.266 -0.2533 -0.6532  0.0024
   16CHTO  C119 6400   6.917   4.124   2.352  0.2106 -0.0450 -0.2406
   16CHTO  H223 6401   6.866   4.028   2.358 -0.3339  0.1826 -1.2159
   16CHTO  C117 6402   6.799   4.233   2.347  0.3917 -0.7713  0.0561
   16CHTO  H221 6403   6.831   4.332   2.314  0.1295  1.1245  5.0495
   16CHTO   N20 6404   6.731   4.262   2.483 -0.1272 -0.0462  0.4892
   16CHTO  H209 6405   6.746   4.354   2.536  0.4829  0.3631 -0.3864
   16CHTO  H210 6406   6.776   4.189   2.549  0.5294 -0.5054 -0.4596
   16CHTO   O80 6407   7.000   4.130   2.483  0.4596  0.2247 -0.0855
   16CHTO  C103 6408   7.024   3.987   2.565  0.0449  0.2212 -0.4910
   16CHTO  H190 6409   6.936   3.922   2.561 -0.0417 -0.0052  3.1533
   16CHTO  C101 6410   7.147   3.901   2.524 -0.2271  0.0492  0.7490
   16CHTO  H188 6411   7.233   3.968   2.527  0.5892 -0.9678  0.4537
   16CHTO   O68 6412   7.133   3.841   2.369 -0.8446 -0.0574  0.2893
   16CHTO  H168 6413   7.213   3.809   2.332 -0.3555 -0.1409  1.4007
   16CHTO   C99 6414   7.173   3.778   2.626  0.4014  0.1196 -0.1747
   16CHTO  H186 6415   7.089   3.707   2.608  1.0810 -0.8713  0.4657
   16CHTO   N17 6416   7.302   3.705   2.602 -0.4144  0.1756  0.8434
   16CHTO  H174 6417   7.352   3.655   2.684  2.4633 -1.7059 -1.9489
   16CHTO  H175 6418   7.292   3.637   2.519 -0.4965 -1.2422  1.9923
   16CHTO   C97 6419   7.155   3.820   2.777  0.0374 -0.7758 -0.3724
   16CHTO  H184 6420   7.244   3.863   2.825 -1.3921  0.7236  0.9949
   16CHTO   O64 6421   7.041   3.909   2.793  0.5019 -0.0080 -0.0334
   16CHTO  C104 6422   7.040   4.029   2.719  0.4204 -0.4124 -0.0822
   16CHTO  H191 6423   7.131   4.089   2.732  0.6452 -0.1511 -2.6072
   16CHTO  C108 6424   6.924   4.111   2.765  0.5164  0.1807  0.4117
   16CHTO   O71 6425   6.799   4.040   2.744  0.3001 -0.3556 -0.2649
   16CHTO  H171 6426   6.777   3.991   2.821  0.0449 -1.3534 -0.9664
   16CHTO   O62 6427   7.114   3.701   2.850  0.1616 -0.5493 -0.6257
   16CHTO   C91 6428   7.173   3.666   2.974 -0.4526 -0.1592  0.8314
   16CHTO  H178 6429   7.279   3.646   2.955  0.2051  1.8275  2.2308
   16CHTO   C92 6430   7.114   3.525   3.005  0.1714 -0.1013 -0.5060
   16CHTO  H179 6431   7.127   3.456   2.921  0.2324 -2.5150  1.4330
   16CHTO   O66 6432   7.188   3.472   3.116  0.4627 -0.3847  0.3393
   16CHTO  H166 6433   7.278   3.467   3.090  0.2442  1.8742 -1.0069
   16CHTO   C93 6434   6.969   3.532   3.059  0.4538  0.4697 -0.4061
   16CHTO  H180 6435   6.950   3.444   3.122  0.3287  1.4915  1.0097
   16CHTO   N16 6436   6.870   3.523   2.947 -0.1743  0.1155 -0.1814
   16CHTO  H172 6437   6.774   3.571   2.962  1.2859  2.8127  0.6841
   16CHTO  H173 6438   6.865   3.423   2.904 -1.2901 -0.1409  0.5182
   16CHTO   C94 6439   6.941   3.665   3.146  0.2031 -0.1603  0.0008
   16CHTO  H181 6440   6.891   3.742   3.087  1.6036  0.5328 -0.2918
   16CHTO   O61 6441   7.064   3.718   3.198  0.0676  0.0196 -0.2852
   16CHTO   C95 6442   7.153   3.768   3.092 -0.1536 -0.9076 -0.2801
   16CHTO  H182 6443   7.110   3.859   3.049 -0.7858 -0.6180  0.9576
   16CHTO  C106 6444   7.281   3.820   3.162  0.5054  0.2514 -0.4613
   16CHTO   O69 6445   7.377   3.874   3.069 -0.3633  0.0720 -0.2186
   16CHTO  H169 6446   7.459   3.834   3.089 -1.1028 -1.8686 -0.9204
   16CHTO   O63 6447   6.839   3.626   3.276 -0.4020 -0.0899 -0.2303
   16CHTO   C96 6448   6.682   3.568   3.233  0.8159 -0.1071  0.8007
   16CHTO  H183 6449   6.700   3.482   3.169  1.3710  1.4361 -1.1745
   16CHTO   C98 6450   6.586   3.662   3.158 -0.0448 -0.3266  0.3620
   16CHTO  H185 6451   6.630   3.685   3.060 -0.4158  0.6613  0.4162
   16CHTO   O67 6452   6.472   3.584   3.124  0.1257  0.2774  0.0962
   16CHTO  H167 6453   6.430   3.560   3.204  1.3241 -2.0433  0.0793
   16CHTO  C102 6454   6.539   3.788   3.247  0.2650 -0.2629 -0.1212
   16CHTO  H189 6455   6.447   3.826   3.199  0.9177  0.4633 -0.8170
   16CHTO   N18 6456   6.632   3.902   3.235  0.4283  0.4984 -0.1076
   16CHTO  H176 6457   6.607   3.976   3.309  0.4026  1.2672 -0.8716
   16CHTO  H177 6458   6.621   3.949   3.138  0.2251  4.5505  1.7746
   16CHTO  C105 6459   6.506   3.748   3.394  0.3742  0.1593 -0.1337
   16CHTO  H192 6460   6.576   3.798   3.461 -0.5379  2.4669 -0.8427
   16CHTO   O65 6461   6.522   3.605   3.427 -0.1682 -0.5664 -0.2731
   16CHTO  C100 6462   6.629   3.523   3.371  0.3188 -0.6536  0.1927
   16CHTO  H187 6463   6.704   3.524   3.452 -0.0430 -0.4518  0.5235
   16CHTO  C107 6464   6.591   3.373   3.363  0.4589 -0.2819 -0.4572
   16CHTO   O70 6465   6.563   3.333   3.497  0.3562  0.0147  0.4036
   16CHTO  H170 6466   6.643   3.324   3.545 -0.9727  0.5089  2.8261
   16CHTO   O57 6467   6.348   3.807   3.433 -0.1401 -0.2728  0.0782
   16CHTO   C85 6468   6.316   3.944   3.416  0.7349  0.2073 -0.1191
   16CHTO  H157 6469   6.373   3.992   3.333 -0.4741 -2.0227 -2.2982
   16CHTO   C83 6470   6.371   4.018   3.535 -0.2336  0.3455 -0.0734
   16CHTO  H155 6471   6.479   4.003   3.547  0.0723  1.6854 -1.0503
   16CHTO   O56 6472   6.314   3.962   3.665 -0.0701  0.2167  0.8357
   16CHTO  H135 6473   6.314   3.868   3.671 -2.3078  0.2699  2.3126
   16CHTO   C81 6474   6.336   4.169   3.523  0.1878  0.3715 -0.2775
   16CHTO  H153 6475   6.385   4.210   3.434 -0.3045  1.4383 -0.0761
   16CHTO   N14 6476   6.390   4.259   3.631 -0.3200  0.7229 -0.1260
   16CHTO  H141 6477   6.496   4.264   3.643 -0.0296  0.6363 -2.4307
   16CHTO  H142 6478   6.344   4.250   3.728  0.5355 -2.4606  0.0421
   16CHTO   C79 6479   6.181   4.191   3.502 -0.0833  0.4720  0.5031
   16CHTO  H151 6480   6.164   4.297   3.483  0.1249  0.5448  0.7096
   16CHTO   O52 6481   6.144   4.119   3.394 -0.1247  0.0186  0.0047
   16CHTO   C86 6482   6.161   3.975   3.402  0.7219 -0.4000  0.4382
   16CHTO  H158 6483   6.105   3.939   3.490  1.1870 -1.8631  0.1481
   16CHTO   C90 6484   6.103   3.904   3.274 -0.2292 -0.6121 -0.5328
   16CHTO   O60 6485   5.964   3.908   3.260 -0.0575 -0.3289 -0.1047
   16CHTO  H138 6486   5.924   3.879   3.180 -4.7509  1.3897  1.4154
   16CHTO   O50 6487   6.095   4.165   3.613  0.2900 -0.2522 -0.4601
   16CHTO   C73 6488   6.018   4.123   3.722 -1.4838 -0.4731 -0.2165
   16CHTO  H145 6489   6.079   4.060   3.789 -1.6350  0.0369  0.4151
   16CHTO   C74 6490   5.898   4.032   3.674 -0.8747 -0.0366  0.0917
   16CHTO  H146 6491   5.941   3.950   3.616 -0.5186  0.5269 -0.4446
   16CHTO   O54 6492   5.833   3.967   3.792 -0.2396 -0.1542 -0.3209
   16CHTO  H133 6493   5.763   3.919   3.753 -1.7791  1.8046 -0.0176
   16CHTO   C75 6494   5.800   4.112   3.592  1.2101 -0.5133  0.2271
   16CHTO  H147 6495   5.848   4.136   3.496  4.2274 -2.3958  1.1851
   16CHTO   N13 6496   5.679   4.032   3.551 -0.1581  0.4007  0.6834
   16CHTO  H139 6497   5.625   4.084   3.474  2.7291  0.5853 -1.2873
   16CHTO  H140 6498   5.607   4.015   3.630 -0.0335  2.8398  1.3525
   16CHTO   C76 6499   5.762   4.246   3.663 -0.5405 -0.3306  0.4667
   16CHTO  H148 6500   5.717   4.220   3.759  0.6786  0.5628  1.2985
   16CHTO   O49 6501   5.889   4.312   3.689 -0.0387 -0.0529  0.0183
   16CHTO   C77 6502   5.965   4.252   3.786 -0.1281  0.2007  0.7818
   16CHTO  H149 6503   5.909   4.229   3.877  0.2602 -0.7398  0.7965
   16CHTO   C88 6504   6.068   4.351   3.824 -0.9002  0.3716 -0.2668
   16CHTO   O58 6505   6.162   4.294   3.945  0.8030  0.2116 -0.2355
   16CHTO  H136 6506   6.121   4.305   4.029  0.3064  0.9611 -0.5651
   16CHTO   O51 6507   5.654   4.350   3.586 -0.1085  0.8057 -0.0402
   16CHTO   C78 6508   5.623   4.495   3.666 -0.1989  0.6847 -0.3464
   16CHTO  H150 6509   5.717   4.554   3.661 -1.6029  3.0243  0.2062
   16CHTO   C80 6510   5.588   4.481   3.813 -0.2022  0.4029  0.4472
   16CHTO  H152 6511   5.514   4.400   3.826  1.0131 -0.4135  2.6601
   16CHTO   O55 6512   5.699   4.439   3.887  0.2471  0.1600  0.1254
   16CHTO  H134 6513   5.708   4.348   3.868 -1.4917 -0.3658  1.6824
   16CHTO   C84 6514   5.542   4.612   3.880  0.3757 -0.9009  1.0529
   16CHTO  H156 6515   5.633   4.668   3.903  0.0538  0.2282 -0.3580
   16CHTO   N15 6516   5.468   4.584   4.012 -0.0991 -0.1478 -0.7305
   16CHTO  H143 6517   5.421   4.670   4.053  2.0894 -0.1751  1.9630
   16CHTO  H144 6518   5.526   4.535   4.088  0.5794  2.3821  0.4293
   16CHTO   C87 6519   5.458   4.701   3.794  0.0048  0.1206  0.2146
   16CHTO  H159 6520   5.356   4.662   3.794  1.0098 -2.6510 -0.9979
   16CHTO   O53 6521   5.506   4.707   3.647  0.5773 -0.4801 -0.4879
   16CHTO   C82 6522   5.522   4.576   3.590  0.1548 -0.6321 -0.1809
   16CHTO  H154 6523   5.430   4.517   3.593  1.2062 -2.3613 -1.1377
   16CHTO   C89 6524   5.561   4.588   3.442 -0.8119 -0.1663 -0.5679
   16CHTO   O59 6525   5.469   4.665   3.366 -0.1150  0.5908 -0.1274
   16CHTO  H137 6526   5.525   4.715   3.310  0.1176  0.3388 -0.1185
   16CHTO   O45 6527   5.455   4.855   3.847  0.5782 -0.0986 -0.1367
   16CHTO   C67 6528   5.561   4.939   3.814 -0.8712 -0.1584  0.3138
   16CHTO  H124 6529   5.633   4.879   3.759 -0.3041  0.8160 -0.0112
   16CHTO   C65 6530   5.505   5.047   3.716 -0.3242  0.8075  0.3915
   16CHTO  H122 6531   5.402   5.071   3.743 -0.5185  0.1411  0.2607
   16CHTO   O44 6532   5.515   4.988   3.583 -0.4045 -0.2155  0.1048
   16CHTO  H102 6533   5.456   4.916   3.571  0.8558 -1.3439  0.5055
   16CHTO   C63 6534   5.583   5.184   3.730  0.6686 -0.2286  0.4406
   16CHTO  H120 6535   5.541   5.239   3.814  1.0410  0.9572 -0.1374
   16CHTO   N11 6536   5.562   5.279   3.616 -0.2872  0.5980  0.6181
   16CHTO  H108 6537   5.572   5.384   3.634 -0.9443  0.9606 -1.0222
   16CHTO  H109 6538   5.472   5.259   3.562  0.5622 -1.9636  0.0834
   16CHTO   C61 6539   5.738   5.147   3.759 -0.3973 -0.2591  1.0407
   16CHTO  H118 6540   5.780   5.245   3.784 -3.0504  2.2761 -3.7572
   16CHTO   O40 6541   5.751   5.059   3.882 -0.2729 -0.8509 -0.1387
   16CHTO   C68 6542   5.633   4.995   3.934 -0.1684  0.3125  0.4532
   16CHTO  H125 6543   5.570   5.076   3.977 -0.2888 -0.8786  2.5878
   16CHTO   C72 6544   5.674   4.899   4.050  0.7338 -0.6274 -0.6049
   16CHTO   O48 6545   5.701   4.971   4.174 -0.0313 -0.0146  0.3506
   16CHTO  H105 6546   5.791   4.989   4.192  0.1302  2.0123 -2.3017
   16CHTO   O38 6547   5.794   5.080   3.642 -0.5933  0.0180  0.2111
   16CHTO   C55 6548   5.938   5.066   3.642 -0.0239 -0.2984  0.2451
   16CHTO  H112 6549   5.981   5.069   3.743 -0.7491  0.1261  0.5477
   16CHTO   C56 6550   5.995   5.185   3.556  0.4853  0.4857  0.1035
   16CHTO  H113 6551   5.942   5.184   3.459 -0.1164  1.0925  0.4239
   16CHTO   O42 6552   5.972   5.310   3.625  0.6479 -0.8721 -0.0980
   16CHTO  H100 6553   6.029   5.311   3.699  2.8873 -0.7985 -1.7796
   16CHTO   C57 6554   6.145   5.171   3.522 -0.4268  1.3349 -0.1630
   16CHTO  H114 6555   6.196   5.189   3.617 -0.9155 -1.5531  0.6866
   16CHTO   N10 6556   6.195   5.273   3.428 -0.1434  0.2515  0.3008
   16CHTO  H106 6557   6.243   5.360   3.470  0.4910 -0.2562  0.6356
   16CHTO  H107 6558   6.133   5.299   3.343  2.2605 -1.2480 -1.9951
   16CHTO   C58 6559   6.176   5.028   3.470  0.4825 -0.7808 -0.8240
   16CHTO  H115 6560   6.124   5.016   3.373 -1.6959  1.6377  0.0007
   16CHTO   O37 6561   6.126   4.928   3.563  0.1092  0.1102 -0.0957
   16CHTO   C59 6562   5.981   4.931   3.577 -0.8739  0.3695  0.2610
   16CHTO  H116 6563   5.934   4.915   3.480  0.4977  2.0951 -0.7055
   16CHTO   C70 6564   5.931   4.810   3.661 -0.3901 -0.1904 -0.0946
   16CHTO   O46 6565   5.968   4.819   3.798 -0.9060  0.0520  0.1391
   16CHTO  H103 6566   5.896   4.863   3.840 -2.3173 -1.6245 -0.4860
   16CHTO   O39 6567   6.350   4.996   3.457  1.1421 -0.0382  0.2508
   16CHTO   C60 6568   6.406   4.914   3.350  0.0629 -0.7713  0.4614
   16CHTO  H117 6569   6.333   4.860   3.290 -1.1871  0.3919  0.9181
   16CHTO   C62 6570   6.492   5.003   3.251  0.4346  0.0197 -0.0855
   16CHTO  H119 6571   6.419   5.084   3.228 -2.7242 -2.4622  0.9119
   16CHTO   O43 6572   6.604   5.064   3.313 -0.5260 -0.0387  0.1984
   16CHTO  H101 6573   6.625   5.027   3.397  0.5558  0.7271  0.2762
   16CHTO   C66 6574   6.529   4.912   3.118  0.1544  0.0453 -0.1108
   16CHTO  H123 6575   6.437   4.869   3.078 -0.4806  0.9803  0.3655
   16CHTO   N12 6576   6.580   4.985   3.000  0.1913 -0.0472  0.2733
   16CHTO  H110 6577   6.560   5.090   3.020 -2.2794 -1.0883  3.6039
   16CHTO  H111 6578   6.540   4.954   2.905  1.8809 -1.1917 -0.0874
   16CHTO   C69 6579   6.617   4.793   3.171  0.5697  0.3921 -0.0740
   16CHTO  H126 6580   6.708   4.843   3.210  0.6449 -0.1929  0.5043
   16CHTO   O41 6581   6.555   4.715   3.296 -0.0335  0.4534  0.6392
   16CHTO   C64 6582   6.508   4.802   3.405  0.3578 -0.4930  1.1299
   16CHTO  H121 6583   6.584   4.851   3.470 -0.7389 -0.1080  2.1375
   16CHTO   C71 6584   6.442   4.709   3.507  0.2405 -0.1312 -0.4295
   16CHTO   O47 6585   6.342   4.631   3.441  0.2240  0.5613 -0.2641
   16CHTO  H104 6586   6.262   4.624   3.488  0.5104  1.8055  0.4206
   16CHTO   O34 6587   6.662   4.705   3.036  0.5712 -0.1319 -0.1521
   16CHTO   C49 6588   6.757   4.557   3.044  0.6103  0.2120 -0.2693
   16CHTO   H91 6589   6.809   4.561   2.948  2.1777 -1.1284  0.4910
   16CHTO   C47 6590   6.679   4.424   3.040  0.7451 -0.1747 -0.3476
   16CHTO   H89 6591   6.744   4.337   3.018  1.4339  0.4567 -0.8347
   16CHTO   O33 6592   6.585   4.436   2.928  0.1186 -0.4294 -0.3624
   16CHTO   H70 6593   6.516   4.372   2.930 -0.0390 -0.2687 -0.6831
   16CHTO   C45 6594   6.604   4.399   3.180 -0.4335  0.5375  0.2310
   16CHTO   H87 6595   6.541   4.486   3.202 -1.8387  0.1965 -2.2449
   16CHTO    N8 6596   6.515   4.279   3.178  0.0515  0.4541  0.1541
   16CHTO   H75 6597   6.532   4.216   3.092  0.5403  0.1865  0.4432
   16CHTO   H76 6598   6.520   4.226   3.272  0.1895 -0.1715 -0.2025
   16CHTO   C43 6599   6.729   4.383   3.295 -0.0771 -0.3635  0.7559
   16CHTO   H85 6600   6.679   4.377   3.391 -1.1358 -1.1718  0.1685
   16CHTO   O29 6601   6.822   4.499   3.288  0.1877 -0.5947  0.1441
   16CHTO   C50 6602   6.868   4.554   3.160 -0.0799 -0.3222  0.4386
   16CHTO   H92 6603   6.899   4.656   3.186 -0.3122  0.7470 -3.1999
   16CHTO   C54 6604   6.999   4.491   3.119 -0.9321  0.3687  0.0564
   16CHTO   O36 6605   7.090   4.485   3.231  0.5119 -0.2321 -0.1965
   16CHTO   H72 6606   7.057   4.426   3.297  3.9041 -0.7941  1.0854
   16CHTO   O27 6607   6.805   4.259   3.285  0.5730 -0.4467  0.0363
   16CHTO   C37 6608   6.886   4.197   3.393  0.1302  0.5538  0.8986
   16CHTO   H79 6609   6.967   4.257   3.438 -0.1518  0.4826  1.5051
   16CHTO   C38 6610   6.795   4.144   3.508 -0.1439 -1.0561 -0.3942
   16CHTO   H80 6611   6.702   4.105   3.465 -0.4440 -0.1497 -0.5893
   16CHTO   O31 6612   6.762   4.275   3.572  0.2270  0.4899 -0.3684
   16CHTO   H68 6613   6.670   4.278   3.588  0.0793  2.2748 -1.3729
   16CHTO   C39 6614   6.868   4.045   3.609 -0.6088  0.3915 -0.3252
   16CHTO   H81 6615   6.932   4.105   3.674  1.0960 -1.2317 -0.4789
   16CHTO    N7 6616   6.772   3.987   3.711 -0.7942  0.2307  1.1598
   16CHTO   H73 6617   6.822   3.923   3.783  2.4699  0.2376 -0.9627
   16CHTO   H74 6618   6.686   3.937   3.668 -0.1960  0.0007  0.2052
   16CHTO   C40 6619   6.964   3.944   3.540 -1.1113 -0.0407  0.5305
   16CHTO   H82 6620   6.903   3.858   3.513 -0.4872 -0.1293 -0.6229
   16CHTO   O26 6621   7.037   4.003   3.428 -0.6456  0.0608  0.9714
   16CHTO   C41 6622   6.953   4.073   3.333  0.1778 -0.1822  0.9614
   16CHTO   H83 6623   6.877   4.004   3.294 -2.1500  2.0878  1.3554
   16CHTO   C52 6624   7.044   4.106   3.211  0.9151 -0.3955 -0.3271
   16CHTO   O35 6625   7.165   4.198   3.245 -0.4278  0.1666  0.0791
   16CHTO   H71 6626   7.130   4.272   3.290 -0.1886 -0.2100  0.9193
   16CHTO   O28 6627   7.068   3.907   3.631 -0.8692  1.1246  0.3123
   16CHTO   C42 6628   7.103   3.772   3.664 -0.4260 -0.8295  0.6690
   16CHTO   H84 6629   7.209   3.783   3.688 -0.6909  1.3526  0.9738
   16CHTO   C44 6630   7.101   3.664   3.551  0.7718 -0.8184  0.3224
   16CHTO   H86 6631   7.006   3.669   3.496  0.1459  0.2171  1.4896
   16CHTO   O32 6632   7.203   3.699   3.459  0.5046  0.5067  0.0731
   16CHTO   H69 6633   7.245   3.621   3.427  0.2151  0.8590 -1.1871
   16CHTO   C48 6634   7.105   3.514   3.602 -0.3520 -0.0770  0.6972
   16CHTO   H90 6635   7.212   3.496   3.612 -0.3322  1.1711  3.3202
   16CHTO    N9 6636   7.075   3.425   3.491 -0.0876 -0.0576  0.2074
   16CHTO   H77 6637   7.016   3.478   3.418  2.1505  1.9581 -0.1912
   16CHTO   H78 6638   7.056   3.320   3.509  2.2339 -0.7544 -1.2756
   16CHTO   C51 6639   7.032   3.491   3.740 -0.3657 -0.1296  0.4385
   16CHTO   H93 6640   6.924   3.496   3.727 -0.7404  0.8632  3.5712
   16CHTO   O30 6641   7.075   3.590   3.830  0.0015 -0.2857  0.0801
   16CHTO   C46 6642   7.031   3.730   3.790  0.1958 -0.8477 -0.3698
   16CHTO   H88 6643   6.928   3.736   3.756  0.7655  2.0758 -1.8207
   16CHTO   C53 6644   7.064   3.828   3.900 -0.5056  0.1984 -0.2586
   16CHTO   O72 6645   6.981   3.811   4.014  0.5212  0.1850  0.2216
   16CHTO  H199 6646   7.011   3.863   4.086  0.3063  0.8824 -0.1889
   16CHTO   O22 6647   7.069   3.365   3.795  0.1528 -0.3570 -0.0527
   16CHTO   C31 6648   6.990   3.320   3.913  0.2492 -0.1224 -0.0066
   16CHTO   H59 6649   7.037   3.227   3.952 -1.7359 -0.4358  1.7584
   16CHTO   C29 6650   6.981   3.413   4.035  0.5036 -0.2037 -0.3098
   16CHTO   H57 6651   6.925   3.502   4.001  1.7081  1.0901  0.9757
   16CHTO   O21 6652   7.116   3.449   4.066 -0.0422  0.0362  0.2561
   16CHTO   H37 6653   7.110   3.516   4.132 -0.7310 -0.2494  0.4814
   16CHTO   C27 6654   6.901   3.344   4.152 -0.1822 -0.3047  0.1466
   16CHTO   H55 6655   6.955   3.249   4.171  0.4026 -0.0796 -0.3395
   16CHTO    N5 6656   6.891   3.426   4.279 -0.7245 -0.1145  0.2004
   16CHTO   H43 6657   6.993   3.431   4.315 -0.3485  2.4284 -1.0716
   16CHTO   H44 6658   6.835   3.374   4.355 -0.9626  1.4810  1.1351
   16CHTO   C25 6659   6.757   3.319   4.095  0.0385  0.1562 -0.0049
   16CHTO   H53 6660   6.726   3.409   4.041 -0.1135  0.4789  0.6207
   16CHTO   O17 6661   6.765   3.225   3.975 -0.0823 -0.3859 -0.2883
   16CHTO   C32 6662   6.850   3.279   3.871  0.3871 -0.0140 -0.4305
   16CHTO   H60 6663   6.798   3.365   3.829  2.8045  1.3831 -0.6441
   16CHTO   C36 6664   6.863   3.164   3.765 -0.2391 -0.1886  0.7407
   16CHTO   O25 6665   6.753   3.129   3.682  0.2119 -0.2978  0.1157
   16CHTO   H40 6666   6.673   3.112   3.727  0.9602  0.4421  1.7490
   16CHTO   O15 6667   6.657   3.249   4.208 -0.3976 -0.1212 -0.2914
   16CHTO   C19 6668   6.537   3.256   4.278 -0.1029  0.2101 -0.8484
   16CHTO   H47 6669   6.530   3.361   4.309  2.1950 -0.1078  0.8755
   16CHTO   C20 6670   6.416   3.214   4.190  0.0069 -0.0625 -0.6755
   16CHTO   H48 6671   6.426   3.111   4.151 -0.1902 -0.0543 -0.7457
   16CHTO   O19 6672   6.418   3.293   4.072  0.1811 -0.6850 -0.0508
   16CHTO   H35 6673   6.435   3.385   4.083 -0.1946 -0.7967  1.6120
   16CHTO   C21 6674   6.277   3.215   4.270  0.2472 -0.4423  0.4614
   16CHTO   H49 6675   6.249   3.319   4.288  2.1259 -0.2092  2.2370
   16CHTO    N4 6676   6.159   3.167   4.199  0.2835 -0.0620  0.4044
   16CHTO   H41 6677   6.153   3.212   4.101 -1.4640 -1.0457  0.0463
   16CHTO   H42 6678   6.065   3.187   4.247  0.3557  0.2727  0.4132
   16CHTO   C22 6679   6.299   3.146   4.401 -0.1241  0.5795  0.2870
   16CHTO   H50 6680   6.297   3.037   4.389 -1.1283  0.6158  0.1174
   16CHTO   O14 6681   6.418   3.182   4.467  0.1656  0.5938  0.0188
   16CHTO   C23 6682   6.544   3.170   4.408 -0.1923  0.3198  0.4564
   16CHTO   H51 6683   6.566   3.065   4.384  1.2658  0.7989 -0.3359
   16CHTO   C34 6684   6.641   3.207   4.522 -0.2128 -0.0174  0.2475
   16CHTO   O23 6685   6.772   3.186   4.473 -0.1237  0.0447 -0.5539
   16CHTO   H38 6686   6.832   3.164   4.542 -1.6756 -1.1222  0.4443
   16CHTO   O16 6687   6.200   3.187   4.487  0.6873 -0.5246 -0.5830
   16CHTO   C24 6688   6.154   3.072   4.599 -0.0817 -0.6572  0.0800
   16CHTO   H52 6689   6.221   2.986   4.591 -1.8700 -2.0500 -0.3013
   16CHTO   C26 6690   6.011   3.018   4.575 -0.3089 -0.4262  0.3813
   16CHTO   H54 6691   5.942   3.104   4.584 -0.5136 -0.4730 -0.7111
   16CHTO   O20 6692   6.016   2.954   4.447 -0.0384 -0.1681 -0.1053
   16CHTO   H36 6693   5.932   2.916   4.425  0.6805 -1.9145  0.0712
   16CHTO   C30 6694   5.958   2.917   4.679  0.5157 -0.3604  0.0008
   16CHTO   H58 6695   6.010   2.820   4.684 -0.1339 -0.6334  1.9544
   16CHTO    N6 6696   5.820   2.881   4.659  0.1964  0.0015 -0.0330
   16CHTO   H45 6697   5.782   2.795   4.711  2.2735  0.4352  2.3182
   16CHTO   H46 6698   5.768   2.970   4.691 -0.7167 -0.5381 -0.0110
   16CHTO   C33 6699   5.987   2.988   4.823 -0.0106  0.3276 -0.0370
   16CHTO   H61 6700   5.932   3.082   4.834 -2.1708 -1.0955  1.7396
   16CHTO   O18 6701   6.125   3.023   4.829 -0.0181  0.2110  0.2482
   16CHTO   C28 6702   6.171   3.133   4.744  0.8106  0.6759 -0.0300
   16CHTO   H56 6703   6.110   3.223   4.753  2.2173  1.7753 -1.2903
   16CHTO   C35 6704   6.317   3.167   4.780  0.0805 -0.6380 -0.5473
   16CHTO   O24 6705   6.331   3.201   4.920  0.3725  0.2226  0.3065
   16CHTO   H39 6706   6.252   3.187   4.968  1.3572 -2.2255  1.3388
   16CHTO    O9 6707   5.947   2.899   4.933 -0.1019 -0.6582  0.5365
   16CHTO   C13 6708   6.054   2.909   5.068 -0.5320 -0.1762 -0.0168
   16CHTO   H26 6709   6.093   3.012   5.074 -0.0516 -0.3197 -0.6750
   16CHTO   C11 6710   6.171   2.805   5.043  0.6239 -0.1679 -0.1864
   16CHTO   H24 6711   6.236   2.835   4.959  1.0132  0.6587  0.3974
   16CHTO    O8 6712   6.119   2.671   5.019 -0.3221 -0.4989 -0.1076
   16CHTO    H3 6713   6.051   2.660   4.955 -0.7912  2.2067 -0.1561
   16CHTO    C9 6714   6.263   2.805   5.173 -0.3932 -0.2674 -0.1702
   16CHTO   H22 6715   6.294   2.910   5.189  2.0245 -0.8297 -1.1396
   16CHTO    N2 6716   6.387   2.730   5.148  0.6352 -0.1199  0.1605
   16CHTO   H10 6717   6.438   2.783   5.069 -0.0167 -0.0585 -0.2286
   16CHTO   H11 6718   6.444   2.725   5.240 -1.2659  0.4229  1.4079
   16CHTO    C7 6719   6.186   2.764   5.299 -0.5760  0.1911  0.3445
   16CHTO   H20 6720   6.212   2.831   5.383  1.9836 -2.0758  1.4050
   16CHTO    O4 6721   6.045   2.767   5.278 -0.5726  0.3185 -0.3189
   16CHTO   C14 6722   5.985   2.867   5.202 -0.6943 -0.0249 -0.2997
   16CHTO   H27 6723   5.989   2.952   5.273  1.0785 -1.3403  1.2283
   16CHTO   C18 6724   5.834   2.834   5.178  1.4566  0.7356  0.7267
   16CHTO   O13 6725   5.757   2.815   5.300  0.0772 -0.3802 -0.1327
   16CHTO    H7 6726   5.692   2.881   5.312 -0.1633 -0.5036 -0.7402
   16CHTO    O2 6727   6.229   2.629   5.355  0.3988 -0.1717  0.4460
   16CHTO    C1 6728   6.120   2.537   5.401 -0.1984 -0.4128 -0.3416
   16CHTO   H14 6729   6.025   2.548   5.345  0.0436 -0.4248 -0.7557
   16CHTO    C2 6730   6.080   2.560   5.560  0.0315  0.6089 -0.3617
   16CHTO   H15 6731   6.172   2.565   5.619 -0.3582 -0.2063  0.3289
   16CHTO    O6 6732   6.017   2.681   5.570  0.1883 -0.5663  0.6124
   16CHTO    H1 6733   6.061   2.729   5.637 -1.7931  1.1216  0.7659
   16CHTO    C3 6734   5.995   2.444   5.616  0.5843  0.4896  1.6586
   16CHTO   H16 6735   5.896   2.448   5.569  0.4648 -0.7299  1.7765
   16CHTO    N1 6736   5.976   2.457   5.765  0.1725 -0.0374  0.9129
   16CHTO    H8 6737   5.876   2.457   5.805 -1.0168 -3.0660 -1.8097
   16CHTO    H9 6738   6.031   2.385   5.824  0.1878 -0.0795  0.8469
   16CHTO    C4 6739   6.056   2.303   5.568 -0.2045 -0.1310  0.3495
   16CHTO   H17 6740   6.153   2.286   5.616  0.1368  1.1139  0.1030
   16CHTO    O1 6741   6.068   2.300   5.424 -0.1297 -0.0002  0.2668
   16CHTO    C5 6742   6.170   2.389   5.376  0.3468  0.1535 -0.0724
   16CHTO   H18 6743   6.266   2.369   5.423  0.6327  1.4884 -0.0651
   16CHTO   C16 6744   6.183   2.371   5.227  0.0137  0.3362  0.1261
   16CHTO   O11 6745   6.213   2.239   5.186  0.3972 -0.1693  0.3073
   16CHTO    H5 6746   6.160   2.204   5.117 -1.9915  1.1596  1.3997
   16CHTO    O3 6747   5.969   2.192   5.601 -0.0521  0.7261  0.2319
   16CHTO    C6 6748   6.029   2.061   5.635 -0.8931 -0.2310 -0.6402
   16CHTO   H19 6749   6.125   2.057   5.582 -1.7108 -3.0270 -1.9884
   16CHTO    C8 6750   6.065   2.043   5.790 -0.1716  0.5784  0.8158
   16CHTO   H21 6751   5.984   2.092   5.845  0.0889  1.0272  0.7947
   16CHTO    O7 6752   6.179   2.120   5.806  0.2460  0.4349 -0.2361
   16CHTO    H2 6753   6.236   2.080   5.869  1.3715  0.6819 -1.0800
   16CHTO   C12 6754   6.084   1.895   5.841  0.2735  0.4593  0.4486
   16CHTO   H25 6755   6.186   1.863   5.812  1.0067  2.2503  0.9786
   16CHTO    N3 6756   6.083   1.888   5.990  0.1172  0.3933 -0.8417
   16CHTO   H12 6757   6.146   1.959   6.042  1.5408  0.0863 -2.1047
   16CHTO   H13 6758   6.099   1.789   6.029  1.0566  0.9687  0.2813
   16CHTO   C15 6759   5.984   1.794   5.759 -0.0616 -0.2017  0.0760
   16CHTO   H28 6760   5.878   1.810   5.781 -1.2011 -1.4719 -4.1713
   16CHTO   O10 6761   6.019   1.641   5.799  0.4460 -0.0923 -0.2793
   16CHTO    H4 6762   5.948   1.589   5.768  0.6216 -1.2565  1.1878
   16CHTO    O5 6763   5.998   1.813   5.618  0.4294 -0.4824  0.5516
   16CHTO   C10 6764   5.947   1.942   5.579  0.3157  0.3884  0.2144
   16CHTO   H23 6765   5.841   1.940   5.603 -0.1919  0.0206 -1.9927
   16CHTO   C17 6766   5.950   1.932   5.425  0.0791 -0.6359 -0.5902
   16CHTO   O12 6767   5.858   2.017   5.360  0.3722  0.4840  0.4416
   16CHTO    H6 6768   5.881   2.108   5.349  1.0252  0.3137  0.3998
   17CHTO  H203 6769   6.616   4.545  -0.490 -0.7133 -0.1225 -1.0594
   17CHTO   O82 6770   6.581   4.583  -0.412  0.9134 -0.0275 -0.3505
   17CHTO  C123 6771   6.514   4.706  -0.441  0.3902  1.0071  0.2687
   17CHTO  H227 6772   6.406   4.683  -0.446  0.6028 -0.0498  0.4819
   17CHTO   O77 6773   6.533   4.780  -0.317  0.0152  0.1543  0.6314
   17CHTO  C118 6774   6.460   4.900  -0.320 -0.7630  0.7797  0.3825
   17CHTO  H222 6775   6.354   4.888  -0.345 -1.3147 -0.5935  3.1761
   17CHTO  C125 6776   6.472   4.935  -0.169  0.3386 -0.8848 -0.2021
   17CHTO   O84 6777   6.406   5.058  -0.137 -0.1012  0.1902  0.2606
   17CHTO  H205 6778   6.418   5.077  -0.046  1.5105  0.1099  0.0805
   17CHTO  C114 6779   6.524   4.998  -0.421 -0.0524 -0.4869 -0.1891
   17CHTO  H218 6780   6.630   5.009  -0.396 -0.2761  2.0645 -0.2216
   17CHTO  C116 6781   6.521   4.936  -0.565  0.7248 -0.0558  0.2704
   17CHTO  H220 6782   6.415   4.949  -0.594  1.3107 -0.1052 -2.0076
   17CHTO   O79 6783   6.598   5.022  -0.654  0.2161  0.6335  0.0512
   17CHTO  H201 6784   6.680   5.050  -0.618 -0.2560  1.1049  0.7742
   17CHTO  C120 6785   6.567   4.779  -0.570 -0.3761  0.0096  0.4564
   17CHTO  H224 6786   6.677   4.782  -0.558 -0.1568 -1.1374 -1.0438
   17CHTO   N21 6787   6.531   4.707  -0.701 -0.1385  0.1232 -0.0286
   17CHTO  H211 6788   6.595   4.622  -0.715 -1.1582 -0.8907  1.3382
   17CHTO  H212 6789   6.541   4.775  -0.785  0.3996  1.6110  1.2241
   17CHTO   O75 6790   6.463   5.125  -0.393  0.2104  0.2729  0.6798
   17CHTO  C112 6791   6.506   5.254  -0.501 -0.5280  0.1679 -0.4509
   17CHTO  H216 6792   6.464   5.242  -0.601 -2.2007  0.6727  0.1663
   17CHTO   O73 6793   6.653   5.267  -0.504 -0.1254 -0.2891  0.0750
   17CHTO  C113 6794   6.692   5.390  -0.578 -0.5077  0.9256 -0.1352
   17CHTO  H217 6795   6.655   5.366  -0.680  1.3197 -0.6736 -0.4438
   17CHTO  C124 6796   6.843   5.400  -0.584 -0.1788 -0.3271 -0.3751
   17CHTO   O83 6797   6.911   5.294  -0.644 -0.2282 -0.1397  0.2262
   17CHTO  H204 6798   7.000   5.299  -0.615  0.4110  0.1736 -1.6804
   17CHTO  C109 6799   6.636   5.518  -0.515 -0.5003  0.0415  0.3763
   17CHTO  H213 6800   6.683   5.527  -0.416 -1.7719 -0.1346  1.0013
   17CHTO  C110 6801   6.482   5.512  -0.504 -0.2386  0.1509  0.2148
   17CHTO  H214 6802   6.434   5.524  -0.601  1.5366  0.1989 -0.6789
   17CHTO   O78 6803   6.439   5.624  -0.432 -0.2505  0.1949 -0.1166
   17CHTO  H200 6804   6.457   5.628  -0.340  0.3120  0.2224 -0.2212
   17CHTO  C111 6805   6.441   5.383  -0.432  0.4176 -0.7267  0.9876
   17CHTO  H215 6806   6.467   5.391  -0.325 -0.8762  0.2169  1.2463
   17CHTO   N19 6807   6.291   5.371  -0.433  0.1916 -0.7986  0.2359
   17CHTO  H207 6808   6.257   5.279  -0.477 -2.8532 -0.1178  1.0275
   17CHTO  H208 6809   6.263   5.382  -0.329  2.1883  1.5094  0.5762
   17CHTO   O74 6810   6.686   5.627  -0.594 -0.1660  0.1702 -0.2711
   17CHTO  C115 6811   6.774   5.737  -0.506  0.2754  0.5712 -0.2457
   17CHTO  H219 6812   6.814   5.692  -0.415 -0.5693  0.7317  0.2132
   17CHTO   O76 6813   6.899   5.796  -0.596  0.4771 -0.1719 -0.1705
   17CHTO  C122 6814   6.864   5.881  -0.706 -0.3701 -0.6570 -0.0105
   17CHTO  H226 6815   6.824   5.818  -0.785 -1.9082  1.0927 -0.6603
   17CHTO  C126 6816   6.993   5.960  -0.761 -0.0242 -0.4974 -0.1762
   17CHTO   O85 6817   7.091   5.877  -0.828  0.1643  0.1459  0.1853
   17CHTO  H206 6818   7.172   5.925  -0.830  1.2310 -1.6115  0.7624
   17CHTO  C121 6819   6.762   5.995  -0.668  0.2007  0.1724  0.2172
   17CHTO  H225 6820   6.810   6.092  -0.690 -0.7643  1.1254  2.1973
   17CHTO   O81 6821   6.652   5.992  -0.762  0.5714 -0.3960  0.3653
   17CHTO  H202 6822   6.589   5.925  -0.740  1.2125 -1.8561 -2.0778
   17CHTO  C119 6823   6.729   5.999  -0.515  0.0876 -0.4078  0.3228
   17CHTO  H223 6824   6.826   6.015  -0.468  0.4176 -1.6523  0.0784
   17CHTO  C117 6825   6.680   5.859  -0.462 -0.4483 -0.4099 -0.0716
   17CHTO  H221 6826   6.581   5.833  -0.500 -1.0596 -0.8256  1.7694
   17CHTO   N20 6827   6.654   5.865  -0.317 -0.8841 -0.4137  0.3364
   17CHTO  H209 6828   6.618   5.770  -0.279  0.0968 -0.5472  0.9558
   17CHTO  H210 6829   6.576   5.939  -0.305  0.3100  0.7184  1.2647
   17CHTO   O80 6830   6.650   6.121  -0.470 -0.4109  0.1924  0.1593
   17CHTO  C103 6831   6.722   6.239  -0.376 -0.9887 -0.0420  0.7992
   17CHTO  H190 6832   6.783   6.188  -0.301 -1.5494 -1.5146  0.2526
   17CHTO  C101 6833   6.799   6.343  -0.453  0.0993  0.6877 -0.0539
   17CHTO  H188 6834   6.742   6.370  -0.541 -0.1054 -1.5741 -0.6561
   17CHTO   O68 6835   6.938   6.261  -0.491  0.5853 -0.8691  0.0274
   17CHTO  H168 6836   6.962   6.281  -0.579  0.5069  0.7231  0.3529
   17CHTO   C99 6837   6.845   6.472  -0.366 -0.9700  0.1728  0.2649
   17CHTO  H186 6838   6.918   6.440  -0.289 -1.0752 -0.5260  0.0774
   17CHTO   N17 6839   6.909   6.582  -0.444 -0.1329  0.2452  0.4290
   17CHTO  H174 6840   6.990   6.629  -0.390  2.3860 -2.9583 -0.3916
   17CHTO  H175 6841   6.931   6.553  -0.546 -2.3111  1.7648 -0.5151
   17CHTO   C97 6842   6.726   6.517  -0.279 -0.2909  0.2993  0.2206
   17CHTO  H184 6843   6.648   6.554  -0.347  0.9586  3.6814  0.5037
   17CHTO   O64 6844   6.679   6.408  -0.202 -0.3674  0.2083 -0.3284
   17CHTO  C104 6845   6.611   6.310  -0.289 -0.1189  0.3812  0.8785
   17CHTO  H191 6846   6.546   6.364  -0.357 -0.6885  0.9243  1.8478
   17CHTO  C108 6847   6.526   6.202  -0.211 -0.3604  0.8354 -0.0923
   17CHTO   O71 6848   6.410   6.261  -0.142  0.6308  0.2709  0.1361
   17CHTO  H171 6849   6.394   6.230  -0.055  0.3353  0.8926  0.3063
   17CHTO   O62 6850   6.755   6.626  -0.187  0.0647  0.0243 -0.8562
   17CHTO   C91 6851   6.655   6.699  -0.106 -0.3629 -0.3087  0.6591
   17CHTO  H178 6852   6.559   6.669  -0.148  0.9017 -1.4566 -1.5185
   17CHTO   C92 6853   6.687   6.851  -0.127 -0.0540  0.8166 -0.2735
   17CHTO  H179 6854   6.698   6.877  -0.233 -0.6755  2.0825 -0.0491
   17CHTO   O66 6855   6.578   6.932  -0.072  0.5342 -0.2009  0.3924
   17CHTO  H166 6856   6.593   6.940   0.021 -0.6209 -0.1387  0.5748
   17CHTO   C93 6857   6.822   6.893  -0.054  0.2837 -0.2502  0.2462
   17CHTO  H180 6858   6.816   7.001  -0.037 -0.3877 -0.4974  1.6761
   17CHTO   N16 6859   6.950   6.874  -0.134  0.0108  0.5277 -0.0259
   17CHTO  H172 6860   6.993   6.777  -0.112 -1.2914  0.5248  2.6250
   17CHTO  H173 6861   6.919   6.885  -0.237 -1.8942 -1.3769  0.2829
   17CHTO   C94 6862   6.822   6.820   0.091 -0.1718  0.0153 -0.4684
   17CHTO  H181 6863   6.889   6.734   0.096 -0.1171 -0.0149 -1.6782
   17CHTO   O61 6864   6.699   6.767   0.132 -0.3119  0.4891  0.0986
   17CHTO   C95 6865   6.660   6.654   0.047 -0.2345  0.4214 -0.0217
   17CHTO  H182 6866   6.736   6.576   0.055  0.8122  1.4036 -0.1959
   17CHTO  C106 6867   6.525   6.593   0.109  0.5967  0.3661  0.3933
   17CHTO   O69 6868   6.505   6.460   0.062  0.6923 -0.2701  0.4087
   17CHTO  H169 6869   6.573   6.404   0.028 -0.0439 -1.5039  0.9485
   17CHTO   O63 6870   6.865   6.922   0.196 -0.0048 -0.1185  0.3267
   17CHTO   C96 6871   6.734   7.031   0.265  0.0261 -0.0828 -0.3420
   17CHTO  H183 6872   6.641   6.991   0.223 -0.5366  0.4820  0.3584
   17CHTO   C98 6873   6.736   7.184   0.240  0.3022 -0.7825  0.3250
   17CHTO  H185 6874   6.832   7.223   0.278 -1.7240  0.6840  4.1703
   17CHTO   O67 6875   6.746   7.206   0.101  0.8325  0.5093 -0.3354
   17CHTO  H167 6876   6.754   7.294   0.068 -3.9495  0.6945 -1.4911
   17CHTO  C102 6877   6.615   7.266   0.306  0.0127 -0.4156 -0.2551
   17CHTO  H189 6878   6.526   7.240   0.246  1.6056  0.1681 -2.9763
   17CHTO   N18 6879   6.635   7.414   0.306 -0.1732  0.2051  0.8994
   17CHTO  H176 6880   6.598   7.468   0.392  1.3396  1.7086  0.6498
   17CHTO  H177 6881   6.740   7.442   0.298  0.0213 -0.8519 -0.4035
   17CHTO  C105 6882   6.595   7.215   0.454 -0.2935 -0.2234  0.1137
   17CHTO  H192 6883   6.675   7.245   0.520  0.7244  0.2200 -1.2867
   17CHTO   O65 6884   6.598   7.069   0.465 -0.0439 -0.0523  0.3372
   17CHTO  C100 6885   6.719   7.007   0.419 -0.2620 -0.5298 -0.1348
   17CHTO  H187 6886   6.806   7.053   0.469  0.5434 -3.1654  0.9775
   17CHTO  C107 6887   6.728   6.861   0.455 -0.4344  0.1050  0.1486
   17CHTO   O70 6888   6.611   6.787   0.432  0.4846 -0.2824 -0.2474
   17CHTO  H170 6889   6.578   6.775   0.345 -0.7716 -0.6078  0.2569
   17CHTO   O57 6890   6.460   7.262   0.518 -0.2525  0.3892 -0.1850
   17CHTO   C85 6891   6.455   7.358   0.627  0.6246 -0.0041  0.2157
   17CHTO  H157 6892   6.556   7.402   0.617  1.2400 -1.6180 -1.0526
   17CHTO   C83 6893   6.464   7.282   0.764  0.6452 -0.0356 -0.0288
   17CHTO  H155 6894   6.552   7.217   0.761  1.1356  0.6944 -2.0898
   17CHTO   O56 6895   6.350   7.191   0.780  0.1426  0.1453  0.7848
   17CHTO  H135 6896   6.273   7.230   0.742  0.5593 -0.5324 -0.8291
   17CHTO   C81 6897   6.485   7.389   0.874  0.1231 -0.3826  0.0651
   17CHTO  H153 6898   6.577   7.444   0.852 -0.4175  0.6238  0.2538
   17CHTO   N14 6899   6.522   7.332   1.009 -0.2816  1.5794  0.1968
   17CHTO  H141 6900   6.449   7.260   1.040  0.3721  0.6927 -0.2735
   17CHTO  H142 6901   6.616   7.282   1.000 -1.1371  0.2586 -1.8193
   17CHTO   C79 6902   6.363   7.486   0.885 -0.1135  0.4330 -0.9403
   17CHTO  H151 6903   6.387   7.560   0.961 -0.7306  1.5723 -1.8485
   17CHTO   O52 6904   6.346   7.550   0.757 -0.0122 -0.3160 -0.2514
   17CHTO   C86 6905   6.337   7.463   0.634 -1.0225 -0.3625 -0.6770
   17CHTO  H158 6906   6.239   7.411   0.637 -2.3124  2.0495  3.2965
   17CHTO   C90 6907   6.339   7.558   0.505  0.0427  0.1130 -0.4539
   17CHTO   O60 6908   6.332   7.492   0.377 -0.1808 -0.3134  0.1670
   17CHTO  H138 6909   6.339   7.561   0.315  2.4896  0.2685  1.0065
   17CHTO   O50 6910   6.238   7.428   0.929  0.4769  0.3962  0.4828
   17CHTO   C73 6911   6.113   7.484   0.961  1.3298 -0.2934  0.3249
   17CHTO  H145 6912   6.104   7.590   0.933 -2.6913 -0.0398  2.3349
   17CHTO   C74 6913   6.104   7.491   1.114  0.1683  0.2715 -0.7617
   17CHTO  H146 6914   6.181   7.555   1.159  1.4395 -1.9030  0.2276
   17CHTO   O54 6915   5.985   7.553   1.158 -0.0542  0.1054 -0.4894
   17CHTO  H133 6916   5.908   7.504   1.136  0.6258 -1.6527  0.8557
   17CHTO   C75 6917   6.112   7.344   1.177  0.0701 -0.4976  0.1840
   17CHTO  H147 6918   6.209   7.303   1.143 -0.2911  0.2302 -1.7669
   17CHTO   N13 6919   6.090   7.336   1.327  0.1892  0.1860 -0.8043
   17CHTO  H139 6920   6.186   7.319   1.375  0.4714 -2.7485 -2.2365
   17CHTO  H140 6921   6.031   7.422   1.353 -0.3060 -0.6706  0.9505
   17CHTO   C76 6922   6.010   7.240   1.105 -0.2974 -0.7272  0.4391
   17CHTO  H148 6923   5.910   7.264   1.141 -0.5375 -0.2192 -0.5345
   17CHTO   O49 6924   6.000   7.266   0.961  0.2539 -0.0251  0.0822
   17CHTO   C77 6925   5.994   7.402   0.911 -0.3061  0.5064 -0.4074
   17CHTO  H149 6926   5.897   7.438   0.946 -1.1122 -0.1604 -1.8937
   17CHTO   C88 6927   5.983   7.402   0.757  0.4345 -0.0127  1.0001
   17CHTO   O58 6928   5.933   7.529   0.717  0.1624 -0.0423  0.5974
   17CHTO  H136 6929   5.999   7.594   0.732 -1.2540  1.8125 -1.1067
   17CHTO   O51 6930   6.037   7.095   1.130 -0.4722  0.1943  0.5527
   17CHTO   C78 6931   5.936   7.011   1.071 -0.2247 -0.1067  0.0074
   17CHTO  H150 6932   5.873   7.065   0.998 -0.8390  1.5267  1.6894
   17CHTO   C80 6933   5.847   6.949   1.182 -0.3030  0.1696 -0.5181
   17CHTO  H152 6934   5.912   6.902   1.258  0.8964  1.2190 -0.8812
   17CHTO   O55 6935   5.778   7.056   1.250 -0.0723 -0.0712 -0.1358
   17CHTO  H134 6936   5.834   7.131   1.261  2.1298 -2.0868  3.1144
   17CHTO   C84 6937   5.746   6.832   1.129  0.3155 -0.2873 -1.0378
   17CHTO  H156 6938   5.681   6.880   1.056 -1.6906 -0.3543  0.6279
   17CHTO   N15 6939   5.674   6.769   1.242 -0.1111 -0.6601  0.2081
   17CHTO  H143 6940   5.623   6.847   1.294 -1.2698 -1.0541 -0.3138
   17CHTO  H144 6941   5.743   6.721   1.308 -0.8671 -1.0520  0.7314
   17CHTO   C87 6942   5.835   6.734   1.048  0.3829  0.1844  0.2203
   17CHTO  H159 6943   5.901   6.692   1.125 -2.0110 -1.0318  1.6871
   17CHTO   O53 6944   5.913   6.813   0.941 -0.2029  0.0053 -0.4600
   17CHTO   C82 6945   6.010   6.903   0.989  0.1002 -0.3347  0.4529
   17CHTO  H154 6946   6.075   6.844   1.054 -0.0632 -2.3371 -1.1679
   17CHTO   C89 6947   6.097   6.952   0.871 -1.0352 -0.2079 -0.3313
   17CHTO   O59 6948   6.025   7.020   0.765  0.5609 -0.1613  0.1493
   17CHTO  H137 6949   6.001   7.110   0.774  0.0334  0.0495 -2.8154
   17CHTO   O45 6950   5.742   6.634   0.971 -0.3704  0.1345 -0.0325
   17CHTO   C67 6951   5.794   6.527   0.892 -0.7665  0.0070  0.0108
   17CHTO  H124 6952   5.895   6.502   0.924 -0.9941 -1.6154 -0.4892
   17CHTO   C65 6953   5.698   6.400   0.897  0.4688  0.0760  0.2466
   17CHTO  H122 6954   5.660   6.402   0.999  1.6471  0.8549  0.6889
   17CHTO   O44 6955   5.788   6.287   0.883  0.0573 -0.3813  0.0800
   17CHTO  H102 6956   5.781   6.232   0.959  1.2461  0.1166  0.5554
   17CHTO   C63 6957   5.575   6.415   0.805 -0.1276  0.0685 -0.4141
   17CHTO  H120 6958   5.518   6.502   0.837  1.8602  1.4971 -0.6065
   17CHTO   N11 6959   5.489   6.296   0.820  0.0495  0.0909 -0.0876
   17CHTO  H108 6960   5.524   6.216   0.758 -1.1378  1.1539 -2.1545
   17CHTO  H109 6961   5.483   6.273   0.925 -0.7227  1.8611  0.2818
   17CHTO   C61 6962   5.624   6.435   0.657 -0.0479  0.1695  0.0879
   17CHTO  H118 6963   5.537   6.454   0.592  0.8117  0.0657 -1.1163
   17CHTO   O40 6964   5.709   6.553   0.646  0.1502 -0.2280  0.1998
   17CHTO   C68 6965   5.821   6.556   0.739  0.0822 -0.4721  0.1174
   17CHTO  H125 6966   5.849   6.663   0.746  0.9629 -0.7621  1.0753
   17CHTO   C72 6967   5.949   6.484   0.694 -0.8888  0.8475 -0.6303
   17CHTO   O48 6968   6.004   6.523   0.571  0.0894  0.3575  0.6204
   17CHTO  H105 6969   5.970   6.472   0.499  2.3371 -2.5660  1.5419
   17CHTO   O38 6970   5.699   6.322   0.600  0.0790  0.0185  0.4845
   17CHTO   C55 6971   5.693   6.283   0.460 -0.3143 -0.0631  0.4288
   17CHTO  H112 6972   5.758   6.198   0.436  1.4885  1.4204 -0.0706
   17CHTO   C56 6973   5.711   6.401   0.352  0.6411  0.4526 -0.0878
   17CHTO  H113 6974   5.649   6.488   0.377  3.0911  1.9091  1.1314
   17CHTO   O42 6975   5.846   6.442   0.361 -0.4954  0.3466 -0.1218
   17CHTO  H100 6976   5.840   6.525   0.317  0.3873  0.9248  0.8408
   17CHTO   C57 6977   5.676   6.349   0.207  0.2657  0.7011 -0.2961
   17CHTO  H114 6978   5.750   6.272   0.184 -0.3332  0.6127 -1.9463
   17CHTO   N10 6979   5.694   6.438   0.093 -0.5588 -0.1720 -0.4011
   17CHTO  H106 6980   5.711   6.380   0.004  1.9800 -2.4330  1.4719
   17CHTO  H107 6981   5.781   6.500   0.111 -0.0018 -1.3859  1.2206
   17CHTO   C58 6982   5.534   6.291   0.202  0.2274  0.2656  0.1380
   17CHTO  H115 6983   5.465   6.375   0.225  1.7757  1.1252  1.7423
   17CHTO   O37 6984   5.517   6.192   0.300  0.2936  0.2740 -0.3048
   17CHTO   C59 6985   5.549   6.221   0.435  0.2158 -0.1570  0.1318
   17CHTO  H116 6986   5.479   6.296   0.472 -0.4830  0.4175 -2.2695
   17CHTO   C70 6987   5.522   6.095   0.516  0.2914 -0.3674 -0.7999
   17CHTO   O46 6988   5.599   5.983   0.464 -0.4446 -0.0123  0.5537
   17CHTO  H103 6989   5.561   5.905   0.500 -2.9319 -0.0279 -1.9116
   17CHTO   O39 6990   5.485   6.218   0.051  0.9888  0.0765  0.1120
   17CHTO   C60 6991   5.357   6.256   0.010  0.8080 -0.2476 -0.2858
   17CHTO  H117 6992   5.320   6.330   0.081 -0.3568 -1.0761 -0.0153
   17CHTO   C62 6993   5.347   6.318  -0.132  0.1726  0.2757  0.7801
   17CHTO  H119 6994   5.422   6.399  -0.141  0.8706 -0.5130 -0.9254
   17CHTO   O43 6995   5.392   6.218  -0.221 -0.8287  0.6087  0.1992
   17CHTO  H101 6996   5.481   6.192  -0.215 -0.1521  1.4182 -4.4812
   17CHTO   C66 6997   5.204   6.370  -0.162  0.2661  0.1322 -0.1471
   17CHTO  H123 6998   5.185   6.457  -0.099  0.9921 -0.5400  1.0132
   17CHTO   N12 6999   5.189   6.440  -0.294  0.2750  0.4105  0.2033
   17CHTO  H110 7000   5.098   6.416  -0.347 -0.9671  1.3825  1.8167
   17CHTO  H111 7001   5.225   6.542  -0.304  1.8387 -0.4054 -2.9870
   17CHTO   C69 7002   5.094   6.255  -0.147  0.8733  0.0991 -0.1882
   17CHTO  H126 7003   5.115   6.177  -0.223  1.9754  1.2538 -1.1039
   17CHTO   O41 7004   5.112   6.187  -0.013 -0.0680 -0.9493  0.1000
   17CHTO   C64 7005   5.261   6.133   0.023  0.0082  0.5576 -0.4933
   17CHTO  H121 7006   5.284   6.048  -0.045  1.2241 -0.5297  1.2197
   17CHTO   C71 7007   5.259   6.075   0.174 -0.0356 -0.5780 -0.1251
   17CHTO   O47 7008   5.200   6.180   0.260 -0.0987  0.2016  0.1619
   17CHTO  H104 7009   5.191   6.139   0.344 -1.8422 -0.2323 -0.2326
   17CHTO   O34 7010   4.941   6.307  -0.154  0.0841 -0.1575  0.0965
   17CHTO   C49 7011   4.795   6.367  -0.098 -0.5049  0.2145  0.2246
   17CHTO   H91 7012   4.770   6.462  -0.145 -1.3000 -0.2533 -0.3090
   17CHTO   C47 7013   4.812   6.405   0.052 -0.6041 -0.3411 -0.2940
   17CHTO   H89 7014   4.717   6.459   0.070 -1.8182 -2.3482 -0.4433
   17CHTO   O33 7015   4.921   6.497   0.062  0.7431 -0.0933 -0.2971
   17CHTO   H70 7016   4.927   6.530   0.150  0.7483  2.5269 -1.2646
   17CHTO   C45 7017   4.831   6.279   0.148  0.4532 -0.7120  0.4536
   17CHTO   H87 7018   4.937   6.260   0.171  0.5143  0.3294  1.0736
   17CHTO    N8 7019   4.764   6.311   0.276  0.9905 -0.5149  0.0205
   17CHTO   H75 7020   4.817   6.375   0.345  2.3453 -0.1463 -1.3319
   17CHTO   H76 7021   4.745   6.221   0.332  0.3534 -0.6984 -0.4925
   17CHTO   C43 7022   4.780   6.142   0.076  0.4262  0.3836 -0.8463
   17CHTO   H85 7023   4.867   6.109   0.019  1.2421  1.8784 -0.4995
   17CHTO   O29 7024   4.664   6.173  -0.008 -0.1613 -0.2123  0.0248
   17CHTO   C50 7025   4.681   6.272  -0.113 -0.6840 -0.1343 -0.4305
   17CHTO   H92 7026   4.686   6.231  -0.215 -0.6384  1.2512 -0.9960
   17CHTO   C54 7027   4.546   6.340  -0.116 -0.0898 -0.0139  0.7263
   17CHTO   O36 7028   4.515   6.415  -0.231  0.3034  0.1141 -0.2896
   17CHTO   H72 7029   4.431   6.456  -0.235  0.9175  1.3398 -1.0333
   17CHTO   O27 7030   4.749   6.037   0.167  0.8291 -0.3592  0.2063
   17CHTO   C37 7031   4.821   5.934   0.225 -0.3568 -0.4086  0.1588
   17CHTO   H79 7032   4.913   5.973   0.270 -0.7454  1.1385 -0.3310
   17CHTO   C38 7033   4.734   5.873   0.342  0.3505  0.4706  0.2094
   17CHTO   H80 7034   4.641   5.832   0.300  1.0412 -1.0675  0.1386
   17CHTO   O31 7035   4.720   5.979   0.437 -0.1580  0.6355 -0.2454
   17CHTO   H68 7036   4.666   6.042   0.393  0.4064  0.2167 -1.5736
   17CHTO   C39 7037   4.792   5.748   0.421  0.3438 -0.6983 -0.3201
   17CHTO   H81 7038   4.870   5.794   0.482 -0.1964 -0.5532  0.2666
   17CHTO    N7 7039   4.706   5.680   0.524  0.0238  0.7925  0.1738
   17CHTO   H73 7040   4.766   5.603   0.569 -0.0515 -0.6323 -2.0831
   17CHTO   H74 7041   4.629   5.623   0.474 -0.3330 -0.4643  2.1178
   17CHTO   C40 7042   4.840   5.649   0.303 -0.1859  0.2243 -0.3741
   17CHTO   H82 7043   4.750   5.608   0.255  0.6634 -1.7369 -0.3675
   17CHTO   O26 7044   4.927   5.717   0.201  0.4552 -0.3950  0.5186
   17CHTO   C41 7045   4.855   5.821   0.124  0.1261  0.2773  0.0575
   17CHTO   H83 7046   4.761   5.774   0.091  0.2818 -1.2207  1.6265
   17CHTO   C52 7047   4.940   5.843  -0.005 -0.6934 -0.4658 -0.0459
   17CHTO   O35 7048   4.964   5.730  -0.089 -0.3020 -0.6040 -0.1558
   17CHTO   H71 7049   5.042   5.685  -0.062  1.1924  0.5088 -2.4377
   17CHTO   O28 7050   4.909   5.531   0.352 -0.1122 -0.9460  0.1153
   17CHTO   C42 7051   5.055   5.515   0.334 -0.2411 -0.4057  0.3510
   17CHTO   H84 7052   5.069   5.428   0.398 -0.4859 -0.6439  0.0810
   17CHTO   C44 7053   5.134   5.629   0.396  0.2071  0.2623 -0.7170
   17CHTO   H86 7054   5.079   5.722   0.379 -0.7210 -0.4373 -1.5977
   17CHTO   O32 7055   5.134   5.614   0.539 -0.3355 -0.4441  0.2058
   17CHTO   H69 7056   5.138   5.521   0.547 -0.7760 -0.5459 -0.6703
   17CHTO   C48 7057   5.287   5.642   0.348  0.0286 -0.0650  0.0812
   17CHTO   H90 7058   5.350   5.567   0.395  0.8610 -0.0181 -0.9343
   17CHTO    N9 7059   5.344   5.773   0.389  0.0174  0.5937  0.0128
   17CHTO   H77 7060   5.297   5.853   0.334 -0.9423 -0.4440 -0.6929
   17CHTO   H78 7061   5.318   5.788   0.493 -0.5967  0.1161 -0.0694
   17CHTO   C51 7062   5.299   5.608   0.195  0.9768  0.1891 -0.0592
   17CHTO   H93 7063   5.249   5.683   0.135  3.0582  1.4821 -0.2511
   17CHTO   O30 7064   5.242   5.475   0.184  0.6456 -0.2951  0.4216
   17CHTO   C46 7065   5.107   5.474   0.192  0.9614  0.8866 -0.2841
   17CHTO   H88 7066   5.065   5.537   0.113  0.4700 -0.0218 -0.7652
   17CHTO   C53 7067   5.061   5.321   0.169  0.2368  0.2327 -0.1708
   17CHTO   O72 7068   5.114   5.283   0.043  0.0706 -0.2241 -0.0011
   17CHTO  H199 7069   5.102   5.190   0.040  1.6253 -0.3992 -0.9075
   17CHTO   O22 7070   5.429   5.583   0.135 -0.7622 -0.5009  0.5340
   17CHTO   C31 7071   5.487   5.656   0.021 -0.0881  0.5900  0.2487
   17CHTO   H59 7072   5.566   5.589  -0.020 -1.7244 -1.2272  0.0025
   17CHTO   C29 7073   5.407   5.702  -0.103 -0.2709 -0.8732  0.7266
   17CHTO   H57 7074   5.324   5.768  -0.073 -0.0776  0.3064 -1.2160
   17CHTO   O21 7075   5.341   5.584  -0.160  0.6522  0.0093 -1.0684
   17CHTO   H37 7076   5.404   5.520  -0.185  1.0614 -0.2250  0.5247
   17CHTO   C27 7077   5.493   5.779  -0.207  0.6717  0.1827 -0.1862
   17CHTO   H55 7078   5.568   5.708  -0.247 -1.3662 -1.4290 -1.2220
   17CHTO    N5 7079   5.411   5.830  -0.321  0.4034 -0.3020 -0.4321
   17CHTO   H43 7080   5.472   5.855  -0.408  1.9550 -1.8914  0.1656
   17CHTO   H44 7081   5.336   5.904  -0.300 -0.0958 -0.9628  0.0969
   17CHTO   C25 7082   5.570   5.895  -0.134 -0.1644 -0.4772  1.0504
   17CHTO   H53 7083   5.502   5.974  -0.100 -0.2516 -0.9179  1.9406
   17CHTO   O17 7084   5.643   5.843  -0.024 -0.2176  0.1211  0.0750
   17CHTO   C32 7085   5.567   5.773   0.078  0.1986 -0.3962  0.7525
   17CHTO   H60 7086   5.503   5.850   0.122  1.8354  1.0342  0.6991
   17CHTO   C36 7087   5.664   5.726   0.194 -0.6708 -0.2207 -0.2224
   17CHTO   O25 7088   5.749   5.825   0.247  0.8929  0.2077  0.3025
   17CHTO   H40 7089   5.821   5.848   0.193 -0.4082 -1.8560 -2.3951
   17CHTO   O15 7090   5.678   5.962  -0.209  0.2507  0.4387  0.0502
   17CHTO   C19 7091   5.776   6.050  -0.245 -1.2097 -0.3544  0.3086
   17CHTO   H47 7092   5.859   5.988  -0.282 -0.6852  0.1384  0.6517
   17CHTO   C20 7093   5.748   6.155  -0.353 -0.6171 -0.3402  0.1125
   17CHTO   H48 7094   5.662   6.219  -0.325  1.4738  3.0204 -0.7855
   17CHTO   O19 7095   5.712   6.084  -0.475 -0.1737  0.2420  0.0008
   17CHTO   H35 7096   5.624   6.054  -0.468  0.1078 -0.4165  0.8286
   17CHTO   C21 7097   5.875   6.246  -0.379  0.1000  0.4699  0.7973
   17CHTO   H49 7098   5.960   6.183  -0.404  1.1422  3.7246 -4.7249
   17CHTO    N4 7099   5.855   6.340  -0.489  0.0793  0.0187 -0.1362
   17CHTO   H41 7100   5.945   6.336  -0.548  0.9461  0.6692  1.1466
   17CHTO   H42 7101   5.840   6.442  -0.458  4.0455  0.4577  0.5376
   17CHTO   C22 7102   5.920   6.312  -0.249 -0.3338 -0.0866  0.6928
   17CHTO   H50 7103   5.839   6.376  -0.214 -0.8686 -0.5441  0.2859
   17CHTO   O14 7104   5.947   6.206  -0.156  0.1952 -0.1418 -0.1300
   17CHTO   C23 7105   5.832   6.124  -0.124  0.2815  0.0181 -0.0623
   17CHTO   H51 7106   5.761   6.195  -0.079  2.0097  1.6885  0.1090
   17CHTO   C34 7107   5.890   6.027  -0.013 -0.4225  0.0468 -0.3915
   17CHTO   O23 7108   5.915   6.100   0.106  0.7717  0.2707 -0.7517
   17CHTO   H38 7109   5.832   6.131   0.137  0.5060  0.4867 -1.6607
   17CHTO   O16 7110   6.039   6.390  -0.251  0.5075  0.2673  0.3899
   17CHTO   C24 7111   6.018   6.539  -0.152  0.0968  0.7070  0.5356
   17CHTO   H52 7112   5.933   6.531  -0.085 -2.3876  1.2497 -2.4283
   17CHTO   C26 7113   5.995   6.667  -0.240 -1.1371  0.2640 -0.4135
   17CHTO   H54 7114   6.082   6.673  -0.308 -0.0806  0.3677  0.9148
   17CHTO   O20 7115   5.877   6.644  -0.324 -0.2254  0.4838  0.0365
   17CHTO   H36 7116   5.798   6.655  -0.276 -0.6586 -0.0690 -0.5510
   17CHTO   C30 7117   5.984   6.793  -0.154 -0.0655 -0.0745 -0.3507
   17CHTO   H58 7118   5.900   6.787  -0.083  0.8835 -2.6860  0.6402
   17CHTO    N6 7119   5.971   6.917  -0.236 -0.0364 -0.0080 -0.0542
   17CHTO   H45 7120   5.896   6.901  -0.312  0.5446  1.0444 -0.8583
   17CHTO   H46 7121   5.940   6.996  -0.169  1.6865  0.2077  0.5093
   17CHTO   C33 7122   6.106   6.808  -0.055 -0.5363  0.5274 -0.3322
   17CHTO   H61 7123   6.194   6.834  -0.115  0.4702  0.4310  1.0991
   17CHTO   O18 7124   6.127   6.678   0.010 -0.3445  0.0118  0.5240
   17CHTO   C28 7125   6.146   6.554  -0.068 -0.2794 -0.7908 -0.2204
   17CHTO   H56 7126   6.233   6.568  -0.133 -1.3455 -0.7138 -1.6705
   17CHTO   C35 7127   6.170   6.434   0.029  0.7127 -0.2002 -0.1113
   17CHTO   O24 7128   6.057   6.379   0.088 -0.5792  0.1615 -0.2213
   17CHTO   H39 7129   6.086   6.309   0.142  0.4114  0.2944 -0.5683
   17CHTO    O9 7130   6.087   6.917   0.042 -0.3889  0.4230 -0.0819
   17CHTO   C13 7131   6.242   6.954   0.128 -0.1893 -0.1167 -0.3550
   17CHTO   H26 7132   6.324   6.917   0.064 -0.0165 -0.3262 -0.0115
   17CHTO   C11 7133   6.250   6.889   0.280  0.1760 -0.6445 -0.3064
   17CHTO   H24 7134   6.339   6.824   0.282  0.8941  0.3098 -0.5298
   17CHTO    O8 7135   6.141   6.798   0.301  0.1896 -0.2363 -0.4469
   17CHTO    H3 7136   6.170   6.713   0.326  1.8016  0.4558  0.0924
   17CHTO    C9 7137   6.267   7.003   0.385  0.1207  0.3626 -0.0979
   17CHTO   H22 7138   6.373   7.030   0.382 -0.2018  1.7600  0.7034
   17CHTO    N2 7139   6.247   6.971   0.524  0.2100 -0.5647 -0.1591
   17CHTO   H10 7140   6.293   7.048   0.584  0.2672  1.0113 -2.2090
   17CHTO   H11 7141   6.286   6.873   0.550  1.2214 -0.1696 -0.1517
   17CHTO    C7 7142   6.172   7.125   0.342 -0.8709 -0.2050  0.2344
   17CHTO   H20 7143   6.180   7.199   0.424  3.0276 -1.5427  1.1948
   17CHTO    O4 7144   6.219   7.193   0.222  0.3566 -0.2883  0.1090
   17CHTO   C14 7145   6.277   7.113   0.123 -0.2224 -0.0102 -0.2603
   17CHTO   H27 7146   6.386   7.118   0.142  0.0129 -0.1873 -1.4929
   17CHTO   C18 7147   6.249   7.180  -0.010 -0.3785  0.4152  0.2953
   17CHTO   O13 7148   6.315   7.306  -0.018 -0.2743 -0.1467  0.1465
   17CHTO    H7 7149   6.260   7.371   0.022  0.5614  1.8652 -1.9194
   17CHTO    O2 7150   6.023   7.084   0.312  0.1431  0.2526  0.1398
   17CHTO    C1 7151   5.937   7.096   0.429  0.1398 -0.1599  0.5794
   17CHTO   H14 7152   5.995   7.126   0.518  1.8190 -2.6347  0.3602
   17CHTO    C2 7153   5.856   6.958   0.469 -0.1964  0.3593 -0.2362
   17CHTO   H15 7154   5.818   6.908   0.378  0.4414 -2.4038  0.9570
   17CHTO    O6 7155   5.950   6.864   0.525 -0.0633 -0.1892 -0.2060
   17CHTO    H1 7156   5.980   6.896   0.608  2.2366  2.2259 -1.8839
   17CHTO    C3 7157   5.736   6.980   0.572 -0.1821 -0.4215  0.3906
   17CHTO   H16 7158   5.781   6.983   0.673  2.0601  0.3280 -0.6016
   17CHTO    N1 7159   5.644   6.861   0.587  0.3229 -0.1553 -0.2894
   17CHTO    H8 7160   5.697   6.786   0.644  0.8129 -0.6755 -1.4148
   17CHTO    H9 7161   5.606   6.829   0.492  0.9227 -0.3587 -0.4657
   17CHTO    C4 7162   5.663   7.118   0.546  0.5097 -0.4992 -0.2978
   17CHTO   H17 7163   5.591   7.103   0.466  0.7543  0.7960 -0.7664
   17CHTO    O1 7164   5.753   7.225   0.515  0.2422 -0.1159  0.1494
   17CHTO    C5 7165   5.828   7.205   0.398 -0.5339  0.2859  0.5222
   17CHTO   H18 7166   5.774   7.178   0.307 -0.9828  2.5770  0.0616
   17CHTO   C16 7167   5.900   7.337   0.377 -0.0638  0.6082 -0.3132
   17CHTO   O11 7168   5.824   7.463   0.389  0.0587  0.0288 -0.3142
   17CHTO    H5 7169   5.860   7.549   0.398 -0.2738  0.1491 -0.0981
   17CHTO    O3 7170   5.595   7.145   0.671 -0.1846 -0.0677  0.3129
   17CHTO    C6 7171   5.556   7.287   0.706 -0.5182 -0.3550 -1.2034
   17CHTO   H19 7172   5.640   7.352   0.680 -0.8366  0.0466 -1.2178
   17CHTO    C8 7173   5.419   7.349   0.641  0.5461  0.2206 -0.4906
   17CHTO   H21 7174   5.334   7.284   0.661  0.4956  0.7798  1.1714
   17CHTO    O7 7175   5.442   7.341   0.500 -0.1693 -0.4849  0.4915
   17CHTO    H2 7176   5.513   7.397   0.478 -0.4439 -1.2629 -2.5866
   17CHTO   C12 7177   5.408   7.503   0.691  0.3182 -0.0705 -0.6032
   17CHTO   H25 7178   5.501   7.550   0.653 -0.3648  1.3524 -0.5761
   17CHTO    N3 7179   5.294   7.583   0.632  0.5812 -0.7904  0.1748
   17CHTO   H12 7180   5.273   7.552   0.530  3.3184  0.4214 -0.8115
   17CHTO   H13 7181   5.203   7.567   0.688 -0.3362  1.2155 -0.7112
   17CHTO   C15 7182   5.416   7.509   0.846 -0.4703  0.7332  0.0620
   17CHTO   H28 7183   5.325   7.467   0.890 -0.2715 -0.6887 -0.8400
   17CHTO   O10 7184   5.441   7.653   0.904 -0.5516 -0.2722  0.2714
   17CHTO    H4 7185   5.517   7.696   0.869  0.5685 -2.3594  0.0615
   17CHTO    O5 7186   5.540   7.441   0.894  0.1710 -0.4122  0.6698
   17CHTO   C10 7187   5.542   7.298   0.858 -0.9575 -0.2194  0.1276
   17CHTO   H23 7188   5.451   7.255   0.901  0.6130 -0.1762  3.6492
   17CHTO   C17 7189   5.658   7.224   0.933  0.8964  0.3805 -1.2496
   17CHTO   O12 7190   5.631   7.216   1.074  0.0430  0.1236  0.3208
   17CHTO    H6 7191   5.660   7.128   1.093  1.7683  1.0279  2.0566
   18CHTO  H203 7192   6.544   8.072   1.533 -1.6503 -2.0399  1.5126
   18CHTO   O82 7193   6.542   8.022   1.454 -0.5334 -0.4798  0.4588
   18CHTO  C123 7194   6.636   7.913   1.452 -0.1669  0.1782  0.2736
   18CHTO  H227 7195   6.626   7.855   1.545 -0.1279 -1.4613 -0.7264
   18CHTO   O77 7196   6.594   7.824   1.342  0.1150  0.1201 -0.0925
   18CHTO  C118 7197   6.676   7.714   1.307  0.3959  0.6696 -0.4817
   18CHTO  H222 7198   6.700   7.646   1.390 -1.9317 -1.5192 -1.5714
   18CHTO  C125 7199   6.602   7.631   1.198  0.2751  0.0105 -0.1853
   18CHTO   O84 7200   6.580   7.689   1.068 -0.5496  0.3003 -0.2489
   18CHTO  H205 7201   6.562   7.779   1.086  0.2724  0.6478 -1.0520
   18CHTO  C114 7202   6.818   7.766   1.257 -0.1080 -0.6929  0.0221
   18CHTO  H218 7203   6.805   7.833   1.172 -2.1615 -1.9505 -0.6952
   18CHTO  C116 7204   6.884   7.854   1.368  0.1219 -0.8104  0.4357
   18CHTO  H220 7205   6.936   7.790   1.442  0.0595 -0.1708  1.0323
   18CHTO   O79 7206   6.987   7.931   1.295 -0.2844  0.1315  0.1859
   18CHTO  H201 7207   7.040   7.969   1.363  0.8442  0.1615 -0.6885
   18CHTO  C120 7208   6.779   7.961   1.426  0.4553  0.0579 -0.3249
   18CHTO  H224 7209   6.781   8.049   1.360  2.0636 -1.4552 -2.3615
   18CHTO   N21 7210   6.846   7.997   1.556 -0.2483 -0.9737  0.0581
   18CHTO  H211 7211   6.792   8.083   1.593  1.0722 -0.3431  0.5629
   18CHTO  H212 7212   6.947   8.032   1.537 -0.1127 -0.5201  1.5549
   18CHTO   O75 7213   6.891   7.647   1.208  0.1708 -0.4388  0.0755
   18CHTO  C112 7214   7.049   7.632   1.205 -0.1404 -0.2346 -0.4406
   18CHTO  H216 7215   7.103   7.655   1.298 -1.8455 -2.3289  1.1119
   18CHTO   O73 7216   7.095   7.712   1.094 -0.2397  0.1528 -0.1863
   18CHTO  C113 7217   7.235   7.701   1.062 -0.2990  0.1572 -0.0591
   18CHTO  H217 7218   7.301   7.702   1.151  0.0698 -1.2633 -0.3160
   18CHTO  C124 7219   7.272   7.823   0.976 -0.4075  0.2597  0.2917
   18CHTO   O83 7220   7.250   7.940   1.049 -0.4675 -0.1604 -0.3300
   18CHTO  H204 7221   7.253   7.924   1.142  0.1804 -1.8672 -0.6181
   18CHTO  C109 7222   7.251   7.565   0.990  0.3426 -0.1790  0.1145
   18CHTO  H213 7223   7.178   7.565   0.907  0.3011  0.1337  0.1497
   18CHTO  C110 7224   7.213   7.451   1.094  0.3656  0.2044  0.8570
   18CHTO  H214 7225   7.291   7.450   1.170  0.1266 -2.4756  1.1305
   18CHTO   O78 7226   7.222   7.322   1.031 -0.2570  0.0447 -0.0622
   18CHTO  H200 7227   7.162   7.323   0.959  0.1395 -0.8475 -0.4132
   18CHTO  C111 7228   7.076   7.481   1.164 -0.4003 -0.0571  0.4381
   18CHTO  H215 7229   6.997   7.450   1.093 -0.0184 -1.7964  0.7459
   18CHTO   N19 7230   7.053   7.393   1.285  0.3985  0.2167 -0.5727
   18CHTO  H207 7231   7.137   7.342   1.330 -1.4051 -2.9783 -0.7202
   18CHTO  H208 7232   6.982   7.315   1.261  1.2710  0.3260 -3.7502
   18CHTO   O74 7233   7.385   7.551   0.941  0.2426 -0.6335  0.2546
   18CHTO  C115 7234   7.398   7.516   0.776 -0.5949 -0.1901 -0.4712
   18CHTO  H219 7235   7.327   7.438   0.748 -2.0748  0.3275  1.7709
   18CHTO   O76 7236   7.357   7.639   0.690 -0.1322  0.6229 -0.1830
   18CHTO  C122 7237   7.461   7.728   0.641 -0.3577  0.0828 -0.3263
   18CHTO  H226 7238   7.507   7.769   0.731  1.2340  0.6240 -1.3723
   18CHTO  C126 7239   7.402   7.842   0.557 -0.2924 -0.1755  0.1257
   18CHTO   O85 7240   7.308   7.926   0.613  0.2636 -0.3775 -0.0748
   18CHTO  H206 7241   7.273   7.983   0.547  1.3256 -0.1583 -0.4671
   18CHTO  C121 7242   7.573   7.651   0.567  1.1659  0.1390 -0.0145
   18CHTO  H225 7243   7.549   7.663   0.459  2.5903 -1.6710 -0.5531
   18CHTO   O81 7244   7.707   7.707   0.593  0.0167 -0.3079 -0.1351
   18CHTO  H202 7245   7.733   7.714   0.683 -2.4730  0.4562  0.5762
   18CHTO  C119 7246   7.580   7.497   0.597  0.0033 -0.2192 -0.4709
   18CHTO  H223 7247   7.508   7.442   0.537 -1.2789  2.1308 -1.1585
   18CHTO  C117 7248   7.543   7.471   0.746  0.7688 -0.2831 -0.3799
   18CHTO  H221 7249   7.592   7.532   0.822  1.0960 -0.7320 -0.2313
   18CHTO   N20 7250   7.563   7.330   0.790 -0.2046 -0.3028 -0.4144
   18CHTO  H209 7251   7.654   7.295   0.743 -0.0285  0.6879 -0.8133
   18CHTO  H210 7252   7.579   7.328   0.897  1.3416  0.6468 -0.6113
   18CHTO   O80 7253   7.732   7.428   0.543 -0.7698  0.4344 -0.2264
   18CHTO  C103 7254   7.738   7.354   0.402 -0.5082 -0.3727 -0.0431
   18CHTO  H190 7255   7.835   7.307   0.387 -0.9962 -1.1646 -0.7242
   18CHTO  C101 7256   7.626   7.248   0.368  0.1579 -0.1363  0.5463
   18CHTO  H188 7257   7.529   7.293   0.393 -0.0120 -1.7505  2.9359
   18CHTO   O68 7258   7.648   7.125   0.441  0.9140  0.9077 -0.1584
   18CHTO  H168 7259   7.738   7.110   0.422  0.6043  1.2547 -2.0492
   18CHTO   C99 7260   7.615   7.211   0.209  0.4678 -0.0081 -0.7511
   18CHTO  H186 7261   7.708   7.154   0.188  1.2970  0.5059  1.4317
   18CHTO   N17 7262   7.500   7.122   0.175 -0.4383  0.0743  0.4172
   18CHTO  H174 7263   7.447   7.088   0.263  0.0351 -0.8785  0.3372
   18CHTO  H175 7264   7.427   7.172   0.112  1.2896  0.2724 -1.4770
   18CHTO   C97 7265   7.614   7.340   0.125  0.1735 -0.3873  0.2592
   18CHTO  H184 7266   7.518   7.384   0.155  0.4333  0.1429  0.3127
   18CHTO   O64 7267   7.725   7.421   0.170  0.4991  0.2740  0.2097
   18CHTO  C104 7268   7.725   7.474   0.301  0.3639  0.2868  0.3544
   18CHTO  H191 7269   7.632   7.528   0.319  0.5007  1.2575 -1.7528
   18CHTO  C108 7270   7.840   7.578   0.313  0.4315 -0.8519 -0.9228
   18CHTO   O71 7271   7.960   7.541   0.257 -0.4902  0.3935  0.0162
   18CHTO  H171 7272   8.020   7.604   0.291  0.0212  0.4929 -1.0891
   18CHTO   O62 7273   7.630   7.323  -0.013 -0.7445  0.4076  0.3181
   18CHTO   C91 7274   7.550   7.402  -0.098  0.2212 -0.2826  0.0410
   18CHTO  H178 7275   7.450   7.359  -0.091 -0.2802  0.4052 -2.2814
   18CHTO   C92 7276   7.606   7.370  -0.246  0.0991 -0.2233 -0.1255
   18CHTO  H179 7277   7.713   7.397  -0.246 -0.1211  0.9329  2.9721
   18CHTO   O66 7278   7.602   7.227  -0.277  0.2239 -0.2075  0.0129
   18CHTO  H166 7279   7.685   7.183  -0.273 -0.3637 -1.6310 -2.3901
   18CHTO   C93 7280   7.529   7.450  -0.359  0.1672  0.5285  0.3419
   18CHTO  H180 7281   7.450   7.378  -0.385 -0.3899  1.0790  0.5143
   18CHTO   N16 7282   7.611   7.472  -0.481 -0.1643 -0.5620 -0.1690
   18CHTO  H172 7283   7.646   7.378  -0.521 -2.5335 -2.4397  1.9725
   18CHTO  H173 7284   7.696   7.535  -0.459 -0.2752 -0.9162  1.3073
   18CHTO   C94 7285   7.463   7.587  -0.309 -0.0418  0.0482 -0.1610
   18CHTO  H181 7286   7.474   7.667  -0.382  0.0237  1.4728  1.3864
   18CHTO   O61 7287   7.534   7.634  -0.195  0.3700 -0.5025 -0.0733
   18CHTO   C95 7288   7.540   7.559  -0.068  0.3461  0.4087  0.1790
   18CHTO  H182 7289   7.632   7.584  -0.015 -0.0185  0.4450  0.8011
   18CHTO  C106 7290   7.418   7.597   0.036 -0.8395 -0.6004  0.1072
   18CHTO   O69 7291   7.430   7.733   0.080 -0.0114  0.4100 -0.2218
   18CHTO  H169 7292   7.484   7.724   0.157  0.2894  0.6647 -0.4016
   18CHTO   O63 7293   7.302   7.549  -0.269  0.1116 -0.1737  0.6396
   18CHTO   C96 7294   7.205   7.622  -0.370 -0.7900  0.0124  0.3948
   18CHTO  H183 7295   7.104   7.584  -0.350 -1.8717  2.3762 -0.4134
   18CHTO   C98 7296   7.229   7.585  -0.525 -0.5763 -0.2923 -0.5501
   18CHTO  H185 7297   7.337   7.591  -0.541 -0.2791 -1.4182  0.8775
   18CHTO   O67 7298   7.194   7.445  -0.521 -0.1769  0.3140  0.2455
   18CHTO  H167 7299   7.238   7.400  -0.591  2.0800  0.5796  1.4518
   18CHTO  C102 7300   7.141   7.676  -0.623  0.1428  0.4970  0.1575
   18CHTO  H189 7301   7.036   7.648  -0.612  1.1132 -3.6567 -0.3198
   18CHTO   N18 7302   7.175   7.647  -0.765  0.3057  0.0049  0.8054
   18CHTO  H176 7303   7.162   7.541  -0.776 -2.2966  0.4411 -0.7734
   18CHTO  H177 7304   7.128   7.710  -0.840 -0.4607 -0.5889  0.7831
   18CHTO  C105 7305   7.156   7.827  -0.580  0.1575  0.0901 -0.3776
   18CHTO  H192 7306   7.262   7.852  -0.580  0.3809 -0.7912 -0.8765
   18CHTO   O65 7307   7.110   7.839  -0.442 -0.2324  0.8162 -0.0158
   18CHTO  C100 7308   7.192   7.769  -0.346 -0.2665 -0.2860 -0.2689
   18CHTO  H187 7309   7.289   7.818  -0.355 -0.1154  0.1268  2.8964
   18CHTO  C107 7310   7.155   7.798  -0.208  1.0640 -0.2931  0.2463
   18CHTO   O70 7311   7.019   7.782  -0.173 -0.3537  0.3538 -0.4636
   18CHTO  H170 7312   6.987   7.863  -0.137 -0.6051  0.0845 -0.0925
   18CHTO   O57 7313   7.072   7.931  -0.686 -0.2903  0.5585 -0.1142
   18CHTO   C85 7314   7.081   8.071  -0.661 -0.3798 -0.3566  0.3647
   18CHTO  H157 7315   7.191   8.083  -0.670 -0.6127  2.1155  0.5690
   18CHTO   C83 7316   7.043   8.128  -0.526 -0.7938 -0.4593 -0.2556
   18CHTO  H155 7317   7.111   8.088  -0.451 -0.6803 -0.5016 -0.3815
   18CHTO   O56 7318   6.911   8.093  -0.493 -0.1937  0.5520 -0.6633
   18CHTO  H135 7319   6.902   8.093  -0.399  1.1531 -0.6192 -0.5285
   18CHTO   C81 7320   7.063   8.282  -0.532  0.2874 -0.3282 -0.1725
   18CHTO  H153 7321   7.168   8.298  -0.554  0.1380 -0.0717 -0.7144
   18CHTO   N14 7322   7.037   8.343  -0.399  0.0812 -0.0156 -0.0694
   18CHTO  H141 7323   6.965   8.282  -0.349 -1.4728  1.4926 -0.3980
   18CHTO  H142 7324   7.003   8.445  -0.397 -1.9884 -0.6835 -0.2670
   18CHTO   C79 7325   6.979   8.353  -0.650  0.3720 -0.4631  0.3634
   18CHTO  H151 7326   7.019   8.453  -0.665  1.6512 -0.9745  0.2774
   18CHTO   O52 7327   7.009   8.283  -0.778 -0.3736  0.0267 -0.0022
   18CHTO   C86 7328   7.003   8.142  -0.779 -1.1151 -0.2023  0.6115
   18CHTO  H158 7329   6.895   8.122  -0.770 -0.7458 -2.0443  1.3650
   18CHTO   C90 7330   7.052   8.095  -0.914  0.2331  0.1589 -0.2187
   18CHTO   O60 7331   7.193   8.109  -0.936  0.1361 -0.2737  0.9853
   18CHTO  H138 7332   7.213   8.197  -0.962  2.5513 -0.4977  1.9378
   18CHTO   O50 7333   6.837   8.346  -0.620  0.1913  0.3684 -0.4904
   18CHTO   C73 7334   6.715   8.388  -0.674 -0.7193 -0.7852 -0.3875
   18CHTO  H145 7335   6.720   8.396  -0.783 -0.9909  0.3976 -0.3194
   18CHTO   C74 7336   6.679   8.530  -0.628  0.0499 -0.0805 -0.4320
   18CHTO  H146 7337   6.767   8.591  -0.653  0.5661 -0.3986  0.5685
   18CHTO   O54 7338   6.585   8.586  -0.715  0.4385  0.3762 -0.0812
   18CHTO  H133 7339   6.502   8.544  -0.704  0.5814 -0.3152 -1.6037
   18CHTO   C75 7340   6.647   8.533  -0.470  0.3812 -0.2465  0.7985
   18CHTO  H147 7341   6.735   8.505  -0.411  2.5704  1.3942 -1.5641
   18CHTO   N13 7342   6.612   8.674  -0.422  0.5647 -0.5638  0.6417
   18CHTO  H139 7343   6.704   8.730  -0.421 -0.0788  0.5917 -1.4105
   18CHTO  H140 7344   6.562   8.678  -0.327  0.1410  2.5908  0.3393
   18CHTO   C76 7345   6.533   8.429  -0.444  0.3708 -0.3748  0.2341
   18CHTO  H148 7346   6.440   8.456  -0.494 -0.3221 -0.2907  1.5470
   18CHTO   O49 7347   6.581   8.299  -0.489 -0.1002  0.0704 -0.4667
   18CHTO   C77 7348   6.603   8.294  -0.626 -0.8657 -0.9740 -0.0170
   18CHTO  H149 7349   6.509   8.316  -0.677 -0.4512 -0.2309 -0.4779
   18CHTO   C88 7350   6.629   8.144  -0.663  0.1997  0.0905 -0.7387
   18CHTO   O58 7351   6.621   8.132  -0.812  0.0242 -0.0328  0.1960
   18CHTO  H136 7352   6.684   8.188  -0.853  0.4828 -0.9836 -0.4212
   18CHTO   O51 7353   6.517   8.425  -0.298 -0.0804 -0.2315  0.4318
   18CHTO   C78 7354   6.418   8.299  -0.235  0.2792  0.1916  0.0272
   18CHTO  H150 7355   6.406   8.214  -0.305 -0.9787 -0.2415  0.7487
   18CHTO   C80 7356   6.275   8.355  -0.209  0.0585 -0.3349  0.4284
   18CHTO  H152 7357   6.281   8.460  -0.172 -1.3615 -0.1712  0.2190
   18CHTO   O55 7358   6.210   8.362  -0.335  0.7825  0.0988 -0.3757
   18CHTO  H134 7359   6.127   8.403  -0.321  0.3633 -1.2312  1.1990
   18CHTO   C84 7360   6.196   8.275  -0.097  0.3982 -1.0860  0.2656
   18CHTO  H156 7361   6.169   8.176  -0.134 -0.8683 -1.7789  2.9052
   18CHTO   N15 7362   6.067   8.348  -0.064  0.4799  0.4588 -0.3332
   18CHTO  H143 7363   5.980   8.287  -0.076  1.3345 -0.5636 -1.3761
   18CHTO  H144 7364   6.048   8.447  -0.103  2.1481  1.3440  1.0575
   18CHTO   C87 7365   6.276   8.251   0.032 -0.2115  0.3814 -0.0265
   18CHTO  H159 7366   6.315   8.345   0.070 -0.0101 -0.3727  1.6534
   18CHTO   O53 7367   6.397   8.179  -0.008  0.1008 -0.2523 -0.4614
   18CHTO   C82 7368   6.478   8.263  -0.094  0.2145 -0.7463  0.4613
   18CHTO  H154 7369   6.514   8.354  -0.047 -0.4502 -0.0754 -0.3236
   18CHTO   C89 7370   6.599   8.177  -0.120 -0.2790 -0.1283  0.0752
   18CHTO   O59 7371   6.679   8.155  -0.004  0.4011  0.0594  0.1462
   18CHTO  H137 7372   6.637   8.087   0.045  3.3882 -2.0610 -0.1030
   18CHTO   O45 7373   6.210   8.177   0.143 -0.5187  0.0109  0.1303
   18CHTO   C67 7374   6.250   8.221   0.275  0.5452  0.3483 -0.2916
   18CHTO  H124 7375   6.348   8.270   0.272  1.2346 -1.0153 -0.6036
   18CHTO   C65 7376   6.139   8.328   0.334  0.5895  0.0306 -0.1282
   18CHTO  H122 7377   6.045   8.300   0.287 -0.6084  1.7351  1.2077
   18CHTO   O44 7378   6.186   8.457   0.282  0.6283 -0.2396  0.1518
   18CHTO  H102 7379   6.175   8.462   0.189 -0.5924  1.5366  0.3588
   18CHTO   C63 7380   6.107   8.298   0.490 -0.0477  0.5060  0.1260
   18CHTO  H120 7381   6.046   8.208   0.500  0.9781  0.1278  3.2904
   18CHTO   N11 7382   6.017   8.398   0.554  0.1923 -0.0441  0.2120
   18CHTO  H108 7383   6.053   8.420   0.653 -2.0100 -0.7929  1.2258
   18CHTO  H109 7384   5.999   8.488   0.499  2.6257  0.6694  0.5372
   18CHTO   C61 7385   6.239   8.260   0.564 -0.2938  0.5831  0.1066
   18CHTO  H118 7386   6.200   8.229   0.661 -1.3488 -1.8710 -1.0700
   18CHTO   O40 7387   6.312   8.151   0.497 -0.0200 -0.0113 -0.7943
   18CHTO   C68 7388   6.266   8.103   0.375 -0.0590 -0.1874  0.3943
   18CHTO  H125 7389   6.168   8.055   0.392  0.5819 -2.2511 -1.5436
   18CHTO   C72 7390   6.360   7.989   0.329 -0.2271 -0.7166  0.5757
   18CHTO   O48 7391   6.334   7.932   0.201 -0.5252 -0.0584  0.4507
   18CHTO  H105 7392   6.340   8.000   0.136 -0.1312  0.8193  1.3877
   18CHTO   O38 7393   6.324   8.376   0.585 -0.3125  0.1322 -0.8732
   18CHTO   C55 7394   6.439   8.366   0.664  0.4505  0.1945  0.3944
   18CHTO  H112 7395   6.466   8.261   0.684 -2.0205 -0.8531 -1.5318
   18CHTO   C56 7396   6.415   8.443   0.801 -0.3568 -0.1260  0.1948
   18CHTO  H113 7397   6.410   8.548   0.768 -0.2746  0.1686  1.1334
   18CHTO   O42 7398   6.292   8.403   0.866 -0.2105  0.0637 -0.3518
   18CHTO  H100 7399   6.270   8.466   0.932 -0.0967 -1.5200  1.2728
   18CHTO   C57 7400   6.535   8.429   0.890  0.5013 -0.1020 -0.1555
   18CHTO  H114 7401   6.541   8.323   0.914 -0.9891  0.5030  3.0868
   18CHTO   N10 7402   6.525   8.499   1.020  0.0599  0.1364 -0.4783
   18CHTO  H106 7403   6.478   8.444   1.100 -0.2046  2.0398  0.7295
   18CHTO  H107 7404   6.478   8.596   1.011  0.5772  0.3847 -0.5592
   18CHTO   C58 7405   6.657   8.471   0.810  0.4431  0.2761  0.6832
   18CHTO  H115 7406   6.668   8.582   0.802  1.1215  0.2525  1.1989
   18CHTO   O37 7407   6.669   8.414   0.677  0.0769  0.7095 -0.6868
   18CHTO   C59 7408   6.560   8.438   0.593 -0.1915 -0.0478  0.0548
   18CHTO  H116 7409   6.543   8.546   0.591  1.9799  0.3978  2.6300
   18CHTO   C70 7410   6.598   8.382   0.460 -0.2570 -0.3279  0.2204
   18CHTO   O46 7411   6.579   8.247   0.427  0.4997  0.3517  0.2108
   18CHTO  H103 7412   6.487   8.228   0.436  0.5385  0.1389  0.1598
   18CHTO   O39 7413   6.793   8.425   0.890  0.2539  0.2347  0.4814
   18CHTO   C60 7414   6.838   8.293   0.863 -0.4663 -0.6341  0.2726
   18CHTO  H117 7415   6.758   8.234   0.818 -0.6057  0.6522 -1.2084
   18CHTO   C62 7416   6.939   8.288   0.748 -0.6185  0.4050  0.5661
   18CHTO  H119 7417   6.896   8.344   0.663 -5.0911 -1.7241  1.2803
   18CHTO   O43 7418   7.069   8.347   0.786  1.0735  0.1806  0.0760
   18CHTO  H101 7419   7.058   8.440   0.780  0.8717  0.3214  2.2063
   18CHTO   C66 7420   6.959   8.134   0.706  0.4744 -0.0692  0.5106
   18CHTO  H123 7421   6.861   8.092   0.685  0.6946 -1.1668  1.6837
   18CHTO   N12 7422   7.039   8.112   0.581 -0.4273  0.6680 -0.1214
   18CHTO  H110 7423   6.984   8.154   0.499 -0.6170  1.2101  0.2825
   18CHTO  H111 7424   7.136   8.156   0.597  1.5881 -3.7912  0.8343
   18CHTO   C69 7425   7.015   8.049   0.820  0.2954  0.5904  0.3315
   18CHTO  H126 7426   7.116   8.083   0.852 -0.0175  0.3327  1.6292
   18CHTO   O41 7427   6.914   8.057   0.947 -0.4134 -0.1275  0.0901
   18CHTO   C64 7428   6.894   8.214   0.983  0.9252  0.1194  0.1263
   18CHTO  H121 7429   6.989   8.261   1.015  0.8226  1.7702 -1.8995
   18CHTO   C71 7430   6.801   8.234   1.101 -0.4003 -0.0161 -0.3040
   18CHTO   O47 7431   6.828   8.357   1.180 -0.7371 -0.6354 -0.0713
   18CHTO  H104 7432   6.768   8.425   1.155  0.1974 -0.2122 -1.2003
   18CHTO   O34 7433   7.013   7.889   0.767 -0.1894  0.5183  0.2381
   18CHTO   C49 7434   6.946   7.752   0.714 -0.2792  0.4963 -0.0860
   18CHTO   H91 7435   7.030   7.682   0.707 -0.3183  0.6424 -2.4149
   18CHTO   C47 7436   6.872   7.761   0.575 -0.2348 -0.2969  0.1609
   18CHTO   H89 7437   6.843   7.655   0.557 -1.3868  0.1037 -0.4339
   18CHTO   O33 7438   6.965   7.803   0.470 -0.3679  0.2913 -0.5632
   18CHTO   H70 7439   6.937   7.887   0.440 -0.7272  0.3590 -0.0465
   18CHTO   C45 7440   6.735   7.851   0.587  0.1705 -0.3688 -0.2293
   18CHTO   H87 7441   6.755   7.956   0.562  2.7716 -0.4102  1.4427
   18CHTO    N8 7442   6.631   7.793   0.499  0.1685 -0.1809 -0.1903
   18CHTO   H75 7443   6.586   7.708   0.548 -0.1147  0.5916  0.9212
   18CHTO   H76 7444   6.552   7.865   0.481  0.5833  0.5880  1.0272
   18CHTO   C43 7445   6.695   7.853   0.744 -0.0382 -0.1765  0.0166
   18CHTO   H85 7446   6.758   7.934   0.781 -0.4657  0.0332  0.2927
   18CHTO   O29 7447   6.714   7.727   0.805 -0.0718 -0.3402  0.2586
   18CHTO   C50 7448   6.851   7.695   0.825  0.1518  0.1235  0.8518
   18CHTO   H92 7449   6.877   7.731   0.926  1.7251  0.7455  0.2368
   18CHTO   C54 7450   6.869   7.537   0.838 -1.0052 -0.1008 -0.1424
   18CHTO   O36 7451   6.773   7.471   0.750 -0.0774 -0.9368  0.3573
   18CHTO   H72 7452   6.765   7.380   0.769 -2.3301 -1.4644 -2.7797
   18CHTO   O27 7453   6.562   7.908   0.769  0.6138  0.0959 -0.3992
   18CHTO   C37 7454   6.456   7.914   0.869 -0.4658 -0.3704 -0.4068
   18CHTO   H79 7455   6.440   7.818   0.920 -1.4764 -0.1031 -0.2139
   18CHTO   C38 7456   6.500   8.021   0.979 -0.3346  0.0427  0.1847
   18CHTO   H80 7457   6.545   8.105   0.924  0.1605 -0.2468  0.1302
   18CHTO   O31 7458   6.610   7.950   1.046 -0.0980 -0.0885  0.7372
   18CHTO   H68 7459   6.697   7.978   1.024 -0.6818  1.2763  0.1496
   18CHTO   C39 7460   6.383   8.062   1.077 -0.1717  0.5443 -0.6442
   18CHTO   H81 7461   6.360   7.972   1.134  1.4073  0.7444  0.3550
   18CHTO    N7 7462   6.422   8.175   1.169  0.3012  0.0058 -0.2549
   18CHTO   H73 7463   6.373   8.271   1.157 -0.1240  0.4176  3.9935
   18CHTO   H74 7464   6.522   8.201   1.199  0.6278 -0.8879 -0.5512
   18CHTO   C40 7465   6.249   8.105   0.998 -0.0652  0.3116 -1.5915
   18CHTO   H82 7466   6.260   8.205   0.958 -1.8388  0.8541 -0.7994
   18CHTO   O26 7467   6.217   8.007   0.893  0.6634 -0.1827  0.4848
   18CHTO   C41 7468   6.323   7.974   0.800 -0.4063  0.6292  0.3740
   18CHTO   H83 7469   6.359   8.066   0.751  1.5125 -0.3278 -0.0599
   18CHTO   C52 7470   6.260   7.888   0.686  0.2922 -0.7152 -0.3394
   18CHTO   O35 7471   6.197   7.774   0.726  0.0342  0.8498  0.2711
   18CHTO   H71 7472   6.255   7.704   0.748  1.1288  1.9946  1.0705
   18CHTO   O28 7473   6.128   8.117   1.087 -0.4338  0.3416 -0.1364
   18CHTO   C42 7474   5.984   8.102   1.037  0.0880 -0.1762 -0.8769
   18CHTO   H84 7475   5.923   8.137   1.120  1.3918  1.1850 -0.4664
   18CHTO   C44 7476   5.945   7.954   1.007  0.0799  0.1908  0.8966
   18CHTO   H86 7477   6.012   7.909   0.933  1.3572  0.1447  2.0640
   18CHTO   O32 7478   5.974   7.876   1.122  0.3121 -0.1956  0.5725
   18CHTO   H69 7479   5.930   7.903   1.201 -0.4326  2.8639 -0.7927
   18CHTO   C48 7480   5.798   7.939   0.961 -0.6009  0.2612  0.1445
   18CHTO   H90 7481   5.731   7.961   1.044 -0.1684  0.3284  0.4800
   18CHTO    N9 7482   5.765   7.791   0.932 -0.2534  0.0551 -0.2340
   18CHTO   H77 7483   5.660   7.774   0.949 -0.0422 -0.4163  0.6618
   18CHTO   H78 7484   5.806   7.747   0.842  1.2905  1.1977 -0.1129
   18CHTO   C51 7485   5.773   8.028   0.829  0.3027 -0.6227 -0.3649
   18CHTO   H93 7486   5.844   7.993   0.754 -0.7581 -1.8073 -0.8298
   18CHTO   O30 7487   5.801   8.166   0.872  0.1127  0.0850  0.0299
   18CHTO   C46 7488   5.948   8.191   0.913 -1.0254 -0.3200  0.2060
   18CHTO   H88 7489   6.011   8.159   0.829  1.0741  0.8692  1.2784
   18CHTO   C53 7490   5.986   8.335   0.937 -0.3437 -0.0987  0.5323
   18CHTO   O72 7491   5.880   8.392   1.012 -0.5254 -0.4706  0.0776
   18CHTO  H199 7492   5.929   8.452   1.066 -0.4499 -0.7920  0.3690
   18CHTO   O22 7493   5.640   8.022   0.776  0.1179  0.3895 -0.0076
   18CHTO   C31 7494   5.613   8.048   0.635  0.2192  0.8250  0.3166
   18CHTO   H59 7495   5.504   8.037   0.621  0.3576  0.3613 -0.4424
   18CHTO   C29 7496   5.647   8.192   0.597  0.1342 -0.4142  0.8925
   18CHTO   H57 7497   5.754   8.215   0.609 -0.0699 -0.1433  2.2058
   18CHTO   O21 7498   5.564   8.287   0.666  0.2693 -0.3408  0.0471
   18CHTO   H37 7499   5.526   8.240   0.738 -2.6992 -0.6438 -1.6287
   18CHTO   C27 7500   5.613   8.209   0.438  0.1271 -0.2693  0.1716
   18CHTO   H55 7501   5.506   8.192   0.420  0.0397  3.5204 -3.9474
   18CHTO    N5 7502   5.638   8.347   0.389  0.3458 -1.0187 -0.3954
   18CHTO   H43 7503   5.612   8.356   0.284 -0.3092  1.8636 -0.0329
   18CHTO   H44 7504   5.735   8.392   0.406 -0.5684  1.3576 -1.2140
   18CHTO   C25 7505   5.690   8.099   0.353 -0.2615 -0.1233 -0.5034
   18CHTO   H53 7506   5.796   8.113   0.380 -0.4013 -1.9543  1.0757
   18CHTO   O17 7507   5.643   7.968   0.406 -0.5883  0.1765 -0.2633
   18CHTO   C32 7508   5.680   7.943   0.540  0.0592  0.7479  0.2075
   18CHTO   H60 7509   5.788   7.944   0.555  0.0379 -0.4039  0.4374
   18CHTO   C36 7510   5.619   7.803   0.560 -0.0267 -0.7132 -0.2076
   18CHTO   O25 7511   5.694   7.697   0.507  0.3478  0.1827 -0.1227
   18CHTO   H40 7512   5.654   7.684   0.423 -2.4413  0.8700  1.0260
   18CHTO   O15 7513   5.667   8.112   0.189 -0.0119 -0.3397 -0.2679
   18CHTO   C19 7514   5.731   8.042   0.071 -0.2308  0.6887  0.2062
   18CHTO   H47 7515   5.696   7.938   0.078  0.4135  0.5593  1.6790
   18CHTO   C20 7516   5.677   8.097  -0.064 -0.5526 -0.2546  0.0241
   18CHTO   H48 7517   5.707   8.202  -0.078  0.2568 -0.7542 -2.1393
   18CHTO   O19 7518   5.531   8.101  -0.054 -0.1822 -0.5919 -0.4312
   18CHTO   H35 7519   5.492   8.149  -0.125 -0.3406 -1.0558 -0.6604
   18CHTO   C21 7520   5.720   8.009  -0.182 -1.2687  0.1740 -0.2711
   18CHTO   H49 7521   5.663   7.916  -0.174 -2.5124  0.7486 -2.1209
   18CHTO    N4 7522   5.688   8.061  -0.315  0.3643 -0.3963  0.6308
   18CHTO   H41 7523   5.749   8.142  -0.351 -1.8188 -0.1169 -2.6523
   18CHTO   H42 7524   5.681   7.975  -0.380 -1.0890 -0.8945  1.4141
   18CHTO   C22 7525   5.874   7.989  -0.177 -0.3302 -0.4223  0.2081
   18CHTO   H50 7526   5.926   8.077  -0.215  0.3697 -1.1366 -0.5376
   18CHTO   O14 7527   5.910   7.950  -0.046 -0.0057  0.3532  0.6530
   18CHTO   C23 7528   5.888   8.033   0.063  0.0871  0.3160 -0.0785
   18CHTO   H51 7529   5.935   8.131   0.044 -0.1175  0.0401 -2.1776
   18CHTO   C34 7530   5.952   7.970   0.191 -0.1458 -0.2813  0.4217
   18CHTO   O23 7531   5.885   7.865   0.242  0.0133  0.2632  0.1961
   18CHTO   H38 7532   5.819   7.895   0.301  1.0611  0.1206  1.4566
   18CHTO   O16 7533   5.929   7.874  -0.250  0.1160 -0.8650 -0.0591
   18CHTO   C24 7534   6.108   7.881  -0.244  0.7367 -0.5427 -0.1300
   18CHTO   H52 7535   6.143   7.953  -0.171 -0.5189  1.3042 -1.3085
   18CHTO   C26 7536   6.170   7.911  -0.387 -0.2250 -0.0736  0.2308
   18CHTO   H54 7537   6.128   7.838  -0.459  2.4969 -1.0816 -0.3897
   18CHTO   O20 7538   6.127   8.038  -0.443  0.0815 -0.1196  0.7897
   18CHTO   H36 7539   6.158   8.114  -0.398  1.7295 -0.3898  0.1610
   18CHTO   C30 7540   6.325   7.891  -0.384  0.0342 -0.1150  0.4215
   18CHTO   H58 7541   6.358   7.968  -0.313 -4.0030 -0.5575  2.9162
   18CHTO    N6 7542   6.390   7.912  -0.517 -0.3000 -0.2785  0.3794
   18CHTO   H45 7543   6.467   7.836  -0.522  0.0924 -0.0954  2.8010
   18CHTO   H46 7544   6.319   7.890  -0.595  1.4970  1.0114 -1.6742
   18CHTO   C33 7545   6.362   7.753  -0.313 -0.5471  0.3744 -0.5000
   18CHTO   H61 7546   6.331   7.673  -0.383 -0.4062  1.4819 -1.8489
   18CHTO   O18 7547   6.296   7.741  -0.181 -0.3880  0.4505  0.1415
   18CHTO   C28 7548   6.155   7.733  -0.198 -0.1860  0.1820  0.2497
   18CHTO   H56 7549   6.124   7.662  -0.274 -0.1382  0.5832 -0.1482
   18CHTO   C35 7550   6.075   7.673  -0.074 -0.5388 -0.0655 -0.6933
   18CHTO   O24 7551   6.110   7.539  -0.045 -0.7505 -0.8947 -0.1229
   18CHTO   H39 7552   6.180   7.547   0.018 -0.3429  0.1022 -0.6801
   18CHTO    O9 7553   6.507   7.743  -0.302 -0.0125 -0.1052  0.3782
   18CHTO   C13 7554   6.577   7.609  -0.379 -0.4922 -0.0007 -0.4072
   18CHTO   H26 7555   6.518   7.590  -0.471 -1.0534  0.6106 -0.1776
   18CHTO   C11 7556   6.564   7.496  -0.272 -0.1907 -0.1535  0.3991
   18CHTO   H24 7557   6.459   7.464  -0.271 -0.3576  0.4033  0.4427
   18CHTO    O8 7558   6.580   7.550  -0.140 -0.4121  0.2104 -0.0551
   18CHTO    H3 7559   6.528   7.499  -0.080 -2.3761  0.9045 -1.1129
   18CHTO    C9 7560   6.668   7.386  -0.308 -0.2572  0.3014 -0.2660
   18CHTO   H22 7561   6.655   7.360  -0.413  1.1562  1.1253 -0.6626
   18CHTO    N2 7562   6.643   7.259  -0.240 -0.0091  0.0378  0.2788
   18CHTO   H10 7563   6.699   7.184  -0.293  0.3450  0.5623 -0.0911
   18CHTO   H11 7564   6.538   7.234  -0.238  0.1076 -0.5936 -1.1288
   18CHTO    C7 7565   6.812   7.451  -0.282 -0.0164  0.0253 -0.1314
   18CHTO   H20 7566   6.883   7.379  -0.327 -2.2739 -1.4859 -1.3518
   18CHTO    O4 7567   6.841   7.580  -0.339  0.1833  0.6456 -0.6783
   18CHTO   C14 7568   6.737   7.640  -0.426 -0.5164 -0.3008 -0.0177
   18CHTO   H27 7569   6.747   7.588  -0.523 -3.9149 -0.4963 -0.3257
   18CHTO   C18 7570   6.773   7.792  -0.450  0.1840 -0.4305  0.3386
   18CHTO   O13 7571   6.768   7.871  -0.331 -0.3574  0.5993 -0.3914
   18CHTO    H7 7572   6.774   7.819  -0.254  0.0457  1.1971 -0.0192
   18CHTO    O2 7573   6.838   7.468  -0.129  0.1255  0.0690  0.0618
   18CHTO    C1 7574   6.969   7.450  -0.081 -0.2978  0.0531 -0.7188
   18CHTO   H14 7575   7.026   7.538  -0.116  0.0050  0.3429  0.4847
   18CHTO    C2 7576   7.048   7.313  -0.122 -0.0816  0.0102 -0.6292
   18CHTO   H15 7577   6.974   7.232  -0.126  0.4936 -0.5782  0.4941
   18CHTO    O6 7578   7.104   7.321  -0.257 -0.2125 -0.5040  0.4498
   18CHTO    H1 7579   7.039   7.344  -0.321  0.1779  1.5092  0.7189
   18CHTO    C3 7580   7.166   7.278  -0.025  0.4902  0.5415 -0.6469
   18CHTO   H16 7581   7.250   7.348  -0.041  0.5421  0.8632  0.9490
   18CHTO    N1 7582   7.225   7.140  -0.035  0.0325 -0.1648 -0.4216
   18CHTO    H8 7583   7.145   7.068  -0.023  0.0279  0.2775  2.5758
   18CHTO    H9 7584   7.297   7.124  -0.113  0.0854 -3.1645  0.1879
   18CHTO    C4 7585   7.113   7.299   0.120  0.1122 -0.2338  0.0243
   18CHTO   H17 7586   7.030   7.231   0.137 -1.4210  1.0263 -2.1908
   18CHTO    O1 7587   7.071   7.432   0.143  0.4671 -0.3942  0.1597
   18CHTO    C5 7588   6.953   7.475   0.075 -0.1642 -0.2125 -0.0310
   18CHTO   H18 7589   6.867   7.416   0.108 -1.4806  1.6666 -0.0188
   18CHTO   C16 7590   6.922   7.631   0.096 -0.0072  0.6507 -0.4076
   18CHTO   O11 7591   6.794   7.678   0.062  0.4175 -0.1318 -0.6384
   18CHTO    H5 7592   6.729   7.610   0.067 -0.7700  0.8230 -2.4878
   18CHTO    O3 7593   7.217   7.289   0.223  0.5016  0.3259  0.4503
   18CHTO    C6 7594   7.161   7.254   0.359  0.1326 -0.1639  0.3717
   18CHTO   H19 7595   7.052   7.250   0.361  0.1667 -2.4493 -0.8713
   18CHTO    C8 7596   7.197   7.102   0.404 -1.0286  0.1517 -0.4902
   18CHTO   H21 7597   7.306   7.095   0.411 -1.0969 -2.0681 -1.2678
   18CHTO    O7 7598   7.138   7.008   0.313 -0.4400  0.0316 -0.2008
   18CHTO    H2 7599   7.207   6.981   0.255  0.7673  2.4212  0.0594
   18CHTO   C12 7600   7.139   7.079   0.551  0.2631 -0.2198  0.4269
   18CHTO   H25 7601   7.028   7.082   0.554  0.2459  0.1775 -0.5481
   18CHTO    N3 7602   7.173   6.939   0.595 -0.5501  0.2903  0.0393
   18CHTO   H12 7603   7.278   6.931   0.621 -0.2854 -1.8542 -1.5125
   18CHTO   H13 7604   7.112   6.919   0.682 -0.1826 -0.9874  0.0243
   18CHTO   C15 7605   7.195   7.193   0.645  0.5738 -0.2731  0.4143
   18CHTO   H28 7606   7.302   7.174   0.658  0.4681  0.6595  2.9257
   18CHTO   O10 7607   7.129   7.200   0.768  0.7353 -0.0540 -0.6400
   18CHTO    H4 7608   7.179   7.255   0.825  0.4799 -0.0669 -0.3983
   18CHTO    O5 7609   7.159   7.316   0.589  0.2947  0.2291  0.0827
   18CHTO   C10 7610   7.205   7.355   0.460  0.0774  0.2852 -0.2670
   18CHTO   H23 7611   7.313   7.354   0.470 -0.0014 -1.0935  0.6058
   18CHTO   C17 7612   7.154   7.493   0.436  0.7566 -0.5742 -0.2087
   18CHTO   O12 7613   7.230   7.555   0.340 -0.3905 -0.6950 -0.0877
   18CHTO    H6 7614   7.190   7.638   0.323 -0.8420 -0.8303  0.3028
   19CHTO  H203 7615   6.897   8.857   1.754  2.1136 -0.2633  0.7728
   19CHTO   O82 7616   6.881   8.765   1.747  0.8878  0.0352 -0.5129
   19CHTO  C123 7617   6.774   8.746   1.654 -0.3094 -0.3248 -0.3037
   19CHTO  H227 7618   6.796   8.805   1.564  0.5744 -1.3438 -0.7689
   19CHTO   O77 7619   6.768   8.601   1.641 -0.1777  0.2463 -0.4611
   19CHTO  C118 7620   6.684   8.564   1.532 -0.3706  0.4058  0.2830
   19CHTO  H222 7621   6.716   8.615   1.440  0.1298  1.1131  0.8345
   19CHTO  C125 7622   6.699   8.409   1.515  0.0986  0.4583 -0.6210
   19CHTO   O84 7623   6.600   8.352   1.423 -0.6987 -0.4837  0.0989
   19CHTO  H205 7624   6.628   8.363   1.334  2.1125 -0.5756  0.9268
   19CHTO  C114 7625   6.538   8.605   1.565 -0.5268 -0.6093 -0.0798
   19CHTO  H218 7626   6.511   8.560   1.661  0.6874 -0.9800  0.0936
   19CHTO  C116 7627   6.529   8.759   1.602  0.8023  1.0140 -0.0185
   19CHTO  H220 7628   6.537   8.823   1.511  0.1453 -0.3664 -1.0780
   19CHTO   O79 7629   6.390   8.781   1.636 -0.2459  0.0592 -0.2425
   19CHTO  H201 7630   6.390   8.837   1.711 -1.4224 -1.8357  1.2237
   19CHTO  C120 7631   6.639   8.791   1.715  0.1446 -0.1265  0.7882
   19CHTO  H224 7632   6.605   8.728   1.800 -0.4361  1.9790  2.1446
   19CHTO   N21 7633   6.638   8.930   1.760  0.1060 -0.0082  0.2682
   19CHTO  H211 7634   6.723   8.972   1.709  0.1845 -1.3871 -0.7722
   19CHTO  H212 7635   6.646   8.936   1.867  0.5672  0.3164  0.2185
   19CHTO   O75 7636   6.459   8.575   1.456  0.3897 -0.1980 -0.0890
   19CHTO  C112 7637   6.312   8.503   1.491  0.4808  0.2935 -0.1953
   19CHTO  H216 7638   6.248   8.569   1.552  0.4055 -0.2471  0.3218
   19CHTO   O73 7639   6.350   8.384   1.564 -0.1800 -0.1391 -0.4901
   19CHTO  C113 7640   6.234   8.316   1.621  0.2877 -0.2950  0.2949
   19CHTO  H217 7641   6.178   8.389   1.683 -1.3399 -1.1861 -0.0974
   19CHTO  C124 7642   6.281   8.198   1.705  0.4897 -0.6746  0.2993
   19CHTO   O83 7643   6.373   8.251   1.804 -0.0178 -1.1109  0.1799
   19CHTO  H204 7644   6.395   8.177   1.857  0.1332 -0.6081  0.8278
   19CHTO  C109 7645   6.150   8.265   1.507  0.1014  0.2415  0.6385
   19CHTO  H213 7646   6.209   8.192   1.451  0.3664  1.4011 -0.6297
   19CHTO  C110 7647   6.103   8.380   1.408  0.4102  0.4306  0.2679
   19CHTO  H214 7648   6.023   8.444   1.445  0.7775  0.2951  1.3170
   19CHTO   O78 7649   6.040   8.322   1.292  0.3072 -0.2114 -0.5239
   19CHTO  H200 7650   6.085   8.247   1.257  1.3963  0.0189  0.3361
   19CHTO  C111 7651   6.233   8.458   1.367 -0.6271  0.0765 -0.1388
   19CHTO  H215 7652   6.303   8.386   1.321 -1.6008 -0.8003 -0.2449
   19CHTO   N19 7653   6.221   8.573   1.270  0.0458  0.1523  0.8376
   19CHTO  H207 7654   6.161   8.554   1.182  0.0929  1.4607  0.5140
   19CHTO  H208 7655   6.176   8.653   1.327 -0.2168  0.1405  0.6481
   19CHTO   O74 7656   6.030   8.196   1.550 -0.4007 -0.1630 -0.2164
   19CHTO  C115 7657   5.981   8.062   1.457  0.3534  1.1532  0.3266
   19CHTO  H219 7658   5.924   8.095   1.370  3.2493  1.9436 -1.3469
   19CHTO   O76 7659   6.106   7.980   1.397 -0.9874 -0.2040 -0.1804
   19CHTO  C122 7660   6.144   7.860   1.465  0.0549  0.3421  0.2255
   19CHTO  H226 7661   6.201   7.896   1.551 -0.7414  2.8934 -0.2715
   19CHTO  C126 7662   6.242   7.776   1.372 -0.1550  0.3448 -1.1029
   19CHTO   O85 7663   6.300   7.662   1.442  0.7960 -0.4040  0.2447
   19CHTO  H206 7664   6.329   7.612   1.368  0.3789  0.6871 -0.6636
   19CHTO  C121 7665   6.027   7.758   1.504  0.0457 -0.8054 -0.7235
   19CHTO  H225 7666   6.036   7.669   1.439  0.2392 -0.7931 -0.7137
   19CHTO   O81 7667   6.040   7.716   1.640 -0.4388 -0.1633 -0.1976
   19CHTO  H202 7668   5.998   7.778   1.697 -0.6356  0.2824 -0.8167
   19CHTO  C119 7669   5.885   7.825   1.493  0.0188 -0.3147  0.4145
   19CHTO  H223 7670   5.859   7.828   1.388  0.6182 -0.7638  0.2520
   19CHTO  C117 7671   5.882   7.973   1.547 -0.3673  0.4430 -0.4817
   19CHTO  H221 7672   5.922   7.985   1.648  0.5348  0.8795 -0.8800
   19CHTO   N20 7673   5.755   8.041   1.550  0.1550  1.0060  0.5304
   19CHTO  H209 7674   5.702   8.049   1.457  1.5889 -0.7849 -0.4927
   19CHTO  H210 7675   5.703   8.010   1.640  0.5507  0.1743  0.4873
   19CHTO   O80 7676   5.770   7.735   1.555  0.2545 -0.0792 -0.3055
   19CHTO  C103 7677   5.751   7.572   1.508 -0.0365 -0.1114  0.4238
   19CHTO  H190 7678   5.832   7.535   1.445  1.2303  0.9864  1.3960
   19CHTO  C101 7679   5.727   7.479   1.633  0.2279  0.5974 -0.2977
   19CHTO  H188 7680   5.645   7.524   1.688 -0.2122  1.0421 -1.3050
   19CHTO   O68 7681   5.870   7.451   1.723 -0.1861  0.2035  0.6810
   19CHTO  H168 7682   5.924   7.390   1.677 -0.7460 -1.2336  1.8635
   19CHTO   C99 7683   5.690   7.329   1.584 -0.2411  0.1905 -0.7081
   19CHTO  H186 7684   5.767   7.278   1.522 -0.3715 -1.4007  0.4137
   19CHTO   N17 7685   5.656   7.236   1.687 -0.5925  0.3472  0.2023
   19CHTO  H174 7686   5.692   7.275   1.782  0.0478 -0.4643  0.3025
   19CHTO  H175 7687   5.551   7.220   1.704 -0.6922 -0.1547 -0.8659
   19CHTO   C97 7688   5.563   7.351   1.489 -0.0567 -0.0487  0.1041
   19CHTO  H184 7689   5.480   7.384   1.554 -0.1776 -0.9006  0.3835
   19CHTO   O64 7690   5.591   7.442   1.382 -0.6223 -0.1132 -0.3574
   19CHTO  C104 7691   5.626   7.579   1.414  0.0448 -0.7393  0.5187
   19CHTO  H191 7692   5.550   7.641   1.460  1.0663  0.2817  0.8533
   19CHTO  C108 7693   5.667   7.646   1.282  0.0711 -0.4582 -1.0469
   19CHTO   O71 7694   5.576   7.618   1.176  0.2296  0.4347 -0.0022
   19CHTO  H171 7695   5.491   7.651   1.198  0.6370  1.9246 -0.5974
   19CHTO   O62 7696   5.530   7.236   1.417  0.8740  0.0827 -0.1802
   19CHTO   C91 7697   5.401   7.175   1.404 -0.1373  0.6396 -0.2717
   19CHTO  H178 7698   5.337   7.213   1.483 -0.6406  0.9919 -0.8364
   19CHTO   C92 7699   5.416   7.024   1.437 -0.3963  0.5130 -0.0727
   19CHTO  H179 7700   5.510   6.983   1.396 -1.8200 -2.9545 -0.0261
   19CHTO   O66 7701   5.423   7.007   1.579 -0.5279 -0.2798 -0.2715
   19CHTO  H166 7702   5.408   6.920   1.610  1.4140 -0.9872 -1.1945
   19CHTO   C93 7703   5.299   6.939   1.377  0.4222  0.5852  0.3305
   19CHTO  H180 7704   5.202   6.965   1.423  0.9560  3.0931  0.1485
   19CHTO   N16 7705   5.320   6.792   1.402 -0.3804 -0.8242 -0.7018
   19CHTO  H172 7706   5.289   6.774   1.504 -0.0789 -0.6268 -0.5748
   19CHTO  H173 7707   5.255   6.738   1.334  0.0670 -0.6398 -1.2838
   19CHTO   C94 7708   5.298   6.976   1.225  1.1611  0.7591  0.0871
   19CHTO  H181 7709   5.396   6.966   1.180  0.3434  0.8141 -1.7414
   19CHTO   O61 7710   5.253   7.113   1.203 -0.4460  0.7636  0.1449
   19CHTO   C95 7711   5.323   7.217   1.267  0.4001  0.1089  0.0374
   19CHTO  H182 7712   5.402   7.257   1.202 -0.2321 -0.5294 -1.1495
   19CHTO  C106 7713   5.225   7.337   1.281 -0.1041  0.1631 -0.2553
   19CHTO   O69 7714   5.168   7.387   1.155  0.1935 -0.0213 -0.1238
   19CHTO  H169 7715   5.141   7.314   1.104 -3.1511  0.8697  0.2370
   19CHTO   O63 7716   5.188   6.883   1.147  0.2361  0.2481 -0.4852
   19CHTO   C96 7717   5.253   6.797   1.021 -0.1984  0.0521 -0.1556
   19CHTO  H183 7718   5.304   6.710   1.062  0.2497  1.0082  1.3457
   19CHTO   C98 7719   5.359   6.874   0.941 -0.2128  0.3393  0.4791
   19CHTO  H185 7720   5.425   6.934   1.006 -1.8774  2.3384  0.3683
   19CHTO   O67 7721   5.444   6.781   0.872 -0.1184  0.0073  0.6644
   19CHTO  H167 7722   5.527   6.823   0.855  0.7453 -1.1862  1.8267
   19CHTO  C102 7723   5.295   6.960   0.828 -0.5175 -0.1376 -0.4465
   19CHTO  H189 7724   5.377   6.992   0.761  1.0368 -0.4822  1.2644
   19CHTO   N18 7725   5.229   7.084   0.878 -0.2404 -0.8383 -0.0212
   19CHTO  H176 7726   5.166   7.061   0.963  0.1556 -0.2658  0.4331
   19CHTO  H177 7727   5.298   7.163   0.902 -2.0227  0.7987 -0.1505
   19CHTO  C105 7728   5.200   6.877   0.742  0.0653  0.1420 -0.3451
   19CHTO  H192 7729   5.111   6.936   0.720 -0.8292 -1.3311 -0.7488
   19CHTO   O65 7730   5.166   6.747   0.790 -0.1582  0.1676  0.2654
   19CHTO  C100 7731   5.138   6.737   0.932  0.3664 -0.0607  0.3858
   19CHTO  H187 7732   5.046   6.797   0.942  0.8052  0.6427  0.2456
   19CHTO  C107 7733   5.095   6.598   0.967 -0.5166  0.0060 -0.1541
   19CHTO   O70 7734   5.050   6.588   1.097 -0.4183 -0.5100 -0.1663
   19CHTO  H170 7735   5.006   6.506   1.110 -1.7780  0.0062 -1.3930
   19CHTO   O57 7736   5.286   6.864   0.607  0.0900  0.4293  0.0973
   19CHTO   C85 7737   5.213   6.823   0.490 -0.2543 -0.0164 -0.4069
   19CHTO  H157 7738   5.113   6.796   0.529 -0.3205  0.6813 -0.0826
   19CHTO   C83 7739   5.274   6.692   0.427  0.1488  0.4267  0.2001
   19CHTO  H155 7740   5.292   6.615   0.502  1.4103  0.3110 -0.2169
   19CHTO   O56 7741   5.409   6.708   0.372 -0.2569  0.4872  0.2863
   19CHTO  H135 7742   5.463   6.631   0.381  0.6871  1.2958  1.7453
   19CHTO   C81 7743   5.164   6.648   0.322 -0.3684 -0.1757 -0.6171
   19CHTO  H153 7744   5.069   6.650   0.374  0.6126  1.3682  1.1696
   19CHTO   N14 7745   5.185   6.513   0.268  0.2084  0.1023  0.4696
   19CHTO  H141 7746   5.141   6.442   0.335  1.5438 -0.0408  1.2228
   19CHTO  H142 7747   5.289   6.487   0.260  0.1661 -0.5913  1.9458
   19CHTO   C79 7748   5.151   6.753   0.208 -0.4238 -0.2081 -0.9935
   19CHTO  H151 7749   5.068   6.722   0.144  0.4263 -0.2370 -2.1041
   19CHTO   O52 7750   5.118   6.887   0.263  0.2181  0.3494 -0.0965
   19CHTO   C86 7751   5.199   6.934   0.375 -0.3655 -0.2982  0.9713
   19CHTO  H158 7752   5.300   6.951   0.333 -0.9275 -0.4466 -0.4634
   19CHTO   C90 7753   5.139   7.069   0.414  0.6847  0.0798 -0.5193
   19CHTO   O60 7754   5.217   7.132   0.521 -0.8711  0.2268  0.1809
   19CHTO  H138 7755   5.302   7.146   0.482  0.5133  1.1429  3.3618
   19CHTO   O50 7756   5.273   6.758   0.130 -0.2724  0.5027  0.1281
   19CHTO   C73 7757   5.345   6.771   0.006 -0.3951 -0.7674 -0.1560
   19CHTO  H145 7758   5.336   6.678  -0.052  0.5986 -1.3057  0.5355
   19CHTO   C74 7759   5.498   6.784   0.042 -0.0365  0.0780 -0.3556
   19CHTO  H146 7760   5.519   6.697   0.107 -0.3049 -0.8672 -1.5226
   19CHTO   O54 7761   5.571   6.782  -0.082  0.3715 -0.2933  0.2582
   19CHTO  H133 7762   5.577   6.694  -0.116  1.7851  0.1335 -0.6378
   19CHTO   C75 7763   5.514   6.919   0.124  0.7948 -0.1575  0.3956
   19CHTO  H147 7764   5.467   6.911   0.223  0.0581  2.0390  0.2576
   19CHTO   N13 7765   5.654   6.951   0.150 -0.0003 -0.1161  0.2380
   19CHTO  H139 7766   5.688   6.863   0.203  0.5702  0.9688  1.6933
   19CHTO  H140 7767   5.710   6.945   0.058  1.7986 -0.0877  1.3260
   19CHTO   C76 7768   5.447   7.043   0.035  0.2315 -0.1809 -0.8007
   19CHTO  H148 7769   5.510   7.056  -0.053 -0.6303  0.7610 -1.3026
   19CHTO   O49 7770   5.312   7.018  -0.012 -0.2523  0.2361 -0.1992
   19CHTO   C77 7771   5.290   6.892  -0.080  0.5122 -0.1829 -0.5078
   19CHTO  H149 7772   5.345   6.891  -0.174 -0.0118 -0.1988 -0.8138
   19CHTO   C88 7773   5.140   6.865  -0.112 -0.0078 -0.1565  1.0199
   19CHTO   O58 7774   5.093   6.975  -0.196  0.4245  0.4597 -0.4240
   19CHTO  H136 7775   5.135   7.054  -0.168  1.3976 -0.7661  1.7619
   19CHTO   O51 7776   5.448   7.174   0.137  0.0089 -0.8937 -0.3389
   19CHTO   C78 7777   5.438   7.308   0.068 -0.1845 -0.4556 -0.1725
   19CHTO  H150 7778   5.388   7.306  -0.031  2.4617  1.1610 -1.6171
   19CHTO   C80 7779   5.572   7.380   0.055  0.1557 -0.1376  0.3244
   19CHTO  H152 7780   5.634   7.362   0.145 -0.7507  1.9884  1.4011
   19CHTO   O55 7781   5.639   7.313  -0.050 -0.6633  0.3411  0.5277
   19CHTO  H134 7782   5.719   7.345  -0.086 -1.0003 -0.2428 -0.7780
   19CHTO   C84 7783   5.561   7.536   0.036 -0.8151  0.0604  0.1276
   19CHTO  H156 7784   5.530   7.541  -0.068  1.0471  0.5512 -0.4227
   19CHTO   N15 7785   5.693   7.604   0.048 -0.3180  0.0563  0.9186
   19CHTO  H143 7786   5.680   7.710   0.047 -0.0561  0.0929  1.2898
   19CHTO  H144 7787   5.762   7.575  -0.029  1.9577  0.1722  2.8620
   19CHTO   C87 7788   5.454   7.602   0.129  0.1417 -0.4187  0.3558
   19CHTO  H159 7789   5.492   7.597   0.231 -0.0958  2.2440  0.6254
   19CHTO   O53 7790   5.333   7.526   0.132  0.0988  0.0600 -0.1472
   19CHTO   C82 7791   5.347   7.383   0.166  0.4508 -0.2850 -0.1278
   19CHTO  H154 7792   5.382   7.367   0.268 -0.1799 -0.3233  0.0853
   19CHTO   C89 7793   5.194   7.340   0.165  0.1363  0.9549  0.3385
   19CHTO   O59 7794   5.120   7.399   0.277 -0.2882 -0.0872 -0.2952
   19CHTO  H137 7795   5.138   7.362   0.361 -1.1468 -0.8917 -0.4533
   19CHTO   O45 7796   5.445   7.785   0.090 -1.0427 -0.0802  0.2072
   19CHTO   C67 7797   5.311   7.832   0.128 -0.6532  0.2166 -0.4280
   19CHTO  H124 7798   5.244   7.758   0.172  0.8452 -2.0911 -1.9239
   19CHTO   C65 7799   5.325   7.953   0.227 -0.1155 -0.0326 -0.9431
   19CHTO  H122 7800   5.430   7.982   0.231  0.3009 -1.4587 -1.5124
   19CHTO   O44 7801   5.278   7.903   0.358 -0.6562 -0.1561  0.0948
   19CHTO  H102 7802   5.344   7.928   0.419  1.0719  0.6364 -2.0059
   19CHTO   C63 7803   5.257   8.083   0.181  0.4152 -0.1419 -0.4761
   19CHTO  H120 7804   5.301   8.120   0.088 -3.7821 -1.1026 -2.9832
   19CHTO   N11 7805   5.264   8.201   0.272  0.4890  0.2524  0.2245
   19CHTO  H108 7806   5.350   8.264   0.273  0.8694 -0.1957 -1.5656
   19CHTO  H109 7807   5.228   8.174   0.369  0.1993 -0.9402 -0.2082
   19CHTO   C61 7808   5.110   8.050   0.132 -0.0318 -0.4272 -0.3530
   19CHTO  H118 7809   5.064   8.143   0.094  2.2978  0.3547 -1.3481
   19CHTO   O40 7810   5.107   7.952   0.028 -0.6315 -0.4229  0.2232
   19CHTO   C68 7811   5.232   7.881   0.000  0.1290  0.5474 -0.0131
   19CHTO  H125 7812   5.304   7.943  -0.058  1.3537 -1.4783 -0.6872
   19CHTO   C72 7813   5.190   7.759  -0.090  0.1273  0.2219  0.6828
   19CHTO   O48 7814   5.296   7.666  -0.128  0.1920 -0.7035  0.5357
   19CHTO  H105 7815   5.336   7.631  -0.051  0.0138 -0.5417  0.7010
   19CHTO   O38 7816   5.028   7.986   0.232  0.2428 -0.4758  0.0402
   19CHTO   C55 7817   4.888   7.963   0.206 -0.1837  0.0196 -0.0395
   19CHTO  H112 7818   4.873   7.972   0.098 -0.2504  0.2253 -0.0138
   19CHTO   C56 7819   4.802   8.071   0.291  0.4113  0.2059 -0.0347
   19CHTO  H113 7820   4.817   8.050   0.398  0.7090  0.0279 -0.1114
   19CHTO   O42 7821   4.848   8.199   0.250  0.0561 -0.2504 -0.3084
   19CHTO  H100 7822   4.803   8.262   0.304  0.7482  0.3138 -0.3846
   19CHTO   C57 7823   4.645   8.051   0.254 -0.0389 -0.0868  0.8390
   19CHTO  H114 7824   4.636   8.089   0.153 -0.4022  0.3137  1.0217
   19CHTO   N10 7825   4.551   8.137   0.332  0.1393 -0.3356 -0.1428
   19CHTO  H106 7826   4.590   8.238   0.332  0.7985 -0.5856 -0.4864
   19CHTO  H107 7827   4.535   8.107   0.434 -2.3943 -0.0263 -0.4103
   19CHTO   C58 7828   4.606   7.897   0.266 -0.1144 -0.4612 -0.1144
   19CHTO  H115 7829   4.615   7.869   0.373  0.7969  1.1057  0.2380
   19CHTO   O37 7830   4.702   7.814   0.199 -0.5485 -0.1200 -0.5912
   19CHTO   C59 7831   4.838   7.821   0.249  0.0337 -0.1744  0.4218
   19CHTO  H116 7832   4.833   7.805   0.357 -0.8477 -1.3684  0.2180
   19CHTO   C70 7833   4.921   7.705   0.192  0.1122 -0.4276  0.5092
   19CHTO   O46 7834   5.022   7.653   0.283  0.0834  0.0053  0.1097
   19CHTO  H103 7835   4.989   7.603   0.355 -1.1013  1.0553  0.3090
   19CHTO   O39 7836   4.457   7.871   0.226 -0.2205  0.4630 -0.7910
   19CHTO   C60 7837   4.437   7.783   0.111 -0.6135  0.4878 -0.5194
   19CHTO  H117 7838   4.513   7.803   0.035 -0.1438 -0.1800 -0.2362
   19CHTO   C62 7839   4.445   7.632   0.151  0.9368 -0.1830 -0.0662
   19CHTO  H119 7840   4.543   7.609   0.197  0.4467 -1.2537  0.4648
   19CHTO   O43 7841   4.337   7.592   0.236 -0.7312  0.0241  0.4238
   19CHTO  H101 7842   4.353   7.610   0.327  0.7623  3.3324 -0.4103
   19CHTO   C66 7843   4.449   7.540   0.017  0.0554  0.5248  0.6086
   19CHTO  H123 7844   4.518   7.593  -0.048 -1.9008  2.0051 -0.3098
   19CHTO   N12 7845   4.492   7.400   0.044  0.0799  0.5469 -0.1621
   19CHTO  H110 7846   4.412   7.329   0.031  0.0745  0.3202  1.0719
   19CHTO  H111 7847   4.559   7.387   0.127 -0.1301 -0.7619 -0.1915
   19CHTO   C69 7848   4.308   7.546  -0.046  0.3947 -0.2791 -0.5387
   19CHTO  H126 7849   4.235   7.501   0.024  0.6946  0.7354  0.4472
   19CHTO   O41 7850   4.264   7.697  -0.065 -0.3290  0.3784 -0.2016
   19CHTO   C64 7851   4.301   7.807   0.041  0.9683 -0.6333  0.4511
   19CHTO  H121 7852   4.221   7.789   0.115  0.9208 -0.8084  0.3568
   19CHTO   C71 7853   4.270   7.947  -0.024 -0.0935 -0.1695 -0.1254
   19CHTO   O47 7854   4.366   7.977  -0.126 -0.2824 -0.3431  0.4413
   19CHTO  H104 7855   4.452   7.984  -0.088 -0.6605 -1.8134  1.5891
   19CHTO   O34 7856   4.310   7.465  -0.199 -0.2701 -0.1839  0.4144
   19CHTO   C49 7857   4.271   7.460  -0.343 -0.6693  0.6810 -0.0868
   19CHTO   H91 7858   4.173   7.508  -0.343 -0.6286  0.7949  1.6793
   19CHTO   C47 7859   4.260   7.312  -0.392 -0.2337 -0.1389 -0.7536
   19CHTO   H89 7860   4.196   7.324  -0.482 -0.2546  2.5693 -0.4062
   19CHTO   O33 7861   4.185   7.235  -0.294 -0.3764  0.0780 -0.0271
   19CHTO   H70 7862   4.181   7.145  -0.320  2.2233 -0.0400 -0.2211
   19CHTO   C45 7863   4.400   7.240  -0.427  0.0454 -0.1619  0.2548
   19CHTO   H87 7864   4.413   7.162  -0.350  0.7484  0.4889  0.8060
   19CHTO    N8 7865   4.392   7.178  -0.560  0.2741 -0.3973 -0.0228
   19CHTO   H75 7866   4.291   7.145  -0.578  0.4828  0.2582 -2.6886
   19CHTO   H76 7867   4.461   7.098  -0.583  0.7369 -0.2414  0.7891
   19CHTO   C43 7868   4.519   7.337  -0.401  0.6789 -0.5369 -0.5061
   19CHTO   H85 7869   4.523   7.347  -0.292  2.2055  1.1159 -0.6910
   19CHTO   O29 7870   4.497   7.466  -0.463  0.1532 -0.0881  0.7177
   19CHTO   C50 7871   4.371   7.533  -0.429  0.3463  0.5550  0.3709
   19CHTO   H92 7872   4.411   7.620  -0.375 -0.8783  0.1567  1.9570
   19CHTO   C54 7873   4.322   7.588  -0.567  0.7042  0.1715  0.9084
   19CHTO   O36 7874   4.199   7.668  -0.571 -0.2829 -0.2888  0.3436
   19CHTO   H72 7875   4.198   7.739  -0.510  0.1285 -0.6877  0.8237
   19CHTO   O27 7876   4.644   7.277  -0.430 -0.1716 -0.3372 -0.0805
   19CHTO   C37 7877   4.784   7.275  -0.439 -0.1049 -0.1779 -0.7548
   19CHTO   H79 7878   4.824   7.174  -0.456  1.3095  0.5590 -1.8891
   19CHTO   C38 7879   4.822   7.368  -0.553 -0.8544 -0.2076 -0.3908
   19CHTO   H80 7880   4.791   7.470  -0.526  0.8216  0.5749 -1.3588
   19CHTO   O31 7881   4.754   7.323  -0.672 -0.0243 -0.3040 -0.4324
   19CHTO   H68 7882   4.759   7.229  -0.676 -2.9593 -0.4533 -1.3858
   19CHTO   C39 7883   4.977   7.375  -0.568 -0.5470 -0.8917 -0.4690
   19CHTO   H81 7884   5.014   7.274  -0.589  1.9929 -0.3070  1.0156
   19CHTO    N7 7885   5.027   7.465  -0.680 -0.0473 -0.7938 -0.0838
   19CHTO   H73 7886   5.040   7.566  -0.643 -1.9688 -0.2691 -0.8003
   19CHTO   H74 7887   4.959   7.470  -0.763  0.9578  1.0641 -0.8133
   19CHTO   C40 7888   5.054   7.409  -0.428 -0.5881 -0.4832 -0.3405
   19CHTO   H82 7889   5.035   7.513  -0.399 -2.5718 -0.7320 -0.6560
   19CHTO   O26 7890   5.005   7.320  -0.329  0.0973 -0.6427 -0.3512
   19CHTO   C41 7891   4.859   7.327  -0.311  1.1553 -0.6134 -0.0012
   19CHTO   H83 7892   4.826   7.431  -0.300  1.5927 -0.3683 -0.9976
   19CHTO   C52 7893   4.836   7.246  -0.184 -0.4690  0.3133 -0.1903
   19CHTO   O35 7894   4.871   7.320  -0.060  0.1416  0.0724  0.4451
   19CHTO   H71 7895   4.825   7.298   0.018  2.4164  1.0417  2.1308
   19CHTO   O28 7896   5.191   7.360  -0.447 -0.1031 -0.0885 -0.0074
   19CHTO   C42 7897   5.311   7.419  -0.400  0.4176 -0.2012 -0.4579
   19CHTO   H84 7898   5.290   7.442  -0.296 -1.5320 -2.0543 -0.4141
   19CHTO   C44 7899   5.358   7.552  -0.474 -0.5218 -0.0098 -0.0614
   19CHTO   H86 7900   5.344   7.536  -0.581  0.1418 -2.9902  0.2623
   19CHTO   O32 7901   5.256   7.649  -0.457 -0.3124  0.6136  0.1676
   19CHTO   H69 7902   5.180   7.640  -0.512  0.9627  2.9889 -2.1190
   19CHTO   C48 7903   5.497   7.608  -0.429 -0.4933  0.2945  0.5051
   19CHTO   H90 7904   5.501   7.639  -0.325 -1.8175  1.1076  0.3131
   19CHTO    N9 7905   5.527   7.725  -0.519 -0.5879  0.0518  1.0762
   19CHTO   H77 7906   5.502   7.704  -0.622  1.7852  0.9780  0.2810
   19CHTO   H78 7907   5.632   7.753  -0.517 -0.1154 -1.4803 -0.8356
   19CHTO   C51 7908   5.606   7.494  -0.455 -0.2194  0.1958 -0.3631
   19CHTO   H93 7909   5.603   7.465  -0.560  0.3024  2.4589 -1.0344
   19CHTO   O30 7910   5.574   7.383  -0.366  0.3143  0.3636  0.0838
   19CHTO   C46 7911   5.434   7.313  -0.399 -0.9573  0.3241  0.6188
   19CHTO   H88 7912   5.447   7.278  -0.501 -0.9353 -1.4884  1.2184
   19CHTO   C53 7913   5.409   7.190  -0.307  0.1892 -0.8295 -0.5267
   19CHTO   O72 7914   5.510   7.095  -0.343  0.0531 -0.3546 -0.0087
   19CHTO  H199 7915   5.469   7.039  -0.406 -1.3887 -0.4291  0.9630
   19CHTO   O22 7916   5.741   7.526  -0.408  0.1629 -0.5554 -0.3597
   19CHTO   C31 7917   5.860   7.478  -0.471 -0.4018 -0.1564 -0.6469
   19CHTO   H59 7918   5.820   7.419  -0.557 -0.9407  1.2202 -1.3556
   19CHTO   C29 7919   5.952   7.589  -0.530  0.3977 -0.7013  0.1103
   19CHTO   H57 7920   5.993   7.651  -0.449  0.2085 -0.3755 -0.0460
   19CHTO   O21 7921   5.876   7.677  -0.613  0.0985  0.7347  0.0958
   19CHTO   H37 7922   5.831   7.735  -0.556  0.8239  1.8216 -0.4178
   19CHTO   C27 7923   6.074   7.532  -0.617  0.2132  0.3109  0.1500
   19CHTO   H55 7924   6.027   7.488  -0.706 -1.5685 -1.5563  1.9714
   19CHTO    N5 7925   6.168   7.641  -0.660 -0.4581  0.0160  0.1288
   19CHTO   H43 7926   6.263   7.647  -0.609 -0.1429 -2.2633 -0.1147
   19CHTO   H44 7927   6.180   7.641  -0.768  1.5232  0.8265  0.3162
   19CHTO   C25 7928   6.150   7.420  -0.537  0.4434  0.1870 -0.8736
   19CHTO   H53 7929   6.210   7.466  -0.457  0.6297  0.5326 -1.2069
   19CHTO   O17 7930   6.052   7.330  -0.476 -0.1288 -0.5569  0.4674
   19CHTO   C32 7931   5.956   7.393  -0.385 -0.3000  0.0383 -0.1372
   19CHTO   H60 7932   6.011   7.458  -0.318 -1.1602  0.0930  0.5226
   19CHTO   C36 7933   5.881   7.280  -0.309 -0.0531 -0.7336 -0.3292
   19CHTO   O25 7934   5.776   7.211  -0.371 -0.7193 -0.3731  0.6635
   19CHTO   H40 7935   5.785   7.206  -0.464 -0.5630 -3.0502  0.7786
   19CHTO   O15 7936   6.246   7.333  -0.634  0.1842 -0.4568 -0.3035
   19CHTO   C19 7937   6.356   7.253  -0.582 -0.6922 -0.3521 -0.0215
   19CHTO   H47 7938   6.409   7.329  -0.522 -0.6182  0.5439 -1.2071
   19CHTO   C20 7939   6.313   7.133  -0.495  0.5718  0.0900  0.4774
   19CHTO   H48 7940   6.234   7.075  -0.546  1.3283  1.2596 -2.1326
   19CHTO   O19 7941   6.254   7.182  -0.370  0.2431  0.0147 -0.2618
   19CHTO   H35 7942   6.306   7.160  -0.295 -0.2060 -0.0340  0.0354
   19CHTO   C21 7943   6.435   7.032  -0.468  0.7019 -0.5653 -0.4630
   19CHTO   H49 7944   6.505   7.081  -0.400  1.1453 -1.7429 -0.0694
   19CHTO    N4 7945   6.394   6.914  -0.386 -0.7061 -0.6688  0.0784
   19CHTO   H41 7946   6.408   6.817  -0.433 -1.3232 -0.4502 -0.5566
   19CHTO   H42 7947   6.441   6.923  -0.290 -2.1388  0.5878  0.6789
   19CHTO   C22 7948   6.517   7.000  -0.597 -0.5420  0.1926 -0.7585
   19CHTO   H50 7949   6.447   6.944  -0.660 -1.0627  0.3675 -0.3371
   19CHTO   O14 7950   6.559   7.127  -0.645  0.6955 -0.0115  0.2958
   19CHTO   C23 7951   6.457   7.211  -0.697 -0.3879  0.5861  0.4045
   19CHTO   H51 7952   6.410   7.147  -0.773 -1.5390  0.7920  0.9318
   19CHTO   C34 7953   6.533   7.334  -0.756 -0.2170 -0.0515 -0.1291
   19CHTO   O23 7954   6.441   7.412  -0.828  0.6447  0.6466 -0.4609
   19CHTO   H38 7955   6.450   7.423  -0.921 -2.0915 -0.5580 -0.9122
   19CHTO   O16 7956   6.632   6.928  -0.580  0.3624  0.0973 -0.3010
   19CHTO   C24 7957   6.694   6.831  -0.712  0.1332  0.3859  0.1954
   19CHTO   H52 7958   6.787   6.782  -0.685 -0.2031  0.8115  2.2044
   19CHTO   C26 7959   6.718   6.922  -0.835  0.1963 -0.3737  0.6291
   19CHTO   H54 7960   6.627   6.980  -0.860 -0.5019 -1.7383 -0.0170
   19CHTO   O20 7961   6.815   7.015  -0.789 -0.0136 -0.2272  0.2057
   19CHTO   H36 7962   6.829   7.082  -0.852 -0.5422  1.7200  2.0964
   19CHTO   C30 7963   6.772   6.847  -0.961 -0.0530 -0.1207  0.0314
   19CHTO   H58 7964   6.877   6.817  -0.944  0.0751 -0.7744 -1.7623
   19CHTO    N6 7965   6.767   6.937  -1.079 -0.5515  0.6813  0.4888
   19CHTO   H45 7966   6.666   6.964  -1.109 -0.9591 -0.8165  0.4817
   19CHTO   H46 7967   6.817   6.888  -1.160 -1.4907  1.9212 -0.8600
   19CHTO   C33 7968   6.691   6.716  -0.985  0.0839  0.3324 -0.3745
   19CHTO   H61 7969   6.596   6.751  -1.026 -0.5209 -0.3988  0.3774
   19CHTO   O18 7970   6.667   6.645  -0.857 -0.2884  0.3887 -0.0710
   19CHTO   C28 7971   6.594   6.715  -0.757  0.1356 -0.7230 -0.3058
   19CHTO   H56 7972   6.502   6.762  -0.794  0.4394  1.6196  1.7549
   19CHTO   C35 7973   6.567   6.615  -0.635 -0.0953 -0.0180  0.5878
   19CHTO   O24 7974   6.483   6.505  -0.660 -0.2514 -0.6715  0.4632
   19CHTO   H39 7975   6.509   6.434  -0.605  1.5278 -0.0648  0.4506
   19CHTO    O9 7976   6.744   6.621  -1.082  0.5310  0.0038 -0.0712
   19CHTO   C13 7977   6.689   6.483  -1.105  0.1867  0.1027  0.0700
   19CHTO   H26 7978   6.740   6.454  -1.200  0.0164 -0.8561  0.2640
   19CHTO   C11 7979   6.533   6.465  -1.118 -0.5287 -0.0891 -0.3695
   19CHTO   H24 7980   6.516   6.509  -1.217 -0.5780 -0.8047 -0.6825
   19CHTO    O8 7981   6.464   6.535  -1.013  0.0841  0.1520  0.0038
   19CHTO    H3 7982   6.400   6.478  -0.975 -1.5716  1.6896 -0.4612
   19CHTO    C9 7983   6.508   6.315  -1.117  0.7490  0.1065  0.3624
   19CHTO   H22 7984   6.588   6.271  -1.179  0.7285 -0.0960  0.4803
   19CHTO    N2 7985   6.377   6.274  -1.178 -0.0417 -0.9368  0.0129
   19CHTO   H10 7986   6.297   6.344  -1.163  0.7221  0.1233 -0.7708
   19CHTO   H11 7987   6.396   6.261  -1.284  0.0326 -1.8857  0.1390
   19CHTO    C7 7988   6.539   6.264  -0.963  0.4579  0.9535  0.0539
   19CHTO   H20 7989   6.567   6.159  -0.982  1.2873  1.3250 -0.8048
   19CHTO    O4 7990   6.648   6.327  -0.903 -0.1099 -0.1193  0.5392
   19CHTO   C14 7991   6.743   6.380  -1.002  0.2235 -0.2740  0.2905
   19CHTO   H27 7992   6.779   6.290  -1.055  0.6042  1.0347 -1.7262
   19CHTO   C18 7993   6.866   6.433  -0.930 -0.3076 -0.2864 -0.3124
   19CHTO   O13 7994   6.926   6.324  -0.862 -0.4237 -0.7329 -0.0057
   19CHTO    H7 7995   6.878   6.314  -0.782 -0.8391 -0.9677 -0.2810
   19CHTO    O2 7996   6.406   6.277  -0.850  0.2053  0.5352 -0.1236
   19CHTO    C1 7997   6.343   6.161  -0.798 -0.7264 -0.4423  0.5128
   19CHTO   H14 7998   6.424   6.097  -0.757 -0.5642 -0.4416  0.1931
   19CHTO    C2 7999   6.259   6.069  -0.897  0.1560 -0.4386 -0.4677
   19CHTO   H15 8000   6.183   6.131  -0.947 -0.5276 -2.0323 -1.4259
   19CHTO    O6 8001   6.332   6.012  -1.005  0.3554  0.3984  0.2762
   19CHTO    H1 8002   6.280   5.953  -1.056  0.5807  1.1288 -0.8233
   19CHTO    C3 8003   6.191   5.942  -0.813 -0.8861  0.6375  0.0280
   19CHTO   H16 8004   6.265   5.862  -0.803 -0.1224  1.1997 -1.0943
   19CHTO    N1 8005   6.085   5.878  -0.894 -0.1772 -0.1620  0.4145
   19CHTO    H8 8006   6.108   5.892  -0.998  0.9544  1.0641  0.8107
   19CHTO    H9 8007   5.986   5.916  -0.874 -0.7244 -0.9927 -0.7068
   19CHTO    C4 8008   6.136   5.972  -0.669 -0.3994  0.1599  0.0970
   19CHTO   H17 8009   6.036   6.012  -0.685 -0.1261  0.0891 -1.9204
   19CHTO    O1 8010   6.219   6.073  -0.604 -0.6737 -0.1592 -0.1158
   19CHTO    C5 8011   6.254   6.192  -0.671 -0.0444  0.4700 -0.0730
   19CHTO   H18 8012   6.163   6.240  -0.707 -1.0531  0.3919  2.2789
   19CHTO   C16 8013   6.318   6.279  -0.555 -0.3790  0.3033  0.3154
   19CHTO   O11 8014   6.210   6.341  -0.487  0.6094 -0.2865 -0.7887
   19CHTO    H5 8015   6.239   6.393  -0.414  0.0616 -2.9824  1.4597
   19CHTO    O3 8016   6.147   5.856  -0.586 -0.1662  1.2166  0.3897
   19CHTO    C6 8017   6.039   5.831  -0.487  0.7018 -0.0539  0.8696
   19CHTO   H19 8018   5.992   5.923  -0.452 -0.1113  0.4418 -1.4772
   19CHTO    C8 8019   5.930   5.748  -0.546 -0.0634  0.0388  0.0003
   19CHTO   H21 8020   5.975   5.657  -0.586  0.7956 -0.1103  1.2933
   19CHTO    O7 8021   5.871   5.825  -0.652 -0.3409  0.4594  0.2743
   19CHTO    H2 8022   5.781   5.799  -0.653 -0.2258  0.0697 -0.3776
   19CHTO   C12 8023   5.832   5.711  -0.429  0.9403  0.2466  0.5971
   19CHTO   H25 8024   5.782   5.806  -0.402  0.6650 -0.1517  1.5486
   19CHTO    N3 8025   5.736   5.610  -0.487 -0.1907 -0.0479 -0.4608
   19CHTO   H12 8026   5.700   5.556  -0.401  1.6509  0.5844  0.7458
   19CHTO   H13 8027   5.648   5.665  -0.517  1.4901  2.6133 -0.6653
   19CHTO   C15 8028   5.909   5.657  -0.297 -0.9726 -0.7582  0.7044
   19CHTO   H28 8029   5.954   5.558  -0.308  0.1044 -0.2511  0.4198
   19CHTO   O10 8030   5.817   5.659  -0.166 -0.9700 -1.1063  0.4988
   19CHTO    H4 8031   5.805   5.569  -0.141 -0.3223 -0.3949  3.5709
   19CHTO    O5 8032   6.019   5.747  -0.265  0.7564 -0.6261 -0.5046
   19CHTO   C10 8033   6.111   5.775  -0.369 -0.8362 -0.2266 -0.5505
   19CHTO   H23 8034   6.162   5.683  -0.398  3.0075  0.6124  3.0882
   19CHTO   C17 8035   6.228   5.875  -0.324  0.6876 -0.7887 -0.7239
   19CHTO   O12 8036   6.173   5.993  -0.258 -0.1104  0.5022  0.1280
   19CHTO    H6 8037   6.241   6.043  -0.216  0.2841  0.5436 -0.5582
   20CHTO  H203 8038   5.562   1.838   6.812 -0.2308 -0.2092  1.4143
   20CHTO   O82 8039   5.472   1.845   6.789  0.1113  0.6274  0.2740
   20CHTO  C123 8040   5.426   1.978   6.816  0.3495 -0.3442 -0.1636
   20CHTO  H227 8041   5.478   2.046   6.748  0.8797 -0.2974  0.2867
   20CHTO   O77 8042   5.282   1.988   6.777 -0.7155 -0.5093 -0.3609
   20CHTO  C118 8043   5.201   2.106   6.798  0.2902  1.2066  0.3161
   20CHTO  H222 8044   5.247   2.184   6.735 -2.4601  0.0839 -3.2617
   20CHTO  C125 8045   5.062   2.068   6.743 -0.3497 -0.0136 -0.4701
   20CHTO   O84 8046   5.018   1.963   6.824 -0.6409  0.1042 -0.4214
   20CHTO  H205 8047   4.980   1.998   6.903 -1.6681 -0.8172 -0.4899
   20CHTO  C114 8048   5.202   2.160   6.943 -0.5301  0.1133 -0.4924
   20CHTO  H218 8049   5.149   2.089   7.005 -1.4445 -0.0006 -1.3862
   20CHTO  C116 8050   5.359   2.167   6.986 -0.3688  0.1358 -0.1235
   20CHTO  H220 8051   5.410   2.243   6.923 -1.1543  0.6608 -0.1367
   20CHTO   O79 8052   5.362   2.224   7.119  0.0806 -0.1881  0.1961
   20CHTO  H201 8053   5.435   2.282   7.123 -2.3804  3.1745 -0.9603
   20CHTO  C120 8054   5.427   2.025   6.968 -0.1685 -0.3330 -0.1622
   20CHTO  H224 8055   5.362   1.957   7.026 -0.8946 -0.6978 -1.3786
   20CHTO   N21 8056   5.568   2.015   7.019 -0.5452  0.2498 -0.2179
   20CHTO  H211 8057   5.577   1.911   7.048 -2.3922 -0.1582 -1.0572
   20CHTO  H212 8058   5.626   2.044   6.933  0.3233 -2.2614 -0.5280
   20CHTO   O75 8059   5.126   2.281   6.933 -0.3361  0.0470 -0.0097
   20CHTO  C112 8060   5.201   2.417   6.886  0.2321 -0.0791 -0.3112
   20CHTO  H216 8061   5.286   2.402   6.818 -0.1140 -0.5056 -0.6541
   20CHTO   O73 8062   5.238   2.486   7.003  0.5970  0.5813 -0.2474
   20CHTO  C113 8063   5.326   2.593   6.966  0.2930 -0.0060 -0.9518
   20CHTO  H217 8064   5.408   2.558   6.901  2.0359  0.0757  1.1472
   20CHTO  C124 8065   5.378   2.644   7.094  0.5167 -0.4653 -0.0227
   20CHTO   O83 8066   5.463   2.556   7.157 -0.2230  0.0353  0.1219
   20CHTO  H204 8067   5.436   2.561   7.247 -2.8079  0.0718 -0.5976
   20CHTO  C109 8068   5.243   2.706   6.892  0.1895 -0.1944  0.2103
   20CHTO  H213 8069   5.164   2.737   6.962 -1.4475 -2.5491 -0.5067
   20CHTO  C110 8070   5.170   2.636   6.771 -0.1553 -0.0504 -0.1558
   20CHTO  H214 8071   5.241   2.613   6.691  0.1721 -0.7405  0.3251
   20CHTO   O78 8072   5.087   2.732   6.712  0.1723 -0.1388 -0.3549
   20CHTO  H200 8073   5.123   2.818   6.714 -3.5816  1.4961  0.4203
   20CHTO  C111 8074   5.093   2.505   6.812  1.0628 -0.0312 -0.5193
   20CHTO  H215 8075   5.017   2.534   6.887  0.3261  1.4375 -1.7980
   20CHTO   N19 8076   5.022   2.428   6.704  0.3792  0.1169  0.0620
   20CHTO  H207 8077   4.967   2.345   6.745  1.9358 -0.3594  1.2700
   20CHTO  H208 8078   4.960   2.497   6.649 -1.3227 -0.8403  0.7408
   20CHTO   O74 8079   5.317   2.819   6.844  0.3457 -0.1477  0.2056
   20CHTO  C115 8080   5.223   2.965   6.837 -0.3657  0.1253 -0.0483
   20CHTO  H219 8081   5.117   2.943   6.826 -0.3770 -0.1212  0.5690
   20CHTO   O76 8082   5.234   3.042   6.963  0.9152  0.2327  0.7079
   20CHTO  C122 8083   5.370   3.055   6.997 -0.3492  0.2034 -0.4038
   20CHTO  H226 8084   5.412   2.958   7.024 -0.3274 -0.2885 -2.1384
   20CHTO  C126 8085   5.389   3.141   7.118  0.2075 -0.7463  0.0772
   20CHTO   O85 8086   5.365   3.284   7.097 -0.0333 -0.0688 -0.3255
   20CHTO  H206 8087   5.373   3.326   7.181  0.0148 -0.6214 -0.0505
   20CHTO  C121 8088   5.453   3.110   6.869 -0.3844 -0.6797 -0.1437
   20CHTO  H225 8089   5.519   3.194   6.898 -1.2152 -0.4420  1.0860
   20CHTO   O81 8090   5.547   3.004   6.835 -0.1614 -0.2806 -0.4300
   20CHTO  H202 8091   5.597   2.980   6.910 -0.6162 -0.6713 -0.2504
   20CHTO  C119 8092   5.368   3.159   6.746  0.4681 -0.4300  0.5632
   20CHTO  H223 8093   5.323   3.248   6.788  0.0748  0.2329 -1.2152
   20CHTO  C117 8094   5.260   3.055   6.712 -0.1945  0.6869  0.4337
   20CHTO  H221 8095   5.294   2.981   6.640 -1.2641  2.7518 -2.2539
   20CHTO   N20 8096   5.141   3.112   6.647 -0.0226  0.0071 -0.1694
   20CHTO  H209 8097   5.050   3.098   6.705 -0.8208  0.5453 -1.2658
   20CHTO  H210 8098   5.155   3.203   6.591 -1.4603  0.4850  0.2282
   20CHTO   O80 8099   5.457   3.221   6.623 -0.4298  0.2993  0.4570
   20CHTO  C103 8100   5.487   3.380   6.617 -0.4353 -0.5448 -0.1094
   20CHTO  H190 8101   5.397   3.438   6.636 -0.3797 -0.0812 -1.2943
   20CHTO  C101 8102   5.595   3.435   6.729 -0.4344 -0.0941  0.0368
   20CHTO  H188 8103   5.684   3.374   6.743  2.2890  3.1412 -2.3959
   20CHTO   O68 8104   5.531   3.444   6.863  0.0287 -0.3155 -0.4240
   20CHTO  H168 8105   5.577   3.401   6.932  0.2938 -0.4520 -0.6870
   20CHTO   C99 8106   5.642   3.583   6.687  0.5752 -0.2378  0.2098
   20CHTO  H186 8107   5.559   3.656   6.694  0.5895 -0.4273  3.2189
   20CHTO   N17 8108   5.753   3.632   6.778  0.4392 -0.3921 -0.4711
   20CHTO  H174 8109   5.815   3.707   6.731  0.6073  0.3337  0.8942
   20CHTO  H175 8110   5.805   3.555   6.833  1.5845 -1.0286 -2.3926
   20CHTO   C97 8111   5.677   3.579   6.539 -0.1086 -0.0699 -0.6370
   20CHTO  H184 8112   5.758   3.508   6.518  0.1335  0.2300 -0.7176
   20CHTO   O64 8113   5.560   3.543   6.464  0.1603 -0.1460 -0.4071
   20CHTO  C104 8114   5.531   3.403   6.469 -0.3643  0.3250 -0.2273
   20CHTO  H191 8115   5.606   3.329   6.442  0.2423  0.3807  1.3207
   20CHTO  C108 8116   5.414   3.377   6.375  0.2253  0.0810  0.4329
   20CHTO   O71 8117   5.470   3.401   6.243 -0.0000 -0.1122  0.0801
   20CHTO  H171 8118   5.520   3.325   6.219 -0.7999 -0.4413 -0.5648
   20CHTO   O62 8119   5.706   3.710   6.485 -0.5008 -0.3839 -0.7093
   20CHTO   C91 8120   5.781   3.710   6.362  0.2087  0.1172  0.1498
   20CHTO  H178 8121   5.790   3.609   6.322 -0.9131  0.1282 -0.1694
   20CHTO   C92 8122   5.923   3.780   6.375 -0.6947 -0.0540  0.3867
   20CHTO  H179 8123   5.922   3.885   6.406 -0.8491  0.3660 -1.0323
   20CHTO   O66 8124   5.990   3.715   6.484  0.1651 -0.3655  0.3420
   20CHTO  H166 8125   6.060   3.770   6.515 -0.9301  0.9406  0.5234
   20CHTO   C93 8126   6.006   3.778   6.246 -0.6525  0.4653  0.3219
   20CHTO  H180 8127   6.027   3.672   6.227 -0.6275  0.4303  0.5434
   20CHTO   N16 8128   6.137   3.855   6.253  0.0036 -0.1080 -0.4794
   20CHTO  H172 8129   6.144   3.907   6.347  1.3283 -0.0658 -0.5875
   20CHTO  H173 8130   6.134   3.935   6.180  1.8129 -0.5662 -1.0700
   20CHTO   C94 8131   5.922   3.833   6.129  0.0646  0.6535  0.5114
   20CHTO  H181 8132   5.899   3.939   6.134 -1.2855  0.4792 -1.2043
   20CHTO   O61 8133   5.785   3.776   6.115 -0.0877  0.4265  0.5850
   20CHTO   C95 8134   5.715   3.784   6.237 -0.9292  0.1743 -0.7072
   20CHTO  H182 8135   5.704   3.889   6.263  2.2885  0.2763  0.5050
   20CHTO  C106 8136   5.567   3.740   6.217  0.2837 -0.5529 -0.1231
   20CHTO   O69 8137   5.503   3.825   6.123  0.2406  0.1485 -0.1661
   20CHTO  H169 8138   5.453   3.885   6.175 -1.0954  0.5664 -1.8704
   20CHTO   O63 8139   5.987   3.804   5.984  0.2489 -0.0414  0.3398
   20CHTO   C96 8140   5.993   3.662   5.931 -0.6062  1.3703  0.7273
   20CHTO  H183 8141   6.001   3.591   6.013  0.0691 -0.9473 -1.2958
   20CHTO   C98 8142   6.118   3.646   5.843  1.0791 -0.0448  0.1286
   20CHTO  H185 8143   6.204   3.685   5.900  1.5330  0.6802 -1.0239
   20CHTO   O67 8144   6.143   3.507   5.814 -0.2840  0.2072 -0.1836
   20CHTO  H167 8145   6.229   3.475   5.830 -0.0813  2.2390  3.3157
   20CHTO  C102 8146   6.113   3.717   5.694 -1.0329 -0.0324 -0.0746
   20CHTO  H189 8147   6.163   3.652   5.621 -4.7348 -0.6459 -2.1282
   20CHTO   N18 8148   6.186   3.845   5.690 -0.0086 -0.8341  0.2185
   20CHTO  H176 8149   6.202   3.873   5.793  2.9266 -1.8210  0.0831
   20CHTO  H177 8150   6.134   3.926   5.642 -1.0194 -1.1614  0.7672
   20CHTO  C105 8151   5.966   3.732   5.639  0.4737 -0.0156 -0.6576
   20CHTO  H192 8152   5.922   3.827   5.671  1.2109  1.0567 -2.7543
   20CHTO   O65 8153   5.890   3.631   5.695 -0.5760  0.6421  0.2702
   20CHTO  C100 8154   5.864   3.634   5.838 -0.0091  0.1779 -0.6505
   20CHTO  H187 8155   5.780   3.703   5.853 -1.5632 -1.8876  0.3620
   20CHTO  C107 8156   5.802   3.497   5.865 -0.5297  0.4881  0.3915
   20CHTO   O70 8157   5.720   3.495   5.988 -0.3584 -0.0603 -0.3795
   20CHTO  H170 8158   5.772   3.441   6.045  0.4749  0.5104 -0.6022
   20CHTO   O57 8159   5.966   3.710   5.478  0.5429  0.0356 -0.4268
   20CHTO   C85 8160   5.855   3.740   5.396  0.1234  0.0326  0.3123
   20CHTO  H157 8161   5.801   3.817   5.454  2.7504  1.4049  1.0072
   20CHTO   C83 8162   5.739   3.639   5.401  0.5758 -0.6909  0.6706
   20CHTO  H155 8163   5.709   3.634   5.506 -2.0297  3.3878  0.2278
   20CHTO   O56 8164   5.788   3.500   5.379  0.1066 -0.0691  0.3517
   20CHTO  H135 8165   5.858   3.467   5.431 -0.1682 -1.8137 -0.3358
   20CHTO   C81 8166   5.611   3.684   5.313  0.2737 -0.4490  0.3267
   20CHTO  H153 8167   5.573   3.778   5.354  0.1599  0.4304 -1.7655
   20CHTO   N14 8168   5.495   3.593   5.317  0.5425  0.3856  0.3351
   20CHTO  H141 8169   5.483   3.549   5.220  1.8815 -1.5643  1.0352
   20CHTO  H142 8170   5.406   3.647   5.344  0.1685 -0.4539  0.7874
   20CHTO   C79 8171   5.663   3.710   5.172 -0.1948  0.2584  0.1739
   20CHTO  H151 8172   5.580   3.746   5.112 -1.5689 -1.6903  0.8828
   20CHTO   O52 8173   5.763   3.823   5.171 -0.7856  0.0342 -0.4378
   20CHTO   C86 8174   5.883   3.785   5.237  0.2324 -0.1576 -0.0049
   20CHTO  H158 8175   5.933   3.703   5.181  0.6004 -0.8843  1.3766
   20CHTO   C90 8176   5.980   3.901   5.242  0.6520 -0.3094  0.5743
   20CHTO   O60 8177   6.105   3.864   5.286 -0.2311  0.2834  0.1935
   20CHTO  H138 8178   6.107   3.834   5.374  0.3172  1.2262  0.5090
   20CHTO   O50 8179   5.698   3.591   5.104  0.3370  0.4557  0.4087
   20CHTO   C73 8180   5.712   3.539   4.969 -0.1453 -0.4285 -0.1155
   20CHTO  H145 8181   5.801   3.586   4.925 -0.8645  1.1335  0.0560
   20CHTO   C74 8182   5.582   3.572   4.881  0.8369 -0.5385  0.1053
   20CHTO  H146 8183   5.564   3.680   4.891  3.6359 -0.0585  0.2712
   20CHTO   O54 8184   5.621   3.556   4.746  0.3783 -0.3559  0.3282
   20CHTO  H133 8185   5.551   3.557   4.684  0.2785 -1.5112  0.4060
   20CHTO   C75 8186   5.455   3.485   4.923 -0.1949  0.8728 -0.6941
   20CHTO  H147 8187   5.423   3.511   5.024  0.0031 -1.0418 -0.1097
   20CHTO   N13 8188   5.331   3.501   4.841 -0.6831 -0.0252 -0.3228
   20CHTO  H139 8189   5.320   3.603   4.806  2.5415  0.3019 -0.5675
   20CHTO  H140 8190   5.241   3.484   4.898 -0.0085 -1.5889  0.3065
   20CHTO   C76 8191   5.508   3.335   4.928  0.0471  0.1702  0.4286
   20CHTO  H148 8192   5.532   3.312   4.824  0.9082 -0.1346  0.6963
   20CHTO   O49 8193   5.613   3.311   5.013  0.7115 -0.3081  0.8041
   20CHTO   C77 8194   5.727   3.381   4.971 -0.8981 -0.3810  0.0688
   20CHTO  H149 8195   5.755   3.353   4.869 -0.4733  2.4297 -0.6491
   20CHTO   C88 8196   5.846   3.347   5.055 -0.7285 -0.0574  0.0240
   20CHTO   O58 8197   5.868   3.186   5.104 -0.4657 -0.5168 -0.3919
   20CHTO  H136 8198   5.807   3.155   5.168 -0.0956 -1.5444 -0.5206
   20CHTO   O51 8199   5.374   3.231   4.977 -0.1972 -0.3559  0.4555
   20CHTO   C78 8200   5.413   3.107   5.046  0.0384  0.1649 -0.2428
   20CHTO  H150 8201   5.506   3.114   5.106  0.7112 -1.1737 -1.1048
   20CHTO   C80 8202   5.440   2.992   4.944  0.4273  0.5197 -0.1625
   20CHTO  H152 8203   5.346   2.964   4.890  0.3437  1.0534 -0.2883
   20CHTO   O55 8204   5.527   3.044   4.847 -0.1563 -0.3665  0.4696
   20CHTO  H134 8205   5.528   2.988   4.772  0.6447  1.5302 -0.9659
   20CHTO   C84 8206   5.495   2.862   5.019 -0.1324 -0.3039  0.1208
   20CHTO  H156 8207   5.588   2.892   5.067  0.4378 -2.7076  0.5965
   20CHTO   N15 8208   5.524   2.744   4.926  0.0817  0.6654  0.0888
   20CHTO  H143 8209   5.487   2.771   4.829  0.1803 -3.9729 -1.3432
   20CHTO  H144 8210   5.473   2.654   4.955  2.1366 -1.6085 -3.0078
   20CHTO   C87 8211   5.389   2.829   5.130 -0.3964 -0.0626 -0.9885
   20CHTO  H159 8212   5.301   2.794   5.076  0.5848 -1.4743 -1.7017
   20CHTO   O53 8213   5.356   2.948   5.219 -0.1541 -0.2130  0.5518
   20CHTO   C82 8214   5.307   3.062   5.149  0.2670  0.1887  0.1816
   20CHTO  H154 8215   5.226   3.028   5.085  0.4030 -3.7776  1.9952
   20CHTO   C89 8216   5.253   3.168   5.250 -0.6366 -0.0082  0.2966
   20CHTO   O59 8217   5.204   3.287   5.191 -0.1033  0.4894  0.3324
   20CHTO  H137 8218   5.115   3.285   5.163 -0.1682  0.9792  0.5079
   20CHTO   O45 8219   5.444   2.713   5.217 -0.8119  0.2659  0.5779
   20CHTO   C67 8220   5.370   2.662   5.327  0.6546 -0.2624 -0.2637
   20CHTO  H124 8221   5.341   2.746   5.390 -1.0280 -1.4206  0.5239
   20CHTO   C65 8222   5.232   2.593   5.281  0.6772 -0.1715 -0.5818
   20CHTO  H122 8223   5.251   2.561   5.178  0.3481  0.0781 -0.7219
   20CHTO   O44 8224   5.129   2.690   5.273 -0.0796  0.3040  0.6508
   20CHTO  H102 8225   5.053   2.664   5.322  0.6601 -0.8889  1.1823
   20CHTO   C63 8226   5.212   2.458   5.364  0.3413 -0.5146 -1.1267
   20CHTO  H120 8227   5.294   2.390   5.340  1.1923 -0.5781  1.7687
   20CHTO   N11 8228   5.092   2.373   5.330  0.9623 -0.1108 -0.5720
   20CHTO  H108 8229   5.016   2.438   5.292 -0.1815 -0.4225  1.1230
   20CHTO  H109 8230   5.123   2.294   5.266 -0.9358 -0.3819 -1.1906
   20CHTO   C61 8231   5.228   2.492   5.514 -0.3187  0.1994  0.5129
   20CHTO  H118 8232   5.214   2.391   5.557 -1.7471 -0.6901 -1.9256
   20CHTO   O40 8233   5.366   2.528   5.541  0.8821 -0.0893 -0.0708
   20CHTO   C68 8234   5.453   2.567   5.424 -0.0217 -0.7063  0.0651
   20CHTO  H125 8235   5.493   2.475   5.377 -1.1769 -1.0150 -0.3283
   20CHTO   C72 8236   5.569   2.650   5.471  0.3021  0.0780  0.8776
   20CHTO   O48 8237   5.645   2.584   5.572  0.5349 -0.2093  0.3322
   20CHTO  H105 8238   5.588   2.564   5.643 -0.3792  1.3047  0.0518
   20CHTO   O38 8239   5.130   2.578   5.568 -0.3342 -0.1089  0.3554
   20CHTO   C55 8240   5.119   2.582   5.714 -0.3632  0.3680  0.0542
   20CHTO  H112 8241   5.211   2.543   5.761 -1.4034 -1.2733  0.7633
   20CHTO   C56 8242   4.990   2.502   5.762 -0.2152  0.0845 -0.5777
   20CHTO  H113 8243   4.898   2.539   5.713 -0.0657  0.6579 -0.4213
   20CHTO   O42 8244   5.006   2.360   5.727 -0.1356  0.8402 -0.5418
   20CHTO  H100 8245   5.027   2.348   5.636 -1.5859  0.4751 -0.8380
   20CHTO   C57 8246   4.962   2.518   5.910 -0.4437  0.2819 -0.2039
   20CHTO  H114 8247   5.050   2.476   5.959  1.0550  1.1905 -2.0228
   20CHTO   N10 8248   4.844   2.458   5.969 -0.5456  0.5807 -0.3941
   20CHTO  H106 8249   4.850   2.422   6.071  2.7035  1.2172 -0.3283
   20CHTO  H107 8250   4.786   2.389   5.909 -1.1877 -0.9057  1.8407
   20CHTO   C58 8251   4.964   2.669   5.937  0.2281  0.3351 -0.2963
   20CHTO  H115 8252   4.884   2.719   5.878  1.9839  0.9593 -2.2653
   20CHTO   O37 8253   5.085   2.737   5.897 -0.4717  0.2081  0.0948
   20CHTO   C59 8254   5.114   2.730   5.755 -0.3623  0.3519 -0.5474
   20CHTO  H116 8255   5.039   2.793   5.707 -1.4703 -0.0254  0.6714
   20CHTO   C70 8256   5.241   2.805   5.718 -0.1808 -0.2425  0.0359
   20CHTO   O46 8257   5.343   2.786   5.809  0.2602  0.2911 -0.3931
   20CHTO  H103 8258   5.314   2.764   5.895 -2.6831 -1.3179 -1.7496
   20CHTO   O39 8259   4.942   2.707   6.111  0.3289 -0.1013 -0.1173
   20CHTO   C60 8260   4.926   2.848   6.133  0.2554  0.6699  0.2181
   20CHTO  H117 8261   5.016   2.896   6.094 -1.2777  2.7368 -0.8879
   20CHTO   C62 8262   4.803   2.912   6.050 -0.6770  0.2790  0.0611
   20CHTO  H119 8263   4.826   2.898   5.942  3.4790  0.5042  0.8295
   20CHTO   O43 8264   4.689   2.836   6.086 -0.0797  0.3650  0.6725
   20CHTO  H101 8265   4.611   2.888   6.090  0.3335  1.2243 -1.8304
   20CHTO   C66 8266   4.789   3.069   6.082  0.3208 -0.3356  1.1616
   20CHTO  H123 8267   4.880   3.119   6.048  1.4696 -2.9675  0.2376
   20CHTO   N12 8268   4.683   3.125   5.996  0.6060 -0.5113 -0.2586
   20CHTO  H110 8269   4.672   3.227   6.028 -0.1365 -0.6809  0.0367
   20CHTO  H111 8270   4.700   3.128   5.889  0.5464  1.8090 -0.2299
   20CHTO   C69 8271   4.780   3.107   6.233  0.6381  0.3608 -0.0429
   20CHTO  H126 8272   4.683   3.079   6.277 -0.3583  2.7951 -0.6209
   20CHTO   O41 8273   4.916   3.031   6.314 -0.1557  0.3785  0.6064
   20CHTO   C64 8274   4.921   2.880   6.285  0.3239  0.0629 -0.1175
   20CHTO  H121 8275   4.829   2.839   6.331  0.0842  0.4930 -0.2150
   20CHTO   C71 8276   5.054   2.816   6.344  0.4918 -0.0744  0.6988
   20CHTO   O47 8277   5.073   2.676   6.322 -0.2568 -0.1541 -0.0176
   20CHTO  H104 8278   4.988   2.641   6.303 -0.2604  0.7737 -1.8236
   20CHTO   O34 8279   4.786   3.268   6.237  0.9270 -0.1001  0.2663
   20CHTO   C49 8280   4.814   3.393   6.321 -0.2406 -0.1706 -0.2612
   20CHTO   H91 8281   4.731   3.411   6.390 -0.2145 -1.0106 -0.0010
   20CHTO   C47 8282   4.828   3.518   6.225 -0.6166 -1.0792  0.2057
   20CHTO   H89 8283   4.834   3.609   6.288 -2.6511 -1.9346  1.6624
   20CHTO   O33 8284   4.711   3.520   6.140  0.5172  0.3468 -0.6315
   20CHTO   H70 8285   4.677   3.603   6.115 -1.3004  0.0914  0.8675
   20CHTO   C45 8286   4.967   3.510   6.129 -0.1120 -0.0226  0.6044
   20CHTO   H87 8287   4.935   3.470   6.032 -1.0092 -0.7571  1.1955
   20CHTO    N8 8288   5.021   3.644   6.103  0.4925 -0.0896  0.5389
   20CHTO   H75 8289   4.953   3.714   6.149 -2.1687 -1.9675 -0.3670
   20CHTO   H76 8290   5.031   3.682   6.003 -0.9242  0.3807  0.5532
   20CHTO   C43 8291   5.068   3.398   6.178 -0.9458 -0.2558  0.2134
   20CHTO   H85 8292   5.025   3.301   6.152  0.3658 -0.4683 -1.2123
   20CHTO   O29 8293   5.078   3.416   6.323 -0.0988  0.2383  0.3737
   20CHTO   C50 8294   4.959   3.378   6.399 -0.4115 -0.0607 -0.6407
   20CHTO   H92 8295   4.977   3.272   6.424 -2.5415 -0.3622 -0.2922
   20CHTO   C54 8296   4.945   3.465   6.531 -1.0304 -0.1928  0.1504
   20CHTO   O36 8297   4.947   3.609   6.520 -0.0905  0.1540 -0.1324
   20CHTO   H72 8298   5.031   3.643   6.495  0.4522 -1.3955 -0.4254
   20CHTO   O27 8299   5.193   3.398   6.113 -0.8208  0.0363 -0.3970
   20CHTO   C37 8300   5.241   3.350   5.984  0.6422 -0.0360  1.1481
   20CHTO   H79 8301   5.154   3.344   5.918  1.4951 -0.7724  0.0725
   20CHTO   C38 8302   5.351   3.443   5.918 -0.5800 -0.3243  0.4590
   20CHTO   H80 8303   5.443   3.443   5.978 -0.2572 -1.5028 -0.0205
   20CHTO   O31 8304   5.306   3.579   5.914 -0.6965  0.6515 -0.4738
   20CHTO   H68 8305   5.273   3.603   5.829  0.0954 -0.8250 -1.2357
   20CHTO   C39 8306   5.381   3.387   5.779  0.9992 -0.1420  0.0905
   20CHTO   H81 8307   5.297   3.386   5.710 -1.4991  0.7990  2.9712
   20CHTO    N7 8308   5.488   3.467   5.709 -0.3112  0.4618  0.6243
   20CHTO   H73 8309   5.457   3.567   5.684  0.4949  0.1794 -1.5823
   20CHTO   H74 8310   5.513   3.407   5.623  0.1521  0.3175  0.8531
   20CHTO   C40 8311   5.440   3.236   5.802 -0.4883 -0.3430  0.1445
   20CHTO   H82 8312   5.536   3.249   5.854 -0.6129 -1.0283  0.5502
   20CHTO   O26 8313   5.354   3.152   5.874 -0.2191  0.3770  0.9023
   20CHTO   C41 8314   5.306   3.203   6.000  0.0020 -0.0919  0.0976
   20CHTO   H83 8315   5.380   3.212   6.080 -0.7523  0.2970  0.7568
   20CHTO   C52 8316   5.204   3.094   6.051  0.2306  0.4581  0.4479
   20CHTO   O35 8317   5.269   2.954   6.061  0.3884  0.1579  0.5319
   20CHTO   H71 8318   5.295   2.935   5.973  1.5015  0.8400  0.7008
   20CHTO   O28 8319   5.451   3.165   5.678 -0.2996 -0.0676  0.2206
   20CHTO   C42 8320   5.580   3.094   5.649 -0.2679 -0.5550  0.1555
   20CHTO   H84 8321   5.541   3.004   5.601 -1.2129 -0.8739  1.4975
   20CHTO   C44 8322   5.672   3.041   5.762  0.0143 -0.7797 -0.1136
   20CHTO   H86 8323   5.703   3.123   5.826 -1.0608 -1.0202  0.7118
   20CHTO   O32 8324   5.585   2.954   5.835  0.2005  0.3230 -0.4954
   20CHTO   H69 8325   5.640   2.909   5.896  1.4514  1.6940 -0.5560
   20CHTO   C48 8326   5.799   2.966   5.708 -0.6561 -0.0891 -0.0469
   20CHTO   H90 8327   5.771   2.889   5.636  0.4380  0.0035 -0.5891
   20CHTO    N9 8328   5.877   2.903   5.814  0.6861 -0.5185  0.5989
   20CHTO   H77 8329   5.913   2.974   5.887  0.0386  0.2313  0.2014
   20CHTO   H78 8330   5.823   2.822   5.860 -1.4405  1.2290  1.2788
   20CHTO   C51 8331   5.886   3.065   5.618 -0.2962  0.3362  0.0536
   20CHTO   H93 8332   5.902   3.159   5.670 -1.0708  0.1434  0.6445
   20CHTO   O30 8333   5.801   3.077   5.508  0.6979  0.0315 -0.0407
   20CHTO   C46 8334   5.670   3.165   5.542  0.1419 -0.1494  0.1938
   20CHTO   H88 8335   5.686   3.267   5.576 -1.0718  0.1827 -0.1932
   20CHTO   C53 8336   5.585   3.173   5.416 -0.9635 -0.2258 -0.4637
   20CHTO   O72 8337   5.661   3.218   5.304 -0.2883 -0.8329 -0.2701
   20CHTO  H199 8338   5.737   3.164   5.296  0.4800  0.4044 -1.8659
   20CHTO   O22 8339   6.002   3.012   5.555  0.4485 -0.2515 -0.3279
   20CHTO   C31 8340   6.129   3.098   5.536 -0.0586  0.2020 -0.6640
   20CHTO   H59 8341   6.203   3.043   5.474 -0.4079  0.3882 -1.2480
   20CHTO   C29 8342   6.090   3.232   5.456 -0.4042 -0.3945 -0.5885
   20CHTO   H57 8343   6.025   3.296   5.519 -0.1987  0.1979 -0.9833
   20CHTO   O21 8344   6.021   3.192   5.341  0.2308  0.7383 -0.0375
   20CHTO   H37 8345   6.044   3.260   5.281  0.8382  2.3868  2.0330
   20CHTO   C27 8346   6.223   3.314   5.427  0.3507 -0.3273 -0.2178
   20CHTO   H55 8347   6.281   3.250   5.359 -0.4425 -0.9333 -0.3293
   20CHTO    N5 8348   6.200   3.448   5.361 -0.5937 -0.4347 -0.1100
   20CHTO   H43 8349   6.246   3.531   5.412 -2.5758  0.3798  0.4094
   20CHTO   H44 8350   6.191   3.450   5.253 -0.8154  0.0176 -0.0827
   20CHTO   C25 8351   6.300   3.334   5.564  0.2099 -0.0131 -0.1326
   20CHTO   H53 8352   6.236   3.393   5.631 -1.5509  0.2664 -2.0556
   20CHTO   O17 8353   6.328   3.210   5.624  0.0546  0.0311 -0.3359
   20CHTO   C32 8354   6.202   3.146   5.665 -0.5092 -0.7007  0.0845
   20CHTO   H60 8355   6.132   3.210   5.719  0.2361 -0.3335  0.6243
   20CHTO   C36 8356   6.239   3.022   5.742 -0.5087 -0.5547  0.2345
   20CHTO   O25 8357   6.314   3.047   5.864  0.2668 -0.4838  0.2756
   20CHTO   H40 8358   6.406   3.058   5.847  0.0093  0.4972 -0.5486
   20CHTO   O15 8359   6.446   3.412   5.546  0.8434  0.0544 -0.4213
   20CHTO   C19 8360   6.554   3.461   5.633  0.3099 -0.1654 -0.0115
   20CHTO   H47 8361   6.622   3.496   5.554 -1.0732 -1.2409 -1.7342
   20CHTO   C20 8362   6.512   3.576   5.734 -0.2146 -0.4706  0.5595
   20CHTO   H48 8363   6.424   3.551   5.795 -0.1742 -0.5445  0.5864
   20CHTO   O19 8364   6.472   3.686   5.654 -0.4006 -0.4776 -0.2406
   20CHTO   H35 8365   6.466   3.766   5.703 -0.9072 -0.3471 -0.5077
   20CHTO   C21 8366   6.636   3.616   5.824  0.2884 -0.3856  0.5325
   20CHTO   H49 8367   6.714   3.656   5.760  0.2336 -0.4048  0.4529
   20CHTO    N4 8368   6.594   3.719   5.922  0.6476 -0.7816  0.2602
   20CHTO   H41 8369   6.648   3.811   5.907 -0.8859  0.0792 -0.0720
   20CHTO   H42 8370   6.614   3.678   6.020  0.1316 -2.2330 -0.2152
   20CHTO   C22 8371   6.705   3.489   5.882 -0.1252 -0.1968 -0.3436
   20CHTO   H50 8372   6.636   3.444   5.952  1.3728 -1.7661  0.1710
   20CHTO   O14 8373   6.736   3.395   5.777  0.2619  0.5644  0.2379
   20CHTO   C23 8374   6.627   3.345   5.699  0.3983  0.5762 -0.6828
   20CHTO   H51 8375   6.564   3.283   5.766  0.2070  1.8957  0.3805
   20CHTO   C34 8376   6.681   3.243   5.591 -0.2817 -0.4493  1.0851
   20CHTO   O23 8377   6.752   3.133   5.646  0.1286 -0.3083 -0.1086
   20CHTO   H38 8378   6.702   3.099   5.717 -0.8320  0.6212 -0.3263
   20CHTO   O16 8379   6.830   3.512   5.947 -0.3948  0.2965 -0.4594
   20CHTO   C24 8380   6.858   3.381   6.051 -0.8941 -0.8516 -0.1704
   20CHTO   H52 8381   6.793   3.296   6.027 -1.0868 -0.8066  0.1779
   20CHTO   C26 8382   6.815   3.421   6.195  0.0896  0.4333  0.4708
   20CHTO   H54 8383   6.886   3.500   6.229  1.5521 -1.3501  1.6133
   20CHTO   O20 8384   6.678   3.473   6.198  0.3401  0.1691 -0.8486
   20CHTO   H36 8385   6.641   3.458   6.283  0.3431  0.6838 -0.7569
   20CHTO   C30 8386   6.831   3.297   6.283  0.6275  0.1216  0.0526
   20CHTO   H58 8387   6.766   3.214   6.251  2.0366 -0.4773 -1.3667
   20CHTO    N6 8388   6.791   3.323   6.426  0.8826  0.5271 -0.3697
   20CHTO   H45 8389   6.733   3.239   6.460 -0.5756  0.4794 -2.8720
   20CHTO   H46 8390   6.877   3.340   6.489 -0.8208  1.0416  1.8835
   20CHTO   C33 8391   6.973   3.226   6.270  0.1065 -0.7986 -0.3542
   20CHTO   H61 8392   7.040   3.284   6.335 -1.8667  0.1478  0.9105
   20CHTO   O18 8393   7.034   3.224   6.137 -0.1738 -0.0807 -0.1569
   20CHTO   C28 8394   7.007   3.337   6.054  0.2794  0.3801 -0.1878
   20CHTO   H56 8395   7.062   3.423   6.091 -0.5809 -0.7049  3.8614
   20CHTO   C35 8396   7.052   3.302   5.908  0.9022  1.2287 -0.2488
   20CHTO   O24 8397   6.973   3.196   5.850 -0.1298 -0.3494  0.3175
   20CHTO   H39 8398   7.007   3.117   5.888 -0.6272 -0.9902 -0.5316
   20CHTO    O9 8399   6.964   3.093   6.329 -0.3779 -0.1363  0.4481
   20CHTO   C13 8400   7.011   2.955   6.225  0.0642  0.1734  0.0360
   20CHTO   H26 8401   7.121   2.957   6.212  0.2920 -3.1884  0.8029
   20CHTO   C11 8402   6.931   2.953   6.094  0.1020 -0.8198  0.3595
   20CHTO   H24 8403   6.954   3.041   6.032 -2.8257  0.6393  1.2423
   20CHTO    O8 8404   6.792   2.968   6.114  0.3267 -0.3560  0.0275
   20CHTO    H3 8405   6.757   2.919   6.186  1.4002 -1.5453 -0.2471
   20CHTO    C9 8406   6.957   2.823   6.016 -0.3253 -0.2334  0.6496
   20CHTO   H22 8407   7.067   2.814   6.007 -0.4147 -0.6215 -0.0324
   20CHTO    N2 8408   6.914   2.842   5.876  0.0222  0.6263  0.5306
   20CHTO   H10 8409   6.808   2.862   5.871 -0.3576 -1.1310  1.1430
   20CHTO   H11 8410   6.936   2.749   5.827 -0.9775  0.0584  1.1362
   20CHTO    C7 8411   6.910   2.699   6.095 -0.2635 -0.1229  0.5029
   20CHTO   H20 8412   6.986   2.622   6.071 -0.2577  0.3237 -0.9764
   20CHTO    O4 8413   6.893   2.720   6.235 -0.4502 -0.0443  0.2420
   20CHTO   C14 8414   6.981   2.815   6.304 -0.4469  0.0762  0.2510
   20CHTO   H27 8415   7.079   2.766   6.324 -0.8046 -0.9136 -0.3736
   20CHTO   C18 8416   6.920   2.847   6.449  0.2274 -0.7889  0.1370
   20CHTO   O13 8417   6.777   2.877   6.443  0.4112  0.3156 -0.5511
   20CHTO    H7 8418   6.721   2.802   6.454  0.2984  0.3876 -0.6299
   20CHTO    O2 8419   6.774   2.649   6.033  0.6831 -0.0945  0.1555
   20CHTO    C1 8420   6.665   2.615   6.119  1.1075  0.0160 -0.0353
   20CHTO   H14 8421   6.659   2.666   6.217  1.2646  1.9338 -0.9957
   20CHTO    C2 8422   6.657   2.455   6.140 -0.0314  0.4770 -0.0820
   20CHTO   H15 8423   6.678   2.409   6.042 -2.0076  0.9555 -0.7443
   20CHTO    O6 8424   6.765   2.430   6.229  0.1674  0.1071 -0.6914
   20CHTO    H1 8425   6.844   2.421   6.179  0.1081 -0.8527 -0.6246
   20CHTO    C3 8426   6.507   2.403   6.197  0.4158 -0.5307 -0.3350
   20CHTO   H16 8427   6.492   2.434   6.301 -1.0661  1.8634 -1.2105
   20CHTO    N1 8428   6.494   2.257   6.207 -0.5083  0.2380 -0.6279
   20CHTO    H8 8429   6.584   2.219   6.253 -0.2538 -1.5462 -2.5217
   20CHTO    H9 8430   6.400   2.229   6.251  0.4332 -0.6181  0.9009
   20CHTO    C4 8431   6.387   2.463   6.124  0.1008  0.1025 -0.3736
   20CHTO   H17 8432   6.370   2.413   6.028  0.1485 -1.2764  0.3138
   20CHTO    O1 8433   6.417   2.606   6.116  0.5753  0.1114 -0.6621
   20CHTO    C5 8434   6.529   2.649   6.033 -0.3808 -0.0137 -0.4809
   20CHTO   H18 8435   6.540   2.588   5.944 -1.7926  1.3472 -1.6089
   20CHTO   C16 8436   6.507   2.797   6.002  0.1954 -0.4337 -0.3971
   20CHTO   O11 8437   6.589   2.850   5.903  0.8599  0.9127 -0.3500
   20CHTO    H5 8438   6.615   2.939   5.920 -2.9324  2.1719 -0.6479
   20CHTO    O3 8439   6.274   2.454   6.211  0.6967 -0.3419 -0.2185
   20CHTO    C6 8440   6.142   2.442   6.143 -0.5885  0.6659  0.3272
   20CHTO   H19 8441   6.150   2.473   6.038 -0.3996  0.1917  0.1988
   20CHTO    C8 8442   6.086   2.297   6.148  0.0787 -0.7187 -0.1777
   20CHTO   H21 8443   6.104   2.259   6.249 -0.6410 -2.0676 -0.5523
   20CHTO    O7 8444   6.162   2.223   6.051  0.1900  0.3452  0.0085
   20CHTO    H2 8445   6.141   2.133   6.063 -1.1518  0.4388 -1.4564
   20CHTO   C12 8446   5.929   2.298   6.122  0.3464  0.3524  0.3765
   20CHTO   H25 8447   5.901   2.313   6.016  1.4378  1.4984  0.2418
   20CHTO    N3 8448   5.868   2.161   6.145  0.4352  0.3017 -0.4795
   20CHTO   H12 8449   5.760   2.158   6.143  0.3706  2.0672 -0.4268
   20CHTO   H13 8450   5.920   2.115   6.227  1.0114 -1.9251 -2.0528
   20CHTO   C15 8451   5.857   2.409   6.211 -0.3580 -0.0487  0.0087
   20CHTO   H28 8452   5.853   2.376   6.314 -0.7882  1.2709  0.4234
   20CHTO   O10 8453   5.709   2.439   6.175 -0.1576  0.4796  0.8011
   20CHTO    H4 8454   5.696   2.431   6.083  2.1385  1.6399  0.3236
   20CHTO    O5 8455   5.913   2.540   6.202  0.3296  0.0960  0.3131
   20CHTO   C10 8456   6.055   2.549   6.214 -0.1145 -0.2329  0.3074
   20CHTO   H23 8457   6.084   2.554   6.319  1.2605 -2.6694  0.0829
   20CHTO   C17 8458   6.092   2.686   6.153  0.5866  0.3324 -0.1176
   20CHTO   O12 8459   6.055   2.806   6.223 -0.7117  0.2334  0.1290
   20CHTO    H6 8460   6.134   2.828   6.270 -0.1152 -0.0940 -0.6956
   21GLOH   H03 8461   8.794   1.766   0.108  0.5803 -0.0786 -0.1272
   21GLOH    O1 8462   8.792   1.725   0.019  0.0685 -0.0281 -0.1388
   21GLOH    C1 8463   8.761   1.582   0.025 -0.5168  0.3777  0.5782
   21GLOH   H02 8464   8.758   1.548  -0.078  0.0821  2.0273 -0.0035
   21GLOH   H08 8465   8.663   1.582   0.073 -0.5426  1.2600  0.5454
   21GLOH    C2 8466   8.862   1.508   0.106 -0.2253 -0.0871  0.4877
   21GLOH   H04 8467   8.957   1.552   0.075 -0.2413 -0.1305  0.3723
   21GLOH    O2 8468   8.840   1.531   0.243 -1.1569 -0.1139  0.1995
   21GLOH   H05 8469   8.836   1.626   0.267  0.5804 -0.3469  1.4807
   21GLOH    C3 8470   8.848   1.357   0.062 -0.3798 -0.1814 -0.1932
   21GLOH   H06 8471   8.749   1.326   0.097  0.1883 -0.7793  0.9254
   21GLOH   H07 8472   8.917   1.285   0.105 -1.1445 -0.3929  0.6939
   21GLOH    O3 8473   8.849   1.334  -0.081  0.1904  0.2940 -0.0344
   21GLOH   H01 8474   8.924   1.382  -0.121  1.9590 -3.1231 -1.0243
   22GLOH   H03 8475   8.429   7.317   3.099  0.8673  0.3099 -0.3085
   22GLOH    O1 8476   8.481   7.398   3.083  0.4369  0.6127 -0.1809
   22GLOH    C1 8477   8.536   7.431   3.210  0.3345 -0.0566  0.2174
   22GLOH   H02 8478   8.614   7.358   3.233 -1.2876 -1.6667  0.7462
   22GLOH   H08 8479   8.468   7.412   3.293  1.3241 -2.6383  0.4988
   22GLOH    C2 8480   8.589   7.575   3.223  1.0967 -0.9028  0.0336
   22GLOH   H04 8481   8.652   7.598   3.136  2.0805  0.7405  1.1610
   22GLOH    O2 8482   8.469   7.656   3.225  0.1728  0.4920  0.1251
   22GLOH   H05 8483   8.438   7.665   3.133 -0.5339 -0.7339  0.2339
   22GLOH    C3 8484   8.669   7.587   3.350 -0.2517 -0.1545  0.0146
   22GLOH   H06 8485   8.670   7.691   3.380 -0.0120 -0.0913 -0.2160
   22GLOH   H07 8486   8.772   7.568   3.320 -0.8660 -2.3132 -0.8819
   22GLOH    O3 8487   8.626   7.496   3.456 -0.0831  0.1124 -0.2372
   22GLOH   H01 8488   8.537   7.522   3.485  0.4365  0.3891  1.1678
   23GLOH   H03 8489   7.800   7.996   5.887 -1.1658  0.6560  0.2639
   23GLOH    O1 8490   7.739   7.922   5.905 -0.4570  0.1536  0.5931
   23GLOH    C1 8491   7.620   7.982   5.958  0.6304  0.0392 -0.3235
   23GLOH   H02 8492   7.584   8.070   5.906  0.8398  0.0337 -0.4764
   23GLOH   H08 8493   7.628   8.012   6.063 -0.9315  3.7640 -1.1826
   23GLOH    C2 8494   7.497   7.888   5.946 -0.6219  0.5355 -0.4632
   23GLOH   H04 8495   7.401   7.934   5.976 -1.2829 -1.3871  0.4341
   23GLOH    O2 8496   7.478   7.844   5.813 -0.3930 -0.0351  0.3853
   23GLOH   H05 8497   7.508   7.911   5.749  0.9050 -0.3870  0.6018
   23GLOH    C3 8498   7.525   7.766   6.041  0.5610  0.2220  0.6323
   23GLOH   H06 8499   7.456   7.686   6.016 -0.3357  1.5135 -1.2295
   23GLOH   H07 8500   7.499   7.792   6.143  0.1863  1.8274  0.1474
   23GLOH    O3 8501   7.662   7.723   6.025  0.7976 -0.3546 -0.5261
   23GLOH   H01 8502   7.699   7.789   5.964  1.2353  0.8424  0.9758
   24GLOH   H03 8503   0.757   3.174   6.764  2.0564  0.4733 -1.7897
   24GLOH    O1 8504   0.702   3.122   6.702 -0.6428  0.1265  0.7452
   24GLOH    C1 8505   0.705   2.987   6.753 -0.0848 -0.0367  0.1535
   24GLOH   H02 8506   0.683   2.992   6.859  0.5158  1.9035  0.2155
   24GLOH   H08 8507   0.805   2.943   6.748  0.8087  1.7864  1.2704
   24GLOH    C2 8508   0.615   2.889   6.680 -0.1440 -0.4177  0.1524
   24GLOH   H04 8509   0.632   2.893   6.571 -2.4562  0.5824 -0.2152
   24GLOH    O2 8510   0.645   2.748   6.718 -0.2007 -0.1764  0.3990
   24GLOH   H05 8511   0.609   2.730   6.807  0.9089  1.0759  1.1265
   24GLOH    C3 8512   0.463   2.930   6.694 -0.4143 -0.5873 -0.0948
   24GLOH   H06 8513   0.422   2.860   6.621  3.6014 -0.8132 -2.2844
   24GLOH   H07 8514   0.451   3.030   6.654 -0.1858 -1.1772 -1.6745
   24GLOH    O3 8515   0.417   2.917   6.825  0.2532  0.1141 -0.7399
   24GLOH   H01 8516   0.446   2.829   6.857 -0.9275 -0.2976 -0.7525
   25GLOH   H03 8517   5.379   1.134   3.938  0.4026 -1.4523  2.9493
   25GLOH    O1 8518   5.417   1.059   3.890  0.1165  0.1332  0.1270
   25GLOH    C1 8519   5.455   0.966   3.988 -0.6145 -0.2206 -0.3483
   25GLOH   H02 8520   5.489   0.876   3.938 -0.4324 -0.2664 -0.1400
   25GLOH   H08 8521   5.373   0.938   4.055  1.8322 -1.4225  2.2570
   25GLOH    C2 8522   5.570   1.025   4.078  0.7245  0.0872 -0.0740
   25GLOH   H04 8523   5.541   1.129   4.097 -2.8847 -0.5601 -1.5765
   25GLOH    O2 8524   5.585   0.948   4.196 -0.8446 -0.0209 -0.5946
   25GLOH   H05 8525   5.617   0.861   4.166 -0.0981  0.4118 -1.0658
   25GLOH    C3 8526   5.702   1.025   3.999 -0.1947  0.5802  0.8241
   25GLOH   H06 8527   5.686   0.937   3.938 -2.4566 -0.2181  2.4799
   25GLOH   H07 8528   5.791   1.011   4.061 -0.6422  1.3471  1.6682
   25GLOH    O3 8529   5.713   1.135   3.905 -0.0702  0.4499 -0.5662
   25GLOH   H01 8530   5.742   1.107   3.816  0.0190  0.5781 -0.5772
   26GLOH   H03 8531   6.020   2.583   4.337  0.2855  0.4865  0.8428
   26GLOH    O1 8532   6.015   2.486   4.341 -0.0632  0.4668  0.1534
   26GLOH    C1 8533   6.137   2.440   4.395 -0.1432 -0.6102  0.0048
   26GLOH   H02 8534   6.128   2.332   4.403 -1.1858 -0.5062  0.3304
   26GLOH   H08 8535   6.160   2.478   4.494 -2.5662  0.4020  0.2187
   26GLOH    C2 8536   6.255   2.473   4.303  0.3957 -0.2498 -0.0069
   26GLOH   H04 8537   6.264   2.578   4.272 -4.1065 -0.8904 -4.0131
   26GLOH    O2 8538   6.372   2.459   4.386 -0.0624  0.2644  0.8562
   26GLOH   H05 8539   6.415   2.373   4.367 -2.6417 -0.9738  0.4294
   26GLOH    C3 8540   6.243   2.393   4.171 -0.3447 -0.0018  0.8443
   26GLOH   H06 8541   6.334   2.420   4.116 -0.8591  0.8978  0.4228
   26GLOH   H07 8542   6.157   2.431   4.117 -0.5309 -1.4631  0.0899
   26GLOH    O3 8543   6.239   2.248   4.180 -0.2889  0.4558 -0.1001
   26GLOH   H01 8544   6.209   2.222   4.091  0.1447  1.5145 -0.5658
   27GLOH   H03 8545   1.517   8.519   3.373  2.9342  2.1305 -1.0085
   27GLOH    O1 8546   1.524   8.557   3.462  0.3228 -0.7468  0.5368
   27GLOH    C1 8547   1.621   8.481   3.525  0.4777 -0.3708 -0.0422
   27GLOH   H02 8548   1.669   8.538   3.605 -1.4923  0.3968  0.6109
   27GLOH   H08 8549   1.701   8.446   3.459  1.0978  2.5755 -0.9692
   27GLOH    C2 8550   1.555   8.368   3.605  0.0303 -0.0324 -0.2588
   27GLOH   H04 8551   1.495   8.403   3.690 -3.5481 -1.8868 -1.9188
   27GLOH    O2 8552   1.460   8.284   3.529  0.3148  0.7133  0.2519
   27GLOH   H05 8553   1.497   8.257   3.443 -0.3614 -0.9702  0.4744
   27GLOH    C3 8554   1.663   8.274   3.667  0.3803 -0.2316 -0.1787
   27GLOH   H06 8555   1.720   8.236   3.583 -0.2176  1.8408 -1.5628
   27GLOH   H07 8556   1.608   8.198   3.722 -0.1766  1.1391  1.2063
   27GLOH    O3 8557   1.752   8.348   3.757  0.4536  0.8677 -0.3601
   27GLOH   H01 8558   1.835   8.300   3.744 -0.8159 -0.5169 -4.1607
   28GLOH   H03 8559   4.442   2.337   6.704 -0.2964 -2.1672  0.2900
   28GLOH    O1 8560   4.519   2.282   6.684  0.6805 -0.7629  0.1210
   28GLOH    C1 8561   4.536   2.282   6.537  0.0250 -0.4612 -0.0036
   28GLOH   H02 8562   4.576   2.379   6.508  0.6207 -0.1341  1.8130
   28GLOH   H08 8563   4.444   2.257   6.484 -0.6195 -2.0466  1.7687
   28GLOH    C2 8564   4.660   2.192   6.497  0.1547 -0.0308 -0.6118
   28GLOH   H04 8565   4.720   2.183   6.589  0.3710 -0.0483 -0.7554
   28GLOH    O2 8566   4.625   2.059   6.447  0.1426  0.1517  0.0561
   28GLOH   H05 8567   4.636   2.061   6.351 -0.2888 -0.8205 -0.0151
   28GLOH    C3 8568   4.742   2.269   6.391  0.5024  0.5148  0.0153
   28GLOH   H06 8569   4.829   2.207   6.369  1.1812  1.7304 -0.7761
   28GLOH   H07 8570   4.773   2.365   6.434  0.7712  0.2120  0.5140
   28GLOH    O3 8571   4.650   2.302   6.274 -0.1375  0.2168  0.4687
   28GLOH   H01 8572   4.615   2.392   6.284 -0.3391  0.2411 -0.4398
   29GLOH   H03 8573   4.026   5.957   5.206 -0.1351  0.4970  1.2598
   29GLOH    O1 8574   4.094   6.008   5.158 -0.3843  0.3224  0.7176
   29GLOH    C1 8575   4.047   6.136   5.116 -0.6274  0.0557 -0.5300
   29GLOH   H02 8576   4.134   6.200   5.101 -1.8226  1.5125 -1.3960
   29GLOH   H08 8577   3.990   6.175   5.200  0.1182 -1.9608  0.9687
   29GLOH    C2 8578   3.964   6.131   4.990  0.2609  0.0111  0.0974
   29GLOH   H04 8579   3.870   6.079   5.015  0.2912 -0.9449 -1.7610
   29GLOH    O2 8580   3.948   6.264   4.949 -0.2830 -0.2190 -0.2538
   29GLOH   H05 8581   3.883   6.265   4.876  0.1614  0.0706 -0.6511
   29GLOH    C3 8582   4.043   6.054   4.882  0.6592 -0.0677  0.1160
   29GLOH   H06 8583   4.077   5.957   4.920 -1.6156 -0.6663  0.6538
   29GLOH   H07 8584   4.142   6.099   4.870  0.2427  1.3961  2.0707
   29GLOH    O3 8585   3.970   6.033   4.760 -0.3343  0.4135 -0.2597
   29GLOH   H01 8586   3.912   5.957   4.778  0.6798  0.3237  2.9643
   30GLOH   H03 8587   7.306   7.144   3.698  0.3089 -1.3442 -0.1835
   30GLOH    O1 8588   7.323   7.142   3.794  0.2723 -0.3541 -0.1514
   30GLOH    C1 8589   7.397   7.259   3.817 -0.4141  0.1239 -0.0552
   30GLOH   H02 8590   7.491   7.254   3.763 -0.2556 -1.0125  0.3101
   30GLOH   H08 8591   7.419   7.277   3.922  3.3839  3.9153 -1.3459
   30GLOH    C2 8592   7.349   7.396   3.779 -0.2449  0.1163  0.3221
   30GLOH   H04 8593   7.409   7.474   3.827 -1.4697  1.7545 -0.7510
   30GLOH    O2 8594   7.355   7.412   3.637  1.0144 -0.6645 -0.5327
   30GLOH   H05 8595   7.396   7.499   3.621 -3.6556  1.8381  0.0026
   30GLOH    C3 8596   7.203   7.412   3.817 -0.5617 -0.1231  0.3700
   30GLOH   H06 8597   7.139   7.351   3.753 -0.0589 -0.6050  0.3207
   30GLOH   H07 8598   7.188   7.518   3.795 -0.3777 -0.5325 -1.8488
   30GLOH    O3 8599   7.169   7.395   3.956 -0.2574  0.0792 -0.3853
   30GLOH   H01 8600   7.116   7.313   3.962  0.6454 -0.6729 -2.1401
   31GLOH   H03 8601   0.068   7.557   0.430 -2.3800 -1.8273 -2.5451
   31GLOH    O1 8602   0.097   7.615   0.358  0.3774  0.4688  0.2720
   31GLOH    C1 8603  -0.010   7.704   0.324  0.2072  0.5740 -0.9364
   31GLOH   H02 8604  -0.032   7.767   0.409  1.7165  1.8427 -1.4637
   31GLOH   H08 8605  -0.102   7.654   0.292 -0.9760  1.8127  0.4405
   31GLOH    C2 8606   0.025   7.798   0.206 -0.6735  0.2853  0.4711
   31GLOH   H04 8607   0.036   7.746   0.110  0.5480  1.2175  0.0889
   31GLOH    O2 8608  -0.082   7.891   0.188  0.7008  0.0423 -0.5456
   31GLOH   H05 8609  -0.060   7.964   0.249 -0.2681  0.4561 -0.6786
   31GLOH    C3 8610   0.158   7.872   0.240  0.5505  0.0918  0.2092
   31GLOH   H06 8611   0.235   7.799   0.218 -1.1643 -1.2186 -1.6018
   31GLOH   H07 8612   0.165   7.902   0.345  1.2631  0.1308  0.1477
   31GLOH    O3 8613   0.194   7.983   0.147  0.1962 -0.5473 -0.1725
   31GLOH   H01 8614   0.241   7.953   0.067 -0.1385 -0.4696 -0.4016
   32GLOH   H03 8615   7.370   2.599   1.662 -1.0397 -0.4499 -0.2697
   32GLOH    O1 8616   7.373   2.515   1.612  0.1888 -0.3568 -0.3616
   32GLOH    C1 8617   7.500   2.451   1.628  0.5489  0.0669  0.1566
   32GLOH   H02 8618   7.471   2.349   1.602 -2.2059  0.8606 -0.0614
   32GLOH   H08 8619   7.545   2.455   1.727 -0.6508  0.0175  0.7142
   32GLOH    C2 8620   7.602   2.503   1.524  0.3784  0.8035  0.5300
   32GLOH   H04 8621   7.695   2.448   1.546  0.7806  0.9764 -0.6867
   32GLOH    O2 8622   7.567   2.465   1.389 -0.2952  0.1852  0.3162
   32GLOH   H05 8623   7.639   2.501   1.333 -2.2393  0.5887 -1.9876
   32GLOH    C3 8624   7.620   2.652   1.530 -0.1971 -0.4617 -0.4117
   32GLOH   H06 8625   7.536   2.700   1.480 -1.5132 -0.2553  1.9232
   32GLOH   H07 8626   7.716   2.675   1.484 -0.9765  3.0431 -0.4085
   32GLOH    O3 8627   7.622   2.699   1.667 -0.0500 -0.4864 -0.1685
   32GLOH   H01 8628   7.609   2.796   1.668  0.5175 -0.3981 -0.8829
   33GLOH   H03 8629   8.100   9.605   2.366 -1.0247 -0.5833 -1.5269
   33GLOH    O1 8630   8.077   9.692   2.329  0.2007  0.3020 -0.2870
   33GLOH    C1 8631   8.128   9.719   2.198 -0.4372  0.4022 -0.5406
   33GLOH   H02 8632   8.069   9.795   2.146  0.3478  2.0045  0.8751
   33GLOH   H08 8633   8.122   9.629   2.136  2.2102 -0.5132  0.4463
   33GLOH    C2 8634   8.275   9.771   2.194  0.4076 -0.0659 -0.5658
   33GLOH   H04 8635   8.274   9.869   2.243  1.0886 -0.1223 -0.4268
   33GLOH    O2 8636   8.355   9.675   2.262 -0.0046 -0.3268  0.1473
   33GLOH   H05 8637   8.441   9.708   2.293 -0.3627  0.0550  0.7364
   33GLOH    C3 8638   8.315   9.804   2.046 -0.1505 -0.1167  0.6233
   33GLOH   H06 8639   8.250   9.887   2.021 -0.2033 -0.3935 -0.1696
   33GLOH   H07 8640   8.296   9.707   1.998  4.3394 -0.5059 -0.6650
   33GLOH    O3 8641   8.451   9.849   2.022  0.2598 -0.1986 -0.0708
   33GLOH   H01 8642   8.513   9.788   2.065  0.5843  0.9450  1.1462
   34GLOH   H03 8643   9.049   9.607   1.554 -0.7297 -2.3065  0.4988
   34GLOH    O1 8644   8.990   9.627   1.629 -0.0496  0.1902  0.4101
   34GLOH    C1 8645   9.048   9.560   1.743  0.4503 -0.4245 -1.0299
   34GLOH   H02 8646   9.084   9.633   1.817 -0.2291 -1.1693  0.0491
   34GLOH   H08 8647   9.135   9.503   1.712  0.0058 -1.5305 -0.2759
   34GLOH    C2 8648   8.956   9.447   1.801 -0.0784 -0.3551 -0.5201
   34GLOH   H04 8649   8.922   9.375   1.725 -0.3635 -2.2059  1.2923
   34GLOH    O2 8650   9.024   9.378   1.910  0.4122  0.2900  0.2061
   34GLOH   H05 8651   8.966   9.305   1.936 -0.4968  0.3092 -1.6693
   34GLOH    C3 8652   8.823   9.510   1.846  0.6181 -0.2021  0.2916
   34GLOH   H06 8653   8.765   9.536   1.757  0.3724  0.5539  0.6678
   34GLOH   H07 8654   8.844   9.607   1.890  0.8182  0.1801 -0.6287
   34GLOH    O3 8655   8.738   9.433   1.936  0.0700  0.2276  0.1552
   34GLOH   H01 8656   8.780   9.422   2.024 -1.9256 -0.1430  1.0863
   35GLOH   H03 8657   2.198   8.732   5.589 -1.0779  0.6197 -1.7999
   35GLOH    O1 8658   2.280   8.784   5.577 -0.6197  0.1391 -0.7915
   35GLOH    C1 8659   2.302   8.774   5.434  0.2632  0.1438  0.3130
   35GLOH   H02 8660   2.219   8.789   5.365 -0.0978 -1.5959  0.3358
   35GLOH   H08 8661   2.333   8.676   5.397  0.5317  0.1938  0.4013
   35GLOH    C2 8662   2.410   8.882   5.398 -0.0610 -0.2554  0.5377
   35GLOH   H04 8663   2.508   8.865   5.445 -0.3430 -2.5915  0.3479
   35GLOH    O2 8664   2.427   8.874   5.257 -0.4568  0.6368 -0.2597
   35GLOH   H05 8665   2.498   8.933   5.229 -1.3258  2.0426  0.4556
   35GLOH    C3 8666   2.350   9.016   5.442  0.5268 -0.7031 -1.1093
   35GLOH   H06 8667   2.344   9.013   5.551 -0.0407  0.8244 -1.0897
   35GLOH   H07 8668   2.249   9.023   5.402 -0.3312  2.7082  1.3914
   35GLOH    O3 8669   2.432   9.128   5.407  0.0656  0.0824  0.2963
   35GLOH   H01 8670   2.519   9.123   5.451  1.3870  0.9334 -2.1495
   36GLOH   H03 8671   4.220   8.005   0.871  0.2668 -1.9532  0.0159
   36GLOH    O1 8672   4.154   7.991   0.941  0.3437 -0.0113  0.4855
   36GLOH    C1 8673   4.179   8.093   1.040 -0.0284 -0.2209 -0.6901
   36GLOH   H02 8674   4.087   8.122   1.092  0.0578 -0.9308 -0.1336
   36GLOH   H08 8675   4.220   8.185   0.999 -2.3731  0.6286 -1.2524
   36GLOH    C2 8676   4.282   8.040   1.140  0.0731 -0.5024 -0.4185
   36GLOH   H04 8677   4.377   8.021   1.088  1.0786 -0.5645  1.4059
   36GLOH    O2 8678   4.317   8.125   1.252 -0.4069 -0.6137  0.3805
   36GLOH   H05 8679   4.390   8.181   1.220  0.3913 -3.0186 -2.1674
   36GLOH    C3 8680   4.218   7.915   1.205 -0.1524  0.0684  0.0235
   36GLOH   H06 8681   4.127   7.941   1.258 -0.3227  1.0723 -0.7258
   36GLOH   H07 8682   4.287   7.881   1.282 -0.7075 -1.0623  0.0308
   36GLOH    O3 8683   4.200   7.811   1.103 -0.5420 -0.0450 -0.5179
   36GLOH   H01 8684   4.185   7.864   1.023 -1.1028  1.3208  0.4860
   37GLOH   H03 8685   3.668   5.733   5.767  0.0336 -0.2571 -2.3249
   37GLOH    O1 8686   3.759   5.757   5.796 -0.4816 -0.3973 -0.5546
   37GLOH    C1 8687   3.813   5.654   5.881  0.6767 -0.9636  0.5632
   37GLOH   H02 8688   3.745   5.641   5.965 -0.3611  1.5475  0.1513
   37GLOH   H08 8689   3.907   5.698   5.915  0.1884  1.7879 -1.4260
   37GLOH    C2 8690   3.836   5.523   5.805  0.1059 -1.0855 -0.7400
   37GLOH   H04 8691   3.880   5.455   5.878  0.6989  1.2884  1.1596
   37GLOH    O2 8692   3.715   5.467   5.751  0.0493 -0.1668  0.0169
   37GLOH   H05 8693   3.648   5.535   5.731 -0.3396 -0.4527  0.3222
   37GLOH    C3 8694   3.944   5.534   5.704 -0.0756 -0.0338 -0.3818
   37GLOH   H06 8695   3.948   5.630   5.653 -1.2249 -0.3586 -1.0985
   37GLOH   H07 8696   3.921   5.458   5.629 -0.5914  0.2744 -0.5362
   37GLOH    O3 8697   4.071   5.491   5.763 -0.7249  0.6616 -0.0221
   37GLOH   H01 8698   4.122   5.572   5.780  1.5309 -0.9078  0.8271
   38GLOH   H03 8699   7.130   2.873   2.456  2.0340 -1.7433  1.1712
   38GLOH    O1 8700   7.165   2.848   2.369  0.6356 -0.6369  0.2658
   38GLOH    C1 8701   7.294   2.794   2.394 -0.5121 -0.0386 -0.5688
   38GLOH   H02 8702   7.281   2.710   2.463 -1.2940  1.0161  0.5832
   38GLOH   H08 8703   7.366   2.864   2.437 -2.7300  0.0524  3.2534
   38GLOH    C2 8704   7.344   2.753   2.253 -0.0555 -0.5287 -0.1195
   38GLOH   H04 8705   7.269   2.694   2.198 -1.3757  0.7696  0.2512
   38GLOH    O2 8706   7.375   2.876   2.182 -0.0265 -0.1402  0.2836
   38GLOH   H05 8707   7.441   2.858   2.113 -0.0154  0.0744  0.2403
   38GLOH    C3 8708   7.471   2.661   2.247 -0.4614  0.0790  0.4727
   38GLOH   H06 8709   7.562   2.720   2.260 -0.4205  0.5420 -1.7264
   38GLOH   H07 8710   7.476   2.637   2.140  1.1577  2.0463  0.0722
   38GLOH    O3 8711   7.463   2.542   2.318 -0.2993  0.0125  0.3040
   38GLOH   H01 8712   7.373   2.507   2.305 -0.1832 -0.5881  1.0600
   39GLOH   H03 8713   9.711   1.492   5.110  3.2093 -1.1058  2.3155
   39GLOH    O1 8714   9.672   1.403   5.106  0.2700  0.1845  0.0557
   39GLOH    C1 8715   9.734   1.335   5.217 -0.1838  0.1035 -0.3135
   39GLOH   H02 8716   9.690   1.374   5.309 -0.1750 -1.9200  0.5674
   39GLOH   H08 8717   9.838   1.366   5.223 -0.7217  2.0468 -0.5531
   39GLOH    C2 8718   9.695   1.190   5.208 -0.8719 -0.3321  0.1143
   39GLOH   H04 8719   9.727   1.143   5.302  0.1178 -1.3075 -0.6957
   39GLOH    O2 8720   9.554   1.166   5.205  0.4406  0.1850 -0.0293
   39GLOH   H05 8721   9.500   1.233   5.159  1.3762  2.1741  1.7150
   39GLOH    C3 8722   9.760   1.120   5.092  0.5399  0.8600  0.4642
   39GLOH   H06 8723   9.868   1.138   5.087  0.4032  2.0842  1.6071
   39GLOH   H07 8724   9.730   1.170   5.000  0.0538 -0.8062 -0.3010
   39GLOH    O3 8725   9.738   0.983   5.079 -0.2885  0.0448  0.1989
   39GLOH   H01 8726   9.642   0.967   5.087 -0.4434  0.6054 -0.4741
   40GLOH   H03 8727   1.547   2.446   4.128 -0.0495  0.6084  0.0470
   40GLOH    O1 8728   1.611   2.425   4.198  0.0425  0.2904 -0.1326
   40GLOH    C1 8729   1.588   2.280   4.214 -0.5684 -0.2729  0.3311
   40GLOH   H02 8730   1.645   2.244   4.299 -1.4084 -1.3844  0.4404
   40GLOH   H08 8731   1.625   2.225   4.127 -1.7976 -0.5441 -0.0413
   40GLOH    C2 8732   1.442   2.235   4.231 -0.5114 -0.5871 -0.3828
   40GLOH   H04 8733   1.391   2.230   4.134 -1.8400  0.3307  0.2442
   40GLOH    O2 8734   1.456   2.101   4.269 -0.6509  0.2171 -0.9625
   40GLOH   H05 8735   1.447   2.051   4.186 -0.4516 -0.1159 -0.7845
   40GLOH    C3 8736   1.353   2.320   4.319 -0.1374 -0.0123  0.2917
   40GLOH   H06 8737   1.394   2.312   4.420 -2.3109 -0.9372  1.1434
   40GLOH   H07 8738   1.256   2.270   4.320  0.5556 -1.4073  2.4243
   40GLOH    O3 8739   1.355   2.457   4.278 -0.0450 -0.1573 -0.3579
   40GLOH   H01 8740   1.438   2.482   4.233  0.9205 -0.2627  1.3556
   41GLOH   H03 8741   1.318   1.147   2.149 -0.2463 -0.8938  3.0006
   41GLOH    O1 8742   1.228   1.175   2.128  0.4020 -0.6521  0.4109
   41GLOH    C1 8743   1.149   1.149   2.241  0.6852 -0.0597  0.4058
   41GLOH   H02 8744   1.145   1.235   2.309  0.7952  0.2312  0.0477
   41GLOH   H08 8745   1.202   1.068   2.291  2.1757 -0.0745 -1.1274
   41GLOH    C2 8746   0.998   1.109   2.217 -0.1787  0.2330  0.1810
   41GLOH   H04 8747   1.016   1.004   2.189  2.0988  0.3975  0.9486
   41GLOH    O2 8748   0.922   1.112   2.336 -0.0578 -0.4500 -0.2242
   41GLOH   H05 8749   0.932   1.032   2.390 -0.5793 -0.3681 -0.0028
   41GLOH    C3 8750   0.926   1.178   2.103  0.0327  0.1166  0.2155
   41GLOH   H06 8751   0.908   1.279   2.138 -3.4773 -0.0071 -1.0146
   41GLOH   H07 8752   0.828   1.143   2.070 -0.4727  0.7455  1.0465
   41GLOH    O3 8753   1.017   1.183   1.986 -0.1434 -0.0453  0.1564
   41GLOH   H01 8754   1.105   1.188   2.028 -0.8513  2.9468  1.4631
   42GLOH   H03 8755   4.524   4.893   4.719 -0.9126  0.4107  1.5262
   42GLOH    O1 8756   4.610   4.900   4.765 -0.1101 -0.1644  0.1274
   42GLOH    C1 8757   4.692   4.997   4.691  0.0851 -0.0165 -1.1143
   42GLOH   H02 8758   4.770   5.036   4.757 -0.4759  0.2696 -0.6150
   42GLOH   H08 8759   4.643   5.086   4.653  0.4341 -0.5521 -2.8645
   42GLOH    C2 8760   4.761   4.934   4.562  0.4553  0.6673  0.2746
   42GLOH   H04 8761   4.791   5.018   4.498  0.8057 -0.0498 -0.5153
   42GLOH    O2 8762   4.878   4.858   4.604  0.2914 -0.2712 -0.3410
   42GLOH   H05 8763   4.887   4.792   4.533 -1.2363 -1.1103  0.2054
   42GLOH    C3 8764   4.653   4.864   4.482 -0.1037  0.0072 -0.2405
   42GLOH   H06 8765   4.568   4.932   4.491  0.8866  1.1709  0.6131
   42GLOH   H07 8766   4.628   4.768   4.526 -2.5161  1.1715  1.0421
   42GLOH    O3 8767   4.691   4.837   4.352  0.3196 -0.0291 -0.7259
   42GLOH   H01 8768   4.609   4.842   4.300 -0.9267 -2.8737  0.8185
   43GLOH   H03 8769   0.137   7.750   1.768 -1.2034  1.7860 -0.3845
   43GLOH    O1 8770   0.218   7.805   1.774 -0.1429  0.1956  0.0494
   43GLOH    C1 8771   0.189   7.935   1.707  0.1821  1.6159  0.5207
   43GLOH   H02 8772   0.281   7.984   1.677 -0.4507  1.3448 -1.9266
   43GLOH   H08 8773   0.136   7.998   1.779  1.0762  1.1326  1.6256
   43GLOH    C2 8774   0.098   7.915   1.589  0.4399  0.1668  0.2643
   43GLOH   H04 8775   0.004   7.877   1.631  0.9308 -1.4360 -0.0816
   43GLOH    O2 8776   0.081   8.035   1.518 -0.0348 -0.1051 -0.4445
   43GLOH   H05 8777   0.156   8.061   1.463 -0.6008 -0.8732 -1.6038
   43GLOH    C3 8778   0.159   7.815   1.492 -0.4067  0.5796  0.4211
   43GLOH   H06 8779   0.263   7.840   1.470  0.0369 -1.3218  0.2538
   43GLOH   H07 8780   0.108   7.820   1.396  0.0752  0.6976  0.1664
   43GLOH    O3 8781   0.143   7.677   1.535  0.2064 -0.3848  0.1015
   43GLOH   H01 8782   0.153   7.617   1.459  0.9339 -2.4351  1.7525
   44GLOH   H03 8783   9.545   1.071   5.335  1.8616 -1.1140 -0.0459
   44GLOH    O1 8784   9.527   1.049   5.428  0.7024  0.0660  0.0119
   44GLOH    C1 8785   9.494   1.175   5.492  0.5222 -0.2851 -0.0940
   44GLOH   H02 8786   9.414   1.219   5.432 -1.3140 -1.6239  1.3242
   44GLOH   H08 8787   9.587   1.231   5.484 -0.4142  1.1628 -1.0612
   44GLOH    C2 8788   9.443   1.155   5.642 -0.6021  0.2441  0.4008
   44GLOH   H04 8789   9.518   1.090   5.689 -1.4604 -1.8168 -1.0264
   44GLOH    O2 8790   9.440   1.284   5.712 -0.5282  0.0900  0.0907
   44GLOH   H05 8791   9.509   1.342   5.677 -0.1246  0.3475  1.3019
   44GLOH    C3 8792   9.311   1.074   5.648 -0.5946 -0.2752 -0.1411
   44GLOH   H06 8793   9.235   1.115   5.581 -0.3670 -0.6456 -0.6287
   44GLOH   H07 8794   9.261   1.081   5.744 -3.0632  2.2120 -1.5287
   44GLOH    O3 8795   9.331   0.937   5.611 -0.0748 -0.2464 -0.0565
   44GLOH   H01 8796   9.272   0.892   5.675  0.3241  0.8551  1.0929
   45GLOH   H03 8797   6.972   2.128   1.480  2.1982 -1.8407 -0.6388
   45GLOH    O1 8798   6.970   2.114   1.576  0.1242  0.0910 -0.3581
   45GLOH    C1 8799   6.851   2.039   1.621  0.5346 -0.5465 -0.1304
   45GLOH   H02 8800   6.768   2.099   1.659  0.6096 -1.0243  0.8166
   45GLOH   H08 8801   6.881   1.975   1.704  0.3121 -1.1768 -0.5301
   45GLOH    C2 8802   6.801   1.937   1.512  0.1796 -0.3761 -0.6276
   45GLOH   H04 8803   6.859   1.844   1.518  1.2684  0.1349 -2.7075
   45GLOH    O2 8804   6.667   1.907   1.528  0.3926 -0.3815 -0.8614
   45GLOH   H05 8805   6.630   1.832   1.477 -2.7091  0.6922 -0.3098
   45GLOH    C3 8806   6.830   1.986   1.363  0.4389 -0.2612  0.0690
   45GLOH   H06 8807   6.768   2.073   1.345  0.2331 -0.2388  0.8436
   45GLOH   H07 8808   6.789   1.909   1.296 -2.5533  0.1249  1.3638
   45GLOH    O3 8809   6.965   2.015   1.345 -0.1581 -0.5219 -0.8572
   45GLOH   H01 8810   7.028   1.944   1.368 -2.7772 -1.6500  3.5028
   46GLOH   H03 8811   5.567   5.925   1.823  0.1656 -0.2310 -0.1003
   46GLOH    O1 8812   5.597   6.006   1.778  0.7198 -0.2647  0.1959
   46GLOH    C1 8813   5.659   6.111   1.854 -0.2572  0.1605 -0.8212
   46GLOH   H02 8814   5.621   6.207   1.819 -0.8759  0.9536  1.8447
   46GLOH   H08 8815   5.768   6.112   1.850 -0.2625  2.4882 -1.0863
   46GLOH    C2 8816   5.627   6.110   2.006 -0.6508  0.0370 -0.3645
   46GLOH   H04 8817   5.663   6.010   2.035  1.3219  0.7870 -0.1419
   46GLOH    O2 8818   5.695   6.217   2.077  0.4169 -0.2176 -0.1387
   46GLOH   H05 8819   5.630   6.287   2.099 -0.1806 -0.8824  0.2106
   46GLOH    C3 8820   5.472   6.114   2.028  0.0350  0.2508  0.4195
   46GLOH   H06 8821   5.415   6.036   1.978 -2.1702  1.5702  0.8170
   46GLOH   H07 8822   5.431   6.210   1.995  0.5337  0.9246  1.7153
   46GLOH    O3 8823   5.448   6.092   2.171  0.4117 -0.1309 -0.2262
   46GLOH   H01 8824   5.486   6.166   2.221 -0.1304 -0.8040  1.1847
   47GLOH   H03 8825   8.775   1.972   3.321  1.7201  1.6346 -0.2191
   47GLOH    O1 8826   8.723   2.037   3.372 -0.3215 -0.2453  0.1862
   47GLOH    C1 8827   8.817   2.118   3.445 -0.4002  0.2575  0.0325
   47GLOH   H02 8828   8.888   2.157   3.372 -1.0130  0.2957 -0.5450
   47GLOH   H08 8829   8.869   2.060   3.522  0.1274  0.5999 -0.0609
   47GLOH    C2 8830   8.762   2.238   3.528  0.4253 -0.1474 -0.8624
   47GLOH   H04 8831   8.699   2.299   3.462  0.8477 -0.0418 -1.1704
   47GLOH    O2 8832   8.680   2.194   3.637  0.0756 -0.3119 -0.1340
   47GLOH   H05 8833   8.650   2.283   3.664  2.3343  0.0871  1.3203
   47GLOH    C3 8834   8.872   2.332   3.585 -0.1298  0.5259 -0.2676
   47GLOH   H06 8835   8.935   2.276   3.654  0.5759 -0.5127 -1.7157
   47GLOH   H07 8836   8.835   2.422   3.632 -0.7155 -0.8081  1.8720
   47GLOH    O3 8837   8.963   2.385   3.485  0.1238  0.1812 -0.4901
   47GLOH   H01 8838   9.049   2.339   3.494  0.3584  0.4702 -1.2162
   48GLOH   H03 8839   7.593   6.193   4.950 -1.0592 -0.6797  0.4624
   48GLOH    O1 8840   7.561   6.185   4.858 -0.1448  0.2992  0.0533
   48GLOH    C1 8841   7.673   6.168   4.769 -0.2454 -0.4244  0.0173
   48GLOH   H02 8842   7.647   6.105   4.685 -0.4339 -0.5722  0.1850
   48GLOH   H08 8843   7.748   6.104   4.815 -0.5551 -1.6470 -1.1618
   48GLOH    C2 8844   7.744   6.297   4.735  0.2264 -0.6806 -0.6718
   48GLOH   H04 8845   7.753   6.355   4.828  0.0655 -1.3778 -0.2125
   48GLOH    O2 8846   7.872   6.266   4.679  0.6758  0.4549  0.0559
   48GLOH   H05 8847   7.939   6.248   4.747 -0.2970  1.0692  1.1933
   48GLOH    C3 8848   7.641   6.369   4.647 -0.6555  0.2605  0.1310
   48GLOH   H06 8849   7.613   6.299   4.569 -0.9189  1.7723 -1.1629
   48GLOH   H07 8850   7.686   6.459   4.605 -0.5901 -0.0159 -0.3913
   48GLOH    O3 8851   7.522   6.400   4.719 -0.0192  0.7328 -0.0354
   48GLOH   H01 8852   7.495   6.328   4.780  0.4719  0.8322  0.3017
   49GLOH   H03 8853   7.698   0.487   0.644 -0.9322 -3.0655 -0.9220
   49GLOH    O1 8854   7.744   0.507   0.561 -0.3493 -0.7543 -0.0931
   49GLOH    C1 8855   7.875   0.542   0.584 -0.0558  0.7580 -0.4617
   49GLOH   H02 8856   7.927   0.542   0.488  2.3508 -2.2539  0.7349
   49GLOH   H08 8857   7.924   0.476   0.656 -1.2723  1.4733  1.0304
   49GLOH    C2 8858   7.892   0.689   0.636 -0.5656  0.0473  0.0924
   49GLOH   H04 8859   7.819   0.709   0.716 -0.0966  0.5056  0.4071
   49GLOH    O2 8860   8.027   0.710   0.685  0.0917  0.4092 -0.1690
   49GLOH   H05 8861   8.045   0.806   0.686 -1.4168  0.7247  3.2799
   49GLOH    C3 8862   7.863   0.784   0.518  0.0314  0.1117  0.4614
   49GLOH   H06 8863   7.958   0.797   0.466 -0.5162 -0.4299 -0.6999
   49GLOH   H07 8864   7.833   0.881   0.556  1.7650  0.8738 -0.0840
   49GLOH    O3 8865   7.767   0.732   0.425  0.4018  0.2109  0.0462
   49GLOH   H01 8866   7.743   0.643   0.459  0.4324 -0.0751 -0.6678
   50GLOH   H03 8867   0.334   2.691   6.494  1.1615  0.1922 -0.5027
   50GLOH    O1 8868   0.352   2.599   6.519  0.6324  0.3506  0.4860
   50GLOH    C1 8869   0.293   2.508   6.421  0.3395  0.0634 -0.3895
   50GLOH   H02 8870   0.240   2.554   6.338 -0.4939 -0.6550 -0.2625
   50GLOH   H08 8871   0.222   2.442   6.472  1.3112  0.0617  0.9891
   50GLOH    C2 8872   0.404   2.412   6.364 -0.0937  0.5644 -0.4173
   50GLOH   H04 8873   0.439   2.357   6.453  1.8965  0.7231 -1.0746
   50GLOH    O2 8874   0.338   2.322   6.271 -0.8459 -0.3571  1.1216
   50GLOH   H05 8875   0.395   2.305   6.194  0.2740  1.8721  1.4004
   50GLOH    C3 8876   0.526   2.486   6.301 -0.3550 -0.2416 -0.5821
   50GLOH   H06 8877   0.572   2.525   6.392 -0.7590 -0.0034 -0.4788
   50GLOH   H07 8878   0.491   2.571   6.243  0.4519  1.2441  1.0903
   50GLOH    O3 8879   0.607   2.391   6.228 -0.1363 -0.2733  0.3574
   50GLOH   H01 8880   0.661   2.340   6.291  0.9086 -1.3229 -1.3496
   51GLOH   H03 8881   8.175   2.098   0.432  1.1518  0.2153 -1.4062
   51GLOH    O1 8882   8.124   2.124   0.353 -0.3115  0.1495 -0.5009
   51GLOH    C1 8883   8.012   2.037   0.343 -0.6212 -0.3144 -0.3353
   51GLOH   H02 8884   7.945   2.060   0.425  1.1118 -3.1306  1.9933
   51GLOH   H08 8885   8.043   1.932   0.345  1.6514  0.2375 -2.8268
   51GLOH    C2 8886   7.940   2.058   0.205  0.0598  0.0928 -0.9455
   51GLOH   H04 8887   8.005   2.029   0.120 -1.2835 -0.6196 -1.7434
   51GLOH    O2 8888   7.819   1.968   0.193 -0.5323  0.0334 -0.2677
   51GLOH   H05 8889   7.785   1.970   0.102 -2.1427  1.5231  0.3367
   51GLOH    C3 8890   7.901   2.207   0.183 -0.1565 -0.7354 -0.1451
   51GLOH   H06 8891   7.809   2.231   0.236  0.1772  0.4453 -0.0831
   51GLOH   H07 8892   7.874   2.221   0.078  3.6073  1.6921 -0.9005
   51GLOH    O3 8893   8.000   2.313   0.209  0.1086  0.0335 -0.4489
   51GLOH   H01 8894   8.070   2.267   0.260 -1.1874 -1.0902  0.3572
   52GLOH   H03 8895   7.803   9.502   2.902  0.2251 -0.5101  0.1063
   52GLOH    O1 8896   7.895   9.532   2.917  0.3067 -0.4658 -0.4376
   52GLOH    C1 8897   7.939   9.578   2.787 -0.2286 -0.4058 -0.2404
   52GLOH   H02 8898   7.866   9.549   2.712 -0.7757  2.8588 -1.0716
   52GLOH   H08 8899   8.035   9.531   2.765 -1.5170 -3.2851  0.0546
   52GLOH    C2 8900   7.933   9.728   2.787 -0.1248 -0.1008 -0.4839
   52GLOH   H04 8901   7.957   9.752   2.683  0.2210 -1.1317 -0.6412
   52GLOH    O2 8902   7.804   9.781   2.810 -0.2996  0.6239 -0.0912
   52GLOH   H05 8903   7.786   9.762   2.903 -2.4031 -1.7177 -0.9211
   52GLOH    C3 8904   8.028   9.797   2.886 -0.5483 -0.5139  0.2520
   52GLOH   H06 8905   8.008   9.758   2.986 -3.3340 -3.0725 -1.2075
   52GLOH   H07 8906   7.995   9.901   2.882 -0.9278 -0.6466 -0.2976
   52GLOH    O3 8907   8.172   9.792   2.847  0.1844 -0.2920  0.2411
   52GLOH   H01 8908   8.190   9.872   2.794 -0.9887 -0.1486  0.0413
   53GLOH   H03 8909   6.920   8.282   3.821  0.9110  0.5900 -0.7109
   53GLOH    O1 8910   6.924   8.332   3.904 -0.5360 -0.0562 -0.2273
   53GLOH    C1 8911   7.032   8.290   3.986 -0.2810  0.0298 -0.0477
   53GLOH   H02 8912   7.109   8.366   3.970  0.9692 -1.1793  0.1086
   53GLOH   H08 8913   7.076   8.195   3.956 -2.1723 -0.3123 -1.8825
   53GLOH    C2 8914   6.985   8.281   4.135  0.6683  0.1205 -0.3181
   53GLOH   H04 8915   6.897   8.216   4.146  0.8298  0.0351  0.4653
   53GLOH    O2 8916   7.098   8.228   4.212 -0.0927  0.1084  0.1643
   53GLOH   H05 8917   7.085   8.131   4.211 -0.7216  0.1321  2.4461
   53GLOH    C3 8918   6.935   8.425   4.186  0.0515  0.6621 -0.0468
   53GLOH   H06 8919   7.022   8.480   4.223 -0.0274  1.0376 -0.4201
   53GLOH   H07 8920   6.871   8.423   4.274  0.6276 -0.8240  0.3626
   53GLOH    O3 8921   6.865   8.495   4.083 -0.2365  0.0091 -0.4155
   53GLOH   H01 8922   6.871   8.431   4.010  1.3164  0.9976 -1.1944
   54GLOH   H03 8923   1.679   6.062   6.071  0.4177  0.2297 -0.6393
   54GLOH    O1 8924   1.772   6.064   6.103  0.1286 -0.1089  0.2387
   54GLOH    C1 8925   1.846   6.056   5.983 -0.5871  0.3298 -0.1459
   54GLOH   H02 8926   1.848   6.153   5.933  0.0933  0.7135  0.6092
   54GLOH   H08 8927   1.795   5.975   5.931  1.9932 -2.5578  1.6282
   54GLOH    C2 8928   1.996   6.011   5.998 -0.4576 -0.0209  0.8633
   54GLOH   H04 8929   2.038   6.085   6.068 -2.4308  0.5863  1.4357
   54GLOH    O2 8930   2.024   5.878   6.044 -0.4032  0.5855 -0.0278
   54GLOH   H05 8931   2.043   5.887   6.139  1.6767  0.6947 -0.4117
   54GLOH    C3 8932   2.079   6.038   5.865 -0.4565  0.4909 -0.9439
   54GLOH   H06 8933   2.035   5.969   5.792 -0.9775 -0.4623  0.2636
   54GLOH   H07 8934   2.184   6.012   5.875 -0.3198  0.9168 -1.2666
   54GLOH    O3 8935   2.084   6.172   5.816  0.3887  0.1046  0.5274
   54GLOH   H01 8936   2.133   6.218   5.887  3.0618 -0.8723 -0.6077
   55GLOH   H03 8937   6.817  10.032   1.100 -5.2786 -0.7972  0.6572
   55GLOH    O1 8938   6.839   9.962   1.166 -0.3782 -0.2433 -0.1974
   55GLOH    C1 8939   6.729   9.868   1.175  0.2945 -0.2705 -1.3658
   55GLOH   H02 8940   6.765   9.766   1.163  0.9105 -0.3205  0.7422
   55GLOH   H08 8941   6.652   9.891   1.101 -0.4754  1.3793 -0.0912
   55GLOH    C2 8942   6.645   9.878   1.304 -0.4825  0.2898 -0.2893
   55GLOH   H04 8943   6.552   9.825   1.280 -0.8988  1.0091 -0.2679
   55GLOH    O2 8944   6.707   9.816   1.419  0.5380 -0.0217  0.4999
   55GLOH   H05 8945   6.659   9.847   1.498  0.3012 -2.2887  1.2817
   55GLOH    C3 8946   6.603  10.026   1.337  0.0975  0.2001  0.5511
   55GLOH   H06 8947   6.590  10.086   1.247  2.3846  0.7526  0.5651
   55GLOH   H07 8948   6.686  10.078   1.384  0.0549  0.7005  0.0746
   55GLOH    O3 8949   6.485  10.032   1.425 -0.4724 -0.2979  0.2686
   55GLOH   H01 8950   6.410  10.064   1.373 -0.9121 -1.3619  0.2384
   56GLOH   H03 8951   1.074   2.952   4.433 -1.5075  1.3321  1.2242
   56GLOH    O1 8952   1.125   3.034   4.417  0.7305 -0.2941 -0.3609
   56GLOH    C1 8953   1.044   3.153   4.415  0.2247  0.6416  0.4105
   56GLOH   H02 8954   0.957   3.130   4.353 -0.7982  2.2405  1.2085
   56GLOH   H08 8955   1.090   3.242   4.373  0.3222  0.4915  0.2010
   56GLOH    C2 8956   1.009   3.187   4.561  0.2121  0.0286  0.2442
   56GLOH   H04 8957   0.964   3.104   4.616 -2.2227  0.5955 -0.8219
   56GLOH    O2 8958   1.130   3.230   4.629  0.3877  0.5716  0.1423
   56GLOH   H05 8959   1.199   3.162   4.617  1.4929  1.3800  1.8415
   56GLOH    C3 8960   0.909   3.306   4.552 -0.6808  0.2901 -0.1082
   56GLOH   H06 8961   0.848   3.302   4.462 -0.7221  0.9737 -0.1179
   56GLOH   H07 8962   0.977   3.391   4.540 -0.6129  0.1770 -0.5360
   56GLOH    O3 8963   0.822   3.325   4.663 -0.2120  0.3071  0.0986
   56GLOH   H01 8964   0.753   3.257   4.650  0.1381 -0.2060  0.9441
   57GLOH   H03 8965   2.962   1.051   6.530  0.7308  0.7527  1.0922
   57GLOH    O1 8966   2.868   1.077   6.530  0.4688 -0.1663 -0.2186
   57GLOH    C1 8967   2.857   1.184   6.634 -0.7285  0.7439 -0.1910
   57GLOH   H02 8968   2.888   1.147   6.731 -3.0985  0.1163  0.3632
   57GLOH   H08 8969   2.749   1.198   6.643 -1.0433 -1.2664 -0.6899
   57GLOH    C2 8970   2.921   1.323   6.610 -1.1046  0.3627 -0.5261
   57GLOH   H04 8971   3.018   1.301   6.563 -0.5726 -1.2389  1.2799
   57GLOH    O2 8972   2.840   1.395   6.520  0.0258  0.0113 -0.0877
   57GLOH   H05 8973   2.839   1.337   6.442 -0.1850  1.7770 -1.4161
   57GLOH    C3 8974   2.956   1.404   6.735 -0.7845  0.1380 -0.7415
   57GLOH   H06 8975   2.858   1.427   6.777 -1.4951  0.4723 -2.5415
   57GLOH   H07 8976   3.004   1.499   6.712  0.9512 -0.8271 -1.2353
   57GLOH    O3 8977   3.025   1.320   6.833  0.8000 -0.0228 -0.1669
   57GLOH   H01 8978   3.006   1.347   6.925  0.6506 -0.0704 -0.1837
   58GLOH   H03 8979   0.882   0.882   6.577 -4.8322  0.5952 -2.0789
   58GLOH    O1 8980   0.890   0.978   6.591 -0.1555 -0.0448  0.6842
   58GLOH    C1 8981   0.878   1.004   6.736  0.9622 -0.4658 -0.6945
   58GLOH   H02 8982   0.946   1.084   6.765 -1.1787  1.3246 -0.5193
   58GLOH   H08 8983   0.914   0.916   6.790 -2.0984  0.3550  2.8612
   58GLOH    C2 8984   0.733   1.051   6.779 -0.2881  0.1882  0.7193
   58GLOH   H04 8985   0.666   0.971   6.744  0.2400  0.0511 -0.0182
   58GLOH    O2 8986   0.714   1.070   6.920  0.2019 -0.2808  0.4063
   58GLOH   H05 8987   0.738   0.989   6.968 -1.6615  0.0184  1.8822
   58GLOH    C3 8988   0.683   1.171   6.696  0.0373 -0.0907 -0.1964
   58GLOH   H06 8989   0.720   1.261   6.744  1.0550 -0.9868  0.7319
   58GLOH   H07 8990   0.574   1.163   6.702  0.2396 -1.4918  1.9646
   58GLOH    O3 8991   0.722   1.170   6.561  0.4696  0.4514  0.1645
   58GLOH   H01 8992   0.798   1.115   6.535  0.5147  1.3675 -1.7822
   59GLOH   H03 8993   5.981   0.451   1.862 -0.2230 -1.0133 -0.9711
   59GLOH    O1 8994   6.075   0.425   1.865  0.0176 -0.0502  0.0047
   59GLOH    C1 8995   6.076   0.282   1.864  0.1873 -0.1513 -0.1883
   59GLOH   H02 8996   6.178   0.245   1.850  0.4500 -1.1758  3.8037
   59GLOH   H08 8997   6.021   0.244   1.778 -0.2578  0.8527 -0.3565
   59GLOH    C2 8998   6.020   0.208   1.983 -0.0914 -0.1737 -0.7965
   59GLOH   H04 8999   5.914   0.237   1.991 -0.0500  0.0586 -1.0790
   59GLOH    O2 9000   6.026   0.066   1.968 -0.3309 -0.4075  0.0768
   59GLOH   H05 9001   5.947   0.036   1.920  0.6741 -1.8218 -0.7076
   59GLOH    C3 9002   6.105   0.254   2.103  0.3543  0.5951 -0.4846
   59GLOH   H06 9003   6.209   0.245   2.071  0.2031  0.4575 -0.9300
   59GLOH   H07 9004   6.090   0.192   2.192 -2.1882  1.3340 -0.3766
   59GLOH    O3 9005   6.075   0.389   2.133 -0.3927  0.2740  0.0205
   59GLOH   H01 9006   6.111   0.445   2.062 -0.3224 -1.3421 -1.2511
   60GLOH   H03 9007   9.375   1.945   0.324 -1.1446 -0.0182  0.0022
   60GLOH    O1 9008   9.327   1.960   0.240  0.0082 -0.5941 -0.7761
   60GLOH    C1 9009   9.410   2.042   0.158  0.0429 -0.0949 -0.4298
   60GLOH   H02 9010   9.444   1.987   0.071  0.0458 -0.6305 -0.0923
   60GLOH   H08 9011   9.505   2.071   0.204 -0.7861 -0.1802  1.4016
   60GLOH    C2 9012   9.336   2.170   0.112 -0.5602 -0.2987  0.2293
   60GLOH   H04 9013   9.236   2.144   0.075 -0.0393  1.3125 -2.4467
   60GLOH    O2 9014   9.325   2.272   0.214 -0.2049  0.1328  0.0384
   60GLOH   H05 9015   9.419   2.297   0.225  0.4207 -0.6757 -2.8336
   60GLOH    C3 9016   9.407   2.238  -0.008  0.3466 -0.2667  0.3776
   60GLOH   H06 9017   9.515   2.245   0.008  1.0396 -2.4451 -3.0656
   60GLOH   H07 9018   9.373   2.341  -0.016  1.6390 -0.0064 -2.0465
   60GLOH    O3 9019   9.392   2.170  -0.136 -0.1548 -0.1200  0.2143
   60GLOH   H01 9020   9.471   2.197  -0.186 -0.3091 -0.0067  0.0290
   61GLOH   H03 9021   5.056   1.776   5.983  3.2075  1.4218  1.9342
   61GLOH    O1 9022   5.114   1.749   5.909  0.2539 -0.1388  0.1093
   61GLOH    C1 9023   5.084   1.839   5.797 -0.1332  0.2313  0.4227
   61GLOH   H02 9024   5.021   1.784   5.727  0.7019 -0.8483  0.4987
   61GLOH   H08 9025   5.173   1.857   5.736 -0.1790  2.5004  0.9960
   61GLOH    C2 9026   5.019   1.974   5.840  1.0619 -0.1502  0.1804
   61GLOH   H04 9027   5.102   2.018   5.898  0.6972  0.3056  0.3589
   61GLOH    O2 9028   4.995   2.067   5.729 -0.5672  0.2603  0.0184
   61GLOH   H05 9029   5.074   2.066   5.672 -1.4084 -1.2033 -1.1345
   61GLOH    C3 9030   4.904   1.956   5.935  0.5467 -0.3061 -0.1160
   61GLOH   H06 9031   4.832   1.898   5.878  1.6555  0.0010 -1.8654
   61GLOH   H07 9032   4.866   2.054   5.963  4.5984  1.1573  0.6786
   61GLOH    O3 9033   4.953   1.883   6.044 -0.1063 -0.2595 -0.2719
   61GLOH   H01 9034   4.875   1.847   6.090  0.6519  1.0190  2.0842
   62GLOH   H03 9035   6.834   1.233   2.092 -0.8334  0.0837  1.3796
   62GLOH    O1 9036   6.775   1.185   2.031  0.7690 -0.1403 -0.0081
   62GLOH    C1 9037   6.694   1.087   2.100  0.2965  0.6398 -0.2846
   62GLOH   H02 9038   6.639   1.135   2.181  0.9827  2.3832 -0.8413
   62GLOH   H08 9039   6.754   1.006   2.140  2.5026  1.8987 -0.9717
   62GLOH    C2 9040   6.582   1.033   2.001  0.4782 -1.0176  0.6537
   62GLOH   H04 9041   6.631   1.006   1.906  0.0494 -1.7830  0.6420
   62GLOH    O2 9042   6.530   0.910   2.057  0.5167 -0.5546 -0.1768
   62GLOH   H05 9043   6.599   0.842   2.054 -0.3483 -1.4848  0.5610
   62GLOH    C3 9044   6.468   1.136   1.980  0.1430  0.3240  0.3820
   62GLOH   H06 9045   6.407   1.094   1.901  0.8025 -0.5837  0.3451
   62GLOH   H07 9046   6.504   1.231   1.941  0.4984  0.5030  1.1330
   62GLOH    O3 9047   6.397   1.173   2.101  0.1983 -0.2996 -0.1266
   62GLOH   H01 9048   6.301   1.169   2.085 -0.1654  0.7661  1.7212
   63GLOH   H03 9049   5.936   7.417   4.991  1.5234  2.5069 -1.6975
   63GLOH    O1 9050   5.925   7.382   4.901 -0.2806  0.0919 -0.5899
   63GLOH    C1 9051   6.002   7.260   4.883 -0.1740 -0.3025  0.1466
   63GLOH   H02 9052   5.984   7.240   4.778  1.0186 -0.0573 -0.1062
   63GLOH   H08 9053   5.972   7.177   4.948 -1.5445 -0.4040 -0.6123
   63GLOH    C2 9054   6.154   7.267   4.902  0.0954 -0.8091 -0.2809
   63GLOH   H04 9055   6.194   7.345   4.836 -3.4494  0.8113 -0.6173
   63GLOH    O2 9056   6.190   7.293   5.041  0.5357 -0.3247 -0.0931
   63GLOH   H05 9057   6.121   7.307   5.109  0.0849  2.6077 -1.0843
   63GLOH    C3 9058   6.211   7.135   4.846 -0.3886  0.4716  0.2415
   63GLOH   H06 9059   6.157   7.055   4.897 -1.8241  1.5270  0.4104
   63GLOH   H07 9060   6.317   7.125   4.868 -0.5474 -1.9562  0.0089
   63GLOH    O3 9061   6.198   7.109   4.709 -0.6371 -0.1841  0.1765
   63GLOH   H01 9062   6.237   7.020   4.697  0.2739  0.0323  1.4043
   64GLOH   H03 9063   0.970   1.192   4.691  0.5494  2.4067  0.9538
   64GLOH    O1 9064   1.038   1.177   4.623 -1.1785  0.7912 -0.4645
   64GLOH    C1 9065   1.039   1.292   4.530  0.8592  0.7285  0.1958
   64GLOH   H02 9066   0.984   1.378   4.567 -0.4784 -0.0535  0.0489
   64GLOH   H08 9067   0.995   1.267   4.433 -1.0514 -0.0801  1.2417
   64GLOH    C2 9068   1.180   1.322   4.486  0.6833  0.4322  0.4826
   64GLOH   H04 9069   1.244   1.323   4.575 -0.8031 -0.0115  1.5553
   64GLOH    O2 9070   1.240   1.220   4.398  0.5255 -0.1037  0.5521
   64GLOH   H05 9071   1.260   1.144   4.455  2.5484  0.2828  0.3940
   64GLOH    C3 9072   1.182   1.458   4.419  0.7163 -0.3182  0.0989
   64GLOH   H06 9073   1.100   1.458   4.347 -0.3233 -1.1944  1.2597
   64GLOH   H07 9074   1.274   1.471   4.363  0.3276  3.0052  0.1463
   64GLOH    O3 9075   1.159   1.568   4.508  0.0976  0.4897  0.5106
   64GLOH   H01 9076   1.156   1.544   4.602  0.2235  1.0393  0.6550
   65GLOH   H03 9077   4.787   7.301   4.278  0.6068  2.0919 -0.5479
   65GLOH    O1 9078   4.836   7.252   4.209  0.4315  0.9413  0.1257
   65GLOH    C1 9079   4.979   7.287   4.230  0.4408  0.0410  0.5394
   65GLOH   H02 9080   5.045   7.227   4.167 -0.3925 -0.1003 -0.2089
   65GLOH   H08 9081   5.006   7.260   4.332  0.2041  2.1836  1.1925
   65GLOH    C2 9082   5.015   7.441   4.220 -0.5023  0.1291  0.6137
   65GLOH   H04 9083   4.940   7.500   4.275 -0.4040 -1.5241  2.5918
   65GLOH    O2 9084   5.151   7.471   4.261 -0.2112 -0.5494 -0.0638
   65GLOH   H05 9085   5.208   7.409   4.212  1.0532 -0.1558  0.8817
   65GLOH    C3 9086   4.987   7.498   4.077 -0.7416  0.1770  0.2297
   65GLOH   H06 9087   5.036   7.594   4.067 -0.6931  0.3868  2.2981
   65GLOH   H07 9088   4.880   7.513   4.059 -0.9419 -0.9104  0.4562
   65GLOH    O3 9089   5.044   7.406   3.978 -0.0941 -0.0174 -0.1938
   65GLOH   H01 9090   5.140   7.405   3.999  0.3259  1.7938 -1.8632
   66GLOH   H03 9091   3.619   4.627   3.878  0.3409 -0.2837 -0.3140
   66GLOH    O1 9092   3.591   4.596   3.967 -0.3124 -0.1747 -0.4828
   66GLOH    C1 9093   3.670   4.475   3.989  0.3745  0.1830 -0.2288
   66GLOH   H02 9094   3.638   4.397   3.919 -1.5502 -0.1651  0.9935
   66GLOH   H08 9095   3.645   4.436   4.088 -2.1410 -0.3627 -1.0349
   66GLOH    C2 9096   3.823   4.496   3.981  0.1785  0.4882 -0.4879
   66GLOH   H04 9097   3.848   4.573   4.055 -1.8388  0.3232  0.3907
   66GLOH    O2 9098   3.889   4.372   4.012  0.0129  0.4632  0.0058
   66GLOH   H05 9099   3.863   4.360   4.105  0.2637 -1.7210 -0.1613
   66GLOH    C3 9100   3.855   4.543   3.840 -0.3174  0.1813  0.2666
   66GLOH   H06 9101   3.805   4.479   3.768 -0.0788 -1.1359  1.2433
   66GLOH   H07 9102   3.959   4.521   3.816 -0.5616 -1.6457  0.8305
   66GLOH    O3 9103   3.817   4.680   3.810  0.4628 -0.1351  0.2210
   66GLOH   H01 9104   3.857   4.696   3.722 -0.1018  0.2909  0.0426
   67GLOH   H03 9105   6.550   7.153   5.173  1.4645 -0.3227  0.0302
   67GLOH    O1 9106   6.598   7.075   5.205  0.2146 -1.1698 -0.1395
   67GLOH    C1 9107   6.722   7.110   5.279 -0.0033 -0.1292 -0.8230
   67GLOH   H02 9108   6.732   7.041   5.363  1.9537  2.9165  1.5840
   67GLOH   H08 9109   6.709   7.209   5.324  0.9655 -0.0017 -0.8018
   67GLOH    C2 9110   6.850   7.118   5.184 -0.1808  0.7315  0.3374
   67GLOH   H04 9111   6.860   7.200   5.111  2.0736 -0.2503 -0.5026
   67GLOH    O2 9112   6.961   7.141   5.277  0.4709  0.5547 -0.4656
   67GLOH   H05 9113   7.027   7.202   5.241  1.7169 -1.9987 -2.7115
   67GLOH    C3 9114   6.857   6.985   5.111 -0.6780 -0.2708  1.1443
   67GLOH   H06 9115   6.857   6.899   5.177 -1.9552  1.0086  2.8756
   67GLOH   H07 9116   6.947   6.984   5.050 -1.2092  1.2236  0.2874
   67GLOH    O3 9117   6.749   6.960   5.020  0.2114  0.1881  0.2013
   67GLOH   H01 9118   6.675   6.992   5.076  1.4393  1.7228  0.9681
   68GLOH   H03 9119   0.034   5.633   2.902  0.3528 -1.3475 -0.0642
   68GLOH    O1 9120  -0.017   5.603   2.980  0.0019 -0.0937  0.1895
   68GLOH    C1 9121   0.032   5.673   3.093 -0.8233  0.6622 -0.4219
   68GLOH   H02 9122   0.117   5.613   3.127 -0.3613  1.4167 -0.2285
   68GLOH   H08 9123  -0.048   5.692   3.164 -0.9755 -2.3742  0.2781
   68GLOH    C2 9124   0.082   5.815   3.066 -0.4893  0.0094 -0.1482
   68GLOH   H04 9125   0.007   5.874   3.011 -2.5047 -3.8665 -1.7351
   68GLOH    O2 9126   0.128   5.886   3.183 -0.0636 -0.4240 -0.0115
   68GLOH   H05 9127   0.092   5.976   3.184  1.5068  0.2255 -0.4106
   68GLOH    C3 9128   0.189   5.816   2.963  0.4902  0.5700  0.8758
   68GLOH   H06 9129   0.273   5.758   3.002  0.6079  0.3918  0.3494
   68GLOH   H07 9130   0.231   5.915   2.942  0.0733 -0.0757 -3.3626
   68GLOH    O3 9131   0.140   5.761   2.835 -0.0991  0.5174 -0.8251
   68GLOH   H01 9132   0.222   5.737   2.788  0.8857 -2.1781  2.0832
   69GLOH   H03 9133   5.211   3.688   3.214  1.7012 -2.3143  2.1937
   69GLOH    O1 9134   5.209   3.748   3.291  0.5866 -0.0295  0.4087
   69GLOH    C1 9135   5.134   3.697   3.406 -0.8276 -0.6202 -0.4929
   69GLOH   H02 9136   5.130   3.775   3.482  0.1222 -0.2324 -0.8174
   69GLOH   H08 9137   5.186   3.611   3.449  2.2338  1.7739  0.8397
   69GLOH    C2 9138   4.996   3.642   3.371  0.0202 -0.3521 -0.2809
   69GLOH   H04 9139   4.942   3.715   3.309  1.0525  0.3603 -0.3568
   69GLOH    O2 9140   5.018   3.517   3.307  0.3417 -0.3427  0.4298
   69GLOH   H05 9141   5.100   3.522   3.255  0.3030 -0.8241  0.3271
   69GLOH    C3 9142   4.917   3.627   3.505  0.3515 -0.5471 -0.2822
   69GLOH   H06 9143   4.964   3.552   3.569 -2.6161 -0.7891  1.7013
   69GLOH   H07 9144   4.818   3.592   3.478 -0.2905  0.2849  0.9423
   69GLOH    O3 9145   4.907   3.751   3.582 -0.3999 -0.5106 -0.1111
   69GLOH   H01 9146   4.856   3.814   3.528 -4.6187 -3.2625  0.3963
   70GLOH   H03 9147   4.820   5.530   1.382 -0.0773 -0.8834 -2.3855
   70GLOH    O1 9148   4.765   5.470   1.435  0.1486  0.7533 -0.2230
   70GLOH    C1 9149   4.638   5.423   1.387 -0.4688 -0.0215  0.3424
   70GLOH   H02 9150   4.583   5.498   1.330  1.3545  1.9233  1.0822
   70GLOH   H08 9151   4.568   5.403   1.468 -0.9244  0.1588 -0.0029
   70GLOH    C2 9152   4.648   5.284   1.317  0.2646 -0.0709 -0.3822
   70GLOH   H04 9153   4.697   5.221   1.393  0.5737 -1.4412 -1.6956
   70GLOH    O2 9154   4.517   5.225   1.301  0.7236  0.4290 -1.1782
   70GLOH   H05 9155   4.531   5.129   1.306  0.8508  0.4993 -0.0185
   70GLOH    C3 9156   4.724   5.291   1.186  0.3506  0.5497  0.5696
   70GLOH   H06 9157   4.709   5.193   1.140  1.0515  1.6238 -2.0243
   70GLOH   H07 9158   4.831   5.298   1.204  0.5500  2.3340 -1.1688
   70GLOH    O3 9159   4.678   5.400   1.105 -0.2502 -1.1914  0.1530
   70GLOH   H01 9160   4.744   5.472   1.104  1.7370 -2.9421  1.9769
   71GLOH   H03 9161   4.707   7.816   6.118 -0.7242 -4.6143  2.3005
   71GLOH    O1 9162   4.792   7.826   6.165  0.2503  0.3476 -0.1371
   71GLOH    C1 9163   4.873   7.916   6.100  0.5603 -0.5390  0.0666
   71GLOH   H02 9164   4.890   7.896   5.994 -0.5032  0.1642 -0.2437
   71GLOH   H08 9165   4.971   7.895   6.143  0.1695  1.3551  1.9638
   71GLOH    C2 9166   4.821   8.061   6.107  0.3661  0.3722  0.2682
   71GLOH   H04 9167   4.713   8.063   6.089 -0.0660 -1.7088  2.4205
   71GLOH    O2 9168   4.848   8.116   6.240 -0.6154  0.0660 -0.6623
   71GLOH   H05 9169   4.828   8.057   6.315 -1.3445 -0.0625 -0.9587
   71GLOH    C3 9170   4.886   8.143   5.994  0.1266  0.5532  0.8605
   71GLOH   H06 9171   4.995   8.142   6.005  0.7062 -2.1732 -4.0897
   71GLOH   H07 9172   4.865   8.249   6.010  0.0249  1.0036 -2.1377
   71GLOH    O3 9173   4.845   8.103   5.863  0.4192  0.1839 -0.6634
   71GLOH   H01 9174   4.898   8.154   5.799  1.5472 -0.1517 -0.0125
   72GLOH   H03 9175   1.221   7.757   0.567 -2.1703 -1.6344  0.3033
   72GLOH    O1 9176   1.271   7.677   0.542  0.1448 -0.2653  0.4732
   72GLOH    C1 9177   1.229   7.661   0.406 -0.4152  0.2411  0.0968
   72GLOH   H02 9178   1.120   7.656   0.395 -0.6911  2.1865  1.5835
   72GLOH   H08 9179   1.265   7.561   0.380 -4.0579 -1.0152 -0.4285
   72GLOH    C2 9180   1.272   7.773   0.305  0.1458  0.0536  0.1457
   72GLOH   H04 9181   1.238   7.872   0.339 -0.7869  0.1020 -0.9152
   72GLOH    O2 9182   1.416   7.775   0.288  0.1273  0.0867 -0.2169
   72GLOH   H05 9183   1.441   7.686   0.259  0.4307  0.5440 -1.3819
   72GLOH    C3 9184   1.200   7.757   0.167  0.5335  0.1432  0.0184
   72GLOH   H06 9185   1.213   7.659   0.122  0.8287 -0.2731  0.9908
   72GLOH   H07 9186   1.244   7.823   0.092 -0.7168 -0.4503 -1.2634
   72GLOH    O3 9187   1.062   7.779   0.190  0.0043 -0.4173  0.0929
   72GLOH   H01 9188   1.015   7.800   0.107  0.9923 -1.0357 -0.6384
   73GLOH   H03 9189   8.415   1.339   1.932  0.6251 -0.9890  1.7593
   73GLOH    O1 9190   8.416   1.260   1.874  0.3568  0.0669  0.2943
   73GLOH    C1 9191   8.412   1.139   1.943 -0.8978  1.1799 -0.0661
   73GLOH   H02 9192   8.316   1.090   1.932 -0.0182 -1.2159  2.3867
   73GLOH   H08 9193   8.433   1.153   2.049 -0.3151 -0.1007 -0.0112
   73GLOH    C2 9194   8.534   1.049   1.902  0.0927 -0.2939  0.0132
   73GLOH   H04 9195   8.629   1.093   1.935 -0.0923 -0.1166  0.3098
   73GLOH    O2 9196   8.521   0.925   1.967 -0.5892 -0.0048  0.0039
   73GLOH   H05 9197   8.433   0.885   1.958 -0.5455 -0.3778  1.1574
   73GLOH    C3 9198   8.535   1.026   1.749  0.8644 -0.8334 -0.2236
   73GLOH   H06 9199   8.542   1.126   1.706  1.9210 -0.4409  0.8354
   73GLOH   H07 9200   8.446   0.977   1.709  0.5493  0.0684 -0.6538
   73GLOH    O3 9201   8.649   0.953   1.708  0.3086 -0.0302 -0.3017
   73GLOH   H01 9202   8.705   1.022   1.668  0.7277 -0.4519 -0.4482
   74GLOH   H03 9203   3.406   4.789   0.161  1.4289 -0.0783  1.1571
   74GLOH    O1 9204   3.366   4.704   0.185 -0.6992  0.4131 -0.4667
   74GLOH    C1 9205   3.401   4.605   0.088 -0.4681  0.0501  0.4095
   74GLOH   H02 9206   3.440   4.518   0.140  0.6591  1.3103  1.7251
   74GLOH   H08 9207   3.476   4.639   0.016 -0.3108  2.2150  1.5540
   74GLOH    C2 9208   3.280   4.562   0.004  0.4071 -0.0425  0.0179
   74GLOH   H04 9209   3.238   4.647  -0.051 -0.4262  1.1681  2.4528
   74GLOH    O2 9210   3.321   4.466  -0.096  0.2383 -0.0784  0.2337
   74GLOH   H05 9211   3.242   4.443  -0.147 -1.1477  2.2379  1.2905
   74GLOH    C3 9212   3.162   4.507   0.091  0.5995  0.1585  0.2030
   74GLOH   H06 9213   3.192   4.412   0.134 -2.7133 -1.8865 -1.7336
   74GLOH   H07 9214   3.068   4.497   0.036  0.7039 -1.3053  0.2826
   74GLOH    O3 9215   3.137   4.597   0.202 -0.3926 -0.1197  0.3758
   74GLOH   H01 9216   3.224   4.643   0.208 -1.0490  1.2331 -0.1795
   75GLOH   H03 9217   3.027   4.892   4.081  0.3702 -0.0840  0.1756
   75GLOH    O1 9218   3.013   4.860   4.172  0.3747 -0.4573  0.0461
   75GLOH    C1 9219   2.938   4.739   4.177 -0.1714  0.4999 -0.2544
   75GLOH   H02 9220   2.944   4.686   4.272  1.0325  1.4754  0.2331
   75GLOH   H08 9221   3.003   4.678   4.115  0.7038 -0.1159  1.2224
   75GLOH    C2 9222   2.790   4.748   4.137 -0.2101  0.1134  0.1168
   75GLOH   H04 9223   2.791   4.779   4.031  1.4150 -2.1870 -0.6034
   75GLOH    O2 9224   2.724   4.615   4.158 -0.0512 -0.0047 -0.2395
   75GLOH   H05 9225   2.685   4.613   4.247  0.7606  1.9322  0.2036
   75GLOH    C3 9226   2.726   4.862   4.220  0.5552  0.7368  0.4321
   75GLOH   H06 9227   2.789   4.949   4.200 -1.4625  2.2385  0.4141
   75GLOH   H07 9228   2.731   4.829   4.324 -1.7320 -0.6689  0.1196
   75GLOH    O3 9229   2.595   4.900   4.187  0.1431  0.0144 -0.1823
   75GLOH   H01 9230   2.572   4.982   4.234  0.4528  0.3213 -0.5636
   76GLOH   H03 9231   7.857   6.505   4.304 -0.4497  1.4444  0.9136
   76GLOH    O1 9232   7.769   6.463   4.296  0.3608 -0.1506  0.1612
   76GLOH    C1 9233   7.712   6.495   4.167 -0.2098 -0.2725 -0.9581
   76GLOH   H02 9234   7.644   6.580   4.176  2.5540  1.9632 -0.6328
   76GLOH   H08 9235   7.645   6.417   4.132 -0.6794 -0.9448  1.3770
   76GLOH    C2 9236   7.812   6.525   4.056 -0.1443  0.1312  0.4512
   76GLOH   H04 9237   7.889   6.600   4.079  0.9873 -1.0789  0.6557
   76GLOH    O2 9238   7.889   6.401   4.028 -0.2739 -0.0073  0.6918
   76GLOH   H05 9239   7.932   6.368   4.108 -0.0254 -1.6594 -0.0964
   76GLOH    C3 9240   7.743   6.564   3.925  0.1666 -0.2633  1.1388
   76GLOH   H06 9241   7.665   6.491   3.902  0.4444 -0.3769  0.5393
   76GLOH   H07 9242   7.812   6.551   3.842 -0.1121  1.6250  0.5951
   76GLOH    O3 9243   7.679   6.692   3.921 -0.3376  0.4686 -0.5351
   76GLOH   H01 9244   7.751   6.756   3.904  1.8073 -2.2774 -2.2790
   77GLOH   H03 9245   1.232   8.640   3.491  0.1211 -1.2174 -0.7548
   77GLOH    O1 9246   1.135   8.634   3.492  0.0199  0.2828  0.3141
   77GLOH    C1 9247   1.095   8.563   3.379  0.1037  0.3368  0.4872
   77GLOH   H02 9248   1.163   8.480   3.360  0.8153  0.6974  1.4571
   77GLOH   H08 9249   1.109   8.628   3.292 -0.7120 -0.8868 -0.5838
   77GLOH    C2 9250   0.953   8.509   3.383  0.2111  0.5505  0.1250
   77GLOH   H04 9251   0.898   8.538   3.474 -1.1065 -0.5326 -0.3172
   77GLOH    O2 9252   0.872   8.548   3.269  0.2043 -0.2144 -0.2634
   77GLOH   H05 9253   0.920   8.528   3.187  1.3584 -1.0316  0.6003
   77GLOH    C3 9254   0.957   8.354   3.393 -0.4370  0.2553 -0.1627
   77GLOH   H06 9255   0.857   8.318   3.419 -0.4589 -0.1643 -0.8177
   77GLOH   H07 9256   1.019   8.331   3.480  1.5255 -1.8045 -2.0594
   77GLOH    O3 9257   1.003   8.288   3.273  0.0279 -0.0825  0.0484
   77GLOH   H01 9258   0.997   8.342   3.192  1.6776 -1.3529 -0.9458
   78GLOH   H03 9259   9.498   9.304   3.585 -1.9619  1.7362 -1.5176
   78GLOH    O1 9260   9.557   9.374   3.553  0.5281  0.3262 -0.1896
   78GLOH    C1 9261   9.532   9.377   3.413 -0.6931  0.0454  0.3134
   78GLOH   H02 9262   9.468   9.295   3.380 -2.0246  0.5590  1.5227
   78GLOH   H08 9263   9.628   9.361   3.365 -1.7865 -2.8656 -1.0442
   78GLOH    C2 9264   9.482   9.512   3.355 -0.5152  0.3333 -0.0269
   78GLOH   H04 9265   9.561   9.580   3.389 -0.3101  0.9358 -1.6603
   78GLOH    O2 9266   9.471   9.515   3.211 -0.3183 -0.1528 -0.0898
   78GLOH   H05 9267   9.380   9.509   3.178 -0.6140 -0.9312  0.8497
   78GLOH    C3 9268   9.354   9.541   3.423  0.0959 -0.0554  0.5814
   78GLOH   H06 9269   9.313   9.621   3.360 -1.0216 -2.9776 -2.5823
   78GLOH   H07 9270   9.383   9.588   3.517  0.0441  0.1483  0.4988
   78GLOH    O3 9271   9.245   9.444   3.449  0.0602  0.1452 -0.2841
   78GLOH   H01 9272   9.159   9.488   3.434 -1.0409 -1.6872  0.5420
   79GLOH   H03 9273   0.367   2.883   1.831  0.8881 -4.1218  1.4317
   79GLOH    O1 9274   0.423   2.926   1.898  0.0570 -0.7195  0.0587
   79GLOH    C1 9275   0.527   2.838   1.938 -0.0564 -0.3482  0.2073
   79GLOH   H02 9276   0.596   2.813   1.857 -0.4497 -2.3908  0.4696
   79GLOH   H08 9277   0.478   2.747   1.974  0.9147 -1.2659 -0.7243
   79GLOH    C2 9278   0.600   2.902   2.058 -0.2818  0.4195 -0.2772
   79GLOH   H04 9279   0.526   2.917   2.138  3.2453 -0.8987  3.4438
   79GLOH    O2 9280   0.698   2.800   2.097  0.6081 -0.3755  0.2607
   79GLOH   H05 9281   0.708   2.803   2.193 -0.6597  1.0595  0.3678
   79GLOH    C3 9282   0.653   3.041   2.022 -0.3668  0.0953 -0.1343
   79GLOH   H06 9283   0.569   3.104   1.996 -0.2388 -0.2964 -1.5380
   79GLOH   H07 9284   0.726   3.031   1.941  1.2759 -0.2693  1.3386
   79GLOH    O3 9285   0.717   3.112   2.129  0.3806  0.2227 -0.5079
   79GLOH   H01 9286   0.807   3.073   2.137  1.9974  3.6121 -1.1607
   80GLOH   H03 9287   6.524   1.026   6.711 -1.3815  1.8629 -1.0711
   80GLOH    O1 9288   6.524   0.962   6.638  0.1376 -0.0070  0.4960
   80GLOH    C1 9289   6.651   0.931   6.583  0.1501  0.4313  0.6385
   80GLOH   H02 9290   6.650   0.840   6.523 -0.1875  0.0778  1.1702
   80GLOH   H08 9291   6.724   0.922   6.664 -0.5069  1.1844  1.3209
   80GLOH    C2 9292   6.696   1.051   6.492 -0.0233 -0.0753  0.0801
   80GLOH   H04 9293   6.630   1.065   6.406  1.3476  2.9619 -0.5792
   80GLOH    O2 9294   6.698   1.174   6.572 -0.5134  0.0834 -0.2339
   80GLOH   H05 9295   6.630   1.170   6.642 -0.9931  0.4837 -0.6673
   80GLOH    C3 9296   6.835   1.035   6.434  0.8042  0.5365 -0.3407
   80GLOH   H06 9297   6.837   0.934   6.395 -0.0444 -1.1176  3.7270
   80GLOH   H07 9298   6.910   1.040   6.514 -0.4187  2.8484  0.7148
   80GLOH    O3 9299   6.877   1.130   6.334  0.5169 -0.4655  0.3261
   80GLOH   H01 9300   6.829   1.215   6.332 -0.5158 -1.0081  1.4558
   81GLOH   H03 9301   4.543   2.995   0.963  0.3752 -1.4375  1.6366
   81GLOH    O1 9302   4.612   2.949   0.912  0.0746  0.3675 -0.5083
   81GLOH    C1 9303   4.549   2.859   0.811 -0.9485  0.0632  0.4370
   81GLOH   H02 9304   4.507   2.916   0.728  0.2589 -0.9000 -0.8448
   81GLOH   H08 9305   4.457   2.814   0.848 -0.6547 -2.6713 -2.0067
   81GLOH    C2 9306   4.642   2.749   0.761  0.4317  0.1631  0.8188
   81GLOH   H04 9307   4.688   2.686   0.839  1.2482 -0.1994  0.0456
   81GLOH    O2 9308   4.563   2.660   0.684 -0.5311  0.4623 -0.2436
   81GLOH   H05 9309   4.494   2.617   0.739 -0.0581  0.4779  0.3661
   81GLOH    C3 9310   4.765   2.798   0.687 -0.0588 -0.7037 -0.5093
   81GLOH   H06 9311   4.822   2.709   0.659  1.9299  0.1779  0.5875
   81GLOH   H07 9312   4.828   2.850   0.759 -0.9167  1.0207 -0.9836
   81GLOH    O3 9313   4.729   2.885   0.585  0.3546 -0.2677 -0.5136
   81GLOH   H01 9314   4.692   2.830   0.513 -0.5067  0.0316 -0.3013
   82GLOH   H03 9315   2.057   4.866   5.250 -0.6886  0.8813  0.1974
   82GLOH    O1 9316   1.978   4.813   5.273  0.3324 -0.5862  0.3481
   82GLOH    C1 9317   1.881   4.853   5.168  0.2862 -0.7510 -0.4655
   82GLOH   H02 9318   1.900   4.800   5.075 -1.5556 -1.4384 -0.4720
   82GLOH   H08 9319   1.877   4.960   5.150 -0.7410 -1.1638 -2.8032
   82GLOH    C2 9320   1.743   4.807   5.220 -0.6712  0.7475 -0.1542
   82GLOH   H04 9321   1.712   4.859   5.312 -1.1487 -0.7562  0.5470
   82GLOH    O2 9322   1.641   4.835   5.127 -0.4161 -0.5160  0.3503
   82GLOH   H05 9323   1.640   4.767   5.057  1.0451 -0.6975  0.4934
   82GLOH    C3 9324   1.754   4.659   5.253 -0.3376 -0.2090 -0.0076
   82GLOH   H06 9325   1.847   4.618   5.214  0.6783  0.9203  1.1817
   82GLOH   H07 9326   1.672   4.606   5.203  0.1895 -1.2036  0.1811
   82GLOH    O3 9327   1.748   4.635   5.399 -0.2760  0.1738  0.2211
   82GLOH   H01 9328   1.775   4.545   5.425 -0.5673  0.3464  1.1173
   83GLOH   H03 9329   9.231   7.182   2.291 -0.7624  0.1824 -1.4190
   83GLOH    O1 9330   9.247   7.088   2.271  0.4297  0.0162  0.1304
   83GLOH    C1 9331   9.338   7.027   2.362 -0.8561  0.0053 -0.7204
   83GLOH   H02 9332   9.283   6.974   2.439 -1.3339  1.9636  0.3087
   83GLOH   H08 9333   9.392   7.094   2.429  1.8545 -3.8021  1.1074
   83GLOH    C2 9334   9.439   6.928   2.296  0.6050 -0.2528  0.2864
   83GLOH   H04 9335   9.373   6.857   2.242 -1.0708  0.2670  1.6025
   83GLOH    O2 9336   9.522   7.006   2.213  0.1552 -0.3786  0.0044
   83GLOH   H05 9337   9.545   6.958   2.132  1.4172 -0.1483  0.2213
   83GLOH    C3 9338   9.532   6.855   2.399 -0.0742 -0.3562  0.1792
   83GLOH   H06 9339   9.595   6.934   2.438 -0.1547 -0.4410  0.4763
   83GLOH   H07 9340   9.603   6.784   2.354  1.4018  0.2794  1.4642
   83GLOH    O3 9341   9.465   6.785   2.505  0.2170  0.6034 -0.2520
   83GLOH   H01 9342   9.375   6.761   2.475  0.1579 -0.7630  0.9072
   84GLOH   H03 9343   9.665   2.850   5.694 -0.2939 -0.3619 -2.2061
   84GLOH    O1 9344   9.758   2.872   5.674 -0.0599  0.4014 -0.3137
   84GLOH    C1 9345   9.762   2.898   5.535 -0.2712 -0.3192  0.8170
   84GLOH   H02 9346   9.735   2.808   5.479 -0.2407  1.7660 -2.6943
   84GLOH   H08 9347   9.862   2.917   5.497 -0.8408 -0.3256 -0.7375
   84GLOH    C2 9348   9.673   3.014   5.488  0.3890 -0.4146  0.1281
   84GLOH   H04 9349   9.569   2.990   5.516  0.2047 -1.1066 -1.1077
   84GLOH    O2 9350   9.709   3.143   5.529 -0.2529  0.1055  0.3241
   84GLOH   H05 9351   9.672   3.211   5.471 -0.7654 -0.6596 -0.2619
   84GLOH    C3 9352   9.678   3.028   5.337  0.1267 -0.6831  0.2083
   84GLOH   H06 9353   9.764   3.085   5.302 -1.1322  1.2159  0.1409
   84GLOH   H07 9354   9.596   3.093   5.305  1.5093  0.2925 -1.4097
   84GLOH    O3 9355   9.665   2.912   5.261 -0.5456  0.0097  0.0640
   84GLOH   H01 9356   9.580   2.878   5.296  0.7134 -3.5798 -0.1508
   85GLOH   H03 9357   6.982   1.259   5.874  1.6372 -1.0284  2.8055
   85GLOH    O1 9358   6.949   1.343   5.909  0.2477 -0.3957  0.0666
   85GLOH    C1 9359   7.001   1.445   5.822  0.1201 -0.7449  0.5092
   85GLOH   H02 9360   6.988   1.432   5.715 -0.9448 -1.1146  0.6712
   85GLOH   H08 9361   7.108   1.452   5.843  0.2854  1.1022 -0.8443
   85GLOH    C2 9362   6.938   1.578   5.871 -0.4749 -0.0222  0.0804
   85GLOH   H04 9363   6.832   1.558   5.893  0.4867 -1.9127  3.2762
   85GLOH    O2 9364   7.005   1.624   5.989 -0.3125 -0.2123 -0.8570
   85GLOH   H05 9365   7.007   1.552   6.054 -0.6385  0.3447 -0.2304
   85GLOH    C3 9366   6.935   1.693   5.768 -0.1894 -0.0653  0.7215
   85GLOH   H06 9367   7.039   1.717   5.743 -0.2242 -0.9218 -0.2638
   85GLOH   H07 9368   6.897   1.783   5.814  0.2562 -1.0046  2.9845
   85GLOH    O3 9369   6.868   1.660   5.649 -0.5445  0.0627  0.3794
   85GLOH   H01 9370   6.926   1.648   5.572 -1.2718  0.5814 -0.2640
   86GLOH   H03 9371   6.306   1.798   3.699 -0.2522  0.4209  0.8397
   86GLOH    O1 9372   6.225   1.814   3.646  0.0031 -0.2680  0.2328
   86GLOH    C1 9373   6.111   1.835   3.733 -1.1886 -0.8973  0.2001
   86GLOH   H02 9374   6.042   1.909   3.692  0.9121  2.0864  1.8534
   86GLOH   H08 9375   6.141   1.862   3.834 -3.4099  1.1236  0.3723
   86GLOH    C2 9376   6.026   1.703   3.750 -0.3270  0.1386 -0.2000
   86GLOH   H04 9377   6.091   1.626   3.793  0.8371 -0.1618 -2.3940
   86GLOH    O2 9378   5.919   1.727   3.843 -0.5166 -0.0265 -0.0629
   86GLOH   H05 9379   5.842   1.669   3.832  0.0176 -0.8365  0.3821
   86GLOH    C3 9380   5.974   1.661   3.614 -0.3161  0.3871 -0.3492
   86GLOH   H06 9381   5.902   1.739   3.593  0.5274  1.2765  0.0147
   86GLOH   H07 9382   5.911   1.572   3.622 -0.9324  0.9817  1.5993
   86GLOH    O3 9383   6.071   1.650   3.513  0.0431 -0.1392 -0.0067
   86GLOH   H01 9384   6.140   1.713   3.542 -0.4417  1.3758 -2.0607
   87GLOH   H03 9385   7.333   3.172   2.443 -0.4821 -1.7721  0.0180
   87GLOH    O1 9386   7.281   3.216   2.513  0.2836 -0.4162 -0.2549
   87GLOH    C1 9387   7.381   3.256   2.611  0.2339  0.1883  0.3517
   87GLOH   H02 9388   7.435   3.345   2.581  0.6542 -0.8276 -1.9943
   87GLOH   H08 9389   7.456   3.178   2.621 -0.2608 -0.6544 -2.2002
   87GLOH    C2 9390   7.329   3.307   2.752 -0.5527 -0.1429 -0.7137
   87GLOH   H04 9391   7.264   3.391   2.723 -2.1783  0.0335  3.1646
   87GLOH    O2 9392   7.261   3.198   2.809  0.0482 -0.3844  0.0537
   87GLOH   H05 9393   7.166   3.211   2.791 -0.0332 -0.3397  0.5205
   87GLOH    C3 9394   7.445   3.356   2.837  0.6008  0.1357  0.0218
   87GLOH   H06 9395   7.511   3.271   2.854  0.2626 -0.1549 -0.1043
   87GLOH   H07 9396   7.398   3.378   2.933  3.5058  0.1967  1.4830
   87GLOH    O3 9397   7.513   3.467   2.787  0.1623 -0.0226 -0.7606
   87GLOH   H01 9398   7.572   3.449   2.711 -0.8082 -0.7409 -1.3462
   88GLOH   H03 9399   9.093   8.040   2.933 -0.4068  1.3325  1.1066
   88GLOH    O1 9400   9.008   8.080   2.908 -0.1407  1.0947 -0.2070
   88GLOH    C1 9401   8.906   7.995   2.976  0.5872  0.2453  0.2527
   88GLOH   H02 9402   8.904   7.889   2.950 -1.7803  0.8628 -2.3360
   88GLOH   H08 9403   8.809   8.033   2.942 -0.2495 -3.3419 -1.6346
   88GLOH    C2 9404   8.908   8.003   3.135  0.3255 -0.0728  0.5919
   88GLOH   H04 9405   9.015   8.005   3.163  0.8271 -1.9802 -1.0680
   88GLOH    O2 9406   8.852   8.124   3.188  0.3779 -0.0786  0.1142
   88GLOH   H05 9407   8.896   8.197   3.141 -1.3548  0.4477 -0.7270
   88GLOH    C3 9408   8.833   7.880   3.186 -0.2910  0.0336 -0.2683
   88GLOH   H06 9409   8.756   7.847   3.116 -1.9293 -0.2459  1.6235
   88GLOH   H07 9410   8.778   7.912   3.275 -0.1782  0.3463 -0.3093
   88GLOH    O3 9411   8.913   7.775   3.226 -0.9508  0.2305  0.2830
   88GLOH   H01 9412   8.924   7.782   3.323  1.6979  0.8616 -0.0251
   89GLOH   H03 9413   7.528   8.883   1.899 -1.8293  0.4624 -3.3117
   89GLOH    O1 9414   7.530   8.788   1.879  0.1437 -0.2242 -0.0480
   89GLOH    C1 9415   7.619   8.772   1.766 -0.9419  0.1810  0.2937
   89GLOH   H02 9416   7.614   8.673   1.720  1.7641 -0.5602  1.5365
   89GLOH   H08 9417   7.724   8.783   1.794 -0.9627 -1.2886  1.0262
   89GLOH    C2 9418   7.590   8.880   1.659 -0.6616  0.4711 -0.1650
   89GLOH   H04 9419   7.607   8.975   1.711  1.6220 -0.5215  0.9664
   89GLOH    O2 9420   7.677   8.868   1.549 -0.1377  0.2666  0.7201
   89GLOH   H05 9421   7.769   8.858   1.576 -0.3681 -0.3931  1.2638
   89GLOH    C3 9422   7.439   8.885   1.612 -0.1070  0.1016 -0.5643
   89GLOH   H06 9423   7.418   8.786   1.570 -0.6062 -1.3415  2.9122
   89GLOH   H07 9424   7.427   8.956   1.531 -0.7244  0.2106 -0.3811
   89GLOH    O3 9425   7.353   8.906   1.727 -0.5209 -0.3205  0.6282
   89GLOH   H01 9426   7.352   8.816   1.765 -1.5357 -0.8988 -0.7100
   90GLOH   H03 9427   9.150   2.727   1.025  0.1652 -0.2559  1.2327
   90GLOH    O1 9428   9.122   2.635   1.038 -0.5502 -0.3392 -0.6628
   90GLOH    C1 9429   9.202   2.544   0.965 -0.6962  0.8609  0.7425
   90GLOH   H02 9430   9.194   2.560   0.857  1.3381 -0.6272  0.3342
   90GLOH   H08 9431   9.158   2.445   0.975  0.1129  0.4448  0.2747
   90GLOH    C2 9432   9.342   2.530   1.014 -0.3378 -0.7145  0.3710
   90GLOH   H04 9433   9.386   2.456   0.947 -0.5788  0.7839 -1.4892
   90GLOH    O2 9434   9.412   2.656   0.993 -0.1826 -0.3429 -0.3720
   90GLOH   H05 9435   9.431   2.667   0.899  1.0041  1.8474  0.0933
   90GLOH    C3 9436   9.341   2.469   1.157 -0.0627  0.0804  0.0964
   90GLOH   H06 9437   9.290   2.373   1.147  1.9329 -1.0080  0.1309
   90GLOH   H07 9438   9.295   2.530   1.235 -2.5391 -0.5815 -0.8117
   90GLOH    O3 9439   9.476   2.451   1.203  0.1612 -0.0934  0.1086
   90GLOH   H01 9440   9.501   2.543   1.225 -1.9964  0.2323  1.3642
   91GLOH   H03 9441   7.719   3.130   5.307 -2.1904  0.9389 -0.6897
   91GLOH    O1 9442   7.672   3.086   5.381 -0.0711  0.1161  0.1960
   91GLOH    C1 9443   7.594   2.983   5.322 -0.5941  0.5010  0.1220
   91GLOH   H02 9444   7.549   2.924   5.402 -0.0917 -1.4313 -0.9985
   91GLOH   H08 9445   7.655   2.906   5.276  2.2317  0.6174  3.4136
   91GLOH    C2 9446   7.484   3.035   5.228  0.1854  0.3236 -0.4181
   91GLOH   H04 9447   7.418   3.098   5.290  1.0521 -0.2750  1.1306
   91GLOH    O2 9448   7.526   3.112   5.114 -0.0812  0.7538  0.0369
   91GLOH   H05 9449   7.623   3.111   5.110 -0.0577  3.0058 -0.4584
   91GLOH    C3 9450   7.404   2.914   5.181 -0.1671  0.4100 -0.0942
   91GLOH   H06 9451   7.368   2.849   5.261 -2.5259  0.9029 -0.7095
   91GLOH   H07 9452   7.482   2.865   5.123 -0.7339 -0.5442 -0.0691
   91GLOH    O3 9453   7.285   2.930   5.104 -0.2019 -0.3299  0.2702
   91GLOH   H01 9454   7.304   3.000   5.039  4.0600 -1.7447 -0.1491
   92GLOH   H03 9455   0.935   9.404   3.798  0.9339  0.6050 -0.5008
   92GLOH    O1 9456   0.950   9.400   3.702 -0.3172  0.0971 -0.6823
   92GLOH    C1 9457   0.833   9.423   3.625  0.3599 -0.7055 -0.4389
   92GLOH   H02 9458   0.760   9.464   3.694 -2.0223  0.4906 -3.5161
   92GLOH   H08 9459   0.797   9.326   3.588 -0.9634 -0.8786  1.2437
   92GLOH    C2 9460   0.864   9.527   3.511  0.6124  0.2861 -0.0653
   92GLOH   H04 9461   0.930   9.487   3.433 -1.0940  0.3945 -1.6044
   92GLOH    O2 9462   0.739   9.555   3.449 -0.6271 -0.9000  0.6444
   92GLOH   H05 9463   0.694   9.621   3.503 -0.0230  2.0215 -2.2532
   92GLOH    C3 9464   0.916   9.666   3.557 -0.2584  0.6513 -0.4373
   92GLOH   H06 9465   0.987   9.658   3.639 -0.7023  2.5317  0.1470
   92GLOH   H07 9466   0.837   9.726   3.601 -0.4897  1.2893 -1.7034
   92GLOH    O3 9467   0.973   9.746   3.450  0.2261 -0.1265  0.2165
   92GLOH   H01 9468   0.906   9.811   3.421 -1.8531 -2.3234 -0.0733
   93GLOH   H03 9469   1.463   6.692   4.659 -0.1639  0.2402 -0.5809
   93GLOH    O1 9470   1.437   6.766   4.718  0.0298 -0.0675 -0.1052
   93GLOH    C1 9471   1.442   6.711   4.847  0.3048 -0.7336  0.0070
   93GLOH   H02 9472   1.529   6.725   4.912 -0.4980  0.2331  0.8902
   93GLOH   H08 9473   1.438   6.602   4.848 -2.5784 -0.6939 -1.0945
   93GLOH    C2 9474   1.329   6.761   4.937  0.9287 -0.0892  0.3624
   93GLOH   H04 9475   1.234   6.752   4.884  1.0696 -1.4691  0.3327
   93GLOH    O2 9476   1.317   6.686   5.065  0.6668  0.0988  0.3479
   93GLOH   H05 9477   1.360   6.599   5.057  0.7587  0.2944 -1.7384
   93GLOH    C3 9478   1.358   6.908   4.964  0.1464 -0.4101 -0.7650
   93GLOH   H06 9479   1.441   6.913   5.035 -1.5037 -0.7712  1.2156
   93GLOH   H07 9480   1.276   6.953   5.021  0.1091 -0.5016 -0.7481
   93GLOH    O3 9481   1.386   6.980   4.844  0.3916 -0.2327 -0.0857
   93GLOH   H01 9482   1.410   6.914   4.776 -0.1452  0.9004 -1.3814
   94GLOH   H03 9483   7.663   4.629   1.749 -0.6152 -1.8833 -0.1927
   94GLOH    O1 9484   7.594   4.617   1.680 -0.7086  0.1479 -0.4661
   94GLOH    C1 9485   7.551   4.479   1.690  0.3571 -0.6994 -0.2970
   94GLOH   H02 9486   7.523   4.450   1.791 -0.3656 -0.9827 -0.5726
   94GLOH   H08 9487   7.633   4.414   1.659  0.3724 -1.5982  1.5592
   94GLOH    C2 9488   7.438   4.452   1.586  0.0542 -0.0034  0.3933
   94GLOH   H04 9489   7.480   4.471   1.486  0.8746  0.1444  0.7608
   94GLOH    O2 9490   7.400   4.312   1.590  0.0065 -0.4969  0.0724
   94GLOH   H05 9491   7.469   4.260   1.636  0.8822  0.0475 -0.6288
   94GLOH    C3 9492   7.320   4.542   1.611  0.1639 -0.0406 -0.4705
   94GLOH   H06 9493   7.353   4.645   1.624 -0.1491  0.3517 -2.5387
   94GLOH   H07 9494   7.268   4.515   1.703  0.4163  1.2737  0.0783
   94GLOH    O3 9495   7.216   4.553   1.512 -0.1702 -0.3690 -0.3153
   94GLOH   H01 9496   7.239   4.634   1.463 -2.6893  0.7243  0.2421
   95GLOH   H03 9497   6.398   1.968   2.249 -0.6763 -0.0074  0.9780
   95GLOH    O1 9498   6.403   2.057   2.290  0.2754  0.1414  0.5660
   95GLOH    C1 9499   6.540   2.106   2.277 -0.1685 -0.1987  0.4610
   95GLOH   H02 9500   6.562   2.175   2.359 -1.3911 -0.1904  0.7965
   95GLOH   H08 9501   6.556   2.164   2.186 -0.2950 -2.3849 -0.9869
   95GLOH    C2 9502   6.648   1.995   2.289 -0.1204  0.1515  0.6174
   95GLOH   H04 9503   6.619   1.909   2.228  0.3827  0.3002  0.1664
   95GLOH    O2 9504   6.778   2.046   2.263 -0.4785  0.2263  0.0695
   95GLOH   H05 9505   6.772   2.087   2.175 -0.2412  2.3276  1.0143
   95GLOH    C3 9506   6.649   1.940   2.433 -0.5543  0.3816 -0.5514
   95GLOH   H06 9507   6.678   2.017   2.505 -0.6623  0.0106 -0.1007
   95GLOH   H07 9508   6.724   1.861   2.436 -2.6593 -1.6713 -1.1918
   95GLOH    O3 9509   6.520   1.892   2.476 -0.5726 -0.2775 -0.1864
   95GLOH   H01 9510   6.492   1.956   2.544  0.2936  0.1905 -0.2738
   96GLOH   H03 9511   9.856   9.420   6.617 -0.5836 -0.0944 -0.6570
   96GLOH    O1 9512   9.830   9.421   6.710 -0.4246  0.4219 -0.6155
   96GLOH    C1 9513   9.713   9.340   6.733 -0.2327 -0.0881 -0.5367
   96GLOH   H02 9514   9.674   9.362   6.832 -0.1450  0.6279 -0.6558
   96GLOH   H08 9515   9.748   9.238   6.720 -0.6530  0.0477 -3.1232
   96GLOH    C2 9516   9.595   9.359   6.633  0.5932 -0.5706  0.3793
   96GLOH   H04 9517   9.628   9.355   6.528 -1.0713  0.6376 -0.2036
   96GLOH    O2 9518   9.491   9.261   6.656 -0.2914  0.2970 -0.5028
   96GLOH   H05 9519   9.411   9.290   6.609 -1.4441 -0.2934  1.0495
   96GLOH    C3 9520   9.532   9.497   6.669 -0.0003  0.6102 -0.2052
   96GLOH   H06 9521   9.608   9.573   6.686  0.5322  0.4302 -1.6317
   96GLOH   H07 9522   9.480   9.479   6.762  1.0327  1.8911  0.6415
   96GLOH    O3 9523   9.432   9.543   6.573 -0.2711  0.0302  0.5947
   96GLOH   H01 9524   9.347   9.535   6.621 -0.8138  0.0811 -0.3602
   97GLOH   H03 9525   1.598   3.923   2.339 -1.1274  0.1619 -2.4082
   97GLOH    O1 9526   1.659   3.850   2.318  0.2826  0.4477  0.4687
   97GLOH    C1 9527   1.783   3.844   2.392 -0.2003  0.1399  0.4355
   97GLOH   H02 9528   1.831   3.751   2.361  1.1992  1.7403 -2.4220
   97GLOH   H08 9529   1.761   3.823   2.497 -0.3159  2.3222  0.8691
   97GLOH    C2 9530   1.875   3.968   2.382 -0.5414 -0.5028  0.2511
   97GLOH   H04 9531   1.819   4.055   2.421 -0.0679 -0.1084  0.0612
   97GLOH    O2 9532   1.987   3.953   2.472 -0.4358  0.0162 -0.0780
   97GLOH   H05 9533   2.054   3.892   2.435 -1.7136 -1.4505 -0.0158
   97GLOH    C3 9534   1.919   3.985   2.236  0.6383 -0.3862  0.8044
   97GLOH   H06 9535   1.906   3.886   2.192 -1.0520 -0.1695  0.7834
   97GLOH   H07 9536   2.025   4.012   2.229  0.2084  0.6136 -4.1594
   97GLOH    O3 9537   1.831   4.067   2.157 -0.5250 -0.2895 -0.3213
   97GLOH   H01 9538   1.862   4.159   2.167  2.5169 -1.1334 -1.6720
   98GLOH   H03 9539   2.451   6.482   4.837 -0.6912 -1.0987  1.1127
   98GLOH    O1 9540   2.419   6.426   4.764 -0.3862 -0.4541  0.4766
   98GLOH    C1 9541   2.277   6.411   4.767  0.0442 -0.4606 -0.3647
   98GLOH   H02 9542   2.249   6.353   4.680  0.5508  0.5831 -1.2394
   98GLOH   H08 9543   2.222   6.505   4.760 -0.6149 -0.6670  1.6211
   98GLOH    C2 9544   2.234   6.346   4.895 -0.0932  0.3372  0.4451
   98GLOH   H04 9545   2.291   6.253   4.907  0.0903  0.5199  0.9869
   98GLOH    O2 9546   2.265   6.428   5.014 -0.4545  0.0997  0.0090
   98GLOH   H05 9547   2.360   6.449   5.019 -0.1142 -1.7631  1.9208
   98GLOH    C3 9548   2.091   6.311   4.895  0.4597 -0.1313  0.0662
   98GLOH   H06 9549   2.028   6.400   4.886 -1.4351 -0.8438  4.8226
   98GLOH   H07 9550   2.065   6.266   4.991 -2.3755  0.1053 -0.5300
   98GLOH    O3 9551   2.065   6.210   4.795 -0.4862 -0.1794 -0.0713
   98GLOH   H01 9552   1.971   6.207   4.769 -0.3971  1.8793 -0.6972
   99GLOH   H03 9553   3.057   6.086   6.941  1.1942 -1.1328 -2.2201
   99GLOH    O1 9554   3.000   6.131   6.876  0.0886  0.4234 -0.1897
   99GLOH    C1 9555   3.043   6.110   6.743  0.0063 -0.5047  0.1727
   99GLOH   H02 9556   3.038   6.005   6.717 -0.3369 -0.2772 -0.7008
   99GLOH   H08 9557   3.148   6.138   6.734 -0.4885  1.5253  0.3184
   99GLOH    C2 9558   2.952   6.171   6.631 -0.7727  0.2307  0.3622
   99GLOH   H04 9559   2.924   6.274   6.658 -3.3136 -0.5060  0.6163
   99GLOH    O2 9560   3.026   6.168   6.505  0.2058 -0.2538 -0.3368
   99GLOH   H05 9561   3.046   6.262   6.489 -2.9933  0.7264  1.0519
   99GLOH    C3 9562   2.814   6.104   6.620 -0.5891  0.8017 -0.0921
   99GLOH   H06 9563   2.785   6.081   6.722  1.8439 -0.4253  0.3456
   99GLOH   H07 9564   2.844   6.007   6.581 -1.8693 -0.1161  1.1623
   99GLOH    O3 9565   2.720   6.176   6.534  0.2581 -0.8442  0.3866
   99GLOH   H01 9566   2.697   6.263   6.572  0.0177 -0.1595 -1.2883
  100GLOH   H03 9567   3.879  -0.063   5.261  2.6159 -2.3052 -1.3402
  100GLOH    O1 9568   3.930   0.018   5.242  0.1099 -0.4768 -0.4603
  100GLOH    C1 9569   3.846   0.129   5.193 -0.4354  0.0400 -0.0559
  100GLOH   H02 9570   3.917   0.209   5.173  0.0915 -0.3259  0.3342
  100GLOH   H08 9571   3.773   0.159   5.268  1.2126  1.1189  1.1472
  100GLOH    C2 9572   3.770   0.103   5.062 -0.0502  1.0268 -0.1060
  100GLOH   H04 9573   3.709   0.013   5.081  1.4456  0.0056 -0.0371
  100GLOH    O2 9574   3.681   0.216   5.040 -0.9814  0.0432  0.5550
  100GLOH   H05 9575   3.601   0.191   4.991  0.4932 -0.0750 -1.8760
  100GLOH    C3 9576   3.865   0.074   4.944  0.2397 -0.6708 -0.4329
  100GLOH   H06 9577   3.936   0.158   4.943 -0.4465 -0.0903 -0.6343
  100GLOH   H07 9578   3.801   0.071   4.856 -0.8525  0.1547  0.3258
  100GLOH    O3 9579   3.939  -0.049   4.954  0.4473  0.2508  0.2438
  100GLOH   H01 9580   4.015  -0.027   5.010  0.7269  1.3079 -0.5237
  101GLOH   H03 9581   2.097   9.397   3.869 -1.4241 -0.4797  2.8282
  101GLOH    O1 9582   2.181   9.371   3.911  0.3137 -0.0356 -0.2344
  101GLOH    C1 9583   2.285   9.335   3.820 -0.5524 -0.3051  0.5011
  101GLOH   H02 9584   2.245   9.266   3.745  0.7519  0.0213 -0.5065
  101GLOH   H08 9585   2.353   9.269   3.874  0.6157 -0.5531 -1.2278
  101GLOH    C2 9586   2.363   9.452   3.761 -0.1811  0.2270  0.1957
  101GLOH   H04 9587   2.377   9.523   3.845 -0.2198  0.5726 -0.0879
  101GLOH    O2 9588   2.488   9.410   3.698 -0.0492 -0.4474 -0.4423
  101GLOH   H05 9589   2.555   9.381   3.762  0.2383  0.5245 -0.2971
  101GLOH    C3 9590   2.279   9.534   3.658 -0.2438 -0.7848  0.0770
  101GLOH   H06 9591   2.268   9.484   3.562 -1.3809 -0.0005 -0.2252
  101GLOH   H07 9592   2.346   9.613   3.624  1.0929 -1.5300  0.9424
  101GLOH    O3 9593   2.148   9.587   3.701 -0.0506 -0.0289  0.3156
  101GLOH   H01 9594   2.134   9.665   3.644 -3.1787 -0.0188  1.0535
  102GLOH   H03 9595   7.793   2.827   5.859 -1.5317  0.5750  0.8613
  102GLOH    O1 9596   7.756   2.851   5.772  0.0831 -0.2453 -0.0818
  102GLOH    C1 9597   7.729   2.727   5.706 -0.3836 -0.5058 -0.0729
  102GLOH   H02 9598   7.647   2.724   5.635  0.4715  0.3137 -1.1184
  102GLOH   H08 9599   7.705   2.651   5.781 -0.5630  1.2712  1.7141
  102GLOH    C2 9600   7.845   2.689   5.619 -0.2009 -0.5056  0.1530
  102GLOH   H04 9601   7.934   2.700   5.683  0.4585 -0.1000 -0.8348
  102GLOH    O2 9602   7.839   2.552   5.586  0.2198  0.3604  0.1106
  102GLOH   H05 9603   7.926   2.516   5.562 -0.6085 -2.3029  0.9345
  102GLOH    C3 9604   7.864   2.788   5.503 -0.3363  0.6533 -0.0624
  102GLOH   H06 9605   7.847   2.887   5.547  0.0275 -0.3115  2.3324
  102GLOH   H07 9606   7.776   2.764   5.444 -1.3338  2.5074  0.6207
  102GLOH    O3 9607   7.979   2.774   5.425 -0.4730 -0.2414 -0.2299
  102GLOH   H01 9608   8.055   2.779   5.486  0.0039  1.0083 -0.9096
  103GLOH   H03 9609   9.206   2.494   0.508  1.1398  0.2976  1.3722
  103GLOH    O1 9610   9.220   2.401   0.534 -0.4281 -0.3332  0.0333
  103GLOH    C1 9611   9.340   2.381   0.611 -0.1965  0.1216  0.3063
  103GLOH   H02 9612   9.315   2.396   0.716  0.8174 -0.2395  0.6004
  103GLOH   H08 9613   9.409   2.460   0.579  0.3095 -0.0065  1.0824
  103GLOH    C2 9614   9.406   2.243   0.609 -0.4936 -0.0707 -0.7351
  103GLOH   H04 9615   9.440   2.227   0.506  0.0673  3.1390 -1.0923
  103GLOH    O2 9616   9.526   2.234   0.693  0.2362 -0.1578 -0.2149
  103GLOH   H05 9617   9.537   2.151   0.742 -0.6440  0.8459  1.7359
  103GLOH    C3 9618   9.302   2.143   0.658 -0.7024  0.4176 -0.4236
  103GLOH   H06 9619   9.221   2.154   0.587 -1.1765 -2.3130 -0.3656
  103GLOH   H07 9620   9.263   2.175   0.755 -0.3357  0.3801 -0.2619
  103GLOH    O3 9621   9.351   2.007   0.654 -0.2922 -0.0885 -0.5826
  103GLOH   H01 9622   9.313   1.965   0.734 -2.4494  1.7781 -0.5765
  104GLOH   H03 9623   4.704   6.919   4.033 -1.6260  0.1415  0.1027
  104GLOH    O1 9624   4.699   6.859   3.956 -0.2336  0.1953 -0.0320
  104GLOH    C1 9625   4.788   6.888   3.851 -0.7850 -0.2315  0.2532
  104GLOH   H02 9626   4.745   6.972   3.796 -1.2560 -1.0055 -0.5782
  104GLOH   H08 9627   4.805   6.798   3.791 -1.1030 -1.1794  1.5699
  104GLOH    C2 9628   4.928   6.924   3.917 -0.0411  0.4432  0.0294
  104GLOH   H04 9629   4.965   6.834   3.968  2.8231  1.7139  0.2572
  104GLOH    O2 9630   5.030   6.956   3.815  0.1550  0.0430  0.2261
  104GLOH   H05 9631   5.106   7.004   3.853  1.5174 -0.7848 -1.4379
  104GLOH    C3 9632   4.918   7.036   4.023  0.3017  0.1664  0.2812
  104GLOH   H06 9633   4.907   7.128   3.965 -1.0722 -1.2613 -1.7967
  104GLOH   H07 9634   5.010   7.051   4.079  0.1362  0.9851  0.3421
  104GLOH    O3 9635   4.817   7.009   4.122  0.1323 -0.1715 -0.1716
  104GLOH   H01 9636   4.811   7.089   4.178  1.7285 -0.4958  0.4899
  105GLOH   H03 9637   1.624   4.204   6.545  3.0429 -1.6422 -0.7826
  105GLOH    O1 9638   1.642   4.267   6.472  0.0028  0.9487  0.5798
  105GLOH    C1 9639   1.777   4.314   6.466 -0.5051  0.1544 -0.5539
  105GLOH   H02 9640   1.819   4.353   6.559 -1.6189 -0.2657  0.1342
  105GLOH   H08 9641   1.784   4.398   6.396  0.7979 -0.8006 -1.5819
  105GLOH    C2 9642   1.875   4.207   6.416  0.6893 -0.0450  0.0714
  105GLOH   H04 9643   1.825   4.162   6.329  0.8792 -2.9909  1.4456
  105GLOH    O2 9644   2.005   4.252   6.372  0.1332  0.4733 -0.2877
  105GLOH   H05 9645   2.050   4.187   6.315  0.2283 -1.0605  1.4989
  105GLOH    C3 9646   1.889   4.093   6.520 -0.1664 -0.2103  0.9024
  105GLOH   H06 9647   1.940   4.014   6.466  1.3821  1.3796 -0.0105
  105GLOH   H07 9648   1.787   4.063   6.546 -0.8505  0.8375 -0.5268
  105GLOH    O3 9649   1.946   4.141   6.645 -0.1406  0.7839 -0.1822
  105GLOH   H01 9650   1.927   4.068   6.707 -0.4729  0.6977 -0.3793
  106GLOH   H03 9651   2.644   0.997   1.439 -2.6385  2.0802 -0.3630
  106GLOH    O1 9652   2.710   1.061   1.407 -0.4575 -0.0502 -0.2766
  106GLOH    C1 9653   2.659   1.109   1.282 -0.1178  0.3754  0.2461
  106GLOH   H02 9654   2.552   1.129   1.293 -0.1175  0.4119  0.1864
  106GLOH   H08 9655   2.671   1.025   1.214 -0.4910 -0.5185  1.2557
  106GLOH    C2 9656   2.726   1.234   1.226 -0.4597 -0.0815  0.1370
  106GLOH   H04 9657   2.825   1.198   1.197 -0.1788  0.5680  0.2866
  106GLOH    O2 9658   2.653   1.265   1.104 -0.1490  0.0974 -0.6293
  106GLOH   H05 9659   2.704   1.322   1.044  1.2852  0.1210  0.5666
  106GLOH    C3 9660   2.732   1.350   1.328  0.7482 -0.1326  0.0955
  106GLOH   H06 9661   2.772   1.320   1.425  1.2560 -0.6346 -0.2660
  106GLOH   H07 9662   2.627   1.378   1.342  1.0963  1.8783 -1.0659
  106GLOH    O3 9663   2.809   1.460   1.278 -0.0859  0.5687 -0.2664
  106GLOH   H01 9664   2.899   1.428   1.263 -0.8761 -1.4491 -0.8801
  107GLOH   H03 9665   7.397   3.195   3.576 -0.9512  0.2168  1.2191
  107GLOH    O1 9666   7.481   3.215   3.621 -0.4338 -0.0325  0.3771
  107GLOH    C1 9667   7.562   3.098   3.590 -0.0383 -0.2894 -0.2713
  107GLOH   H02 9668   7.504   3.012   3.625  0.0207 -0.9488 -1.7784
  107GLOH   H08 9669   7.654   3.099   3.647 -0.1434  0.9107 -0.1111
  107GLOH    C2 9670   7.597   3.073   3.441 -0.1693 -0.4376  0.7317
  107GLOH   H04 9671   7.507   3.093   3.382 -0.1916  0.0775  0.9327
  107GLOH    O2 9672   7.700   3.172   3.400  0.8382  0.4862 -0.7836
  107GLOH   H05 9673   7.717   3.230   3.476  0.6361  1.7981 -1.7339
  107GLOH    C3 9674   7.642   2.931   3.413 -0.3863  0.7658 -0.1255
  107GLOH   H06 9675   7.707   2.902   3.495 -1.3331 -0.3528  0.2290
  107GLOH   H07 9676   7.701   2.919   3.322 -1.1415  1.7217 -0.7501
  107GLOH    O3 9677   7.523   2.842   3.413 -0.6471  0.2118 -0.3570
  107GLOH   H01 9678   7.461   2.879   3.348 -0.6816 -0.3455 -0.6506
  108GLOH   H03 9679   5.196   4.384   4.101  2.5749 -2.0192  1.9711
  108GLOH    O1 9680   5.221   4.460   4.156  0.0597  0.3999 -0.0958
  108GLOH    C1 9681   5.279   4.413   4.278 -0.5132 -0.1352 -1.0557
  108GLOH   H02 9682   5.290   4.489   4.356 -1.2898 -2.1885  1.1312
  108GLOH   H08 9683   5.379   4.377   4.255  0.5535  1.1556  1.3418
  108GLOH    C2 9684   5.186   4.311   4.341  0.4760 -0.3260  0.1025
  108GLOH   H04 9685   5.157   4.239   4.263  1.3412 -1.1686  0.5446
  108GLOH    O2 9686   5.232   4.243   4.458 -0.0135 -0.0637  0.5954
  108GLOH   H05 9687   5.238   4.312   4.527  0.1869  0.9833 -0.4572
  108GLOH    C3 9688   5.055   4.385   4.377  0.3417 -0.3490 -0.2119
  108GLOH   H06 9689   5.020   4.425   4.282 -2.7947 -2.5375 -0.0366
  108GLOH   H07 9690   5.080   4.470   4.441  0.0153  0.2565 -0.8813
  108GLOH    O3 9691   4.950   4.303   4.437  0.2241  0.6123 -0.3630
  108GLOH   H01 9692   4.905   4.264   4.359  0.6907 -1.7602  0.5199
  109GLOH   H03 9693   5.480   3.827   0.334  2.1089  0.3600 -1.7169
  109GLOH    O1 9694   5.524   3.869   0.410  0.2345 -0.4782 -0.1350
  109GLOH    C1 9695   5.572   3.775   0.514 -0.2065  0.4102  0.4322
  109GLOH   H02 9696   5.550   3.827   0.608  0.1868  1.4675 -0.0462
  109GLOH   H08 9697   5.677   3.747   0.500 -0.4751  0.3538 -1.6531
  109GLOH    C2 9698   5.498   3.639   0.514  0.6952 -0.2430 -0.1325
  109GLOH   H04 9699   5.389   3.655   0.508  0.0853 -3.8398  0.6021
  109GLOH    O2 9700   5.526   3.555   0.399 -0.1091 -0.4870 -0.0704
  109GLOH   H05 9701   5.487   3.605   0.325 -2.8002 -1.4867  0.6342
  109GLOH    C3 9702   5.529   3.570   0.648 -0.5564 -0.6111 -0.8175
  109GLOH   H06 9703   5.635   3.549   0.666 -0.4124  0.3602 -0.5002
  109GLOH   H07 9704   5.482   3.472   0.650  0.6507 -1.1870  1.4050
  109GLOH    O3 9705   5.473   3.653   0.756  0.5684 -0.3176 -0.3067
  109GLOH   H01 9706   5.377   3.635   0.763  0.8838 -0.9385  3.1723
  110GLOH   H03 9707   8.065   9.067   6.343 -1.3489  0.3517  0.2088
  110GLOH    O1 9708   8.070   9.144   6.402  0.0263  0.2368  0.2440
  110GLOH    C1 9709   8.046   9.251   6.313  0.3897 -0.3689  0.5700
  110GLOH   H02 9710   8.121   9.265   6.236  0.3377  2.3092  0.9381
  110GLOH   H08 9711   8.053   9.344   6.370 -0.1328  0.6086 -0.9526
  110GLOH    C2 9712   7.901   9.254   6.256 -0.8206  0.4633 -0.8276
  110GLOH   H04 9713   7.887   9.348   6.201 -0.6093  0.9365 -0.0720
  110GLOH    O2 9714   7.887   9.143   6.159 -0.4929  0.0635  0.0885
  110GLOH   H05 9715   7.894   9.061   6.210  1.8611 -1.4443 -2.5481
  110GLOH    C3 9716   7.804   9.242   6.375 -0.1227  0.2309  0.4036
  110GLOH   H06 9717   7.828   9.151   6.431 -1.8590 -1.2673 -1.2211
  110GLOH   H07 9718   7.704   9.229   6.336  0.2276 -0.1962 -0.3613
  110GLOH    O3 9719   7.814   9.359   6.458 -0.9060  0.5729  0.8155
  110GLOH   H01 9720   7.879   9.346   6.530  1.1268 -1.8273 -1.3749
  111GLOH   H03 9721   5.832   5.772   1.037  0.1080 -0.2261  0.0682
  111GLOH    O1 9722   5.844   5.679   1.062  0.2396 -0.3287 -0.3586
  111GLOH    C1 9723   5.977   5.638   1.024 -0.4223 -0.4563  0.0991
  111GLOH   H02 9724   6.004   5.554   1.089  0.0290  0.7387  1.4797
  111GLOH   H08 9725   6.050   5.718   1.034  0.6437 -1.3576 -0.3192
  111GLOH    C2 9726   5.997   5.588   0.880 -0.4720 -0.2400  0.8888
  111GLOH   H04 9727   5.962   5.673   0.820  1.2546 -0.0903  0.0652
  111GLOH    O2 9728   6.136   5.563   0.844  0.3153 -0.0702 -0.0682
  111GLOH   H05 9729   6.155   5.468   0.841  0.7379 -0.0670  1.9590
  111GLOH    C3 9730   5.917   5.463   0.844 -0.2983 -0.2532 -0.4830
  111GLOH   H06 9731   5.951   5.422   0.748  0.1911 -1.7245  0.3019
  111GLOH   H07 9732   5.812   5.486   0.827 -0.1451  2.2032  1.5179
  111GLOH    O3 9733   5.934   5.356   0.939  0.3162  0.4221 -0.2034
  111GLOH   H01 9734   6.025   5.326   0.925  0.7687  1.1412  1.1014
  112GLOH   H03 9735   9.477   0.621   4.478  0.7597 -0.5745 -0.1672
  112GLOH    O1 9736   9.480   0.574   4.563 -0.4014  0.0934  0.2633
  112GLOH    C1 9737   9.597   0.491   4.564 -0.0935  0.5659 -0.3476
  112GLOH   H02 9738   9.591   0.418   4.645  2.6182 -2.0148 -2.3731
  112GLOH   H08 9739   9.677   0.557   4.597 -1.6592  1.8570  1.0000
  112GLOH    C2 9740   9.625   0.411   4.437  0.1849 -0.6347 -0.7326
  112GLOH   H04 9741   9.640   0.485   4.357 -1.3247  1.3482  0.7622
  112GLOH    O2 9742   9.737   0.327   4.464  0.4701 -0.0144 -0.2645
  112GLOH   H05 9743   9.725   0.251   4.523  2.3731  0.6011  0.9490
  112GLOH    C3 9744   9.511   0.319   4.387  0.8203 -0.2564 -0.0842
  112GLOH   H06 9745   9.488   0.248   4.467  1.4492  0.0634  0.3752
  112GLOH   H07 9746   9.561   0.266   4.306 -1.8847 -1.1580 -1.2393
  112GLOH    O3 9747   9.392   0.396   4.349  0.0997 -0.4023 -0.3904
  112GLOH   H01 9748   9.314   0.336   4.346  1.6168 -2.7064  3.2821
  113GLOH   H03 9749   7.828   2.819   3.835 -0.5320 -1.3627  0.6606
  113GLOH    O1 9750   7.873   2.785   3.755 -0.0438 -0.0047  0.3293
  113GLOH    C1 9751   7.799   2.669   3.711  0.2159  0.3084 -0.3356
  113GLOH   H02 9752   7.851   2.619   3.630 -2.0434  0.3162 -1.8410
  113GLOH   H08 9753   7.707   2.705   3.665  0.4272 -1.4687 -2.2647
  113GLOH    C2 9754   7.760   2.568   3.825  0.2862 -0.3147  0.2835
  113GLOH   H04 9755   7.691   2.614   3.897  0.2007 -3.4849  2.2916
  113GLOH    O2 9756   7.684   2.463   3.752  0.6665  0.5985  0.2868
  113GLOH   H05 9757   7.737   2.413   3.687 -1.2521  1.8799 -2.3513
  113GLOH    C3 9758   7.872   2.513   3.909 -0.2721 -0.4859  0.2378
  113GLOH   H06 9759   7.812   2.449   3.972  0.4206 -0.6915  0.6946
  113GLOH   H07 9760   7.915   2.591   3.972 -1.0816 -1.2717  1.7761
  113GLOH    O3 9761   7.968   2.445   3.831  0.1272  1.3014 -0.6771
  113GLOH   H01 9762   7.940   2.352   3.821  0.6045  1.1114 -0.3168
  114GLOH   H03 9763   4.221   7.521   5.508  1.3006 -1.8109  0.7196
  114GLOH    O1 9764   4.174   7.511   5.592  0.0924 -0.2166  0.2580
  114GLOH    C1 9765   4.251   7.457   5.700  0.0830 -0.5660 -0.4215
  114GLOH   H02 9766   4.244   7.349   5.692  0.5416 -0.6279  0.0203
  114GLOH   H08 9767   4.197   7.490   5.790  0.3267  1.3921 -0.9675
  114GLOH    C2 9768   4.393   7.501   5.712  0.3131 -0.0485 -0.1798
  114GLOH   H04 9769   4.447   7.478   5.618 -0.4584  1.0507 -0.9058
  114GLOH    O2 9770   4.395   7.636   5.759  0.2096  0.0278 -0.0882
  114GLOH   H05 9771   4.376   7.682   5.676  0.8562 -2.1492 -1.4758
  114GLOH    C3 9772   4.460   7.422   5.826  0.3035 -0.1500 -0.0339
  114GLOH   H06 9773   4.427   7.319   5.814 -0.7811  0.3540 -1.5231
  114GLOH   H07 9774   4.413   7.456   5.918 -1.0228  1.5152 -1.2837
  114GLOH    O3 9775   4.606   7.422   5.837 -0.0346  0.1471 -0.3332
  114GLOH   H01 9776   4.620   7.499   5.896 -1.2581  0.3194 -0.2600
  115GLOH   H03 9777   6.600   8.559   1.977 -1.6175 -2.1225  0.0371
  115GLOH    O1 9778   6.680   8.511   1.948 -0.4637  0.0332 -0.4973
  115GLOH    C1 9779   6.652   8.367   1.958  0.3729 -1.1837 -0.1677
  115GLOH   H02 9780   6.632   8.328   1.859 -2.4447 -0.8288  0.2198
  115GLOH   H08 9781   6.563   8.344   2.017  0.3183  0.7756  0.5614
  115GLOH    C2 9782   6.767   8.289   2.026  0.7640  0.0487 -0.3741
  115GLOH   H04 9783   6.799   8.337   2.120 -0.1542 -0.6976  0.3193
  115GLOH    O2 9784   6.719   8.152   2.046 -0.6039  0.6364 -0.2858
  115GLOH   H05 9785   6.643   8.152   2.106 -0.5926 -0.7594 -0.2576
  115GLOH    C3 9786   6.888   8.294   1.937 -0.1788 -0.1847  0.1597
  115GLOH   H06 9787   6.865   8.245   1.842  1.9796 -1.0424  0.0504
  115GLOH   H07 9788   6.968   8.233   1.981  0.5245  1.5778  1.3607
  115GLOH    O3 9789   6.935   8.429   1.910  0.4918  0.3270 -0.2066
  115GLOH   H01 9790   6.853   8.477   1.889 -0.0326  0.5236  2.1670
  116GLOH   H03 9791   0.426   5.693   6.568  1.2483  4.0675 -1.1487
  116GLOH    O1 9792   0.494   5.658   6.507 -0.3350  0.1125 -0.8569
  116GLOH    C1 9793   0.440   5.583   6.401 -0.3624  0.1696 -0.1767
  116GLOH   H02 9794   0.481   5.603   6.302  0.7053  1.6191  0.5457
  116GLOH   H08 9795   0.335   5.612   6.394 -0.5267  0.0701  1.7104
  116GLOH    C2 9796   0.453   5.431   6.424 -0.0000  0.0552 -0.4189
  116GLOH   H04 9797   0.400   5.379   6.344 -0.1718 -3.3360  1.8089
  116GLOH    O2 9798   0.596   5.404   6.414 -0.2406  0.4179  0.2673
  116GLOH   H05 9799   0.638   5.481   6.372  0.6514 -0.1730  0.0666
  116GLOH    C3 9800   0.409   5.377   6.557  0.4462 -0.2195 -0.2568
  116GLOH   H06 9801   0.472   5.414   6.638  0.5417 -2.6152  0.7885
  116GLOH   H07 9802   0.418   5.269   6.560  1.5717 -0.1365 -0.5035
  116GLOH    O3 9803   0.275   5.417   6.583  0.3267  0.3095 -0.0816
  116GLOH   H01 9804   0.222   5.367   6.518  0.3202  0.3158 -0.0809
  117GLOH   H03 9805   0.858   9.757   5.128 -0.8055 -3.1494  1.2796
  117GLOH    O1 9806   0.931   9.736   5.190  0.3962 -0.8363  0.7162
  117GLOH    C1 9807   0.865   9.649   5.277  0.2143  0.0565  0.0624
  117GLOH   H02 9808   0.772   9.687   5.320 -0.5999 -0.4647 -1.2363
  117GLOH   H08 9809   0.933   9.636   5.362  0.6077 -0.8808 -0.3930
  117GLOH    C2 9810   0.837   9.509   5.229  0.2156 -0.1076  0.7894
  117GLOH   H04 9811   0.801   9.510   5.125  0.7166  3.5250  0.6151
  117GLOH    O2 9812   0.962   9.430   5.236 -0.5502 -0.2115  0.4600
  117GLOH   H05 9813   0.965   9.361   5.167 -1.2566 -0.6785  0.8936
  117GLOH    C3 9814   0.732   9.437   5.317 -0.0541  0.4230  0.5487
  117GLOH   H06 9815   0.774   9.446   5.417 -0.7433 -3.3032  1.2460
  117GLOH   H07 9816   0.725   9.333   5.286 -0.0247  0.4499  0.4551
  117GLOH    O3 9817   0.601   9.498   5.299 -0.1724 -0.2193  0.4844
  117GLOH   H01 9818   0.537   9.437   5.340 -0.7615 -0.1312 -0.2716
  118GLOH   H03 9819   5.290   4.594   0.318 -1.9470 -0.2672  1.6890
  118GLOH    O1 9820   5.302   4.686   0.349 -0.1746  0.1008  0.0055
  118GLOH    C1 9821   5.195   4.756   0.292  0.3360 -0.7875  0.6990
  118GLOH   H02 9822   5.190   4.857   0.333 -1.7716  0.4458 -2.3839
  118GLOH   H08 9823   5.100   4.709   0.318  1.0241 -1.1466  2.5589
  118GLOH    C2 9824   5.217   4.762   0.137 -0.2100  0.1554 -0.4257
  118GLOH   H04 9825   5.318   4.802   0.125 -1.0492  2.0192 -1.3874
  118GLOH    O2 9826   5.219   4.625   0.088  0.1011 -0.0260 -0.3237
  118GLOH   H05 9827   5.251   4.618  -0.004 -0.4258 -0.9317 -0.4355
  118GLOH    C3 9828   5.118   4.848   0.059 -0.4249  0.2491  0.0788
  118GLOH   H06 9829   5.022   4.798   0.044 -0.2217 -0.0128 -0.3578
  118GLOH   H07 9830   5.168   4.857  -0.037  0.9456  0.5127  0.8096
  118GLOH    O3 9831   5.110   4.979   0.115 -0.3951 -0.5174 -0.4270
  118GLOH   H01 9832   5.200   5.017   0.114 -2.0030  3.5694  1.4200
  119GLOH   H03 9833   4.226   8.912   3.701 -0.0993  0.2686  0.4877
  119GLOH    O1 9834   4.292   8.854   3.743 -0.1582  0.0218  0.2363
  119GLOH    C1 9835   4.366   8.791   3.636  0.3932 -0.2827 -0.7150
  119GLOH   H02 9836   4.314   8.794   3.540  0.3249 -2.1910 -0.7707
  119GLOH   H08 9837   4.374   8.686   3.667  2.8310  0.5555  1.7021
  119GLOH    C2 9838   4.510   8.842   3.617  0.1687 -0.9121  0.1773
  119GLOH   H04 9839   4.555   8.795   3.528 -0.4856 -0.7724 -0.2300
  119GLOH    O2 9840   4.509   8.978   3.569  0.1247 -0.1118  0.0765
  119GLOH   H05 9841   4.441   9.027   3.619  0.1466  1.3471 -1.2757
  119GLOH    C3 9842   4.596   8.814   3.735 -0.0169  0.7678 -0.4072
  119GLOH   H06 9843   4.597   8.708   3.761  1.2827  0.7465 -0.5382
  119GLOH   H07 9844   4.547   8.873   3.813  2.3908  1.7224  0.4230
  119GLOH    O3 9845   4.734   8.852   3.716 -0.4974  0.0007 -0.1169
  119GLOH   H01 9846   4.763   8.839   3.624  1.6540  2.6902  0.1101
  120GLOH   H03 9847   3.586   4.237   0.411  1.3106  0.1961 -0.4037
  120GLOH    O1 9848   3.592   4.209   0.504  0.2510 -0.0394 -0.4004
  120GLOH    C1 9849   3.484   4.134   0.555 -0.2362  0.2618  0.5383
  120GLOH   H02 9850   3.517   4.075   0.641  0.8653  0.2584  0.1291
  120GLOH   H08 9851   3.436   4.068   0.482  3.0190 -1.5406 -0.1064
  120GLOH    C2 9852   3.368   4.219   0.607 -0.1941 -0.4092  0.2723
  120GLOH   H04 9853   3.291   4.156   0.652 -0.4101  0.8735  1.7497
  120GLOH    O2 9854   3.417   4.304   0.709 -0.3763 -0.1259  0.1852
  120GLOH   H05 9855   3.469   4.253   0.774 -1.3114 -1.2789  0.0356
  120GLOH    C3 9856   3.299   4.305   0.503 -0.6334 -0.0818  0.1016
  120GLOH   H06 9857   3.369   4.384   0.477 -1.7150  0.6737 -0.5963
  120GLOH   H07 9858   3.203   4.343   0.540 -0.4010  0.0907  0.5352
  120GLOH    O3 9859   3.280   4.221   0.388 -0.1877 -0.2595  0.1670
  120GLOH   H01 9860   3.346   4.251   0.322 -1.4682  3.1980  0.3702
  121ACOH    H4 9861   5.667   2.554   2.095  2.4012 -1.9478 -0.4708
  121ACOH    O2 9862   5.698   2.601   2.016  0.5933  0.4546  0.1477
  121ACOH    C2 9863   5.593   2.588   1.926  0.8518 -0.1883  0.7480
  121ACOH    O1 9864   5.488   2.532   1.950  0.1177  0.0755 -0.4057
  121ACOH    C1 9865   5.637   2.597   1.785 -0.2462 -0.7877 -0.6465
  121ACOH    H1 9866   5.657   2.701   1.757  1.2603 -0.9270 -0.1533
  121ACOH    H2 9867   5.556   2.577   1.714 -0.4917  0.5914 -0.7708
  121ACOH    H3 9868   5.714   2.526   1.753  0.1398 -0.4894 -0.3896
  122ACOH    H4 9869   4.029   6.385   5.029  1.0079 -0.9618  0.4210
  122ACOH    O2 9870   4.072   6.453   5.083 -0.4106  0.4372 -0.1726
  122ACOH    C2 9871   4.089   6.562   5.001 -0.1769  0.2398  0.3007
  122ACOH    O1 9872   4.034   6.586   4.896 -0.1040  0.2660  0.2231
  122ACOH    C1 9873   4.164   6.667   5.080  0.2944  0.5875 -0.5405
  122ACOH    H1 9874   4.232   6.714   5.008 -0.7714  1.4546 -0.9995
  122ACOH    H2 9875   4.223   6.626   5.162  1.2849 -0.3298 -1.6979
  122ACOH    H3 9876   4.101   6.742   5.127 -1.6050 -2.5094  2.0430
  123ACOH    H4 9877   6.532   7.148   4.502  0.1788  0.2298  0.6560
  123ACOH    O2 9878   6.598   7.178   4.438  0.2916 -0.3196  0.5146
  123ACOH    C2 9879   6.665   7.066   4.403  0.6843 -0.4831  0.7277
  123ACOH    O1 9880   6.627   6.950   4.414 -0.0424  0.3009  0.0268
  123ACOH    C1 9881   6.799   7.091   4.345 -0.3961  0.7829 -0.2373
  123ACOH    H1 9882   6.776   7.089   4.239  1.0781 -0.8485 -0.5495
  123ACOH    H2 9883   6.877   7.016   4.357  1.6483  3.1205  1.7835
  123ACOH    H3 9884   6.832   7.189   4.379  1.6313  0.4116 -1.0719
  124ACOH    H4 9885   4.934   6.117   2.742 -0.1650 -0.2341  0.5533
  124ACOH    O2 9886   4.939   6.208   2.708  0.5210 -0.6337 -0.4574
  124ACOH    C2 9887   5.054   6.253   2.763 -0.5557  0.1200  0.2745
  124ACOH    O1 9888   5.123   6.205   2.850  0.1013 -0.2486 -0.2080
  124ACOH    C1 9889   5.071   6.388   2.720 -0.0114 -0.6906 -0.8044
  124ACOH    H1 9890   5.166   6.398   2.668  0.5447 -0.7324  0.1868
  124ACOH    H2 9891   5.065   6.455   2.806  0.5530 -0.6126 -0.8256
  124ACOH    H3 9892   4.985   6.421   2.662 -2.4004  0.4493  3.2192
  125ACOH    H4 9893   9.182   7.054   5.579  0.2158  4.2532 -0.8045
  125ACOH    O2 9894   9.240   7.037   5.502  0.2120  0.2586 -0.0343
  125ACOH    C2 9895   9.179   6.931   5.438 -0.7108 -0.5181 -0.4267
  125ACOH    O1 9896   9.090   6.864   5.491 -0.6628 -0.1934 -0.6738
  125ACOH    C1 9897   9.236   6.913   5.304  0.3351 -0.2365 -0.0982
  125ACOH    H1 9898   9.243   7.005   5.246  1.1289  0.4557  1.0780
  125ACOH    H2 9899   9.184   6.837   5.245  1.6819  0.3125 -2.0354
  125ACOH    H3 9900   9.343   6.892   5.306  0.2473 -0.5695  1.5273
  126ACOH    H4 9901   6.446   0.846   6.582 -0.8307  0.1370  1.2206
  126ACOH    O2 9902   6.406   0.778   6.526  0.3704 -0.1520  0.6761
  126ACOH    C2 9903   6.440   0.653   6.579 -0.2797  0.1537  0.0148
  126ACOH    O1 9904   6.535   0.623   6.649 -0.3554 -0.2356 -0.4845
  126ACOH    C1 9905   6.341   0.559   6.530 -0.5551  0.4570 -0.2746
  126ACOH    H1 9906   6.339   0.471   6.593 -0.3789  1.3611  1.0215
  126ACOH    H2 9907   6.347   0.538   6.423 -0.5523  3.6960 -0.9827
  126ACOH    H3 9908   6.246   0.610   6.545 -0.4434  0.1297  1.6857
  127ACOH    H4 9909   5.019   6.220   0.766 -1.2941 -1.3199  4.0956
  127ACOH    O2 9910   4.957   6.295   0.756  0.7216 -0.0023  0.2425
  127ACOH    C2 9911   4.994   6.376   0.657 -1.1500  0.8443  0.4217
  127ACOH    O1 9912   5.102   6.380   0.598 -0.1539 -0.3852 -0.1607
  127ACOH    C1 9913   4.884   6.468   0.626  0.3544  0.6781 -0.2338
  127ACOH    H1 9914   4.886   6.505   0.523 -0.4635  0.7628 -0.2231
  127ACOH    H2 9915   4.892   6.544   0.703 -0.9928 -0.9054  1.5185
  127ACOH    H3 9916   4.786   6.425   0.645  0.6445 -0.3113 -0.9024
  128ACOH    H4 9917   7.667   5.241   6.027 -2.3775 -2.9652 -1.4369
  128ACOH    O2 9918   7.585   5.294   6.029 -0.1247  0.6490 -0.5790
  128ACOH    C2 9919   7.490   5.224   6.094 -0.1004  0.2576 -0.2537
  128ACOH    O1 9920   7.501   5.109   6.138 -0.2465  0.0214 -0.0907
  128ACOH    C1 9921   7.353   5.283   6.081  0.3738 -0.1463  0.7457
  128ACOH    H1 9922   7.303   5.279   6.178 -1.0364  0.2626  0.0402
  128ACOH    H2 9923   7.292   5.224   6.012 -1.6033  1.2104  1.3005
  128ACOH    H3 9924   7.361   5.387   6.049 -1.1201 -0.0645  0.6199
  129ACOH    H4 9925   7.310   2.102   6.656 -0.0138  0.4236  0.0253
  129ACOH    O2 9926   7.352   2.137   6.737 -0.3627  0.4102  0.2134
  129ACOH    C2 9927   7.448   2.224   6.701 -0.4640 -0.6053 -0.1797
  129ACOH    O1 9928   7.476   2.258   6.589 -0.4705  0.4919  0.3445
  129ACOH    C1 9929   7.507   2.291   6.820 -0.0247 -0.0744 -0.3650
  129ACOH    H1 9930   7.563   2.378   6.785  1.0684  0.2294  2.0854
  129ACOH    H2 9931   7.575   2.223   6.872  1.3112  1.1077 -0.5333
  129ACOH    H3 9932   7.433   2.317   6.896  0.7691  1.3690 -0.0703
  130ACOH    H4 9933   0.782   7.482   4.748  0.7073  1.0008  0.9329
  130ACOH    O2 9934   0.702   7.535   4.730  0.9331  1.0736  0.1270
  130ACOH    C2 9935   0.592   7.481   4.780 -0.1032  0.5553  0.3129
  130ACOH    O1 9936   0.581   7.365   4.803 -0.5861 -0.4772 -0.3220
  130ACOH    C1 9937   0.477   7.575   4.790  0.6650  0.1921  0.1521
  130ACOH    H1 9938   0.389   7.519   4.821  0.4428 -0.6353 -1.9019
  130ACOH    H2 9939   0.451   7.619   4.694 -0.0210  0.8864  0.6595
  130ACOH    H3 9940   0.500   7.658   4.857 -1.8100  1.5486 -0.6322
  131ACOH    H4 9941   6.406   5.720   0.453  1.0213  1.1334 -0.0367
  131ACOH    O2 9942   6.450   5.684   0.374 -0.2075  0.3165 -0.3655
  131ACOH    C2 9943   6.582   5.691   0.397  0.3174 -0.1010  0.3562
  131ACOH    O1 9944   6.626   5.754   0.493  0.6058 -0.2558  0.4550
  131ACOH    C1 9945   6.679   5.651   0.286 -0.8427  0.1567  0.2222
  131ACOH    H1 9946   6.708   5.743   0.233  0.5718 -0.4089 -0.0301
  131ACOH    H2 9947   6.633   5.584   0.214  0.2427 -1.1518  0.7324
  131ACOH    H3 9948   6.766   5.602   0.330 -0.4283  1.2998  0.7057
  132ACOH    H4 9949   1.874   1.581   6.554  0.3490  2.2937  0.1235
  132ACOH    O2 9950   1.863   1.558   6.648 -0.4259  0.0302 -0.4828
  132ACOH    C2 9951   1.832   1.430   6.652 -0.2610 -0.3322 -0.0795
  132ACOH    O1 9952   1.855   1.348   6.563  0.2385 -0.0415  0.3813
  132ACOH    C1 9953   1.766   1.386   6.780 -0.4502 -0.4336  0.0542
  132ACOH    H1 9954   1.824   1.420   6.866  0.8489  0.7350 -1.2542
  132ACOH    H2 9955   1.756   1.278   6.794  0.5236 -0.3622  1.3169
  132ACOH    H3 9956   1.667   1.429   6.768 -0.1515  0.3874  0.5021
  133ACOH    H4 9957   6.373   7.909   2.027  2.0627 -0.7512  0.5268
  133ACOH    O2 9958   6.415   7.963   1.957  0.1314  0.0855 -0.0270
  133ACOH    C2 9959   6.551   7.944   1.949  0.3651  0.6090 -0.0010
  133ACOH    O1 9960   6.616   7.874   2.024  0.1341 -0.0975 -0.6434
  133ACOH    C1 9961   6.605   8.005   1.823  0.4638  0.1503 -0.0266
  133ACOH    H1 9962   6.606   8.114   1.827  0.5237  0.2873 -2.5633
  133ACOH    H2 9963   6.545   7.963   1.742  0.3000  2.3954 -1.0967
  133ACOH    H3 9964   6.706   7.967   1.810  0.1299 -1.0355  0.7956
  134ACOH    H4 9965   3.770   7.227   0.756 -3.5260 -0.7361 -0.4334
  134ACOH    O2 9966   3.778   7.160   0.686  0.3903 -0.2789 -0.5578
  134ACOH    C2 9967   3.905   7.122   0.670 -0.1888  0.2841 -0.4367
  134ACOH    O1 9968   4.002   7.181   0.707 -0.8383  0.5649 -0.1897
  134ACOH    C1 9969   3.905   7.005   0.577 -0.9126  0.6286 -0.4485
  134ACOH    H1 9970   4.005   6.974   0.548 -1.1602 -0.2932 -0.3613
  134ACOH    H2 9971   3.847   7.035   0.490 -0.3252 -0.9784 -1.4231
  134ACOH    H3 9972   3.858   6.920   0.627  0.9501  0.3120  0.8060
  135ACOH    H4 9973   4.291   6.320   3.728 -0.8932 -0.5142  0.4390
  135ACOH    O2 9974   4.240   6.277   3.799 -0.7728 -0.5632  0.4949
  135ACOH    C2 9975   4.114   6.321   3.796 -0.3911 -0.6288 -0.1782
  135ACOH    O1 9976   4.076   6.421   3.737  0.3657  0.2663  0.7072
  135ACOH    C1 9977   4.019   6.223   3.863 -0.3044 -0.1764  0.4320
  135ACOH    H1 9978   3.945   6.277   3.922  1.5929  0.2913  2.4663
  135ACOH    H2 9979   4.079   6.154   3.923  1.1730 -0.6533 -1.5192
  135ACOH    H3 9980   3.972   6.159   3.788  1.0731 -1.2653  0.4739
  136ACOH    H4 9981   7.516   5.845   5.237 -1.1018 -1.3151 -0.0367
  136ACOH    O2 9982   7.459   5.892   5.174 -0.4212 -0.2317  0.1438
  136ACOH    C2 9983   7.407   5.997   5.245 -0.1968 -0.3257  0.3303
  136ACOH    O1 9984   7.462   6.051   5.338  0.6525 -0.2534  0.3076
  136ACOH    C1 9985   7.306   6.066   5.158  0.0465  0.2960 -0.2102
  136ACOH    H1 9986   7.325   6.043   5.053 -0.5268  1.4910 -0.5779
  136ACOH    H2 9987   7.317   6.173   5.174 -1.7629  0.3042  1.1301
  136ACOH    H3 9988   7.206   6.032   5.184 -0.5827  0.7399 -2.0045
  137ACOH    H4 9989   6.745   5.655   0.585 -0.0967  0.8783  0.6987
  137ACOH    O2 9990   6.824   5.612   0.623 -0.6429 -0.7392  0.0130
  137ACOH    C2 9991   6.778   5.506   0.690 -0.3948 -0.2560  0.0594
  137ACOH    O1 9992   6.674   5.443   0.683  0.2676  0.2680  0.0964
  137ACOH    C1 9993   6.895   5.446   0.747 -0.3363  0.0633 -0.7580
  137ACOH    H1 9994   6.882   5.399   0.844  1.2116  2.6769  0.7845
  137ACOH    H2 9995   6.977   5.518   0.758 -0.0249 -0.6705  2.3517
  137ACOH    H3 9996   6.931   5.369   0.679 -1.3793 -1.8451  0.8109
  138ACOH    H4 9997   7.130   7.213   5.924 -0.3804  1.1139  0.4643
  138ACOH    O2 9998   7.093   7.167   6.002 -0.3206  0.3862  0.0720
  138ACOH    C2 9999   7.001   7.245   6.057  0.4693 -0.1484  0.3864
  138ACOH    O110000   6.944   7.345   6.019  0.1506  0.1564 -0.1445
  138ACOH    C110001   6.975   7.169   6.178 -0.3787 -0.0272 -0.2821
  138ACOH    H110002   6.973   7.243   6.258 -1.2915  0.5842 -0.8619
  138ACOH    H210003   7.049   7.092   6.201  1.7761  1.3329 -2.3791
  138ACOH    H310004   6.881   7.114   6.175 -0.0959 -0.5463  0.2857
  139ACOH    H410005   1.104   4.131   6.517 -2.1185 -2.1076  1.3482
  139ACOH    O210006   1.023   4.178   6.491 -0.5725 -0.4361 -0.6095
  139ACOH    C210007   0.946   4.080   6.439 -0.2849 -0.1719  0.8968
  139ACOH    O110008   0.966   3.958   6.449  0.2428 -0.5331 -0.1455
  139ACOH    C110009   0.825   4.134   6.381  0.1227 -0.5117 -0.0396
  139ACOH    H110010   0.843   4.242   6.381  0.2611 -0.5160  1.8845
  139ACOH    H210011   0.741   4.109   6.446 -2.3924  2.7992 -1.8458
  139ACOH    H310012   0.797   4.099   6.282 -2.5039 -2.0162  1.1682
  140ACOH    H410013   6.253   1.641   3.006  0.5214 -1.4342 -0.5229
  140ACOH    O210014   6.333   1.674   3.049 -0.6155  0.5025  0.1718
  140ACOH    C210015   6.291   1.711   3.169 -0.4654  0.0017  0.0274
  140ACOH    O110016   6.176   1.738   3.201 -0.0018  0.3745 -0.1474
  140ACOH    C110017   6.408   1.722   3.260 -0.0320 -0.0380  0.2469
  140ACOH    H110018   6.491   1.656   3.236 -0.5248 -0.7799  0.5698
  140ACOH    H210019   6.369   1.687   3.355  0.5250 -0.7289  0.2212
  140ACOH    H310020   6.437   1.826   3.276  1.8829 -0.8046  1.9891
  141ACOH    H410021   7.848   9.359   0.969 -0.1022  0.7496 -1.4912
  141ACOH    O210022   7.756   9.326   0.970 -0.0459  0.6133 -0.1631
  141ACOH    C210023   7.681   9.429   0.930  0.1145 -0.2882  0.0782
  141ACOH    O110024   7.715   9.508   0.840  0.0589 -0.1431 -0.7769
  141ACOH    C110025   7.534   9.409   0.952 -0.5779 -0.2047 -0.4710
  141ACOH    H110026   7.501   9.310   0.919  1.1222 -0.8270 -0.3629
  141ACOH    H210027   7.477   9.479   0.891 -1.6526 -0.4908  0.2060
  141ACOH    H310028   7.523   9.419   1.059  0.8370  0.1749 -0.3495
  142ACOH    H410029   4.897   6.139   1.068  0.0915  0.5257  0.3916
  142ACOH    O210030   4.812   6.094   1.081  0.1251  0.2840 -0.1862
  142ACOH    C210031   4.774   6.145   1.198  0.2790 -0.8873 -0.5125
  142ACOH    O110032   4.829   6.230   1.260  0.7360  0.3729  0.3082
  142ACOH    C110033   4.637   6.109   1.226 -0.2064 -0.6602 -0.2460
  142ACOH    H110034   4.581   6.110   1.133  0.3531 -2.3538 -0.6220
  142ACOH    H210035   4.594   6.166   1.308  0.1834 -0.4879 -0.1633
  142ACOH    H310036   4.641   6.006   1.263  0.3992 -0.7913 -0.6682
  143ACOH    H410037   8.140   7.640   1.459 -2.0132 -0.6482  0.3814
  143ACOH    O210038   8.092   7.724   1.448 -0.3707  0.2955  0.2869
  143ACOH    C210039   8.121   7.763   1.324 -0.4721 -0.8540 -0.0075
  143ACOH    O110040   8.205   7.729   1.247  0.1196  0.3170 -0.4893
  143ACOH    C110041   8.017   7.857   1.280  0.3724 -0.0652  0.0264
  143ACOH    H110042   8.004   7.941   1.348  1.7750  0.1105  0.1057
  143ACOH    H210043   7.924   7.800   1.272 -1.0048  2.2678 -0.8051
  143ACOH    H310044   8.043   7.894   1.181 -1.9584  1.6257  0.0241
  144ACOH    H410045   6.276   1.351   0.337  0.1631 -1.8250  2.3816
  144ACOH    O210046   6.229   1.272   0.305 -0.7142 -0.2184 -0.4990
  144ACOH    C210047   6.251   1.253   0.173  1.0973  0.7106 -0.2511
  144ACOH    O110048   6.285   1.335   0.090  0.6213 -0.1115 -0.3055
  144ACOH    C110049   6.214   1.115   0.129 -0.9551 -0.3437  0.3455
  144ACOH    H110050   6.306   1.060   0.110  0.1096  1.3956  0.3769
  144ACOH    H210051   6.162   1.117   0.034 -1.9485  0.2922  0.8943
  144ACOH    H310052   6.155   1.063   0.204 -0.0386 -0.6625  0.8621
  145ACOH    H410053   4.360   6.790   1.060 -0.3536  1.0054 -0.3762
  145ACOH    O210054   4.320   6.825   0.979  0.2067  0.4132 -0.9116
  145ACOH    C210055   4.363   6.765   0.869 -0.4427  0.1594  0.2509
  145ACOH    O110056   4.437   6.668   0.864 -0.5731  0.5899 -0.5636
  145ACOH    C110057   4.291   6.810   0.746  0.1185 -0.4207 -0.3648
  145ACOH    H110058   4.201   6.751   0.730  0.9991 -1.8682 -0.0504
  145ACOH    H210059   4.356   6.802   0.659 -2.4052  1.9431 -2.5695
  145ACOH    H310060   4.257   6.913   0.756  2.4250  0.1908  1.6534
  146ACOH    H410061   9.606   8.199   4.286  0.5681  3.9649 -0.8018
  146ACOH    O210062   9.698   8.178   4.264  0.1590 -0.0702  0.8683
  146ACOH    C210063   9.746   8.075   4.339 -0.0181  0.2103 -0.4999
  146ACOH    O110064   9.671   8.002   4.405  0.0050  0.4403 -0.0641
  146ACOH    C110065   9.879   8.025   4.301  0.2883 -0.2541 -0.1038
  146ACOH    H110066   9.910   8.040   4.197 -0.4501 -1.8592 -0.5592
  146ACOH    H210067   9.882   7.917   4.314 -2.1157 -0.1035  2.1770
  146ACOH    H310068   9.963   8.063   4.359  1.1179  1.3145 -2.2411
  147ACOH    H410069   5.337   3.285   4.034 -3.0845  0.5096 -1.4284
  147ACOH    O210070   5.319   3.365   4.087 -0.1150 -0.1246  0.6780
  147ACOH    C210071   5.193   3.392   4.067  0.4975  0.1236 -0.3254
  147ACOH    O110072   5.117   3.323   4.000  0.2423 -0.1439  0.1300
  147ACOH    C110073   5.151   3.505   4.160  0.3883  0.2180 -0.4183
  147ACOH    H110074   5.084   3.575   4.110  0.0103  0.7901  0.8452
  147ACOH    H210075   5.242   3.560   4.181  0.2315  1.0905 -2.0215
  147ACOH    H310076   5.106   3.469   4.253 -0.4379  1.5351 -0.2993
  148ACOH    H410077   9.378   6.013   0.603  0.1866 -3.7191  0.7046
  148ACOH    O210078   9.289   5.994   0.568 -0.2597  0.0530 -0.3872
  148ACOH    C210079   9.258   5.867   0.595 -0.1562 -0.7934  0.4826
  148ACOH    O110080   9.321   5.797   0.675  0.2089  0.0195  0.1538
  148ACOH    C110081   9.118   5.848   0.566  0.5313 -0.0117 -0.3810
  148ACOH    H110082   9.068   5.902   0.647 -1.1158  1.2127 -2.1635
  148ACOH    H210083   9.079   5.747   0.556  1.3724 -0.2741 -0.9745
  148ACOH    H310084   9.102   5.903   0.473  0.2400  1.1853  0.3594
  149ACOH    H410085   7.467   7.433   5.965  1.0818 -0.2890  1.7519
  149ACOH    O210086   7.408   7.364   6.001  0.2869 -0.4582  0.1618
  149ACOH    C210087   7.423   7.252   5.926  0.1355  0.4827 -0.0713
  149ACOH    O110088   7.461   7.248   5.812 -0.3637 -0.8797  0.1441
  149ACOH    C110089   7.390   7.135   6.013  0.1552  0.5790  0.2555
  149ACOH    H110090   7.324   7.066   5.960 -1.4752  4.0716 -2.5294
  149ACOH    H210091   7.332   7.167   6.100 -0.3125  1.1090 -0.2423
  149ACOH    H310092   7.480   7.089   6.053  0.6983 -0.1105 -1.7264
  150ACOH    H410093   4.123   5.663   6.091  1.0302 -0.2885  1.8377
  150ACOH    O210094   4.101   5.752   6.123 -0.5199  0.0590 -0.1133
  150ACOH    C210095   4.043   5.745   6.247 -0.8314 -0.5139 -0.3545
  150ACOH    O110096   4.026   5.642   6.309 -0.0904  0.4761 -0.4465
  150ACOH    C110097   3.983   5.873   6.296 -0.1680  0.6313  0.3721
  150ACOH    H110098   4.054   5.920   6.365  0.4312 -0.8883  0.8222
  150ACOH    H210099   3.886   5.854   6.341  0.1688  0.3197  0.9657
  150ACOH    H310100   3.970   5.945   6.216 -0.3859 -2.5502 -2.5559
  151ACOH    H410101   4.673   2.549   5.506  0.7150  0.6796  0.1786
  151ACOH    O210102   4.642   2.628   5.554  0.3948  0.3487  0.5157
  151ACOH    C210103   4.732   2.729   5.557 -0.0973  0.7431  1.1822
  151ACOH    O110104   4.826   2.740   5.477  0.2216  0.6034 -0.0619
  151ACOH    C110105   4.675   2.818   5.660  0.3693 -0.4364  0.2693
  151ACOH    H110106   4.597   2.871   5.605 -0.9342 -2.5304  0.0601
  151ACOH    H210107   4.759   2.885   5.678 -0.1378  0.0116  1.0014
  151ACOH    H310108   4.625   2.772   5.745  1.2140  0.2101  1.1247
  152ACOH    H410109   9.913   2.894   4.776 -0.4325 -1.8576  0.2560
  152ACOH    O210110   9.817   2.908   4.770 -0.0459  1.0763  0.4382
  152ACOH    C210111   9.777   3.024   4.711 -0.3455  0.4020  0.8462
  152ACOH    O110112   9.671   3.030   4.658  0.3896  0.3392 -0.0674
  152ACOH    C110113   9.865   3.138   4.717  0.2106 -0.4501  0.1000
  152ACOH    H110114   9.956   3.122   4.774 -0.3604 -0.7814  0.9395
  152ACOH    H210115   9.814   3.215   4.774  0.6692  0.4530 -0.6979
  152ACOH    H310116   9.890   3.170   4.616  0.7649 -0.6496  0.1723
  153ACOH    H410117   2.800   0.285   5.875  0.7844  0.2703  1.9521
  153ACOH    O210118   2.816   0.190   5.890 -0.0090 -0.1607  0.1792
  153ACOH    C210119   2.785   0.144   5.769 -0.3444 -0.4565  0.4685
  153ACOH    O110120   2.723   0.199   5.682 -0.7864  0.1138  0.2683
  153ACOH    C110121   2.824  -0.002   5.760 -0.1107 -0.4833 -0.0304
  153ACOH    H110122   2.805  -0.045   5.661  0.7952 -1.6023  0.2669
  153ACOH    H210123   2.754  -0.056   5.823 -0.9960  0.0601 -0.5436
  153ACOH    H310124   2.927  -0.008   5.796  0.1221 -0.6016 -0.7162
  154ACOH    H410125   2.164   6.396   5.373 -0.3629  1.0294  1.1538
  154ACOH    O210126   2.244   6.451   5.364  0.2091 -0.0571 -0.6151
  154ACOH    C210127   2.310   6.465   5.475  0.1872 -0.1033 -0.2017
  154ACOH    O110128   2.262   6.431   5.584  0.4127  0.0036 -0.9871
  154ACOH    C110129   2.437   6.539   5.476 -0.6663  0.1850  0.3264
  154ACOH    H110130   2.487   6.548   5.380 -0.8859  2.7628  0.4075
  154ACOH    H210131   2.502   6.471   5.531  1.7449  1.1777 -1.2316
  154ACOH    H310132   2.432   6.641   5.516  1.6670  0.0345  1.0698
  155ACOH    H410133   6.380   2.088   4.924  0.6017  0.1820 -0.1953
  155ACOH    O210134   6.399   2.178   4.957  0.2833  0.1815 -0.0090
  155ACOH    C210135   6.449   2.258   4.863 -0.3994  1.0475 -0.4773
  155ACOH    O110136   6.402   2.266   4.756  0.1131 -0.2123 -0.6506
  155ACOH    C110137   6.516   2.377   4.923 -0.3492 -0.0865  0.0268
  155ACOH    H110138   6.480   2.475   4.893 -0.4317  1.1678  3.9361
  155ACOH    H210139   6.621   2.380   4.893 -0.2538  1.3892  0.4722
  155ACOH    H310140   6.519   2.374   5.032 -2.2473 -4.1804  0.0789
  156ACOH    H410141   4.708   8.092   6.560 -2.3448 -1.0771 -3.8928
  156ACOH    O210142   4.633   8.144   6.594  0.0372 -0.0619  0.1282
  156ACOH    C210143   4.673   8.241   6.676 -0.4510  0.2784  0.0936
  156ACOH    O110144   4.785   8.261   6.719  0.8174 -0.4345 -0.0166
  156ACOH    C110145   4.550   8.301   6.716  0.3637 -0.1609 -0.2272
  156ACOH    H110146   4.558   8.393   6.774  1.7194 -1.1297  1.1675
  156ACOH    H210147   4.512   8.234   6.792  0.3732 -2.9383 -2.5767
  156ACOH    H310148   4.476   8.305   6.636 -0.3622  0.9353  0.4807
  157ACOH    H410149   7.118   3.525   1.417 -0.1791  0.2189  0.3683
  157ACOH    O210150   7.154   3.439   1.444 -0.6983 -0.0533  0.2028
  157ACOH    C210151   7.252   3.459   1.531  0.7500  0.5524 -0.4573
  157ACOH    O110152   7.317   3.559   1.542 -0.1557 -0.5512 -0.0326
  157ACOH    C110153   7.284   3.337   1.620 -0.0045  0.2403  0.3927
  157ACOH    H110154   7.393   3.330   1.622  0.0220  0.4473 -0.0705
  157ACOH    H210155   7.248   3.242   1.582  1.6895 -0.5858  0.8388
  157ACOH    H310156   7.243   3.355   1.719 -1.4648 -0.4964 -0.0593
  158ACOH    H410157   7.894   1.596   2.238  0.8830  0.6491 -1.8822
  158ACOH    O210158   7.867   1.504   2.223 -0.0452  0.5234  0.3227
  158ACOH    C210159   7.970   1.443   2.165  0.0018 -0.5658 -0.7007
  158ACOH    O110160   8.063   1.502   2.114 -0.1825 -0.3649 -0.1907
  158ACOH    C110161   7.951   1.296   2.160  0.0482  0.9332 -0.5529
  158ACOH    H110162   7.850   1.267   2.133 -0.9066  2.1718  1.5907
  158ACOH    H210163   7.992   1.252   2.251 -0.3010  3.3187  0.7972
  158ACOH    H310164   8.015   1.265   2.078  1.3731  0.2176  0.7153
  159ACOH    H410165   3.448   7.316   5.786 -0.8335  0.2505  0.2205
  159ACOH    O210166   3.464   7.221   5.803 -0.6293  0.1160 -0.7119
  159ACOH    C210167   3.560   7.207   5.891  0.1512 -0.3551  0.5892
  159ACOH    O110168   3.640   7.298   5.926  0.1570 -0.1870 -0.4084
  159ACOH    C110169   3.554   7.073   5.958  0.7762 -0.3159 -0.3092
  159ACOH    H110170   3.651   7.027   5.939  2.6107  3.7846 -1.4800
  159ACOH    H210171   3.476   7.014   5.910  0.3597  1.1134 -1.4456
  159ACOH    H310172   3.542   7.097   6.064 -2.5022  0.8542 -0.8811
  160ACOH    H410173   3.193   4.115   5.745 -0.6265  0.9242  0.6453
  160ACOH    O210174   3.136   4.036   5.744 -0.1192  0.5747 -0.5138
  160ACOH    C210175   3.128   3.991   5.871 -0.5049 -0.1136  0.0697
  160ACOH    O110176   3.171   4.057   5.964  0.5957 -0.4900 -0.3766
  160ACOH    C110177   3.028   3.889   5.889  0.1079  0.4308  0.3421
  160ACOH    H110178   2.986   3.848   5.797 -0.5180  0.7910  0.4639
  160ACOH    H210179   2.950   3.942   5.944  0.6033  2.0958 -0.5432
  160ACOH    H310180   3.075   3.815   5.953 -1.3540 -0.8018  0.0487
  161ACOH    H410181   7.956   5.115   6.301  0.6140  0.1776 -1.0538
  161ACOH    O210182   7.937   5.208   6.283  0.1211  0.2567 -0.1654
  161ACOH    C210183   7.813   5.230   6.329 -0.1053 -0.8402 -0.0001
  161ACOH    O110184   7.737   5.145   6.368 -0.0321  0.4568  0.2204
  161ACOH    C110185   7.769   5.369   6.310  0.4627  0.2737  1.2516
  161ACOH    H110186   7.769   5.388   6.203  1.4528 -0.5600  1.0872
  161ACOH    H210187   7.846   5.432   6.355  0.7215 -1.8706  3.9749
  161ACOH    H310188   7.671   5.388   6.353 -0.0778 -0.5130  0.3662
  162ACOH    H410189   6.450   0.467   5.019 -0.1682 -0.0311 -0.2252
  162ACOH    O210190   6.432   0.541   4.958 -0.3813  0.1259  0.0269
  162ACOH    C210191   6.297   0.547   4.942 -0.0876  0.2550 -0.6788
  162ACOH    O110192   6.206   0.497   5.001  0.3048 -0.2323 -0.4780
  162ACOH    C110193   6.269   0.667   4.860 -0.5522  0.3531 -0.0871
  162ACOH    H110194   6.319   0.750   4.909  0.6577 -0.2465 -0.2905
  162ACOH    H210195   6.165   0.700   4.857 -0.2746  1.3332  0.9281
  162ACOH    H310196   6.316   0.670   4.762 -0.8679 -2.0597 -0.3350
  163ACOH    H410197   4.717   7.343   5.781  0.7163  1.9029 -0.3808
  163ACOH    O210198   4.804   7.302   5.767 -0.0441  0.0166  0.3177
  163ACOH    C210199   4.818   7.310   5.633  0.0563  0.1045 -0.3589
  163ACOH    O110200   4.750   7.367   5.548 -0.6623  0.1352  0.1059
  163ACOH    C110201   4.968   7.278   5.615  0.2814 -0.0648  0.1488
  163ACOH    H110202   4.989   7.242   5.515 -1.5780  0.4200 -0.4417
  163ACOH    H210203   5.020   7.221   5.692 -0.4968 -0.7014  0.2091
  163ACOH    H310204   5.016   7.375   5.627  0.2280  0.0008 -0.1687
  164ACOH    H410205   1.402   6.106   3.037  0.4612 -1.3609  1.9775
  164ACOH    O210206   1.493   6.132   3.014 -0.6204  0.2491 -0.6430
  164ACOH    C210207   1.545   6.030   2.949 -0.3591  0.1219 -0.1102
  164ACOH    O110208   1.486   5.928   2.918  0.8245 -0.0989  0.2433
  164ACOH    C110209   1.688   6.047   2.922 -1.1684  0.0250 -0.1952
  164ACOH    H110210   1.738   6.078   3.014 -1.9931 -1.4474  0.7685
  164ACOH    H210211   1.696   6.130   2.852 -1.0274  1.3786  1.3878
  164ACOH    H310212   1.735   5.954   2.891 -1.8979  0.5946 -3.1994
  165ACOH    H410213   8.979   0.635   1.357 -1.6953  0.7566 -1.8912
  165ACOH    O210214   8.902   0.627   1.415 -0.2990  0.3975 -0.0228
  165ACOH    C210215   8.784   0.618   1.356  0.0549  0.0998 -0.9093
  165ACOH    O110216   8.767   0.611   1.234 -0.2009 -0.6358  0.3971
  165ACOH    C110217   8.676   0.603   1.451 -0.0679  0.6578  0.0611
  165ACOH    H110218   8.590   0.579   1.389 -0.6631  0.6875  0.8778
  165ACOH    H210219   8.646   0.694   1.502  1.8960  1.2537  0.2133
  165ACOH    H310220   8.696   0.521   1.521 -0.1158  2.2901  2.0419
  166ACOH    H410221   4.867   3.947   1.673  0.7966 -2.5189  0.4529
  166ACOH    O210222   4.856   3.969   1.767  0.2491  0.4962 -0.2713
  166ACOH    C210223   4.969   4.037   1.795 -0.1265 -0.4216  0.1713
  166ACOH    O110224   5.067   4.055   1.722  0.2350  0.3778 -0.3163
  166ACOH    C110225   4.978   4.088   1.935  0.1176 -0.2587 -0.0861
  166ACOH    H110226   4.894   4.150   1.966  1.4921  0.2004  2.9215
  166ACOH    H210227   5.077   4.129   1.949  1.2296 -2.7370 -0.3403
  166ACOH    H310228   4.985   4.007   2.009  1.0032 -0.0924  0.0181
  167ACOH    H410229   6.234   2.806   3.926  1.2830 -4.2067  1.4102
  167ACOH    O210230   6.328   2.831   3.935  0.3223  0.4079 -0.2156
  167ACOH    C210231   6.371   2.857   3.813 -0.1327 -0.5747  0.0999
  167ACOH    O110232   6.307   2.890   3.715  0.0204 -0.4885  0.5992
  167ACOH    C110233   6.521   2.866   3.824  0.0286 -0.1633  0.5928
  167ACOH    H110234   6.559   2.915   3.734  0.8479 -1.9743 -0.0643
  167ACOH    H210235   6.569   2.768   3.824 -0.5382 -0.4503 -0.0472
  167ACOH    H310236   6.537   2.915   3.919 -0.3420  1.7336 -0.3033
  168ACOH    H410237   3.715   6.356   5.808 -1.6014  0.6266 -1.9400
  168ACOH    O210238   3.792   6.402   5.772  0.0755 -0.7246 -0.2096
  168ACOH    C210239   3.786   6.408   5.636 -0.0065 -0.6951  0.0898
  168ACOH    O110240   3.722   6.336   5.562 -0.8569  0.3857 -0.0273
  168ACOH    C110241   3.867   6.522   5.583  0.4308  0.1481  0.6361
  168ACOH    H110242   3.962   6.530   5.635 -0.0219  0.5176  1.4192
  168ACOH    H210243   3.805   6.610   5.600 -1.3846 -1.2367  1.2792
  168ACOH    H310244   3.892   6.510   5.478 -0.1512  0.1195  0.5005
  169ACOH    H410245   5.558   5.020   4.538  0.5387 -0.5637  0.1498
  169ACOH    O210246   5.632   5.076   4.566  0.4609 -0.2146 -0.3364
  169ACOH    C210247   5.580   5.179   4.639  0.9849 -0.3709  0.1874
  169ACOH    O110248   5.457   5.194   4.657 -0.2005  0.4291  0.0557
  169ACOH    C110249   5.681   5.279   4.674  0.1667  0.0572 -0.3277
  169ACOH    H110250   5.657   5.383   4.649 -0.7343 -0.0557  0.0801
  169ACOH    H210251   5.778   5.245   4.638  0.5665 -2.4686  2.9387
  169ACOH    H310252   5.697   5.274   4.782 -2.1180  0.4042  0.0519
  170ACOH    H410253   5.228   5.621   2.599 -0.1580  1.0596 -0.5715
  170ACOH    O210254   5.308   5.635   2.653 -0.6305  0.5134  0.2943
  170ACOH    C210255   5.325   5.546   2.754 -0.1308 -0.4864  0.0013
  170ACOH    O110256   5.227   5.492   2.805  0.4275 -0.5983  0.4338
  170ACOH    C110257   5.463   5.540   2.808  0.0199 -0.5418  0.5698
  170ACOH    H110258   5.493   5.630   2.863 -0.7105  0.4106 -0.5544
  170ACOH    H210259   5.523   5.545   2.717 -2.4132  0.0721 -1.0457
  170ACOH    H310260   5.486   5.446   2.858  3.4075  0.5488  1.2179
  171ACOH    H410261   6.726   3.548   1.024 -0.0578  0.2318 -3.0286
  171ACOH    O210262   6.656   3.481   1.020 -0.7798  0.6296  0.6301
  171ACOH    C210263   6.644   3.453   0.892  0.0369  0.0782  0.4594
  171ACOH    O110264   6.710   3.488   0.792  0.1283  0.6354 -0.3756
  171ACOH    C110265   6.527   3.367   0.870 -0.6001  0.9809 -0.5401
  171ACOH    H110266   6.487   3.334   0.966  0.7491  1.9280  0.3811
  171ACOH    H210267   6.558   3.276   0.820 -1.8741  1.0207 -1.4201
  171ACOH    H310268   6.448   3.419   0.816 -1.2439 -0.3368 -0.8696
  172ACOH    H410269   7.024   3.623   1.788 -2.6144  1.9943 -0.2447
  172ACOH    O210270   6.996   3.591   1.701  0.0654 -0.1021 -0.3890
  172ACOH    C210271   6.878   3.646   1.683  0.0554 -0.0663 -0.6024
  172ACOH    O110272   6.818   3.726   1.747 -0.1353  0.2503  0.0575
  172ACOH    C110273   6.825   3.607   1.550 -0.2320 -0.8411 -0.4762
  172ACOH    H110274   6.810   3.699   1.494 -1.2415 -1.6464 -1.5487
  172ACOH    H210275   6.731   3.554   1.563 -1.0500  1.0270  1.4713
  172ACOH    H310276   6.902   3.540   1.512 -0.1256 -1.6073  1.0728
  173ACOH    H410277   8.883   3.722   5.531 -0.7577 -0.5111 -0.4478
  173ACOH    O210278   8.920   3.696   5.446  0.3256  0.3506 -0.2511
  173ACOH    C210279   8.965   3.801   5.381 -0.0222  0.3409  0.1237
  173ACOH    O110280   8.931   3.916   5.395 -0.1231  0.1152  0.5467
  173ACOH    C110281   9.030   3.754   5.252  0.6315 -0.8404 -0.3191
  173ACOH    H110282   9.004   3.650   5.232  1.0913 -1.0510  0.1487
  173ACOH    H210283   9.138   3.745   5.267  0.7660 -1.0443 -1.3739
  173ACOH    H310284   9.000   3.813   5.166 -0.9708 -0.3014  0.5850
  174ACOH    H410285   6.342   2.299   3.230  0.0472  1.1024  1.0327
  174ACOH    O210286   6.332   2.244   3.310 -0.1020  0.1753  0.3839
  174ACOH    C210287   6.300   2.117   3.282 -0.2275 -0.1207 -0.2506
  174ACOH    O110288   6.263   2.068   3.175 -0.4741 -0.3198  0.4530
  174ACOH    C110289   6.248   2.059   3.406  0.2993 -0.2811 -0.3510
  174ACOH    H110290   6.340   2.040   3.463  1.2817  1.3396 -1.3646
  174ACOH    H210291   6.196   1.964   3.392  1.5628 -1.4608  2.4178
  174ACOH    H310292   6.182   2.128   3.458  1.2386  1.8187 -1.8754
  175ACOH    H410293   6.145   0.783   0.304 -1.6623  0.3051 -1.4704
  175ACOH    O210294   6.203   0.737   0.241  0.1255 -0.0845  0.3712
  175ACOH    C210295   6.206   0.611   0.289  0.9519  0.5256  0.1771
  175ACOH    O110296   6.171   0.569   0.399  0.2969  0.2424 -0.3776
  175ACOH    C110297   6.251   0.518   0.182  0.0976  0.3575 -0.8053
  175ACOH    H110298   6.167   0.450   0.166  1.2441 -1.9690  2.6801
  175ACOH    H210299   6.337   0.462   0.219 -1.4307 -1.6821 -0.2224
  175ACOH    H310300   6.280   0.568   0.089  1.6963 -1.3436 -1.2523
  176ACOH    H410301   7.490   4.748   5.573  0.6387  2.3009 -1.6196
  176ACOH    O210302   7.478   4.710   5.484 -0.1325 -0.4424 -0.4110
  176ACOH    C210303   7.405   4.599   5.515 -0.1346 -0.1351 -0.2725
  176ACOH    O110304   7.422   4.539   5.619  0.0713  0.1765 -0.2617
  176ACOH    C110305   7.359   4.523   5.396  0.1886  0.3084 -0.2228
  176ACOH    H110306   7.421   4.547   5.310  1.3153 -0.7834  0.2701
  176ACOH    H210307   7.250   4.533   5.390  0.1198  0.3902  1.1065
  176ACOH    H310308   7.380   4.418   5.418  3.8552  1.1066  0.3741
  177ACOH    H410309   0.264   1.296   3.831  0.0120  0.3527  0.4886
  177ACOH    O210310   0.352   1.317   3.865  0.3369  0.0841 -0.1744
  177ACOH    C210311   0.392   1.212   3.945  0.2274  0.0680 -0.3719
  177ACOH    O110312   0.314   1.155   4.021  0.4042 -0.0267  0.3270
  177ACOH    C110313   0.537   1.217   3.984 -0.0501  0.1556  0.5019
  177ACOH    H110314   0.542   1.283   4.071  1.4163  2.0886 -1.0247
  177ACOH    H210315   0.590   1.268   3.904  0.7127  0.2263  1.0501
  177ACOH    H310316   0.583   1.118   3.995 -1.7865 -0.8252 -0.8274
  178ACOH    H410317   7.679   4.549   5.035 -0.4325  2.1191 -1.3736
  178ACOH    O210318   7.612   4.509   4.978  0.3118 -0.6211 -0.4019
  178ACOH    C210319   7.647   4.526   4.848  0.2048 -0.6642 -0.0745
  178ACOH    O110320   7.752   4.580   4.807 -0.0934  0.1776 -0.3157
  178ACOH    C110321   7.561   4.444   4.763  0.1340 -0.5052 -0.1442
  178ACOH    H110322   7.587   4.453   4.657  0.4719  1.2160  0.0792
  178ACOH    H210323   7.463   4.485   4.787  0.5688 -0.7737  2.2256
  178ACOH    H310324   7.569   4.343   4.803  1.4874 -0.8462 -1.2372
  179ACOH    H410325   6.628   9.368   3.443 -0.1592 -0.9297 -0.2763
  179ACOH    O210326   6.568   9.348   3.516  0.5131 -0.4375  0.4145
  179ACOH    C210327   6.532   9.476   3.559 -0.2650 -0.5582  0.1780
  179ACOH    O110328   6.577   9.578   3.515 -0.0814 -0.9710  0.0091
  179ACOH    C110329   6.426   9.486   3.669 -0.6714  0.0820 -0.4569
  179ACOH    H110330   6.325   9.486   3.627 -1.4908  3.6013  1.3173
  179ACOH    H210331   6.442   9.585   3.711  2.3642 -0.7548  0.4766
  179ACOH    H310332   6.424   9.407   3.743  2.4900 -1.5625 -2.0258
  180ACOH    H410333   5.963   9.334   1.271 -0.1190  1.1719 -0.6737
  180ACOH    O210334   6.055   9.302   1.263 -0.2973  0.5261 -0.0805
  180ACOH    C210335   6.045   9.168   1.236  0.2776 -0.3073  0.4988
  180ACOH    O110336   5.942   9.112   1.201 -0.2788  0.0627 -0.7138
  180ACOH    C110337   6.181   9.099   1.245  0.1180  0.3938  0.4305
  180ACOH    H110338   6.178   8.991   1.255  1.3588  0.3042 -0.1123
  180ACOH    H210339   6.240   9.138   1.328  2.2705 -0.5341 -0.6261
  180ACOH    H310340   6.238   9.131   1.158 -1.0949  1.9176  0.1501
  181ACOH    H410341   4.702   7.615   4.863  0.5173 -0.6235  0.4631
  181ACOH    O210342   4.622   7.561   4.858  0.1783 -0.1193  0.4627
  181ACOH    C210343   4.578   7.569   4.728  0.5810  0.6726 -0.8537
  181ACOH    O110344   4.635   7.618   4.631 -0.4585 -0.6854  0.3212
  181ACOH    C110345   4.451   7.497   4.713  0.4041  0.2721  1.4420
  181ACOH    H110346   4.418   7.452   4.807 -3.8522  0.0112 -0.0675
  181ACOH    H210347   4.450   7.423   4.633 -0.2594  0.3582  1.3699
  181ACOH    H310348   4.374   7.568   4.685 -1.0266 -0.9603  2.1500
  182ACOH    H410349   0.246   2.325   6.013  0.0185  0.7526 -0.7446
  182ACOH    O210350   0.170   2.379   6.039  0.2405  0.2389  1.0222
  182ACOH    C210351   0.210   2.512   6.035  0.4421  0.6446  0.3219
  182ACOH    O110352   0.291   2.551   5.953  0.0352  0.6890  0.0953
  182ACOH    C110353   0.116   2.605   6.092 -0.9840 -0.3316 -0.1017
  182ACOH    H110354   0.173   2.695   6.113 -1.7360  0.5777 -1.8794
  182ACOH    H210355   0.074   2.568   6.185 -0.4835 -1.2650 -0.2404
  182ACOH    H310356   0.030   2.619   6.026  0.9570 -0.9155 -2.8463
  183ACOH    H410357   7.085   2.833   2.243  0.2762 -1.7247  0.1523
  183ACOH    O210358   7.019   2.834   2.172 -0.4406  0.3298  0.8238
  183ACOH    C210359   6.957   2.715   2.166  0.0785 -0.2471 -0.5977
  183ACOH    O110360   6.944   2.638   2.258  0.1054  0.2228 -0.1115
  183ACOH    C110361   6.880   2.711   2.046  0.3548 -0.1273  0.0309
  183ACOH    H110362   6.774   2.718   2.069  0.1276  2.9603 -1.6830
  183ACOH    H210363   6.903   2.624   1.985 -1.2271  1.0660 -2.3483
  183ACOH    H310364   6.895   2.795   1.977 -0.2808  0.5080  0.6582
  184ACOH    H410365   5.962   2.359   4.749 -0.0959  0.1729 -1.1438
  184ACOH    O210366   5.899   2.433   4.753 -0.0772  0.1327  0.2235
  184ACOH    C210367   5.789   2.389   4.684  0.1950 -0.2992 -0.0370
  184ACOH    O110368   5.775   2.291   4.612 -0.1280 -0.0407 -0.0748
  184ACOH    C110369   5.677   2.482   4.719 -0.2959  0.1485 -0.4981
  184ACOH    H110370   5.581   2.461   4.671 -1.7678 -1.4211  2.9339
  184ACOH    H210371   5.697   2.588   4.700 -3.3751  0.9670  0.5446
  184ACOH    H310372   5.661   2.463   4.825  0.6340  1.9393 -0.0009
  185ACOH    H410373   5.014   1.598   3.399 -0.2561  0.3912 -0.4527
  185ACOH    O210374   4.954   1.521   3.394 -0.0811  0.2266 -0.0066
  185ACOH    C210375   4.996   1.418   3.475 -0.1732  0.1635 -0.6694
  185ACOH    O110376   5.082   1.429   3.564  0.2224  0.2815  0.0221
  185ACOH    C110377   4.911   1.302   3.470  0.6225  0.6075  0.3271
  185ACOH    H110378   4.839   1.296   3.552  0.3246  1.3081  0.1268
  185ACOH    H210379   4.974   1.214   3.470 -0.7021 -0.3664 -0.1823
  185ACOH    H310380   4.851   1.297   3.379  0.3618 -1.5858  0.5864
  186ACOH    H410381   9.060   1.525   4.105 -0.9304 -0.3524 -0.9656
  186ACOH    O210382   9.063   1.602   4.046  0.4075  0.0606 -0.3701
  186ACOH    C210383   9.196   1.617   4.025  0.5366 -0.1022 -0.0340
  186ACOH    O110384   9.277   1.531   3.998  0.1410  0.5352  0.1179
  186ACOH    C110385   9.228   1.757   3.998  0.6428 -0.5430  0.7671
  186ACOH    H110386   9.287   1.795   4.082  2.2514  0.3694 -0.7396
  186ACOH    H210387   9.140   1.820   3.984  2.5214  1.9485 -0.2192
  186ACOH    H310388   9.296   1.776   3.915  1.5145  1.1891  1.8383
  187ACOH    H410389   0.485   1.564   5.336  1.4064 -1.0639  3.0788
  187ACOH    O210390   0.397   1.548   5.372 -0.0013  0.3496  0.3777
  187ACOH    C210391   0.411   1.432   5.442 -0.2805 -0.2571 -0.5869
  187ACOH    O110392   0.507   1.396   5.506  0.0218  0.1485  0.2255
  187ACOH    C110393   0.286   1.360   5.472  0.2257  0.5632 -0.3709
  187ACOH    H110394   0.268   1.371   5.579  1.3335  2.0532 -0.3170
  187ACOH    H210395   0.312   1.255   5.455  0.5051  0.8102 -1.4899
  187ACOH    H310396   0.195   1.385   5.418 -0.8617 -0.9686  0.7138
  188ACOH    H410397   4.815   3.294   2.495 -0.9874  0.1023  0.0392
  188ACOH    O210398   4.751   3.236   2.452 -0.1891 -0.5455 -0.2912
  188ACOH    C210399   4.715   3.145   2.540  0.4102  0.1222 -0.3695
  188ACOH    O110400   4.756   3.133   2.653  0.6692 -0.2367 -0.1129
  188ACOH    C110401   4.602   3.060   2.492 -0.0862  0.1583  0.8283
  188ACOH    H110402   4.625   2.962   2.534  3.2400  0.2495 -0.6622
  188ACOH    H210403   4.604   3.050   2.384  0.8041  0.0635  0.8496
  188ACOH    H310404   4.500   3.088   2.518  0.4033  1.4669  1.3739
  189ACOH    H410405   5.792   7.150   2.251  0.5338  0.4202  0.2569
  189ACOH    O210406   5.787   7.179   2.159  0.5928  0.3228  0.2236
  189ACOH    C210407   5.817   7.312   2.159 -0.1542  0.5425  0.9126
  189ACOH    O110408   5.860   7.378   2.253  0.0878 -0.7262 -0.9033
  189ACOH    C110409   5.799   7.371   2.023  0.8049 -0.1912  0.2014
  189ACOH    H110410   5.868   7.455   2.020  0.6191 -0.0705 -0.6223
  189ACOH    H210411   5.695   7.396   2.002  0.7121 -1.2211 -0.6160
  189ACOH    H310412   5.829   7.294   1.953  0.6688  0.5323 -0.6547
  190ACOH    H410413   8.452   7.791   1.428 -1.6827 -1.5445 -0.9757
  190ACOH    O210414   8.439   7.743   1.511 -0.3878 -0.0230  0.1434
  190ACOH    C210415   8.517   7.813   1.600 -0.0516  0.2566 -0.5625
  190ACOH    O110416   8.567   7.922   1.580 -0.1986  0.2929 -0.8279
  190ACOH    C110417   8.504   7.762   1.744 -0.0120  0.1736 -0.2998
  190ACOH    H110418   8.595   7.778   1.802  1.5277 -1.3922 -2.1848
  190ACOH    H210419   8.470   7.658   1.751 -0.9404  0.5235  0.5737
  190ACOH    H310420   8.421   7.825   1.776 -0.7325 -0.6215 -0.5680
  191ACOH    H410421   0.230   4.357   4.150 -0.7202 -1.1465  0.4252
  191ACOH    O210422   0.323   4.369   4.178 -0.7919 -0.3434  0.3136
  191ACOH    C210423   0.390   4.255   4.187 -0.3225  0.1772  0.2933
  191ACOH    O110424   0.342   4.149   4.194  0.6068  0.2770 -0.2549
  191ACOH    C110425   0.527   4.286   4.210 -0.2579  0.3041  0.0663
  191ACOH    H110426   0.582   4.201   4.251  0.4328  0.7998  0.1766
  191ACOH    H210427   0.533   4.374   4.274 -1.1357  0.8011 -0.5213
  191ACOH    H310428   0.571   4.304   4.112 -1.4475  2.0980 -0.1549
  192ACOH    H410429   6.664   7.514   5.746  0.6343  2.0210  0.2595
  192ACOH    O210430   6.581   7.538   5.700  0.1300  0.7689  0.4885
  192ACOH    C210431   6.579   7.671   5.690  0.3563 -0.4754  0.0617
  192ACOH    O110432   6.510   7.729   5.606 -0.1058  0.2642  0.7199
  192ACOH    C110433   6.653   7.747   5.791 -0.3650  0.8908  0.5622
  192ACOH    H110434   6.757   7.764   5.763 -0.0860  0.8520  1.5634
  192ACOH    H210435   6.662   7.694   5.886 -1.0994  1.5095  0.9812
  192ACOH    H310436   6.598   7.838   5.813  0.4219  1.2353  1.1265
  193ACOH    H410437   5.233   3.655   1.326 -0.2386  0.5127 -1.0885
  193ACOH    O210438   5.318   3.621   1.292  0.2557  0.4747  0.1773
  193ACOH    C210439   5.291   3.583   1.164 -0.6667  0.3600 -0.1131
  193ACOH    O110440   5.185   3.577   1.101 -0.2867 -0.0927  0.4972
  193ACOH    C110441   5.413   3.518   1.116  0.5182  0.7273  0.0369
  193ACOH    H110442   5.395   3.479   1.016  0.2009  0.7954  0.0672
  193ACOH    H210443   5.426   3.430   1.179 -1.8565 -1.4507 -2.4013
  193ACOH    H310444   5.498   3.585   1.110  1.1824 -0.2646 -2.2158
  194ACOH    H410445   0.171   9.624   0.807 -0.1661 -0.2232 -0.7378
  194ACOH    O210446   0.148   9.701   0.752 -0.2471  0.1725 -0.1563
  194ACOH    C210447   0.267   9.752   0.705  0.3683  0.2423  0.5901
  194ACOH    O110448   0.379   9.702   0.718 -0.3322  0.3815 -0.1368
  194ACOH    C110449   0.245   9.886   0.648  0.0115 -0.6973 -0.9874
  194ACOH    H110450   0.162   9.884   0.577  1.0309 -0.8385 -2.1794
  194ACOH    H210451   0.337   9.919   0.600  0.6157  1.6402  1.6741
  194ACOH    H310452   0.233   9.955   0.731  1.8479 -1.2587 -0.2317
  195ACOH    H410453   5.149   5.258   2.017 -1.9910 -1.4512  0.5890
  195ACOH    O210454   5.130   5.313   2.094 -0.2469 -0.1099  0.1105
  195ACOH    C210455   5.045   5.240   2.167 -0.2324  0.5916 -0.3603
  195ACOH    O110456   5.010   5.121   2.146 -0.7856  0.1337  0.5401
  195ACOH    C110457   5.035   5.298   2.307  0.4078  0.0236  0.1083
  195ACOH    H110458   5.095   5.247   2.382 -0.4126 -0.1449  0.6663
  195ACOH    H210459   4.930   5.302   2.338  0.1833 -1.3867 -0.4243
  195ACOH    H310460   5.070   5.401   2.309 -1.2697  0.6503 -1.4023
  196ACOH    H410461   8.075   8.657   1.592 -0.6790 -1.5550  0.5553
  196ACOH    O210462   8.011   8.668   1.520 -0.2743 -0.2651  0.3823
  196ACOH    C210463   8.075   8.699   1.410  0.0973  0.2172  0.0244
  196ACOH    O110464   8.185   8.746   1.394  0.0898 -0.1768  0.3064
  196ACOH    C110465   7.989   8.701   1.291  0.3646  0.4027  0.1128
  196ACOH    H110466   7.888   8.735   1.311 -0.4228 -0.5688 -2.0861
  196ACOH    H210467   7.998   8.604   1.243  0.4961  0.8848 -0.8542
  196ACOH    H310468   8.020   8.771   1.214  0.8464 -1.6736 -1.6186
  197ACOH    H410469   8.112   1.476   3.911  0.4908  4.7993  0.4476
  197ACOH    O210470   8.055   1.468   3.989  0.3122  0.2312 -0.0390
  197ACOH    C210471   8.076   1.350   4.050 -0.5173 -0.4824  0.9350
  197ACOH    O110472   8.180   1.291   4.034  0.2224  0.3417 -0.5134
  197ACOH    C110473   7.960   1.313   4.128  1.1826  0.2068 -0.0557
  197ACOH    H110474   7.880   1.280   4.062 -0.0952  1.3754  0.8758
  197ACOH    H210475   7.932   1.405   4.180 -0.0194  0.6406 -1.4639
  197ACOH    H310476   7.969   1.231   4.200  0.0113 -0.2746 -0.4429
  198ACOH    H410477   7.124   3.191   2.512 -0.2923 -1.3760  2.0232
  198ACOH    O210478   7.029   3.195   2.489  0.2840  0.3747 -0.2519
  198ACOH    C210479   6.963   3.231   2.599  0.2380 -0.6934  0.1771
  198ACOH    O110480   7.008   3.242   2.712  0.4646  0.2130 -0.3604
  198ACOH    C110481   6.818   3.250   2.570 -0.3700 -0.7422  0.3314
  198ACOH    H110482   6.769   3.153   2.568  1.7594 -1.8888  1.4424
  198ACOH    H210483   6.812   3.287   2.468 -0.1709 -1.0663  0.1989
  198ACOH    H310484   6.783   3.319   2.647  0.3673  1.5728 -1.3517
  199ACOH    H410485   6.026   5.265   1.574  0.0825  0.2510  0.8133
  199ACOH    O210486   6.087   5.341   1.574  0.1786  0.1741  0.0524
  199ACOH    C210487   6.191   5.297   1.638  0.3437 -0.0073 -0.4759
  199ACOH    O110488   6.216   5.188   1.686  0.1506  0.0148  0.0186
  199ACOH    C110489   6.295   5.399   1.629  0.0746  0.6438 -0.5133
  199ACOH    H110490   6.380   5.348   1.584 -0.2181 -0.6970  0.4378
  199ACOH    H210491   6.309   5.443   1.727  0.4459 -0.5771 -0.0105
  199ACOH    H310492   6.274   5.482   1.561  0.2942  1.5073  0.4590
  200ACOH    H410493   1.166   0.617   4.402  0.8419 -0.7726  0.2686
  200ACOH    O210494   1.159   0.704   4.360  0.5022 -0.5020  0.8799
  200ACOH    C210495   1.153   0.682   4.224  0.4869  0.1051  0.0136
  200ACOH    O110496   1.103   0.586   4.168 -0.0267 -0.2739 -0.5204
  200ACOH    C110497   1.162   0.812   4.158  0.3681  0.5732 -0.5573
  200ACOH    H110498   1.267   0.824   4.131  0.2474  0.8670 -0.9049
  200ACOH    H210499   1.131   0.894   4.224 -1.8507 -2.3210  2.1486
  200ACOH    H310500   1.094   0.816   4.073  0.0508  0.2688 -0.3233
  201ACOH    H410501   4.636   5.319   3.617  1.1803 -0.3818  1.1297
  201ACOH    O210502   4.594   5.396   3.659  0.3285 -0.0234 -0.3721
  201ACOH    C210503   4.700   5.461   3.710 -0.6348  0.5690  0.0421
  201ACOH    O110504   4.815   5.440   3.681 -0.6544  0.5220 -0.2689
  201ACOH    C110505   4.645   5.594   3.752 -0.0658 -0.0476 -0.0560
  201ACOH    H110506   4.626   5.654   3.663  0.5630  0.5464  0.2068
  201ACOH    H210507   4.714   5.641   3.822  0.6898 -0.9927 -0.1433
  201ACOH    H310508   4.548   5.580   3.798 -0.0866 -1.8997 -0.6201
  202ACOH    H410509   7.021   2.686   1.212  0.7436 -2.0087  0.3859
  202ACOH    O210510   6.967   2.661   1.135  0.1336  0.2874  0.0286
  202ACOH    C210511   6.899   2.775   1.096  0.3341  0.7694  0.0104
  202ACOH    O110512   6.905   2.879   1.153 -0.4765 -0.0772 -0.4685
  202ACOH    C110513   6.814   2.762   0.978 -0.3057  0.3181 -1.1384
  202ACOH    H110514   6.864   2.697   0.906 -1.0007 -1.1719 -0.3021
  202ACOH    H210515   6.789   2.855   0.927 -1.3640  1.3697  1.2607
  202ACOH    H310516   6.723   2.706   1.001 -0.4273  1.2205  0.6011
  203ACOH    H410517   5.137   2.662   2.417 -0.4134  1.3329  1.9197
  203ACOH    O210518   5.198   2.714   2.362 -0.5761 -0.7611 -0.3371
  203ACOH    C210519   5.321   2.670   2.351 -0.0150  0.1656  0.1995
  203ACOH    O110520   5.360   2.569   2.408  0.6075 -0.5889  0.2051
  203ACOH    C110521   5.408   2.739   2.257 -0.5811 -0.1666  0.6216
  203ACOH    H110522   5.507   2.758   2.298  0.2190 -0.5982 -1.0509
  203ACOH    H210523   5.372   2.838   2.227 -0.6598 -1.0753 -2.5177
  203ACOH    H310524   5.426   2.670   2.174 -0.1444  0.3934  0.2455
  204ACOH    H410525   4.402   6.157   3.410  0.1796 -0.7856 -2.3479
  204ACOH    O210526   4.453   6.236   3.386  0.2548 -0.1648 -0.2491
  204ACOH    C210527   4.495   6.215   3.260  0.7161  0.4911  0.5073
  204ACOH    O110528   4.509   6.105   3.209  0.7947  0.5558 -0.6457
  204ACOH    C110529   4.561   6.335   3.209 -0.7440 -0.1597 -0.5169
  204ACOH    H110530   4.664   6.303   3.195 -0.5954  1.0389 -2.4221
  204ACOH    H210531   4.548   6.418   3.278  0.7349  0.5244 -1.0383
  204ACOH    H310532   4.516   6.351   3.111 -1.2079 -0.8105 -0.4157
  205ACOH    H410533   6.545   8.934   6.140  1.9214 -1.4126 -2.0900
  205ACOH    O210534   6.622   8.988   6.165  0.2669  0.1469 -0.1767
  205ACOH    C210535   6.584   9.115   6.136  0.4624 -0.1893 -0.6020
  205ACOH    O110536   6.475   9.140   6.085  0.1009  0.6148 -0.3339
  205ACOH    C110537   6.689   9.212   6.167  0.1885  0.3523 -0.4347
  205ACOH    H110538   6.773   9.163   6.216  0.7319 -0.0743 -1.7644
  205ACOH    H210539   6.644   9.297   6.218  0.7526  0.5798 -0.3125
  205ACOH    H310540   6.723   9.245   6.069  1.2126  0.4128 -0.0598
  206ACOH    H410541   8.442   8.382   0.311 -1.7456 -2.1158 -0.8849
  206ACOH    O210542   8.361   8.434   0.324  0.0002  0.5553 -0.2823
  206ACOH    C210543   8.263   8.358   0.381 -0.4273 -0.3453  0.4624
  206ACOH    O110544   8.267   8.245   0.422 -0.5649 -0.7396 -0.1172
  206ACOH    C110545   8.139   8.444   0.393  0.2997 -0.0288  0.2838
  206ACOH    H110546   8.158   8.522   0.466 -0.0679  0.4137 -0.0972
  206ACOH    H210547   8.059   8.381   0.433 -0.0183 -0.2771 -0.7343
  206ACOH    H310548   8.114   8.496   0.301  1.3343  0.0714  0.0460
  207ACOH    H410549   7.424   0.336   5.998  3.1115 -0.8213  0.4285
  207ACOH    O210550   7.443   0.396   5.925  1.0097 -0.5537  0.0776
  207ACOH    C210551   7.401   0.326   5.818  0.2311 -0.2355  0.0286
  207ACOH    O110552   7.363   0.211   5.815  0.5638  0.3009  0.2790
  207ACOH    C110553   7.449   0.400   5.704  0.0337  0.7647  0.5886
  207ACOH    H110554   7.410   0.372   5.605 -1.1969  0.4099  1.1564
  207ACOH    H210555   7.558   0.394   5.704  0.0019 -1.0611 -2.1837
  207ACOH    H310556   7.430   0.507   5.704 -1.4005  0.5226  0.3149
  208ACOH    H410557   3.427   5.956   4.399 -1.0677  3.9482 -0.3300
  208ACOH    O210558   3.489   5.952   4.324 -0.1957  0.0668  0.4962
  208ACOH    C210559   3.558   6.074   4.319  0.4635  0.2061 -0.2984
  208ACOH    O110560   3.505   6.177   4.356  0.1495  0.7066 -0.2099
  208ACOH    C110561   3.662   6.068   4.213  0.2051  0.4374  0.0379
  208ACOH    H110562   3.739   5.995   4.240 -0.9159 -0.5349  0.6287
  208ACOH    H210563   3.717   6.160   4.195 -0.4140  0.4818 -1.7798
  208ACOH    H310564   3.612   6.042   4.119  0.9888  0.7384 -0.4664
  209ACOH    H410565   7.467   1.150   1.920  0.5775 -0.7237  0.6594
  209ACOH    O210566   7.536   1.195   1.868 -0.3276 -0.0049  0.0482
  209ACOH    C210567   7.649   1.162   1.930 -0.5307 -0.5368 -0.4394
  209ACOH    O110568   7.651   1.107   2.040 -0.1041  0.8188  0.6032
  209ACOH    C110569   7.761   1.233   1.862 -0.1997  0.1658 -0.4654
  209ACOH    H110570   7.753   1.340   1.882 -0.9663 -0.0189  0.2332
  209ACOH    H210571   7.767   1.206   1.756 -2.2111 -1.3865 -0.2294
  209ACOH    H310572   7.852   1.199   1.911 -1.4952 -0.7221  1.4222
  210ACOH    H410573   2.290   6.950   0.333  0.3023  0.1117  0.4726
  210ACOH    O210574   2.347   6.962   0.411  0.2525 -0.1774  0.5518
  210ACOH    C210575   2.471   6.975   0.365 -0.0502 -0.7717 -0.4350
  210ACOH    O110576   2.510   6.940   0.254  0.4544 -0.4932  0.0476
  210ACOH    C110577   2.555   7.013   0.481  0.1021 -0.7256  0.1451
  210ACOH    H110578   2.502   6.979   0.570 -1.9775  1.3042 -0.2732
  210ACOH    H210579   2.560   7.121   0.491 -0.1566 -0.6144 -0.8932
  210ACOH    H310580   2.652   6.965   0.468 -0.2226 -1.2928 -0.2080
  211ACOH    H410581   5.831   6.567   1.962  3.0178 -0.5982  0.4296
  211ACOH    O210582   5.857   6.549   1.870  0.6862 -0.1639 -0.3462
  211ACOH    C210583   5.747   6.517   1.799 -0.2550  0.9636  0.5826
  211ACOH    O110584   5.631   6.520   1.843 -0.1301 -0.2619 -0.9332
  211ACOH    C110585   5.784   6.474   1.664  0.1034 -0.3707  0.2905
  211ACOH    H110586   5.824   6.554   1.602  1.7336 -2.5331 -1.5252
  211ACOH    H210587   5.696   6.440   1.609  1.0974 -2.7753  0.1353
  211ACOH    H310588   5.861   6.397   1.672  0.9199  0.3353 -0.7088
  212ACOH    H410589   7.718   3.463   3.320  0.7085 -1.4654  0.2175
  212ACOH    O210590   7.648   3.490   3.381  1.2272 -0.3056  0.3028
  212ACOH    C210591   7.532   3.445   3.328 -0.8189 -0.0589  0.0294
  212ACOH    O110592   7.518   3.425   3.209  0.2118  0.6405  0.0170
  212ACOH    C110593   7.426   3.466   3.428  0.2869  0.4558  0.7495
  212ACOH    H110594   7.429   3.573   3.448 -3.2017  1.0345 -1.4635
  212ACOH    H210595   7.443   3.419   3.525  2.3306 -1.0454 -0.2946
  212ACOH    H310596   7.330   3.449   3.379  0.2123 -1.1360  1.4292
  213ACOH    H410597   3.873   7.509   6.194  2.3226 -1.3510 -1.9340
  213ACOH    O210598   3.923   7.488   6.275 -0.2184  0.7913  0.3027
  213ACOH    C210599   3.854   7.554   6.374 -0.5101 -0.2181 -0.1782
  213ACOH    O110600   3.760   7.632   6.367 -0.8552 -0.1314  0.7866
  213ACOH    C110601   3.915   7.530   6.508 -0.4706  0.7886  0.9680
  213ACOH    H110602   3.997   7.459   6.500 -0.7112  0.6529 -0.4903
  213ACOH    H210603   3.849   7.488   6.585  0.4744  2.1529  2.5357
  213ACOH    H310604   3.940   7.629   6.547  1.7670 -0.1835  2.1145
  214ACOH    H410605   9.205   0.584   0.200 -0.0313 -0.9528 -0.9875
  214ACOH    O210606   9.297   0.611   0.214 -0.3866  0.0148 -0.4643
  214ACOH    C210607   9.287   0.699   0.315 -0.0226  0.8923 -0.3507
  214ACOH    O110608   9.193   0.775   0.328  0.3786  0.7269  0.2379
  214ACOH    C110609   9.425   0.722   0.365 -0.2184  0.1055  1.1654
  214ACOH    H110610   9.429   0.775   0.460 -2.7171 -1.6235  2.2824
  214ACOH    H210611   9.485   0.775   0.292  0.1781 -1.0382  0.6553
  214ACOH    H310612   9.467   0.623   0.382  2.1703  0.6572 -1.1965
  215ACOH    H410613   0.139   1.397   5.198  0.2899  0.0689  1.2495
  215ACOH    O210614   0.213   1.341   5.169 -0.3175 -0.2364  0.2527
  215ACOH    C210615   0.167   1.212   5.190 -0.4355 -0.1357  0.0436
  215ACOH    O110616   0.088   1.173   5.271 -0.2084  0.3747 -0.0872
  215ACOH    C110617   0.254   1.109   5.128  0.3273  0.3999  0.1600
  215ACOH    H110618   0.210   1.056   5.043  2.5720 -1.4869  0.1214
  215ACOH    H210619   0.264   1.032   5.205 -0.9983 -0.8230 -0.8475
  215ACOH    H310620   0.352   1.150   5.104  0.0839  1.5978  1.2284
  216ACOH    H410621   5.543   6.137   1.207 -2.6784  1.2075 -1.5520
  216ACOH    O210622   5.543   6.229   1.240 -0.6095  0.7958 -0.3245
  216ACOH    C210623   5.414   6.261   1.256  0.4904  0.0442  0.4815
  216ACOH    O110624   5.317   6.195   1.222 -0.0005 -0.4389 -0.1408
  216ACOH    C110625   5.402   6.410   1.269  0.3745  0.6469 -0.2325
  216ACOH    H110626   5.313   6.446   1.217  1.4472  1.0233 -1.8743
  216ACOH    H210627   5.488   6.463   1.228  1.2291 -0.6029 -0.0777
  216ACOH    H310628   5.403   6.431   1.376  0.2527  0.2801 -0.1590
  217ACOH    H410629   1.550   8.903   1.386 -0.1016 -0.0061  0.8023
  217ACOH    O210630   1.468   8.854   1.407 -0.2231 -0.2344 -0.1469
  217ACOH    C210631   1.373   8.910   1.330  0.1477 -0.4024  0.3848
  217ACOH    O110632   1.389   9.016   1.275 -0.4515 -0.7014 -0.1697
  217ACOH    C110633   1.245   8.829   1.344 -0.1954  0.2591 -0.0355
  217ACOH    H110634   1.263   8.740   1.284  0.8097 -0.0015  0.6428
  217ACOH    H210635   1.160   8.885   1.304  0.2174  0.2614 -0.9253
  217ACOH    H310636   1.233   8.793   1.446 -0.6965  1.0388  0.1936
  218ACOH    H410637   4.838   5.155   5.092 -0.3045  2.9316  0.6748
  218ACOH    O210638   4.894   5.172   5.014  0.0853  0.6683  0.4239
  218ACOH    C210639   4.819   5.257   4.942 -0.3504 -0.1813 -0.1832
  218ACOH    O110640   4.700   5.276   4.965 -0.8524 -0.0055 -0.3885
  218ACOH    C110641   4.886   5.311   4.825 -0.0968  0.2503  0.3123
  218ACOH    H110642   4.825   5.378   4.764  1.1887 -1.2442 -2.7068
  218ACOH    H210643   4.902   5.223   4.762 -1.4041  0.0039  0.3187
  218ACOH    H310644   4.975   5.369   4.848 -1.7627  2.3082  1.6876
  219ACOH    H410645   6.988   9.763   1.968 -0.3076  1.0780  1.3954
  219ACOH    O210646   6.898   9.774   1.933  0.0869  0.2194  0.0990
  219ACOH    C210647   6.841   9.656   1.959 -0.0320  0.9174  0.2805
  219ACOH    O110648   6.888   9.554   2.014 -0.4587  0.6427  0.2244
  219ACOH    C110649   6.697   9.661   1.925 -0.3705 -0.4702 -0.5137
  219ACOH    H110650   6.664   9.572   1.871 -1.2829  0.9219 -2.2765
  219ACOH    H210651   6.672   9.750   1.868 -0.7730  0.0456  0.4456
  219ACOH    H310652   6.636   9.663   2.016 -1.6340  0.8834 -1.3726
  220ACOH    H410653   7.540   5.530   5.054  0.3420  1.0416 -1.0210
  220ACOH    O210654   7.463   5.584   5.029 -0.7532 -0.0066  0.0395
  220ACOH    C210655   7.495   5.641   4.914 -0.1331  0.1810 -0.3936
  220ACOH    O110656   7.604   5.646   4.866  0.0893 -1.0784 -0.0959
  220ACOH    C110657   7.374   5.701   4.853  0.4809  0.3262  0.1852
  220ACOH    H110658   7.325   5.767   4.926  0.0069 -0.8517  0.9377
  220ACOH    H210659   7.303   5.627   4.817  0.1884 -0.6243  2.6390
  220ACOH    H310660   7.403   5.766   4.770  0.4855  0.3661  0.2185
  221ACOH    H410661   6.824   2.404   0.320  1.3906 -0.0788 -0.7249
  221ACOH    O210662   6.783   2.349   0.251  0.8518  0.2613 -0.6783
  221ACOH    C210663   6.854   2.241   0.219  0.0037  0.3586  0.7731
  221ACOH    O110664   6.947   2.186   0.276  0.8795  0.4209  0.2094
  221ACOH    C110665   6.792   2.178   0.098  0.3532 -0.1644  0.4981
  221ACOH    H110666   6.767   2.236   0.009 -2.2482 -2.1114 -0.0801
  221ACOH    H210667   6.697   2.137   0.130  0.8450 -0.4526  1.6324
  221ACOH    H310668   6.844   2.093   0.054  0.9663  0.3053  0.3049
  222ACOH    H410669   4.977   1.314   6.812  0.5018 -1.4841 -0.4030
  222ACOH    O210670   5.024   1.392   6.777  0.3948 -0.9319  0.6599
  222ACOH    C210671   5.091   1.348   6.672  0.5505  0.1783  0.0293
  222ACOH    O110672   5.110   1.235   6.629 -0.5306  0.2796 -0.1178
  222ACOH    C110673   5.137   1.463   6.585  0.1030  0.1557  0.0574
  222ACOH    H110674   5.081   1.452   6.493 -0.4194 -2.1191  0.6045
  222ACOH    H210675   5.246   1.458   6.577  0.2077  1.5653  0.4031
  222ACOH    H310676   5.112   1.560   6.629  1.5037  0.6995 -0.3256
  223ACOH    H410677   7.523   4.785   5.329 -0.1209  1.5259  2.0856
  223ACOH    O210678   7.531   4.848   5.255 -0.1880 -0.2841  0.5119
  223ACOH    C210679   7.591   4.962   5.298  0.7170 -0.2308 -1.1542
  223ACOH    O110680   7.692   4.968   5.372  0.2505 -0.4174  0.1994
  223ACOH    C110681   7.546   5.081   5.219  0.0305 -0.1999  0.2411
  223ACOH    H110682   7.490   5.142   5.290 -1.6460 -2.2302  0.7240
  223ACOH    H210683   7.480   5.039   5.144  0.9359 -3.4844  1.1736
  223ACOH    H310684   7.623   5.141   5.171 -2.5162  2.1394 -1.0144
  224ACOH    H410685   7.470   3.258   5.138 -0.6943  0.5839  0.7442
  224ACOH    O210686   7.447   3.352   5.128 -0.0971  0.6360 -0.1025
  224ACOH    C210687   7.546   3.412   5.059  0.5654  0.2820  0.6137
  224ACOH    O110688   7.630   3.361   4.984 -0.3292  0.3651 -0.1043
  224ACOH    C110689   7.535   3.559   5.070 -0.1128  1.0349  0.3262
  224ACOH    H110690   7.622   3.600   5.019 -0.1465 -0.6701 -1.1545
  224ACOH    H210691   7.532   3.590   5.174  0.2581  2.6952 -0.1381
  224ACOH    H310692   7.450   3.595   5.010  1.2301 -0.1031 -2.3449
  225ACOH    H410693   6.539   5.015   1.307  2.4805 -1.5207  0.9376
  225ACOH    O210694   6.502   5.031   1.396  0.6097 -0.2294 -0.0336
  225ACOH    C210695   6.604   5.092   1.452 -0.1047 -0.2985 -0.3625
  225ACOH    O110696   6.720   5.083   1.412 -0.2817  0.5734 -0.1348
  225ACOH    C110697   6.569   5.141   1.589 -1.2418  0.5433 -0.3741
  225ACOH    H110698   6.588   5.068   1.668  0.2273  1.7738  0.4361
  225ACOH    H210699   6.461   5.159   1.591 -0.9341  2.8638 -2.1069
  225ACOH    H310700   6.610   5.238   1.619 -0.2585 -0.5251  1.8136
  226ACOH    H410701   5.826   1.447   1.033  1.4797 -0.9143 -1.4973
  226ACOH    O210702   5.826   1.539   1.004 -0.1296 -0.2462  0.5004
  226ACOH    C210703   5.860   1.625   1.103 -0.4066 -0.3994  0.1277
  226ACOH    O110704   5.906   1.592   1.213 -0.5145 -0.5628 -0.1370
  226ACOH    C110705   5.845   1.766   1.068 -0.4609 -0.5078  0.1138
  226ACOH    H110706   5.858   1.833   1.153  1.9689  0.2728 -0.8247
  226ACOH    H210707   5.748   1.780   1.021 -0.0898 -0.7704 -0.7521
  226ACOH    H310708   5.922   1.797   0.997  1.4928  0.2440  2.4815
  227ACOH    H410709   8.144   7.404   2.122  0.0805 -0.4548  0.0461
  227ACOH    O210710   8.196   7.417   2.042 -0.3450 -0.5633 -0.2501
  227ACOH    C210711   8.133   7.506   1.960 -0.0935  0.4085  0.8121
  227ACOH    O110712   8.064   7.588   2.009 -0.2884 -0.3199  0.2045
  227ACOH    C110713   8.199   7.517   1.825 -0.4552 -0.3597  0.3065
  227ACOH    H110714   8.132   7.559   1.751  2.2290  1.0150 -1.4317
  227ACOH    H210715   8.228   7.416   1.795 -1.2410 -1.0783  1.8924
  227ACOH    H310716   8.287   7.581   1.830 -0.7960  0.2663 -1.4843
  228ACOH    H410717   5.236   4.482   0.187  1.4194 -1.0714 -0.8463
  228ACOH    O210718   5.272   4.450   0.272  0.4977 -0.3033 -0.1656
  228ACOH    C210719   5.256   4.321   0.267 -0.0522 -0.0703  0.4608
  228ACOH    O110720   5.224   4.251   0.172  0.5252  0.0825  0.3357
  228ACOH    C110721   5.316   4.260   0.390 -0.1144  0.4724  0.5042
  228ACOH    H110722   5.268   4.284   0.485  0.3039  1.3321  0.5109
  228ACOH    H210723   5.422   4.288   0.386  0.1557 -0.6870 -0.6695
  228ACOH    H310724   5.316   4.151   0.391  1.3648  0.4660  1.4494
  229ACOH    H410725   9.130   5.296   4.838  0.5572 -0.0863  1.0762
  229ACOH    O210726   9.207   5.349   4.811 -0.0494  0.2159 -0.0815
  229ACOH    C210727   9.277   5.285   4.717 -0.5551  0.7558  0.0322
  229ACOH    O110728   9.264   5.168   4.681  0.1623  0.6924 -0.0254
  229ACOH    C110729   9.402   5.354   4.679 -0.3562 -0.2998  0.1690
  229ACOH    H110730   9.439   5.418   4.758 -0.3253 -1.6156  1.2457
  229ACOH    H210731   9.378   5.409   4.588 -1.3503  2.2936  1.9448
  229ACOH    H310732   9.482   5.283   4.658  0.9312  1.3820 -0.6719
  230ACOH    H410733   4.905   4.071   5.042  0.1174  0.4602  0.7501
  230ACOH    O210734   4.984   4.051   5.095  0.0878 -0.0355  0.6093
  230ACOH    C210735   5.059   3.951   5.046  0.0205  0.2185 -0.5298
  230ACOH    O110736   5.027   3.870   4.957  0.0967  0.1273 -0.7731
  230ACOH    C110737   5.186   3.933   5.126  0.0898 -0.4516 -0.1797
  230ACOH    H110738   5.174   3.866   5.211  1.5059 -0.6753 -0.1429
  230ACOH    H210739   5.219   4.030   5.164 -0.7064 -0.0226 -0.5756
  230ACOH    H310740   5.262   3.884   5.065 -0.1003 -0.6511 -0.2526
  231ACOH    H410741   7.047   6.150   5.561 -1.2405  2.2919  1.8450
  231ACOH    O210742   6.958   6.151   5.521 -0.2140 -0.3193 -0.6886
  231ACOH    C210743   6.961   6.200   5.398 -0.3074 -0.6909  0.0803
  231ACOH    O110744   7.062   6.238   5.343  0.6783 -0.4293  0.0936
  231ACOH    C110745   6.820   6.212   5.351 -0.3443 -0.2749  0.3969
  231ACOH    H110746   6.783   6.114   5.382 -1.6470 -0.1751 -0.7795
  231ACOH    H210747   6.817   6.208   5.242  1.1282 -0.3297  0.3557
  231ACOH    H310748   6.760   6.290   5.397 -0.8493 -0.8103  0.6624
  232ACOH    H410749   6.989   2.612   4.409 -2.8502 -0.0478  3.2790
  232ACOH    O210750   6.973   2.708   4.400  1.3568  0.5087  0.0889
  232ACOH    C210751   6.851   2.728   4.458 -0.2595  0.4406 -0.1670
  232ACOH    O110752   6.795   2.648   4.531  0.2854 -0.4416 -0.6886
  232ACOH    C110753   6.802   2.864   4.438 -0.2749  0.1411  0.3062
  232ACOH    H110754   6.862   2.924   4.369 -3.1258  0.4619 -1.9970
  232ACOH    H210755   6.803   2.922   4.530 -1.1676  0.9858 -0.2000
  232ACOH    H310756   6.707   2.867   4.385  0.8617  3.0507 -1.7510
  233ACOH    H410757   3.412   9.340   0.258  0.1832  0.7298  1.8018
  233ACOH    O210758   3.438   9.252   0.290  0.0883  0.2092  0.4890
  233ACOH    C210759   3.569   9.247   0.284  0.5470 -0.2234  0.1247
  233ACOH    O110760   3.647   9.334   0.252  0.0013 -0.7188 -0.2267
  233ACOH    C110761   3.605   9.113   0.333  0.6184 -0.1728 -0.4834
  233ACOH    H110762   3.688   9.079   0.271  1.2283  0.5319 -0.0690
  233ACOH    H210763   3.527   9.039   0.315 -1.0165  1.1293  1.0495
  233ACOH    H310764   3.639   9.126   0.436  0.0967  0.9790 -0.4459
  234ACOH    H410765   7.495   5.821   0.490 -1.1872  0.0525  0.8619
  234ACOH    O210766   7.478   5.893   0.428 -0.4528 -0.6584 -0.1949
  234ACOH    C210767   7.574   5.984   0.438  0.9724  0.7238  0.6062
  234ACOH    O110768   7.653   5.979   0.531  0.0362 -0.1506  0.0024
  234ACOH    C110769   7.539   6.103   0.366 -0.4352  0.1931 -0.3389
  234ACOH    H110770   7.501   6.175   0.439 -1.6886 -1.0479  0.2442
  234ACOH    H210771   7.469   6.095   0.284 -3.0987  0.1522  1.8631
  234ACOH    H310772   7.631   6.147   0.327 -0.8813  1.5055  0.0525
  235ACOH    H410773   1.915   8.618   2.095 -0.3520  0.0131 -0.1425
  235ACOH    O210774   1.965   8.692   2.131 -0.4606 -0.2001  0.4439
  235ACOH    C210775   1.925   8.806   2.082 -0.1127 -1.1255  1.1812
  235ACOH    O110776   1.815   8.840   2.059  0.4237 -0.0167  0.2456
  235ACOH    C110777   2.021   8.910   2.121 -0.8991 -0.3192 -0.4639
  235ACOH    H110778   2.034   8.988   2.046 -0.7605  2.4628  2.3544
  235ACOH    H210779   2.121   8.866   2.124  0.3888  2.5083 -0.1060
  235ACOH    H310780   1.983   8.952   2.214 -0.2434 -0.7833  0.0265
  236ACOH    H410781   6.700   2.022   0.874 -0.6613  1.4233  0.7216
  236ACOH    O210782   6.702   2.074   0.791  0.5098 -0.7280 -0.6541
  236ACOH    C210783   6.717   2.200   0.839  0.2935  0.2389  1.0508
  236ACOH    O110784   6.752   2.234   0.947 -0.5654  0.3402 -0.5224
  236ACOH    C110785   6.743   2.285   0.722  0.1924 -0.0972  0.1310
  236ACOH    H110786   6.848   2.274   0.697  0.1693 -0.1418  0.0519
  236ACOH    H210787   6.722   2.390   0.744  0.6998 -0.2932  1.6090
  236ACOH    H310788   6.691   2.250   0.632  1.0417 -0.2485 -0.3024
  237ACOH    H410789   5.693   7.428   5.221  2.3009  0.0561 -0.0690
  237ACOH    O210790   5.710   7.406   5.314  0.2739 -0.3976  0.2203
  237ACOH    C210791   5.596   7.422   5.387 -0.0190  0.3530 -0.1476
  237ACOH    O110792   5.484   7.460   5.364  0.1679 -0.8863  0.0365
  237ACOH    C110793   5.622   7.386   5.529  0.7635  0.1567 -0.2789
  237ACOH    H110794   5.613   7.480   5.585  1.5847  1.3012 -2.0229
  237ACOH    H210795   5.722   7.342   5.533  0.6311 -0.1712 -0.5668
  237ACOH    H310796   5.549   7.311   5.559  0.1930  0.7727 -0.1222
  238ACOH    H410797   9.033   9.450   0.710  0.1217 -0.4187  0.9712
  238ACOH    O210798   8.971   9.414   0.645  0.1479  0.6983  0.3150
  238ACOH    C210799   8.881   9.517   0.630 -0.3729  0.2020  0.2954
  238ACOH    O110800   8.838   9.578   0.727 -0.4584 -0.4263  0.8589
  238ACOH    C110801   8.812   9.491   0.503 -0.4982  0.2193  0.4089
  238ACOH    H110802   8.711   9.528   0.518 -1.0021 -1.3486  1.0550
  238ACOH    H210803   8.804   9.386   0.476  1.5899  0.0887  0.1995
  238ACOH    H310804   8.854   9.564   0.434  1.9471  0.4667  2.0850
  239ACOH    H410805   6.842   1.978   5.454  0.2514  0.2824  1.9523
  239ACOH    O210806   6.905   2.052   5.454  0.3721  0.1941  0.3430
  239ACOH    C210807   6.984   2.044   5.562 -0.4289 -0.3594 -0.2497
  239ACOH    O110808   7.006   1.944   5.631  0.1887 -0.5736  0.2228
  239ACOH    C110809   7.046   2.176   5.582 -0.7045  0.1683 -0.7482
  239ACOH    H110810   7.064   2.219   5.484  0.5912 -1.4389 -1.2471
  239ACOH    H210811   7.146   2.161   5.624 -0.8104  2.1595  0.2565
  239ACOH    H310812   6.985   2.243   5.642  0.3137  2.0285 -1.7502
  240ACOH    H410813   4.843   6.377   1.329 -0.7627  1.1439 -1.4883
  240ACOH    O210814   4.853   6.459   1.379 -0.1177  0.2315 -0.0855
  240ACOH    C210815   4.978   6.481   1.428 -0.0547 -0.0567 -0.5239
  240ACOH    O110816   5.079   6.414   1.411 -0.2501  0.1238 -0.2227
  240ACOH    C110817   4.990   6.617   1.494  0.2164  0.5504  0.3079
  240ACOH    H110818   5.074   6.620   1.563  0.6865  2.2080 -0.3230
  240ACOH    H210819   4.898   6.634   1.550  0.1921 -1.8884  1.0885
  240ACOH    H310820   4.992   6.696   1.419  1.8421  3.3382  3.2142
  241ACOH    H410821   5.378   5.244   6.457 -0.5087  0.6685  0.9287
  241ACOH    O210822   5.372   5.302   6.380  0.1620 -0.3278  0.0949
  241ACOH    C210823   5.270   5.270   6.299 -0.3217  0.0564 -0.1885
  241ACOH    O110824   5.207   5.166   6.286  0.0474  0.9686  0.4385
  241ACOH    C110825   5.247   5.398   6.217 -0.4210 -0.0051 -0.0459
  241ACOH    H110826   5.177   5.369   6.139 -1.3489  1.7589  0.1073
  241ACOH    H210827   5.333   5.450   6.174  1.2001 -2.9946 -0.5581
  241ACOH    H310828   5.195   5.466   6.284 -0.7531 -1.0921  0.8283
  242ACOH    H410829   7.421   4.341   6.648  2.7710 -3.4058 -1.4046
  242ACOH    O210830   7.466   4.412   6.601 -0.2276 -0.3785  0.0791
  242ACOH    C210831   7.376   4.474   6.524  0.0705 -0.5673 -0.0589
  242ACOH    O110832   7.256   4.453   6.503 -0.0754  1.0127 -0.1253
  242ACOH    C110833   7.432   4.597   6.461 -0.9683  0.4101 -0.6945
  242ACOH    H110834   7.410   4.590   6.354  0.7754  0.1779 -1.0517
  242ACOH    H210835   7.540   4.596   6.477 -1.2641  0.2148  1.3779
  242ACOH    H310836   7.378   4.680   6.507  0.2918  1.5675 -1.2590
  243ACOH    H410837   7.435   5.378   6.518  0.0683 -0.2500  0.7667
  243ACOH    O210838   7.433   5.475   6.508 -0.5190 -0.3561 -0.1961
  243ACOH    C210839   7.413   5.507   6.631  0.2522  0.2401  0.4787
  243ACOH    O110840   7.413   5.435   6.729  0.0492 -0.1276  0.2059
  243ACOH    C110841   7.398   5.655   6.643  0.1068  0.5206 -0.0063
  243ACOH    H110842   7.385   5.689   6.746 -2.8628 -1.4178  0.3196
  243ACOH    H210843   7.317   5.692   6.581  0.4182  3.5564  1.3112
  243ACOH    H310844   7.493   5.696   6.609  0.8219  1.7432  3.2863
  244ACOH    H410845   9.159   1.668   4.360  1.5810  0.6815 -0.1014
  244ACOH    O210846   9.170   1.764   4.347 -0.0067  0.8193 -0.4746
  244ACOH    C210847   9.054   1.832   4.362 -0.1835 -0.5079  0.5610
  244ACOH    O110848   8.942   1.788   4.385 -0.4790  0.2626 -0.2038
  244ACOH    C110849   9.075   1.982   4.340  0.0729  0.2157  0.5650
  244ACOH    H110850   9.171   2.008   4.386 -0.4825 -0.5717  2.1867
  244ACOH    H210851   8.996   2.030   4.396  0.1386  1.2922 -0.2359
  244ACOH    H310852   9.074   2.004   4.233  2.1181 -2.9379 -0.1788
  245ACOH    H410853   5.729   2.789   3.221  0.4220 -1.1829  1.4465
  245ACOH    O210854   5.809   2.832   3.256  0.4626 -0.3402  0.3486
  245ACOH    C210855   5.781   2.868   3.383 -0.0267  0.0193 -0.1417
  245ACOH    O110856   5.713   2.802   3.461 -1.0870  0.3642  0.2247
  245ACOH    C110857   5.878   2.970   3.430 -0.1963  0.8871  1.0922
  245ACOH    H110858   5.915   3.021   3.342  1.3837 -1.8219  0.1029
  245ACOH    H210859   5.974   2.933   3.466 -0.6653 -2.1858 -0.6584
  245ACOH    H310860   5.827   3.039   3.497 -2.7854 -0.9584  1.1182
  246ACOH    H410861   4.417   7.144   4.719 -0.2116 -0.0339  0.4331
  246ACOH    O210862   4.380   7.159   4.631 -0.8429  0.1783  0.7287
  246ACOH    C210863   4.493   7.157   4.554  0.2445 -0.3031  0.3885
  246ACOH    O110864   4.608   7.188   4.581  0.1699  0.0665 -0.8681
  246ACOH    C110865   4.437   7.145   4.412 -0.0315  0.0253 -1.1194
  246ACOH    H110866   4.402   7.043   4.396 -0.2571  0.0585 -0.8259
  246ACOH    H210867   4.521   7.162   4.345 -1.3670  0.7054 -2.6339
  246ACOH    H310868   4.362   7.220   4.389 -1.3893 -1.5601 -1.8781
  247ACOH    H410869   1.208   5.778   5.447 -0.0580  0.0037 -0.7967
  247ACOH    O210870   1.255   5.856   5.414 -0.1819  0.3355 -0.2044
  247ACOH    C210871   1.382   5.810   5.412 -0.3009 -0.1514  0.4192
  247ACOH    O110872   1.419   5.700   5.376 -0.2962  0.3582  0.0821
  247ACOH    C110873   1.474   5.923   5.395  0.3904 -0.2093 -0.1942
  247ACOH    H110874   1.497   5.932   5.288  2.0031 -1.1860  0.0615
  247ACOH    H210875   1.559   5.910   5.461 -0.6771  1.0148  1.4653
  247ACOH    H310876   1.434   6.019   5.429  1.0100  1.2206 -3.2417
  248ACOH    H410877   7.332   7.068   3.944  3.5140  2.3038 -0.1256
  248ACOH    O210878   7.337   7.042   4.037 -0.3644  0.0331 -0.4387
  248ACOH    C210879   7.213   7.049   4.092 -0.1623 -0.0896  0.0771
  248ACOH    O110880   7.118   7.115   4.056 -0.4021  0.4838 -0.1203
  248ACOH    C110881   7.237   7.016   4.238  0.0322 -0.0754 -0.1745
  248ACOH    H110882   7.145   7.003   4.296  0.9484  0.1610  1.3442
  248ACOH    H210883   7.300   7.093   4.282  1.6211 -1.9290  0.8681
  248ACOH    H310884   7.287   6.919   4.244 -1.7594 -0.9446  1.3538
  249ACOH    H410885   9.379   7.504   4.076 -0.2927 -0.1898  0.0582
  249ACOH    O210886   9.402   7.409   4.077  0.2697 -0.0548  0.0051
  249ACOH    C210887   9.309   7.338   4.140  0.0813  0.4016  0.2001
  249ACOH    O110888   9.211   7.380   4.193  0.3649 -0.3631  0.3511
  249ACOH    C110889   9.339   7.192   4.144  0.7252  0.2018 -0.1585
  249ACOH    H110890   9.438   7.166   4.182  1.4536  2.0798 -0.6962
  249ACOH    H210891   9.320   7.154   4.044 -3.0137  2.5435 -0.4258
  249ACOH    H310892   9.264   7.150   4.211  1.6582  0.5511  1.1280
  250ACOH    H410893   2.495   3.719   4.117 -1.3260  0.1283 -0.3275
  250ACOH    O210894   2.510   3.627   4.143 -0.8251  0.3527  0.1797
  250ACOH    C210895   2.642   3.596   4.170 -1.0763  0.6880 -0.7010
  250ACOH    O110896   2.740   3.665   4.136  0.4687 -0.0546 -0.5851
  250ACOH    C110897   2.652   3.463   4.234 -0.7632  0.0532 -0.0219
  250ACOH    H110898   2.623   3.446   4.337 -0.5738  0.7465  0.1499
  250ACOH    H210899   2.756   3.432   4.225 -0.7098 -0.0304  0.8829
  250ACOH    H310900   2.591   3.395   4.174  1.2708 -3.2614  1.5710
  251ACOH    H410901  10.045   3.773   2.183 -0.6666 -0.6922  0.5551
  251ACOH    O210902  10.021   3.842   2.247  0.4300  0.2787 -0.0613
  251ACOH    C210903   9.917   3.912   2.198  0.1952 -0.7311  0.6245
  251ACOH    O110904   9.850   3.888   2.099  0.0282 -0.4661 -0.1218
  251ACOH    C110905   9.886   4.029   2.284 -0.3539 -0.8026  0.0136
  251ACOH    H110906   9.871   3.992   2.385  2.1189  2.1535  1.5280
  251ACOH    H210907   9.793   4.077   2.254  0.1934  0.1924 -0.0993
  251ACOH    H310908   9.964   4.104   2.274  0.7028 -1.8779 -0.0054
  252ACOH    H410909   5.978   9.537   5.991  1.3298  0.2217 -1.1901
  252ACOH    O210910   6.031   9.495   6.060 -0.3887 -0.3378 -0.2020
  252ACOH    C210911   6.059   9.370   6.011 -0.1082  0.3613 -0.2501
  252ACOH    O110912   6.028   9.329   5.900  0.2734  0.2165 -0.2466
  252ACOH    C110913   6.133   9.285   6.102  0.5455 -0.2061 -0.3260
  252ACOH    H110914   6.065   9.256   6.182  0.0152  1.1030 -0.2939
  252ACOH    H210915   6.214   9.347   6.141  0.7668 -1.4375  1.2158
  252ACOH    H310916   6.172   9.196   6.054 -0.9611 -1.2008  0.2557
  253ACOH    H410917   1.244   0.881   2.868 -0.8525  0.0875 -1.6846
  253ACOH    O210918   1.318   0.938   2.841 -0.1551 -0.3485 -0.7346
  253ACOH    C210919   1.301   1.058   2.894 -0.0322  0.5221  0.1175
  253ACOH    O110920   1.215   1.091   2.975  0.0060 -0.0309  0.6007
  253ACOH    C110921   1.395   1.154   2.833  0.0896  0.5438  0.4638
  253ACOH    H110922   1.445   1.203   2.916 -1.9498  1.8934  0.9302
  253ACOH    H210923   1.345   1.236   2.781 -0.1050  0.0301 -0.1651
  253ACOH    H310924   1.462   1.105   2.763 -2.6325 -2.0387 -0.4706
  254ACOH    H410925   1.600   6.154   0.459 -5.0724 -1.7074  0.6335
  254ACOH    O210926   1.626   6.069   0.418 -0.0012 -0.1761  0.3551
  254ACOH    C210927   1.549   6.050   0.313 -0.1014 -0.3129 -0.2143
  254ACOH    O110928   1.466   6.131   0.278  0.2374 -0.3126 -0.0763
  254ACOH    C110929   1.580   5.932   0.235 -0.1837 -0.3999 -0.1367
  254ACOH    H110930   1.491   5.869   0.236  0.2034 -0.9518  0.3699
  254ACOH    H210931   1.664   5.883   0.286 -0.3953 -0.5928  0.0312
  254ACOH    H310932   1.609   5.951   0.132 -3.6026  0.9383 -0.9172
  255ACOH    H410933   6.439   3.699   0.263 -0.6785  0.4424 -0.1150
  255ACOH    O210934   6.392   3.638   0.204 -0.9988  0.2396  0.3508
  255ACOH    C210935   6.465   3.608   0.089  0.4114 -0.7589  0.0232
  255ACOH    O110936   6.580   3.636   0.071  0.0071 -0.0938  0.3369
  255ACOH    C110937   6.391   3.533  -0.006 -0.3597  0.8123  0.3277
  255ACOH    H110938   6.333   3.603  -0.066  1.3680 -0.1755 -2.5866
  255ACOH    H210939   6.326   3.472   0.058 -0.9629  0.0881 -0.9659
  255ACOH    H310940   6.449   3.476  -0.078 -1.7129 -1.4665  0.9671
  256ACOH    H410941   5.243   4.279   3.113  1.3674  1.7974  0.3063
  256ACOH    O210942   5.309   4.222   3.156  0.5730  0.2890 -0.3982
  256ACOH    C210943   5.332   4.286   3.269  0.0205 -0.5304  0.1813
  256ACOH    O110944   5.256   4.361   3.328  0.7031  0.7270  0.1023
  256ACOH    C110945   5.452   4.232   3.341 -0.2554  0.4397 -0.1000
  256ACOH    H110946   5.540   4.281   3.299 -0.6890  0.7030 -0.7074
  256ACOH    H210947   5.463   4.128   3.310  0.6285  1.0700 -1.9607
  256ACOH    H310948   5.449   4.245   3.449  1.9761  1.4578 -0.1343
  257ACOH    H410949   6.626   9.733   5.935  0.8808  0.3800  1.6770
  257ACOH    O210950   6.579   9.655   5.966  0.1804  0.1705  0.1162
  257ACOH    C210951   6.449   9.692   5.986 -0.5733 -0.8374 -0.0071
  257ACOH    O110952   6.404   9.805   5.976  0.0901 -0.0154 -0.0919
  257ACOH    C110953   6.346   9.586   6.013 -0.2134 -0.4477  0.2501
  257ACOH    H110954   6.289   9.626   6.097 -0.6019  1.8040 -1.0111
  257ACOH    H210955   6.394   9.494   6.046  2.8984  1.2998  0.7968
  257ACOH    H310956   6.278   9.566   5.930 -0.1943 -0.2881  0.1943
  258ACOH    H410957   5.364   9.132   2.858  2.6713  0.6530 -1.1496
  258ACOH    O210958   5.416   9.103   2.935 -0.3259 -0.3222  0.5892
  258ACOH    C210959   5.427   8.969   2.931  0.5497 -0.3173  0.8343
  258ACOH    O110960   5.455   8.922   2.824  0.1905  0.1626  0.2469
  258ACOH    C110961   5.466   8.912   3.063 -0.9291 -0.1337  0.8580
  258ACOH    H110962   5.415   8.816   3.076  0.5600 -0.6668  2.9538
  258ACOH    H210963   5.441   8.976   3.147  0.3261 -0.7271  1.6956
  258ACOH    H310964   5.574   8.899   3.058 -0.6168  2.0819  1.2883
  259ACOH    H410965   5.199   3.923   6.655 -1.8426 -0.2125  0.3534
  259ACOH    O210966   5.240   3.847   6.611 -0.3976  0.5682  0.3105
  259ACOH    C210967   5.167   3.833   6.497 -0.9274  0.1619 -0.6485
  259ACOH    O110968   5.066   3.903   6.468 -0.3001 -0.2426  0.0045
  259ACOH    C110969   5.234   3.730   6.411 -0.4564 -0.0874 -0.2068
  259ACOH    H110970   5.190   3.631   6.422 -1.3743  0.2419 -0.8987
  259ACOH    H210971   5.343   3.733   6.420 -0.5781 -1.1358  1.7728
  259ACOH    H310972   5.212   3.759   6.308  1.1899 -0.0858 -0.5866
  260ACOH    H410973   5.342   4.127   4.481 -1.0646 -1.4874  1.3135
  260ACOH    O210974   5.424   4.083   4.509 -0.2046 -0.9698 -0.3801
  260ACOH    C210975   5.391   3.967   4.540 -0.2505  0.5288  0.2782
  260ACOH    O110976   5.279   3.923   4.549 -0.5485  0.2718  0.4116
  260ACOH    C110977   5.502   3.876   4.556 -0.1667  0.3204  0.5530
  260ACOH    H110978   5.566   3.880   4.467 -0.6636 -2.3580  0.0285
  260ACOH    H210979   5.481   3.773   4.586  0.4694  0.2726  0.8580
  260ACOH    H310980   5.570   3.901   4.638 -1.1893 -1.9262  2.1524
  261ACOH    H410981   5.606   5.451   0.606 -0.6926 -0.7764 -0.0919
  261ACOH    O210982   5.531   5.512   0.612 -0.0079  0.0868 -0.1175
  261ACOH    C210983   5.570   5.621   0.680 -0.0937 -0.3532 -0.0955
  261ACOH    O110984   5.678   5.675   0.670  0.0108  0.5195  0.5246
  261ACOH    C110985   5.452   5.701   0.709 -0.6865  0.6389  0.4054
  261ACOH    H110986   5.470   5.743   0.808 -0.1915 -0.3344  0.7336
  261ACOH    H210987   5.361   5.641   0.707  2.2384 -4.0285  0.5778
  261ACOH    H310988   5.447   5.780   0.634 -0.3759  0.8808  0.6342
  262ACOH    H410989   6.863   9.328   1.768 -1.2254  0.9213  1.5283
  262ACOH    O210990   6.898   9.396   1.708 -0.0535 -0.6087  0.4441
  262ACOH    C210991   6.790   9.465   1.667  0.4447  0.0466 -0.5138
  262ACOH    O110992   6.675   9.433   1.683 -0.3825 -0.4659 -0.6547
  262ACOH    C110993   6.828   9.579   1.584  0.9214 -0.2264  1.1715
  262ACOH    H110994   6.912   9.560   1.517  0.2720  1.8006 -0.2594
  262ACOH    H210995   6.850   9.654   1.659  0.5529  1.0538  0.0125
  262ACOH    H310996   6.749   9.618   1.519  2.9978  2.2483  0.0753
  263ACOH    H410997   7.766   7.025   3.350 -0.8574  2.6604  3.5946
  263ACOH    O210998   7.672   7.002   3.344 -0.0172 -0.2921  0.4129
  263ACOH    C210999   7.616   7.013   3.220 -0.1313  1.1247 -0.2404
  263ACOH    O111000   7.665   6.986   3.115 -0.7008  0.3581  0.0728
  263ACOH    C111001   7.470   7.015   3.222 -0.0459 -0.1764  0.1217
  263ACOH    H111002   7.441   7.092   3.150  2.4589  1.2111  0.5291
  263ACOH    H211003   7.430   7.043   3.319  0.5268  2.6459 -0.4038
  263ACOH    H311004   7.440   6.914   3.194  1.4841 -0.7257  0.4428
  264ACOH    H411005   5.003   4.462   4.686 -0.9110  0.4892  1.4280
  264ACOH    O211006   5.040   4.552   4.691 -0.0549  0.2440 -0.3007
  264ACOH    C211007   5.169   4.554   4.664  0.6966 -0.9376  0.4198
  264ACOH    O111008   5.238   4.466   4.639 -0.0604  0.0395 -0.0880
  264ACOH    C111009   5.217   4.691   4.664 -0.2536 -0.5976  0.3909
  264ACOH    H111010   5.178   4.738   4.573 -1.9488 -2.6215  0.0351
  264ACOH    H211011   5.325   4.680   4.666 -0.1971  0.0735  1.7706
  264ACOH    H311012   5.192   4.747   4.754 -0.8511 -0.8386  0.3757
  265ACOH    H411013   2.531   0.071   1.666 -1.0638  1.0120  0.9208
  265ACOH    O211014   2.563   0.162   1.653 -0.1278  0.6463  0.5603
  265ACOH    C211015   2.521   0.236   1.761  0.1180  0.2611  0.3378
  265ACOH    O111016   2.453   0.202   1.856  0.2762  0.3720  0.1316
  265ACOH    C111017   2.563   0.371   1.735  0.0761  0.4601  0.2561
  265ACOH    H111018   2.672   0.372   1.732  0.0756  1.0632  0.2303
  265ACOH    H211019   2.536   0.445   1.811  2.6278  0.7035  0.9593
  265ACOH    H311020   2.520   0.396   1.638  1.6613  2.1634 -0.0431
  266ACOH    H411021   6.725   2.814   3.576  2.2375 -0.1526 -2.3065
  266ACOH    O211022   6.683   2.887   3.528  0.1603  0.1109 -0.1889
  266ACOH    C211023   6.701   2.864   3.402  0.4075 -0.4798  0.1917
  266ACOH    O111024   6.763   2.775   3.348 -0.0055 -0.0354  0.8093
  266ACOH    C111025   6.623   2.958   3.323  0.6552 -0.0394 -0.3051
  266ACOH    H111026   6.539   2.904   3.281  0.8055 -0.5856  0.0965
  266ACOH    H211027   6.682   2.999   3.241  1.8794  0.6650  0.9065
  266ACOH    H311028   6.598   3.044   3.386  2.6469 -0.4167  1.0659
  267ACOH    H411029   7.568   4.396   5.186 -0.0886  1.0118  1.9844
  267ACOH    O211030   7.572   4.303   5.214  0.5067  0.5049  0.2654
  267ACOH    C211031   7.528   4.223   5.117 -0.5513  0.1526  0.1327
  267ACOH    O111032   7.433   4.255   5.051  0.3730  0.1103 -0.4429
  267ACOH    C111033   7.581   4.084   5.134 -0.4781 -0.1461  0.8257
  267ACOH    H111034   7.616   4.041   5.040  0.0772 -2.5570  2.1070
  267ACOH    H211035   7.510   4.014   5.176  0.6136 -0.9653  1.3408
  267ACOH    H311036   7.662   4.076   5.206  1.3514  0.4553 -1.1084
  268ACOH    H411037   5.174   2.706   1.703  0.2185  0.1471 -0.4829
  268ACOH    O211038   5.164   2.788   1.651  0.4141  0.4199 -0.0965
  268ACOH    C211039   5.054   2.771   1.577 -0.1158 -0.4424  0.4520
  268ACOH    O111040   5.009   2.665   1.533 -0.3122 -0.4021 -0.0731
  268ACOH    C111041   5.019   2.898   1.514  0.8239 -0.0934  0.5899
  268ACOH    H111042   5.051   2.891   1.410  2.1563 -0.4913  1.0209
  268ACOH    H211043   5.065   2.988   1.555  0.9340 -0.7829  2.0166
  268ACOH    H311044   4.910   2.910   1.513  0.9751  1.3190 -0.4056
  269ACOH    H411045   7.624   8.952   1.433 -1.0194  0.0244  1.1844
  269ACOH    O211046   7.581   9.000   1.361  0.4829  0.2943  0.4566
  269ACOH    C211047   7.668   9.096   1.333  0.0918  0.4062  0.0770
  269ACOH    O111048   7.791   9.095   1.346 -0.4706  0.3009  0.1698
  269ACOH    C111049   7.604   9.205   1.268 -0.8072  0.2007 -0.0370
  269ACOH    H111050   7.634   9.305   1.300  1.9525 -0.5396 -0.2701
  269ACOH    H211051   7.495   9.204   1.277 -0.5158 -0.7316  4.8293
  269ACOH    H311052   7.629   9.204   1.162 -2.1679 -0.0929 -0.3662
  270ACOH    H411053   4.894   3.558   2.246  0.9627 -1.5806 -0.8193
  270ACOH    O211054   4.953   3.626   2.208 -0.0227  0.1072  0.6298
  270ACOH    C211055   5.019   3.665   2.314 -0.8881 -0.0421 -0.5600
  270ACOH    O111056   5.053   3.595   2.408  0.6410 -0.4441 -0.8283
  270ACOH    C111057   5.092   3.791   2.289  0.1434  0.0300 -0.0178
  270ACOH    H111058   5.024   3.862   2.242 -0.8212 -0.5499  0.4752
  270ACOH    H211059   5.167   3.783   2.210 -1.6895  2.6845 -2.1407
  270ACOH    H311060   5.139   3.838   2.375 -0.8330  1.1175 -0.0648
  271ACOH    H411061   7.071   8.410   1.807 -0.9990 -2.2761 -0.1455
  271ACOH    O211062   7.148   8.402   1.748 -0.3085 -1.0897  0.5639
  271ACOH    C211063   7.224   8.513   1.768 -0.0564  0.1818 -0.2608
  271ACOH    O111064   7.176   8.621   1.813 -0.3222  0.9119  0.2746
  271ACOH    C111065   7.350   8.500   1.696  0.0176 -0.1784  0.0984
  271ACOH    H111066   7.356   8.413   1.631 -1.9912  0.3326 -0.8033
  271ACOH    H211067   7.441   8.511   1.755 -0.2977 -0.9810  0.7385
  271ACOH    H311068   7.354   8.589   1.632  0.5403 -0.1398  0.1819
  272ACOH    H411069   5.956   6.439   2.286  0.6646 -0.5918  0.0859
  272ACOH    O211070   5.899   6.493   2.344 -0.2124 -0.3480 -0.9946
  272ACOH    C211071   5.814   6.569   2.276 -0.2455 -0.2395 -0.0135
  272ACOH    O111072   5.813   6.576   2.156  0.1910  0.7720 -0.6688
  272ACOH    C111073   5.732   6.651   2.368 -0.4525  0.2531 -0.6650
  272ACOH    H111074   5.717   6.592   2.458  0.3935  1.6264  0.3937
  272ACOH    H211075   5.640   6.665   2.310 -1.0566 -1.4515 -0.1425
  272ACOH    H311076   5.778   6.746   2.392  1.5027 -0.6727 -0.6246
  273ACOH    H411077   8.530   5.919   3.107  0.4357  0.0600 -0.2409
  273ACOH    O211078   8.571   5.971   3.178  0.2877  0.2290 -0.2810
  273ACOH    C211079   8.475   6.003   3.269  0.0283 -0.5145  0.7837
  273ACOH    O111080   8.365   6.048   3.238  0.3325  0.7657  0.0288
  273ACOH    C111081   8.547   6.022   3.399 -0.2396  0.1369  0.7937
  273ACOH    H111082   8.584   5.924   3.426 -1.4565 -0.0264  1.9225
  273ACOH    H211083   8.474   6.053   3.475 -0.1821 -0.1117  0.9482
  273ACOH    H311084   8.623   6.099   3.387 -0.4726  0.3236  0.5042
  274ACOH    H411085   5.976   8.742   1.606 -4.4107  1.9314  0.8157
  274ACOH    O211086   5.953   8.710   1.517  0.0089 -0.3295  0.3230
  274ACOH    C211087   5.936   8.823   1.442  0.3248  0.0242  0.0813
  274ACOH    O111088   5.918   8.930   1.491  0.1593  0.5138 -0.1202
  274ACOH    C111089   5.878   8.787   1.307 -0.0071 -0.4823  0.3988
  274ACOH    H111090   5.829   8.873   1.262  1.6228  1.6340  2.5537
  274ACOH    H211091   5.800   8.715   1.333 -0.4759  0.6159  2.1701
  274ACOH    H311092   5.948   8.734   1.242  0.0959  0.6359 -0.4097
  275ACOH    H411093   1.483   4.394   5.301 -1.4703 -0.4649 -0.5668
  275ACOH    O211094   1.526   4.394   5.214  0.1626  0.6272  0.2349
  275ACOH    C211095   1.628   4.307   5.212 -0.5657  0.0845  0.4108
  275ACOH    O111096   1.648   4.214   5.285  0.0264  0.1763  0.0688
  275ACOH    C111097   1.718   4.332   5.093 -0.4726  0.1896  0.0643
  275ACOH    H111098   1.805   4.268   5.108 -1.2394 -1.1826 -1.2320
  275ACOH    H211099   1.748   4.437   5.088 -0.1054 -0.0034 -2.2533
  275ACOH    H311100   1.654   4.295   5.014  0.5208 -1.3695 -0.0261
  276ACOH    H411101   7.927   5.657   4.429 -0.8231 -0.8170 -2.5105
  276ACOH    O211102   7.888   5.577   4.469 -0.5150  0.4082  0.3724
  276ACOH    C211103   7.945   5.467   4.411 -0.6105  0.1899 -0.2867
  276ACOH    O111104   7.996   5.473   4.300 -0.1906  0.2943  0.3544
  276ACOH    C111105   7.888   5.342   4.464  0.5509  0.6247 -0.7029
  276ACOH    H111106   7.913   5.253   4.406  1.9134 -1.2585  2.6028
  276ACOH    H211107   7.780   5.345   4.476  0.3515 -1.6331 -1.6127
  276ACOH    H311108   7.922   5.330   4.567 -0.9387 -0.0757 -0.2732
  277ACOH    H411109   3.242   3.874   0.644  0.2375  0.3454  0.8801
  277ACOH    O211110   3.240   3.839   0.554  0.0388  0.7326  0.7337
  277ACOH    C211111   3.365   3.791   0.531 -0.2822 -0.0773  0.5025
  277ACOH    O111112   3.447   3.759   0.614 -0.2589 -0.0882 -0.0746
  277ACOH    C111113   3.394   3.766   0.389  0.5893  0.2647  0.2480
  277ACOH    H111114   3.394   3.659   0.367  2.7139 -0.1044  1.9228
  277ACOH    H211115   3.490   3.808   0.361  1.3594 -1.5938 -0.0108
  277ACOH    H311116   3.325   3.810   0.317 -0.8485 -1.6984  0.3757
  278ACOH    H411117   0.286   3.898   0.616 -2.3946  1.9874 -1.9145
  278ACOH    O211118   0.331   3.881   0.531 -0.7498  0.0528 -0.6948
  278ACOH    C211119   0.337   3.746   0.510  0.0361  0.4150  0.4805
  278ACOH    O111120   0.328   3.658   0.592 -0.7563 -0.2818  0.9838
  278ACOH    C111121   0.400   3.723   0.382  0.2566 -0.0504  0.1097
  278ACOH    H111122   0.491   3.782   0.368  1.0678 -0.8948  1.7932
  278ACOH    H211123   0.320   3.743   0.309 -0.0325  1.7143  0.8741
  278ACOH    H311124   0.431   3.619   0.376  1.1323  0.3142 -2.5501
  279ACOH    H411125   2.333   5.297   2.079 -0.5659 -0.1068  0.3769
  279ACOH    O211126   2.282   5.244   2.016 -0.0362 -0.0272 -0.1186
  279ACOH    C211127   2.166   5.222   2.080 -0.1719  0.1280  0.2765
  279ACOH    O111128   2.108   5.299   2.157  0.6031  0.2987 -0.2432
  279ACOH    C111129   2.103   5.093   2.032  0.0316  0.6152  0.2473
  279ACOH    H111130   2.048   5.110   1.939  2.1303  2.2210 -0.7518
  279ACOH    H211131   2.024   5.068   2.102  0.2506 -0.7912  0.0099
  279ACOH    H311132   2.180   5.017   2.014 -0.8268 -0.3428  0.5706
  280ACOH    H411133   7.590   9.992   6.403  1.2624  0.6988 -0.1228
  280ACOH    O211134   7.549  10.004   6.490 -0.1214 -0.5310 -0.5720
  280ACOH    C211135   7.610   9.916   6.570  0.3435 -0.7168 -0.9998
  280ACOH    O111136   7.676   9.825   6.529  0.2216 -0.1799  0.1134
  280ACOH    C111137   7.590   9.948   6.713 -0.2784 -0.0102  0.4692
  280ACOH    H111138   7.648   9.878   6.773  1.1948  1.2681  0.5538
  280ACOH    H211139   7.484   9.926   6.728 -0.2437 -0.2518  0.3618
  280ACOH    H311140   7.610  10.052   6.738 -1.1138 -0.3156  2.4724
  281ACOH    H411141   6.031   7.280   3.199 -1.4274 -0.7197  2.9458
  281ACOH    O211142   5.959   7.265   3.135  0.8285  0.0538  0.1319
  281ACOH    C211143   5.848   7.229   3.205  0.0869  0.5105  0.0812
  281ACOH    O111144   5.814   7.278   3.314 -0.1280  0.9938 -0.3207
  281ACOH    C111145   5.742   7.148   3.133  0.1029  0.1714 -0.0627
  281ACOH    H111146   5.773   7.120   3.033  0.7075  2.1116 -0.4339
  281ACOH    H211147   5.651   7.206   3.115 -0.4290 -0.7108 -0.2720
  281ACOH    H311148   5.716   7.056   3.186 -0.6690  0.8953  0.8525
  282ACOH    H411149   7.752   5.412   0.400  2.9976  0.6244 -0.5163
  282ACOH    O211150   7.728   5.439   0.310 -0.2594  0.2270  0.1694
  282ACOH    C211151   7.639   5.536   0.322  0.3519 -0.6589  1.3642
  282ACOH    O111152   7.625   5.606   0.423  0.1226  0.7059  0.1378
  282ACOH    C111153   7.589   5.580   0.192 -0.3621  0.1372  1.0118
  282ACOH    H111154   7.633   5.519   0.113 -1.5949  0.7561 -0.1797
  282ACOH    H211155   7.624   5.682   0.175  0.1295 -0.3844 -1.2873
  282ACOH    H311156   7.481   5.574   0.180 -0.1933 -1.6193  0.2852
  283ACOH    H411157   5.121   4.575   4.136  3.0413  2.2567 -0.9072
  283ACOH    O211158   5.055   4.646   4.134 -0.1058 -0.5647 -0.0255
  283ACOH    C211159   5.015   4.654   4.008 -0.9766 -0.2348 -0.3079
  283ACOH    O111160   5.082   4.607   3.916  0.5452 -0.0883 -0.1301
  283ACOH    C111161   4.944   4.791   3.998 -0.0079  0.0004 -0.0112
  283ACOH    H111162   5.014   4.873   4.012  0.9740 -0.6245 -1.1698
  283ACOH    H211163   4.867   4.801   4.074  0.5477  2.2175  0.2916
  283ACOH    H311164   4.896   4.800   3.900 -1.5817  2.1422  0.9043
  284ACOH    H411165   8.351   8.011   2.032  1.4461  0.6039  1.9742
  284ACOH    O211166   8.382   8.063   1.956 -0.2279 -0.0160  0.8557
  284ACOH    C211167   8.374   8.193   1.986 -0.0632  0.0520  0.1822
  284ACOH    O111168   8.324   8.238   2.088 -0.2060 -0.0275  0.1116
  284ACOH    C111169   8.440   8.267   1.876 -0.1340  0.2016  0.2884
  284ACOH    H111170   8.395   8.256   1.777 -1.9099  2.8707  0.7441
  284ACOH    H211171   8.547   8.248   1.873 -0.1427  0.3894 -2.1586
  284ACOH    H311172   8.430   8.373   1.900 -2.0968 -0.3271  1.9270
  285ACOH    H411173   5.174   7.874   1.612 -0.7421 -0.1331 -0.3400
  285ACOH    O211174   5.189   7.885   1.516 -0.3838  0.3089 -0.2399
  285ACOH    C211175   5.325   7.893   1.502  0.3147 -0.9439  0.0073
  285ACOH    O111176   5.399   7.848   1.588  0.0705 -0.9732 -0.0857
  285ACOH    C111177   5.359   7.909   1.364 -0.6650  0.3456 -0.2415
  285ACOH    H111178   5.442   7.979   1.353 -1.4069  1.2970  0.1313
  285ACOH    H211179   5.275   7.954   1.312 -2.6792 -2.2512  0.6734
  285ACOH    H311180   5.387   7.809   1.330 -1.3584 -0.7905  2.3613
  286ACOH    H411181   4.646   5.143   5.227 -0.2442  0.3350 -0.2438
  286ACOH    O211182   4.742   5.130   5.225 -0.2508  0.1281  0.5357
  286ACOH    C211183   4.790   5.061   5.331  0.2196  0.3145  0.2438
  286ACOH    O111184   4.725   5.050   5.434 -0.2102  0.0289  0.0398
  286ACOH    C111185   4.917   4.989   5.297  0.1377 -0.1672 -0.0680
  286ACOH    H111186   4.975   5.045   5.224  0.7842 -1.2437 -0.4024
  286ACOH    H211187   4.875   4.901   5.248  0.0345  1.4179 -2.9282
  286ACOH    H311188   4.976   4.964   5.386  1.7443  0.5923 -0.9171
  287ACOH    H411189   5.103   8.900   0.569  0.8780  0.8911  0.8619
  287ACOH    O211190   5.161   8.852   0.631  0.2887 -0.4878  0.3599
  287ACOH    C211191   5.212   8.752   0.557  0.5357 -0.5611  0.3536
  287ACOH    O111192   5.182   8.717   0.443 -0.4735  0.1780  0.1665
  287ACOH    C111193   5.325   8.692   0.626  0.4616  0.3443  0.0657
  287ACOH    H111194   5.389   8.773   0.660  0.6854  0.1824  0.0304
  287ACOH    H211195   5.378   8.626   0.558 -0.9387 -1.0734  0.3161
  287ACOH    H311196   5.298   8.647   0.721  3.4762 -0.2618  0.6710
  288ACOH    H411197   8.088   4.525   2.196 -1.2716 -3.1960 -2.0772
  288ACOH    O211198   8.002   4.558   2.165 -0.6283  0.1783 -0.5207
  288ACOH    C211199   7.995   4.682   2.218 -1.1091  0.2838 -0.0575
  288ACOH    O111200   8.059   4.723   2.311  0.3504  0.0287  0.0468
  288ACOH    C111201   7.873   4.736   2.164 -0.1772 -0.8809  0.1753
  288ACOH    H111202   7.834   4.667   2.089  1.4068  0.1442 -1.6404
  288ACOH    H211203   7.889   4.837   2.127  1.4846 -0.6635  1.4094
  288ACOH    H311204   7.795   4.732   2.240 -1.9586 -0.5248 -1.5927
  289ACOH    H411205   7.100   0.179   0.998 -1.0021  0.4346  0.7096
  289ACOH    O211206   7.071   0.173   0.906 -0.0980 -0.5069  0.4805
  289ACOH    C211207   7.188   0.154   0.835  0.8399  0.4781  0.3250
  289ACOH    O111208   7.214   0.206   0.725 -0.3168 -0.5479 -0.1087
  289ACOH    C111209   7.302   0.102   0.910  0.1037 -0.5581  0.0494
  289ACOH    H111210   7.304   0.168   0.996  2.7696 -0.2516 -0.2025
  289ACOH    H211211   7.400   0.110   0.861  0.9930  0.2880  1.9069
  289ACOH    H311212   7.277   0.003   0.948 -3.3440  0.2615 -0.0010
  290ACOH    H411213   6.437   7.172   4.151  1.0727 -0.0851 -0.9902
  290ACOH    O211214   6.415   7.082   4.123 -0.6785 -0.2147  0.6376
  290ACOH    C211215   6.437   7.090   3.991  0.7131 -0.4372 -0.6694
  290ACOH    O111216   6.545   7.128   3.951  0.3611  0.4955 -0.3331
  290ACOH    C111217   6.350   6.995   3.918  0.0754  0.3315 -0.1311
  290ACOH    H111218   6.385   6.994   3.815  1.2810 -0.5934  0.2743
  290ACOH    H211219   6.251   7.039   3.925  0.7289  1.9670 -0.7618
  290ACOH    H311220   6.349   6.894   3.959 -1.8171  0.1833 -0.5077
  291ACOH    H411221   7.848   6.724   6.153  0.0452 -0.9772  0.3163
  291ACOH    O211222   7.754   6.699   6.155 -0.3081  0.2853  0.3099
  291ACOH    C211223   7.706   6.703   6.030  0.4440 -0.5862 -0.6773
  291ACOH    O111224   7.761   6.774   5.945  0.2831  0.0036  0.0724
  291ACOH    C111225   7.568   6.657   6.041  0.3025  0.0681  0.3963
  291ACOH    H111226   7.523   6.704   6.129 -4.4065  2.1312 -2.9299
  291ACOH    H211227   7.575   6.548   6.049  1.6119  0.0310 -0.9868
  291ACOH    H311228   7.517   6.676   5.947  0.8659  3.4148  0.7297
  292ACOH    H411229   6.023   8.399   5.676 -1.1196  0.5516 -0.1164
  292ACOH    O211230   5.987   8.322   5.629  0.0325  0.2966 -0.6029
  292ACOH    C211231   5.856   8.306   5.653  0.3820 -0.0900 -0.3075
  292ACOH    O111232   5.786   8.379   5.718 -0.8166  0.2838 -0.2363
  292ACOH    C111233   5.796   8.195   5.588  0.6928 -0.1469  0.3680
  292ACOH    H111234   5.865   8.118   5.553 -1.1396 -1.9102  0.5305
  292ACOH    H211235   5.752   8.231   5.496  0.8365 -1.1990 -0.1180
  292ACOH    H311236   5.721   8.148   5.652 -2.0838  0.3084 -2.4464
  293ACOH    H411237   4.815   5.932   2.796  0.1044 -2.5906  0.3514
  293ACOH    O211238   4.912   5.942   2.796 -0.1890  0.8031 -0.2792
  293ACOH    C211239   4.960   5.845   2.874  0.3357 -0.6116  0.6758
  293ACOH    O111240   4.891   5.758   2.923  0.2418 -0.5356 -1.0122
  293ACOH    C111241   5.106   5.855   2.892  0.4045 -0.0697  0.0673
  293ACOH    H111242   5.143   5.887   2.795 -0.8264  0.8857 -0.0852
  293ACOH    H211243   5.154   5.760   2.918 -1.2321 -1.5744 -2.2572
  293ACOH    H311244   5.118   5.929   2.971  1.3356 -0.5738  0.4121
  294ACOH    H411245   5.375   3.793   3.278  1.2136  0.8829  1.9965
  294ACOH    O211246   5.466   3.802   3.244  0.5550 -0.8517 -0.2958
  294ACOH    C211247   5.515   3.679   3.209 -0.0049  0.3395  0.2594
  294ACOH    O111248   5.493   3.581   3.275 -0.1651 -0.2915  0.5244
  294ACOH    C111249   5.641   3.692   3.134 -0.4585 -0.2339 -0.2995
  294ACOH    H111250   5.623   3.683   3.027  1.3392 -2.0093 -0.4922
  294ACOH    H211251   5.717   3.618   3.160 -0.5147 -0.2954 -0.3112
  294ACOH    H311252   5.685   3.789   3.157 -0.5536 -0.8116  2.5013
  295ACOH    H411253   7.006   2.674   4.074 -1.6722  0.3685  1.1084
  295ACOH    O211254   6.982   2.761   4.037 -0.1621  0.4615  0.3005
  295ACOH    C211255   6.867   2.803   4.091  0.3394  0.2502 -0.4538
  295ACOH    O111256   6.787   2.732   4.145 -0.1877 -0.4141  0.3303
  295ACOH    C111257   6.851   2.949   4.069 -0.2692  0.5573  0.6440
  295ACOH    H111258   6.769   2.980   4.134  0.2573  0.9724  1.1237
  295ACOH    H211259   6.827   2.966   3.964  0.5880  2.4775  0.7421
  295ACOH    H311260   6.940   3.005   4.099  1.2842 -2.4937  1.9595
  296ACOH    H411261   3.390   0.619   0.521  0.3362 -0.5537  1.3925
  296ACOH    O211262   3.318   0.554   0.524  0.0998 -0.3862 -0.2551
  296ACOH    C211263   3.196   0.616   0.514  0.1262 -0.2939 -0.1623
  296ACOH    O111264   3.171   0.716   0.443  0.6820 -0.2935  0.5069
  296ACOH    C111265   3.095   0.519   0.554  0.2694 -0.1194 -0.0874
  296ACOH    H111266   3.116   0.419   0.590 -1.3243 -0.2675  0.4780
  296ACOH    H211267   3.013   0.511   0.483 -0.5330  0.0414  0.8146
  296ACOH    H311268   3.052   0.570   0.640 -0.7319  0.9180 -1.1911
  297ACOH    H411269   8.147   6.772   0.996 -0.2852  0.5070  0.3450
  297ACOH    O211270   8.095   6.712   1.052  0.0022 -0.2636 -0.2058
  297ACOH    C211271   8.094   6.592   0.997  0.4085 -0.3026  0.1503
  297ACOH    O111272   8.125   6.564   0.882 -0.0164  0.4628  0.1585
  297ACOH    C111273   8.056   6.494   1.099 -0.7189 -0.3190 -0.1277
  297ACOH    H111274   7.962   6.449   1.065 -0.4510 -0.0593 -1.2473
  297ACOH    H211275   8.032   6.548   1.191 -0.7900  0.9613 -0.8756
  297ACOH    H311276   8.120   6.407   1.103  2.1279  1.6998 -0.6098
  298ACOH    H411277   9.097   2.164   5.762 -0.1785  0.4357  0.0045
  298ACOH    O211278   9.158   2.194   5.832  0.0236 -0.3529  0.1723
  298ACOH    C211279   9.267   2.232   5.764  0.3255  0.5342 -0.1611
  298ACOH    O111280   9.297   2.195   5.651 -0.1484  0.0765 -0.1208
  298ACOH    C111281   9.359   2.303   5.852  0.3242  0.1561  0.3571
  298ACOH    H111282   9.376   2.236   5.936  1.8279 -1.7093 -1.4104
  298ACOH    H211283   9.306   2.393   5.885 -1.3027 -1.0505  1.1493
  298ACOH    H311284   9.454   2.334   5.809 -0.6643 -0.4162 -2.2871
  299ACOH    H411285   6.836   5.262   6.521 -2.9163 -0.6351  0.4702
  299ACOH    O211286   6.787   5.346   6.524 -1.2409  0.3790 -0.0301
  299ACOH    C211287   6.744   5.371   6.648 -0.8452 -0.0343  0.3964
  299ACOH    O111288   6.727   5.288   6.735 -0.0555  0.0521 -0.0050
  299ACOH    C111289   6.689   5.505   6.662 -0.4169 -0.6380 -0.0438
  299ACOH    H111290   6.585   5.503   6.695  0.0537  0.0579  1.5300
  299ACOH    H211291   6.689   5.561   6.568  2.1225 -1.3180 -0.4660
  299ACOH    H311292   6.747   5.559   6.737 -0.8359 -3.0642  2.0999
  300ACOH    H411293   7.251   0.411   6.348 -0.2888  0.1114 -1.2311
  300ACOH    O211294   7.160   0.380   6.361 -0.0636 -0.0855 -0.1056
  300ACOH    C211295   7.158   0.338   6.491  0.2468 -0.2902 -0.3895
  300ACOH    O111296   7.246   0.271   6.547  0.3518  0.1653 -0.7471
  300ACOH    C111297   7.018   0.356   6.537 -0.1510 -0.0738 -0.4056
  300ACOH    H111298   7.020   0.465   6.544  3.6987  0.0748 -2.6635
  300ACOH    H211299   6.999   0.318   6.638 -0.4266  1.4404  0.1320
  300ACOH    H311300   6.949   0.314   6.464  3.8705 -0.0098 -4.4056
  301ACOH    H411301   8.224   7.815   6.808 -1.6814  2.5625  0.1683
  301ACOH    O211302   8.143   7.760   6.807  0.1428 -0.2207 -0.6960
  301ACOH    C211303   8.108   7.749   6.677  0.1345 -0.8055  0.5600
  301ACOH    O111304   8.186   7.763   6.583 -0.5327  0.3171  0.1702
  301ACOH    C111305   7.981   7.673   6.668  0.3058 -0.7780 -0.3980
  301ACOH    H111306   8.003   7.572   6.634 -1.0838 -1.1159 -0.3280
  301ACOH    H211307   7.914   7.725   6.599  0.9123  0.0217 -0.3841
  301ACOH    H311308   7.933   7.657   6.765 -1.2788  0.8564 -0.8679
  302ACOH    H411309   0.024   2.526   5.029 -0.2682  0.0580 -0.6467
  302ACOH    O211310   0.076   2.606   5.008 -0.4516  0.4083  0.2474
  302ACOH    C211311   0.183   2.600   5.087 -0.3110  0.1545 -0.1903
  302ACOH    O111312   0.203   2.523   5.179 -0.8615  0.3006 -0.3314
  302ACOH    C111313   0.259   2.725   5.070 -0.2380 -0.0148  0.5663
  302ACOH    H111314   0.344   2.708   5.137 -0.7245 -3.0608  0.4875
  302ACOH    H211315   0.195   2.806   5.103 -2.7952 -1.1703 -1.3971
  302ACOH    H311316   0.288   2.738   4.966  1.3054 -1.8036  0.7284
  303ACOH    H411317   7.989   1.978   1.796  1.2840 -0.2092  1.0963
  303ACOH    O211318   7.928   2.002   1.868 -0.5103 -0.6505 -0.2687
  303ACOH    C211319   7.875   1.884   1.901 -0.3225 -0.2751  0.8096
  303ACOH    O111320   7.923   1.777   1.877 -0.4135  0.3919  0.1115
  303ACOH    C111321   7.760   1.921   1.985 -0.8337 -0.7774  0.0771
  303ACOH    H111322   7.700   1.997   1.935  1.0501  1.5796  1.3149
  303ACOH    H211323   7.801   1.974   2.071 -0.3352  0.2289 -0.7747
  303ACOH    H311324   7.702   1.837   2.023 -0.0510 -1.3376  0.0512
  304ACOH    H411325   7.577   3.392   2.373  0.2793  0.4015  0.1029
  304ACOH    O211326   7.604   3.301   2.352 -0.2690  0.1461  0.4882
  304ACOH    C211327   7.667   3.244   2.457 -0.3069  0.1264 -0.2131
  304ACOH    O111328   7.701   3.296   2.562 -0.6746 -0.2982 -0.0442
  304ACOH    C111329   7.702   3.109   2.419 -0.6942 -0.2447 -0.0098
  304ACOH    H111330   7.787   3.102   2.350  0.2538  1.4380  0.9596
  304ACOH    H211331   7.624   3.056   2.365 -1.6116  0.8493  0.2324
  304ACOH    H311332   7.730   3.052   2.508 -2.2827 -1.9035 -0.5457
  305ACOH    H411333   4.718   5.456   6.724 -0.4732 -0.0431 -0.4114
  305ACOH    O211334   4.791   5.486   6.667  0.0391  0.0489  0.2865
  305ACOH    C211335   4.825   5.379   6.590 -0.0915 -0.2022 -0.2198
  305ACOH    O111336   4.766   5.273   6.590 -0.4602  0.0869  0.2962
  305ACOH    C111337   4.941   5.412   6.498  0.1457  0.0949 -0.6640
  305ACOH    H111338   4.924   5.395   6.392  0.7530 -1.6922 -0.4875
  305ACOH    H211339   5.011   5.330   6.517 -1.2051 -1.3170 -1.7311
  305ACOH    H311340   4.984   5.508   6.526  4.0153 -1.2552 -1.6129
  306ACOH    H411341   3.946   7.971   0.274 -0.1279  0.9437 -0.2805
  306ACOH    O211342   4.007   7.929   0.337 -0.1538  0.4990 -0.5523
  306ACOH    C211343   4.114   8.010   0.354 -0.2921  0.7338 -0.2108
  306ACOH    O111344   4.139   8.109   0.293  0.1156  0.0235  0.1095
  306ACOH    C111345   4.182   7.973   0.479 -0.3607  0.0527  0.0397
  306ACOH    H111346   4.145   7.875   0.510 -0.2227 -0.3169 -0.9695
  306ACOH    H211347   4.156   8.040   0.561 -0.2009  0.2919 -0.1057
  306ACOH    H311348   4.291   7.969   0.477 -0.3158 -1.8472  2.6119
  307ACOH    H411349   4.127   6.480   4.129  0.7558  1.0440 -0.5397
  307ACOH    O211350   4.209   6.429   4.130  0.2773  0.2668 -0.2204
  307ACOH    C211351   4.314   6.518   4.133  0.2414 -0.9299  0.6242
  307ACOH    O111352   4.298   6.640   4.131 -0.4688 -0.0547  0.4504
  307ACOH    C111353   4.445   6.453   4.101 -0.3260  0.2100 -0.1614
  307ACOH    H111354   4.476   6.386   4.181  0.9854 -0.2002 -0.9955
  307ACOH    H211355   4.537   6.507   4.079 -2.7359  3.2632 -3.4896
  307ACOH    H311356   4.418   6.394   4.014  0.7434 -2.7154  1.4452
  308ACOH    H411357   9.672   9.734   3.656 -0.0747  0.2091  2.0096
  308ACOH    O211358   9.737   9.662   3.653 -0.2417  0.1360 -0.2284
  308ACOH    C211359   9.797   9.657   3.528 -0.2701 -0.0607 -0.1587
  308ACOH    O111360   9.774   9.725   3.431 -0.3866 -0.0366 -0.1786
  308ACOH    C111361   9.886   9.534   3.529  0.7921  0.0041  0.0115
  308ACOH    H111362   9.953   9.538   3.443  0.2504  1.8710 -0.3508
  308ACOH    H211363   9.824   9.448   3.504  2.1142 -0.4081 -2.0016
  308ACOH    H311364   9.947   9.521   3.618  0.9331 -2.4607 -0.4054
  309ACOH    H411365   3.738   9.201   1.010  1.8229  1.7747 -0.9735
  309ACOH    O211366   3.721   9.168   0.920  0.0100  0.0512 -0.0523
  309ACOH    C211367   3.672   9.043   0.915  0.0658  0.2358  0.1600
  309ACOH    O111368   3.658   8.970   1.014 -0.2878 -0.1532  0.1116
  309ACOH    C111369   3.656   8.990   0.777 -0.0008  0.4689 -0.5856
  309ACOH    H111370   3.553   8.955   0.779 -0.4299  1.7904  2.2020
  309ACOH    H211371   3.725   8.911   0.749  1.1882  1.8513 -1.6000
  309ACOH    H311372   3.652   9.076   0.711  0.4111 -0.1689 -1.4619
  310ACOH    H411373   7.431   1.480   3.432  0.7486 -1.7983 -0.6129
  310ACOH    O211374   7.449   1.464   3.526 -0.2871 -0.5047 -0.1956
  310ACOH    C211375   7.487   1.584   3.574  0.1462 -0.0773 -0.1578
  310ACOH    O111376   7.494   1.691   3.516  0.0206 -0.4027  0.3236
  310ACOH    C111377   7.507   1.572   3.720 -0.0046  0.0436  0.5084
  310ACOH    H111378   7.553   1.476   3.744  3.0588  1.8356  1.9948
  310ACOH    H211379   7.408   1.561   3.764 -1.0475  1.2135 -1.4726
  310ACOH    H311380   7.564   1.660   3.750  0.5319  0.5396 -1.9047
  311ACOH    H411381   5.592   5.955   2.631 -0.3514 -4.3310 -1.5085
  311ACOH    O211382   5.683   5.967   2.598 -0.1267 -0.2199  0.2871
  311ACOH    C211383   5.680   6.093   2.547 -0.1120  0.4077  0.4684
  311ACOH    O111384   5.597   6.184   2.562  0.3057 -0.2657 -0.1478
  311ACOH    C111385   5.811   6.123   2.478 -0.1898 -0.2496 -0.1375
  311ACOH    H111386   5.821   6.082   2.378  3.2537 -1.0565  0.4856
  311ACOH    H211387   5.887   6.069   2.534 -1.1418 -1.1558  0.2967
  311ACOH    H311388   5.851   6.225   2.477  0.3731 -0.4322  1.6831
  312ACOH    H411389   6.626   3.135   2.958 -0.0720  0.5894 -0.4874
  312ACOH    O211390   6.536   3.109   2.981  0.1463  0.5952  0.3740
  312ACOH    C211391   6.507   2.977   2.943 -1.1476 -0.0688 -0.4603
  312ACOH    O111392   6.586   2.899   2.895  0.0515 -0.2809  0.0180
  312ACOH    C111393   6.369   2.925   2.970 -0.1299 -0.3810 -0.4925
  312ACOH    H111394   6.356   2.817   2.971  0.0683 -0.4065  0.5427
  312ACOH    H211395   6.303   2.986   2.909  0.8123  0.5012 -0.6503
  312ACOH    H311396   6.354   2.957   3.073  1.2903  1.0655 -0.7171
  313ACOH    H411397   2.787   7.128   4.932  1.2724  0.3645  1.0945
  313ACOH    O211398   2.821   7.134   4.841  0.7509 -0.0075  0.8772
  313ACOH    C211399   2.724   7.077   4.765 -0.3103 -0.0108 -0.3302
  313ACOH    O111400   2.608   7.084   4.803 -0.2924 -0.1013  0.1136
  313ACOH    C111401   2.768   7.071   4.620  0.4575 -0.3100  0.3492
  313ACOH    H111402   2.875   7.048   4.615  0.4747 -0.0114 -0.6516
  313ACOH    H211403   2.748   7.170   4.579  2.3285 -0.2893 -0.5507
  313ACOH    H311404   2.715   6.991   4.569  0.8705 -0.7490  0.6041
  314ACOH    H411405   4.007   6.082   4.593  0.1319  0.9435  0.2229
  314ACOH    O211406   4.044   6.085   4.503 -0.1425  0.1760  0.0807
  314ACOH    C211407   3.968   6.169   4.438 -0.1186  0.5165 -0.1848
  314ACOH    O111408   3.862   6.211   4.479 -0.5125  0.0182 -0.1515
  314ACOH    C111409   4.033   6.195   4.301 -0.0653  0.3673 -0.2004
  314ACOH    H111410   3.973   6.269   4.249  0.9730  2.3613  1.3482
  314ACOH    H211411   4.030   6.106   4.238 -0.6360  1.0199 -1.1087
  314ACOH    H311412   4.137   6.225   4.308  0.2307 -0.2321 -1.8488
  315ACOH    H411413   4.885   4.277   0.350  0.6597 -0.1279 -0.9014
  315ACOH    O211414   4.954   4.215   0.380 -0.2117 -0.7037 -0.0887
  315ACOH    C211415   4.934   4.097   0.317  0.9408  0.8097  0.0382
  315ACOH    O111416   4.860   4.077   0.226 -0.1535 -0.0748  0.1482
  315ACOH    C111417   5.021   3.996   0.373 -0.3780  0.7263 -0.0965
  315ACOH    H111418   5.117   4.046   0.358  0.4809 -0.7912  0.2179
  315ACOH    H211419   5.026   3.904   0.314 -0.1115  0.0923  0.9022
  315ACOH    H311420   5.005   3.995   0.481 -0.0842  1.3896 -0.0470
  316ACOH    H411421   8.400   7.301  -0.157 -0.7901  0.0711 -1.0479
  316ACOH    O211422   8.349   7.360  -0.099  0.2588 -0.2387  0.2086
  316ACOH    C211423   8.415   7.384   0.016 -0.3275 -0.1875 -0.0652
  316ACOH    O111424   8.507   7.326   0.058  0.0116 -0.5338 -0.0069
  316ACOH    C111425   8.352   7.490   0.096 -0.4849  0.3324  0.9213
  316ACOH    H111426   8.419   7.516   0.178 -0.3857  1.0132  0.6267
  316ACOH    H211427   8.262   7.444   0.137 -0.8523  0.4616  0.2533
  316ACOH    H311428   8.334   7.578   0.035  1.8133 -1.1571 -2.0235
  317ACOH    H411429   8.223   8.407   0.013 -0.8043 -0.7164 -0.2638
  317ACOH    O211430   8.171   8.356   0.078 -0.0256 -0.4823  0.5482
  317ACOH    C211431   8.211   8.225   0.087  0.2748 -0.0539  0.1686
  317ACOH    O111432   8.327   8.192   0.073 -0.6290 -0.3018 -0.3590
  317ACOH    C111433   8.108   8.139   0.141  0.0797  0.1601 -0.6157
  317ACOH    H111434   8.018   8.134   0.080 -0.9343  0.0222  0.8532
  317ACOH    H211435   8.082   8.151   0.246 -1.2894 -0.4735 -0.8779
  317ACOH    H311436   8.145   8.036   0.135 -1.4302 -0.4822  0.6596
  318ACOH    H411437   5.461   7.015   3.295 -2.9968 -3.4046 -0.8949
  318ACOH    O211438   5.502   6.961   3.365  0.0160 -0.3637 -0.1864
  318ACOH    C211439   5.429   6.970   3.476  0.1143 -0.0061 -0.3676
  318ACOH    O111440   5.328   7.045   3.495 -0.4432 -0.0682  0.3953
  318ACOH    C111441   5.481   6.875   3.579  0.2348  0.1190 -0.0248
  318ACOH    H111442   5.407   6.796   3.586  0.5966 -0.1405  1.0634
  318ACOH    H211443   5.509   6.913   3.678  0.6584  0.0515 -0.1170
  318ACOH    H311444   5.575   6.830   3.548  0.5602 -0.0839  1.2076
  319ACOH    H411445   5.589   3.661   0.857 -1.0631  1.4416  0.0459
  319ACOH    O211446   5.659   3.670   0.924 -0.6365 -0.1662 -0.1483
  319ACOH    C211447   5.693   3.799   0.914 -0.1051  0.7505 -0.5756
  319ACOH    O111448   5.672   3.879   0.826 -0.7322  0.0773 -0.5351
  319ACOH    C111449   5.798   3.823   1.021 -0.1427 -0.6632 -0.5089
  319ACOH    H111450   5.748   3.860   1.110 -3.2847 -2.7646 -1.3098
  319ACOH    H211451   5.868   3.901   0.990 -0.5148  0.7065  1.9934
  319ACOH    H311452   5.861   3.736   1.039  2.6009  1.2646 -0.5046
  320ACOH    H411453   3.813   6.712   2.327  0.1371 -1.4563  2.4953
  320ACOH    O211454   3.864   6.640   2.286 -0.0208  0.0093 -0.3590
  320ACOH    C211455   3.928   6.570   2.380 -0.7191 -0.3954 -0.5210
  320ACOH    O111456   3.900   6.577   2.499 -0.3314 -0.0302 -0.4064
  320ACOH    C111457   4.016   6.461   2.321 -0.0237 -0.2811  0.2625
  320ACOH    H111458   3.976   6.366   2.354  1.0230 -1.0648 -0.7054
  320ACOH    H211459   4.114   6.474   2.365 -0.2394  0.7834  0.4552
  320ACOH    H311460   4.022   6.457   2.213 -0.4780 -0.5827  0.2440
  321ACOH    H411461   4.851   7.337   4.889 -0.7982  1.4059  0.6190
  321ACOH    O211462   4.891   7.338   4.978  0.1307  0.5137  0.2206
  321ACOH    C211463   4.799   7.287   5.061  0.7844  0.2096  0.2850
  321ACOH    O111464   4.678   7.265   5.045 -0.1606  0.0868 -0.0803
  321ACOH    C111465   4.852   7.286   5.203  0.4350 -0.0093  0.3362
  321ACOH    H111466   4.957   7.258   5.203  0.4253 -0.0570  0.9839
  321ACOH    H211467   4.808   7.211   5.268  1.3643  0.4142  1.4646
  321ACOH    H311468   4.851   7.382   5.255 -1.3388  0.5449 -0.6670
  322ACOH    H411469   5.678   9.276   6.453 -1.7952  0.2950  0.6534
  322ACOH    O211470   5.648   9.337   6.384  0.2558 -0.1805 -0.6862
  322ACOH    C211471   5.753   9.349   6.309  0.3263 -0.4707 -0.2471
  322ACOH    O111472   5.850   9.277   6.288  0.6426 -0.2892 -0.4311
  322ACOH    C111473   5.736   9.479   6.235 -0.4272  0.0120  0.4029
  322ACOH    H111474   5.806   9.545   6.286  0.7798 -2.3598  1.9438
  322ACOH    H211475   5.630   9.502   6.245 -0.4269  0.2752 -0.2293
  322ACOH    H311476   5.767   9.476   6.131 -4.1037 -2.5373 -0.7177
  323ACOH    H411477   8.027   6.243   2.409 -2.2804  0.2486 -2.9454
  323ACOH    O211478   8.049   6.337   2.411 -0.4500 -0.1895  0.2005
  323ACOH    C211479   8.072   6.368   2.286  0.2859  1.1865  0.5697
  323ACOH    O111480   8.105   6.285   2.203  0.7703  0.7073  0.6772
  323ACOH    C111481   8.082   6.516   2.259  0.4422  0.0422 -0.8924
  323ACOH    H111482   8.144   6.533   2.171  0.5306  2.3010 -0.4184
  323ACOH    H211483   8.138   6.555   2.344 -2.0461 -1.4418  1.5120
  323ACOH    H311484   7.984   6.561   2.248 -0.0089  0.0307  2.5592
  324ACOH    H411485   5.292   2.847   2.753 -0.8036  0.2962  0.7417
  324ACOH    O211486   5.313   2.920   2.814 -0.4439  0.8438 -0.0228
  324ACOH    C211487   5.375   2.874   2.927  0.2592 -0.7525  0.9810
  324ACOH    O111488   5.420   2.761   2.943  0.3634 -0.5131 -0.0664
  324ACOH    C111489   5.394   2.990   3.015  0.5543 -0.0241 -0.5363
  324ACOH    H111490   5.449   2.973   3.108 -1.0977 -0.2249  0.4174
  324ACOH    H211491   5.297   3.027   3.046  1.3854 -0.0313  2.2394
  324ACOH    H311492   5.442   3.075   2.967  0.5461  0.4452  0.2868
  325ACOH    H411493   7.703   4.269   2.654 -1.4601  0.1784 -0.4874
  325ACOH    O211494   7.713   4.336   2.723  0.1902 -0.4062 -0.1260
  325ACOH    C211495   7.720   4.461   2.674 -0.2488  0.3475 -0.6910
  325ACOH    O111496   7.693   4.498   2.561 -0.2446  0.0341 -0.2123
  325ACOH    C111497   7.742   4.563   2.780 -0.3662  0.4782 -0.6971
  325ACOH    H111498   7.717   4.667   2.757  0.1635  0.9003  0.5950
  325ACOH    H211499   7.845   4.575   2.814 -0.6869  0.9201  0.1308
  325ACOH    H311500   7.687   4.536   2.870  0.5420  0.7922 -0.0483
  326ACOH    H411501   5.560   4.228   1.339 -0.1088  0.7479  0.4762
  326ACOH    O211502   5.630   4.258   1.398  0.4221 -0.0188  0.2406
  326ACOH    C211503   5.684   4.372   1.348  0.7040 -0.6785 -0.1916
  326ACOH    O111504   5.640   4.436   1.258  0.0686 -0.3399  0.5446
  326ACOH    C111505   5.778   4.439   1.446 -0.4528 -0.0127 -0.1125
  326ACOH    H111506   5.878   4.459   1.410 -1.2691  3.4589 -0.6505
  326ACOH    H211507   5.792   4.374   1.532 -2.4099 -0.6762 -0.2506
  326ACOH    H311508   5.737   4.532   1.487 -0.3717  0.4911 -1.1666
  327ACOH    H411509   4.560   7.196   1.284 -0.2995 -1.5425  0.7732
  327ACOH    O211510   4.656   7.184   1.281 -0.1885 -0.5805  0.3934
  327ACOH    C211511   4.688   7.210   1.412 -0.5817 -0.2557  0.0627
  327ACOH    O111512   4.631   7.171   1.509 -0.4363  0.2681  0.4480
  327ACOH    C111513   4.818   7.285   1.420  0.3252  0.7375  0.7424
  327ACOH    H111514   4.813   7.382   1.370  1.2911 -0.3777 -1.5866
  327ACOH    H211515   4.898   7.225   1.376 -1.7586 -0.8196 -1.0617
  327ACOH    H311516   4.844   7.306   1.524 -0.4303 -1.6574  1.4539
  328ACOH    H411517   7.481   4.122   2.212  1.7121 -0.3221 -2.6579
  328ACOH    O211518   7.480   4.213   2.179  0.0467  0.5255 -0.4046
  328ACOH    C211519   7.431   4.219   2.056 -0.2542  0.3395  0.4219
  328ACOH    O111520   7.416   4.121   1.979  0.1335 -0.3901  0.4428
  328ACOH    C111521   7.384   4.362   2.031  0.2812 -0.3514 -0.2918
  328ACOH    H111522   7.317   4.390   2.113  0.5063  1.1671 -0.6099
  328ACOH    H211523   7.350   4.378   1.929 -1.9475  0.5070  0.5762
  328ACOH    H311524   7.471   4.427   2.041  1.2110 -1.9685  3.1801
  329ACOH    H411525   6.171   7.430   3.037 -0.5280  1.4987  0.1103
  329ACOH    O211526   6.258   7.401   3.071 -1.2220 -0.5294  0.2514
  329ACOH    C211527   6.266   7.346   3.193 -0.8602 -0.2436 -0.2162
  329ACOH    O111528   6.169   7.340   3.267  0.2869 -0.5961  0.4792
  329ACOH    C111529   6.394   7.273   3.217 -0.8119  0.3515 -0.2206
  329ACOH    H111530   6.383   7.213   3.307  0.7139 -0.3343 -0.4746
  329ACOH    H211531   6.474   7.346   3.232 -1.0089  0.9650 -2.0338
  329ACOH    H311532   6.419   7.209   3.132 -1.5792  1.2502 -1.1388
  330ACOH    H411533   9.426   3.923   5.956  1.2553 -0.4625 -0.5643
  330ACOH    O211534   9.460   3.899   6.044 -0.4081 -0.3225  0.1369
  330ACOH    C211535   9.565   3.811   6.014  0.0767 -0.5638  1.1962
  330ACOH    O111536   9.599   3.779   5.901  0.2614  0.1850 -0.7824
  330ACOH    C111537   9.649   3.795   6.136 -0.2557 -0.4620  0.1472
  330ACOH    H111538   9.591   3.727   6.197 -0.2179  0.7607  1.5684
  330ACOH    H211539   9.663   3.891   6.186 -1.9628  0.4714 -1.1033
  330ACOH    H311540   9.748   3.756   6.113  0.7537  0.8879  2.0649
  331ACOH    H411541   5.061   4.213   2.363  0.7551  0.7970  0.5727
  331ACOH    O211542   5.137   4.152   2.360  0.5783  0.5996  0.0418
  331ACOH    C211543   5.200   4.174   2.247  0.3581  0.0989  0.1554
  331ACOH    O111544   5.188   4.274   2.176  0.1385  0.1173  0.1808
  331ACOH    C111545   5.286   4.061   2.203  0.1548  0.0776  0.3555
  331ACOH    H111546   5.378   4.115   2.182 -0.4729  0.5989 -1.0916
  331ACOH    H211547   5.242   4.030   2.108 -3.5393  1.0998  1.6606
  331ACOH    H311548   5.308   3.980   2.273  1.2379  0.3784  0.3745
  332ACOH    H411549   5.208   9.335   0.085  2.0152  2.0688 -1.7289
  332ACOH    O211550   5.281   9.319   0.147 -0.1495 -0.2459  0.3130
  332ACOH    C211551   5.367   9.234   0.084  0.6134  0.5420 -0.9010
  332ACOH    O111552   5.361   9.182  -0.025  0.3109 -0.2431 -0.4667
  332ACOH    C111553   5.487   9.210   0.167 -0.3522 -0.2792  0.2466
  332ACOH    H111554   5.528   9.300   0.214  1.4827 -1.5756  1.2344
  332ACOH    H211555   5.566   9.168   0.105 -1.2992 -2.1548  0.2752
  332ACOH    H311556   5.462   9.137   0.245  2.2833 -1.4568  0.0572
  333ACOH    H411557   5.295   4.331   3.672 -2.6572 -0.2745  1.8015
  333ACOH    O211558   5.328   4.239   3.672  0.0371  0.5963 -0.4530
  333ACOH    C211559   5.217   4.159   3.644  0.1474 -0.1955  0.8044
  333ACOH    O111560   5.097   4.182   3.662  0.5050 -0.2510 -0.2273
  333ACOH    C111561   5.272   4.029   3.601 -0.1474  0.2558 -0.3547
  333ACOH    H111562   5.295   4.030   3.494 -1.2931 -2.3312 -0.6574
  333ACOH    H211563   5.196   3.954   3.624  1.8051 -0.7825  2.9958
  333ACOH    H311564   5.360   4.005   3.660 -1.3110 -2.4977  0.3419
  334ACOH    H411565   8.122   9.155   6.545 -0.5194 -1.8592  0.0259
  334ACOH    O211566   8.150   9.166   6.638  0.2657  0.0218 -0.4248
  334ACOH    C211567   8.039   9.206   6.703  0.4610 -0.1124  0.3263
  334ACOH    O111568   7.956   9.290   6.665  0.6269  0.4188  0.1279
  334ACOH    C111569   8.052   9.159   6.846 -0.0308  1.0016  0.5467
  334ACOH    H111570   7.976   9.215   6.900 -0.5701  1.1711 -0.3806
  334ACOH    H211571   8.155   9.169   6.882 -0.1532  0.7393  0.9811
  334ACOH    H311572   8.019   9.055   6.853  0.7963  0.7036  0.1530
  335ACOH    H411573   6.159   1.337   5.906  0.7660  0.4930 -0.2013
  335ACOH    O211574   6.171   1.343   6.002  0.5770 -0.2564 -0.1249
  335ACOH    C211575   6.109   1.254   6.084  0.0873  0.1554 -0.0448
  335ACOH    O111576   6.025   1.171   6.057 -0.1623 -0.3605  0.0162
  335ACOH    C111577   6.165   1.285   6.216 -0.6513  0.2407 -0.3718
  335ACOH    H111578   6.273   1.277   6.215 -0.6481  0.2912 -0.5146
  335ACOH    H211579   6.118   1.221   6.290 -0.2418  1.4756  0.9830
  335ACOH    H311580   6.134   1.388   6.238 -2.6993 -0.7971  1.8339
  336ACOH    H411581   1.355   2.100   3.821 -0.7837  0.1440 -1.6408
  336ACOH    O211582   1.372   2.009   3.792  0.0219 -0.1860 -0.1523
  336ACOH    C211583   1.407   1.937   3.898 -0.0986 -0.0302 -0.4146
  336ACOH    O111584   1.450   1.974   4.005 -0.1496 -0.8520 -0.9388
  336ACOH    C111585   1.417   1.798   3.856  0.1777  0.1615  0.1500
  336ACOH    H111586   1.360   1.730   3.920  1.0367  0.7960  1.6279
  336ACOH    H211587   1.523   1.775   3.862  0.1569 -0.0222 -0.1706
  336ACOH    H311588   1.385   1.788   3.752 -0.6737  2.1750  0.2010
  337ACOH    H411589   1.490   3.279   3.438  0.5472  0.1265  0.5554
  337ACOH    O211590   1.439   3.240   3.511  0.1339 -0.1181  0.1326
  337ACOH    C211591   1.458   3.111   3.535 -0.7499 -0.1969  0.3613
  337ACOH    O111592   1.512   3.030   3.466 -0.2316  0.2273 -0.8004
  337ACOH    C111593   1.387   3.075   3.658 -0.3760 -0.4919  0.1736
  337ACOH    H111594   1.336   2.980   3.639 -2.9229  1.2734 -2.1861
  337ACOH    H211595   1.298   3.135   3.678 -1.9459 -2.8371  0.4794
  337ACOH    H311596   1.458   3.064   3.740  0.6424 -3.1251 -0.9796
  338ACOH    H411597   4.856   1.793   6.639 -0.2693 -0.1608 -0.7086
  338ACOH    O211598   4.861   1.870   6.579  0.9090 -0.1588 -0.6128
  338ACOH    C211599   4.926   1.834   6.464  0.5426 -0.2048  0.5638
  338ACOH    O111600   4.952   1.729   6.418 -0.0387  0.0427 -0.1937
  338ACOH    C111601   4.957   1.959   6.384  0.4032 -0.2890  0.0526
  338ACOH    H111602   4.874   2.028   6.366  0.2598 -0.8510 -1.5683
  338ACOH    H211603   5.000   1.922   6.290  1.5181 -1.6539  1.0698
  338ACOH    H311604   5.038   2.018   6.428 -0.0220  0.5680 -0.2912
  339ACOH    H411605   5.213   5.007   4.525  0.4789  0.5890 -1.3511
  339ACOH    O211606   5.207   4.936   4.459 -0.1268 -0.5717 -0.0913
  339ACOH    C211607   5.330   4.905   4.423  0.6003  0.7833  0.4430
  339ACOH    O111608   5.429   4.919   4.493  0.1013  0.4478  0.0189
  339ACOH    C111609   5.337   4.807   4.304 -0.1139  0.1077  0.2442
  339ACOH    H111610   5.412   4.840   4.232 -1.3379  0.3911 -0.9038
  339ACOH    H211611   5.241   4.815   4.254 -0.0539  1.4388  0.3357
  339ACOH    H311612   5.361   4.706   4.338  1.9326  0.7926  0.9602
  340ACOH    H411613   5.062   3.087   5.590 -0.1527 -0.7144  0.5969
  340ACOH    O211614   5.049   3.152   5.661  0.2750 -0.4830  0.4668
  340ACOH    C211615   4.934   3.220   5.635  0.0146 -0.2325  0.4684
  340ACOH    O111616   4.865   3.225   5.535  0.4330  0.8531  0.0739
  340ACOH    C111617   4.904   3.300   5.754  0.2058  0.0345  0.1782
  340ACOH    H111618   4.991   3.349   5.799  1.6395  0.1605 -2.6568
  340ACOH    H211619   4.870   3.233   5.833 -0.8753  1.2273  0.7358
  340ACOH    H311620   4.817   3.363   5.736 -0.0330 -0.5270 -0.6790
  341ACOH    H411621   0.707   2.020   2.813  0.5135 -2.2014 -1.8657
  341ACOH    O211622   0.720   1.960   2.888 -0.0500 -0.2681 -0.1823
  341ACOH    C211623   0.624   1.996   2.967  0.4981 -0.2371 -0.1572
  341ACOH    O111624   0.564   2.102   2.974 -0.0662 -0.1452  0.8735
  341ACOH    C111625   0.633   1.899   3.078  0.9780  0.3866 -0.2804
  341ACOH    H111626   0.733   1.903   3.123  1.0625  1.8670 -0.5867
  341ACOH    H211627   0.617   1.798   3.041  2.0552  0.1742 -0.1908
  341ACOH    H311628   0.563   1.923   3.157 -1.5167  0.0012 -2.3252
  342ACOH    H411629   5.497   0.171   5.787  1.8854 -1.3202 -1.6170
  342ACOH    O211630   5.556   0.132   5.854 -0.0711 -0.5966  0.5942
  342ACOH    C211631   5.573   0.001   5.830  1.1438  0.0961  0.3075
  342ACOH    O111632   5.523  -0.061   5.738 -0.3011  0.1288  0.2422
  342ACOH    C111633   5.640  -0.079   5.937  0.2233  0.0276 -0.8531
  342ACOH    H111634   5.555  -0.124   5.989  0.0199 -0.3350 -1.4929
  342ACOH    H211635   5.698  -0.017   6.006 -0.8916  0.1499 -0.0127
  342ACOH    H311636   5.695  -0.162   5.893 -0.3373 -1.1715  0.6511
  343ACOH    H411637   5.110   9.747   6.670 -0.3661 -0.6315  1.1760
  343ACOH    O211638   5.186   9.794   6.709 -0.0837  0.0635 -0.1578
  343ACOH    C211639   5.228   9.898   6.634  0.1490 -0.3886  0.3044
  343ACOH    O111640   5.157   9.964   6.556  0.4526 -1.2522  0.3453
  343ACOH    C111641   5.346   9.953   6.688  0.8816 -0.6556  0.5115
  343ACOH    H111642   5.398   9.889   6.759  0.0642 -0.8084  0.9895
  343ACOH    H211643   5.324  10.049   6.735  0.6226  0.1020 -1.1223
  343ACOH    H311644   5.411   9.970   6.603 -0.4164 -0.5614 -0.4743
  344ACOH    H411645   7.890   4.139   3.508 -0.0848  1.0102 -0.5017
  344ACOH    O211646   7.866   4.080   3.434  0.1706  0.2407  0.0178
  344ACOH    C211647   7.906   3.954   3.470 -0.2299  0.5480 -0.6992
  344ACOH    O111648   7.926   3.924   3.584  0.4204  0.3259 -0.1992
  344ACOH    C111649   7.894   3.852   3.365 -0.4713  0.2729  0.4603
  344ACOH    H111650   7.838   3.767   3.403  1.0656 -0.7367  0.4930
  344ACOH    H211651   7.993   3.811   3.344  0.1059  1.6540  0.3537
  344ACOH    H311652   7.845   3.900   3.281  0.0027  0.4784  0.3011
  345ACOH    H411653   7.473   7.275   2.899  1.6575 -0.8883 -1.6884
  345ACOH    O211654   7.418   7.319   2.832  0.4332 -0.2090 -0.2752
  345ACOH    C211655   7.449   7.454   2.855 -0.1363  0.4169 -0.0431
  345ACOH    O111656   7.558   7.508   2.869 -0.3636  0.2887 -0.4223
  345ACOH    C111657   7.334   7.531   2.803 -0.1934  0.3578 -0.5803
  345ACOH    H111658   7.335   7.505   2.697  3.0479  1.2747 -0.8056
  345ACOH    H211659   7.349   7.638   2.819  0.5733  0.3033 -0.9450
  345ACOH    H311660   7.244   7.492   2.851  0.5274 -0.2964  0.2309
  346ACOH    H411661   8.492   0.641   5.923 -1.2055  0.6600  0.1825
  346ACOH    O211662   8.468   0.604   5.836  0.0114 -0.0912  0.1533
  346ACOH    C211663   8.342   0.564   5.823 -0.3979  0.6669 -0.6814
  346ACOH    O111664   8.263   0.562   5.914 -0.0414 -0.4726  0.1881
  346ACOH    C111665   8.335   0.505   5.686  0.9565 -0.4132  0.1842
  346ACOH    H111666   8.365   0.582   5.616 -2.0711  2.5181  1.9787
  346ACOH    H211667   8.237   0.457   5.681  0.1895  1.3484 -3.0935
  346ACOH    H311668   8.410   0.426   5.681  2.7997  1.2631  0.7810
  347ACOH    H411669   5.105   5.269   3.689  0.8346 -3.1314  1.1659
  347ACOH    O211670   5.184   5.319   3.714 -0.6953  0.1668 -0.1686
  347ACOH    C211671   5.197   5.414   3.618 -0.0993  0.0191 -0.2581
  347ACOH    O111672   5.168   5.398   3.502  0.4780  0.0090  0.4466
  347ACOH    C111673   5.280   5.525   3.674  0.0309  0.0853  0.0908
  347ACOH    H111674   5.271   5.620   3.622 -0.5483 -1.0652 -1.9889
  347ACOH    H211675   5.385   5.494   3.664  0.0443 -0.1483  0.9099
  347ACOH    H311676   5.248   5.530   3.778  3.3034 -0.3090  1.1866
  348ACOH    H411677   6.918   7.631   5.512  1.3308 -3.6452  0.9141
  348ACOH    O211678   7.009   7.663   5.524  0.4151  0.1068 -1.2051
  348ACOH    C211679   7.015   7.801   5.533 -0.0154 -0.2470 -0.4371
  348ACOH    O111680   6.923   7.879   5.528  0.0510  0.4726  0.0180
  348ACOH    C111681   7.159   7.841   5.528  0.4681 -0.0610 -0.0592
  348ACOH    H111682   7.184   7.924   5.595 -0.5814  2.5565 -2.7954
  348ACOH    H211683   7.196   7.867   5.429 -0.0190 -1.1173 -0.5289
  348ACOH    H311684   7.209   7.751   5.564  1.6959  0.1888 -1.1135
  349ACOH    H411685   9.902  -0.115   6.630  2.2014 -0.0633 -1.1278
  349ACOH    O211686   9.907  -0.018   6.631 -0.2949  0.0781  0.1962
  349ACOH    C211687   9.819   0.032   6.720  0.2751  0.1373  0.0626
  349ACOH    O111688   9.722  -0.034   6.760 -0.5906  0.2266 -0.3577
  349ACOH    C111689   9.819   0.178   6.725  0.5551  0.2438 -0.3756
  349ACOH    H111690   9.812   0.222   6.824 -0.2487 -0.2927 -0.1929
  349ACOH    H211691   9.733   0.206   6.664  0.5137 -0.9824 -0.8851
  349ACOH    H311692   9.912   0.204   6.673 -0.8511  1.9670 -2.1443
  350ACOH    H411693   5.862   2.336   2.995 -2.2808 -0.4298 -0.3567
  350ACOH    O211694   5.877   2.258   2.940 -0.5376 -0.2031 -0.2449
  350ACOH    C211695   5.855   2.302   2.816  0.1798 -0.5118  0.7988
  350ACOH    O111696   5.821   2.414   2.770  0.0162  0.5961 -0.1857
  350ACOH    C111697   5.903   2.206   2.712 -0.7835 -0.2809  0.9387
  350ACOH    H111698   5.951   2.255   2.628  2.5286 -0.5834  2.5668
  350ACOH    H211699   5.818   2.148   2.677  0.8297 -1.4132 -1.1623
  350ACOH    H311700   5.970   2.135   2.761 -1.1946 -0.3546  1.4008
  351ACOH    H411701   7.676   1.553   1.740  0.5251 -0.6934  0.9859
  351ACOH    O211702   7.589   1.524   1.773 -0.0217 -0.3598 -0.1301
  351ACOH    C211703   7.577   1.562   1.903 -0.4243  0.1598 -0.5520
  351ACOH    O111704   7.659   1.599   1.985  0.1978  0.1982  0.0909
  351ACOH    C111705   7.437   1.525   1.943 -0.0133 -0.1095  0.3518
  351ACOH    H111706   7.404   1.435   1.892 -0.3625 -0.0722  0.5099
  351ACOH    H211707   7.364   1.605   1.924 -1.2027 -1.2561  0.0258
  351ACOH    H311708   7.422   1.507   2.049 -0.5493  1.1390  0.5050
  352ACOH    H411709   5.200   0.877   4.785  0.9185 -1.1057  0.4622
  352ACOH    O211710   5.162   0.851   4.870 -0.7293  0.1181  0.1176
  352ACOH    C211711   5.149   0.721   4.854 -0.4681  0.5757  0.1931
  352ACOH    O111712   5.180   0.654   4.759 -0.8991 -0.4522  0.2424
  352ACOH    C111713   5.079   0.668   4.970  0.4392  0.5589  0.6471
  352ACOH    H111714   5.147   0.614   5.036 -0.3498 -2.3780 -0.8851
  352ACOH    H211715   4.997   0.603   4.940 -0.2417  1.3612  0.7256
  352ACOH    H311716   5.026   0.738   5.036 -1.7295 -0.1829 -0.2605
  353ACOH    H411717   3.179   3.756   3.900 -0.4429 -0.5954  0.9452
  353ACOH    O211718   3.115   3.798   3.839  0.1202 -0.1045  0.6910
  353ACOH    C211719   3.171   3.846   3.725  0.4069  0.3376 -0.0951
  353ACOH    O111720   3.280   3.818   3.685  0.0043  0.3340 -0.0024
  353ACOH    C111721   3.091   3.936   3.642 -0.0254  0.5048  0.3423
  353ACOH    H111722   3.014   3.987   3.699  0.1114  3.9906 -2.4105
  353ACOH    H211723   3.049   3.894   3.551  0.4917  2.2882 -0.7606
  353ACOH    H311724   3.161   4.012   3.606  0.4835  0.8613  2.0553
  354ACOH    H411725   8.359   6.636   6.564  1.0299 -1.1421  1.0565
  354ACOH    O211726   8.272   6.604   6.594  0.2712  0.4157  0.5842
  354ACOH    C211727   8.272   6.629   6.730  0.0809 -0.2167  0.2889
  354ACOH    O111728   8.294   6.741   6.782 -0.1729  0.7804 -0.3171
  354ACOH    C111729   8.162   6.542   6.785 -0.6006 -0.0254  0.3632
  354ACOH    H111730   8.169   6.540   6.894 -0.9871 -3.8034  0.3983
  354ACOH    H211731   8.172   6.440   6.747  0.2324 -0.5238  1.8606
  354ACOH    H311732   8.070   6.596   6.762  0.0702  1.8239  1.8719
  355ACOH    H411733   5.452   3.413   3.406  2.1858  0.5975  0.0537
  355ACOH    O211734   5.439   3.352   3.480  0.3662 -0.0494 -0.7856
  355ACOH    C211735   5.521   3.246   3.461  0.2986 -0.8005 -0.7302
  355ACOH    O111736   5.622   3.234   3.397  0.5797  0.2446 -0.1448
  355ACOH    C111737   5.479   3.129   3.543 -0.4583 -0.8549  0.2382
  355ACOH    H111738   5.451   3.044   3.480  2.0485 -0.1474 -1.8957
  355ACOH    H211739   5.394   3.152   3.607 -2.2407 -0.0583 -2.3886
  355ACOH    H311740   5.554   3.092   3.614 -1.4378 -1.1326  1.1445
  356ACOH    H411741   5.715   3.267   3.254  2.2492 -3.0760  0.1554
  356ACOH    O211742   5.757   3.297   3.172 -0.7549 -0.3467 -0.5243
  356ACOH    C211743   5.659   3.302   3.080 -0.8312  0.4148 -0.1969
  356ACOH    O111744   5.542   3.273   3.096  1.0129  0.2290  0.2322
  356ACOH    C111745   5.718   3.355   2.957  0.1391 -0.3842  0.4762
  356ACOH    H111746   5.799   3.295   2.917  0.9294  2.4039 -2.3286
  356ACOH    H211747   5.760   3.454   2.977 -1.6681  0.2199  1.4048
  356ACOH    H311748   5.634   3.366   2.888  0.2905  1.6243  0.5809
  357ACOH    H411749   7.313   6.602   6.049 -0.9080 -0.7512  0.4834
  357ACOH    O211750   7.289   6.682   6.098 -0.7051 -0.2847 -0.1736
  357ACOH    C211751   7.200   6.749   6.029 -0.2663 -0.1710  0.2889
  357ACOH    O111752   7.178   6.735   5.913  0.3695  0.2271  0.1809
  357ACOH    C111753   7.144   6.859   6.113 -0.8438  0.7631 -0.1466
  357ACOH    H111754   7.111   6.809   6.205 -0.7239 -1.9384 -1.5250
  357ACOH    H211755   7.053   6.901   6.070 -1.3412 -0.4494 -0.3250
  357ACOH    H311756   7.218   6.936   6.133 -0.5009  0.5963 -0.7561
  358ACOH    H411757   7.968   5.454   2.993 -0.0562 -0.2189  0.7142
  358ACOH    O211758   7.977   5.365   2.957  0.0820 -0.0946  0.4413
  358ACOH    C211759   8.057   5.366   2.847 -0.0322 -0.4338  0.6975
  358ACOH    O111760   8.117   5.466   2.813 -0.0355  0.4119  0.3268
  358ACOH    C111761   8.056   5.245   2.764 -0.4630 -0.0253 -0.5199
  358ACOH    H111762   8.104   5.246   2.666 -1.7532  0.5018 -1.1578
  358ACOH    H211763   7.957   5.201   2.749 -1.4013  1.9181 -0.1633
  358ACOH    H311764   8.113   5.176   2.825  1.1322  1.0157 -0.8081
  359ACOH    H411765   3.598   6.007   2.386 -0.3710  1.4292 -0.6503
  359ACOH    O211766   3.663   6.043   2.449 -0.5085  0.7910 -0.1409
  359ACOH    C211767   3.595   6.139   2.511 -0.8087  0.3549 -0.3694
  359ACOH    O111768   3.500   6.199   2.466 -0.7968  0.5227  0.1767
  359ACOH    C111769   3.673   6.192   2.624 -0.7782  0.3159 -0.8960
  359ACOH    H111770   3.771   6.223   2.589  1.0741 -2.7344  1.3104
  359ACOH    H211771   3.685   6.117   2.703 -1.2705  0.4643 -0.6752
  359ACOH    H311772   3.619   6.272   2.675 -0.2166 -1.5150  2.7718
  360ACOH    H411773   8.629   3.432   3.625 -0.2111  0.6024  0.1052
  360ACOH    O211774   8.542   3.468   3.650 -0.4728 -0.1838  0.3148
  360ACOH    C211775   8.462   3.364   3.638  0.7463  0.8159  0.1383
  360ACOH    O111776   8.489   3.257   3.584 -0.0463  0.7026 -0.3738
  360ACOH    C111777   8.321   3.394   3.686 -0.5571  0.0298 -0.2038
  360ACOH    H111778   8.306   3.501   3.678 -0.4418  0.1816  1.3410
  360ACOH    H211779   8.309   3.367   3.791 -1.1336 -0.7493 -0.4655
  360ACOH    H311780   8.246   3.344   3.624 -0.0991  0.5406 -1.1702
  361ACOH    H411781   7.102   6.677   5.513 -0.4080  0.4292 -0.7008
  361ACOH    O211782   7.030   6.619   5.482  0.2107 -0.5206 -0.4073
  361ACOH    C211783   6.994   6.670   5.360 -0.9464  0.0482  0.7015
  361ACOH    O111784   7.060   6.737   5.285 -0.1681  0.9891 -0.3903
  361ACOH    C111785   6.877   6.592   5.310  0.0917 -0.5080 -0.4220
  361ACOH    H111786   6.841   6.631   5.215  0.8967  0.4101 -0.3544
  361ACOH    H211787   6.800   6.602   5.387 -0.3372  2.4842 -1.1938
  361ACOH    H311788   6.905   6.487   5.297 -1.0460 -0.5679 -2.6330
  362ACOH    H411789   5.426   8.075   5.560 -1.7288 -0.8697  0.9840
  362ACOH    O211790   5.488   8.001   5.550 -0.1903  0.5070 -0.0423
  362ACOH    C211791   5.409   7.908   5.488  0.2345  0.2626 -0.2760
  362ACOH    O111792   5.288   7.919   5.472 -0.0870  0.3906  0.0621
  362ACOH    C111793   5.486   7.789   5.453 -0.1810 -0.3409 -0.1067
  362ACOH    H111794   5.472   7.710   5.527 -1.8646  1.2213  1.2989
  362ACOH    H211795   5.590   7.814   5.434 -0.8038  0.0741 -3.2515
  362ACOH    H311796   5.448   7.749   5.359 -0.2139 -0.0447 -0.2203
  363ACOH    H411797   4.781   3.397   0.078  0.7834  2.2190  1.0707
  363ACOH    O211798   4.854   3.337   0.099 -0.0735  0.5043 -0.6422
  363ACOH    C211799   4.832   3.276   0.219 -0.8831 -0.4620 -0.5038
  363ACOH    O111800   4.736   3.298   0.290  0.4826  0.0448 -0.3587
  363ACOH    C111801   4.933   3.171   0.251  0.1126  0.6551 -0.1222
  363ACOH    H111802   5.022   3.212   0.300 -0.7951  4.1433 -1.2695
  363ACOH    H211803   4.964   3.126   0.157 -2.1881  3.5060 -2.3151
  363ACOH    H311804   4.879   3.094   0.306 -0.9254 -0.7542 -2.9994
  364ACOH    H411805   9.592   6.547   5.967  1.7203 -0.5019  0.4096
  364ACOH    O211806   9.570   6.493   6.045 -0.3023 -0.2696  0.0214
  364ACOH    C211807   9.499   6.582   6.116  0.0348  0.0331  0.3645
  364ACOH    O111808   9.529   6.699   6.128 -0.1727 -0.1468  0.1829
  364ACOH    C111809   9.442   6.504   6.228  0.2668 -0.0284 -0.5120
  364ACOH    H111810   9.349   6.550   6.262  0.3940 -0.4776  0.4879
  364ACOH    H211811   9.512   6.494   6.312 -2.0521  1.2271  1.6403
  364ACOH    H311812   9.409   6.401   6.212  2.4584 -0.7166 -0.8270
  365ACOH    H411813   7.574   5.332   0.661 -1.2530 -2.0099  0.0947
  365ACOH    O211814   7.490   5.372   0.635 -0.2657 -0.0203 -0.1003
  365ACOH    C211815   7.453   5.333   0.516 -0.8803 -0.3515  0.2775
  365ACOH    O111816   7.524   5.265   0.443  0.2126  0.5279  0.7610
  365ACOH    C111817   7.325   5.396   0.472  0.4284  0.3836  0.0342
  365ACOH    H111818   7.301   5.362   0.371  1.2210 -0.4919  0.1274
  365ACOH    H211819   7.335   5.504   0.467  1.4520  0.2418 -1.1967
  365ACOH    H311820   7.256   5.368   0.551  1.1797 -0.3859  0.4264
  366ACOH    H411821   7.442   7.453   3.196  0.8163 -0.3146 -0.5481
  366ACOH    O211822   7.386   7.427   3.121  0.0005 -0.2748  0.0496
  366ACOH    C211823   7.282   7.380   3.186 -0.5287  0.7541  0.4986
  366ACOH    O111824   7.287   7.306   3.283  0.3191 -0.1964  0.2140
  366ACOH    C111825   7.157   7.427   3.117 -0.6954 -0.0348  0.1207
  366ACOH    H111826   7.075   7.396   3.181 -2.0402  2.0493 -0.5574
  366ACOH    H211827   7.157   7.374   3.021  2.6061  2.0954 -1.1624
  366ACOH    H311828   7.158   7.533   3.094  0.2062 -0.4061 -1.6775
  367ACOH    H411829   5.273   8.301   6.608  3.1798  0.2964  0.3204
  367ACOH    O211830   5.267   8.210   6.573 -0.1182  0.4261  0.4159
  367ACOH    C211831   5.154   8.198   6.504  0.4771  0.2256  0.1291
  367ACOH    O111832   5.071   8.280   6.481 -0.5292  0.3816  0.5283
  367ACOH    C111833   5.152   8.073   6.424  0.1175 -0.0658 -0.1526
  367ACOH    H111834   5.152   8.096   6.317 -1.2280  2.5150  0.3805
  367ACOH    H211835   5.055   8.033   6.453  0.4124 -1.7473 -1.3954
  367ACOH    H311836   5.232   8.002   6.447 -2.4539 -3.0353 -0.0612
  368ACOH    H411837   0.957   1.726   2.809 -1.8402  2.1231 -0.9338
  368ACOH    O211838   1.011   1.740   2.730 -0.7423  0.3060 -0.5245
  368ACOH    C211839   1.090   1.635   2.727  0.5343  0.0751  0.6003
  368ACOH    O111840   1.119   1.553   2.813  0.0585 -0.3241  0.7389
  368ACOH    C111841   1.171   1.644   2.603  0.6031  0.0954  0.3626
  368ACOH    H111842   1.115   1.599   2.521 -0.5659 -0.1954  1.2976
  368ACOH    H211843   1.260   1.584   2.625  2.4841  2.5149 -0.4309
  368ACOH    H311844   1.197   1.747   2.578 -0.1968  0.1231 -0.3664
  369ACOH    H411845   4.876   5.109   2.875 -1.4990 -1.6085  1.7796
  369ACOH    O211846   4.874   5.040   2.807  0.7290 -0.1087  0.1200
  369ACOH    C211847   4.845   4.929   2.872 -0.3616  0.1464 -0.8502
  369ACOH    O111848   4.847   4.910   2.993  0.3440 -0.1851 -0.5345
  369ACOH    C111849   4.846   4.815   2.781 -0.4263 -0.1008 -0.0609
  369ACOH    H111850   4.949   4.780   2.776 -1.1985 -2.6969  1.1465
  369ACOH    H211851   4.810   4.831   2.679 -0.2832  0.8427  0.0298
  369ACOH    H311852   4.778   4.740   2.821 -1.3357  1.2189  0.9035
  370ACOH    H411853   7.017   0.157   2.109 -1.8190 -0.1563 -0.7089
  370ACOH    O211854   6.977   0.100   2.177 -0.0853 -0.3838  0.1294
  370ACOH    C211855   7.085   0.056   2.251  0.1102  0.4153 -0.2065
  370ACOH    O111856   7.195   0.031   2.209  0.0561 -0.2507  0.2045
  370ACOH    C111857   7.032  -0.024   2.367  0.1156 -0.6666 -0.2653
  370ACOH    H111858   6.937   0.012   2.406  0.1488 -0.2231 -0.5906
  370ACOH    H211859   7.100  -0.009   2.451  1.0112 -2.9576 -0.5596
  370ACOH    H311860   7.018  -0.132   2.359 -2.2270 -0.4982  1.0455
  371ACOH    H411861   8.491   4.863   3.047  1.5324 -1.5308 -2.0313
  371ACOH    O211862   8.432   4.792   3.076  0.3032  0.1141 -0.4124
  371ACOH    C211863   8.492   4.741   3.179 -0.0774  0.3584 -0.3825
  371ACOH    O111864   8.584   4.796   3.236  0.1045  0.2091 -1.0676
  371ACOH    C111865   8.460   4.598   3.212 -0.1431  0.1093 -0.5003
  371ACOH    H111866   8.501   4.572   3.309 -1.7470  1.6432  0.6269
  371ACOH    H211867   8.510   4.525   3.148 -0.5819 -0.6245 -0.0223
  371ACOH    H311868   8.351   4.588   3.214  0.0456 -2.2511 -0.4590
  372ACOH    H411869   7.604   6.230   3.263 -2.1566 -0.1485 -1.3043
  372ACOH    O211870   7.573   6.138   3.260 -0.4455 -0.7974  0.0728
  372ACOH    C211871   7.573   6.085   3.377  0.0871 -0.4074 -0.0077
  372ACOH    O111872   7.618   6.144   3.476  0.0230  0.2749 -0.7168
  372ACOH    C111873   7.535   5.940   3.371  0.5957 -1.0007  0.6362
  372ACOH    H111874   7.446   5.920   3.311  0.3467  2.6431 -0.3419
  372ACOH    H211875   7.519   5.900   3.471  0.7036 -1.0317  0.6411
  372ACOH    H311876   7.612   5.881   3.322 -0.6901 -1.3545 -1.0002
  373ACOH    H411877   7.379   6.454   5.848  0.7183  2.8265  0.5505
  373ACOH    O211878   7.317   6.453   5.923  0.1131  0.4321  0.0546
  373ACOH    C211879   7.283   6.322   5.955  0.5044 -0.6588  0.6046
  373ACOH    O111880   7.300   6.221   5.889  0.2134 -0.3842  0.4712
  373ACOH    C111881   7.208   6.331   6.083 -0.4634 -0.6063  0.0832
  373ACOH    H111882   7.124   6.263   6.083 -2.7290  2.0911 -0.1356
  373ACOH    H211883   7.178   6.434   6.103  3.6504  0.4648  1.2387
  373ACOH    H311884   7.273   6.301   6.165  1.7340  3.8857  0.1734
  374ACOH    H411885   7.092   4.501   1.586 -0.3731  1.3450 -0.1769
  374ACOH    O211886   7.014   4.490   1.643 -0.0455 -0.6837 -0.0920
  374ACOH    C211887   6.927   4.442   1.557 -0.6261  0.5888  0.4291
  374ACOH    O111888   6.902   4.489   1.446  0.2170  0.1407  0.3009
  374ACOH    C111889   6.826   4.384   1.650  0.2482 -0.5488 -0.7223
  374ACOH    H111890   6.859   4.287   1.688 -0.9488 -0.4506  0.6341
  374ACOH    H211891   6.738   4.364   1.589 -1.9416  0.9043  1.8542
  374ACOH    H311892   6.801   4.449   1.734  3.2606  0.5898 -0.6495
  375ACOH    H411893   4.845   5.983   3.091 -0.5445  0.0573  0.6669
  375ACOH    O211894   4.922   6.025   3.133 -0.0649  0.5400 -0.6567
  375ACOH    C211895   4.912   6.148   3.082 -0.2440  0.2020  0.0036
  375ACOH    O111896   4.819   6.193   3.022  0.1697  0.6535  0.1454
  375ACOH    C111897   4.996   6.248   3.151  0.2032  0.1259  0.6829
  375ACOH    H111898   4.935   6.313   3.213 -0.5353  1.7041 -1.6180
  375ACOH    H211899   5.047   6.315   3.082  0.6855 -0.7898  0.1353
  375ACOH    H311900   5.067   6.195   3.214  1.6556  0.1717 -0.8790
  376ACOH    H411901   5.864   6.205   2.085  0.3243  0.5424 -0.2074
  376ACOH    O211902   5.952   6.186   2.047  0.4796 -0.5444  0.6717
  376ACOH    C211903   6.056   6.251   2.098  0.8847  0.3530  0.0208
  376ACOH    O111904   6.048   6.316   2.200  0.7657 -0.0921 -0.0656
  376ACOH    C111905   6.173   6.226   2.016  0.4003  0.3005  0.1862
  376ACOH    H111906   6.154   6.270   1.918  0.3932  0.6961  0.3625
  376ACOH    H211907   6.188   6.119   2.000  0.2160  0.1174  1.1971
  376ACOH    H311908   6.259   6.272   2.065  0.2099 -1.7722  2.5526
  377ACOH    H411909   6.444   1.651   5.524  1.8852  0.8068 -1.6380
  377ACOH    O211910   6.373   1.650   5.457  0.1940  0.5099  0.1085
  377ACOH    C211911   6.436   1.673   5.342  0.3884  0.0025  0.3564
  377ACOH    O111912   6.558   1.674   5.326 -0.1035  0.2463  0.1328
  377ACOH    C111913   6.346   1.701   5.232  0.3468  0.6657 -0.0031
  377ACOH    H111914   6.359   1.639   5.144 -0.9631 -0.4110  0.5387
  377ACOH    H211915   6.368   1.805   5.207  1.8493  0.4204  0.2674
  377ACOH    H311916   6.248   1.692   5.279  1.1422  0.8474  1.7368
  378ACOH    H411917  -0.086   3.852   3.124  0.2249  1.4862  0.4767
  378ACOH    O211918  -0.021   3.842   3.053 -0.3405  0.5992  0.0775
  378ACOH    C211919   0.051   3.732   3.085 -0.2014 -0.1254  0.9331
  378ACOH    O111920   0.019   3.643   3.160 -0.5248 -0.1549 -0.0637
  378ACOH    C111921   0.186   3.725   3.022  0.5797 -0.1388 -0.8092
  378ACOH    H111922   0.246   3.642   3.060  1.8252  0.1721 -2.0516
  378ACOH    H211923   0.236   3.819   3.046  1.0661 -1.1077  2.1809
  378ACOH    H311924   0.197   3.708   2.915  1.2321  1.9322 -1.0884
  379ACOH    H411925   3.893   6.252   0.213 -2.2619  0.6251  1.2900
  379ACOH    O211926   3.852   6.257   0.124 -0.4324 -0.3844  0.3584
  379ACOH    C211927   3.846   6.392   0.088 -0.4776  0.9110 -0.2042
  379ACOH    O111928   3.850   6.479   0.173 -0.8281 -0.1416 -0.6517
  379ACOH    C111929   3.789   6.401  -0.048  0.4858  0.2786 -0.1645
  379ACOH    H111930   3.682   6.421  -0.038  0.2294 -1.3120  0.3612
  379ACOH    H211931   3.806   6.310  -0.105  3.0748 -0.0511  1.0792
  379ACOH    H311932   3.830   6.483  -0.108  1.0973 -0.6448 -1.0224
  380ACOH    H411933   4.048   5.668   0.109 -0.2703 -1.1686  0.4401
  380ACOH    O211934   3.981   5.702   0.047  0.3976  0.3629  0.5365
  380ACOH    C211935   3.976   5.835   0.072  0.4227  0.4433 -0.3609
  380ACOH    O111936   4.001   5.883   0.180  0.3724  0.0486  0.1202
  380ACOH    C111937   3.922   5.904  -0.050  0.4638  0.5368 -0.3492
  380ACOH    H111938   3.906   6.009  -0.025  4.6067  1.3122 -0.6539
  380ACOH    H211939   3.830   5.856  -0.083 -0.1574  2.5063 -1.5402
  380ACOH    H311940   3.993   5.895  -0.132 -0.0310 -1.8179 -0.5453
  381ACOH    H411941   1.143   9.140   1.866  0.2845 -1.3844 -0.0119
  381ACOH    O211942   1.179   9.162   1.778 -0.3282 -0.1833  0.0205
  381ACOH    C211943   1.256   9.066   1.732 -0.2706  0.2747  0.0722
  381ACOH    O111944   1.247   8.949   1.756 -0.7947 -0.0952 -0.0341
  381ACOH    C111945   1.343   9.123   1.629 -0.1449  0.3382  0.2145
  381ACOH    H111946   1.425   9.175   1.679 -1.9178  0.6894  2.8301
  381ACOH    H211947   1.290   9.200   1.572  0.7975  0.4037 -0.5873
  381ACOH    H311948   1.383   9.044   1.566 -0.3552 -1.4735  2.3137
  382ACOH    H411949   5.567   9.840   1.094  0.6993 -1.3436  0.6158
  382ACOH    O211950   5.658   9.845   1.060  0.3461 -0.2264 -0.2003
  382ACOH    C211951   5.711   9.726   1.083  0.6978  0.3219  0.4327
  382ACOH    O111952   5.650   9.623   1.104  0.4374  0.2133 -0.0882
  382ACOH    C111953   5.857   9.732   1.066  0.1368  0.7866 -0.1871
  382ACOH    H111954   5.910   9.653   1.119 -0.8302 -2.0930 -3.3450
  382ACOH    H211955   5.907   9.824   1.099  1.6207  1.0752 -3.0801
  382ACOH    H311956   5.883   9.724   0.960 -1.1969  1.6747 -0.5966
  383ACOH    H411957   4.446   8.302   0.731  0.1971 -0.6221 -1.6565
  383ACOH    O211958   4.532   8.256   0.727  0.5921 -0.0075 -0.2961
  383ACOH    C211959   4.511   8.132   0.782  0.5475 -0.1484  0.2980
  383ACOH    O111960   4.416   8.089   0.840 -0.1466  0.6985  0.1770
  383ACOH    C111961   4.643   8.057   0.777  0.2061 -0.1979  0.0732
  383ACOH    H111962   4.720   8.125   0.815  0.6872 -1.1595  0.8306
  383ACOH    H211963   4.658   8.015   0.678 -0.3634 -0.0628 -0.0750
  383ACOH    H311964   4.642   7.969   0.841 -0.8825 -1.5000 -1.6896
  384ACOH    H411965   7.248   3.141   4.371 -1.2509  2.2862 -0.8379
  384ACOH    O211966   7.181   3.122   4.438 -0.5040  0.8945 -0.4710
  384ACOH    C211967   7.195   2.996   4.482 -0.1797 -0.1281  0.0399
  384ACOH    O111968   7.271   2.907   4.444  0.5103  0.3339 -0.2793
  384ACOH    C111969   7.102   2.976   4.599  0.1551  0.8067 -0.4231
  384ACOH    H111970   7.147   3.013   4.690 -0.1172  0.3243 -0.0880
  384ACOH    H211971   7.073   2.873   4.617 -0.4564  1.1769  0.8023
  384ACOH    H311972   7.018   3.038   4.567  0.5681 -0.2622 -3.7659
  385ACOH    H411973   5.554   2.111   2.890 -0.6951  1.6766  1.1261
  385ACOH    O211974   5.530   2.058   2.968 -0.3314 -0.3083 -0.0707
  385ACOH    C211975   5.603   1.949   2.964  0.7801 -0.0425 -0.1300
  385ACOH    O111976   5.675   1.912   2.874 -0.1854  0.0288  0.0535
  385ACOH    C111977   5.590   1.861   3.083 -0.0315 -0.0597 -0.0465
  385ACOH    H111978   5.642   1.919   3.159  0.4593  0.1568 -0.5430
  385ACOH    H211979   5.639   1.764   3.076 -0.7106 -0.3700 -0.5649
  385ACOH    H311980   5.488   1.853   3.120  0.2029 -2.3076  0.1871
  386ACOH    H411981   5.518   5.054   1.806 -0.1682 -1.1255 -0.4214
  386ACOH    O211982   5.588   5.116   1.833 -0.6036 -0.7726 -0.0678
  386ACOH    C211983   5.679   5.115   1.731 -0.0771  0.7493 -0.4970
  386ACOH    O111984   5.656   5.049   1.624 -0.1566  0.2583  0.1227
  386ACOH    C111985   5.796   5.205   1.757  0.2313 -0.2212 -0.5228
  386ACOH    H111986   5.786   5.257   1.852  1.9019  0.5472 -0.7712
  386ACOH    H211987   5.807   5.276   1.676  1.8030  0.8095  0.5652
  386ACOH    H311988   5.888   5.148   1.760  1.5087  1.8498  0.7358
  387ACOH    H411989   7.881   8.290   2.201  0.6971  1.2010  0.2164
  387ACOH    O211990   7.808   8.342   2.161  0.0551 -0.0212 -0.2159
  387ACOH    C211991   7.847   8.392   2.046 -0.3846 -0.6759 -0.7392
  387ACOH    O111992   7.952   8.375   1.985 -0.0352  0.1141  0.2483
  387ACOH    C111993   7.743   8.492   2.002 -0.4581  0.3374  0.2198
  387ACOH    H111994   7.683   8.445   1.924  0.1374  0.0241 -0.0586
  387ACOH    H211995   7.793   8.579   1.959  1.6341  0.6341  3.1494
  387ACOH    H311996   7.672   8.525   2.078 -1.8674  1.1575 -1.4051
  388ACOH    H411997   7.554   5.357   5.475  0.0352  1.3811  1.0251
  388ACOH    O211998   7.480   5.310   5.518 -0.3755  0.5145 -0.6058
  388ACOH    C211999   7.514   5.272   5.637 -0.2416 -0.9046  0.2251
  388ACOH    O112000   7.630   5.262   5.670  0.0339  0.5148  0.1817
  388ACOH    C112001   7.406   5.205   5.711  0.0509 -0.0831  0.4048
  388ACOH    H112002   7.388   5.104   5.675  0.4953 -0.0789  0.1670
  388ACOH    H212003   7.319   5.267   5.692  0.5244  0.6934  0.7397
  388ACOH    H312004   7.428   5.207   5.818  4.0936 -2.0479 -0.2902
  389ACOH    H412005   4.701   5.308   0.598  1.5558 -1.0311 -0.1736
  389ACOH    O212006   4.720   5.330   0.691 -0.4063 -0.4508  0.1281
  389ACOH    C212007   4.857   5.335   0.682 -0.7352 -0.4338 -0.2191
  389ACOH    O112008   4.928   5.301   0.588 -0.1439 -0.2403  0.0977
  389ACOH    C112009   4.914   5.408   0.797  0.3487 -0.5160  0.5933
  389ACOH    H112010   4.853   5.409   0.888 -0.4395 -1.7577  0.1062
  389ACOH    H212011   4.932   5.510   0.765 -0.1226 -1.1131 -1.6831
  389ACOH    H312012   5.014   5.369   0.817 -0.1189 -1.7107  0.6567
  390ACOH    H412013   8.860   5.913   2.757 -1.8078 -0.2755 -0.3572
  390ACOH    O212014   8.853   5.836   2.815 -0.4982  0.0363  0.2230
  390ACOH    C212015   8.804   5.878   2.933 -0.3613  0.3873 -0.6531
  390ACOH    O112016   8.779   5.991   2.962  0.2241  0.1068 -0.1522
  390ACOH    C112017   8.792   5.762   3.023  0.1861  0.0167  0.1490
  390ACOH    H112018   8.763   5.786   3.125  1.2341 -0.6980  0.6142
  390ACOH    H212019   8.878   5.696   3.017 -0.0311 -0.1503 -1.3274
  390ACOH    H312020   8.715   5.697   2.980  0.2307  0.4097 -0.5383
  391ACOH    H412021   2.909   0.802   5.269  0.2299 -0.0134 -0.9775
  391ACOH    O212022   2.978   0.742   5.236  0.2545 -0.2602 -0.4969
  391ACOH    C212023   3.090   0.802   5.270 -0.2835  0.6449 -0.0659
  391ACOH    O112024   3.104   0.912   5.315  0.2054 -0.4104 -0.4027
  391ACOH    C112025   3.206   0.716   5.239 -1.1917 -0.5558 -0.1503
  391ACOH    H112026   3.296   0.771   5.268  0.5383 -1.7386 -3.0952
  391ACOH    H212027   3.206   0.703   5.131  1.7650  3.2022 -0.7038
  391ACOH    H312028   3.199   0.626   5.301  2.9683 -0.7142  0.2375
  392ACOH    H412029   8.240   7.416   6.508  0.4637  0.4028 -0.7659
  392ACOH    O212030   8.161   7.468   6.484  0.0022  0.1446  0.1665
  392ACOH    C212031   8.128   7.436   6.361 -0.0134 -0.6414  0.6081
  392ACOH    O112032   8.194   7.378   6.279 -0.2949 -0.1788  0.1126
  392ACOH    C112033   7.997   7.498   6.323 -0.2763  0.4132 -0.4766
  392ACOH    H112034   7.917   7.434   6.359 -0.0322  0.5858  0.3955
  392ACOH    H212035   8.001   7.508   6.215  1.4576 -1.3934 -0.6240
  392ACOH    H312036   7.987   7.596   6.370 -1.8800  0.2869 -0.5478
  393ACOH    H412037   7.123   8.099   2.229 -0.0429 -0.0857 -0.0697
  393ACOH    O212038   7.205   8.143   2.203 -0.2661  0.3894  0.0261
  393ACOH    C212039   7.302   8.089   2.277 -0.3122 -0.4483  0.0908
  393ACOH    O112040   7.292   8.030   2.385 -0.4305 -0.2489 -1.5593
  393ACOH    C112041   7.439   8.124   2.223  0.8054 -0.6429 -0.0870
  393ACOH    H112042   7.431   8.191   2.138 -1.7091  0.7548  1.1980
  393ACOH    H212043   7.492   8.031   2.199 -1.5425 -1.4535 -2.2474
  393ACOH    H312044   7.489   8.166   2.311  0.2064  2.9089 -1.3796
  394ACOH    H412045   4.765   6.801   1.299  0.0804 -2.1748 -0.9165
  394ACOH    O212046   4.792   6.822   1.208 -0.2708  0.6696 -0.4319
  394ACOH    C212047   4.871   6.929   1.230 -0.0640 -0.5723  0.4361
  394ACOH    O112048   4.955   6.944   1.313  0.1105  0.2458  0.8359
  394ACOH    C112049   4.851   7.026   1.116  0.2390 -0.5326 -0.3993
  394ACOH    H112050   4.913   7.115   1.116 -0.9226  0.2923 -1.2351
  394ACOH    H212051   4.745   7.044   1.099  0.1844 -1.1136 -0.6945
  394ACOH    H312052   4.887   6.974   1.028 -1.4460 -1.1640 -0.7404
  395ACOH    H412053   7.246   2.292   1.309 -0.1223  0.6076 -0.2863
  395ACOH    O212054   7.156   2.287   1.347 -0.0691 -0.1792 -0.2597
  395ACOH    C212055   7.078   2.342   1.258 -0.0618  0.2858 -0.1880
  395ACOH    O112056   7.098   2.364   1.139  0.5101  0.0827  0.3476
  395ACOH    C112057   6.935   2.342   1.301 -0.5973 -1.2416  0.1050
  395ACOH    H112058   6.880   2.266   1.247  0.0418 -0.7373 -1.2708
  395ACOH    H212059   6.890   2.440   1.282 -0.1934 -0.8532  1.1088
  395ACOH    H312060   6.928   2.317   1.407  1.3320 -3.6071 -0.2975
  396ACOH    H412061   8.028   5.565   3.932 -1.3278  0.4723  0.2870
  396ACOH    O212062   8.012   5.520   3.847 -0.2074  0.5933  0.0073
  396ACOH    C212063   7.914   5.583   3.782  0.0233 -0.3384 -0.7691
  396ACOH    O112064   7.865   5.693   3.817 -0.4491  0.3734  0.2559
  396ACOH    C112065   7.871   5.500   3.668 -0.5814  0.7181  0.7716
  396ACOH    H112066   7.848   5.402   3.710  0.5143 -0.4442 -1.2699
  396ACOH    H212067   7.956   5.501   3.600 -1.3146  0.5978 -0.1632
  396ACOH    H312068   7.789   5.543   3.611 -0.0348  1.0466  0.2322
  397ACOH    H412069   5.580   4.240   1.555  0.1622 -1.2164 -0.2606
  397ACOH    O212070   5.574   4.201   1.644 -0.6121 -0.2265  0.1120
  397ACOH    C212071   5.531   4.310   1.721 -0.8751  0.4923 -0.0823
  397ACOH    O112072   5.501   4.414   1.675 -0.1279  0.2122 -0.1731
  397ACOH    C112073   5.517   4.269   1.859  0.0511  0.3420  0.4978
  397ACOH    H112074   5.444   4.188   1.852  0.8296 -0.1881 -1.9090
  397ACOH    H212075   5.473   4.342   1.927 -2.9795 -3.2681  2.6031
  397ACOH    H312076   5.613   4.236   1.899  0.0589 -0.5232 -0.2121
  398ACOH    H412077   5.394   8.484   1.483  0.0797 -0.2201  0.6628
  398ACOH    O212078   5.476   8.435   1.464  0.6192  0.9745 -0.1509
  398ACOH    C212079   5.577   8.519   1.488  0.3846 -0.0832  0.4120
  398ACOH    O112080   5.561   8.634   1.518  0.7619  0.3316  0.2913
  398ACOH    C112081   5.706   8.448   1.481  0.2197 -0.5498 -0.5116
  398ACOH    H112082   5.782   8.517   1.515  1.8810 -2.0303 -1.1327
  398ACOH    H212083   5.733   8.414   1.381  0.8596  2.0222 -1.2454
  398ACOH    H312084   5.704   8.367   1.554  0.8127 -1.3359 -1.3509
  399ACOH    H412085   7.189   5.934   5.635 -0.5057  0.4109 -1.1989
  399ACOH    O212086   7.162   5.841   5.626 -0.3274  0.1680  0.5662
  399ACOH    C212087   7.285   5.784   5.641  0.3997  0.0360 -0.0987
  399ACOH    O112088   7.374   5.831   5.711  0.6657 -0.2856 -0.1533
  399ACOH    C112089   7.295   5.668   5.550 -0.1392 -0.0108 -0.3335
  399ACOH    H112090   7.346   5.579   5.587 -2.0424 -1.6638 -1.5992
  399ACOH    H212091   7.352   5.701   5.463  1.3082 -0.1481  0.5463
  399ACOH    H312092   7.194   5.639   5.522 -2.2364  3.9407  2.6010
  400ACOH    H412093   1.253   6.282   4.325 -1.0034 -0.2111  1.7187
  400ACOH    O212094   1.219   6.372   4.339 -0.1997  0.2810  0.6493
  400ACOH    C212095   1.229   6.412   4.469 -0.4889  0.3495  0.1317
  400ACOH    O112096   1.283   6.350   4.559 -0.1842  0.5928  0.6484
  400ACOH    C112097   1.172   6.539   4.494 -0.2480  0.0210 -0.3464
  400ACOH    H112098   1.188   6.576   4.595  0.5890  0.1928 -0.5437
  400ACOH    H212099   1.065   6.541   4.472  0.0968  1.3302 -2.0035
  400ACOH    H312100   1.212   6.608   4.421 -0.8365 -0.4112 -1.0909
  401ACOH    H412101   7.798   6.156   6.077 -0.7909  0.6222 -0.0903
  401ACOH    O212102   7.866   6.186   6.140  0.0271 -0.3924 -0.4807
  401ACOH    C212103   7.872   6.323   6.133 -0.7837 -0.0891  0.4392
  401ACOH    O112104   7.841   6.387   6.031  0.6427 -0.3500  0.6851
  401ACOH    C112105   7.939   6.383   6.252 -0.6776  0.0218  0.4505
  401ACOH    H112106   7.917   6.490   6.249  1.3461  0.4089 -1.7623
  401ACOH    H212107   8.047   6.371   6.250 -0.6156  0.6933 -0.9122
  401ACOH    H312108   7.899   6.335   6.341  0.2477  0.9595  1.3945
  402ACOH    H412109   5.057   5.839   0.735 -1.6420  0.2026  1.2166
  402ACOH    O212110   5.053   5.887   0.651  0.0390 -0.6579  0.6288
  402ACOH    C212111   5.120   5.998   0.675 -0.1655  0.2168  0.2292
  402ACOH    O112112   5.118   6.064   0.779 -0.2039 -0.1834  0.1438
  402ACOH    C112113   5.129   6.069   0.542 -0.4427  0.1179 -0.3041
  402ACOH    H112114   5.169   5.999   0.468  0.7484  0.9342 -0.4508
  402ACOH    H212115   5.208   6.144   0.548 -0.3775  0.0098  0.2200
  402ACOH    H312116   5.031   6.104   0.512 -0.2660 -0.1628 -1.2193
  403ACOH    H412117   6.413   2.539   4.526  1.1878  0.7077 -0.4614
  403ACOH    O212118   6.420   2.578   4.614  0.1431  0.2587 -0.1777
  403ACOH    C212119   6.465   2.698   4.591  0.1569  0.1172 -0.1525
  403ACOH    O112120   6.469   2.752   4.482  0.4033  0.2658 -0.0023
  403ACOH    C112121   6.487   2.783   4.710  0.0866 -0.1997  0.4037
  403ACOH    H112122   6.489   2.714   4.795  1.3344 -0.1458  0.4317
  403ACOH    H212123   6.409   2.857   4.727  1.1715  1.2578 -0.8615
  403ACOH    H312124   6.582   2.836   4.698 -0.2401  0.8436  2.2035
  404ACOH    H412125   4.787   7.766   6.298 -1.5541  1.6153  1.0332
  404ACOH    O212126   4.800   7.722   6.384  0.2866 -0.5051 -0.2729
  404ACOH    C212127   4.784   7.827   6.472  0.3641  0.7657  0.1413
  404ACOH    O112128   4.765   7.943   6.459 -0.4624  0.4798 -0.4008
  404ACOH    C112129   4.805   7.771   6.609  0.0147  0.5776  0.5323
  404ACOH    H112130   4.728   7.801   6.680 -0.3322 -1.6806  1.1727
  404ACOH    H212131   4.901   7.800   6.652  1.4276 -0.4914 -1.7958
  404ACOH    H312132   4.796   7.662   6.605 -2.3626  0.7876 -0.4944
  405ACOH    H412133   7.521   3.585   2.868  2.3358 -2.2603  1.2512
  405ACOH    O212134   7.538   3.655   2.933  0.6474 -0.0647 -0.5789
  405ACOH    C212135   7.653   3.613   2.981 -0.0963 -0.0132  0.2626
  405ACOH    O112136   7.750   3.559   2.921 -0.3125 -0.1718 -0.0041
  405ACOH    C112137   7.679   3.683   3.109 -0.4970  0.5080  0.2462
  405ACOH    H112138   7.753   3.762   3.097 -0.0266  0.3029  1.6780
  405ACOH    H212139   7.714   3.623   3.193  0.2965  0.0306 -0.4257
  405ACOH    H312140   7.593   3.736   3.151 -0.9384  1.2575 -1.5758
  406ACOH    H412141   8.284   6.932   1.167 -0.3617 -1.0258  1.1738
  406ACOH    O212142   8.188   6.945   1.159 -0.1344  0.0057 -0.0127
  406ACOH    C212143   8.144   6.998   1.276  0.2179  0.1107  0.0189
  406ACOH    O112144   8.206   7.025   1.375  0.0248 -0.2405 -0.2666
  406ACOH    C112145   7.992   6.997   1.282 -0.8754 -0.0703  0.4464
  406ACOH    H112146   7.967   6.918   1.352  1.5899  1.1668  2.7911
  406ACOH    H212147   7.943   6.982   1.185 -3.6029  2.0518  1.4091
  406ACOH    H312148   7.951   7.092   1.317 -1.7166 -0.3175  0.1501
  407ACOH    H412149   6.551   2.209   4.271  0.6344 -0.5868 -0.1730
  407ACOH    O212150   6.548   2.258   4.356  0.7302 -0.1876 -0.3975
  407ACOH    C212151   6.676   2.275   4.399 -0.5933  0.3882 -0.1185
  407ACOH    O112152   6.782   2.266   4.337 -0.1985 -0.1055  0.7333
  407ACOH    C112153   6.684   2.325   4.539 -0.6606  0.7359 -0.2190
  407ACOH    H112154   6.784   2.359   4.565  0.0683 -1.6144  0.1556
  407ACOH    H212155   6.646   2.244   4.602  2.7295 -0.5573  0.2327
  407ACOH    H312156   6.618   2.412   4.544 -1.8475 -0.0637 -1.3666
  408ACOH    H412157   7.383   3.089   4.869 -0.9546 -0.4325 -0.1770
  408ACOH    O212158   7.310   3.116   4.927 -0.2334 -0.7053  0.8664
  408ACOH    C212159   7.256   3.229   4.880 -0.0927  0.4628  0.2044
  408ACOH    O112160   7.303   3.297   4.790 -0.1609 -0.2903 -0.3639
  408ACOH    C112161   7.133   3.270   4.953  0.1026  0.1562 -0.1600
  408ACOH    H112162   7.047   3.215   4.916  0.8253 -0.3159 -1.1454
  408ACOH    H212163   7.117   3.378   4.947 -1.7958 -0.1153 -0.3449
  408ACOH    H312164   7.145   3.245   5.059 -1.5020  2.7994  0.6940
  409ACOH    H412165   0.612   4.001   0.628 -0.0649  1.5168 -1.3387
  409ACOH    O212166   0.539   4.045   0.675  0.0336  0.0875  0.2152
  409ACOH    C212167   0.493   4.146   0.598  0.5738 -0.4502 -0.6194
  409ACOH    O112168   0.537   4.181   0.494 -0.0735 -0.4816 -0.3791
  409ACOH    C112169   0.368   4.200   0.646 -0.4134  0.5357 -0.2476
  409ACOH    H112170   0.372   4.221   0.753 -4.5325  0.9287 -0.0972
  409ACOH    H212171   0.303   4.113   0.640  1.4360 -0.8128 -1.5595
  409ACOH    H312172   0.318   4.282   0.596 -1.5386  0.2593  0.4217
  410ACOH    H412173   7.927   5.607   1.995  3.2740  1.9529  0.5212
  410ACOH    O212174   7.945   5.535   2.058  0.2270  0.2045 -0.4763
  410ACOH    C212175   8.003   5.600   2.163  0.3828 -0.2161 -0.1621
  410ACOH    O112176   8.051   5.712   2.158  0.5048 -0.1671  0.1389
  410ACOH    C112177   8.036   5.494   2.259 -0.0322 -0.3227 -0.0661
  410ACOH    H112178   7.946   5.433   2.263 -0.8664  0.9526  1.0783
  410ACOH    H212179   8.054   5.546   2.353 -4.3022  2.3273 -0.5792
  410ACOH    H312180   8.128   5.443   2.229  1.5644 -0.1648  4.3081
  411ACOH    H412181   8.260   4.560   2.538  1.5128 -0.9008  0.6430
  411ACOH    O212182   8.261   4.654   2.564 -0.0410 -0.7418  0.1877
  411ACOH    C212183   8.280   4.652   2.696 -0.0209  0.6870  0.1663
  411ACOH    O112184   8.294   4.562   2.775 -0.4794  0.2940  1.0181
  411ACOH    C112185   8.296   4.792   2.742 -0.5454 -0.4641 -0.8367
  411ACOH    H112186   8.351   4.853   2.670  0.0634 -0.5917 -0.4837
  411ACOH    H212187   8.361   4.806   2.828 -0.6417  0.0762 -0.8525
  411ACOH    H312188   8.198   4.836   2.760 -1.5210 -1.8138 -2.6032
  412ACOH    H412189   4.878   2.792   0.185 -0.7512  1.3396 -0.8056
  412ACOH    O212190   4.939   2.855   0.227  0.1307  0.0778 -0.1427
  412ACOH    C212191   4.949   2.793   0.349 -0.2053  0.6392  0.1836
  412ACOH    O112192   4.920   2.680   0.385 -0.3590  0.0091 -0.2550
  412ACOH    C112193   5.032   2.875   0.445 -0.7128 -0.3864  0.2823
  412ACOH    H112194   4.980   2.884   0.540 -0.1341 -3.5661  0.9314
  412ACOH    H212195   5.064   2.973   0.408 -0.8147 -0.7881 -0.8993
  412ACOH    H312196   5.120   2.819   0.475 -1.7027 -1.0535  1.9674
  413ACOH    H412197   6.706   8.426   3.585 -0.9540  1.0456  0.0018
  413ACOH    O212198   6.675   8.409   3.676  0.4812  0.6908  0.4316
  413ACOH    C212199   6.628   8.279   3.683  0.4187 -0.6184  0.7678
  413ACOH    O112200   6.588   8.222   3.585  0.2880  0.6724  0.0103
  413ACOH    C112201   6.602   8.232   3.817  0.4656 -0.1767  0.1912
  413ACOH    H112202   6.691   8.190   3.864  1.3817  0.4046 -0.9850
  413ACOH    H212203   6.530   8.151   3.809  2.3194 -1.5180 -5.5093
  413ACOH    H312204   6.570   8.313   3.882 -1.0198 -1.3972  1.0223
  414ACOH    H412205   1.913   8.018   3.125 -1.0991  2.6228 -1.2160
  414ACOH    O212206   1.968   7.995   3.048  0.3345  0.0903  0.4670
  414ACOH    C212207   2.058   8.089   3.028 -0.3918  0.3567  0.3981
  414ACOH    O112208   2.083   8.181   3.105 -0.5352 -0.4339 -0.1973
  414ACOH    C112209   2.121   8.086   2.894  0.2453 -0.2886 -0.8050
  414ACOH    H112210   2.065   8.135   2.814  1.9159 -0.2175 -1.9467
  414ACOH    H212211   2.136   7.979   2.880 -1.1526 -1.0856  3.0931
  414ACOH    H312212   2.221   8.126   2.912 -0.9883  2.7505 -0.2595
  415ACOH    H412213   0.576   0.993   4.362  0.7521  0.2136 -0.4581
  415ACOH    O212214   0.653   0.961   4.413  0.4206  0.0944 -0.0278
  415ACOH    C212215   0.752   0.952   4.318  0.3007  0.3038 -0.2426
  415ACOH    O112216   0.754   0.991   4.206 -0.5817  0.3084  0.1910
  415ACOH    C112217   0.877   0.890   4.382 -0.2630 -0.2290 -0.2453
  415ACOH    H112218   0.894   0.790   4.341 -0.0057 -0.8933  1.4156
  415ACOH    H212219   0.870   0.884   4.491 -0.6428  0.8637 -0.2009
  415ACOH    H312220   0.964   0.954   4.370 -0.5747  0.9112  3.0718
  416ACOH    H412221   9.330   9.396   0.842 -0.2063 -0.9581  0.9201
  416ACOH    O212222   9.381   9.456   0.899 -0.3947  0.0631  0.0310
  416ACOH    C212223   9.494   9.472   0.824  0.3049  0.6509 -0.0639
  416ACOH    O112224   9.521   9.394   0.733  0.2304 -0.3070  0.1490
  416ACOH    C112225   9.578   9.576   0.879 -0.1466  0.2747  0.8295
  416ACOH    H112226   9.586   9.558   0.986  0.0330 -0.5921  0.6709
  416ACOH    H212227   9.531   9.674   0.867  1.3826  1.2847  2.8344
  416ACOH    H312228   9.680   9.570   0.842 -0.7428  3.2312 -1.4593
  417ACOH    H412229   6.180   4.255   6.401 -2.2613 -0.4384 -2.0949
  417ACOH    O212230   6.239   4.263   6.325  0.3021  0.1852 -0.1338
  417ACOH    C212231   6.350   4.324   6.366  0.2652  0.3372  0.8712
  417ACOH    O112232   6.368   4.379   6.468  0.7965 -0.0295 -0.4108
  417ACOH    C112233   6.448   4.326   6.257 -0.0014 -0.5113  0.0211
  417ACOH    H112234   6.550   4.334   6.293 -0.1206 -0.9496  0.4589
  417ACOH    H212235   6.426   4.408   6.188 -2.6263  0.5617  2.0763
  417ACOH    H312236   6.438   4.229   6.208 -0.4031 -1.3853  1.8239
  418ACOH    H412237   6.684   8.273   2.786  1.9811 -1.7997  1.3370
  418ACOH    O212238   6.716   8.221   2.710 -0.3147 -0.5682 -0.5246
  418ACOH    C212239   6.850   8.229   2.728  0.0936  0.4857  0.5631
  418ACOH    O112240   6.912   8.300   2.799 -0.3955  0.2942 -0.0936
  418ACOH    C112241   6.919   8.146   2.626 -0.4826  0.5128  0.3031
  418ACOH    H112242   6.883   8.165   2.525 -0.8017  0.2165  0.3629
  418ACOH    H212243   6.891   8.044   2.650 -0.1264  0.6273  1.2563
  418ACOH    H312244   7.028   8.158   2.628 -0.1446 -2.2758 -0.2146
  419ACOH    H412245   4.156   0.171   6.559 -0.4213 -0.1951 -0.0851
  419ACOH    O212246   4.112   0.247   6.602 -0.0468  0.1207 -0.2516
  419ACOH    C212247   4.011   0.283   6.524  0.7141  0.0692 -0.2644
  419ACOH    O112248   3.979   0.243   6.413  0.5430 -0.1226  0.0110
  419ACOH    C112249   3.931   0.381   6.595  0.1383 -0.3309 -0.1453
  419ACOH    H112250   3.947   0.481   6.556 -0.8557 -0.3549 -0.6330
  419ACOH    H212251   3.960   0.386   6.700  0.2062 -0.8492 -0.1374
  419ACOH    H312252   3.825   0.363   6.575  0.2618 -0.7222 -0.4517
  420ACOH    H412253   0.375   0.045   4.573 -1.1606 -0.7302 -1.1246
  420ACOH    O212254   0.328   0.125   4.545 -0.1965  0.1052 -0.3915
  420ACOH    C212255   0.345   0.198   4.655 -0.0486 -0.1438 -0.3798
  420ACOH    O112256   0.454   0.196   4.714  0.0337  0.4098 -0.6683
  420ACOH    C112257   0.237   0.303   4.664 -0.2236 -0.0331  0.3038
  420ACOH    H112258   0.139   0.267   4.633 -0.9718  1.7334  0.5449
  420ACOH    H212259   0.270   0.377   4.590  1.3715 -0.8757  0.1436
  420ACOH    H312260   0.222   0.356   4.758  0.0430  1.5063 -0.4958
  421ACOH    H412261   4.856   0.074   4.751  0.5933 -0.0667 -0.2830
  421ACOH    O212262   4.945   0.091   4.785  0.4359  0.2919 -0.0438
  421ACOH    C212263   5.035   0.089   4.685  0.3893 -0.0021  0.4512
  421ACOH    O112264   5.006   0.092   4.568  0.7549  0.1446  0.8802
  421ACOH    C112265   5.167   0.066   4.744 -0.8817  0.3730  0.8686
  421ACOH    H112266   5.167   0.141   4.823  0.0038  1.2679  0.0344
  421ACOH    H212267   5.251   0.076   4.675  1.4442 -0.8805  3.3972
  421ACOH    H312268   5.177  -0.032   4.791 -0.1644 -0.4125 -0.8786
  422ACOH    H412269   3.596   6.781   6.264 -2.0135 -1.2124  0.7952
  422ACOH    O212270   3.649   6.715   6.214 -0.5901 -0.2112  0.9511
  422ACOH    C212271   3.691   6.615   6.292 -0.7106 -0.2071  0.2531
  422ACOH    O112272   3.657   6.600   6.407 -0.0947  0.3423 -0.1424
  422ACOH    C112273   3.770   6.506   6.220  0.1011 -0.6192 -0.3147
  422ACOH    H112274   3.730   6.488   6.121  0.0611 -1.7232 -0.1052
  422ACOH    H212275   3.773   6.415   6.281 -0.5932  0.0544  0.7389
  422ACOH    H312276   3.875   6.535   6.213 -0.2675  0.9104  0.4382
  423ACOH    H412277   6.332   2.639   3.112  0.5163  1.9968 -1.8351
  423ACOH    O212278   6.262   2.593   3.064  0.4482  0.1060 -0.0023
  423ACOH    C212279   6.299   2.465   3.056 -0.6240  0.1150 -0.3949
  423ACOH    O112280   6.402   2.424   3.110  0.0426 -0.5521 -0.5309
  423ACOH    C112281   6.183   2.382   3.022 -0.1369  0.1624  0.4716
  423ACOH    H112282   6.106   2.449   2.986 -0.1179  0.1116  0.3377
  423ACOH    H212283   6.149   2.336   3.115 -1.6992  1.5613  0.6132
  423ACOH    H312284   6.206   2.297   2.958  2.3055 -0.6132  2.2748
  424ACOH    H412285   8.073   6.634   1.649  1.3337  0.2831  0.8895
  424ACOH    O212286   8.049   6.717   1.693 -0.4569  0.4131 -0.2511
  424ACOH    C212287   8.047   6.693   1.829 -0.3933 -0.4017  0.5208
  424ACOH    O112288   8.072   6.589   1.883 -0.1457  0.0233 -0.2024
  424ACOH    C112289   7.985   6.807   1.899 -0.0423  0.8901  0.5613
  424ACOH    H112290   7.901   6.836   1.835  1.9959 -0.1765 -2.7355
  424ACOH    H212291   8.061   6.884   1.900  0.8835 -0.0198  1.8163
  424ACOH    H312292   7.952   6.781   2.000  0.9150  0.4166  0.7552
  425ACOH    H412293   7.816   5.861   3.793 -2.4665  0.0351  0.5153
  425ACOH    O212294   7.799   5.947   3.750  0.1984  0.0612 -0.6204
  425ACOH    C212295   7.759   6.036   3.845 -0.1297  1.0410  0.7637
  425ACOH    O112296   7.797   6.021   3.957  0.0137 -0.2827 -0.1049
  425ACOH    C112297   7.711   6.164   3.796 -0.2484  0.2684  0.6086
  425ACOH    H112298   7.708   6.174   3.687  1.7195 -2.1054  0.3027
  425ACOH    H212299   7.769   6.246   3.838  0.1828  1.5818 -2.4490
  425ACOH    H312300   7.613   6.163   3.843 -1.2354 -0.6837 -1.3816
  426ACOH    H412301   3.683   7.410   1.609 -1.2252 -1.9310 -3.2188
  426ACOH    O212302   3.741   7.468   1.559  0.2165 -0.0282  0.4819
  426ACOH    C212303   3.865   7.418   1.568  0.4374  0.2200  0.2804
  426ACOH    O112304   3.894   7.303   1.600  0.1504  0.6423 -0.0878
  426ACOH    C112305   3.967   7.506   1.514  0.3096  0.4048 -0.1827
  426ACOH    H112306   4.061   7.463   1.546  1.2042  1.4726 -1.3217
  426ACOH    H212307   3.959   7.609   1.550 -0.6160  1.3289 -2.9635
  426ACOH    H312308   3.963   7.494   1.406  0.8884  1.8006 -0.3730
  427ACOH    H412309   7.033   5.154   0.499 -1.8383 -0.6372  0.6918
  427ACOH    O212310   6.986   5.199   0.427 -0.2906  0.2027  0.1784
  427ACOH    C212311   6.860   5.198   0.452 -0.3546 -0.5132  0.4943
  427ACOH    O112312   6.806   5.152   0.549  0.3340 -0.0559 -0.0902
  427ACOH    C112313   6.790   5.267   0.336  0.4307 -0.1059  0.4085
  427ACOH    H112314   6.802   5.219   0.239 -0.7477  1.9074 -0.7938
  427ACOH    H212315   6.826   5.370   0.334 -1.4706  0.5695 -0.3043
  427ACOH    H312316   6.686   5.267   0.369  0.3086  0.5071  0.0435
  428ACOH    H412317   7.862   6.041   0.338 -1.3898 -0.0325  0.1324
  428ACOH    O212318   7.887   6.129   0.370  0.1761 -0.4398  0.0751
  428ACOH    C212319   7.889   6.209   0.265 -0.1671 -0.2087  0.2980
  428ACOH    O112320   7.863   6.175   0.147  0.2368 -0.2388  0.4249
  428ACOH    C112321   7.935   6.343   0.306  0.6676 -0.4221 -0.2341
  428ACOH    H112322   7.900   6.390   0.398 -0.8826  0.5407 -1.3188
  428ACOH    H212323   7.913   6.413   0.226 -0.6427  0.4193  0.8403
  428ACOH    H312324   8.044   6.334   0.313  1.0005  0.7230 -3.2155
  429ACOH    H412325   5.598   2.148   5.073 -1.4750  1.3697  1.2522
  429ACOH    O212326   5.657   2.166   5.148  0.0546  0.7650  0.1977
  429ACOH    C212327   5.660   2.298   5.160 -0.0554 -0.1848  0.2462
  429ACOH    O112328   5.610   2.384   5.088  0.0460 -0.1242 -0.9413
  429ACOH    C112329   5.740   2.336   5.277 -0.0583 -0.4389 -0.2171
  429ACOH    H112330   5.826   2.271   5.290  0.0027 -0.2825  0.1784
  429ACOH    H212331   5.680   2.329   5.368 -0.4469  0.1130 -0.4289
  429ACOH    H312332   5.789   2.433   5.267  2.0233 -1.3295  1.0708
  430ACOH    H412333   5.368   1.862   5.522 -1.9434  0.8338 -0.9052
  430ACOH    O212334   5.410   1.933   5.472  0.4390 -0.0506 -0.2333
  430ACOH    C212335   5.348   2.047   5.486 -0.8117 -0.6302  0.2138
  430ACOH    O112336   5.250   2.060   5.558  0.0764  0.4220 -0.5350
  430ACOH    C112337   5.420   2.157   5.411 -0.5100 -0.1752 -0.7110
  430ACOH    H112338   5.384   2.169   5.308  1.3451 -2.5012 -1.6797
  430ACOH    H212339   5.523   2.122   5.408  0.4268  2.5803 -2.9971
  430ACOH    H312340   5.411   2.250   5.467  2.3356 -0.7331  0.7386
  431ACOH    H412341   5.293   7.279   1.794 -0.2545 -0.0522  1.8198
  431ACOH    O212342   5.299   7.374   1.775  0.1573 -0.5155 -0.5586
  431ACOH    C212343   5.221   7.405   1.668 -0.0307 -0.0013 -0.1799
  431ACOH    O112344   5.115   7.357   1.635 -0.2296 -0.1277 -0.2571
  431ACOH    C112345   5.250   7.546   1.638 -0.0047 -0.3137  0.2522
  431ACOH    H112346   5.226   7.611   1.723  0.2632  0.6715 -0.4215
  431ACOH    H212347   5.173   7.574   1.567  0.4134 -1.6176 -0.7336
  431ACOH    H312348   5.349   7.570   1.598  0.2724  0.5070  1.4121
  432ACOH    H412349   8.762   2.313   0.969  0.4969  2.1483  0.3736
  432ACOH    O212350   8.753   2.340   0.876  0.1134  0.3382 -0.1394
  432ACOH    C212351   8.876   2.329   0.828  0.3236 -0.8781  0.5192
  432ACOH    O112352   8.966   2.263   0.866 -0.8996 -0.0156 -0.2680
  432ACOH    C112353   8.891   2.397   0.690  0.1520 -0.1262  0.0259
  432ACOH    H112354   8.805   2.374   0.627  0.4727 -0.5146 -0.2735
  432ACOH    H212355   8.983   2.370   0.638  0.2378  0.7171 -0.2702
  432ACOH    H312356   8.887   2.505   0.702 -0.3807 -0.0826 -0.5573
  433ACOH    H412357   5.355   1.272   5.991 -0.6809 -0.0576 -0.8155
  433ACOH    O212358   5.309   1.357   6.001  0.0942  0.2727 -0.0067
  433ACOH    C212359   5.225   1.372   6.113 -0.6361  0.3405 -0.6611
  433ACOH    O112360   5.178   1.284   6.181 -0.6025 -0.2541 -0.0908
  433ACOH    C112361   5.204   1.519   6.136 -0.7456 -0.3599 -0.5698
  433ACOH    H112362   5.298   1.574   6.128  0.1236 -1.6460  0.5505
  433ACOH    H212363   5.168   1.528   6.239  3.3761 -2.3376  1.1490
  433ACOH    H312364   5.130   1.552   6.063 -1.6004  0.1164  0.4873
  434ACOH    H412365   5.995   5.508   1.596  0.3408 -0.1526 -0.0876
  434ACOH    O212366   5.979   5.601   1.570  0.4085 -0.1356 -0.0691
  434ACOH    C212367   5.864   5.633   1.640  0.3315 -0.3531 -0.1102
  434ACOH    O112368   5.795   5.545   1.692  0.0713 -0.1419 -0.2297
  434ACOH    C112369   5.814   5.772   1.618 -0.1415  0.7927 -0.6528
  434ACOH    H112370   5.889   5.843   1.651  0.9644  0.2512 -1.9891
  434ACOH    H212371   5.719   5.788   1.670  0.3534 -0.3811  0.6496
  434ACOH    H312372   5.790   5.795   1.514  0.2415  0.6764 -0.7672
  435ACOH    H412373   5.788   0.614   0.579  1.0572  1.4043 -2.3803
  435ACOH    O212374   5.703   0.654   0.553  0.0894  0.5081 -0.6562
  435ACOH    C212375   5.712   0.785   0.543 -0.3265 -0.7755 -0.0235
  435ACOH    O112376   5.811   0.852   0.558  0.0163  0.2473 -0.1969
  435ACOH    C112377   5.586   0.844   0.483 -0.1658 -0.0977 -0.5030
  435ACOH    H112378   5.609   0.951   0.474  2.1125 -0.1691  3.2832
  435ACOH    H212379   5.493   0.834   0.539 -1.9553  0.1050 -3.3670
  435ACOH    H312380   5.582   0.793   0.388 -0.4235 -0.1452 -0.4673
  436ACOH    H412381   6.797   1.910   4.887 -0.6947  1.5889  0.3160
  436ACOH    O212382   6.743   1.892   4.965 -0.4592  0.2727  0.1879
  436ACOH    C212383   6.763   2.004   5.038 -0.2604 -0.5307  0.6789
  436ACOH    O112384   6.827   2.102   5.002  0.4069 -0.1024 -0.1752
  436ACOH    C112385   6.702   1.982   5.174 -0.0634  0.0386  0.8826
  436ACOH    H112386   6.779   1.964   5.249  0.3534 -1.4525  0.1087
  436ACOH    H212387   6.629   1.902   5.175  1.2919 -1.2285 -0.1855
  436ACOH    H312388   6.644   2.072   5.195 -2.7746 -1.1206 -1.2899
  437ACOH    H412389   8.227   8.047   6.009  0.3856 -0.2541 -0.5589
  437ACOH    O212390   8.281   8.124   6.032 -0.1491 -0.0209 -0.0663
  437ACOH    C212391   8.203   8.235   6.037  0.9126 -0.2099  0.1511
  437ACOH    O112392   8.098   8.254   5.980  0.8713  0.2415  0.5269
  437ACOH    C112393   8.288   8.345   6.085 -0.2998 -0.3356 -0.3035
  437ACOH    H112394   8.332   8.398   6.000 -0.2504 -0.9983 -0.6948
  437ACOH    H212395   8.371   8.301   6.139  0.0247  0.8864  0.2261
  437ACOH    H312396   8.229   8.408   6.152 -0.0582 -0.2189 -0.1999
  438ACOH    H412397   7.137   5.351   6.529  0.5592 -1.4952 -0.4706
  438ACOH    O212398   7.125   5.398   6.445  0.1845 -0.2730  0.2442
  438ACOH    C212399   7.089   5.522   6.484  0.9140 -0.7963 -0.7202
  438ACOH    O112400   7.073   5.578   6.592  0.2024 -0.7269  0.2541
  438ACOH    C112401   7.099   5.598   6.358 -0.4464 -0.2806 -0.5061
  438ACOH    H112402   7.104   5.705   6.377  0.0768 -0.0914 -1.6574
  438ACOH    H212403   7.005   5.578   6.308 -0.7023  0.2478 -0.2344
  438ACOH    H312404   7.180   5.566   6.291  0.1640 -0.1447  0.1597
  439ACOH    H412405   4.593   5.407   6.080 -0.3034 -0.0407 -1.0217
  439ACOH    O212406   4.579   5.503   6.088  0.2464 -0.0484  0.2066
  439ACOH    C212407   4.515   5.523   6.208 -0.7472  0.2397  0.5352
  439ACOH    O112408   4.544   5.476   6.317  0.0088 -0.4816  0.0070
  439ACOH    C112409   4.424   5.633   6.194  0.8209 -0.2115 -0.4771
  439ACOH    H112410   4.354   5.637   6.278 -0.1436 -0.9234 -1.2367
  439ACOH    H212411   4.367   5.627   6.101 -1.1920 -3.0742  0.8747
  439ACOH    H312412   4.479   5.727   6.195  1.9580 -0.8629 -1.0438
  440ACOH    H412413   5.631   8.004   1.865 -0.2984  1.4465 -0.7582
  440ACOH    O212414   5.727   7.999   1.881 -0.3726 -0.0699 -0.7423
  440ACOH    C212415   5.752   7.865   1.890 -0.2579 -0.5184  0.4431
  440ACOH    O112416   5.674   7.769   1.877  0.4193 -0.4860  0.0573
  440ACOH    C112417   5.900   7.852   1.909 -0.2512  0.4127 -0.5462
  440ACOH    H112418   5.919   7.905   2.002 -1.9710  0.4820 -0.2218
  440ACOH    H212419   5.943   7.903   1.823  0.4418  0.2467 -0.3013
  440ACOH    H312420   5.930   7.748   1.920 -1.0664  0.0932 -1.2979
  441ACOH    H412421   3.079   8.327   1.089  0.0430  0.1091 -1.3010
  441ACOH    O212422   3.030   8.268   1.030 -0.0271 -0.1633 -0.9735
  441ACOH    C212423   3.058   8.317   0.906  1.1706 -0.1961  0.3333
  441ACOH    O112424   3.157   8.381   0.867 -0.1110  0.6940  0.8222
  441ACOH    C112425   2.957   8.254   0.815  0.4934  0.2789  0.4729
  441ACOH    H112426   2.984   8.152   0.785 -0.4572  0.4882 -1.1437
  441ACOH    H212427   2.963   8.306   0.719  0.3875 -2.6654 -1.1852
  441ACOH    H312428   2.854   8.256   0.851 -0.4221  0.8139 -2.0931
  442ACOH    H412429   9.795   8.738   2.045 -0.3359 -1.2349  1.2348
  442ACOH    O212430   9.866   8.701   1.989  0.4731  0.7262  0.9429
  442ACOH    C212431   9.918   8.608   2.067 -0.2775  0.7790 -0.9174
  442ACOH    O112432   9.921   8.601   2.187 -0.2178  0.1111 -0.5592
  442ACOH    C112433  10.014   8.520   1.997  0.0895  0.2769  0.1267
  442ACOH    H112434  10.119   8.536   2.020 -0.6408  2.8218  1.9164
  442ACOH    H212435   9.999   8.528   1.889  0.3722 -1.0730 -0.0320
  442ACOH    H312436   9.980   8.419   2.023 -1.0737  0.7055  0.2889
  443ACOH    H412437   4.094   4.202   1.095 -0.5171 -0.3953  1.1330
  443ACOH    O212438   4.074   4.267   1.165  0.0892  0.7394  0.2853
  443ACOH    C212439   4.033   4.184   1.269  0.1572  0.0070 -0.3927
  443ACOH    O112440   4.052   4.065   1.283  0.7337 -0.3803 -0.1160
  443ACOH    C112441   3.965   4.264   1.373  0.1164 -0.3745  0.4038
  443ACOH    H112442   3.897   4.333   1.323 -0.6728 -1.5565 -0.1761
  443ACOH    H212443   4.041   4.309   1.437 -0.1461  0.3496  0.2060
  443ACOH    H312444   3.919   4.197   1.446 -1.3383  1.4982  1.2347
  444ACOH    H412445   7.795   6.841   3.587 -0.3156  0.6770  0.3057
  444ACOH    O212446   7.703   6.814   3.572 -0.0103 -0.1107 -0.1644
  444ACOH    C212447   7.637   6.913   3.631  0.0366 -0.5263 -0.5586
  444ACOH    O112448   7.683   7.003   3.700 -0.2142 -0.0195  0.1089
  444ACOH    C112449   7.489   6.888   3.616 -0.1788 -0.6709 -0.4351
  444ACOH    H112450   7.429   6.970   3.655 -1.3969 -1.4187 -0.7014
  444ACOH    H212451   7.466   6.796   3.670  0.4724 -1.4830 -1.5119
  444ACOH    H312452   7.461   6.883   3.511 -1.1457  1.5012 -0.3027
  445ACOH    H412453   2.284   7.133   4.210 -1.6545 -0.8889  0.2865
  445ACOH    O212454   2.281   7.109   4.304  0.2700 -0.5823  0.4513
  445ACOH    C212455   2.350   7.202   4.369 -0.2799 -0.5176  0.4381
  445ACOH    O112456   2.390   7.305   4.327  0.0509  0.1570  0.4262
  445ACOH    C112457   2.356   7.164   4.507  0.7648  0.8108  0.2618
  445ACOH    H112458   2.261   7.168   4.559  0.5356 -0.7531 -0.0023
  445ACOH    H212459   2.429   7.225   4.560  2.9966 -1.7633  0.2849
  445ACOH    H312460   2.399   7.066   4.530  2.5063  1.5952  0.4395
  446ACOH    H412461   5.448   1.854   0.884  0.9998 -1.0067  0.3869
  446ACOH    O212462   5.483   1.890   0.801 -0.0832 -0.2148  0.2596
  446ACOH    C212463   5.368   1.934   0.742 -0.2859  0.5684  0.0464
  446ACOH    O112464   5.266   1.959   0.804  0.1487  0.2084  0.0504
  446ACOH    C112465   5.395   1.974   0.605 -0.1915  0.3502 -0.2392
  446ACOH    H112466   5.403   1.892   0.534  0.5369  1.3162 -1.2946
  446ACOH    H212467   5.488   2.029   0.587  0.3217 -0.7363 -0.9760
  446ACOH    H312468   5.316   2.038   0.568  0.8613  0.5136 -2.2820
  447ACOH    H412469   8.911   4.578   2.528  2.7601 -1.6052  3.9191
  447ACOH    O212470   8.989   4.592   2.472  0.0437  0.1606  0.3306
  447ACOH    C212471   9.010   4.723   2.481  0.2436 -0.3959  0.4158
  447ACOH    O112472   8.980   4.801   2.567  0.2780 -0.3444  0.9939
  447ACOH    C112473   9.108   4.766   2.378 -0.5343  0.3127  0.0102
  447ACOH    H112474   9.104   4.699   2.292 -0.2665  1.2186 -0.7185
  447ACOH    H212475   9.205   4.776   2.428 -0.0105 -2.5117 -0.3493
  447ACOH    H312476   9.087   4.866   2.341  0.0473 -0.3178 -2.0866
  448ACOH    H412477   6.206   7.255   2.592  1.0576 -3.4262  1.6530
  448ACOH    O212478   6.157   7.206   2.524  0.2837 -0.6265  0.1048
  448ACOH    C212479   6.233   7.196   2.412 -0.5887  0.2899  0.0755
  448ACOH    O112480   6.340   7.256   2.385  0.1578 -0.6231 -0.1106
  448ACOH    C112481   6.156   7.122   2.308 -0.6336 -0.8730 -0.5268
  448ACOH    H112482   6.069   7.184   2.283  2.3942  4.1577  0.6659
  448ACOH    H212483   6.127   7.029   2.357  1.2778 -1.7383 -0.9980
  448ACOH    H312484   6.208   7.092   2.217  0.8978 -1.1040  0.4062
  449ACOH    H412485   8.014   3.389   2.093  0.1794  1.1457 -0.0980
  449ACOH    O212486   7.994   3.353   2.005  0.0990 -0.1985  0.4578
  449ACOH    C212487   7.865   3.331   1.993  0.0958 -0.2483 -0.3311
  449ACOH    O112488   7.795   3.294   2.085 -0.1762 -0.6117 -0.4672
  449ACOH    C112489   7.824   3.312   1.847 -0.4499 -0.2480  0.1730
  449ACOH    H112490   7.721   3.278   1.845 -1.0975  1.6939 -2.3751
  449ACOH    H212491   7.884   3.227   1.815  1.6676  0.7823  1.3119
  449ACOH    H312492   7.836   3.399   1.782 -1.6056 -0.3822 -0.2319
  450ACOH    H412493   9.560   5.146   4.057  1.1597  0.9192 -0.4778
  450ACOH    O212494   9.639   5.103   4.094 -0.0367 -0.3629  0.6219
  450ACOH    C212495   9.707   5.206   4.157  0.8739  0.6229  0.3499
  450ACOH    O112496   9.674   5.324   4.164  0.4621  0.7723  1.3088
  450ACOH    C112497   9.823   5.149   4.231  0.0094 -0.2232  0.2831
  450ACOH    H112498   9.862   5.225   4.299  0.4156 -0.5738  0.4430
  450ACOH    H212499   9.888   5.122   4.148  0.5439 -1.6924  1.1633
  450ACOH    H312500   9.799   5.062   4.293 -0.9929  0.0932  0.3541
  451ACOH    H412501   2.845   1.990   1.727  0.1435  0.5898  1.8529
  451ACOH    O212502   2.806   2.076   1.702  0.0630  0.0953  0.2407
  451ACOH    C212503   2.901   2.171   1.706 -0.4286 -0.5145 -0.2988
  451ACOH    O112504   3.020   2.142   1.687  0.5558 -0.1817 -0.3470
  451ACOH    C112505   2.847   2.302   1.661 -0.1857 -1.0222 -0.1991
  451ACOH    H112506   2.812   2.365   1.743 -0.6075 -1.2509 -0.2050
  451ACOH    H212507   2.771   2.287   1.585 -1.6818  1.3234  0.7490
  451ACOH    H312508   2.927   2.359   1.612 -0.0506 -0.5702  0.5340
  452ACOH    H412509   5.393   5.975   1.422 -0.4773 -0.6410  2.1064
  452ACOH    O212510   5.354   5.901   1.372  0.1610 -0.0379  0.7009
  452ACOH    C212511   5.409   5.892   1.246 -0.0106  0.4260 -0.1569
  452ACOH    O112512   5.515   5.936   1.199  0.3414  0.0808 -0.1757
  452ACOH    C112513   5.328   5.795   1.166 -0.5024  0.1151  0.3928
  452ACOH    H112514   5.304   5.831   1.066  0.9333 -2.0469 -0.7731
  452ACOH    H212515   5.235   5.776   1.219 -0.1729  1.7152  1.5898
  452ACOH    H312516   5.385   5.702   1.169  0.3308  0.6062 -0.1078
  453ACOH    H412517   3.673   6.901   5.603 -1.9227  0.7084 -0.3496
  453ACOH    O212518   3.707   6.985   5.567 -0.3476  0.1429 -0.2514
  453ACOH    C212519   3.702   6.966   5.433 -0.1174  0.2972  0.1245
  453ACOH    O112520   3.671   6.864   5.376 -0.6323 -0.1943 -0.1113
  453ACOH    C112521   3.730   7.102   5.367 -0.6734  0.5977  0.1875
  453ACOH    H112522   3.832   7.134   5.385  0.5851 -2.2018 -1.7184
  453ACOH    H212523   3.666   7.186   5.395 -0.7242  0.3675  0.7725
  453ACOH    H312524   3.724   7.091   5.259  0.3398 -1.2636  0.3204
  454ACOH    H412525   7.266   1.506   6.781  0.3049 -1.0881  1.4565
  454ACOH    O212526   7.324   1.475   6.709 -0.6045 -0.0529  0.2288
  454ACOH    C212527   7.415   1.577   6.686  0.3468 -0.5250 -0.1015
  454ACOH    O112528   7.400   1.694   6.709  0.3237 -0.0651  0.5279
  454ACOH    C112529   7.528   1.530   6.606 -0.5469 -0.0545 -1.3926
  454ACOH    H112530   7.570   1.445   6.661 -0.5831 -0.2794 -1.7157
  454ACOH    H212531   7.602   1.607   6.585 -1.9717  2.2747  1.7612
  454ACOH    H312532   7.490   1.500   6.509 -2.2625  0.2500 -0.8319
  455ACOH    H412533   3.731   2.245   1.914  1.7255  2.0531 -0.5014
  455ACOH    O212534   3.677   2.255   1.834  0.2942 -0.1235  0.1414
  455ACOH    C212535   3.769   2.246   1.733  0.0614  0.1511  0.2176
  455ACOH    O112536   3.889   2.260   1.746 -1.0706 -0.2308  0.3087
  455ACOH    C112537   3.700   2.234   1.601 -0.2864 -0.8349 -0.1388
  455ACOH    H112538   3.606   2.287   1.608  0.7655  0.8626  1.4842
  455ACOH    H212539   3.680   2.128   1.582  2.0979 -1.7106  1.8904
  455ACOH    H312540   3.766   2.269   1.522 -0.0041 -1.5496 -0.2267
  456ACOH    H412541   3.801   5.863   1.693 -0.6410  0.2196  1.0944
  456ACOH    O212542   3.711   5.860   1.657 -0.0311 -0.3079 -0.4452
  456ACOH    C212543   3.639   5.941   1.733  0.3561  0.1041  0.4916
  456ACOH    O112544   3.667   5.973   1.847  0.5833 -0.1278  0.5829
  456ACOH    C112545   3.508   5.981   1.670 -0.1074 -0.0123 -0.2104
  456ACOH    H112546   3.440   6.031   1.739 -2.2393 -1.8321 -0.9455
  456ACOH    H212547   3.455   5.899   1.621  1.2589 -1.9286  1.4136
  456ACOH    H312548   3.542   6.044   1.588  1.2632 -2.6909 -1.7615
  457ACOH    H412549   6.220   3.818   6.746 -0.4884 -0.4438 -0.4333
  457ACOH    O212550   6.279   3.849   6.676 -0.4446  0.2922 -0.0760
  457ACOH    C212551   6.335   3.967   6.710  0.4653  0.2946 -0.0368
  457ACOH    O112552   6.303   4.046   6.793 -0.2873 -0.6125  0.5286
  457ACOH    C112553   6.416   4.005   6.591 -0.7588  0.6208 -0.4182
  457ACOH    H112554   6.438   4.111   6.597  1.1214  0.2887 -1.0040
  457ACOH    H212555   6.359   3.990   6.499 -0.4927  0.7921 -0.6079
  457ACOH    H312556   6.504   3.942   6.601 -1.4999 -0.4155 -0.3038
  458ACOH    H412557   1.070   9.692   5.125  0.4784  0.1720  0.5942
  458ACOH    O212558   1.159   9.658   5.104 -0.0826 -0.5661 -0.6283
  458ACOH    C212559   1.133   9.571   5.007  0.2711 -0.0699 -0.2481
  458ACOH    O112560   1.035   9.562   4.943  0.0338  0.1587  0.3907
  458ACOH    C112561   1.253   9.489   4.980  0.5109 -0.0337  0.3512
  458ACOH    H112562   1.223   9.386   4.959  0.2193 -0.3164  2.1216
  458ACOH    H212563   1.322   9.484   5.065  0.0245 -2.0633  0.6550
  458ACOH    H312564   1.303   9.533   4.893 -0.6980  1.3343  0.3433
  459ACOH    H412565   4.572   6.349   3.464 -0.7160  0.5218  0.2160
  459ACOH    O212566   4.607   6.431   3.503 -0.0231  0.3717 -0.0916
  459ACOH    C212567   4.509   6.468   3.589  0.1774 -0.1728 -0.0295
  459ACOH    O112568   4.408   6.409   3.629 -0.2584  0.3734 -0.4728
  459ACOH    C112569   4.551   6.595   3.647 -0.0038 -0.8801 -0.0845
  459ACOH    H112570   4.525   6.596   3.753 -2.9645  2.0064 -0.7744
  459ACOH    H212571   4.499   6.671   3.588  0.5748  0.5541  1.1967
  459ACOH    H312572   4.659   6.611   3.638 -0.0160 -0.8210 -0.1313
  460ACOH    H412573   7.090   6.645   4.507  1.4276 -1.9421 -2.9016
  460ACOH    O212574   6.996   6.632   4.487  0.3913  0.3972  0.1020
  460ACOH    C212575   7.007   6.519   4.412  0.1302  0.0165  0.1521
  460ACOH    O112576   7.107   6.469   4.354  0.0245 -0.4572  0.4104
  460ACOH    C112577   6.868   6.473   4.386  0.0929 -0.7568  0.4924
  460ACOH    H112578   6.820   6.558   4.338  1.2773 -2.3764 -3.8034
  460ACOH    H212579   6.820   6.456   4.483 -0.9368  1.6378  0.4333
  460ACOH    H312580   6.856   6.384   4.325  1.8043 -0.6331 -0.0619
  461ACOH    H412581   6.271   8.369   3.895 -1.7354  0.4044  1.4506
  461ACOH    O212582   6.200   8.302   3.901 -0.9599 -0.6168 -0.3828
  461ACOH    C212583   6.176   8.271   4.028 -0.4659  0.0778  0.6046
  461ACOH    O112584   6.250   8.288   4.120  0.5206 -0.0706 -0.3406
  461ACOH    C112585   6.054   8.182   4.042  0.4597 -0.5307 -1.1635
  461ACOH    H112586   6.008   8.183   4.141 -0.2247  0.2337 -1.4865
  461ACOH    H212587   6.078   8.079   4.017  0.9955 -1.6609  3.4957
  461ACOH    H312588   5.981   8.214   3.967  0.5975  0.9425 -0.6776
  462ACOH    H412589   5.115   3.541   2.741  2.0925  0.1129  0.8801
  462ACOH    O212590   5.103   3.629   2.701  0.3789 -0.7188 -0.4831
  462ACOH    C212591   5.218   3.697   2.723  0.3643 -0.1241  0.8478
  462ACOH    O112592   5.317   3.660   2.789 -0.0031  0.1452 -0.1610
  462ACOH    C112593   5.221   3.816   2.640 -0.0263  0.1732  0.2988
  462ACOH    H112594   5.287   3.796   2.555 -0.7878 -0.9519 -0.0349
  462ACOH    H212595   5.257   3.896   2.704 -0.2700  0.6939 -0.2085
  462ACOH    H312596   5.126   3.844   2.594  0.1846  0.3625 -0.0315
  463ACOH    H412597   7.338   5.695   6.029  1.0131 -2.9245  2.0414
  463ACOH    O212598   7.244   5.669   6.034  0.0910 -0.2603  0.1358
  463ACOH    C212599   7.214   5.588   5.933  0.3593  0.0759  0.2778
  463ACOH    O112600   7.284   5.553   5.846  0.8189  0.8080 -0.3796
  463ACOH    C112601   7.079   5.530   5.953 -0.2658 -0.3882  0.0227
  463ACOH    H112602   7.036   5.535   5.853 -3.5130  0.7843  1.4353
  463ACOH    H212603   7.018   5.587   6.023 -0.1927 -1.3218  0.8586
  463ACOH    H312604   7.089   5.426   5.982 -0.1295  0.1141  1.8549
  464ACOH    H412605   8.577   0.999   5.899 -2.0676 -0.3149  1.6359
  464ACOH    O212606   8.499   1.019   5.845 -1.0376  0.0808  0.2597
  464ACOH    C212607   8.385   0.983   5.910  0.4214  0.0728  0.3058
  464ACOH    O112608   8.394   0.954   6.027 -0.4733 -0.4436 -0.0243
  464ACOH    C112609   8.260   1.026   5.840  0.4849 -0.5788  0.1721
  464ACOH    H112610   8.268   1.125   5.796 -2.0058 -0.4043  0.0376
  464ACOH    H212611   8.178   1.024   5.912  0.8093  4.1647  0.8257
  464ACOH    H312612   8.228   0.958   5.761 -0.4802  1.0864 -0.8928
  465SOL     OW12613   0.860   1.508   5.459  0.2627 -0.3560  0.0183
  465SOL    HW112614   0.866   1.441   5.534 -0.4898  0.9345  1.2674
  465SOL    HW212615   0.797   1.475   5.389  0.9096 -1.5445 -0.0072
  466SOL     OW12616   3.688   3.582   6.262  0.7270 -0.1648  0.2110
  466SOL    HW112617   3.785   3.559   6.256  1.1152  1.2612  0.8601
  466SOL    HW212618   3.676   3.679   6.242 -0.7293 -0.6182 -1.1811
  467SOL     OW12619   4.489   3.335   0.663  0.0315 -0.0311 -0.4054
  467SOL    HW112620   4.482   3.406   0.593 -1.0410  0.8193  0.5400
  467SOL    HW212621   4.539   3.371   0.742 -0.5065 -0.3304  0.0749
  468SOL     OW12622   7.798   5.138   6.033  0.3833 -0.0358  0.0591
  468SOL    HW112623   7.735   5.059   6.034  3.1189 -2.2891  1.2439
  468SOL    HW212624   7.890   5.106   6.014  1.4523  3.0278 -0.0800
  469SOL     OW12625   6.979   8.544   4.486  0.3078 -0.0332  0.4105
  469SOL    HW112626   6.977   8.634   4.442 -0.7866 -0.9611 -1.4750
  469SOL    HW212627   7.062   8.496   4.458 -0.6635 -0.8457 -1.1338
  470SOL     OW12628   1.975   3.179   4.209 -0.1006  0.5776 -0.1449
  470SOL    HW112629   1.902   3.224   4.261  0.1914  1.3155 -0.3734
  470SOL    HW212630   1.967   3.203   4.112 -0.3802 -0.4436 -0.3776
  471SOL     OW12631   1.591   2.172   1.374 -0.3024  0.4885  0.1420
  471SOL    HW112632   1.679   2.180   1.420 -0.1641  1.4692 -0.2858
  471SOL    HW212633   1.526   2.236   1.416 -0.3743  0.8693 -0.5431
  472SOL     OW12634   0.413   6.568   3.192 -0.3651 -0.4764 -0.1938
  472SOL    HW112635   0.375   6.572   3.284 -1.6842  0.0220 -0.7378
  472SOL    HW212636   0.512   6.557   3.196 -0.5490 -1.6953  1.2760
  473SOL     OW12637   5.862   9.634   5.926 -0.0927 -0.9542 -0.0632
  473SOL    HW112638   5.774   9.662   5.887 -0.0880 -0.0383  0.5650
  473SOL    HW212639   5.932   9.701   5.903  0.1762 -1.0513  0.4515
  474SOL     OW12640   3.453   1.803   1.520  0.5121 -0.0355  0.2950
  474SOL    HW112641   3.490   1.842   1.604  0.1670  0.1610  0.3581
  474SOL    HW212642   3.501   1.841   1.441 -0.1391  0.8700  0.3328
  475SOL     OW12643   1.510   5.177   2.498 -0.1304  0.4053 -0.2164
  475SOL    HW112644   1.579   5.187   2.426  0.4443 -1.5337  0.0441
  475SOL    HW212645   1.439   5.113   2.467 -0.9546  1.1355  0.1497
  476SOL     OW12646   6.298   1.328   4.174 -0.0848 -0.4693 -0.1661
  476SOL    HW112647   6.297   1.228   4.177 -0.3920 -0.4470  0.5639
  476SOL    HW212648   6.223   1.360   4.117  0.6151 -0.6814 -1.2146
  477SOL     OW12649   4.687   6.393   1.038  0.3765 -0.0497 -0.9181
  477SOL    HW112650   4.691   6.492   1.032 -0.2594 -0.0637 -1.6860
  477SOL    HW212651   4.773   6.354   1.005  0.4906  0.2367 -0.9579
  478SOL     OW12652   3.781   0.954   4.571  0.2728  0.5705  0.4689
  478SOL    HW112653   3.814   1.011   4.496 -0.5263 -0.3192 -0.5603
  478SOL    HW212654   3.818   0.989   4.657 -1.1099  3.3623 -0.0024
  479SOL     OW12655   6.248   9.447   2.459 -0.8913  0.5789 -0.1926
  479SOL    HW112656   6.257   9.544   2.436 -1.3082  0.6274 -0.1606
  479SOL    HW212657   6.241   9.437   2.558  0.7129  0.3860 -0.0897
  480SOL     OW12658   1.643   3.965   3.296  0.4393  0.1600  0.1917
  480SOL    HW112659   1.734   4.000   3.318  0.4694 -0.4440  1.0520
  480SOL    HW212660   1.646   3.865   3.293 -0.1735  0.1429  0.0955
  481SOL     OW12661   0.671   0.795   0.949  1.1414  0.0725  1.2755
  481SOL    HW112662   0.722   0.741   0.882  0.6592  0.2425  0.7687
  481SOL    HW212663   0.651   0.886   0.911  0.0956 -0.1360  1.3031
  482SOL     OW12664   0.551   0.655   6.675 -0.5794 -0.0260 -0.0734
  482SOL    HW112665   0.554   0.709   6.591 -1.4922  0.5137  0.2273
  482SOL    HW212666   0.483   0.694   6.737  0.5210 -0.0470  1.1715
  483SOL     OW12667   4.452   1.578   0.275 -0.2692 -0.2188 -0.3446
  483SOL    HW112668   4.530   1.534   0.318 -0.3443  0.2867  0.3134
  483SOL    HW212669   4.379   1.591   0.342 -1.1836 -1.2989 -1.1110
  484SOL     OW12670   4.419   9.706   0.005 -0.1136 -0.1368  0.3554
  484SOL    HW112671   4.480   9.654   0.065  0.2842 -2.1958 -1.7597
  484SOL    HW212672   4.324   9.696   0.037  0.2723  0.3604  1.7110
  485SOL     OW12673   2.169   3.510   1.343  0.1275  0.3336  0.3111
  485SOL    HW112674   2.252   3.497   1.396  0.5670  0.0759 -0.4313
  485SOL    HW212675   2.095   3.540   1.403  0.2899 -1.1478  1.2846
  486SOL     OW12676   9.689   8.127   5.735  0.0759 -0.2569  0.1991
  486SOL    HW112677   9.656   8.076   5.655  2.0595 -0.0498 -0.7850
  486SOL    HW212678   9.640   8.097   5.817  0.1751 -2.6602 -0.6015
  487SOL     OW12679   3.881   9.186   2.470  0.1260 -0.3521  1.0131
  487SOL    HW112680   3.850   9.189   2.565  0.1533 -0.2911  1.0201
  487SOL    HW212681   3.980   9.201   2.466  0.1388 -0.4469  0.9830
  488SOL     OW12682   7.107   8.553   5.523 -0.4417 -0.0268  0.3049
  488SOL    HW112683   7.149   8.624   5.580  1.4074 -1.1984  0.4410
  488SOL    HW212684   7.140   8.463   5.552  2.1566 -0.5579 -3.8095
  489SOL     OW12685   0.263   4.163   1.592  0.0938 -0.1367  0.0995
  489SOL    HW112686   0.321   4.230   1.547  0.5252  0.1842  1.1150
  489SOL    HW212687   0.264   4.077   1.541  1.6140 -0.1931  0.2138
  490SOL     OW12688   9.462   6.720   1.076  0.3081 -0.1902  0.6585
  490SOL    HW112689   9.376   6.759   1.043  0.3991 -1.5011 -1.2363
  490SOL    HW212690   9.467   6.729   1.175 -1.7071  0.5062  0.7240
  491SOL     OW12691   5.290   1.036   5.516  0.0033 -0.1474  0.6792
  491SOL    HW112692   5.293   0.952   5.571  0.0456 -0.8788 -0.4376
  491SOL    HW212693   5.317   1.015   5.422  0.1081  1.1410  0.4254
  492SOL     OW12694   9.741   4.361   4.918 -0.4265 -0.1547  0.1651
  492SOL    HW112695   9.744   4.442   4.859 -1.5085  0.3209  0.7372
  492SOL    HW212696   9.750   4.279   4.862 -0.7056  0.3175 -0.5846
  493SOL     OW12697   2.119   2.893   1.565 -0.4067 -0.0216 -0.0051
  493SOL    HW112698   2.204   2.938   1.593  0.2722  0.8051 -3.2036
  493SOL    HW212699   2.042   2.955   1.580  0.0532  0.7476 -0.7496
  494SOL     OW12700   5.418   1.367   4.437  0.1068 -0.3203 -0.0854
  494SOL    HW112701   5.503   1.405   4.402 -0.2434  0.4082 -0.1410
  494SOL    HW212702   5.368   1.323   4.363  0.5348 -0.9394 -0.0103
  495SOL     OW12703   1.628   7.800   1.028 -0.8199 -0.6690  0.2380
  495SOL    HW112704   1.687   7.846   1.095  0.0942 -1.5648  0.0628
  495SOL    HW212705   1.619   7.703   1.051 -1.0980 -0.8296 -0.5162
  496SOL     OW12706   2.851   5.809   3.371 -0.9410  0.0363  0.3185
  496SOL    HW112707   2.930   5.748   3.375 -0.1546  0.8494 -1.8751
  496SOL    HW212708   2.767   5.755   3.372 -0.3027 -0.9696  0.5496
  497SOL     OW12709   1.401   7.809   4.114 -0.0080 -0.1737 -0.2907
  497SOL    HW112710   1.482   7.750   4.110 -0.3786 -0.7837  0.9792
  497SOL    HW212711   1.427   7.904   4.097  0.8300 -0.4931 -0.8043
  498SOL     OW12712   0.216   0.734   5.113  0.1540  0.3881 -0.1541
  498SOL    HW112713   0.178   0.808   5.057  0.4290 -0.4180 -1.4227
  498SOL    HW212714   0.190   0.646   5.074  0.1648 -0.1917  1.1263
  499SOL     OW12715   7.888   3.223   2.954 -0.6315  0.5806 -0.0794
  499SOL    HW112716   7.808   3.281   2.971 -1.4180 -0.4787 -0.0994
  499SOL    HW212717   7.894   3.153   3.026  0.3560  0.7381 -0.0061
  500SOL     OW12718   3.704   1.105   5.763  0.2802 -0.3797 -0.1599
  500SOL    HW112719   3.688   1.197   5.800 -0.1122 -0.0304 -1.1582
  500SOL    HW212720   3.796   1.101   5.723  0.4681 -0.5592  0.2954
  501SOL     OW12721   9.537   9.449   1.667 -0.3318 -0.5154  0.1497
  501SOL    HW112722   9.524   9.430   1.765 -3.5497 -0.5140 -0.2000
  501SOL    HW212723   9.511   9.368   1.614 -1.0257  0.3194 -0.7921
  502SOL     OW12724   9.255   9.894   2.062  0.1435 -0.5852  0.2511
  502SOL    HW112725   9.248   9.846   2.149  2.3513 -1.9634 -0.2869
  502SOL    HW212726   9.326   9.964   2.067 -0.3742 -0.0202 -0.1529
  503SOL     OW12727   7.192   8.546   5.872 -0.9926 -0.0480 -0.2525
  503SOL    HW112728   7.173   8.579   5.965  0.1889 -3.2373  1.2034
  503SOL    HW212729   7.130   8.470   5.851 -0.5983  0.0254 -1.7138
  504SOL     OW12730   7.568   9.066   1.942  0.1686 -0.5514  0.1094
  504SOL    HW112731   7.626   9.116   2.007  0.9124 -1.6459  0.3157
  504SOL    HW212732   7.485   9.118   1.925  1.2038  1.0533 -0.1772
  505SOL     OW12733   6.610   8.915   4.124 -0.3230  0.0610  1.0525
  505SOL    HW112734   6.541   8.986   4.108  0.3435  0.3450 -0.6190
  505SOL    HW212735   6.576   8.827   4.092  0.3719  0.3389 -0.5024
  506SOL     OW12736   1.367   3.251   1.527 -0.4679  0.1909  1.0120
  506SOL    HW112737   1.399   3.177   1.468 -0.2602  2.6560 -2.0991
  506SOL    HW212738   1.441   3.315   1.544 -1.6659  1.8533  0.1769
  507SOL     OW12739   9.372   8.570   5.608  0.5663  0.1438 -0.0411
  507SOL    HW112740   9.418   8.559   5.520  0.2847 -1.5682  0.0063
  507SOL    HW212741   9.338   8.481   5.639  0.1556  0.8292  1.5219
  508SOL     OW12742   1.227   5.707   4.375  0.1322 -0.0997  0.4495
  508SOL    HW112743   1.275   5.783   4.420 -0.3499  0.0275  0.7524
  508SOL    HW212744   1.289   5.662   4.311  1.0423 -0.7017  1.7267
  509SOL     OW12745   9.862   3.258   1.145 -0.1768 -0.0548  0.3551
  509SOL    HW112746   9.927   3.206   1.201  0.9475 -1.1982 -1.9371
  509SOL    HW212747   9.777   3.208   1.138 -0.1909 -0.0848  0.7180
  510SOL     OW12748   2.663   2.343   2.149 -0.4577 -0.8083 -0.8081
  510SOL    HW112749   2.662   2.441   2.129 -0.6787 -1.0410 -1.9266
  510SOL    HW212750   2.577   2.301   2.121  0.6257 -1.7991 -2.7380
  511SOL     OW12751   3.345   0.999   4.799 -0.3950  0.0663 -0.5633
  511SOL    HW112752   3.315   1.053   4.878 -0.5026 -0.4479 -0.2492
  511SOL    HW212753   3.308   0.907   4.806  1.4803 -0.6658 -0.0250
  512SOL     OW12754   3.076   1.706   1.333  0.0515 -0.1912  0.2407
  512SOL    HW112755   3.145   1.775   1.311 -0.2288  0.1726  0.5030
  512SOL    HW212756   3.044   1.663   1.248 -0.9759  1.1603 -0.0598
  513SOL     OW12757   0.709   7.105   1.904 -0.2393  0.0048 -0.0802
  513SOL    HW112758   0.774   7.064   1.969  0.0137 -0.3570 -0.5552
  513SOL    HW212759   0.740   7.196   1.879 -0.0454 -0.0671 -0.1067
  514SOL     OW12760   5.445   0.574   4.544 -0.4559 -0.3175  0.4738
  514SOL    HW112761   5.496   0.559   4.459 -1.3586 -0.4596 -0.0507
  514SOL    HW212762   5.504   0.619   4.611  0.0162  0.5546 -0.5109
  515SOL     OW12763   1.133   1.174   1.565 -0.1660  0.0640 -0.2341
  515SOL    HW112764   1.083   1.260   1.568 -0.8538 -0.2661 -1.5731
  515SOL    HW212765   1.071   1.099   1.587  0.5554 -0.0600  1.4632
  516SOL     OW12766   2.279   9.136   1.751  0.4592  0.3443 -0.6158
  516SOL    HW112767   2.333   9.092   1.679  0.9192 -0.7437  0.3660
  516SOL    HW212768   2.309   9.102   1.840 -1.7619 -0.1736 -0.0412
  517SOL     OW12769   0.090   4.395   0.754 -0.1550  0.1311 -0.2051
  517SOL    HW112770   0.143   4.474   0.722  0.4635 -0.2570 -0.1572
  517SOL    HW212771   0.075   4.332   0.679  0.3505 -0.2545  0.0117
  518SOL     OW12772   0.431   7.410   6.650  0.1482 -0.0334 -0.0275
  518SOL    HW112773   0.489   7.449   6.723  0.6886 -1.1630  0.1562
  518SOL    HW212774   0.406   7.317   6.674 -2.7326  0.8165  0.4321
  519SOL     OW12775   9.613   8.903   6.288  0.2278 -0.2878 -0.2132
  519SOL    HW112776   9.622   8.935   6.382 -0.8725 -0.7947  0.0681
  519SOL    HW212777   9.599   8.804   6.288 -1.5392 -0.0565 -0.8165
  520SOL     OW12778   0.726   5.028   3.278 -0.2537 -0.0211  0.6126
  520SOL    HW112779   0.782   5.092   3.330 -0.5666  0.7848 -0.0497
  520SOL    HW212780   0.785   4.975   3.217 -0.2627  1.1389 -0.4130
  521SOL     OW12781   8.673   8.660   6.116  0.6221  0.3013  0.1073
  521SOL    HW112782   8.763   8.665   6.072 -0.4725  2.1672 -2.0615
  521SOL    HW212783   8.662   8.738   6.177  1.4216 -1.2934  2.3269
  522SOL     OW12784   1.661   1.062   1.374 -1.2080 -0.1558 -0.1365
  522SOL    HW112785   1.672   1.035   1.470 -0.1602 -1.5951 -0.6523
  522SOL    HW212786   1.585   1.128   1.367 -1.6348 -0.4294  1.5984
  523SOL     OW12787   7.356   4.799   0.371 -0.2374  0.3229 -0.1428
  523SOL    HW112788   7.261   4.813   0.397  0.2209 -0.0695  1.8721
  523SOL    HW212789   7.373   4.701   0.361  0.2838  0.2974  0.9011
  524SOL     OW12790   7.125   1.051   5.335  0.0768  0.2396 -0.6485
  524SOL    HW112791   7.145   1.098   5.249  0.6458 -1.4268 -1.4606
  524SOL    HW212792   7.033   1.013   5.332  0.2856 -0.2690 -0.7476
  525SOL     OW12793   1.549   6.910   4.025 -0.0031  0.1510  0.2495
  525SOL    HW112794   1.479   6.939   4.090 -0.0541  0.4013  0.0844
  525SOL    HW212795   1.623   6.865   4.074 -1.2823 -2.0823  0.2127
  526SOL     OW12796   7.601   0.443   0.785  0.2938  0.2085 -0.4041
  526SOL    HW112797   7.510   0.482   0.770  0.2716 -0.1320 -1.1835
  526SOL    HW212798   7.609   0.411   0.879 -0.1845  0.7988 -0.1673
  527SOL     OW12799   2.656   6.439   6.635  0.4435 -0.1777 -0.6078
  527SOL    HW112800   2.714   6.465   6.558 -0.2327  2.9040 -0.1463
  527SOL    HW212801   2.712   6.432   6.718  0.5327  0.5032 -0.6087
  528SOL     OW12802   7.142   0.215   4.267 -0.4060  0.4301 -0.6955
  528SOL    HW112803   7.202   0.146   4.308 -0.3797  1.0932  0.3727
  528SOL    HW212804   7.085   0.171   4.197 -0.7757 -0.7848  0.3549
  529SOL     OW12805   2.484   4.717   2.754  0.4742 -0.5839 -0.2373
  529SOL    HW112806   2.408   4.769   2.792 -0.8608 -1.2381 -1.9421
  529SOL    HW212807   2.545   4.689   2.828 -1.4355 -0.8665  1.2862
  530SOL     OW12808   9.955   9.636   0.465  0.2557  0.1001  0.0601
  530SOL    HW112809  10.012   9.618   0.546 -0.7441  0.1725  0.7879
  530SOL    HW212810  10.012   9.675   0.393  1.4184 -1.1994  0.2558
  531SOL     OW12811   3.962   2.745   2.877 -0.0771  0.5600  0.2615
  531SOL    HW112812   3.975   2.800   2.960  1.2751  2.3067 -1.0860
  531SOL    HW212813   3.901   2.793   2.814 -2.2071 -1.3871  0.7624
  532SOL     OW12814   4.345   1.633   5.104 -0.3990  0.3247 -0.3986
  532SOL    HW112815   4.406   1.707   5.076  0.8157  0.0683  1.4636
  532SOL    HW212816   4.394   1.573   5.167 -1.8723 -1.1914 -0.6899
  533SOL     OW12817   0.410   0.975   6.603  0.6569 -0.2474  0.1543
  533SOL    HW112818   0.323   1.025   6.596  0.7239 -0.1759 -0.1788
  533SOL    HW212819   0.398   0.897   6.665  0.4725  0.0095  0.4459
  534SOL     OW12820   9.554   9.060   3.901  0.2484 -0.6640  0.4292
  534SOL    HW112821   9.508   8.992   3.844  0.3649  1.0330 -1.7789
  534SOL    HW212822   9.485   9.114   3.950 -0.1373  0.7785 -1.5924
  535SOL     OW12823   7.123   7.773   3.596 -0.1618 -0.1697 -0.1760
  535SOL    HW112824   7.053   7.701   3.598  0.0224 -0.3131  1.2706
  535SOL    HW212825   7.201   7.742   3.543 -1.7093  0.4840 -2.9375
  536SOL     OW12826   8.494   7.299   5.968  0.4939 -1.0077  1.0062
  536SOL    HW112827   8.472   7.236   6.042  2.3755  0.7311  3.1231
  536SOL    HW212828   8.571   7.357   5.995  1.4703 -0.5526 -2.4528
  537SOL     OW12829   1.047   3.579   6.475  0.4173 -0.1396  0.3989
  537SOL    HW112830   1.046   3.504   6.541 -1.6657 -0.8295 -0.3704
  537SOL    HW212831   0.974   3.564   6.408  2.2972  0.7090 -1.8727
  538SOL     OW12832   0.030   4.803   3.824  0.7505 -0.3313  0.9469
  538SOL    HW112833  -0.037   4.730   3.837  0.0114  0.2185  0.3127
  538SOL    HW212834   0.097   4.800   3.897  0.9645 -1.9070  0.7099
  539SOL     OW12835   0.050   6.839   6.583 -0.5287  0.7625 -0.1481
  539SOL    HW112836  -0.021   6.903   6.613 -1.0579  0.0086  0.2001
  539SOL    HW212837   0.063   6.846   6.484 -0.4534  1.5416 -0.0864
  540SOL     OW12838   4.390   7.740   2.195 -0.0000  0.4149  0.4349
  540SOL    HW112839   4.477   7.726   2.147  0.2730  1.2495  0.6856
  540SOL    HW212840   4.339   7.654   2.197  1.3180 -0.3643  1.2751
  541SOL     OW12841   0.503   2.416   2.217  0.0754  0.3842  0.0346
  541SOL    HW112842   0.516   2.432   2.119  1.0533 -1.9936 -0.2623
  541SOL    HW212843   0.582   2.452   2.267 -0.0698  0.9306 -0.1321
  542SOL     OW12844   0.506   5.025   1.136  0.2950 -0.3310  0.2734
  542SOL    HW112845   0.530   5.105   1.191  0.3476 -1.2278  1.5844
  542SOL    HW212846   0.419   5.041   1.089 -0.0960  0.1857  1.1643
  543SOL     OW12847   2.014   8.012   5.847  0.1236 -0.0109 -0.0620
  543SOL    HW112848   2.061   7.960   5.775  1.5774 -0.7721  1.4012
  543SOL    HW212849   2.060   8.101   5.858  0.1088 -0.0297  0.1471
  544SOL     OW12850   7.104   3.141   1.319 -0.1528  0.1389 -0.1846
  544SOL    HW112851   7.114   3.238   1.342 -1.2651  0.1234  0.3998
  544SOL    HW212852   7.062   3.132   1.229  1.5831  0.1940 -1.0173
  545SOL     OW12853   6.335   6.870   4.684 -0.2377 -0.3264 -0.0721
  545SOL    HW112854   6.366   6.779   4.709 -0.6605  0.0896  2.0700
  545SOL    HW212855   6.414   6.925   4.655  0.4901 -0.4484  1.6039
  546SOL     OW12856   5.465   4.526   0.770 -0.2323 -0.1657  0.0946
  546SOL    HW112857   5.389   4.540   0.707 -1.4087 -2.1365  1.0156
  546SOL    HW212858   5.449   4.577   0.854  0.7730  1.5367 -0.7316
  547SOL     OW12859   9.324   5.721   5.393 -0.0987 -0.0865 -0.4364
  547SOL    HW112860   9.423   5.725   5.376 -0.0885  0.3645 -0.2811
  547SOL    HW212861   9.279   5.673   5.318  0.6979 -3.8624  1.3699
  548SOL     OW12862   2.420   9.507   4.975 -0.6838 -0.6518  0.6462
  548SOL    HW112863   2.414   9.488   5.073  0.3389  1.5578  1.1613
  548SOL    HW212864   2.467   9.594   4.961 -0.7042 -1.0197 -1.8223
  549SOL     OW12865   3.015   2.328   0.987  0.3731  0.1791 -0.5901
  549SOL    HW112866   3.004   2.384   1.069  1.0807  0.0986 -0.4401
  549SOL    HW212867   3.111   2.325   0.961  0.1371  0.2693 -1.4704
  550SOL     OW12868   8.520   0.327   3.178  0.3081 -0.4597  0.1694
  550SOL    HW112869   8.615   0.327   3.209  0.2500 -1.6718  0.3596
  550SOL    HW212870   8.463   0.281   3.246 -0.2686 -0.5613 -0.3845
  551SOL     OW12871   3.383   9.016   3.073  0.1177  0.4424 -0.0010
  551SOL    HW112872   3.323   8.960   3.017  0.7422 -1.1153  0.8594
  551SOL    HW212873   3.329   9.084   3.122 -0.8688 -0.5700  0.3260
  552SOL     OW12874   7.116   9.748   4.888 -0.5662 -0.1736 -0.2662
  552SOL    HW112875   7.026   9.713   4.859 -0.5500  0.5887 -1.2793
  552SOL    HW212876   7.104   9.833   4.938 -0.3173  0.7751 -1.7901
  553SOL     OW12877   5.180   8.044   2.880 -0.1866 -0.2521  0.5378
  553SOL    HW112878   5.118   8.121   2.871  0.6414  0.5057  1.1932
  553SOL    HW212879   5.128   7.962   2.906 -1.1177 -0.0184 -0.5712
  554SOL     OW12880   8.469   6.353   3.109  0.5054  0.0426  0.0830
  554SOL    HW112881   8.462   6.294   3.028  1.7402  1.8524 -1.3815
  554SOL    HW212882   8.561   6.347   3.146 -0.0877 -0.8564  1.4499
  555SOL     OW12883   8.890   8.881   4.464  0.0053 -0.1708 -0.1615
  555SOL    HW112884   8.870   8.883   4.562  0.1993 -1.9934 -0.0589
  555SOL    HW212885   8.811   8.916   4.413  0.3248  1.8392  0.6730
  556SOL     OW12886   2.057   9.721   2.898  0.1994 -0.4074  0.2441
  556SOL    HW112887   2.054   9.810   2.943  2.0310  0.2124 -0.8215
  556SOL    HW212888   1.998   9.657   2.947  0.6449  0.7681  2.3619
  557SOL     OW12889   1.753   0.415   6.307 -0.6178  0.0512 -0.1383
  557SOL    HW112890   1.795   0.491   6.357 -1.0790 -0.0253  0.3685
  557SOL    HW212891   1.758   0.434   6.209  0.5170  0.0859 -0.0827
  558SOL     OW12892   1.012   1.744   6.659  0.0500 -0.2163  0.0265
  558SOL    HW112893   1.106   1.748   6.625  0.1867  0.1634  0.4451
  558SOL    HW212894   0.966   1.831   6.644 -0.1321 -0.2956  0.1153
  559SOL     OW12895   9.968   8.038   0.439 -0.3887 -0.0358 -0.0225
  559SOL    HW112896  10.034   7.967   0.466 -0.2133 -0.0552 -0.5026
  559SOL    HW212897   9.894   8.042   0.506  0.3119  0.2576  0.7447
  560SOL     OW12898   0.884   8.283   5.903  0.3216 -0.3305  0.3759
  560SOL    HW112899   0.834   8.280   5.816 -0.2248 -0.6414  0.6927
  560SOL    HW212900   0.981   8.295   5.886  0.1321  0.3070 -0.2567
  561SOL     OW12901   1.879   5.543   4.294  0.1015  0.3315  0.5993
  561SOL    HW112902   1.917   5.469   4.239 -0.0114 -0.4599  1.5601
  561SOL    HW212903   1.954   5.594   4.338  0.1227 -0.2020  1.1884
  562SOL     OW12904   0.172   9.283   2.026 -0.0936  0.2469 -0.0661
  562SOL    HW112905   0.137   9.220   1.957  1.0392 -0.8717  0.3571
  562SOL    HW212906   0.132   9.262   2.114  0.3005  0.0896  0.0790
  563SOL     OW12907   9.648   2.896   3.385  0.5433 -0.1451  0.3216
  563SOL    HW112908   9.720   2.965   3.387  0.6427 -0.1870 -1.5874
  563SOL    HW212909   9.564   2.937   3.351  0.2994 -0.6837  0.2814
  564SOL     OW12910   1.292   4.388   1.378 -0.5981 -0.5731 -0.5405
  564SOL    HW112911   1.381   4.359   1.412 -1.0089  0.1214  1.1705
  564SOL    HW212912   1.285   4.366   1.280  1.2211 -1.1191 -0.5680
  565SOL     OW12913   4.101   7.437   2.751  0.3970 -0.2677 -0.3454
  565SOL    HW112914   4.180   7.498   2.746  0.9152 -0.9134 -0.0088
  565SOL    HW212915   4.073   7.412   2.659 -0.4207  1.2461 -0.5361
  566SOL     OW12916   3.133   5.452   2.820  0.1762 -1.0010 -0.0277
  566SOL    HW112917   3.156   5.398   2.902  0.7089  1.1824  1.3150
  566SOL    HW212918   3.218   5.487   2.780 -0.2054 -0.5782 -0.4573
  567SOL     OW12919   4.814   0.937   3.423 -0.1013 -0.1097  0.1145
  567SOL    HW112920   4.777   0.983   3.342 -0.7208 -0.7413  0.0342
  567SOL    HW212921   4.774   0.978   3.505 -0.5192 -0.3823  0.0493
  568SOL     OW12922   7.949   2.996   0.608  0.3631 -0.3842  0.0710
  568SOL    HW112923   7.921   2.911   0.651  1.0304 -1.1193 -0.9205
  568SOL    HW212924   7.870   3.058   0.601 -0.3590 -1.3204 -0.1248
  569SOL     OW12925   9.512   5.622   1.945  0.4473 -0.3199  0.2390
  569SOL    HW112926   9.513   5.581   1.854 -1.3230 -0.8850  0.4491
  569SOL    HW212927   9.567   5.566   2.007  0.4657 -0.7355 -0.1491
  570SOL     OW12928   2.428   5.898   5.565  0.2781 -0.3681  0.3171
  570SOL    HW112929   2.380   5.810   5.568 -0.2780 -0.1256 -1.1521
  570SOL    HW212930   2.367   5.970   5.600 -0.7109  0.0481 -2.1834
  571SOL     OW12931   5.897   1.399   4.256  0.3720 -0.1469  0.3815
  571SOL    HW112932   5.886   1.327   4.324  0.4082 -0.9800 -0.5006
  571SOL    HW212933   5.810   1.448   4.244 -0.8230 -2.7673 -2.1003
  572SOL     OW12934   9.085   0.621   1.251 -0.2693 -0.0002 -0.4690
  572SOL    HW112935   9.147   0.700   1.262 -1.7276  1.2482 -1.0615
  572SOL    HW212936   9.061   0.611   1.155  0.1959 -1.4246 -0.4536
  573SOL     OW12937   8.708   1.544   1.980  0.0994  0.0473  0.0131
  573SOL    HW112938   8.728   1.573   1.886 -1.1728 -0.9997 -0.5888
  573SOL    HW212939   8.770   1.592   2.042  0.3272  1.4882 -1.2621
  574SOL     OW12940   3.352   5.509   2.675  1.3756  0.1523 -0.0635
  574SOL    HW112941   3.431   5.469   2.720  0.5030 -0.5930  0.8397
  574SOL    HW212942   3.360   5.609   2.674  1.9225  0.1179  0.7755
  575SOL     OW12943   9.060   3.079   4.706 -0.2877  0.3231  0.6166
  575SOL    HW112944   9.009   3.165   4.709 -3.6356 -1.5922  1.3941
  575SOL    HW212945   9.055   3.035   4.796 -1.9753 -2.4971 -0.7882
  576SOL     OW12946   1.824   7.381   3.203 -0.2066 -0.2975  0.0575
  576SOL    HW112947   1.797   7.338   3.290 -0.7131  0.2072  0.1490
  576SOL    HW212948   1.866   7.470   3.222  0.5797 -0.6171 -0.1536
  577SOL     OW12949   0.738   4.796   5.284  0.2319  0.0531 -0.0960
  577SOL    HW112950   0.782   4.718   5.329 -1.0806 -0.2325  0.7331
  577SOL    HW212951   0.686   4.763   5.205 -0.9288 -0.0310  0.6877
  578SOL     OW12952   1.739   8.252   1.794  0.2906  0.5530  0.1455
  578SOL    HW112953   1.663   8.214   1.741 -1.2711  2.6517  0.8019
  578SOL    HW212954   1.762   8.190   1.869  1.1839 -1.4713 -1.7590
  579SOL     OW12955   3.827   5.732   0.517  0.2565  0.6968  0.3265
  579SOL    HW112956   3.763   5.777   0.580 -1.6071 -0.5425 -0.6359
  579SOL    HW212957   3.793   5.739   0.424  0.5185 -1.6814  0.0161
  580SOL     OW12958   8.500   0.542   6.532  0.2163 -0.1574 -0.5031
  580SOL    HW112959   8.536   0.627   6.570 -2.9676  0.4254  1.3588
  580SOL    HW212960   8.573   0.495   6.482  2.1957  3.3506 -1.1075
  581SOL     OW12961   6.900   0.421   1.851  0.0732 -0.2852 -0.0257
  581SOL    HW112962   6.879   0.383   1.761 -1.3500 -1.4085  0.7459
  581SOL    HW212963   6.818   0.418   1.908  1.1613 -0.3439  1.5634
  582SOL     OW12964   2.987   3.553   1.918  0.0130 -0.4727  0.2392
  582SOL    HW112965   2.976   3.534   2.016  0.4980 -0.1184  0.3654
  582SOL    HW212966   2.900   3.585   1.881 -0.0806 -0.2475  0.6411
  583SOL     OW12967   7.360   9.203   6.063 -0.1495 -0.2066 -0.4575
  583SOL    HW112968   7.314   9.292   6.067  1.4911  0.6467  0.0034
  583SOL    HW212969   7.335   9.156   5.979  0.3672  1.4965 -1.5845
  584SOL     OW12970   4.033   2.655   4.397  0.0889 -0.2679  0.0189
  584SOL    HW112971   4.080   2.593   4.459 -0.5917  0.2387  1.0660
  584SOL    HW212972   3.934   2.646   4.410 -0.0265  0.7194 -0.1118
  585SOL     OW12973   7.333   9.574   2.075 -0.3012  0.0992 -0.1876
  585SOL    HW112974   7.405   9.561   2.143  0.4594  0.9050 -0.8330
  585SOL    HW212975   7.374   9.598   1.987 -1.3726  0.9095 -0.4763
  586SOL     OW12976   2.804   2.459   4.572  0.0223  0.3077 -0.1166
  586SOL    HW112977   2.796   2.535   4.636 -1.4832  0.0569  0.0072
  586SOL    HW212978   2.846   2.381   4.620  0.3157  0.6099  0.1287
  587SOL     OW12979   7.854   7.244   4.599 -0.2433 -0.7752  0.1382
  587SOL    HW112980   7.885   7.233   4.505  0.0853 -1.1167  0.2879
  587SOL    HW212981   7.873   7.161   4.651 -0.6243 -0.6688  0.4507
  588SOL     OW12982   9.516   5.254   3.551  0.6901 -0.2060 -0.4723
  588SOL    HW112983   9.434   5.239   3.496  1.4933 -2.0290 -1.2318
  588SOL    HW212984   9.539   5.170   3.601  2.9059 -0.2229 -1.4373
  589SOL     OW12985   1.076   1.090   0.738 -0.2156 -0.5428 -0.1080
  589SOL    HW112986   1.133   1.072   0.818  0.9854  1.6169 -0.4352
  589SOL    HW212987   1.050   1.186   0.737 -0.3901 -0.5858 -2.2104
  590SOL     OW12988   9.735   3.813   1.545 -0.0910  0.6701  0.4162
  590SOL    HW112989   9.638   3.789   1.553 -0.3706  1.8720  0.7961
  590SOL    HW212990   9.787   3.769   1.618  0.0468 -1.9407 -1.2133
  591SOL     OW12991   3.485   1.538   0.868  0.4762 -0.4683  0.2738
  591SOL    HW112992   3.477   1.572   0.962 -0.7251 -1.9729  0.7291
  591SOL    HW212993   3.574   1.494   0.856  0.8146  0.1275  0.5650
  592SOL     OW12994   9.430   4.056   3.083  0.1343  0.4904  0.4404
  592SOL    HW112995   9.470   4.130   3.137  0.0483 -0.3423  1.6494
  592SOL    HW212996   9.466   3.969   3.114 -0.7365 -0.0781 -0.1309
  593SOL     OW12997   8.361   5.331   5.945 -0.3761  0.2495 -0.0092
  593SOL    HW112998   8.392   5.243   5.907  0.1026  0.6683 -0.6022
  593SOL    HW212999   8.264   5.343   5.926  0.2103  1.2354 -2.6881
  594SOL     OW13000   4.789   8.516   2.944 -0.0287  0.1285  0.9661
  594SOL    HW113001   4.696   8.524   2.978 -0.8325 -0.8198 -0.9212
  594SOL    HW213002   4.830   8.432   2.979 -0.5733 -0.4481  0.2281
  595SOL     OW13003   3.486   1.948   5.502  0.2467 -0.3858  0.4842
  595SOL    HW113004   3.506   2.007   5.581  1.8334 -1.3902  0.8494
  595SOL    HW213005   3.391   1.917   5.507 -0.5746  1.9969  0.3740
  596SOL     OW13006   2.433   9.040   6.518  0.0819 -0.8889 -0.1516
  596SOL    HW113007   2.440   9.019   6.615  1.7131 -0.4043 -0.1440
  596SOL    HW213008   2.467   9.133   6.502 -0.6657 -0.7734 -1.1190
  597SOL     OW13009   3.890   1.712   3.539 -0.3560  0.4421  0.7101
  597SOL    HW113010   3.903   1.697   3.637  0.6700  1.9879  0.8309
  597SOL    HW213011   3.881   1.624   3.492  2.4251 -0.4402  1.7512
  598SOL     OW13012   2.915   9.079   6.076 -0.4675  0.5984 -0.0358
  598SOL    HW113013   2.876   9.079   5.984  0.6279 -0.9637 -0.5163
  598SOL    HW213014   2.978   9.156   6.085 -1.0227  1.0974 -0.3929
  599SOL     OW13015   0.090   2.291   6.287 -0.5458 -0.3625 -0.2965
  599SOL    HW113016   0.189   2.306   6.288 -0.8053  1.5956 -0.2548
  599SOL    HW213017   0.063   2.248   6.201  0.2977 -0.4854 -0.4976
  600SOL     OW13018   3.638   5.418   3.507  0.1224 -0.5442  0.1814
  600SOL    HW113019   3.611   5.463   3.592 -1.9310 -1.5251  0.0697
  600SOL    HW213020   3.556   5.398   3.452  1.1234 -3.1055 -0.4205
  601SOL     OW13021   6.615   0.743   3.795 -0.4916 -0.4063 -0.6311
  601SOL    HW113022   6.640   0.716   3.888 -0.1569  0.2782 -0.5199
  601SOL    HW213023   6.588   0.662   3.743 -0.1665 -0.8594 -0.0989
  602SOL     OW13024   2.748   7.683   2.602  0.0702  0.2788 -0.3460
  602SOL    HW113025   2.680   7.754   2.583 -0.5657 -0.2330  0.0023
  602SOL    HW213026   2.727   7.601   2.549 -1.2018 -0.8496  1.8502
  603SOL     OW13027   8.649   9.858   1.089  0.3418 -0.2970  0.3310
  603SOL    HW113028   8.744   9.885   1.072 -0.2468  2.1525  0.7808
  603SOL    HW213029   8.614   9.811   1.008  1.0407  1.4148 -1.0178
  604SOL     OW13030   4.894   8.493   6.430  0.0544  0.1838  0.4916
  604SOL    HW113031   4.940   8.407   6.408 -0.3920  0.7444 -2.8669
  604SOL    HW213032   4.798   8.476   6.449  0.2586 -0.2190  1.1707
  605SOL     OW13033   7.843   5.358   0.550 -0.4703 -0.0238 -0.0508
  605SOL    HW113034   7.846   5.284   0.616 -0.3738  0.4532  0.4849
  605SOL    HW213035   7.832   5.445   0.598  2.0650  0.5782 -0.4910
  606SOL     OW13036   9.498   8.172   5.250 -0.0977  0.1908  0.1515
  606SOL    HW113037   9.399   8.174   5.264 -0.3213  0.1406 -1.3402
  606SOL    HW213038   9.518   8.144   5.156  1.3251  0.7351  0.2745
  607SOL     OW13039   8.241   8.681   4.676  0.1951 -0.0209 -0.5108
  607SOL    HW113040   8.169   8.749   4.661  0.9694  0.9291 -0.0004
  607SOL    HW213041   8.234   8.646   4.769 -0.3701 -0.8401 -0.8630
  608SOL     OW13042   1.233   5.365   4.147 -0.3966 -0.4984 -0.1499
  608SOL    HW113043   1.290   5.447   4.156 -1.6802  0.1657  2.5692
  608SOL    HW213044   1.290   5.283   4.149  0.6437  0.2249  0.1615
  609SOL     OW13045   1.937   3.151   2.445  0.1619  0.1939 -0.3915
  609SOL    HW113046   2.003   3.174   2.373  0.5106 -1.7659 -0.7346
  609SOL    HW213047   1.968   3.069   2.492 -1.0754  0.3614  0.7141
  610SOL     OW13048   0.418   1.677   1.471 -0.2463 -0.5888  0.1990
  610SOL    HW113049   0.429   1.614   1.547 -0.6820  1.1568  1.7380
  610SOL    HW213050   0.462   1.764   1.493  0.3719 -0.3355 -1.9004
  611SOL     OW13051   3.958   2.896   4.149  0.2193  0.0267 -0.2119
  611SOL    HW113052   3.984   2.881   4.244 -1.2873 -0.0254  0.2159
  611SOL    HW213053   3.936   2.808   4.107 -0.2512  0.1575 -0.2476
  612SOL     OW13054   2.024   5.401   6.562  0.4367 -0.2177 -0.2717
  612SOL    HW113055   2.061   5.332   6.500  0.1609  0.2479 -0.9555
  612SOL    HW213056   2.099   5.454   6.601  0.8210 -2.1327  1.7540
  613SOL     OW13057   8.000   5.649   0.171  0.1963 -0.5498 -0.1282
  613SOL    HW113058   8.071   5.597   0.219  0.1144 -0.5523 -0.0085
  613SOL    HW213059   7.975   5.601   0.087  0.9345 -0.1168 -0.5990
  614SOL     OW13060   3.965   8.106   4.478  0.1644  0.4592  0.1378
  614SOL    HW113061   3.974   8.205   4.473  1.0614  0.4450  1.1554
  614SOL    HW213062   3.868   8.081   4.474 -0.1207  1.4360  0.7529
  615SOL     OW13063   1.822   3.735   5.695 -0.9747 -0.2412  0.1194
  615SOL    HW113064   1.908   3.753   5.741 -0.1836  0.0275 -1.4489
  615SOL    HW213065   1.747   3.740   5.761  0.1857 -0.3536  1.4594
  616SOL     OW13066   1.518   7.042   3.053  0.3720 -0.7090 -0.1081
  616SOL    HW113067   1.498   7.089   2.967  1.4254 -0.7018 -0.3538
  616SOL    HW213068   1.616   7.023   3.059  0.3307 -0.5601  1.1659
  617SOL     OW13069   3.828   2.716   5.501 -0.3756 -0.4147 -0.2717
  617SOL    HW113070   3.825   2.616   5.505  1.0682 -0.4598 -0.0793
  617SOL    HW213071   3.892   2.750   5.569 -0.2823  0.6039 -0.8655
  618SOL     OW13072   2.520   8.549   1.213 -0.3293  0.2125  0.3658
  618SOL    HW113073   2.620   8.542   1.209 -0.4697 -1.4705 -0.7503
  618SOL    HW213074   2.484   8.476   1.271 -0.9311  0.8045  0.7506
  619SOL     OW13075   0.252   5.715   3.343 -0.0823 -0.3977  0.6252
  619SOL    HW113076   0.201   5.767   3.275 -0.2275 -0.0910  0.9658
  619SOL    HW213077   0.225   5.744   3.435  0.2263 -0.6959  0.8139
  620SOL     OW13078   7.984   7.613   2.282 -0.8545 -0.3004  0.5894
  620SOL    HW113079   7.985   7.625   2.183  0.5740  0.1616  0.6513
  620SOL    HW213080   8.002   7.517   2.305  0.1569 -0.1487  0.4361
  621SOL     OW13081   1.996   8.522   3.836 -0.2939  0.4938  0.1000
  621SOL    HW113082   1.942   8.569   3.766  2.2523  1.9161 -0.9470
  621SOL    HW213083   2.037   8.589   3.898  1.0051 -0.5087  0.3469
  622SOL     OW13084   9.731   4.531   4.707  0.0188  0.2628  0.8230
  622SOL    HW113085   9.803   4.503   4.644 -0.4098  0.3584  0.2878
  622SOL    HW213086   9.673   4.600   4.663 -2.0702 -1.8360  0.2321
  623SOL     OW13087   2.693   7.444   1.178  0.4823 -0.0663 -0.1641
  623SOL    HW113088   2.595   7.449   1.199  0.4158  1.3212 -0.7824
  623SOL    HW213089   2.707   7.388   1.097  0.2068 -0.2788 -0.0672
  624SOL     OW13090   5.190   9.697   5.290 -0.0107 -0.0180 -0.0828
  624SOL    HW113091   5.214   9.793   5.276  0.1570 -0.0271  0.1337
  624SOL    HW213092   5.114   9.690   5.355 -0.0109 -0.0306 -0.0843
  625SOL     OW13093   1.112   4.235   4.886 -0.5776 -0.4811  0.3315
  625SOL    HW113094   1.037   4.295   4.860 -0.1669  0.3697  1.0938
  625SOL    HW213095   1.116   4.157   4.823 -1.3720  0.0730 -0.4065
  626SOL     OW13096   5.382   7.420   4.966  0.3902 -0.7017 -0.8351
  626SOL    HW113097   5.384   7.366   4.882 -1.9551 -1.1636 -0.6264
  626SOL    HW213098   5.288   7.450   4.984  1.1981  1.1015  0.5521
  627SOL     OW13099   9.086   7.674   2.004 -0.2172 -0.6335  0.4991
  627SOL    HW113100   9.048   7.584   2.025 -1.3933 -0.1935  0.2722
  627SOL    HW213101   9.013   7.735   1.973  0.4667  0.6014  1.2863
  628SOL     OW13102   8.636   5.555   4.712 -0.4360  0.1817 -0.5575
  628SOL    HW113103   8.701   5.481   4.730  0.6185  2.0972  4.5951
  628SOL    HW213104   8.546   5.529   4.747 -0.5230  0.5895 -0.4751
  629SOL     OW13105   2.488   8.750   5.992 -0.3291  0.2981 -0.2334
  629SOL    HW113106   2.576   8.762   6.039 -0.2536  2.7303 -0.9640
  629SOL    HW213107   2.504   8.730   5.896 -0.5669 -0.4379 -0.1225
  630SOL     OW13108   6.940   0.790   5.037  0.2324 -0.2133  0.5984
  630SOL    HW113109   6.938   0.848   5.118 -1.1906 -0.7579  0.9705
  630SOL    HW213110   6.853   0.740   5.029  0.0409  0.3999 -1.6787
  631SOL     OW13111   3.885   1.344   1.961 -0.1287  0.1401  0.0263
  631SOL    HW113112   3.825   1.332   2.039  2.5538 -1.6973  1.8872
  631SOL    HW213113   3.972   1.384   1.991  1.0807 -0.9128 -1.9368
  632SOL     OW13114   2.532   5.484   1.921  0.2158  0.0249 -0.1817
  632SOL    HW113115   2.530   5.384   1.919 -1.2924  0.0388 -0.4988
  632SOL    HW213116   2.596   5.517   1.851 -1.7897 -0.6954 -2.4461
  633SOL     OW13117   3.343   1.902   4.427 -0.2929 -0.5846 -0.2436
  633SOL    HW113118   3.370   1.888   4.331 -0.3388  0.1977 -0.3743
  633SOL    HW213119   3.249   1.935   4.431  0.6683  2.2654 -0.1050
  634SOL     OW13120   3.832   8.475   2.673 -0.2911 -0.1868 -0.0849
  634SOL    HW113121   3.850   8.383   2.709 -0.3253 -0.1918 -0.0816
  634SOL    HW213122   3.794   8.531   2.746 -1.6231 -0.5758 -0.4665
  635SOL     OW13123   3.958   8.459   3.447 -0.1458  0.0080  0.6081
  635SOL    HW113124   3.919   8.537   3.400  0.0009 -0.1218  0.2689
  635SOL    HW213125   3.900   8.433   3.525 -0.6025 -0.0348  0.2540
  636SOL     OW13126   2.774   6.702   0.470 -0.0027 -0.0632  0.7405
  636SOL    HW113127   2.809   6.616   0.509  1.7676  0.5531  0.5304
  636SOL    HW213128   2.682   6.686   0.435  0.4273 -1.9785  0.3884
  637SOL     OW13129   2.341   5.947   4.050  0.0238  0.6721  0.5956
  637SOL    HW113130   2.386   5.862   4.025  0.5820  1.1037  0.1207
  637SOL    HW213131   2.242   5.937   4.039 -0.0157 -0.3292  1.8028
  638SOL     OW13132   2.789   9.865   6.142  0.2387  0.5127  0.3861
  638SOL    HW113133   2.869   9.829   6.189 -0.7593 -0.5888  1.2710
  638SOL    HW213134   2.723   9.899   6.209 -0.4864  0.4342 -0.2769
  639SOL     OW13135   6.601   9.556   4.134 -0.1079  0.0044  0.0516
  639SOL    HW113136   6.566   9.537   4.042 -1.5382  0.6665  0.4501
  639SOL    HW213137   6.669   9.487   4.158  1.7841  0.9686 -2.3064
  640SOL     OW13138   4.372   5.537   3.043 -0.4655  0.1285  0.3170
  640SOL    HW113139   4.294   5.599   3.035  0.7878  1.8042  0.7290
  640SOL    HW213140   4.441   5.561   2.975 -0.1500 -1.1303  0.1705
  641SOL     OW13141   1.691   5.358   3.593 -0.2147  0.6996  0.4032
  641SOL    HW113142   1.749   5.295   3.542  0.1478  0.0939  1.5543
  641SOL    HW213143   1.640   5.415   3.529 -0.1148 -0.3634 -0.6383
  642SOL     OW13144   9.339   8.106   0.842  0.7475 -0.3229  0.0932
  642SOL    HW113145   9.266   8.139   0.782  0.4638 -0.1700  0.5223
  642SOL    HW213146   9.311   8.114   0.937  1.9293  1.2006  0.3298
  643SOL     OW13147   0.053   8.675   6.276  0.1232 -0.4901  0.5256
  643SOL    HW113148   0.151   8.675   6.259  0.0592 -0.4536  0.1507
  643SOL    HW213149   0.013   8.591   6.239  0.0464 -0.6109  0.8768
  644SOL     OW13150   4.117   1.019   2.196 -0.4398  0.0496  0.0450
  644SOL    HW113151   4.071   1.011   2.284  0.5618 -0.1279  0.5691
  644SOL    HW213152   4.108   1.113   2.162 -0.2189  0.3135  0.6977
  645SOL     OW13153   3.526   9.395   4.886 -0.0262 -0.3297  0.4486
  645SOL    HW113154   3.470   9.329   4.935 -1.1236  0.8088  0.7531
  645SOL    HW213155   3.508   9.388   4.788 -1.0232  0.3235  0.5829
  646SOL     OW13156   3.325   6.840   6.513  0.2702  0.2834 -0.1446
  646SOL    HW113157   3.328   6.806   6.607  0.7307 -3.0349 -1.2920
  646SOL    HW213158   3.291   6.768   6.453  1.6472  1.7674 -2.7834
  647SOL     OW13159   2.923   5.512   2.632  0.0789  0.1497  0.0902
  647SOL    HW113160   2.892   5.605   2.609  0.9513  0.2621 -0.6550
  647SOL    HW213161   2.990   5.516   2.705  0.7466  0.1893 -0.5144
  648SOL     OW13162   0.279   0.320   6.441  0.3004 -0.3048 -0.4127
  648SOL    HW113163   0.370   0.361   6.455  0.6270 -0.7127 -1.3417
  648SOL    HW213164   0.231   0.317   6.529  1.0587  0.2040  0.0321
  649SOL     OW13165   1.319   0.524   6.416 -0.1725  0.7952  0.3226
  649SOL    HW113166   1.278   0.545   6.505  0.6447 -4.3095  2.0592
  649SOL    HW213167   1.402   0.469   6.430  2.2619  3.3080 -3.5012
  650SOL     OW13168   3.194   6.511   6.024 -0.0916  0.5549  0.7026
  650SOL    HW113169   3.267   6.456   5.982 -1.4045 -1.6575  1.1919
  650SOL    HW213170   3.174   6.590   5.966 -0.4633 -1.3209 -1.8334
  651SOL     OW13171   8.429   1.429   2.722 -0.1437 -0.1170  0.1118
  651SOL    HW113172   8.436   1.337   2.683  1.7231  0.4325 -0.9515
  651SOL    HW213173   8.515   1.477   2.707 -0.5121  1.2243  2.1783
  652SOL     OW13174   1.524   7.150   2.406  0.8993  0.3540  0.1259
  652SOL    HW113175   1.585   7.085   2.360 -1.9598 -1.4894 -1.2424
  652SOL    HW213176   1.477   7.206   2.338  0.4926  1.2308  1.1116
  653SOL     OW13177   5.207   0.479   2.957  0.2285  0.1660  0.0314
  653SOL    HW113178   5.164   0.538   3.026  0.0861 -0.3748  0.4072
  653SOL    HW213179   5.290   0.438   2.995  0.5164  0.3906 -0.3460
  654SOL     OW13180   1.139   0.832   3.765  0.2572  0.3053 -0.1410
  654SOL    HW113181   1.124   0.876   3.677 -0.2397  0.3093 -0.0595
  654SOL    HW213182   1.202   0.887   3.820 -0.3041  0.8899 -0.0688
  655SOL     OW13183   0.637   0.253   0.437 -0.0296 -0.1760 -0.2912
  655SOL    HW113184   0.674   0.313   0.507 -1.8290 -0.6315  1.1096
  655SOL    HW213185   0.642   0.297   0.348  0.0336  1.4216  0.4951
  656SOL     OW13186   9.798   5.754   4.241  0.1844 -0.3304  0.1650
  656SOL    HW113187   9.852   5.676   4.210  0.1395  0.1781 -1.2574
  656SOL    HW213188   9.704   5.745   4.208  0.7969  1.5878 -2.3434
  657SOL     OW13189   3.549   9.746   2.411  0.0929 -0.4658  0.5141
  657SOL    HW113190   3.596   9.830   2.381  3.6176 -2.3942  0.3957
  657SOL    HW213191   3.528   9.753   2.508 -1.1727  1.2261  0.1419
  658SOL     OW13192   2.504   2.515   6.249 -0.1346 -0.5571  0.0547
  658SOL    HW113193   2.453   2.447   6.197 -2.1598 -0.5337  1.9431
  658SOL    HW213194   2.445   2.595   6.265  0.9726  0.0668  1.0521
  659SOL     OW13195   1.596   6.610   3.959  0.2596  0.2271  0.1592
  659SOL    HW113196   1.622   6.644   3.869  0.6417  0.3947  0.3282
  659SOL    HW213197   1.504   6.640   3.981  0.3168  0.5288 -0.0073
  660SOL     OW13198   6.757   0.851   3.287  0.0492 -0.2173 -0.3060
  660SOL    HW113199   6.742   0.791   3.209 -0.1424  0.5751 -0.8878
  660SOL    HW213200   6.737   0.802   3.372 -0.1147 -0.9635 -0.7754
  661SOL     OW13201   4.642   8.215   3.459 -0.2556 -0.4180 -0.5344
  661SOL    HW113202   4.675   8.307   3.480  1.7582 -1.1216 -0.5989
  661SOL    HW213203   4.589   8.180   3.537 -2.0113  1.2025 -0.9360
  662SOL     OW13204   9.850   6.106   2.929  0.1610 -0.6634 -0.3619
  662SOL    HW113205   9.897   6.168   2.992  1.7870 -2.0646 -0.1607
  662SOL    HW213206   9.819   6.025   2.980  1.0942 -1.5950 -1.2551
  663SOL     OW13207   0.683   6.225   3.633  0.2007 -0.1490  0.2637
  663SOL    HW113208   0.658   6.304   3.578 -1.0722  0.3352  1.4999
  663SOL    HW213209   0.619   6.150   3.615  1.0370 -0.7099 -0.4488
  664SOL     OW13210   0.261   8.210   1.821  0.1587  0.4860 -0.2923
  664SOL    HW113211   0.199   8.197   1.899 -1.0608 -0.9609 -1.4660
  664SOL    HW213212   0.208   8.233   1.740  1.1354 -0.9013 -1.3446
  665SOL     OW13213   0.784   2.820   2.339 -0.5304 -0.0609 -0.3638
  665SOL    HW113214   0.794   2.916   2.364 -0.7523 -0.6406  2.0893
  665SOL    HW213215   0.875   2.779   2.327 -0.4256  0.2113 -0.4995
  666SOL     OW13216   0.943   0.996   2.911  0.0166 -0.3612 -0.4368
  666SOL    HW113217   0.937   1.096   2.916  0.8960 -0.1213 -3.4228
  666SOL    HW213218   0.867   0.961   2.856  0.6592 -1.2009 -0.7858
  667SOL     OW13219   3.337   7.625   0.339  0.1757 -0.6524  0.0878
  667SOL    HW113220   3.281   7.545   0.357 -0.6799 -0.5544 -2.0484
  667SOL    HW213221   3.290   7.707   0.373 -0.0259 -0.7896  0.1385
  668SOL     OW13222   9.042   8.015   3.980 -0.4467 -0.1854  0.2636
  668SOL    HW113223   9.083   7.991   4.068 -0.0055 -0.2460  0.0428
  668SOL    HW213224   9.103   8.077   3.931 -1.1740  0.6989  0.4502
  669SOL     OW13225   4.515   0.533   4.736 -0.0817  0.1160 -0.2535
  669SOL    HW113226   4.545   0.476   4.660 -0.5160  0.3862 -0.6290
  669SOL    HW213227   4.486   0.474   4.812  0.5358 -0.1505 -0.2217
  670SOL     OW13228   0.321   4.093   3.044  0.8128 -0.4637  0.0523
  670SOL    HW113229   0.385   4.154   3.091  0.7434 -0.7414  0.5079
  670SOL    HW213230   0.228   4.126   3.055  0.8844  0.0149 -0.7249
  671SOL     OW13231   8.616   4.943   2.279  0.1137  0.4622 -0.0853
  671SOL    HW113232   8.529   4.901   2.307 -0.1985  0.7426 -0.6460
  671SOL    HW213233   8.602   5.000   2.199  0.6582  1.1783  0.3174
  672SOL     OW13234   7.772   0.412   3.563 -0.2937 -0.2311 -0.1515
  672SOL    HW113235   7.810   0.324   3.592 -1.0464 -0.3289  0.5449
  672SOL    HW213236   7.846   0.470   3.527  0.4802 -0.4998  0.9977
  673SOL     OW13237   0.217   3.535   5.623  0.3666 -0.4199  0.2887
  673SOL    HW113238   0.159   3.527   5.704  1.6098 -0.9566  1.1377
  673SOL    HW213239   0.281   3.458   5.619  0.1032 -0.5826 -1.3852
  674SOL     OW13240   7.678   9.553   5.484  0.3271 -0.6785 -0.1345
  674SOL    HW113241   7.579   9.550   5.496  0.3309 -0.8240 -0.1423
  674SOL    HW213242   7.723   9.554   5.573  0.2418  2.0700 -0.0874
  675SOL     OW13243   0.470   3.538   3.795 -0.1231  0.3189 -0.0042
  675SOL    HW113244   0.413   3.481   3.854  0.6730 -0.8423 -0.3415
  675SOL    HW213245   0.450   3.517   3.699 -0.4264  1.2147 -0.1426
  676SOL     OW13246   1.247   2.658   2.252 -0.2123 -0.1713 -0.3268
  676SOL    HW113247   1.315   2.731   2.247  0.1639 -0.6017 -1.8587
  676SOL    HW213248   1.289   2.572   2.222 -1.3469 -0.5007 -1.0034
  677SOL     OW13249   9.506   7.718   3.393 -0.6507 -0.6472  0.2388
  677SOL    HW113250   9.516   7.793   3.458  0.6704  0.7124 -1.4604
  677SOL    HW213251   9.558   7.639   3.424 -0.2360 -0.1019  0.9432
  678SOL     OW13252   2.854   0.697   3.825  0.6149 -0.0694  0.0846
  678SOL    HW113253   2.923   0.657   3.765  0.2902  0.1082 -0.4154
  678SOL    HW213254   2.767   0.704   3.775  0.6241  1.0903  0.2177
  679SOL     OW13255   9.970   3.390   2.020 -0.7018  0.3842  0.9411
  679SOL    HW113256   9.934   3.437   1.939 -0.5470  2.6082  2.1106
  679SOL    HW213257  10.018   3.307   1.992  0.5329  1.8331 -1.3715
  680SOL     OW13258   5.046   3.697   4.592  0.2053 -0.0082 -0.2356
  680SOL    HW113259   4.973   3.704   4.660  0.2123 -0.8403 -0.1341
  680SOL    HW213260   5.122   3.756   4.619 -0.2934  0.6044 -0.1652
  681SOL     OW13261   2.228   4.504   6.030  0.1711  0.2386 -0.0572
  681SOL    HW113262   2.212   4.477   6.125 -0.5008 -0.1420 -0.2693
  681SOL    HW213263   2.180   4.590   6.011 -1.8153 -0.9795 -0.7349
  682SOL     OW13264   1.922   9.491   6.232 -0.1404  0.0402 -0.1877
  682SOL    HW113265   1.847   9.431   6.208  0.4731 -0.3543 -1.1326
  682SOL    HW213266   1.991   9.440   6.283 -0.0751  0.1798 -0.1337
  683SOL     OW13267   4.063   0.964   2.871  0.2274  0.2769 -0.5664
  683SOL    HW113268   4.154   1.003   2.889 -0.3283  0.7437  1.3946
  683SOL    HW213269   4.050   0.883   2.929 -1.3715  1.4202  0.7325
  684SOL     OW13270   0.249   7.619   6.646  0.1000  0.2035  0.4184
  684SOL    HW113271   0.184   7.569   6.702  0.2518  1.0114  1.3294
  684SOL    HW213272   0.328   7.561   6.626  0.0777 -0.0632  1.1011
  685SOL     OW13273   6.124   5.098   0.670  0.1404  0.0092  0.0223
  685SOL    HW113274   6.063   5.076   0.745 -0.3174  1.2597  0.0403
  685SOL    HW213275   6.133   5.019   0.609 -0.7547 -0.4819  0.5235
  686SOL     OW13276   2.916   6.735   4.638  0.4255 -0.2891  0.0214
  686SOL    HW113277   2.927   6.794   4.559 -1.4543  1.0189  0.7086
  686SOL    HW213278   3.006   6.707   4.672  1.2997  1.1592 -1.0637
  687SOL     OW13279   2.578   1.823   5.416  0.1202  0.5181  0.1530
  687SOL    HW113280   2.661   1.820   5.470  0.5297 -1.3771 -0.5450
  687SOL    HW213281   2.512   1.756   5.451  1.0735 -2.0728 -2.6906
  688SOL     OW13282   7.664   4.320   0.391 -0.0128 -0.0750  0.4221
  688SOL    HW113283   7.753   4.298   0.352  0.4695  0.2064  1.3504
  688SOL    HW213284   7.592   4.303   0.323  0.5902 -1.8546  0.2193
  689SOL     OW13285   9.601   7.124   1.076 -0.0096  0.4455 -0.3411
  689SOL    HW113286   9.630   7.048   1.134 -2.6891  0.3268  0.9018
  689SOL    HW213287   9.646   7.208   1.106 -1.2591  0.3588  1.8630
  690SOL     OW13288   8.023   3.640   2.845  0.0163  0.1414  0.1906
  690SOL    HW113289   7.931   3.632   2.883 -1.3017 -2.0879 -3.2246
  690SOL    HW213290   8.018   3.677   2.753  2.3341 -1.6637 -0.7191
  691SOL     OW13291   8.964   6.431   0.459  0.2333  0.0847 -0.2137
  691SOL    HW113292   9.012   6.346   0.481 -0.3504 -0.2521 -0.2042
  691SOL    HW213293   8.921   6.422   0.369  3.0713  1.6603 -1.7983
  692SOL     OW13294   4.263   2.230   0.290 -0.4374 -0.0277 -0.3813
  692SOL    HW113295   4.362   2.233   0.303 -0.6993 -3.2066  3.4632
  692SOL    HW213296   4.223   2.315   0.323  0.7130 -0.3261  1.8751
  693SOL     OW13297   1.546   1.421   5.683  0.1975  0.2435  0.4226
  693SOL    HW113298   1.502   1.510   5.693  3.1383  1.9239 -0.8593
  693SOL    HW213299   1.603   1.403   5.764  0.3620 -0.0415  0.2437
  694SOL     OW13300   1.340   2.072   5.330 -0.0889  0.1566  0.3553
  694SOL    HW113301   1.281   2.145   5.297 -2.4579 -1.1029  1.6649
  694SOL    HW213302   1.419   2.112   5.378 -0.6319  1.8454 -0.1164
  695SOL     OW13303   9.625   4.238   6.289 -0.0463 -0.1207 -0.1483
  695SOL    HW113304   9.529   4.229   6.262 -0.5053  0.9008  1.0827
  695SOL    HW213305   9.683   4.234   6.208 -1.1789  0.0486 -0.9810
  696SOL     OW13306   2.432   4.234   1.801 -0.2520 -0.6767 -0.0629
  696SOL    HW113307   2.344   4.188   1.795 -1.2381  1.0601  0.6049
  696SOL    HW213308   2.419   4.333   1.793  1.5513 -0.3401  0.7126
  697SOL     OW13309   2.993   3.371   1.300 -0.1576 -0.1135 -0.4980
  697SOL    HW113310   2.962   3.362   1.395  0.7632 -0.1457 -0.1883
  697SOL    HW213311   3.084   3.331   1.291 -0.3682 -0.3883 -1.4730
  698SOL     OW13312   0.153   6.205   5.174 -0.4806 -0.2631  0.5364
  698SOL    HW113313   0.096   6.127   5.150  0.7904 -1.3054  0.8573
  698SOL    HW213314   0.135   6.232   5.269 -1.0598 -0.0402  0.3637
  699SOL     OW13315   1.487   7.940   1.983  0.1999  0.1618 -0.4380
  699SOL    HW113316   1.559   7.886   1.939 -0.4679 -0.5339 -0.6848
  699SOL    HW213317   1.509   7.949   2.081  0.8228  0.2882 -0.5848
  700SOL     OW13318   8.936   8.697   6.020 -0.2064  0.0237  0.5273
  700SOL    HW113319   8.950   8.790   6.055 -0.1460 -0.2252  1.1872
  700SOL    HW213320   9.025   8.650   6.017 -0.1121  0.2744 -0.6407
  701SOL     OW13321   3.091   2.220   4.370 -0.0208 -0.3268  0.6148
  701SOL    HW113322   3.096   2.124   4.397 -0.7609 -0.2486  1.0673
  701SOL    HW213323   3.023   2.231   4.297  1.9311 -0.5246 -1.2650
  702SOL     OW13324   0.676   9.319   1.994  0.3134  0.0510  0.0341
  702SOL    HW113325   0.688   9.350   1.900  0.3712  0.4707  0.1822
  702SOL    HW213326   0.578   9.312   2.014  0.2812  1.9279  0.5953
  703SOL     OW13327   5.176   6.767   1.784  0.3391 -0.5709 -0.3313
  703SOL    HW113328   5.119   6.829   1.730 -2.2261 -0.4426  2.3584
  703SOL    HW213329   5.215   6.816   1.862 -0.5514 -1.9558  1.0232
  704SOL     OW13330   9.005   0.832   0.581 -0.2664  0.2502  0.3379
  704SOL    HW113331   9.072   0.797   0.515  1.2942  2.7960  0.4782
  704SOL    HW213332   8.974   0.758   0.640  2.7783 -0.9434  0.5276
  705SOL     OW13333   1.654   7.026   3.807  0.2706  0.5879 -1.0525
  705SOL    HW113334   1.588   7.056   3.738  0.3579  0.7743 -1.0552
  705SOL    HW213335   1.606   6.982   3.882  0.1351  0.7834 -1.0235
  706SOL     OW13336   0.199   0.593   4.504 -0.2055  0.3640  0.0573
  706SOL    HW113337   0.114   0.540   4.495  1.1314 -2.0636  1.2989
  706SOL    HW213338   0.207   0.627   4.598  0.8722 -0.6575  0.3491
  707SOL     OW13339   3.620   7.941   5.271 -0.0977 -0.0134 -0.0732
  707SOL    HW113340   3.544   7.906   5.216  0.3023  1.0984 -1.3834
  707SOL    HW213341   3.695   7.966   5.210 -0.0275  2.2124  0.8909
  708SOL     OW13342   0.101   5.250   1.539  0.8983 -0.2441 -0.3407
  708SOL    HW113343   0.163   5.279   1.466 -0.4553  0.0201 -1.4016
  708SOL    HW213344   0.138   5.168   1.583  2.9886  1.0391  0.3730
  709SOL     OW13345   3.324   9.062   0.064 -0.4605 -0.0828 -0.0746
  709SOL    HW113346   3.302   9.090   0.157 -0.3345 -1.4124  0.3661
  709SOL    HW213347   3.276   9.120  -0.001 -2.6630 -0.8394  0.8457
  710SOL     OW13348   8.162   5.280   6.505 -1.0907 -0.5550  0.4866
  710SOL    HW113349   8.196   5.374   6.511 -4.0549  0.6440 -0.4608
  710SOL    HW213350   8.208   5.234   6.429  0.2135  0.1672  0.8023
  711SOL     OW13351   2.182   2.262   3.387 -0.0941 -0.2218 -0.1949
  711SOL    HW113352   2.184   2.262   3.487 -0.6497  1.5958 -0.1588
  711SOL    HW213353   2.124   2.337   3.355 -0.7075 -1.3748 -1.8748
  712SOL     OW13354   1.005   6.926   1.792 -0.0672 -0.1455  0.2797
  712SOL    HW113355   0.975   6.939   1.886 -1.6951  1.1927 -0.4057
  712SOL    HW213356   0.997   7.012   1.742 -1.1895 -1.3296 -1.6240
  713SOL     OW13357   4.727   1.808   6.203 -0.2486  0.0534 -0.2534
  713SOL    HW113358   4.700   1.784   6.296 -0.0435  0.6819 -0.0286
  713SOL    HW213359   4.692   1.899   6.181  0.5975  0.3455 -0.4133
  714SOL     OW13360   4.484   5.104   2.437 -0.0870  0.0366  0.1611
  714SOL    HW113361   4.420   5.170   2.399  0.1335  0.2343  0.1323
  714SOL    HW213362   4.510   5.132   2.530 -0.7521 -0.5336  0.5237
  715SOL     OW13363   1.985   0.168   0.336  0.2550  1.0946  0.5419
  715SOL    HW113364   2.020   0.160   0.243 -2.8611 -0.7788 -0.5152
  715SOL    HW213365   1.906   0.229   0.337  0.1298  0.9258  1.9136
  716SOL     OW13366   2.619   3.079   3.375  0.5383 -0.4711  0.0350
  716SOL    HW113367   2.644   3.000   3.431 -0.2659 -0.9595 -0.2811
  716SOL    HW213368   2.586   3.047   3.286 -0.0967  0.2081  0.0252
  717SOL     OW13369   5.773   0.288   5.623  0.2025 -0.3831  0.1012
  717SOL    HW113370   5.798   0.239   5.706  0.1730 -0.5338  0.0219
  717SOL    HW213371   5.701   0.354   5.644 -0.4346 -1.0488  0.0176
  718SOL     OW13372   9.981   6.983   3.892  0.2084 -0.2250 -0.1113
  718SOL    HW113373  10.022   6.929   3.819 -1.0841 -1.0716 -0.2249
  718SOL    HW213374   9.924   7.055   3.853 -1.0621 -1.1230  0.0305
  719SOL     OW13375   3.176   4.411   1.892 -0.4304 -0.2405  0.5382
  719SOL    HW113376   3.206   4.423   1.986 -0.3783 -1.0252  0.6305
  719SOL    HW213377   3.153   4.314   1.877 -0.6031 -0.0874 -0.2003
  720SOL     OW13378   3.684   9.195   5.511  0.3694  0.3444  0.4744
  720SOL    HW113379   3.670   9.174   5.414  1.9455 -0.2367  0.3617
  720SOL    HW213380   3.639   9.126   5.567  1.1665 -0.4565  0.1361
  721SOL     OW13381   5.519   4.759   1.424  0.0488  0.3654  0.0793
  721SOL    HW113382   5.451   4.829   1.447  0.7330  0.8227  0.7517
  721SOL    HW213383   5.606   4.804   1.402  0.2143 -0.2274 -0.4779
  722SOL     OW13384   9.873   0.701   6.332  0.1280  0.2917 -0.2022
  722SOL    HW113385   9.962   0.723   6.372  1.2246 -1.4086 -1.6384
  722SOL    HW213386   9.886   0.667   6.239 -1.9236 -1.1221 -0.0003
  723SOL     OW13387   4.583   3.007   4.101  0.1561 -0.5225 -0.7760
  723SOL    HW113388   4.606   2.963   4.014  0.2229 -0.5420 -0.7485
  723SOL    HW213389   4.601   2.944   4.176 -1.3290 -1.0674 -0.8539
  724SOL     OW13390   5.715   5.332   0.531 -0.4831  0.3626  0.3234
  724SOL    HW113391   5.780   5.293   0.466 -0.5934  0.1628  0.3310
  724SOL    HW213392   5.679   5.259   0.590 -1.5262  0.2798 -0.3952
  725SOL     OW13393   0.585   9.449   5.967  0.4783 -0.5649 -0.0778
  725SOL    HW113394   0.641   9.472   6.046 -0.4043 -0.6029  0.5687
  725SOL    HW213395   0.613   9.504   5.888 -0.5743  1.5900  1.0320
  726SOL     OW13396   9.047   8.237   4.807  0.1639 -0.2142  0.0960
  726SOL    HW113397   9.012   8.213   4.897 -1.1860  2.8032  0.4451
  726SOL    HW213398   9.111   8.314   4.815 -0.1334  0.2253 -1.5333
  727SOL     OW13399   2.942   3.170   2.623  0.1785  0.2816 -0.1997
  727SOL    HW113400   2.960   3.075   2.595 -0.7528 -0.2439  0.9783
  727SOL    HW213401   2.884   3.214   2.554  0.4913 -0.0425 -0.6761
  728SOL     OW13402   8.971   2.893   2.486 -0.2012 -0.0721 -0.2386
  728SOL    HW113403   8.954   2.795   2.473  0.3398 -0.1485 -0.3890
  728SOL    HW213404   8.950   2.942   2.401  0.0981 -0.1340 -0.3479
  729SOL     OW13405   4.062   9.462   0.020  0.2478 -0.0032  0.5299
  729SOL    HW113406   3.987   9.517  -0.018 -0.5035 -0.9260  0.6585
  729SOL    HW213407   4.092   9.502   0.107 -0.5101  0.0240  0.7813
  730SOL     OW13408   4.075   0.492   1.783 -0.0302 -0.0006 -0.8072
  730SOL    HW113409   4.119   0.582   1.790  1.3517 -0.6580 -0.9083
  730SOL    HW213410   4.012   0.492   1.705 -0.4903  1.0634 -0.4497
  731SOL     OW13411   9.752   8.885   4.047 -0.1747 -0.0549  0.4318
  731SOL    HW113412   9.696   8.871   4.129  0.4189  0.0195  0.8534
  731SOL    HW213413   9.738   8.977   4.012  1.2548  0.7086  1.7618
  732SOL     OW13414   9.031   9.577   3.412 -0.2298 -0.2597  0.4006
  732SOL    HW113415   8.956   9.618   3.359  2.4739  0.3811 -3.0654
  732SOL    HW213416   9.089   9.649   3.449  1.5335 -0.7977 -1.2396
  733SOL     OW13417   7.800   0.247   4.963  0.9717 -0.4102 -0.3026
  733SOL    HW113418   7.874   0.218   4.902  1.2204 -2.0277  0.7385
  733SOL    HW213419   7.735   0.304   4.912  0.9199 -2.1127 -2.2058
  734SOL     OW13420   3.469   3.593   2.503  0.0079  0.0072  0.0401
  734SOL    HW113421   3.425   3.602   2.593  1.0984 -2.0114  0.8151
  734SOL    HW213422   3.561   3.557   2.515  0.2889  0.0615 -1.8855
  735SOL     OW13423   9.487   7.374   3.662 -0.0590 -0.1950 -0.0453
  735SOL    HW113424   9.405   7.317   3.670  0.0427 -0.3654 -0.2017
  735SOL    HW213425   9.475   7.458   3.714 -0.3579 -0.1910 -0.1213
  736SOL     OW13426   2.750   0.451   4.519  0.5126  0.3464  0.1002
  736SOL    HW113427   2.821   0.501   4.471 -0.4158  0.7582 -0.8701
  736SOL    HW213428   2.732   0.494   4.607  0.5940  0.9913 -0.1951
  737SOL     OW13429   8.360   3.384   4.206  0.2971 -0.1537 -0.9155
  737SOL    HW113430   8.306   3.380   4.291  1.4064 -1.0684 -0.2266
  737SOL    HW213431   8.457   3.388   4.229  0.5809  0.1689 -2.1477
  738SOL     OW13432   8.261   7.266   1.566  0.0772 -0.3207 -0.3566
  738SOL    HW113433   8.246   7.229   1.658 -1.1670 -0.0674 -0.4579
  738SOL    HW213434   8.222   7.204   1.498 -2.0338  1.1438 -0.5275
  739SOL     OW13435   6.394   4.752   0.251  0.4622  0.4379  0.0322
  739SOL    HW113436   6.362   4.689   0.181  0.4125 -0.2578  0.6684
  739SOL    HW213437   6.363   4.720   0.341 -0.4665  1.9477  0.2674
  740SOL     OW13438   1.978   1.057   4.697  0.1605  0.1295 -0.2666
  740SOL    HW113439   2.008   0.988   4.630  0.4780  0.8247 -0.8506
  740SOL    HW213440   2.014   1.035   4.787 -0.7151 -1.1227 -0.2008
  741SOL     OW13441   2.275   0.013   3.641  0.2388  0.0376  0.1645
  741SOL    HW113442   2.210  -0.046   3.594 -0.8204 -0.0406  1.6768
  741SOL    HW213443   2.345  -0.043   3.686  1.4077  0.1249 -1.5070
  742SOL     OW13444   8.794   4.184   2.283 -0.0477 -0.0207 -0.4486
  742SOL    HW113445   8.766   4.250   2.213  0.6230 -0.8454 -1.5124
  742SOL    HW213446   8.846   4.231   2.354  0.4905  0.6071 -1.2362
  743SOL     OW13447   0.535   3.851   0.107  0.2293 -0.5880 -0.5521
  743SOL    HW113448   0.500   3.927   0.162 -0.6249 -1.5754  0.2831
  743SOL    HW213449   0.582   3.785   0.166  0.3819 -1.0393 -1.1716
  744SOL     OW13450   3.318   4.234   2.570 -0.0691  0.2957  0.6481
  744SOL    HW113451   3.233   4.264   2.614 -0.7961 -1.0090  0.1664
  744SOL    HW213452   3.317   4.261   2.474  0.1398  0.4111  0.6770
  745SOL     OW13453   1.096   3.697   0.377  0.1212  0.1818  0.2854
  745SOL    HW113454   1.081   3.604   0.412 -0.3350 -0.1072 -0.6346
  745SOL    HW213455   1.143   3.691   0.288  0.5436  0.8569  0.4634
  746SOL     OW13456   4.840   1.239   0.641  0.8650 -0.2897  0.4535
  746SOL    HW113457   4.837   1.316   0.577 -2.5020 -0.1715  0.6787
  746SOL    HW213458   4.867   1.272   0.731 -1.8226  0.9402  0.8680
  747SOL     OW13459   9.915   0.450   0.255  0.7453 -0.1651 -0.8254
  747SOL    HW113460   9.953   0.361   0.278  0.3179 -0.1969 -0.2466
  747SOL    HW213461   9.971   0.522   0.295 -0.8740 -0.2477  1.6821
  748SOL     OW13462   8.917   2.423   4.685  0.1502 -0.0232 -0.2665
  748SOL    HW113463   8.959   2.504   4.643  0.8969  0.6350  1.6995
  748SOL    HW213464   8.932   2.344   4.626  0.6437  0.9916 -1.5319
  749SOL     OW13465   1.560   1.497   3.694  0.1367 -0.2919  0.3445
  749SOL    HW113466   1.565   1.418   3.633  0.5047  0.6609 -0.8497
  749SOL    HW213467   1.464   1.515   3.718  0.0162 -0.8018  0.2513
  750SOL     OW13468   9.406   1.337   5.068 -0.5576  0.3891 -0.4454
  750SOL    HW113469   9.360   1.330   4.979  2.3085 -0.3055 -1.9190
  750SOL    HW213470   9.476   1.408   5.064 -0.6193  0.5641  1.3683
  751SOL     OW13471   1.605   5.808   2.209  0.1141  0.3511  0.6031
  751SOL    HW113472   1.511   5.818   2.178 -0.4528 -1.0696  1.8098
  751SOL    HW213473   1.613   5.841   2.303  1.2483  2.1869 -0.0971
  752SOL     OW13474   2.914   9.454   1.736 -0.3940 -0.1761 -0.2223
  752SOL    HW113475   2.880   9.547   1.747  1.1464  0.2446  1.1824
  752SOL    HW213476   3.012   9.457   1.716 -0.4419 -1.4917 -0.7327
  753SOL     OW13477   6.867   8.499   3.018 -0.1779 -0.0650 -0.2281
  753SOL    HW113478   6.920   8.438   2.959  2.4249  1.3639  0.5415
  753SOL    HW213479   6.807   8.445   3.076 -1.5853 -1.5930 -2.9924
  754SOL     OW13480   3.502   3.103   6.633  0.1659  0.0232  0.0983
  754SOL    HW113481   3.580   3.143   6.585  1.2443 -0.6300  1.2922
  754SOL    HW213482   3.449   3.046   6.570  1.2489 -0.3695 -0.4610
  755SOL     OW13483   0.811   0.937   4.882  0.4253 -0.1957  0.4571
  755SOL    HW113484   0.765   0.881   4.814  0.7567 -0.6192  0.5827
  755SOL    HW213485   0.896   0.972   4.844 -0.1541  0.8660  0.1057
  756SOL     OW13486   9.270   3.331   3.053  0.0107  0.2262  0.2139
  756SOL    HW113487   9.225   3.242   3.042  0.4678 -0.0429  0.5142
  756SOL    HW213488   9.353   3.333   2.996 -0.5219  0.8203 -0.5499
  757SOL     OW13489   2.284   9.514   4.137  0.5289  0.3466 -0.0223
  757SOL    HW113490   2.205   9.542   4.193  0.5426  0.0301  0.1550
  757SOL    HW213491   2.253   9.453   4.065  0.8587 -1.1191  1.0595
  758SOL     OW13492   5.203   8.609   4.357 -0.4154 -0.1307  0.1050
  758SOL    HW113493   5.290   8.658   4.366 -0.4029  0.1793 -1.5319
  758SOL    HW213494   5.143   8.659   4.295 -0.3791 -2.1876 -1.6773
  759SOL     OW13495   8.987   5.515   2.349 -0.1851  0.5458 -0.1040
  759SOL    HW113496   8.972   5.423   2.314 -2.7141  1.1417 -0.6991
  759SOL    HW213497   9.022   5.511   2.442 -0.2489 -0.9955 -0.1407
  760SOL     OW13498   8.567   0.861   5.181  0.4038  0.4737  0.0550
  760SOL    HW113499   8.584   0.953   5.216 -0.4008  0.6227  0.0827
  760SOL    HW213500   8.650   0.825   5.139  0.5931  1.4067 -0.3915
  761SOL     OW13501   8.019   0.428   6.005  0.4218 -0.4327 -0.3047
  761SOL    HW113502   7.996   0.472   6.092  0.4664  0.6391 -0.8231
  761SOL    HW213503   8.110   0.458   5.976 -0.2243  0.4266 -1.4870
  762SOL     OW13504   9.010   1.943   2.991 -0.3971 -0.1514 -0.4076
  762SOL    HW113505   9.014   1.853   2.948 -1.8194  0.1630 -1.2217
  762SOL    HW213506   8.938   1.943   3.060  0.8432 -0.1828  0.9255
  763SOL     OW13507   1.638   4.917   5.698 -0.5118  0.3472  0.6891
  763SOL    HW113508   1.723   4.889   5.654  0.1885 -2.3832  3.5979
  763SOL    HW213509   1.659   4.965   5.783 -1.8063 -1.0757  1.8550
  764SOL     OW13510   6.855   1.408   0.744  0.0199  0.1957  0.0205
  764SOL    HW113511   6.953   1.403   0.761  0.0586 -1.7940 -0.5902
  764SOL    HW213512   6.805   1.369   0.821 -0.2365  0.1336 -0.1744
  765SOL     OW13513   8.066   0.216   5.751 -0.0422  0.2512 -0.1873
  765SOL    HW113514   8.131   0.142   5.730  1.0897  0.8141  1.1953
  765SOL    HW213515   8.054   0.222   5.850 -0.0394  1.9842 -0.2722
  766SOL     OW13516   0.737   0.911   3.908  0.2712 -0.5233 -0.4011
  766SOL    HW113517   0.642   0.915   3.939  0.2042 -2.0706 -0.3544
  766SOL    HW213518   0.793   0.973   3.963 -0.3847 -0.9757  0.7968
  767SOL     OW13519   0.263   2.901   1.230 -0.0210 -0.0393  0.6829
  767SOL    HW113520   0.286   2.805   1.212 -1.8685 -0.3450 -0.2285
  767SOL    HW213521   0.344   2.950   1.262  1.3174 -1.5468 -0.3262
  768SOL     OW13522   1.322   2.806   2.832 -0.7271 -0.3152 -0.0500
  768SOL    HW113523   1.407   2.857   2.819  0.0465 -1.1720  1.4895
  768SOL    HW213524   1.280   2.833   2.919 -2.2481  0.3963 -0.9948
  769SOL     OW13525   2.787   3.282   2.977  0.5289  0.1635  0.5213
  769SOL    HW113526   2.749   3.304   3.067  0.5092 -0.5137  0.6825
  769SOL    HW213527   2.796   3.366   2.924 -2.1846  0.2307  0.0784
  770SOL     OW13528   8.814   5.094   6.566  0.4799 -0.3385 -0.6532
  770SOL    HW113529   8.723   5.052   6.564  0.2135  0.2297 -1.0005
  770SOL    HW213530   8.864   5.069   6.483 -1.3681  3.6002 -3.1133
  771SOL     OW13531   7.358   1.666   4.464  0.0154  0.1009 -0.0704
  771SOL    HW113532   7.370   1.584   4.409 -3.1727 -0.4311 -0.0361
  771SOL    HW213533   7.323   1.740   4.408 -0.0389  0.5404  0.5334
  772SOL     OW13534   2.492   8.043   3.030  0.1225 -0.1736  0.3718
  772SOL    HW113535   2.471   7.950   3.000  0.7112  0.0904 -0.8993
  772SOL    HW213536   2.433   8.067   3.107 -0.0328 -1.5976  0.7127
  773SOL     OW13537   6.658   7.439   4.526  0.3972 -0.2115  0.4476
  773SOL    HW113538   6.694   7.349   4.551 -0.2177 -0.1885  1.4260
  773SOL    HW213539   6.559   7.442   4.544  0.3203  0.4933 -0.0579
  774SOL     OW13540   9.542   3.381   5.699 -0.0319  0.6501  0.0792
  774SOL    HW113541   9.540   3.356   5.602  0.3810  2.3524 -0.3846
  774SOL    HW213542   9.566   3.300   5.754 -1.6712 -0.6725 -1.0958
  775SOL     OW13543   5.148   7.442   3.636 -0.0574 -0.0347  0.7046
  775SOL    HW113544   5.246   7.450   3.616 -0.4652  1.1341 -0.9328
  775SOL    HW213545   5.127   7.347   3.658  1.2185 -0.5658 -0.2553
  776SOL     OW13546   0.158   7.492   2.168 -0.1387  0.1126  0.6041
  776SOL    HW113547   0.063   7.473   2.147  0.2108 -2.6488  1.3320
  776SOL    HW213548   0.186   7.577   2.123 -2.9519  1.0421  0.5174
  777SOL     OW13549   3.195   2.902   4.998  0.1612 -0.0834 -0.1842
  777SOL    HW113550   3.244   2.816   5.014 -0.4357 -0.2367  0.9099
  777SOL    HW213551   3.260   2.977   4.988  0.6431 -0.3245  1.0295
  778SOL     OW13552   3.108   6.002   5.585  0.3301 -0.4805  0.5371
  778SOL    HW113553   3.142   5.963   5.671 -0.9662 -1.8329  0.4631
  778SOL    HW213554   3.012   6.027   5.596  0.2476 -0.3602 -0.4411
  779SOL     OW13555   2.899   6.788   2.616 -0.0098 -0.1264 -0.2900
  779SOL    HW113556   2.944   6.720   2.673  1.5737 -0.4171 -1.8604
  779SOL    HW213557   2.805   6.803   2.649  0.2465 -1.6990  1.1761
  780SOL     OW13558   8.744   6.240   4.998 -0.1387  0.2812  0.6344
  780SOL    HW113559   8.681   6.198   5.063 -0.7024  1.1301  0.6380
  780SOL    HW213560   8.810   6.171   4.968 -1.1939 -0.6791  0.4573
  781SOL     OW13561   7.292   7.458   5.494 -0.2638  0.0713  0.0581
  781SOL    HW113562   7.341   7.492   5.575  1.7589  2.5685 -2.1234
  781SOL    HW213563   7.354   7.406   5.436 -1.4003 -0.7240 -0.4624
  782SOL     OW13564   5.853   9.515   4.055 -0.2484  0.4857  0.3581
  782SOL    HW113565   5.764   9.470   4.045  1.0676 -1.8137 -1.3501
  782SOL    HW213566   5.886   9.503   4.149 -0.7845 -0.4616  0.4265
  783SOL     OW13567   4.229   2.413   4.208 -0.5399 -0.3377  0.0970
  783SOL    HW113568   4.183   2.411   4.119 -0.1565 -1.1395 -0.0855
  783SOL    HW213569   4.269   2.504   4.222 -2.0322  0.3177  0.1963
  784SOL     OW13570   9.893   0.214   5.374  0.5014 -0.4101 -0.3539
  784SOL    HW113571   9.877   0.160   5.292 -0.9482 -0.2830 -0.1537
  784SOL    HW213572   9.806   0.248   5.410  1.1914  0.1441  0.8214
  785SOL     OW13573   4.477   9.989   2.321 -0.2395 -0.1023  0.0117
  785SOL    HW113574   4.502   9.935   2.401 -3.2231  0.3907  1.3737
  785SOL    HW213575   4.459   9.929   2.243  1.3578 -0.6856  0.0912
  786SOL     OW13576   5.195   0.566   2.410 -0.1501  0.3972 -0.4886
  786SOL    HW113577   5.217   0.481   2.459  0.7477 -0.3791 -2.1715
  786SOL    HW213578   5.096   0.571   2.396 -0.0291 -1.5995 -2.4354
  787SOL     OW13579   2.585   2.439   6.641  0.5781 -0.0953 -0.1320
  787SOL    HW113580   2.500   2.415   6.594 -0.7621  1.7958  1.2512
  787SOL    HW213581   2.596   2.381   6.721 -0.5192  0.9931  0.8493
  788SOL     OW13582   4.100   3.896   3.054  0.2756 -0.2924  0.4305
  788SOL    HW113583   4.034   3.970   3.044 -0.4297 -0.7866  1.3868
  788SOL    HW213584   4.184   3.932   3.095 -0.4776 -0.2294  1.9520
  789SOL     OW13585   0.494   8.147   2.592  0.2366  0.0121  0.0480
  789SOL    HW113586   0.530   8.190   2.509  1.2778 -0.7369  0.1070
  789SOL    HW213587   0.395   8.158   2.594  0.2638  0.5673 -0.9927
  790SOL     OW13588   5.192   0.463   5.954  0.2641  0.0928 -0.5045
  790SOL    HW113589   5.169   0.462   6.051  0.5084  1.1686 -0.4272
  790SOL    HW213590   5.140   0.393   5.906  0.4590 -0.7241  0.4731
  791SOL     OW13591   8.643   8.231   6.017  0.1533 -0.0860 -0.0337
  791SOL    HW113592   8.642   8.170   6.096 -0.7479  0.9853  0.8032
  791SOL    HW213593   8.550   8.243   5.982  0.6421 -1.1132 -1.7029
  792SOL     OW13594   3.371   2.911   3.119  1.0110  0.7296  0.0134
  792SOL    HW113595   3.296   2.850   3.146  0.8492 -0.2769 -2.5780
  792SOL    HW213596   3.425   2.935   3.200 -1.0291  0.0395  1.6380
  793SOL     OW13597   6.003   8.510   4.893  0.2440  0.0359  0.1028
  793SOL    HW113598   5.959   8.556   4.970  0.4635 -0.1156  0.3205
  793SOL    HW213599   6.102   8.522   4.899  0.3819 -1.2143  0.6597
  794SOL     OW13600   2.046   1.948   1.067  0.0349 -0.2889  0.2391
  794SOL    HW113601   2.091   1.970   1.154 -1.0816  1.3003  0.4278
  794SOL    HW213602   1.951   1.980   1.069 -0.5785 -1.9675 -0.8493
  795SOL     OW13603   9.109   2.433   0.113 -0.0959 -0.0892 -0.6481
  795SOL    HW113604   9.016   2.398   0.124  0.1242 -1.1947 -2.0760
  795SOL    HW213605   9.160   2.419   0.197 -0.9209 -0.3872 -0.1878
  796SOL     OW13606   8.871   3.454   6.006  0.0830  0.5044 -0.6576
  796SOL    HW113607   8.883   3.360   5.973 -3.8816 -1.4819  3.0970
  796SOL    HW213608   8.934   3.471   6.082  0.2481  0.6165 -0.8196
  797SOL     OW13609   2.833   0.542   0.835  0.2926 -0.2298  0.0149
  797SOL    HW113610   2.815   0.640   0.846 -0.6710 -0.3447 -0.4750
  797SOL    HW213611   2.930   0.524   0.852  0.3521  0.7115  0.7555
  798SOL     OW13612   4.697   1.884   4.567  0.5962 -0.3943 -0.4894
  798SOL    HW113613   4.737   1.881   4.475  0.8295  0.4635 -0.4186
  798SOL    HW213614   4.768   1.866   4.635  0.3389 -1.4694 -0.4882
  799SOL     OW13615   8.037   3.018   1.085 -0.0711  0.5391  0.0738
  799SOL    HW113616   7.961   3.035   1.148 -1.0821  0.2212 -1.0398
  799SOL    HW213617   8.024   3.073   1.002  0.4600 -0.1678 -0.4862
  800SOL     OW13618   9.592   2.305   3.821 -0.8357  0.6519  0.2704
  800SOL    HW113619   9.505   2.261   3.800 -0.2434 -0.1377 -0.5731
  800SOL    HW213620   9.576   2.386   3.877 -2.1626  0.9231 -0.4891
  801SOL     OW13621   6.643   8.041   5.531  0.2313  0.1408  0.0628
  801SOL    HW113622   6.668   8.048   5.434 -0.8684  1.6897 -0.1201
  801SOL    HW213623   6.661   7.948   5.563  0.9114 -0.2986 -1.5435
  802SOL     OW13624   8.413   4.424   5.752 -0.0600  1.3986 -0.1803
  802SOL    HW113625   8.502   4.428   5.798  0.4152 -1.3054 -0.7929
  802SOL    HW213626   8.341   4.446   5.817  0.5231 -3.0521  2.1914
  803SOL     OW13627   4.816   2.939   1.873  0.3410 -0.2769  0.1274
  803SOL    HW113628   4.805   2.850   1.918 -1.2865  0.4850  1.3129
  803SOL    HW213629   4.782   3.011   1.934  0.0279  0.9952 -1.5236
  804SOL     OW13630   2.342   2.822   0.352  0.5360  0.1007 -0.1583
  804SOL    HW113631   2.248   2.834   0.384  0.3103 -0.2942 -0.6574
  804SOL    HW213632   2.351   2.865   0.262  0.6845 -0.3454 -0.3547
  805SOL     OW13633   1.172   9.214   1.293 -0.3263  0.1469 -0.1932
  805SOL    HW113634   1.104   9.191   1.362  0.4141 -0.6974  0.2556
  805SOL    HW213635   1.226   9.134   1.270  1.1763  1.0348  0.1731
  806SOL     OW13636   7.409   2.092   4.898  0.1497 -0.0508  0.5539
  806SOL    HW113637   7.426   2.190   4.892 -0.7695  0.1069  0.4281
  806SOL    HW213638   7.459   2.054   4.976 -0.1526  0.6763  1.1092
  807SOL     OW13639   5.778   7.855   4.121  0.1253  0.4178  0.1360
  807SOL    HW113640   5.785   7.918   4.044 -0.4983 -0.8933 -0.9930
  807SOL    HW213641   5.844   7.781   4.110 -0.5948 -0.2674  0.4118
  808SOL     OW13642   6.198   0.230   2.963 -0.0912  0.3244 -0.1643
  808SOL    HW113643   6.164   0.291   3.034 -0.8832  1.7456 -1.7082
  808SOL    HW213644   6.298   0.224   2.968  0.1236  2.8896 -0.8360
  809SOL     OW13645   4.356   8.819   3.199 -0.4735 -0.2764  0.6690
  809SOL    HW113646   4.310   8.730   3.201 -0.7008 -0.1481  2.2685
  809SOL    HW213647   4.454   8.806   3.215 -0.1087 -0.4545 -1.6451
  810SOL     OW13648   4.273   8.564   1.771  0.1718 -0.6887  0.9670
  810SOL    HW113649   4.186   8.578   1.723 -1.0825 -1.9392  2.8227
  810SOL    HW213650   4.338   8.520   1.709 -1.1398 -1.4915  0.1403
  811SOL     OW13651   8.404   3.057   4.173  0.1451  0.3500  0.7380
  811SOL    HW113652   8.464   2.993   4.221  0.2607  1.0002  1.4689
  811SOL    HW213653   8.458   3.116   4.114  0.1788  0.6770  1.0982
  812SOL     OW13654   1.021   1.886   0.553  0.2658 -0.8214 -0.0970
  812SOL    HW113655   0.930   1.923   0.569  0.6591 -0.3306  1.0672
  812SOL    HW213656   1.054   1.841   0.637  1.4263 -0.2581 -0.2405
  813SOL     OW13657   2.374   3.528   5.094  0.0280  0.4867  0.5307
  813SOL    HW113658   2.346   3.555   5.186  1.3067 -0.6873  1.2976
  813SOL    HW213659   2.462   3.570   5.073  0.6944 -0.8299  0.6435
  814SOL     OW13660   8.438   1.621   5.575 -0.2043  0.3633 -0.0681
  814SOL    HW113661   8.340   1.635   5.581 -0.0641  1.4291 -0.2067
  814SOL    HW213662   8.474   1.668   5.494  0.3729 -0.2918 -0.2023
  815SOL     OW13663   3.826   8.863   4.627 -0.4640  0.0530 -0.0104
  815SOL    HW113664   3.865   8.950   4.598 -1.4964  0.1796 -1.0186
  815SOL    HW213665   3.738   8.848   4.583  0.9199 -2.7514 -2.0221
  816SOL     OW13666   7.445   3.929   0.493  0.0745  0.5203  0.2238
  816SOL    HW113667   7.393   3.866   0.434  0.0348  1.6366 -0.9576
  816SOL    HW213668   7.382   3.991   0.539  0.2344  0.8465  0.0074
  817SOL     OW13669   2.012   6.223   1.136  0.2121  0.1695  0.7514
  817SOL    HW113670   2.012   6.274   1.050  0.7196 -1.4153 -0.1938
  817SOL    HW213671   1.918   6.194   1.157  0.3584 -1.0407 -0.2312
  818SOL     OW13672   7.690   3.713   1.932  0.3819  0.0005  0.0474
  818SOL    HW113673   7.758   3.784   1.914  2.8563 -1.7453  1.9832
  818SOL    HW213674   7.665   3.668   1.847  2.0617  0.3716 -0.6647
  819SOL     OW13675   3.536   6.511   2.751 -0.3257 -0.9124  0.3700
  819SOL    HW113676   3.590   6.468   2.822 -0.2932 -1.2747  0.1262
  819SOL    HW213677   3.552   6.610   2.752 -2.2299 -0.5947  2.4951
  820SOL     OW13678   1.074   8.207   2.208  0.1557  0.4332 -0.0443
  820SOL    HW113679   1.171   8.182   2.204  0.4929  1.4562  1.5405
  820SOL    HW213680   1.023   8.137   2.258 -0.0392 -0.3816 -1.3494
  821SOL     OW13681   2.922   2.004   1.176  0.5846 -0.4253 -0.6190
  821SOL    HW113682   3.008   2.050   1.156  1.6800 -2.3195 -0.3689
  821SOL    HW213683   2.918   1.982   1.274 -0.1245 -0.4604 -0.6539
  822SOL     OW13684   8.097   6.183   4.785  0.3139  0.1398  0.4822
  822SOL    HW113685   8.094   6.156   4.689 -1.5544  1.4916  0.1425
  822SOL    HW213686   8.184   6.228   4.804  0.4959  0.2905 -0.6883
  823SOL     OW13687   4.532   1.002   5.720  0.5847  0.6261  0.5186
  823SOL    HW113688   4.472   0.944   5.776 -0.2022  1.4927  0.5812
  823SOL    HW213689   4.613   1.025   5.773  0.7793 -0.2026  0.5878
  824SOL     OW13690   9.317   1.304   0.705 -0.3000 -0.2682  0.3250
  824SOL    HW113691   9.284   1.221   0.661  1.1343 -1.6613  1.8127
  824SOL    HW213692   9.377   1.354   0.642 -1.2000 -0.3272 -0.5834
  825SOL     OW13693   6.882   7.954   3.945 -0.1017  0.2896 -0.8075
  825SOL    HW113694   6.832   7.973   4.030  0.1014  0.1942 -0.6658
  825SOL    HW213695   6.922   7.862   3.950  1.0664  0.8160 -0.4425
  826SOL     OW13696   9.300   7.866   0.092  0.1631 -0.6671  0.0814
  826SOL    HW113697   9.241   7.849   0.170 -0.0669 -1.1476 -0.1943
  826SOL    HW213698   9.320   7.964   0.085 -0.6978 -0.4860  0.1066
  827SOL     OW13699   4.553   7.719   3.175  0.1885 -0.1282  0.0538
  827SOL    HW113700   4.565   7.629   3.134  0.4419 -1.6344  3.3051
  827SOL    HW213701   4.457   7.745   3.171  0.0118 -0.8310 -0.2959
  828SOL     OW13702   4.246   3.482   6.546  0.3114  0.6388 -0.2009
  828SOL    HW113703   4.226   3.387   6.523  0.6263 -0.0944  2.4216
  828SOL    HW213704   4.166   3.539   6.525 -0.9017 -0.6554  0.7902
  829SOL     OW13705   2.427   8.816   2.848  0.5140  0.0091 -0.0663
  829SOL    HW113706   2.388   8.725   2.832  0.6028 -0.2401  1.1094
  829SOL    HW213707   2.354   8.882   2.859  0.4330 -0.2215  0.7898
  830SOL     OW13708   1.930   5.239   5.779  0.0115 -0.0750  0.6165
  830SOL    HW113709   1.979   5.280   5.702 -0.1271  0.5259  0.8483
  830SOL    HW213710   1.838   5.211   5.750  0.0202 -0.0052  0.5234
  831SOL     OW13711   0.567   2.739   0.977 -0.0721 -0.0884  0.3856
  831SOL    HW113712   0.498   2.730   0.905  0.0581 -3.0056  0.5752
  831SOL    HW213713   0.658   2.744   0.937 -0.0529 -0.9964  0.3108
  832SOL     OW13714   0.928   5.235   0.919 -0.6060  0.1227  0.2886
  832SOL    HW113715   0.840   5.208   0.957 -0.7922  0.9545  0.4569
  832SOL    HW213716   0.956   5.169   0.848 -1.8493  0.4194 -0.4847
  833SOL     OW13717   0.642   5.927   1.686 -0.4739  0.0005 -0.0102
  833SOL    HW113718   0.731   5.938   1.644 -0.4841  0.6892  0.1322
  833SOL    HW213719   0.639   5.842   1.737  0.8923  1.0625  1.9033
  834SOL     OW13720   4.063   3.099   3.894  0.8119 -0.2864 -0.0054
  834SOL    HW113721   4.039   3.048   3.977  0.2435 -0.4157 -0.2524
  834SOL    HW213722   3.985   3.153   3.864  0.9895 -0.3101 -0.5164
  835SOL     OW13723   1.338   5.417   3.029 -0.1439 -0.4186  0.4577
  835SOL    HW113724   1.268   5.462   3.084 -2.1116 -0.9833 -1.5205
  835SOL    HW213725   1.329   5.318   3.040  0.3540 -0.4911  0.2114
  836SOL     OW13726   1.597   9.662   4.407 -0.2802 -0.2051  0.3258
  836SOL    HW113727   1.523   9.729   4.408 -0.5874 -0.5407 -0.0826
  836SOL    HW213728   1.599   9.614   4.495 -1.6416 -1.3969 -0.2780
  837SOL     OW13729   1.019   0.400   2.642 -0.4081 -0.3577 -0.5605
  837SOL    HW113730   1.034   0.496   2.618  1.6826 -0.8754 -1.4294
  837SOL    HW213731   1.007   0.392   2.741  0.2874  0.7231 -0.3755
  838SOL     OW13732   1.595   0.614   2.457 -0.0894  0.3466  0.0639
  838SOL    HW113733   1.610   0.559   2.539  0.6322  1.3319  0.5982
  838SOL    HW213734   1.504   0.593   2.420 -1.0303  0.9688  1.9538
  839SOL     OW13735   7.899   6.683   3.148 -0.0272 -0.4647 -0.3712
  839SOL    HW113736   7.961   6.756   3.120 -0.3503 -0.8429 -2.1254
  839SOL    HW213737   7.874   6.696   3.244  2.3697 -0.0510  0.2352
  840SOL     OW13738   9.097   2.215   1.109  0.5484 -0.5095  0.1163
  840SOL    HW113739   9.063   2.230   1.016  0.9193  0.6902  0.1690
  840SOL    HW213740   9.044   2.271   1.174  0.4850 -1.1153  0.5982
  841SOL     OW13741   9.948   1.618   2.768 -0.4169 -0.3947  0.1717
  841SOL    HW113742  10.042   1.650   2.775 -0.1186 -1.2208  0.0384
  841SOL    HW213743   9.909   1.607   2.859 -0.6123  0.6108  0.2078
  842SOL     OW13744   2.093   5.787   5.591 -0.2978  0.4395  0.1768
  842SOL    HW113745   2.021   5.842   5.549  0.0725  2.0152  1.5646
  842SOL    HW213746   2.062   5.755   5.680 -0.3494 -1.2848 -0.4436
  843SOL     OW13747   5.975   1.156   2.798 -0.3560  0.1486 -0.4631
  843SOL    HW113748   5.947   1.100   2.875 -1.2748 -0.3724 -1.1731
  843SOL    HW213749   6.075   1.162   2.796 -0.3274  0.1161  0.7214
  844SOL     OW13750   1.467   5.820   3.731 -0.3062  0.6016 -0.2188
  844SOL    HW113751   1.486   5.894   3.795 -0.1871  1.0873 -0.8091
  844SOL    HW213752   1.430   5.858   3.646 -1.7628 -0.1430  0.0650
  845SOL     OW13753   2.574   7.269   6.623  0.4841 -0.1187  0.0770
  845SOL    HW113754   2.475   7.278   6.607  0.2820  1.4515  2.0101
  845SOL    HW213755   2.622   7.328   6.558 -0.0599  2.0521  1.5966
  846SOL     OW13756   0.240   5.803   6.067 -0.0959  0.1583 -0.3666
  846SOL    HW113757   0.245   5.829   5.971  0.8463 -0.6039 -0.5405
  846SOL    HW213758   0.298   5.864   6.121  1.1055 -0.7410 -0.5996
  847SOL     OW13759   7.009   2.486   0.844  0.1110 -0.0557 -0.0433
  847SOL    HW113760   7.001   2.505   0.942  1.3618  0.3553 -0.0105
  847SOL    HW213761   7.023   2.388   0.831 -0.5186 -0.1758  0.1563
  848SOL     OW13762   4.358   2.961   6.315  0.0373 -0.6369 -0.5123
  848SOL    HW113763   4.276   2.970   6.372 -0.1802  1.7510 -1.1690
  848SOL    HW213764   4.437   2.947   6.374 -0.5998 -1.1688  0.2285
  849SOL     OW13765   0.884   8.329   0.600  0.3626  0.3532  0.5735
  849SOL    HW113766   0.968   8.375   0.568  0.1189 -1.6059 -3.1041
  849SOL    HW213767   0.909   8.248   0.652  0.7949  0.0505 -0.0876
  850SOL     OW13768   1.837   0.781   2.379  0.1764 -0.0779  0.5933
  850SOL    HW113769   1.913   0.740   2.428  0.1179  0.0511  0.7918
  850SOL    HW213770   1.752   0.735   2.405  0.2980 -0.8174 -0.2975
  851SOL     OW13771   4.354   5.444   1.104 -0.4278 -0.1115  0.4959
  851SOL    HW113772   4.424   5.475   1.040 -0.8364  1.0215  0.5858
  851SOL    HW213773   4.396   5.383   1.172  0.1087 -0.8651 -0.5123
  852SOL     OW13774   3.600   4.633   0.371 -0.0791  0.6160  0.4864
  852SOL    HW113775   3.505   4.613   0.347  0.6592 -2.2461 -0.2342
  852SOL    HW213776   3.616   4.606   0.466  1.0568 -2.8930 -0.6409
  853SOL     OW13777   7.137   2.289   2.666  0.0211 -0.2051  0.2489
  853SOL    HW113778   7.141   2.324   2.760 -1.6517 -2.0503  1.0626
  853SOL    HW213779   7.226   2.253   2.640  0.2940 -0.4296  1.4516
  854SOL     OW13780   1.277   8.840   0.462 -0.0664  0.4225 -0.4726
  854SOL    HW113781   1.190   8.817   0.418  0.1429  2.1520 -1.8469
  854SOL    HW213782   1.259   8.885   0.549 -0.5010 -1.2305  0.3187
  855SOL     OW13783   5.424   7.920   2.907  0.3928 -0.1084  0.2984
  855SOL    HW113784   5.420   7.859   2.987  2.0964 -1.5189 -0.6599
  855SOL    HW213785   5.333   7.958   2.891 -1.1057 -3.5089  0.0944
  856SOL     OW13786   9.776   0.413   1.611 -0.0422  0.4907  0.1018
  856SOL    HW113787   9.836   0.363   1.549 -0.6883 -0.8590  0.5367
  856SOL    HW213788   9.791   0.511   1.600  1.2455  0.2118 -0.7748
  857SOL     OW13789   1.794   0.640   6.465  0.7245  0.5873  0.1608
  857SOL    HW113790   1.862   0.677   6.528  0.6323  0.4570  0.3393
  857SOL    HW213791   1.702   0.656   6.501  0.7378 -1.3659  1.1175
  858SOL     OW13792   1.029   4.624   6.084 -0.0360 -0.2461  0.4259
  858SOL    HW113793   1.047   4.565   6.162 -0.7246 -1.7787 -0.5462
  858SOL    HW213794   0.939   4.602   6.046  1.0896 -0.8401 -1.9652
  859SOL     OW13795   7.008   4.058   6.253 -0.4009 -0.6338 -0.6190
  859SOL    HW113796   6.923   4.046   6.305  0.5124 -3.1987  0.3686
  859SOL    HW213797   7.057   3.971   6.248  1.7092  0.5737 -2.0350
  860SOL     OW13798   1.002   8.948   5.723  0.0374 -0.3062  0.2370
  860SOL    HW113799   0.982   9.031   5.671 -0.4004 -0.5854 -0.0417
  860SOL    HW213800   1.039   8.879   5.661 -1.7938 -1.1194  0.0219
  861SOL     OW13801   6.942   9.216   1.898  0.0078 -0.1468  0.4534
  861SOL    HW113802   6.988   9.287   1.952  0.6392 -1.7412  2.0711
  861SOL    HW213803   7.005   9.139   1.884 -1.0682 -0.9146 -0.2212
  862SOL     OW13804   3.878   2.017   5.909 -0.0651 -0.2543 -0.2860
  862SOL    HW113805   3.831   1.979   5.829 -1.0710  1.1743 -0.3845
  862SOL    HW213806   3.822   2.002   5.991  0.8015 -1.4020  0.0994
  863SOL     OW13807   9.357   3.946   5.801 -0.3386 -0.2584  0.3417
  863SOL    HW113808   9.317   3.900   5.722  0.5639  1.0270 -0.8766
  863SOL    HW213809   9.292   4.014   5.836 -0.5697 -0.5437  0.4778
  864SOL     OW13810   6.025   8.544   5.398 -0.7623 -0.0487 -0.6191
  864SOL    HW113811   5.940   8.563   5.446  0.2366 -1.4198  1.8174
  864SOL    HW213812   6.040   8.445   5.395  1.3797  0.2045  0.2306
  865SOL     OW13813   5.278   9.006   4.422 -0.0851 -0.3314  0.0468
  865SOL    HW113814   5.323   8.916   4.420 -1.0394 -0.8202  0.4583
  865SOL    HW213815   5.324   9.064   4.489  1.0032 -0.2572 -0.7507
  866SOL     OW13816   1.445   7.153   6.283  0.4254  0.2425  0.2059
  866SOL    HW113817   1.388   7.085   6.330 -1.8311  1.4690 -0.6844
  866SOL    HW213818   1.467   7.227   6.347 -0.2992  0.5459  0.0994
  867SOL     OW13819   3.623   3.014   0.720 -0.7112  0.1666  0.3997
  867SOL    HW113820   3.658   2.935   0.771  0.1349  0.0811 -0.3115
  867SOL    HW213821   3.696   3.080   0.705 -0.7487 -0.1864 -1.4144
  868SOL     OW13822   1.411   2.282   2.914 -0.0669 -0.4159 -0.1405
  868SOL    HW113823   1.511   2.282   2.918 -0.0308  0.1394 -0.8255
  868SOL    HW213824   1.378   2.377   2.920 -0.4419 -0.3965 -2.2032
  869SOL     OW13825   7.816   2.312   0.514 -0.1726 -0.2594  0.6543
  869SOL    HW113826   7.892   2.373   0.492 -1.0810  0.7300  0.1621
  869SOL    HW213827   7.792   2.323   0.611 -1.1289  1.1077  0.2801
  870SOL     OW13828   4.413   9.113   4.166 -0.3692 -0.0371  0.2718
  870SOL    HW113829   4.382   9.203   4.134 -2.2019 -0.5664  0.4892
  870SOL    HW213830   4.367   9.042   4.112 -0.3408 -0.8683  1.3484
  871SOL     OW13831   1.738   0.261   1.890 -0.2201  0.3890  0.2011
  871SOL    HW113832   1.756   0.181   1.832 -1.5614  0.4990 -0.3905
  871SOL    HW213833   1.793   0.338   1.858 -0.0219  0.1004 -0.1577
  872SOL     OW13834   4.650   1.422   2.750  0.6781 -0.2336  0.2922
  872SOL    HW113835   4.698   1.368   2.681  1.6342  0.5131  0.3726
  872SOL    HW213836   4.638   1.368   2.832 -1.4658 -1.5337 -0.8206
  873SOL     OW13837   4.397   2.521   5.886  1.0468 -0.1755  0.8581
  873SOL    HW113838   4.449   2.436   5.880  1.2720  0.0011  0.3291
  873SOL    HW213839   4.434   2.578   5.959  1.2701 -0.2782  0.8260
  874SOL     OW13840   0.365   7.842   6.039  0.0672 -0.3883 -0.0689
  874SOL    HW113841   0.267   7.824   6.038 -0.1347  0.6686 -1.2018
  874SOL    HW213842   0.386   7.914   5.973  1.5699 -0.4064  0.3679
  875SOL     OW13843   7.521   5.721   6.034  0.2130  0.1667  0.3152
  875SOL    HW113844   7.534   5.684   6.126  1.2675  0.6037  0.3477
  875SOL    HW213845   7.585   5.796   6.018 -0.8875  0.9815 -0.3003
  876SOL     OW13846   8.217   0.810   1.611 -0.2404  0.3154 -0.3646
  876SOL    HW113847   8.294   0.779   1.665 -2.2000 -0.1921  2.2322
  876SOL    HW213848   8.183   0.735   1.554 -2.2693 -1.1603  2.6720
  877SOL     OW13849   9.405   2.395   6.401  0.8294  0.5803  0.5638
  877SOL    HW113850   9.453   2.427   6.483  1.0592 -1.8451  1.4204
  877SOL    HW213851   9.357   2.309   6.422  0.9790 -0.1332 -1.8770
  878SOL     OW13852   8.277   5.757   4.221 -0.4896 -0.1473 -0.0279
  878SOL    HW113853   8.307   5.703   4.299 -0.1159 -1.7343 -1.2200
  878SOL    HW213854   8.311   5.851   4.229  2.3079 -1.1272  0.1176
  879SOL     OW13855   3.882   6.839   1.431 -0.1356 -0.4950  0.2218
  879SOL    HW113856   3.977   6.862   1.408 -0.1176 -1.1335 -0.3487
  879SOL    HW213857   3.821   6.882   1.365 -0.0515 -2.8122 -1.4398
  880SOL     OW13858   0.161   6.308   4.914 -0.1785 -0.5974 -0.0651
  880SOL    HW113859   0.253   6.346   4.907 -0.9637  1.3173 -0.4829
  880SOL    HW213860   0.148   6.267   5.004  0.5248  0.7108  0.6453
  881SOL     OW13861   8.670   5.276   0.792  0.3873  0.0788 -0.4990
  881SOL    HW113862   8.633   5.191   0.754  1.2136 -0.0624 -0.9855
  881SOL    HW213863   8.732   5.255   0.868  0.3690  0.2671 -0.4289
  882SOL     OW13864   0.895   3.836   2.553 -0.7560 -0.1446  0.1380
  882SOL    HW113865   0.888   3.753   2.608 -0.9255  0.1641  0.5893
  882SOL    HW213866   0.861   3.819   2.461  1.2359 -1.1778 -0.4355
  883SOL     OW13867   4.408   9.605   4.260 -0.0684  0.3789 -0.8664
  883SOL    HW113868   4.498   9.569   4.236  1.1453  2.5877  0.2811
  883SOL    HW213869   4.346   9.528   4.278  2.0409 -1.1477  0.0901
  884SOL     OW13870   0.550   1.686   5.013  0.2848  0.2722  0.1267
  884SOL    HW113871   0.463   1.730   5.035 -0.3509 -0.6552 -0.5101
  884SOL    HW213872   0.586   1.641   5.095 -0.9906 -1.3034 -0.1524
  885SOL     OW13873   1.219   0.262   0.318  0.0184  0.2001  0.3813
  885SOL    HW113874   1.240   0.196   0.246  1.2280  1.1644 -0.1493
  885SOL    HW213875   1.267   0.236   0.402 -0.2615 -0.1218  0.4435
  886SOL     OW13876   7.963   6.199   3.413  0.0069 -0.5840  0.1560
  886SOL    HW113877   7.883   6.231   3.464  1.3509  1.8386  0.8418
  886SOL    HW213878   7.945   6.207   3.315 -0.6731 -0.2923  0.2996
  887SOL     OW13879   4.660   4.494   4.441 -0.4106  0.5538 -0.8393
  887SOL    HW113880   4.740   4.550   4.465 -2.2488  3.7292 -1.8492
  887SOL    HW213881   4.670   4.461   4.347  0.5722 -0.7187 -0.3145
  888SOL     OW13882   4.188   4.128   0.218 -0.0642 -0.0081 -0.5361
  888SOL    HW113883   4.249   4.150   0.142  0.5231  0.7573  0.1534
  888SOL    HW213884   4.240   4.087   0.292 -0.8082 -1.7707 -0.9559
  889SOL     OW13885   6.206   9.828   2.069  0.4037  0.7701 -0.0461
  889SOL    HW113886   6.168   9.757   2.011  1.6062  0.3971 -0.3931
  889SOL    HW213887   6.145   9.908   2.069 -0.4783  0.1002 -0.3935
  890SOL     OW13888   9.090   8.721   4.357  0.0760  0.0635  0.0724
  890SOL    HW113889   9.058   8.630   4.330 -0.8322  0.2691  0.4632
  890SOL    HW213890   9.016   8.772   4.400  0.8618  0.6045  0.8163
  891SOL     OW13891   0.856   0.438   4.191 -0.3610 -0.8319 -0.0601
  891SOL    HW113892   0.837   0.454   4.288 -0.8256  0.2005 -0.3100
  891SOL    HW213893   0.950   0.466   4.172 -0.6125  0.0034 -0.1233
  892SOL     OW13894   3.151   4.639   6.147 -0.3206  0.2457 -0.2012
  892SOL    HW113895   3.218   4.584   6.195  1.8472  1.0575 -2.1842
  892SOL    HW213896   3.173   4.736   6.158 -1.3084  0.5276 -0.6621
  893SOL     OW13897   0.204   3.093   1.636  0.0912  0.3474  0.3638
  893SOL    HW113898   0.107   3.107   1.656 -0.2425  0.2733 -1.1190
  893SOL    HW213899   0.252   3.180   1.645 -0.3689  0.6661 -0.1859
  894SOL     OW13900   5.229   7.181   3.749  0.2264  0.0754  0.5446
  894SOL    HW113901   5.306   7.245   3.753  1.0739 -0.9887  2.0024
  894SOL    HW213902   5.254   7.103   3.690 -0.8455  1.1179 -1.3221
  895SOL     OW13903   3.304   1.377   1.127 -0.0059  0.1396  0.2860
  895SOL    HW113904   3.221   1.375   1.071  0.0957 -0.2893  0.1470
  895SOL    HW213905   3.343   1.470   1.125 -0.1788  0.2080 -0.0971
  896SOL     OW13906   7.418   1.816   5.520  0.0030 -0.2854  0.0076
  896SOL    HW113907   7.355   1.801   5.597  1.2700 -1.4886  0.8346
  896SOL    HW213908   7.382   1.771   5.438  0.2029 -1.7554  0.7030
  897SOL     OW13909   2.167   8.326   0.245  0.1593 -0.3359  0.1431
  897SOL    HW113910   2.202   8.370   0.328 -1.3702 -1.4374  1.3792
  897SOL    HW213911   2.080   8.367   0.220  1.5641  1.4183 -2.1368
  898SOL     OW13912   0.834   2.463   5.308 -0.0440  0.1883  0.1605
  898SOL    HW113913   0.881   2.551   5.306 -0.0164  0.1809  0.6068
  898SOL    HW213914   0.813   2.435   5.214  1.1815  0.0156 -0.0764
  899SOL     OW13915   4.459   7.555   1.452  0.7543 -0.1345  0.5518
  899SOL    HW113916   4.387   7.611   1.410  1.1052 -0.1576 -0.0813
  899SOL    HW213917   4.528   7.615   1.493  0.0232 -0.1107  1.7804
  900SOL     OW13918   1.947   1.771   3.428 -0.1227 -0.2354 -0.2676
  900SOL    HW113919   1.942   1.734   3.521 -0.6626 -2.7467 -1.2581
  900SOL    HW213920   1.991   1.861   3.430 -0.7761  0.0582  2.4968
  901SOL     OW13921   0.292   9.336   3.788  0.1615 -0.2851 -0.9188
  901SOL    HW113922   0.383   9.318   3.752 -0.5211 -0.8419 -2.3742
  901SOL    HW213923   0.257   9.254   3.832  0.5288  0.0580  0.0359
  902SOL     OW13924   9.884   3.714   4.573 -0.0072 -0.2708  0.2179
  902SOL    HW113925   9.937   3.633   4.595 -2.5102 -2.5768 -1.8652
  902SOL    HW213926   9.946   3.790   4.553  2.4379 -2.2852 -0.1523
  903SOL     OW13927   8.852   8.066   0.722  0.7053  0.0289  0.0368
  903SOL    HW113928   8.782   8.000   0.747 -0.7204  1.1961 -0.7421
  903SOL    HW213929   8.885   8.113   0.803 -0.1349  0.1481  0.3191
  904SOL     OW13930   9.354   0.183   0.704  0.1829 -0.0868  0.1448
  904SOL    HW113931   9.434   0.126   0.721 -0.3245 -0.8419  0.0285
  904SOL    HW213932   9.271   0.126   0.704 -0.3198  0.6312 -0.0712
  905SOL     OW13933   8.867   7.892   2.605 -0.0389  0.1216 -0.4155
  905SOL    HW113934   8.934   7.898   2.679  0.4827  0.2097 -0.8870
  905SOL    HW213935   8.798   7.962   2.618 -0.8252 -0.8578  0.8372
  906SOL     OW13936   2.666   2.763   3.175  0.4379 -0.3642  0.5684
  906SOL    HW113937   2.726   2.823   3.122  0.0464  0.0848  0.6282
  906SOL    HW213938   2.595   2.818   3.219  0.5262 -0.7883  1.2335
  907SOL     OW13939   8.553   6.921   2.197 -0.5239  0.1931 -0.6026
  907SOL    HW113940   8.517   6.993   2.138  0.1008  0.8101 -0.2499
  907SOL    HW213941   8.532   6.943   2.293 -0.5583 -0.2251 -0.5136
  908SOL     OW13942   7.156   9.414   5.478  0.2297  0.3054 -0.5589
  908SOL    HW113943   7.128   9.329   5.522 -3.4163  1.6830 -0.0408
  908SOL    HW213944   7.141   9.407   5.379  0.4573  0.1453 -0.5818
  909SOL     OW13945   2.278   5.160   1.589  0.1955 -0.0850 -0.0449
  909SOL    HW113946   2.274   5.255   1.621  0.7945  0.3793 -1.3088
  909SOL    HW213947   2.338   5.108   1.648  1.1939  0.7358 -0.3231
  910SOL     OW13948   3.502   7.458   2.348  0.0047  0.3166 -0.0447
  910SOL    HW113949   3.435   7.530   2.361  0.0475  0.4691 -0.6486
  910SOL    HW213950   3.594   7.494   2.365 -0.1014 -0.0363  1.3448
  911SOL     OW13951   1.729   9.411   1.190 -0.1256  0.4527 -0.6469
  911SOL    HW113952   1.813   9.366   1.219 -1.0163 -0.0923  1.1642
  911SOL    HW213953   1.750   9.483   1.124  1.6954 -0.0274 -0.5988
  912SOL     OW13954   1.647   1.508   4.900 -0.0005 -0.3069  0.2461
  912SOL    HW113955   1.722   1.443   4.894  0.9924  0.5872  2.4489
  912SOL    HW213956   1.683   1.600   4.917 -1.5734  0.1076  1.5814
  913SOL     OW13957   4.325   5.303   0.545 -0.5530  0.5757  0.3793
  913SOL    HW113958   4.300   5.270   0.635 -0.1288  0.6622  0.5334
  913SOL    HW213959   4.360   5.397   0.553 -0.1312  0.4388  0.1874
  914SOL     OW13960   9.876   2.430   1.444  0.5342  0.2828 -0.8217
  914SOL    HW113961   9.859   2.495   1.371 -3.0348 -1.8576 -2.0346
  914SOL    HW213962   9.974   2.408   1.447  1.5365  4.3430 -1.4344
  915SOL     OW13963   8.996   5.197   2.297 -0.2159 -0.1476  0.7465
  915SOL    HW113964   8.996   5.172   2.394 -0.1400 -1.2264  0.4649
  915SOL    HW213965   8.978   5.117   2.241  0.9425  0.2405 -0.2001
  916SOL     OW13966   1.393   9.606   6.599  0.2524  0.2070 -0.0141
  916SOL    HW113967   1.464   9.556   6.549  0.7702 -0.3765  1.2905
  916SOL    HW213968   1.305   9.593   6.552  0.6836 -0.5161 -0.6475
  917SOL     OW13969   9.484   8.514   4.133 -0.4113  0.3388 -0.3453
  917SOL    HW113970   9.500   8.592   4.193 -0.6709  0.0735  0.0785
  917SOL    HW213971   9.566   8.457   4.130 -0.1243  0.7771 -0.8804
  918SOL     OW13972   7.879   4.153   2.231 -0.1413 -0.5386  0.1942
  918SOL    HW113973   7.889   4.056   2.210 -1.8804 -0.9184  1.0790
  918SOL    HW213974   7.860   4.203   2.147  1.0307 -0.9030 -0.3084
  919SOL     OW13975   3.303   1.201   0.300 -0.2600 -0.2002  0.5616
  919SOL    HW113976   3.392   1.159   0.313 -0.4373 -0.6342  0.3516
  919SOL    HW213977   3.252   1.198   0.387 -1.0093 -2.1137  0.0829
  920SOL     OW13978   3.551   8.830   5.377  0.3071 -0.5018 -0.0356
  920SOL    HW113979   3.524   8.916   5.335 -2.0710  0.1178  2.5924
  920SOL    HW213980   3.648   8.834   5.403  0.1214  1.5034  0.3920
  921SOL     OW13981   4.229   5.067   3.943  0.1817 -0.2577  0.5916
  921SOL    HW113982   4.163   5.002   3.906 -0.6911  1.1417 -0.3888
  921SOL    HW213983   4.312   5.067   3.886 -0.0501 -0.1136  0.2492
  922SOL     OW13984   4.527   4.959   1.311 -0.4198 -0.6447  0.6883
  922SOL    HW113985   4.460   4.928   1.243 -0.5331  3.0629 -1.0049
  922SOL    HW213986   4.619   4.944   1.277 -0.4055 -2.1709  1.3517
  923SOL     OW13987   2.698   4.198   1.271  0.5553  0.2365 -0.1077
  923SOL    HW113988   2.795   4.205   1.250  0.2895  2.2833 -0.7807
  923SOL    HW213989   2.668   4.281   1.319 -0.5318 -1.0274  1.4340
  924SOL     OW13990   5.020   2.190   5.000 -0.2169  0.0563 -0.6444
  924SOL    HW113991   5.055   2.246   4.926  0.1138  1.4295  0.5368
  924SOL    HW213992   5.094   2.168   5.064  0.2524 -3.8768 -2.3688
  925SOL     OW13993   0.567   5.795   0.514  0.0845 -0.1955 -0.5560
  925SOL    HW113994   0.541   5.703   0.545  1.5450 -0.7094 -0.8334
  925SOL    HW213995   0.492   5.858   0.534  0.7725 -0.5570  3.8020
  926SOL     OW13996   3.606   9.037   5.729 -0.0100 -0.4375 -0.0159
  926SOL    HW113997   3.696   8.996   5.718 -0.4108 -0.5906 -2.9994
  926SOL    HW213998   3.554   8.986   5.799  1.4046 -1.6734  0.1489
  927SOL     OW13999   9.346   7.039   1.633  0.4843 -0.5917  0.0519
  927SOL    HW114000   9.365   7.056   1.536  2.4151 -2.6290  0.0182
  927SOL    HW214001   9.261   6.987   1.641 -0.6023  1.0822 -0.4139
  928SOL     OW14002   3.276   1.886   1.236  0.1083  0.2417  0.0004
  928SOL    HW114003   3.246   1.961   1.177  0.7534  0.6660  0.2166
  928SOL    HW214004   3.375   1.890   1.249  0.3348 -1.3930 -1.0309
  929SOL     OW14005   0.770   6.755   1.200 -0.5887  0.1533 -0.2418
  929SOL    HW114006   0.786   6.740   1.298  0.7539  0.7584 -0.3565
  929SOL    HW214007   0.709   6.684   1.165 -1.0289 -0.1022  1.0204
  930SOL     OW14008   2.528   8.494   5.489  0.1737  0.0079 -0.3433
  930SOL    HW114009   2.569   8.543   5.412 -1.0035  0.5754 -0.6102
  930SOL    HW214010   2.450   8.441   5.457  0.6350 -1.0104  0.1877
  931SOL     OW14011   3.645   4.075   5.485  0.1470  0.0318  0.3223
  931SOL    HW114012   3.724   4.028   5.524  0.7752 -0.6933 -1.7753
  931SOL    HW214013   3.584   4.007   5.442 -0.1114  0.8915 -0.6822
  932SOL     OW14014   3.018   7.030   3.100 -0.0476 -0.4187 -0.2661
  932SOL    HW114015   3.100   7.076   3.065  0.1078  0.1373  0.8141
  932SOL    HW214016   2.991   6.958   3.037 -0.4696  1.3412 -2.1423
  933SOL     OW14017   9.939   1.178   4.168 -0.1114 -0.3125  0.1658
  933SOL    HW114018  10.027   1.223   4.182  0.3396 -1.3216  0.6286
  933SOL    HW214019   9.951   1.079   4.173 -1.0042 -0.5109 -1.3412
  934SOL     OW14020   2.511   9.304   6.570 -0.2220  0.5256 -0.6505
  934SOL    HW114021   2.485   9.289   6.665  2.5281 -1.8237 -0.2044
  934SOL    HW214022   2.550   9.395   6.560  1.0270  0.1736  0.8425
  935SOL     OW14023   5.744   7.757   5.066 -0.3400 -0.0535  0.0070
  935SOL    HW114024   5.688   7.675   5.068  0.4739 -0.6085  0.3094
  935SOL    HW214025   5.696   7.832   5.112 -1.2717 -0.2274 -0.6666
  936SOL     OW14026   4.268   8.757   2.171  0.1727  0.2208 -0.5719
  936SOL    HW114027   4.265   8.765   2.071  1.4109  0.5951 -0.5918
  936SOL    HW214028   4.283   8.848   2.211 -1.2057  0.2059  0.0050
  937SOL     OW14029   2.495   4.079   5.574 -0.1013 -0.1312  0.0378
  937SOL    HW114030   2.440   4.134   5.511 -0.8986 -0.5255  0.3766
  937SOL    HW214031   2.558   4.022   5.521 -0.1316  0.1948 -0.3616
  938SOL     OW14032   8.906   7.974   2.309 -0.2836 -0.1141 -0.1144
  938SOL    HW114033   8.879   7.977   2.406  0.4267  0.7150  0.0622
  938SOL    HW214034   8.985   8.033   2.295  0.2232 -0.9913 -1.0149
  939SOL     OW14035   4.411   4.927   2.784 -0.1434 -1.0015  0.2230
  939SOL    HW114036   4.450   5.017   2.763 -0.1714 -0.8765  0.7010
  939SOL    HW214037   4.329   4.939   2.839  0.0097 -1.3310  0.5199
  940SOL     OW14038   9.971   7.159   4.915 -0.2884  0.3863 -0.1361
  940SOL    HW114039  10.065   7.179   4.888 -0.7304  1.1912 -1.1088
  940SOL    HW214040   9.968   7.075   4.969  0.6141 -1.3281 -2.6590
  941SOL     OW14041   9.466   1.896   3.392  0.3993  0.1608  0.6432
  941SOL    HW114042   9.402   1.872   3.465 -0.0706 -0.1659  0.1333
  941SOL    HW214043   9.490   1.813   3.341 -2.2464  0.8746 -1.9408
  942SOL     OW14044   0.087   1.543   5.257 -0.4956 -0.0968 -0.0240
  942SOL    HW114045   0.038   1.543   5.344 -1.7119 -0.0648 -0.6916
  942SOL    HW214046   0.102   1.637   5.227 -0.4935 -0.1122 -0.0717
  943SOL     OW14047   9.283   1.299   3.351 -0.2133 -0.3951  0.0149
  943SOL    HW114048   9.204   1.335   3.400 -1.2122 -1.7515 -0.5472
  943SOL    HW214049   9.363   1.357   3.368 -1.4822  1.3900  0.0433
  944SOL     OW14050   9.175   4.727   6.565  0.2257  0.0618  0.4300
  944SOL    HW114051   9.094   4.678   6.535  1.1006 -0.2619 -1.4397
  944SOL    HW214052   9.209   4.686   6.650  0.5516 -2.1607 -0.7456
  945SOL     OW14053   5.803   8.395   4.305 -0.0271 -0.1236 -0.2604
  945SOL    HW114054   5.770   8.412   4.398 -1.6844 -2.7980 -0.3230
  945SOL    HW214055   5.821   8.298   4.293 -0.4893  0.0795 -2.9299
  946SOL     OW14056   8.867   2.553   2.877 -0.7702 -0.6881 -0.3894
  946SOL    HW114057   8.952   2.599   2.849 -1.0699  0.1609  0.0696
  946SOL    HW214058   8.860   2.555   2.977 -0.8286 -1.6796 -0.3637
  947SOL     OW14059   2.764   2.017   0.963  0.8845  0.0160  0.1221
  947SOL    HW114060   2.824   2.052   1.035  2.0328  0.3254 -0.9794
  947SOL    HW214061   2.669   2.022   0.994  1.2866  1.1559  1.2029
  948SOL     OW14062   1.392   0.718   3.503  0.6641  0.1378  1.0086
  948SOL    HW114063   1.393   0.804   3.554  1.2760 -0.6772  2.3958
  948SOL    HW214064   1.437   0.646   3.557  0.5939 -0.9402 -0.3336
  949SOL     OW14065   2.967   4.439   5.159  0.0224 -0.4248  0.6670
  949SOL    HW114066   2.970   4.368   5.089 -0.5790  0.4094 -0.2195
  949SOL    HW214067   2.894   4.417   5.224  1.6352 -2.0486  1.9840
  950SOL     OW14068   3.014   6.582   1.693 -0.1906 -0.4199  0.0946
  950SOL    HW114069   2.960   6.617   1.769 -1.0539 -1.5500  0.0195
  950SOL    HW214070   3.035   6.485   1.710 -2.0948 -1.2484 -2.0390
  951SOL     OW14071   2.471   1.323   2.612 -0.4044  0.3934 -0.0530
  951SOL    HW114072   2.519   1.407   2.591 -0.9618  0.8655  0.5231
  951SOL    HW214073   2.425   1.289   2.529 -0.8872  1.1221 -0.0912
  952SOL     OW14074   4.113   4.769   1.822 -0.1532  0.1684 -0.2704
  952SOL    HW114075   4.129   4.805   1.730  1.1871  1.2526  0.3652
  952SOL    HW214076   4.165   4.684   1.834  0.6170  0.6520 -0.1322
  953SOL     OW14077   0.335   0.888   2.393 -0.5954 -0.0156 -0.0213
  953SOL    HW114078   0.272   0.864   2.319 -1.4782  0.8541  0.4296
  953SOL    HW214079   0.349   0.987   2.394  0.7496 -0.2048 -0.0800
  954SOL     OW14080   2.828   1.061   5.786  0.0409  0.2166  0.0868
  954SOL    HW114081   2.805   0.969   5.815  1.4691 -0.1808  0.0031
  954SOL    HW214082   2.847   1.062   5.688 -4.1350  1.4351 -0.7892
  955SOL     OW14083   5.101   9.884   5.547 -0.0782  0.1368  0.1310
  955SOL    HW114084   5.108   9.802   5.604 -0.7137 -0.9695 -1.3718
  955SOL    HW214085   5.190   9.930   5.545  0.4949 -0.9429  0.3524
  956SOL     OW14086   2.318   1.012   4.135 -0.1514 -0.2658  0.4301
  956SOL    HW114087   2.242   1.060   4.090  0.5770 -1.8025 -2.5813
  956SOL    HW214088   2.289   0.980   4.225 -2.2383  1.3685  0.3766
  957SOL     OW14089   9.923   7.612   2.633  0.1662  0.4607 -0.2485
  957SOL    HW114090   9.969   7.561   2.562 -2.1569  0.0074 -1.4793
  957SOL    HW214091   9.836   7.648   2.598  0.0160  2.1020  1.6885
  958SOL     OW14092   2.591   1.760   6.001 -0.2104 -0.0980 -0.6286
  958SOL    HW114093   2.556   1.849   5.971  3.1501  0.7584 -2.2574
  958SOL    HW214094   2.582   1.694   5.926 -0.3456 -0.4784 -0.2834
  959SOL     OW14095   3.474   2.492   1.817  0.2158  0.0802  0.3295
  959SOL    HW114096   3.447   2.396   1.815 -0.0115  0.1579 -0.9418
  959SOL    HW214097   3.571   2.500   1.792  0.0331  0.2346 -0.3562
  960SOL     OW14098   1.214   3.468   1.615  0.3479 -0.3400 -0.1768
  960SOL    HW114099   1.260   3.393   1.568 -1.1824 -0.4959 -1.4616
  960SOL    HW214100   1.128   3.436   1.654  0.5300  0.3234  0.7785
  961SOL     OW14101   9.230   5.031   2.649 -0.4017 -0.2157  0.0904
  961SOL    HW114102   9.140   5.058   2.613 -0.3296 -0.3149 -0.1653
  961SOL    HW214103   9.220   5.003   2.744 -0.6922 -0.4791 -0.0141
  962SOL     OW14104   2.880   0.894   3.456 -0.7934 -0.5859  0.0846
  962SOL    HW114105   2.843   0.974   3.409 -1.2866 -0.7374  0.2087
  962SOL    HW214106   2.934   0.840   3.392  0.4527  0.4141  0.2688
  963SOL     OW14107   9.860   6.805   2.385 -0.1882  0.8047 -0.3498
  963SOL    HW114108   9.863   6.902   2.363  0.8691  0.9063  0.2338
  963SOL    HW214109   9.860   6.792   2.484  1.6091  0.1702 -0.4089
  964SOL     OW14110   4.264   8.870   1.275 -0.3563  0.1582 -0.2192
  964SOL    HW114111   4.181   8.900   1.323 -0.2977  0.4026 -0.2679
  964SOL    HW214112   4.336   8.938   1.289 -0.4464  0.4043 -0.9395
  965SOL     OW14113   8.707   0.625   6.339  0.3634  0.0933  0.1364
  965SOL    HW114114   8.784   0.645   6.279  0.2980 -0.5774 -0.1776
  965SOL    HW214115   8.699   0.697   6.409  1.6641 -0.1654  0.5591
  966SOL     OW14116   1.025   6.995   6.607 -0.7530  0.6988  0.1422
  966SOL    HW114117   1.000   6.906   6.646  0.1037  0.5603  0.3784
  966SOL    HW214118   1.044   6.985   6.510  2.1869  0.0708  0.7549
  967SOL     OW14119   2.869   2.283   2.713  0.2728  0.2129 -0.1235
  967SOL    HW114120   2.907   2.348   2.780 -0.6770 -1.4798  2.1007
  967SOL    HW214121   2.943   2.251   2.653  1.3639  0.9237  0.8021
  968SOL     OW14122   3.262   0.107   1.824  0.1935  0.1868 -0.0200
  968SOL    HW114123   3.328   0.126   1.751  1.0867  0.0933  0.7590
  968SOL    HW214124   3.303   0.045   1.891 -1.0534 -0.7201 -0.0838
  969SOL     OW14125   4.456   0.995   2.180 -0.3992 -0.0082  0.3461
  969SOL    HW114126   4.420   0.955   2.095 -1.6557 -1.2571  1.4481
  969SOL    HW214127   4.492   0.922   2.238 -0.2126  0.7721  1.2105
  970SOL     OW14128   4.738   4.155   6.453 -0.2106 -0.4509  0.1236
  970SOL    HW114129   4.809   4.175   6.521  0.1429 -1.8564  0.1860
  970SOL    HW214130   4.679   4.082   6.487 -1.1286  0.0882 -0.3162
  971SOL     OW14131   2.160   0.745   3.442  0.4420 -0.0699  0.2397
  971SOL    HW114132   2.224   0.733   3.366 -1.0282  0.2019 -1.0480
  971SOL    HW214133   2.182   0.679   3.514 -0.1905 -2.6106 -1.8019
  972SOL     OW14134   8.520   6.349   6.557 -0.3924  0.3973 -0.0334
  972SOL    HW114135   8.465   6.267   6.572 -1.6364  0.7956 -2.1692
  972SOL    HW214136   8.516   6.407   6.638  0.0174 -1.3659  1.2712
  973SOL     OW14137   8.364   7.041   0.930  0.6416 -0.9204 -0.3179
  973SOL    HW114138   8.383   7.104   1.005  2.3703 -0.1947 -1.3247
  973SOL    HW214139   8.439   7.046   0.863 -1.3414 -0.8123 -2.5796
  974SOL     OW14140   6.757   8.018   4.207 -0.1024 -0.1349 -0.2010
  974SOL    HW114141   6.725   8.103   4.248  0.3717  0.2258 -0.5680
  974SOL    HW214142   6.681   7.954   4.198 -0.2682 -0.1019  0.9395
  975SOL     OW14143   0.050   8.804   6.539 -0.3672  0.3267 -0.3948
  975SOL    HW114144   0.041   8.750   6.456  1.0633 -0.0995 -0.2798
  975SOL    HW214145   0.146   8.806   6.568 -0.4714  2.4488 -0.0812
  976SOL     OW14146   8.016   2.198   5.345 -0.7579  0.0128 -0.3726
  976SOL    HW114147   7.923   2.171   5.321 -0.2725 -0.8922 -1.3249
  976SOL    HW214148   8.042   2.155   5.432 -1.5542  1.0345  0.3728
  977SOL     OW14149   9.181   5.911   6.717  0.4748 -0.8239  0.0365
  977SOL    HW114150   9.192   6.007   6.691 -0.0928 -0.5264  0.8839
  977SOL    HW214151   9.263   5.859   6.690  0.3983 -0.2941 -1.2555
  978SOL     OW14152   5.824   0.454   1.806 -0.1101 -0.2655  0.1633
  978SOL    HW114153   5.818   0.465   1.707 -1.5063 -1.4225  0.0995
  978SOL    HW214154   5.772   0.526   1.851  2.2473  1.5221  0.1475
  979SOL     OW14155   8.754   8.627   5.272  0.1797  0.9326  0.4099
  979SOL    HW114156   8.789   8.624   5.365 -1.1552 -2.0072  0.8785
  979SOL    HW214157   8.823   8.589   5.210 -0.1913 -0.1849  0.6656
  980SOL     OW14158   8.442   7.924   3.805  0.1238  0.6097 -0.1127
  980SOL    HW114159   8.500   7.887   3.732  0.2129  0.0375  0.2412
  980SOL    HW214160   8.464   8.020   3.820  1.8563  0.1000  0.8469
  981SOL     OW14161   4.157   5.063   1.302  0.4004  0.1589 -0.5328
  981SOL    HW114162   4.220   5.035   1.230  1.2912 -1.0692  0.6911
  981SOL    HW214163   4.203   5.125   1.365  0.3519 -0.5684  0.2441
  982SOL     OW14164   4.564   1.227   5.367 -0.5320  0.4961  0.2805
  982SOL    HW114165   4.576   1.131   5.391  1.6575  0.6578 -0.1531
  982SOL    HW214166   4.587   1.284   5.446  0.6141  0.7687 -0.2495
  983SOL     OW14167   2.418   7.265   1.137  0.1449  0.0853  0.9914
  983SOL    HW114168   2.351   7.253   1.064  0.0162 -0.3123  1.1748
  983SOL    HW214169   2.489   7.196   1.129  1.9363  2.0342 -0.7294
  984SOL     OW14170   4.570   8.004   3.876  0.0707 -0.0712  0.3631
  984SOL    HW114171   4.613   8.062   3.946 -0.1616 -1.5570  1.7846
  984SOL    HW214172   4.476   8.034   3.863  0.5585  1.1570 -0.4063
  985SOL     OW14173   1.379   2.635   6.689 -0.0300  0.1781  0.1333
  985SOL    HW114174   1.397   2.670   6.781 -1.3221 -1.5242  1.0696
  985SOL    HW214175   1.285   2.659   6.662  0.3439  0.6724 -0.7457
  986SOL     OW14176   2.529   7.587   1.976 -0.2039  0.2695  0.7853
  986SOL    HW114177   2.438   7.574   2.018 -0.0031  0.2804  1.2268
  986SOL    HW214178   2.540   7.521   1.902 -0.2534 -0.2898  1.2672
  987SOL     OW14179   4.850   8.788   6.742  0.3276  0.8301 -0.3061
  987SOL    HW114180   4.919   8.757   6.677  2.0853  0.5045  1.6790
  987SOL    HW214181   4.841   8.721   6.816 -1.3913  1.3635  0.0026
  988SOL     OW14182   4.004   3.919   0.974 -0.5513  0.0330  0.8781
  988SOL    HW114183   3.992   3.835   1.026 -0.3288 -0.3132  0.3670
  988SOL    HW214184   3.948   3.991   1.015  0.0424 -0.0867  1.9294
  989SOL     OW14185   4.183   5.524   2.271 -0.0275  0.0561 -0.1539
  989SOL    HW114186   4.186   5.569   2.181  0.4777 -1.5317 -0.9404
  989SOL    HW214187   4.092   5.538   2.311 -0.3810  0.4618 -1.0702
  990SOL     OW14188   1.549   9.459   1.628 -0.4119  0.5423  0.2271
  990SOL    HW114189   1.557   9.524   1.553 -0.3500  0.9351  0.5679
  990SOL    HW214190   1.542   9.509   1.715  1.4535  0.0788  0.6773
  991SOL     OW14191   1.222   5.377   6.237 -0.2757  0.0219  0.0665
  991SOL    HW114192   1.313   5.417   6.227 -0.3076 -0.1203 -0.8336
  991SOL    HW214193   1.174   5.420   6.314 -0.3379  1.7630 -0.9321
  992SOL     OW14194   2.786   2.729   5.513  0.2298  0.5180  0.5488
  992SOL    HW114195   2.699   2.736   5.465 -0.5925  0.2308  1.9734
  992SOL    HW214196   2.856   2.696   5.450 -0.7807  0.3756 -0.5123
  993SOL     OW14197   2.260   4.989   2.600 -0.3418  0.4102  0.0463
  993SOL    HW114198   2.200   4.933   2.543 -0.7239  0.7229  0.1421
  993SOL    HW214199   2.355   4.963   2.583 -0.5448 -0.6494  0.4924
  994SOL     OW14200   3.535   2.991   1.519 -0.3882  0.3974  0.3821
  994SOL    HW114201   3.634   2.978   1.514 -0.2988  0.5053  1.6332
  994SOL    HW214202   3.501   2.947   1.602 -1.6121 -0.9893 -0.8275
  995SOL     OW14203   0.739   2.218   4.579 -0.7885 -0.2062  0.1272
  995SOL    HW114204   0.667   2.283   4.558 -0.9198 -0.4526 -0.1810
  995SOL    HW214205   0.777   2.181   4.494  0.7314  1.0483  0.2314
  996SOL     OW14206   3.781   8.147   4.781  0.2226  0.2495 -0.2587
  996SOL    HW114207   3.837   8.219   4.822 -0.1031  0.5925 -0.4184
  996SOL    HW214208   3.754   8.174   4.689  2.0940 -1.1146 -1.2466
  997SOL     OW14209   3.087   8.953   3.045 -0.1299 -0.5712  0.1728
  997SOL    HW114210   3.093   9.012   3.125  0.8762  0.5342 -0.7027
  997SOL    HW214211   2.991   8.943   3.017 -0.4491 -0.6895  1.2926
  998SOL     OW14212   5.904   2.017   4.604 -0.4236 -0.0313 -0.5963
  998SOL    HW114213   5.884   1.959   4.525  0.3534 -0.0673 -0.7731
  998SOL    HW214214   5.866   2.108   4.589 -2.0280 -0.5964 -0.1307
  999SOL     OW14215   0.938   2.058   2.349  0.3938 -0.3451 -0.0357
  999SOL    HW114216   0.841   2.046   2.332 -0.0406  0.2514  1.9265
  999SOL    HW214217   0.956   2.058   2.447  2.3219 -0.0646 -0.3518
 1000SOL     OW14218   8.789   3.612   1.293 -0.1395 -0.1042 -0.3806
 1000SOL    HW114219   8.709   3.658   1.254 -0.0744 -0.9733 -1.5671
 1000SOL    HW214220   8.851   3.586   1.219  0.0194 -1.7409  0.3081
 1001SOL     OW14221   5.187   0.471   0.629  0.2367 -0.0291 -0.0306
 1001SOL    HW114222   5.121   0.463   0.554  0.3631  0.3074 -0.1802
 1001SOL    HW214223   5.139   0.501   0.712 -0.4473 -3.3458  0.8473
 1002SOL     OW14224   8.857   4.999   0.600 -0.2927 -0.4636  0.4420
 1002SOL    HW114225   8.889   5.045   0.518  0.0327 -3.7703 -1.3777
 1002SOL    HW214226   8.759   5.018   0.614 -0.0451  1.1198  0.0112
 1003SOL     OW14227   8.675   9.199   5.378 -0.2369  0.1689 -0.7919
 1003SOL    HW114228   8.604   9.155   5.434  0.0969  0.1217 -0.4068
 1003SOL    HW214229   8.688   9.145   5.294 -0.3641 -0.0490 -0.6735
 1004SOL     OW14230   5.116   3.753   1.395  0.7307 -0.3192 -0.3835
 1004SOL    HW114231   5.036   3.757   1.335  0.9665 -1.2735 -0.7632
 1004SOL    HW214232   5.148   3.846   1.413 -1.2305  0.1511  0.8096
 1005SOL     OW14233   1.266   7.430   6.274 -0.1201  0.1528  0.9234
 1005SOL    HW114234   1.221   7.441   6.363 -1.1653  0.4676  0.3638
 1005SOL    HW214235   1.210   7.371   6.216  1.1627 -1.0479  0.8872
 1006SOL     OW14236   2.205   0.394   0.525 -0.3097  0.2543  0.6748
 1006SOL    HW114237   2.164   0.321   0.470  0.0958  0.0615  0.6282
 1006SOL    HW214238   2.287   0.359   0.570 -0.6246  0.4146  1.3828
 1007SOL     OW14239   2.134   4.078   6.219  0.2629  0.4920 -0.3687
 1007SOL    HW114240   2.182   4.135   6.152  1.0500 -0.7454 -0.8864
 1007SOL    HW214241   2.120   3.986   6.180  2.0857 -0.7124  1.6881
 1008SOL     OW14242   1.273   4.101   1.470  0.1337 -0.2362 -0.4971
 1008SOL    HW114243   1.317   4.036   1.533 -0.3951 -0.5344 -0.4324
 1008SOL    HW214244   1.335   4.178   1.454  0.9386 -0.9599 -0.9101
 1009SOL     OW14245   2.324   9.445   5.767  0.3063  0.5880  0.1268
 1009SOL    HW114246   2.365   9.516   5.824  0.9124 -1.0805  1.8338
 1009SOL    HW214247   2.233   9.422   5.802  1.0312 -1.0616  1.0428
 1010SOL     OW14248   1.828   1.007   3.303 -0.5932 -0.3425  0.6131
 1010SOL    HW114249   1.912   1.048   3.267 -1.7066  1.0875 -0.4370
 1010SOL    HW214250   1.851   0.940   3.374  1.4623 -0.5875 -0.2448
 1011SOL     OW14251   2.305   3.171   5.325  0.3905  0.4645  1.0567
 1011SOL    HW114252   2.385   3.203   5.376  0.3413  0.7077  0.9825
 1011SOL    HW214253   2.296   3.224   5.241 -0.1088  0.7441  1.2873
 1012SOL     OW14254   3.141   6.281   3.295 -0.3417  0.4231 -0.3034
 1012SOL    HW114255   3.089   6.249   3.374  2.3521  0.7862  1.6883
 1012SOL    HW214256   3.152   6.206   3.230  1.8946 -1.4216  2.1382
 1013SOL     OW14257   9.570   5.196   3.057 -0.7081 -0.8585 -0.7569
 1013SOL    HW114258   9.647   5.250   3.023  0.4184 -1.8726  0.1423
 1013SOL    HW214259   9.520   5.155   2.980 -0.2010 -0.3974 -1.3276
 1014SOL     OW14260   7.752   8.855   4.648  0.5301  0.4329  0.4046
 1014SOL    HW114261   7.792   8.788   4.586  0.0660  1.3446 -0.8986
 1014SOL    HW214262   7.744   8.815   4.740  0.6083 -1.1537 -0.2618
 1015SOL     OW14263   2.147   7.679   6.499 -0.3735  0.0075  0.2052
 1015SOL    HW114264   2.225   7.633   6.457  0.9141  0.8114  1.6748
 1015SOL    HW214265   2.162   7.778   6.498 -1.8957  0.2422 -0.5099
 1016SOL     OW14266   9.488   3.480   1.628  0.6007 -0.2865 -0.4447
 1016SOL    HW114267   9.423   3.406   1.611 -0.3983  0.7477 -1.2269
 1016SOL    HW214268   9.467   3.557   1.567 -1.0211  2.3193  3.2083
 1017SOL     OW14269   0.963   7.475   5.357 -0.0113  0.1437 -0.3703
 1017SOL    HW114270   1.021   7.502   5.434  0.7300 -0.4877 -0.6959
 1017SOL    HW214271   0.938   7.556   5.303 -0.3159  0.5508  0.3767
 1018SOL     OW14272   8.615   4.064   2.697  0.3373 -0.7086 -0.0773
 1018SOL    HW114273   8.523   4.081   2.663  0.4603  0.4591  0.1518
 1018SOL    HW214274   8.664   4.004   2.634 -0.0883 -0.1290 -0.9582
 1019SOL     OW14275   6.853   0.321   0.791 -0.0142 -0.3706 -0.0089
 1019SOL    HW114276   6.890   0.414   0.791 -0.8713 -0.0077 -2.4649
 1019SOL    HW214277   6.925   0.255   0.769  0.6906 -0.3644  2.1481
 1020SOL     OW14278   0.411   6.385   1.515 -0.0373 -0.0150 -0.5144
 1020SOL    HW114279   0.316   6.415   1.502  0.2000  0.8695 -0.2810
 1020SOL    HW214280   0.466   6.463   1.546  0.2200 -1.1633  2.0273
 1021SOL     OW14281   3.376   8.579   4.264 -0.3214  0.6879  0.6707
 1021SOL    HW114282   3.429   8.515   4.319 -0.3149 -1.3454 -1.6438
 1021SOL    HW214283   3.281   8.547   4.258 -0.0791  0.3081 -1.3599
 1022SOL     OW14284   4.292   0.885   0.438 -0.4804  0.1136  0.2094
 1022SOL    HW114285   4.297   0.985   0.435 -0.5059  0.1353  0.8705
 1022SOL    HW214286   4.302   0.848   0.345 -0.3715  0.7247 -0.0217
 1023SOL     OW14287   8.131   4.557   6.640  0.1397 -0.4270  0.0883
 1023SOL    HW114288   8.105   4.643   6.684 -1.8327 -0.6080 -0.6826
 1023SOL    HW214289   8.069   4.484   6.670  1.7322 -1.5722  0.6632
 1024SOL     OW14290   3.030   2.437   1.269  0.5803  0.3037  0.3136
 1024SOL    HW114291   2.996   2.503   1.335 -0.7664  0.6365 -0.6882
 1024SOL    HW214292   3.046   2.349   1.314  2.0736  1.2127  1.5832
 1025SOL     OW14293   7.498   1.145   3.416 -0.4276 -0.3266  0.2116
 1025SOL    HW114294   7.490   1.109   3.509 -1.1249  0.8323  0.6067
 1025SOL    HW214295   7.414   1.194   3.392 -0.4592 -1.0694 -1.2229
 1026SOL     OW14296   2.820   0.610   6.245 -0.0868  0.2149 -0.0770
 1026SOL    HW114297   2.880   0.571   6.175 -0.4666  0.1370 -0.3628
 1026SOL    HW214298   2.871   0.675   6.301  0.3661 -0.1472 -0.0629
 1027SOL     OW14299   5.759   2.913   4.129  0.1100 -0.2444  0.5019
 1027SOL    HW114300   5.764   2.991   4.191 -0.8827 -0.3531  0.7260
 1027SOL    HW214301   5.670   2.913   4.082  1.9232  1.5011 -3.1222
 1028SOL     OW14302   2.590   2.583   4.128 -0.5209 -0.0371  0.3364
 1028SOL    HW114303   2.596   2.682   4.120  0.0246 -0.1098 -0.2610
 1028SOL    HW214304   2.511   2.558   4.184  0.9138  0.8064  2.7918
 1029SOL     OW14305   1.108   6.302   0.051  0.0989  0.4829  0.8598
 1029SOL    HW114306   1.133   6.221  -0.002  0.7988  1.8787 -0.9973
 1029SOL    HW214307   1.096   6.277   0.146 -0.8043 -2.0193  0.1106
 1030SOL     OW14308   0.167   0.833   2.767  0.0015  0.0645  0.0762
 1030SOL    HW114309   0.258   0.798   2.745  0.6679  0.7497  1.6789
 1030SOL    HW214310   0.170   0.933   2.771 -0.7715  0.0793  0.3946
 1031SOL     OW14311   0.790   5.879   3.635 -0.2245 -0.4200 -0.0390
 1031SOL    HW114312   0.824   5.890   3.729 -0.0373  0.9926 -0.2611
 1031SOL    HW214313   0.773   5.782   3.617 -1.8183 -0.5568  2.0004
 1032SOL     OW14314   2.979   6.585   2.054 -0.6997  0.1919  0.0434
 1032SOL    HW114315   3.066   6.541   2.031 -1.1999 -1.7747  1.6878
 1032SOL    HW214316   2.974   6.674   2.010  2.1243  0.3259 -0.1289
 1033SOL     OW14317   0.987   8.735   4.870  0.2682  0.3240 -0.3794
 1033SOL    HW114318   1.086   8.730   4.884  0.1019  1.5219  1.3918
 1033SOL    HW214319   0.968   8.766   4.777  1.5478 -0.1866 -0.8196
 1034SOL     OW14320   9.230   5.660   0.339  0.6454 -0.1049  0.2722
 1034SOL    HW114321   9.291   5.626   0.411 -0.2846  0.6029  1.4213
 1034SOL    HW214322   9.164   5.589   0.316  0.8726 -0.2949  0.2033
 1035SOL     OW14323   1.128   9.738   0.869 -0.7330  0.6548 -0.3088
 1035SOL    HW114324   1.056   9.670   0.884 -0.4182  0.1057 -1.2700
 1035SOL    HW214325   1.203   9.697   0.818  0.7041  0.9478  1.5002
 1036SOL     OW14326   9.358   1.291   6.544  0.0169  0.0129 -0.1100
 1036SOL    HW114327   9.449   1.249   6.544  0.4429  0.8447  2.6106
 1036SOL    HW214328   9.347   1.347   6.626 -2.9173  0.0565 -0.4793
 1037SOL     OW14329   3.244   3.018   6.018 -0.4486 -0.4271  0.2247
 1037SOL    HW114330   3.238   2.920   6.037  2.7243 -0.7740 -0.2651
 1037SOL    HW214331   3.186   3.068   6.083 -0.5253 -2.4876  1.8109
 1038SOL     OW14332   8.855   5.866   5.020  0.4736 -0.1819  0.7727
 1038SOL    HW114333   8.804   5.882   4.936  1.1314 -1.2084  0.1700
 1038SOL    HW214334   8.858   5.768   5.040  2.7501 -0.2191  0.4306
 1039SOL     OW14335   8.220   5.952   2.287 -0.3528 -0.1894  0.2524
 1039SOL    HW114336   8.228   5.899   2.372  0.0488 -1.5412 -0.5967
 1039SOL    HW214337   8.177   5.895   2.216  0.7095  0.3888 -0.8815
 1040SOL     OW14338   4.256   3.966   2.335  0.1999  0.0087  0.1576
 1040SOL    HW114339   4.254   4.066   2.343  1.4895 -0.0926  2.0660
 1040SOL    HW214340   4.232   3.926   2.423 -2.8036 -1.4059 -1.2559
 1041SOL     OW14341   1.925   2.154   1.317 -0.0015 -0.2213 -0.5221
 1041SOL    HW114342   1.983   2.227   1.282  3.0048 -2.3339 -0.1818
 1041SOL    HW214343   1.897   2.176   1.411  1.2354  0.3237 -0.2686
 1042SOL     OW14344   0.663   3.451   2.612 -0.0785  0.2762  0.6828
 1042SOL    HW114345   0.590   3.383   2.605 -0.5680  0.9822 -1.4363
 1042SOL    HW214346   0.719   3.450   2.530  1.9033  0.2498  1.9855
 1043SOL     OW14347   3.392   3.363   3.640  0.2969  0.4756 -0.0812
 1043SOL    HW114348   3.454   3.441   3.638  3.3245 -1.8459 -1.0867
 1043SOL    HW214349   3.419   3.300   3.713  0.3628 -1.4899 -1.7291
 1044SOL     OW14350   4.898   9.324   1.879 -0.3065  0.3430 -0.3673
 1044SOL    HW114351   4.931   9.245   1.931 -0.0344  1.9544  2.0150
 1044SOL    HW214352   4.968   9.395   1.881 -0.6578  0.7600 -2.2637
 1045SOL     OW14353   9.835   8.905   6.668  0.9110 -0.0395 -0.0513
 1045SOL    HW114354   9.837   8.893   6.767  3.8937  1.4533  0.1136
 1045SOL    HW214355   9.921   8.873   6.629  0.3628  0.8059 -2.0164
 1046SOL     OW14356   0.073   1.708   2.439  0.1691  0.5561  0.2337
 1046SOL    HW114357   0.028   1.779   2.494 -0.0277  1.7055 -1.3919
 1046SOL    HW214358   0.161   1.742   2.406 -0.1769  0.2703 -1.0168
 1047SOL     OW14359   4.147   9.671   5.277 -0.4331  0.1397  0.0832
 1047SOL    HW114360   4.102   9.612   5.210  0.7076 -0.0728 -0.5124
 1047SOL    HW214361   4.240   9.638   5.293  0.7507  2.6426 -1.3925
 1048SOL     OW14362   2.479   4.138   0.390 -0.0420 -0.1626  0.7474
 1048SOL    HW114363   2.402   4.174   0.442  0.1963  2.5512 -0.7220
 1048SOL    HW214364   2.485   4.039   0.405 -2.6136 -0.1244  2.3897
 1049SOL     OW14365   1.696   9.230   1.495  1.0200 -0.0931  0.1790
 1049SOL    HW114366   1.633   9.307   1.503  0.8238 -0.3245  0.9009
 1049SOL    HW214367   1.690   9.173   1.578 -0.1872 -1.8969 -1.0937
 1050SOL     OW14368   0.336   1.593   0.065  0.5611 -0.6989  0.0562
 1050SOL    HW114369   0.429   1.557   0.061  1.4523  1.4718  0.3150
 1050SOL    HW214370   0.333   1.669   0.129 -1.0560  0.2053 -1.0482
 1051SOL     OW14371   5.845   0.255   1.029  0.3787 -0.2548 -0.4020
 1051SOL    HW114372   5.920   0.313   1.063 -0.4366  0.1043  0.7897
 1051SOL    HW214373   5.805   0.298   0.948  2.1311 -0.9720 -1.6921
 1052SOL     OW14374   4.734   4.467   1.599 -0.0460  0.3128 -0.2936
 1052SOL    HW114375   4.671   4.513   1.537  0.9688  0.5716 -1.1435
 1052SOL    HW214376   4.683   4.402   1.656 -1.1560  0.9301 -0.5658
 1053SOL     OW14377   4.720   6.362   2.602  0.0790  0.2161 -0.0470
 1053SOL    HW114378   4.787   6.289   2.613  1.0661  1.1721  0.3769
 1053SOL    HW214379   4.670   6.375   2.688  0.2900  0.4229  0.0427
 1054SOL     OW14380   1.993   4.451   0.220  0.3452 -0.1477 -0.3899
 1054SOL    HW114381   2.005   4.415   0.128 -0.6937 -2.1644  0.2225
 1054SOL    HW214382   1.909   4.505   0.224  1.0861  1.0802 -0.9238
 1055SOL     OW14383   2.429   9.725   4.002 -0.2040 -0.2985  0.0851
 1055SOL    HW114384   2.412   9.627   4.002 -0.8356 -0.1908  1.0203
 1055SOL    HW214385   2.364   9.771   4.062 -0.5638  0.8090 -1.1129
 1056SOL     OW14386   2.525   6.096   0.833  0.3884  0.4383 -0.0696
 1056SOL    HW114387   2.434   6.130   0.856  0.7050  2.0117 -1.0661
 1056SOL    HW214388   2.594   6.148   0.884  0.7882  0.1530 -0.3201
 1057SOL     OW14389   9.964   1.755   1.334  0.0248 -0.6973  0.5799
 1057SOL    HW114390   9.898   1.783   1.404  1.9690 -0.5870  2.4088
 1057SOL    HW214391  10.012   1.836   1.299 -0.8736 -0.7631 -0.8309
 1058SOL     OW14392   4.616   3.321   6.557 -0.3267  0.1946 -0.7716
 1058SOL    HW114393   4.644   3.406   6.602 -0.8270 -0.1121  0.1400
 1058SOL    HW214394   4.554   3.341   6.482 -1.1627  0.5814  0.0135
 1059SOL     OW14395   0.145   9.175   5.918  0.5088 -0.0587  0.2864
 1059SOL    HW114396   0.206   9.254   5.926  0.9165  0.0311 -3.2218
 1059SOL    HW214397   0.054   9.206   5.889  0.0994 -0.6729  0.8936
 1060SOL     OW14398   3.284   6.434   2.992 -0.0067 -0.3268  0.2883
 1060SOL    HW114399   3.299   6.381   2.908 -1.7083 -1.4175  0.6639
 1060SOL    HW214400   3.329   6.389   3.069  3.2846  1.7132 -0.3146
 1061SOL     OW14401   3.698   5.697   3.991  0.2392  0.2014  0.0162
 1061SOL    HW114402   3.751   5.619   4.023 -1.3591 -1.6225 -1.6441
 1061SOL    HW214403   3.608   5.697   4.035 -1.3314 -1.3492 -3.0333
 1062SOL     OW14404   8.633   1.492   4.793  0.4998 -0.7373 -0.5670
 1062SOL    HW114405   8.697   1.416   4.805  0.4423 -0.5342  1.1273
 1062SOL    HW214406   8.684   1.575   4.771  0.9009 -0.4353  1.4183
 1063SOL     OW14407   8.589   7.757   0.045 -0.9016  0.4888  0.0948
 1063SOL    HW114408   8.621   7.839   0.093 -0.1762 -0.1927  0.8116
 1063SOL    HW214409   8.640   7.678   0.078 -1.3531 -0.2042 -0.8368
 1064SOL     OW14410   0.222   2.147   4.706 -0.2864 -0.3098  0.3759
 1064SOL    HW114411   0.145   2.148   4.770  0.0683 -3.1885  0.8782
 1064SOL    HW214412   0.242   2.053   4.679  2.0422  0.5559 -0.9958
 1065SOL     OW14413   9.170   4.914   1.528  0.5537  0.3848 -0.0585
 1065SOL    HW114414   9.234   4.969   1.581  0.6363 -0.2102  0.4730
 1065SOL    HW214415   9.077   4.948   1.543  0.3529 -0.9229  1.9970
 1066SOL     OW14416   8.606   0.241   4.461  0.6259 -0.0523 -0.0791
 1066SOL    HW114417   8.637   0.312   4.398  1.7071  0.2964  0.8536
 1066SOL    HW214418   8.540   0.279   4.525  0.9053  0.0168  0.1667
 1067SOL     OW14419   2.863   7.831   4.637  0.0226  0.0980  0.1515
 1067SOL    HW114420   2.791   7.830   4.706  0.1235  2.9179  0.3414
 1067SOL    HW214421   2.938   7.890   4.667  1.2509 -0.7353 -1.2099
 1068SOL     OW14422   9.860   6.160   6.263 -0.5532  0.6161 -0.1311
 1068SOL    HW114423   9.815   6.250   6.258 -1.2410  0.3856  1.6177
 1068SOL    HW214424   9.840   6.118   6.351  0.5665 -0.8511 -0.5660
 1069SOL     OW14425   5.053   0.867   6.256 -0.0228 -0.4509  0.3299
 1069SOL    HW114426   4.956   0.858   6.278 -0.1158  0.9645  0.5287
 1069SOL    HW214427   5.093   0.941   6.310  1.0436 -0.6704 -0.1471
 1070SOL     OW14428   7.079   3.434   1.035  0.2399  0.5035 -0.0103
 1070SOL    HW114429   7.054   3.339   1.055 -0.8912  0.5733 -0.9953
 1070SOL    HW214430   7.110   3.440   0.940  1.5492  0.8996  0.4350
 1071SOL     OW14431   9.282   4.881   4.699 -0.6550  0.4896 -0.2031
 1071SOL    HW114432   9.357   4.824   4.730 -0.0626 -0.2365 -2.7996
 1071SOL    HW214433   9.311   4.977   4.699 -0.1150  0.3300 -0.0906
 1072SOL     OW14434   8.781   5.920   5.619  0.4425 -0.0565  0.2142
 1072SOL    HW114435   8.818   5.944   5.709 -0.4251 -1.0840  0.8666
 1072SOL    HW214436   8.765   5.821   5.616 -0.3727  0.1055 -0.7626
 1073SOL     OW14437   3.550   4.636   6.181 -0.0188 -0.0791 -0.3069
 1073SOL    HW114438   3.455   4.662   6.198  0.0603 -0.6492  1.0507
 1073SOL    HW214439   3.568   4.636   6.082 -1.2900  0.4898 -0.5431
 1074SOL     OW14440   6.886   4.007   6.717 -0.2940 -0.7543 -0.2313
 1074SOL    HW114441   6.816   4.057   6.768  0.3347 -0.0726 -0.0280
 1074SOL    HW214442   6.852   3.915   6.695 -0.3894 -1.2380  1.8399
 1075SOL     OW14443   3.204   9.493   1.700 -0.0445 -0.0991  0.2068
 1075SOL    HW114444   3.217   9.549   1.782  0.7799 -0.8707  0.6187
 1075SOL    HW214445   3.292   9.454   1.673 -1.0759 -3.6563  1.6921
 1076SOL     OW14446   4.066   4.648   5.963  0.2746  0.5362  0.5063
 1076SOL    HW114447   4.048   4.702   5.880  1.7555  0.5580  0.1924
 1076SOL    HW214448   4.105   4.560   5.938  2.9990  1.4720  1.2544
 1077SOL     OW14449   1.349   5.547   5.828 -0.0255 -0.0350 -0.3069
 1077SOL    HW114450   1.364   5.480   5.900 -1.8535 -1.3069 -1.0732
 1077SOL    HW214451   1.327   5.499   5.743 -3.2748  1.5601 -0.4114
 1078SOL     OW14452   8.440   9.598   3.115 -0.1543  0.0738  0.1328
 1078SOL    HW114453   8.486   9.510   3.114 -1.9821 -0.9056  0.8033
 1078SOL    HW214454   8.384   9.608   3.032 -0.9086  0.0925  0.6456
 1079SOL     OW14455   8.891   3.808   3.358  0.6393  0.0860  0.0162
 1079SOL    HW114456   8.924   3.900   3.380  0.9036  0.4255 -1.6515
 1079SOL    HW214457   8.819   3.781   3.422  2.5010  0.3029  2.2665
 1080SOL     OW14458   3.137   9.618   5.103  0.1594 -0.2980 -0.1909
 1080SOL    HW114459   3.050   9.668   5.100 -0.2094 -0.9914 -1.4780
 1080SOL    HW214460   3.130   9.535   5.048  1.4792 -0.6356  0.1188
 1081SOL     OW14461   2.639   2.751   1.335  0.2275 -0.5715  0.1153
 1081SOL    HW114462   2.627   2.847   1.358 -0.3878 -0.7113  0.3775
 1081SOL    HW214463   2.736   2.734   1.315  0.4351 -0.0223  0.6200
 1082SOL     OW14464   2.132   4.282   4.199  0.0493 -0.3689 -0.4466
 1082SOL    HW114465   2.051   4.282   4.140 -0.1821  0.3531 -0.1432
 1082SOL    HW214466   2.110   4.236   4.285 -0.4292  0.9162  0.1351
 1083SOL     OW14467   3.921   1.175   5.014 -0.5092 -0.7556  0.1792
 1083SOL    HW114468   3.823   1.195   5.008 -0.5870 -0.9475  0.7712
 1083SOL    HW214469   3.968   1.254   5.054 -0.4090 -0.6257 -0.1940
 1084SOL     OW14470   9.926   1.102   6.439  0.6928  0.1701  0.3225
 1084SOL    HW114471   9.961   1.105   6.533 -0.8916  1.1715  0.9123
 1084SOL    HW214472   9.931   1.193   6.398 -0.2524  0.1191  0.0710
 1085SOL     OW14473   3.474   4.536   0.914 -0.0411 -0.7117 -0.1452
 1085SOL    HW114474   3.376   4.533   0.896  0.0698  0.7739 -1.0907
 1085SOL    HW214475   3.501   4.455   0.966 -1.7245 -1.2368 -0.0618
 1086SOL     OW14476   9.238   1.235   2.097 -0.2095  0.2103 -0.3740
 1086SOL    HW114477   9.256   1.332   2.114 -1.4059  0.5343 -0.9213
 1086SOL    HW214478   9.233   1.218   1.999 -3.4709  0.2796 -0.2714
 1087SOL     OW14479   1.020   6.685   1.978 -0.2017  0.0212  0.5793
 1087SOL    HW114480   1.112   6.671   2.014  0.1601  1.4672  0.2471
 1087SOL    HW214481   1.024   6.690   1.878 -0.7819 -0.9122  0.5045
 1088SOL     OW14482   0.712   3.893   0.550  0.4173  0.5859 -0.2548
 1088SOL    HW114483   0.753   3.862   0.464  0.3346  0.6063 -0.3005
 1088SOL    HW214484   0.773   3.868   0.625  0.0388 -0.2830 -0.2298
 1089SOL     OW14485   9.568   9.868   5.575 -0.2996 -0.3904 -0.3220
 1089SOL    HW114486   9.650   9.815   5.594 -1.4803 -2.3921 -0.6183
 1089SOL    HW214487   9.508   9.868   5.655 -0.6176 -0.0885 -0.5557
 1090SOL     OW14488   0.465   6.160   2.601 -0.6435  1.1377 -0.4424
 1090SOL    HW114489   0.489   6.118   2.513 -0.3394  1.0528 -0.3204
 1090SOL    HW214490   0.522   6.241   2.616 -0.4695  0.9666 -0.1748
 1091SOL     OW14491   4.350   1.944   0.713  0.0731 -0.1869  0.2373
 1091SOL    HW114492   4.356   2.018   0.645  0.5423 -0.0655  0.4074
 1091SOL    HW214493   4.342   1.984   0.804  1.6132 -0.3325  0.4477
 1092SOL     OW14494   2.339   8.386   1.388  0.2626 -0.1841 -0.5110
 1092SOL    HW114495   2.365   8.426   1.476 -0.7270 -0.0393 -0.2794
 1092SOL    HW214496   2.283   8.451   1.336 -0.4910 -0.8670 -0.5679
 1093SOL     OW14497   0.938   0.448   6.709  0.3090 -0.4566 -0.5122
 1093SOL    HW114498   1.025   0.423   6.665 -0.7160 -1.3753 -2.0827
 1093SOL    HW214499   0.863   0.405   6.659 -1.0724  0.5895  0.6454
 1094SOL     OW14500   9.968   6.986   2.147  0.2478  0.3130 -0.2854
 1094SOL    HW114501   9.941   6.891   2.162  1.1718 -0.0698 -0.9542
 1094SOL    HW214502  10.060   6.988   2.107  0.8816  1.5383  1.1901
 1095SOL     OW14503   2.143   1.154   1.757 -0.1249 -0.0328 -0.3741
 1095SOL    HW114504   2.232   1.179   1.721 -0.9064  1.5896 -1.2665
 1095SOL    HW214505   2.154   1.097   1.839  1.7228  0.9069  0.0508
 1096SOL     OW14506   9.725   7.165   2.614  0.6568  0.6020  0.5062
 1096SOL    HW114507   9.760   7.244   2.665  1.0676  1.5464 -1.2062
 1096SOL    HW214508   9.787   7.144   2.539  0.0820 -0.8029  0.4112
 1097SOL     OW14509   1.903   4.885   0.723  0.2964 -0.2537 -0.1494
 1097SOL    HW114510   1.951   4.955   0.670 -0.1601 -0.4879 -0.8810
 1097SOL    HW214511   1.816   4.921   0.756 -0.6442 -0.9354 -1.8087
 1098SOL     OW14512   5.915   0.535   0.635 -0.1483 -0.7329  0.0715
 1098SOL    HW114513   5.972   0.496   0.563 -1.3498 -1.8972 -0.2779
 1098SOL    HW214514   5.963   0.532   0.722  0.2174 -1.9482 -0.1711
 1099SOL     OW14515   7.378   0.214   3.553  0.5705  0.2200 -0.1954
 1099SOL    HW114516   7.356   0.300   3.599  0.7285 -0.1648  0.6084
 1099SOL    HW214517   7.371   0.226   3.454 -0.1360  0.9557 -0.0590
 1100SOL     OW14518   4.510   2.283   5.775 -0.2922  0.1988  0.1364
 1100SOL    HW114519   4.588   2.242   5.728  0.5310  1.0083  0.7879
 1100SOL    HW214520   4.447   2.322   5.707  0.0688 -0.0979 -0.3712
 1101SOL     OW14521   5.823   9.448   3.763 -0.2612 -0.1668 -0.3699
 1101SOL    HW114522   5.770   9.377   3.717 -1.6164 -0.4010  1.4795
 1101SOL    HW214523   5.843   9.418   3.857  0.0622  1.4533  0.0810
 1102SOL     OW14524   2.334   2.893   1.933  0.4189 -0.2501 -0.0523
 1102SOL    HW114525   2.378   2.806   1.915 -0.4716 -0.7839  0.3032
 1102SOL    HW214526   2.345   2.918   2.030  2.5657  1.1163 -0.6245
 1103SOL     OW14527   1.555   0.140   0.114  0.0201 -0.2729  0.8002
 1103SOL    HW114528   1.455   0.141   0.101  0.2831 -0.6246 -1.3784
 1103SOL    HW214529   1.582   0.050   0.150 -0.2006 -1.0785 -0.9681
 1104SOL     OW14530   1.129   2.864   3.758 -0.9158  0.3686  0.3482
 1104SOL    HW114531   1.066   2.812   3.816  0.3884 -1.5937  0.0769
 1104SOL    HW214532   1.141   2.817   3.671  0.7460  0.7959  0.3211
 1105SOL     OW14533   7.218   5.101   1.317 -0.6747 -0.0108 -0.6074
 1105SOL    HW114534   7.127   5.073   1.284 -1.2009  1.4207 -0.3808
 1105SOL    HW214535   7.217   5.198   1.339  0.6218 -0.2246  0.4295
 1106SOL     OW14536   6.404   7.957   4.947  0.4081  0.2138 -0.0624
 1106SOL    HW114537   6.414   8.045   4.993 -0.5440  0.7333 -0.8343
 1106SOL    HW214538   6.442   7.884   5.004  0.7726  1.0690  0.7788
 1107SOL     OW14539   2.418   4.731   4.610  0.2099 -0.1226  0.0357
 1107SOL    HW114540   2.331   4.766   4.645 -0.2417 -0.1940 -0.9797
 1107SOL    HW214541   2.470   4.805   4.568 -0.9901 -0.7211 -2.6022
 1108SOL     OW14542   9.572   2.625   0.370  0.3848  0.1445  0.3154
 1108SOL    HW114543   9.659   2.647   0.325  1.8082  1.6686  3.6689
 1108SOL    HW214544   9.520   2.709   0.385 -0.9752 -0.5821 -0.2541
 1109SOL     OW14545   0.712   7.500   0.740 -0.1497 -0.3209  0.1452
 1109SOL    HW114546   0.752   7.567   0.676 -0.6727 -0.2529 -0.1118
 1109SOL    HW214547   0.687   7.417   0.690 -0.9251 -0.1172  0.1865
 1110SOL     OW14548   7.855   3.886   6.692  0.6085 -0.1565  0.0010
 1110SOL    HW114549   7.880   3.936   6.775  0.5981  0.6391 -0.4673
 1110SOL    HW214550   7.857   3.948   6.614 -0.3248 -0.6715 -0.4488
 1111SOL     OW14551   8.198   5.064   0.919  0.2665  0.1214 -0.1816
 1111SOL    HW114552   8.152   4.978   0.897  0.4431 -0.1750  0.6154
 1111SOL    HW214553   8.190   5.126   0.841  0.2413 -0.6548 -0.8108
 1112SOL     OW14554   4.509   7.006   3.785 -0.3647  0.2216 -0.4823
 1112SOL    HW114555   4.419   6.962   3.775 -0.0120 -0.8148  0.8836
 1112SOL    HW214556   4.569   6.949   3.840  0.6427  1.6614 -0.0506
 1113SOL     OW14557   1.687   3.092   6.657  0.2845 -0.5623  0.5806
 1113SOL    HW114558   1.729   3.001   6.661  1.2323 -0.2220 -0.9754
 1113SOL    HW214559   1.721   3.140   6.576 -0.5594  1.0068  1.1426
 1114SOL     OW14560   5.777   2.687   3.963 -0.5328  0.1286 -0.0799
 1114SOL    HW114561   5.763   2.714   3.868 -1.3066  0.7463  0.2023
 1114SOL    HW214562   5.788   2.769   4.020 -2.8596 -0.1098  0.7802
 1115SOL     OW14563   7.354   4.072   0.758 -0.1383  0.2834 -0.7195
 1115SOL    HW114564   7.391   3.980   0.768 -0.2155  0.4269  1.0275
 1115SOL    HW214565   7.424   4.133   0.721  0.2322 -0.2328 -0.8731
 1116SOL     OW14566   5.879   1.452   2.208 -0.6399  0.0896  0.4217
 1116SOL    HW114567   5.919   1.430   2.297  1.2727 -0.2319 -0.5011
 1116SOL    HW214568   5.779   1.445   2.214 -0.4827 -0.8061  2.2978
 1117SOL     OW14569   2.774   6.483   1.894 -0.0405 -0.3625  0.0714
 1117SOL    HW114570   2.814   6.393   1.876 -0.2659 -0.5992  0.7507
 1117SOL    HW214571   2.816   6.522   1.975 -0.7758 -0.3631  0.4577
 1118SOL     OW14572   0.767   6.053   4.539 -0.3512  0.1118  0.1568
 1118SOL    HW114573   0.811   6.142   4.535  2.6728 -1.3063  0.7457
 1118SOL    HW214574   0.672   6.064   4.567 -1.0262  3.4383 -2.9699
 1119SOL     OW14575   3.593   2.405   2.139  0.2244 -0.1221 -0.5083
 1119SOL    HW114576   3.688   2.386   2.111  0.0181 -0.3945 -1.0366
 1119SOL    HW214577   3.545   2.318   2.152  0.2915  0.0008  0.6326
 1120SOL     OW14578   0.610   0.393   5.664  0.0806 -0.3286 -0.0937
 1120SOL    HW114579   0.629   0.491   5.672  2.0263 -0.6129 -0.8936
 1120SOL    HW214580   0.529   0.379   5.608 -0.6988  0.8481  0.7234
 1121SOL     OW14581   6.077   8.496   1.966 -0.2646  0.3330  0.2418
 1121SOL    HW114582   6.129   8.413   1.984 -1.0196 -0.0689  0.5807
 1121SOL    HW214583   6.122   8.574   2.010  1.0748  0.3022 -1.0433
 1122SOL     OW14584   8.438   7.507   5.511 -0.2453 -0.1416  0.3446
 1122SOL    HW114585   8.463   7.448   5.587  1.1154 -0.1542 -0.0957
 1122SOL    HW214586   8.509   7.576   5.498  0.4595 -1.2495 -2.0349
 1123SOL     OW14587   0.840   8.354   2.871 -0.1695  0.4033 -0.8095
 1123SOL    HW114588   0.779   8.335   2.948  0.8319  0.1208 -0.0826
 1123SOL    HW214589   0.831   8.450   2.845 -0.4683  0.5152 -0.3106
 1124SOL     OW14590   0.971   4.635   2.452 -0.2249  0.3215 -0.3084
 1124SOL    HW114591   0.913   4.683   2.518  0.0095  1.0307 -0.6111
 1124SOL    HW214592   0.953   4.537   2.456 -1.6183  0.5569 -0.5580
 1125SOL     OW14593   2.456   3.090   3.071 -0.1387 -0.5022 -0.3259
 1125SOL    HW114594   2.368   3.049   3.048  0.4407 -1.9385 -0.0238
 1125SOL    HW214595   2.446   3.190   3.075 -2.3222 -0.7547  2.0644
 1126SOL     OW14596   9.226   2.482   4.776 -0.0227  0.3234  0.0630
 1126SOL    HW114597   9.257   2.417   4.846 -2.2655 -0.1249  0.7014
 1126SOL    HW214598   9.224   2.437   4.687  2.5939  0.8150 -0.2704
 1127SOL     OW14599   8.660   2.285   3.897  0.0940  0.2421 -0.7799
 1127SOL    HW114600   8.739   2.324   3.944  0.5933 -1.3531 -0.2794
 1127SOL    HW214601   8.619   2.354   3.838  1.1991  1.4057 -0.1983
 1128SOL     OW14602   9.596   0.021   5.004  0.0873 -0.4126  0.0751
 1128SOL    HW114603   9.506   0.033   4.963  0.3095 -0.8407 -0.5549
 1128SOL    HW214604   9.614  -0.077   5.017  0.7480 -0.3744 -0.4882
 1129SOL     OW14605   0.188   6.002   1.851  0.4968 -0.0911  0.3811
 1129SOL    HW114606   0.170   5.907   1.876  0.9594 -0.1340  0.5584
 1129SOL    HW214607   0.135   6.026   1.770  0.7759 -0.6573  0.0261
 1130SOL     OW14608   7.163   1.148   0.977 -0.1725 -0.0218 -0.1429
 1130SOL    HW114609   7.147   1.138   0.879  1.5089 -0.3011 -0.4097
 1130SOL    HW214610   7.246   1.097   1.003  0.4838  1.6161  1.0653
 1131SOL     OW14611   1.966   5.734   1.017  0.2611 -0.3717 -0.3726
 1131SOL    HW114612   1.961   5.638   0.990  1.2978 -0.5353 -0.0220
 1131SOL    HW214613   2.040   5.779   0.966  0.8246 -0.1605  0.6148
 1132SOL     OW14614   3.148   3.230   0.374  0.2003  0.0623 -0.3211
 1132SOL    HW114615   3.245   3.236   0.398 -0.1593 -2.1657  1.9066
 1132SOL    HW214616   3.097   3.302   0.421  0.4849  0.0359  0.0231
 1133SOL     OW14617   9.672   0.716   1.115  0.0719  0.0957  0.6208
 1133SOL    HW114618   9.681   0.720   1.015 -0.3343 -0.2375  0.5672
 1133SOL    HW214619   9.576   0.700   1.139  0.6625 -3.1845  0.9708
 1134SOL     OW14620   9.279   0.765   6.035  0.0451  0.2880  0.2599
 1134SOL    HW114621   9.198   0.793   6.087  0.0624 -0.5165  0.7170
 1134SOL    HW214622   9.361   0.790   6.087  0.1067  1.3864 -0.3440
 1135SOL     OW14623   2.613   7.778   3.579 -0.3851  0.0414  0.1357
 1135SOL    HW114624   2.659   7.853   3.626 -1.5464 -0.2515  1.7756
 1135SOL    HW214625   2.634   7.782   3.481  1.5981  0.9969  0.5796
 1136SOL     OW14626   7.186   1.860   2.173  0.7781  0.9150 -0.0819
 1136SOL    HW114627   7.193   1.935   2.107  0.5821  0.1639 -0.9733
 1136SOL    HW214628   7.109   1.877   2.234 -0.2291  0.7016 -1.2570
 1137SOL     OW14629   9.065   0.650   3.759  0.0034  0.3620 -0.0263
 1137SOL    HW114630   9.006   0.715   3.711 -0.6308  0.5954  1.0758
 1137SOL    HW214631   9.128   0.609   3.693 -0.3450  1.2526 -0.9325
 1138SOL     OW14632   9.825   8.377   0.716  0.2148  0.2015  0.0827
 1138SOL    HW114633   9.808   8.388   0.814 -0.2287 -2.0869  0.2837
 1138SOL    HW214634   9.766   8.305   0.680  0.1993  1.1990 -1.9329
 1139SOL     OW14635   1.765   1.038   2.737  0.0023 -0.5342  0.3862
 1139SOL    HW114636   1.712   0.954   2.750  0.2004 -1.0275 -1.8046
 1139SOL    HW214637   1.835   1.023   2.668  2.4527  0.4002  2.6124
 1140SOL     OW14638   3.358   7.209   1.912  0.8030  0.1334  0.0343
 1140SOL    HW114639   3.414   7.237   1.990 -1.4690 -0.2206  1.8614
 1140SOL    HW214640   3.342   7.287   1.852  1.7308  0.6536  0.4590
 1141SOL     OW14641   4.283   3.446   3.152 -0.2074  0.0609  0.0206
 1141SOL    HW114642   4.300   3.528   3.207  3.2620 -0.4933 -0.1368
 1141SOL    HW214643   4.255   3.473   3.060 -0.4509  1.0250  0.3709
 1142SOL     OW14644   2.233   8.776   3.674  0.0096 -0.1347 -0.5916
 1142SOL    HW114645   2.327   8.747   3.688 -0.2018 -0.6686 -0.2656
 1142SOL    HW214646   2.214   8.856   3.731 -0.4670 -1.5354  1.2468
 1143SOL     OW14647   5.947   0.831   4.805  0.1275 -0.6129  0.0842
 1143SOL    HW114648   5.997   0.896   4.747 -2.9747  0.0268 -2.0249
 1143SOL    HW214649   5.962   0.738   4.770 -0.9179 -0.3285 -1.1521
 1144SOL     OW14650   5.617   7.726   4.371 -0.6253  0.0074  0.0528
 1144SOL    HW114651   5.616   7.780   4.455  1.7362 -0.4495  0.4022
 1144SOL    HW214652   5.675   7.770   4.303 -0.1680 -1.1126 -0.3021
 1145SOL     OW14653   9.523   0.170   5.734 -0.3496  0.6978  0.5104
 1145SOL    HW114654   9.450   0.223   5.692 -0.8222  0.6570  1.2534
 1145SOL    HW214655   9.497   0.073   5.735 -1.1668  0.8977  2.4873
 1146SOL     OW14656   2.040   5.803   1.270 -0.7356 -0.1488  0.0347
 1146SOL    HW114657   2.001   5.775   1.182 -0.9039  0.8237 -0.2126
 1146SOL    HW214658   2.012   5.897   1.289  0.1066 -0.0297  0.6666
 1147SOL     OW14659   9.844   9.532   4.726  0.2533  0.1409  0.1221
 1147SOL    HW114660   9.921   9.544   4.663 -0.2554  1.2291 -0.3094
 1147SOL    HW214661   9.787   9.615   4.725 -0.7482 -0.5324  0.6688
 1148SOL     OW14662   2.838   8.402   4.082 -0.4242  0.1355  0.2084
 1148SOL    HW114663   2.925   8.354   4.080 -0.3084  0.3062  0.9476
 1148SOL    HW214664   2.789   8.379   4.166 -0.7044  0.7201  0.2103
 1149SOL     OW14665   5.757   0.872   0.870  0.4667  0.2289  0.2522
 1149SOL    HW114666   5.850   0.881   0.835  0.4042  1.6299  0.4245
 1149SOL    HW214667   5.750   0.915   0.960  0.1739 -1.7673  1.2283
 1150SOL     OW14668   2.730   2.028   0.063  0.9200 -0.8527  0.4579
 1150SOL    HW114669   2.717   1.973  -0.019  2.0965 -0.6166  0.0997
 1150SOL    HW214670   2.669   2.108   0.059  0.9201 -0.8787 -0.1516
 1151SOL     OW14671   2.571   3.676   2.280 -0.0167  0.1096  0.1815
 1151SOL    HW114672   2.493   3.619   2.256  0.8901 -1.1641  0.1832
 1151SOL    HW214673   2.595   3.734   2.202  0.2182 -0.8782 -0.4883
 1152SOL     OW14674   1.052   1.588   0.274 -0.2841  1.0142  0.2321
 1152SOL    HW114675   1.057   1.497   0.316  0.1518  1.2436  0.6647
 1152SOL    HW214676   1.001   1.581   0.187 -1.3088  0.5740  0.8533
 1153SOL     OW14677   4.264   5.540   4.819 -0.4730  0.2585  0.7147
 1153SOL    HW114678   4.195   5.565   4.751 -0.4466 -0.2361  0.5025
 1153SOL    HW214679   4.265   5.607   4.892 -0.4695  0.8248  0.1981
 1154SOL     OW14680   1.266   6.508   4.101 -0.0008  0.0314 -0.2831
 1154SOL    HW114681   1.176   6.551   4.105  0.3369  0.6379  0.7910
 1154SOL    HW214682   1.265   6.422   4.152  0.1968  0.3505  0.2631
 1155SOL     OW14683   6.671   3.938   0.503 -0.2865  0.1125  0.0643
 1155SOL    HW114684   6.714   4.011   0.557  0.6591  1.6147 -2.6038
 1155SOL    HW214685   6.729   3.857   0.503 -0.0421  0.2855  0.8325
 1156SOL     OW14686   7.182   9.397   5.970 -0.4639  0.2172  0.1345
 1156SOL    HW114687   7.111   9.360   6.030 -1.0410 -0.6422 -1.0579
 1156SOL    HW214688   7.139   9.448   5.895  0.1790 -0.1237 -0.4745
 1157SOL     OW14689   4.972   2.632   3.179  0.0699 -0.1908  0.2655
 1157SOL    HW114690   5.048   2.683   3.138 -0.1868  0.1693  0.2284
 1157SOL    HW214691   4.984   2.534   3.162  0.1341 -0.0718 -0.3936
 1158SOL     OW14692   8.887   1.865   3.226 -0.1690 -0.4913  0.4964
 1158SOL    HW114693   8.817   1.794   3.226  0.6839 -1.3614 -1.2859
 1158SOL    HW214694   8.977   1.823   3.220  0.5119  0.6443  2.2095
 1159SOL     OW14695   4.116   2.254   1.430  0.5052 -0.3701  0.6775
 1159SOL    HW114696   4.046   2.254   1.501 -0.7436 -1.9133 -0.5348
 1159SOL    HW214697   4.111   2.340   1.378  1.0564  0.5188  2.0402
 1160SOL     OW14698   9.093   7.767   2.428  0.1067  0.2829 -0.0089
 1160SOL    HW114699   9.021   7.819   2.473  0.2997  0.6701 -0.1513
 1160SOL    HW214700   9.166   7.746   2.494  0.7987  1.5923 -0.3530
 1161SOL     OW14701   0.733   6.186   0.006  0.4709  0.1333  0.0789
 1161SOL    HW114702   0.705   6.090   0.015  0.7047  0.1110  0.5734
 1161SOL    HW214703   0.808   6.205   0.069 -1.3637  1.3431  1.9566
 1162SOL     OW14704   4.905   8.688   5.324  0.0332  0.1270  0.0452
 1162SOL    HW114705   4.922   8.657   5.231  1.7140  0.9821  0.0499
 1162SOL    HW214706   4.828   8.636   5.363 -0.0012 -0.9665 -1.4330
 1163SOL     OW14707   3.432   8.654   6.676  0.7557  0.0417  0.1504
 1163SOL    HW114708   3.481   8.690   6.597  1.8200 -1.6643  0.0127
 1163SOL    HW214709   3.414   8.556   6.663 -1.5342  0.3299  0.7881
 1164SOL     OW14710   2.459   6.473   3.558  0.1350 -0.1013  0.5868
 1164SOL    HW114711   2.418   6.554   3.518 -0.4188  0.0358  1.4226
 1164SOL    HW214712   2.509   6.422   3.488 -1.4571 -0.2613 -0.4444
 1165SOL     OW14713   1.612   7.022   5.557  0.0978 -0.3169  0.2789
 1165SOL    HW114714   1.587   7.111   5.594  0.2260  0.1051 -0.6264
 1165SOL    HW214715   1.558   7.004   5.475  1.3368 -0.2751 -0.5610
 1166SOL     OW14716   3.077   2.978   1.095 -0.3666 -0.5538  0.0338
 1166SOL    HW114717   3.101   3.074   1.081 -0.6245 -0.7715 -2.0827
 1166SOL    HW214718   3.159   2.925   1.116 -0.1096  0.0044  0.4193
 1167SOL     OW14719   9.369   5.475   6.065  0.6723 -1.1627 -0.0388
 1167SOL    HW114720   9.291   5.413   6.059 -0.0915 -0.4804  2.3601
 1167SOL    HW214721   9.346   5.561   6.019 -0.0794 -0.8880  0.8386
 1168SOL     OW14722   6.487   9.249   4.231 -0.2497 -0.3194  0.3966
 1168SOL    HW114723   6.428   9.329   4.236  0.5047  0.0906  3.4657
 1168SOL    HW214724   6.582   9.276   4.240  0.3015 -1.2136 -2.2964
 1169SOL     OW14725   3.260   7.845   0.476  0.4100 -0.0760 -0.0054
 1169SOL    HW114726   3.212   7.924   0.514 -0.4256  0.7863 -2.7210
 1169SOL    HW214727   3.289   7.785   0.550 -2.9798  0.4625  1.8889
 1170SOL     OW14728   3.983   4.862   3.900 -0.2227  0.1074  0.4105
 1170SOL    HW114729   3.995   4.833   3.995  1.4239 -0.5838  0.0097
 1170SOL    HW214730   3.910   4.808   3.858  0.1722 -0.7561  0.8147
 1171SOL     OW14731   6.351   0.813   4.409 -0.0093  0.1076  0.0956
 1171SOL    HW114732   6.365   0.856   4.320 -0.9463 -2.9943 -1.5913
 1171SOL    HW214733   6.254   0.820   4.435 -0.2845 -1.5000 -0.4757
 1172SOL     OW14734   2.793   7.913   1.136 -0.4449  0.1775  0.0876
 1172SOL    HW114735   2.698   7.894   1.159 -1.4468  1.7899 -2.4600
 1172SOL    HW214736   2.833   7.834   1.089 -1.7326  0.8060 -2.1740
 1173SOL     OW14737   7.647   1.472   0.399  0.6009 -0.0495  0.3380
 1173SOL    HW114738   7.625   1.442   0.492 -1.0236 -0.8075 -0.2676
 1173SOL    HW214739   7.653   1.571   0.396 -0.9072  0.0764  0.9422
 1174SOL     OW14740   4.737   3.514   0.588 -0.5240 -0.6682  0.4544
 1174SOL    HW114741   4.811   3.471   0.536  1.2637  0.5529  1.9177
 1174SOL    HW214742   4.739   3.480   0.682  0.7864  2.3302  1.5878
 1175SOL     OW14743   5.197   0.717   4.480  0.8696  0.1678  0.9999
 1175SOL    HW114744   5.277   0.657   4.485  1.4375  0.8340 -0.0635
 1175SOL    HW214745   5.213   0.800   4.533  1.0762  0.5190  0.3921
 1176SOL     OW14746   4.700   0.926   1.410  0.1201  0.0791 -0.5076
 1176SOL    HW114747   4.631   0.862   1.376  0.2924  0.0827 -0.8687
 1176SOL    HW214748   4.764   0.948   1.337  0.2718  0.3874 -0.2849
 1177SOL     OW14749   5.737   1.551   2.689  0.3705 -0.0012  0.0730
 1177SOL    HW114750   5.659   1.502   2.651 -0.6193  0.0998  1.8952
 1177SOL    HW214751   5.745   1.640   2.646  1.7941 -1.4622 -2.8041
 1178SOL     OW14752   5.772   4.962   0.235 -0.3347  0.2819 -0.0872
 1178SOL    HW114753   5.727   5.011   0.161  0.0675 -0.0351 -0.5406
 1178SOL    HW214754   5.702   4.925   0.297 -0.6321  1.7453  0.4793
 1179SOL     OW14755   7.498   2.094   4.468  0.0093 -0.3451 -0.1541
 1179SOL    HW114756   7.555   2.081   4.549 -0.8749  1.5630  0.8125
 1179SOL    HW214757   7.523   2.180   4.423 -1.7267  0.2717  0.0017
 1180SOL     OW14758   6.927   9.335   2.261 -0.0231 -0.4137  0.1196
 1180SOL    HW114759   6.923   9.237   2.281  0.1765 -0.6870 -1.1712
 1180SOL    HW214760   7.004   9.353   2.200 -1.5598  0.2115 -1.6406
 1181SOL     OW14761   8.005   6.760   6.204  0.2526 -0.2967  0.2471
 1181SOL    HW114762   8.017   6.857   6.223  0.2500 -0.5078  1.3917
 1181SOL    HW214763   8.094   6.717   6.189  0.2636 -0.1431 -0.1290
 1182SOL     OW14764   5.059   6.170   1.067  0.0083 -0.0428  0.0715
 1182SOL    HW114765   5.140   6.210   1.109  0.7462 -2.4021  0.9842
 1182SOL    HW214766   5.083   6.132   0.977 -0.6263  1.3039 -0.6812
 1183SOL     OW14767   1.923   9.443   3.821 -0.7072 -0.4794 -0.3093
 1183SOL    HW114768   1.844   9.384   3.833 -0.5916 -0.5844 -0.0771
 1183SOL    HW214769   1.897   9.538   3.838 -0.4663 -0.6583  1.0814
 1184SOL     OW14770   5.260   9.952   5.256 -0.1204 -0.0710 -0.1570
 1184SOL    HW114771   5.335   9.975   5.193  0.3127 -0.9552  0.0316
 1184SOL    HW214772   5.283   9.986   5.347  0.1549 -0.5321 -0.0512
 1185SOL     OW14773   9.686   9.935   0.995  0.7571  0.7026 -0.2023
 1185SOL    HW114774   9.589   9.910   0.987  0.7965  1.0011 -1.8456
 1185SOL    HW214775   9.697  10.003   1.068 -0.3636  1.1136 -0.4063
 1186SOL     OW14776   8.749   3.501   3.238 -0.3978 -0.1537  0.7444
 1186SOL    HW114777   8.779   3.578   3.180  0.2455 -0.6031  0.4821
 1186SOL    HW214778   8.697   3.436   3.182 -1.8273  0.5917  1.1823
 1187SOL     OW14779   0.699   7.970   6.664  0.2262  0.0140 -0.4193
 1187SOL    HW114780   0.769   7.905   6.694 -0.3110 -0.8682 -1.0504
 1187SOL    HW214781   0.639   7.926   6.597 -1.1394  0.6609  0.3627
 1188SOL     OW14782   2.641   6.786   4.295  0.1250  0.8210  0.4455
 1188SOL    HW114783   2.575   6.743   4.233  0.4132 -1.3452  1.6211
 1188SOL    HW214784   2.607   6.783   4.389  0.7098  2.0926  0.7181
 1189SOL     OW14785   2.666   8.319   2.123 -0.7872 -0.3807  0.2301
 1189SOL    HW114786   2.727   8.276   2.189  0.7540  0.1347 -0.8404
 1189SOL    HW214787   2.618   8.248   2.071  0.4956 -0.8037 -0.3902
 1190SOL     OW14788   0.334   9.425   5.547  0.1848  0.1391  0.5191
 1190SOL    HW114789   0.345   9.423   5.646  1.0011  1.1073  0.4611
 1190SOL    HW214790   0.333   9.520   5.515 -3.1422 -0.0582 -0.0940
 1191SOL     OW14791   9.707   8.093   3.880  0.0686 -0.1637  0.3056
 1191SOL    HW114792   9.788   8.124   3.931  0.0296  0.6276 -0.1001
 1191SOL    HW214793   9.639   8.166   3.878 -0.5559 -0.7347  0.4215
 1192SOL     OW14794   6.865   9.323   2.932 -0.0597  0.1541  0.4620
 1192SOL    HW114795   6.796   9.284   2.873 -0.6479  0.8532  0.6820
 1192SOL    HW214796   6.923   9.385   2.880 -2.7419  3.4920  1.3005
 1193SOL     OW14797   9.714   9.795   1.621 -0.6855  0.1714  0.2487
 1193SOL    HW114798   9.694   9.710   1.572  3.1568 -1.1603  0.7843
 1193SOL    HW214799   9.677   9.791   1.713  2.3597 -2.4576  1.4431
 1194SOL     OW14800   1.654   6.712   3.165 -0.4887  0.3652 -0.0988
 1194SOL    HW114801   1.669   6.630   3.110 -0.7283  0.6939 -0.6591
 1194SOL    HW214802   1.682   6.793   3.113  0.4410  0.5803  0.7352
 1195SOL     OW14803   3.411   8.444   1.929  0.0983  0.0860 -0.2970
 1195SOL    HW114804   3.352   8.391   1.990  0.9747 -0.0155  0.4737
 1195SOL    HW214805   3.506   8.422   1.948  0.3893  0.3660 -1.4303
 1196SOL     OW14806   4.596   0.372   0.593  0.3625  0.0043 -0.0790
 1196SOL    HW114807   4.608   0.433   0.515  1.1004  0.4760  0.4038
 1196SOL    HW214808   4.557   0.285   0.562  1.6347 -0.1929 -1.1194
 1197SOL     OW14809   3.490   9.504   2.333 -0.1791  0.9530 -0.0812
 1197SOL    HW114810   3.578   9.462   2.312 -0.0418  0.4088  1.4965
 1197SOL    HW214811   3.503   9.599   2.362 -0.2193  1.2267 -0.9672
 1198SOL     OW14812   3.381   6.512   1.796 -0.8475  0.3921 -0.3605
 1198SOL    HW114813   3.468   6.516   1.845 -0.6573  2.7068 -0.8354
 1198SOL    HW214814   3.363   6.600   1.753 -2.7681 -0.4964 -1.4326
 1199SOL     OW14815   0.554   0.450   0.895  0.1814  0.4236 -0.2970
 1199SOL    HW114816   0.575   0.473   0.800  0.6689  0.4006 -0.1953
 1199SOL    HW214817   0.620   0.494   0.955 -1.0084  1.6384  0.1330
 1200SOL     OW14818   3.381   5.174   3.861 -0.5802 -0.4993  0.1133
 1200SOL    HW114819   3.455   5.187   3.927  1.3841 -1.0488 -1.9514
 1200SOL    HW214820   3.391   5.086   3.816  0.5489  1.6309 -3.9622
 1201SOL     OW14821   8.522   6.838   1.813  0.0419 -0.1039 -0.6478
 1201SOL    HW114822   8.445   6.837   1.749  0.0426 -1.1454 -0.6364
 1201SOL    HW214823   8.499   6.783   1.893  0.9414 -0.7172 -0.8099
 1202SOL     OW14824   8.934   5.848   3.762 -0.0732 -0.4397 -0.1786
 1202SOL    HW114825   8.972   5.819   3.674  2.5308  1.3947  0.2665
 1202SOL    HW214826   8.981   5.802   3.836 -0.1596  0.2847  0.3350
 1203SOL     OW14827   3.976   9.872   2.353 -0.0930  0.0781 -0.7006
 1203SOL    HW114828   3.990   9.967   2.379 -1.5550 -0.0355  0.5971
 1203SOL    HW214829   4.064   9.829   2.333  0.7444  1.1909  0.5327
 1204SOL     OW14830   8.691   5.465   1.668  0.0770 -0.6376 -0.0788
 1204SOL    HW114831   8.718   5.500   1.758 -0.3492  0.0043 -0.1930
 1204SOL    HW214832   8.724   5.527   1.597  1.0256 -1.5203 -0.4133
 1205SOL     OW14833   4.714   7.089   2.875  0.5767 -0.4769  0.0884
 1205SOL    HW114834   4.668   7.075   2.962  1.1987 -1.0440  0.3312
 1205SOL    HW214835   4.648   7.120   2.806  0.1297  0.1958  0.8200
 1206SOL     OW14836   6.232   0.935   5.836 -0.0835  0.2597 -0.4788
 1206SOL    HW114837   6.143   0.974   5.812 -0.6443  0.0674  1.2014
 1206SOL    HW214838   6.303   1.006   5.829 -0.5404  0.6892 -0.7809
 1207SOL     OW14839   4.659   9.093   3.382 -0.1184  0.3573  0.2811
 1207SOL    HW114840   4.601   9.085   3.301  1.9028  1.1308 -1.2824
 1207SOL    HW214841   4.614   9.049   3.460 -1.3636 -1.8498 -1.6390
 1208SOL     OW14842   9.849   4.479   5.971  0.0806 -0.1801  0.3746
 1208SOL    HW114843   9.895   4.534   6.040 -1.2367 -0.1371  1.2390
 1208SOL    HW214844   9.837   4.386   6.005  0.7942 -0.5584 -0.4071
 1209SOL     OW14845   2.109   3.647   0.928  0.1392 -0.1347  0.0336
 1209SOL    HW114846   2.018   3.689   0.928  0.0770 -0.2631  0.6642
 1209SOL    HW214847   2.175   3.710   0.885 -0.0799  0.3325  0.3708
 1210SOL     OW14848   2.942   8.011   2.794  1.4538 -0.3955  0.6018
 1210SOL    HW114849   2.873   8.057   2.737  1.9928 -0.4516 -0.0956
 1210SOL    HW214850   2.925   8.034   2.890 -0.3810 -1.5144  0.5724
 1211SOL     OW14851   0.610   7.981   3.245 -0.1165  0.1943  0.1481
 1211SOL    HW114852   0.563   7.985   3.158  1.1274 -1.4936 -0.6347
 1211SOL    HW214853   0.589   8.063   3.299 -2.3366  0.3756 -0.9678
 1212SOL     OW14854   6.046   1.676   4.091 -0.3447  0.0645  0.1644
 1212SOL    HW114855   5.973   1.723   4.042 -1.7706 -0.0923  2.1162
 1212SOL    HW214856   6.051   1.581   4.061 -1.0212  0.0406  0.1233
 1213SOL     OW14857   2.012   4.395   6.704  0.7732 -0.1617  0.8209
 1213SOL    HW114858   1.980   4.309   6.662 -0.6761  0.4859  0.5544
 1213SOL    HW214859   2.095   4.425   6.658  2.0853 -2.1355  1.8297
 1214SOL     OW14860   9.478   7.576   6.450  0.5428  0.2201  0.3786
 1214SOL    HW114861   9.495   7.551   6.545  1.1259 -0.6672  0.0537
 1214SOL    HW214862   9.389   7.540   6.421  0.7625 -0.2921  0.3297
 1215SOL     OW14863   6.612   0.183   1.686 -0.0897 -0.2117  0.1782
 1215SOL    HW114864   6.619   0.174   1.785 -0.7953 -1.1798  0.1551
 1215SOL    HW214865   6.579   0.096   1.647  1.0594 -0.1410 -0.9917
 1216SOL     OW14866   8.092   7.870   5.711 -0.6262  0.4578 -0.1978
 1216SOL    HW114867   8.087   7.896   5.615 -0.3816  0.7379 -0.1361
 1216SOL    HW214868   8.041   7.935   5.767  0.4055  1.1083  0.0108
 1217SOL     OW14869   2.352   4.593   2.163  0.0678  0.4189 -0.4995
 1217SOL    HW114870   2.430   4.600   2.100 -0.2235 -1.2515 -1.0977
 1217SOL    HW214871   2.293   4.672   2.152  1.8302  1.8620  0.1750
 1218SOL     OW14872   0.119   9.149   0.544 -0.2595 -0.4676  0.4368
 1218SOL    HW114873   0.117   9.098   0.630 -1.1963  0.0180  0.7167
 1218SOL    HW214874   0.037   9.128   0.491 -0.5488  0.5770  0.4600
 1219SOL     OW14875   3.093   0.892   3.659  0.0259  0.6566  0.0796
 1219SOL    HW114876   2.996   0.888   3.635 -0.1292 -0.9298  0.8743
 1219SOL    HW214877   3.103   0.924   3.754  0.3185  1.2568 -0.1454
 1220SOL     OW14878   3.954   8.626   3.893 -0.3280 -0.2981 -0.2950
 1220SOL    HW114879   3.892   8.569   3.948  0.3376  0.9302  1.7804
 1220SOL    HW214880   4.046   8.588   3.898  0.8544  2.7188  3.9464
 1221SOL     OW14881   9.820   7.101   6.116  0.8071 -0.2595 -0.1213
 1221SOL    HW114882   9.889   7.145   6.058  0.8531 -1.1187 -0.7148
 1221SOL    HW214883   9.731   7.142   6.098  1.1018  0.7010  0.4886
 1222SOL     OW14884   0.457   1.938   1.053  0.0239 -0.3018  0.1253
 1222SOL    HW114885   0.501   1.980   1.133 -0.2787  2.2935 -1.0097
 1222SOL    HW214886   0.358   1.933   1.069  0.0141 -0.1809  0.1086
 1223SOL     OW14887   2.001   3.340   1.241  0.3468  0.4328 -0.3643
 1223SOL    HW114888   1.954   3.378   1.162 -1.4582  0.7686  0.8366
 1223SOL    HW214889   2.065   3.408   1.278 -1.1434  1.4694  0.3583
 1224SOL     OW14890   5.128   5.554   1.299  0.3951  0.1947 -0.0629
 1224SOL    HW114891   5.117   5.650   1.327  0.8152  1.1665 -3.0795
 1224SOL    HW214892   5.214   5.518   1.337  1.2145  1.6254 -0.5356
 1225SOL     OW14893   7.632   8.324   5.056 -0.2042 -0.1043  0.1919
 1225SOL    HW114894   7.610   8.322   4.958 -0.5372  0.7770  0.2484
 1225SOL    HW214895   7.658   8.416   5.083  0.4928 -0.4750  0.8088
 1226SOL     OW14896   3.195   8.395   4.482 -0.5610 -0.8998  0.0682
 1226SOL    HW114897   3.288   8.432   4.484  0.6507 -3.7728  0.7158
 1226SOL    HW214898   3.156   8.407   4.390 -0.1197  1.6097  0.1945
 1227SOL     OW14899   8.258   8.393   5.259  0.8042  0.1754 -0.2551
 1227SOL    HW114900   8.355   8.418   5.256  1.0746 -0.6580  1.3863
 1227SOL    HW214901   8.219   8.420   5.346 -0.2637 -0.1746 -0.6194
 1228SOL     OW14902   0.750   4.198   5.993  0.1599  0.2202  0.3434
 1228SOL    HW114903   0.823   4.263   6.012  1.3402 -0.9497 -0.1300
 1228SOL    HW214904   0.673   4.246   5.952  1.0826  1.2964 -0.1561
 1229SOL     OW14905   0.612   5.411   0.292 -0.7314  0.4546 -0.3317
 1229SOL    HW114906   0.627   5.312   0.298  1.3937  0.7302 -0.6398
 1229SOL    HW214907   0.518   5.432   0.321 -1.2099 -1.6359 -0.2482
 1230SOL     OW14908   4.819   0.489   2.715 -0.1017  0.2069  0.4521
 1230SOL    HW114909   4.754   0.564   2.702  0.1959  0.5003  0.6737
 1230SOL    HW214910   4.806   0.449   2.806  0.6134  0.8275  0.8313
 1231SOL     OW14911   2.354   8.215   2.599  0.6259  0.2064 -0.1326
 1231SOL    HW114912   2.276   8.198   2.540  1.1049 -0.3942 -0.6048
 1231SOL    HW214913   2.401   8.299   2.570  1.7435 -0.8924 -1.5769
 1232SOL     OW14914   3.732   9.539   2.964  0.3713 -0.4230 -0.0816
 1232SOL    HW114915   3.813   9.486   2.989  1.3388 -0.5685 -3.3731
 1232SOL    HW214916   3.740   9.632   3.000  2.4203 -0.1901 -1.1075
 1233SOL     OW14917   1.143   6.812   2.982 -0.2119  0.4858  0.0809
 1233SOL    HW114918   1.239   6.827   3.002  0.2315 -3.2106  1.1790
 1233SOL    HW214919   1.128   6.814   2.883  0.6429  2.7542 -0.0180
 1234SOL     OW14920   5.143   9.677   3.184  0.0793  0.1119 -0.6864
 1234SOL    HW114921   5.164   9.657   3.089 -0.7527 -3.2926 -0.2171
 1234SOL    HW214922   5.228   9.679   3.237  0.4028  0.4182 -1.2092
 1235SOL     OW14923   0.816   9.919   3.293 -0.0043  0.1466  0.6217
 1235SOL    HW114924   0.849  10.005   3.254 -2.0008 -0.4998 -2.6174
 1235SOL    HW214925   0.723   9.933   3.328 -0.7081 -0.9162 -0.8031
 1236SOL     OW14926   5.105   4.341   3.034 -0.2398 -0.9768  0.0155
 1236SOL    HW114927   5.028   4.356   3.096  0.7283 -1.2820  1.3196
 1236SOL    HW214928   5.131   4.428   2.992 -0.1136 -0.5326  0.9956
 1237SOL     OW14929   3.077   5.418   4.345 -0.1683 -0.0161  0.8761
 1237SOL    HW114930   3.130   5.491   4.387  0.9887  0.9624 -2.1713
 1237SOL    HW214931   3.138   5.345   4.314 -0.7510  0.1779 -0.8193
 1238SOL     OW14932   1.747   6.045   0.788 -1.1143  0.5335 -0.7149
 1238SOL    HW114933   1.740   6.020   0.885 -0.4112  0.4910 -0.6748
 1238SOL    HW214934   1.677   6.114   0.767 -1.1595  0.6691 -0.1385
 1239SOL     OW14935   9.498   2.822   4.397  0.1113 -0.3963 -0.2191
 1239SOL    HW114936   9.589   2.844   4.432  0.2936 -1.4181 -0.0197
 1239SOL    HW214937   9.497   2.834   4.298  0.9203 -1.8362 -0.4175
 1240SOL     OW14938   4.742   8.114   5.509 -0.2679  0.0895 -0.0571
 1240SOL    HW114939   4.839   8.104   5.529 -0.4580  0.6512  1.2249
 1240SOL    HW214940   4.714   8.046   5.441  0.3158 -2.2289  1.9645
 1241SOL     OW14941   8.671   1.953   0.966 -0.6604 -0.3504  0.4613
 1241SOL    HW114942   8.682   1.864   0.922 -0.4543 -0.5662  0.9513
 1241SOL    HW214943   8.696   2.026   0.901 -3.3605 -0.5134 -0.8451
 1242SOL     OW14944   1.447   6.723   1.216  0.0896 -0.4219 -0.5708
 1242SOL    HW114945   1.411   6.772   1.295  0.6855 -0.2862 -0.3832
 1242SOL    HW214946   1.499   6.787   1.159 -1.2362 -0.2680 -1.6386
 1243SOL     OW14947   1.107   8.426   1.376  0.1017 -0.3329 -0.2407
 1243SOL    HW114948   1.121   8.333   1.342  1.0313 -0.1086 -0.4914
 1243SOL    HW214949   1.189   8.456   1.426 -0.2734  0.2667  0.0202
 1244SOL     OW14950   7.314   3.497   1.151  0.0997 -0.2665 -0.1747
 1244SOL    HW114951   7.229   3.492   1.097  1.0577  0.1292 -1.7541
 1244SOL    HW214952   7.323   3.589   1.190 -0.3049 -0.3797  0.1928
 1245SOL     OW14953   1.592   9.145   0.044 -0.5134  0.2185  0.1736
 1245SOL    HW114954   1.515   9.208   0.038 -0.8051 -0.3214 -1.9469
 1245SOL    HW214955   1.668   9.179  -0.010 -1.0380 -1.7118 -1.8594
 1246SOL     OW14956   3.577   0.284   4.465  0.5499  0.0854  0.0248
 1246SOL    HW114957   3.581   0.299   4.563 -2.7597  0.1043  0.2209
 1246SOL    HW214958   3.544   0.192   4.446  1.1904  0.0688 -1.0840
 1247SOL     OW14959   9.367   8.263   2.257 -0.0278  0.2352 -0.3404
 1247SOL    HW114960   9.403   8.282   2.166  1.3544 -1.2285 -0.1363
 1247SOL    HW214961   9.443   8.254   2.321 -0.7678 -2.1785  0.2636
 1248SOL     OW14962   0.214   8.264   2.850  0.0007  0.2458 -0.3779
 1248SOL    HW114963   0.279   8.205   2.802 -1.0223 -0.6998 -0.6070
 1248SOL    HW214964   0.260   8.350   2.875  1.7749 -0.9919  0.7852
 1249SOL     OW14965   0.210   5.844   4.137  0.1399 -0.7622  0.2299
 1249SOL    HW114966   0.164   5.928   4.109  1.0402 -0.0114  0.9550
 1249SOL    HW214967   0.194   5.772   4.068 -1.8624 -0.4548  0.3352
 1250SOL     OW14968   9.813   1.625   1.631  0.0169  0.1181 -0.2310
 1250SOL    HW114969   9.844   1.532   1.650  0.7309  0.2030 -0.9583
 1250SOL    HW214970   9.735   1.647   1.689 -1.4160 -1.6387 -1.4736
 1251SOL     OW14971   9.482   1.625   4.892 -0.5019  0.1223 -0.6298
 1251SOL    HW114972   9.507   1.677   4.974 -1.0935  1.8330 -1.5069
 1251SOL    HW214973   9.557   1.629   4.826  0.4634 -2.2725  0.2903
 1252SOL     OW14974   9.061   9.472   0.221 -0.2185  0.1876 -0.2127
 1252SOL    HW114975   8.979   9.510   0.178 -1.3111 -1.6324  0.1915
 1252SOL    HW214976   9.055   9.373   0.222  2.1932  0.0171 -0.4997
 1253SOL     OW14977   7.354   0.040   5.151  0.8330 -0.2951  0.3511
 1253SOL    HW114978   7.399   0.121   5.115  0.1928 -0.4313 -0.7776
 1253SOL    HW214979   7.408  -0.041   5.128  0.6199 -0.3462  0.0300
 1254SOL     OW14980   0.026   9.520   5.640 -0.2041  0.2424 -0.0266
 1254SOL    HW114981   0.089   9.524   5.716 -0.8935  1.0646  0.5063
 1254SOL    HW214982   0.045   9.594   5.575 -0.4164  0.3076 -0.0172
 1255SOL     OW14983   8.529   9.515   4.725 -0.4696 -0.1920 -0.1978
 1255SOL    HW114984   8.484   9.492   4.639 -0.7861 -1.2372  0.2433
 1255SOL    HW214985   8.460   9.549   4.790 -0.7694 -2.4957  0.7263
 1256SOL     OW14986   9.142   6.673   5.700 -0.4795  0.6436 -0.1014
 1256SOL    HW114987   9.164   6.584   5.661  0.6352  1.0269 -0.3823
 1256SOL    HW214988   9.122   6.738   5.626 -1.0953  0.6731  0.0911
 1257SOL     OW14989   0.459   6.519   5.479  0.2319 -0.3215  0.3200
 1257SOL    HW114990   0.402   6.459   5.535  2.6667 -2.0934  0.9602
 1257SOL    HW214991   0.424   6.519   5.385 -1.2031 -0.8569  0.8444
 1258SOL     OW14992   0.439   9.921   2.800  0.4468 -0.1132  0.1493
 1258SOL    HW114993   0.356   9.976   2.789  0.3214 -0.3236  0.0415
 1258SOL    HW214994   0.415   9.832   2.839  0.4027 -0.8183 -1.4713
 1259SOL     OW14995   0.920   1.687   4.481  0.5594  0.1614 -0.0639
 1259SOL    HW114996   1.003   1.645   4.519  0.0915  0.3894  1.2333
 1259SOL    HW214997   0.903   1.651   4.390  1.2118 -1.0704  0.2891
 1260SOL     OW14998   0.088   3.116   6.720 -0.1797 -0.2792  0.1950
 1260SOL    HW114999  -0.004   3.141   6.690 -0.7586 -1.0417  1.3339
 1260SOL    HW215000   0.153   3.184   6.685 -1.4516  1.5424  1.2772
 1261SOL     OW15001   2.874   6.821   2.949 -0.2677  0.2323  0.5549
 1261SOL    HW115002   2.939   6.746   2.940  0.8421  1.2051  0.3518
 1261SOL    HW215003   2.790   6.799   2.899  1.0238  0.2035 -1.6915
 1262SOL     OW15004   0.611   5.417   3.450  0.4420 -0.4583  0.1669
 1262SOL    HW115005   0.603   5.501   3.396  1.6642 -0.9967 -0.8867
 1262SOL    HW215006   0.522   5.372   3.456  0.6337 -1.4123 -3.1128
 1263SOL     OW15007   2.128   1.385   5.254  0.0951 -0.1917  0.0657
 1263SOL    HW115008   2.186   1.344   5.184  0.6709 -2.3026  1.7134
 1263SOL    HW215009   2.034   1.388   5.223  0.7710  1.5177 -1.8955
 1264SOL     OW15010   8.777   8.491   1.562  0.2780 -0.4612 -0.0278
 1264SOL    HW115011   8.876   8.482   1.567  0.4496  1.0133 -0.4889
 1264SOL    HW215012   8.745   8.547   1.639  0.1986  1.8710 -1.7016
 1265SOL     OW15013   7.681   2.344   5.692  0.1969  0.7386  0.0256
 1265SOL    HW115014   7.710   2.425   5.642 -0.0899  0.6531 -0.2820
 1265SOL    HW215015   7.750   2.319   5.759 -0.0695  1.7095  0.6738
 1266SOL     OW15016   1.894   0.436   0.331  0.8954  0.4876 -0.3803
 1266SOL    HW115017   1.991   0.441   0.355  0.5342 -1.0319  1.4226
 1266SOL    HW215018   1.851   0.525   0.349  1.5043  0.5625  0.7631
 1267SOL     OW15019   1.581   7.338   0.501 -0.3496  0.1342  0.3878
 1267SOL    HW115020   1.604   7.253   0.547  0.9392  0.5222  0.4824
 1267SOL    HW215021   1.532   7.398   0.565 -0.8677 -0.3662  0.4550
 1268SOL     OW15022   0.657   4.781   6.637 -0.1131 -0.1345  0.0312
 1268SOL    HW115023   0.673   4.750   6.730 -0.7580  0.8750  0.4818
 1268SOL    HW215024   0.566   4.823   6.630 -0.1739 -0.4274 -1.1039
 1269SOL     OW15025   0.513   1.851   0.110  0.2440  0.3539 -0.1708
 1269SOL    HW115026   0.604   1.811   0.118  0.4070  0.5843 -0.8796
 1269SOL    HW215027   0.497   1.913   0.187  0.1563 -0.7340  0.6894
 1270SOL     OW15028   3.572   8.268   5.055 -0.4859  0.5680  0.0393
 1270SOL    HW115029   3.574   8.186   4.997  0.6833 -0.4481  1.4690
 1270SOL    HW215030   3.491   8.266   5.113 -0.9085  0.8625 -0.5394
 1271SOL     OW15031   0.782   0.078   0.039  0.0327  0.0066  0.0658
 1271SOL    HW115032   0.687   0.106   0.020 -0.1393  0.3242  1.3481
 1271SOL    HW215033   0.799   0.085   0.137  1.4366  0.0816 -0.1830
 1272SOL     OW15034   4.364   7.354   3.337  0.0232  0.0030 -0.3647
 1272SOL    HW115035   4.310   7.423   3.289 -1.8726  1.5394  3.7502
 1272SOL    HW215036   4.433   7.399   3.393 -0.9667 -1.4238  2.0466
 1273SOL     OW15037   9.482   0.583   6.525  0.0516  0.0919  0.5568
 1273SOL    HW115038   9.530   0.520   6.463 -2.0027 -0.1079 -0.8795
 1273SOL    HW215039   9.497   0.554   6.619 -0.5694 -2.3945 -0.0541
 1274SOL     OW15040   4.348   8.142   3.750 -0.7490 -0.1219 -0.2500
 1274SOL    HW115041   4.288   8.200   3.695 -2.4832 -2.4360 -0.8881
 1274SOL    HW215042   4.359   8.053   3.704  3.1300  0.2067 -0.1109
 1275SOL     OW15043   0.750   7.192   6.576 -0.4845  0.2931 -0.8293
 1275SOL    HW115044   0.712   7.131   6.646 -1.4290 -0.7917 -2.2521
 1275SOL    HW215045   0.849   7.182   6.574 -0.4960 -0.0580 -0.0207
 1276SOL     OW15046   5.108   9.930   1.725  0.7295  0.0419 -0.1136
 1276SOL    HW115047   5.079   9.962   1.815 -1.2961  1.1812 -1.1502
 1276SOL    HW215048   5.035   9.945   1.659  2.8625  0.9136 -2.3445
 1277SOL     OW15049   1.840   4.430   6.131  0.2676  0.0609  0.1513
 1277SOL    HW115050   1.890   4.492   6.192 -0.6576 -0.6235  1.6413
 1277SOL    HW215051   1.882   4.432   6.040  2.4069  0.2145  1.1062
 1278SOL     OW15052   1.091   6.310   2.004 -0.0191  0.3926 -0.5610
 1278SOL    HW115053   1.034   6.329   1.925 -1.3128 -1.6616 -0.1582
 1278SOL    HW215054   1.061   6.367   2.081 -0.9454 -0.0022 -0.6206
 1279SOL     OW15055   6.909   9.195   4.756 -0.4330 -0.0733  0.3859
 1279SOL    HW115056   6.906   9.291   4.787 -0.3141  0.2224 -0.5105
 1279SOL    HW215057   6.863   9.187   4.668 -0.9746 -0.9611  0.7472
 1280SOL     OW15058   3.443   1.299   1.955  0.1716  0.5490 -0.6149
 1280SOL    HW115059   3.481   1.210   1.929 -1.9491 -1.7546  3.7503
 1280SOL    HW215060   3.512   1.351   2.004 -0.3370 -1.2363  2.1217
 1281SOL     OW15061   0.316   3.548   1.026  0.0741  0.3793 -0.0163
 1281SOL    HW115062   0.349   3.640   1.004 -1.9252  1.2486  0.5790
 1281SOL    HW215063   0.246   3.521   0.961  0.3182 -0.5519  0.0951
 1282SOL     OW15064   7.499   1.578   4.964 -0.6216 -0.2814 -0.6270
 1282SOL    HW115065   7.548   1.665   4.972  2.4386 -1.9875 -0.3576
 1282SOL    HW215066   7.486   1.556   4.868 -1.1429  0.2931 -0.6964
 1283SOL     OW15067   9.270   3.466   2.150 -0.2324 -1.0068  0.4102
 1283SOL    HW115068   9.294   3.391   2.211  0.7833 -0.1203  1.1198
 1283SOL    HW215069   9.336   3.540   2.161 -0.4408 -0.5606 -1.2661
 1284SOL     OW15070   1.045   7.281   5.608 -0.5585  0.2849  0.7588
 1284SOL    HW115071   0.962   7.228   5.625 -0.7323 -0.2266 -1.5521
 1284SOL    HW215072   1.126   7.226   5.629 -0.7162 -1.3188 -2.6310
 1285SOL     OW15073   9.574   8.762   2.845  0.2870  0.0634 -0.1952
 1285SOL    HW115074   9.645   8.692   2.834  0.1952 -0.0935  0.2098
 1285SOL    HW215075   9.581   8.801   2.937  1.1304  1.4648 -0.8424
 1286SOL     OW15076   9.619   8.064   3.322 -0.0598  0.7177  0.4953
 1286SOL    HW115077   9.715   8.042   3.337  0.2863  0.9785 -1.1442
 1286SOL    HW215078   9.562   8.010   3.383  1.0292 -0.9566  0.0532
 1287SOL     OW15079   7.087   2.535   4.118 -0.2736 -0.1448  0.1429
 1287SOL    HW115080   7.140   2.560   4.199  1.5917 -0.7202 -0.8485
 1287SOL    HW215081   7.144   2.479   4.058 -0.9376  1.8382 -2.4479
 1288SOL     OW15082   8.203   8.067   4.502 -0.5817 -0.2822  0.0348
 1288SOL    HW115083   8.218   7.971   4.476  0.3024  0.5437 -2.6659
 1288SOL    HW215084   8.105   8.087   4.504 -0.7139 -0.7388 -1.3863
 1289SOL     OW15085   8.187   2.810   5.571  0.0693 -0.3737 -0.5748
 1289SOL    HW115086   8.284   2.819   5.549  0.5173 -1.2875  0.9825
 1289SOL    HW215087   8.172   2.828   5.668 -1.2064 -1.0607 -0.6277
 1290SOL     OW15088   6.759   1.931   0.987  0.4502  0.6915  0.4135
 1290SOL    HW115089   6.782   1.842   0.947  0.0812  0.7000  0.1865
 1290SOL    HW215090   6.835   1.961   1.045 -0.4314 -0.9492  2.5084
 1291SOL     OW15091   4.722   6.534   1.810  0.4236 -0.2814 -0.0346
 1291SOL    HW115092   4.717   6.443   1.770 -1.1359  0.6629 -2.0354
 1291SOL    HW215093   4.818   6.562   1.816  0.8672 -1.7025 -0.1205
 1292SOL     OW15094   8.822   5.147   1.127 -0.0771  0.3822 -0.5977
 1292SOL    HW115095   8.893   5.081   1.154  1.2491  0.9582 -2.5375
 1292SOL    HW215096   8.845   5.185   1.037 -1.7965  2.1260 -0.3202
 1293SOL     OW15097   5.125   9.321   4.495  0.6723 -0.1952 -0.0688
 1293SOL    HW115098   5.053   9.256   4.471  1.3927 -1.3687  0.9194
 1293SOL    HW215099   5.098   9.413   4.466 -1.5081 -0.5192  0.8883
 1294SOL     OW15100   8.776   8.445   3.321 -0.6799 -0.1558 -0.3025
 1294SOL    HW115101   8.830   8.363   3.302 -0.7406 -0.1144 -0.6539
 1294SOL    HW215102   8.750   8.489   3.235 -0.1383  0.5731 -0.0934
 1295SOL     OW15103   3.371   7.531   2.657 -0.3944 -0.2072 -0.2113
 1295SOL    HW115104   3.356   7.489   2.568  0.4718 -0.3192 -0.3069
 1295SOL    HW215105   3.469   7.543   2.673 -0.5686  0.4018  0.4511
 1296SOL     OW15106   0.089   4.469   5.839  0.1953 -0.2806 -0.4455
 1296SOL    HW115107   0.158   4.441   5.906 -0.0834  0.6115  0.2223
 1296SOL    HW215108   0.003   4.489   5.886 -0.6703 -1.8443 -1.3332
 1297SOL     OW15109   1.570   5.018   3.360  0.8614 -0.0510  0.3700
 1297SOL    HW115110   1.566   4.977   3.451  0.6113  0.1949  0.4714
 1297SOL    HW215111   1.588   4.947   3.292  0.9029 -0.2571  0.5955
 1298SOL     OW15112   9.256   1.490   2.211  0.4240 -0.0859 -0.3087
 1298SOL    HW115113   9.282   1.587   2.205 -0.5899  0.1113 -1.9269
 1298SOL    HW215114   9.158   1.484   2.228  0.3466 -0.8300 -1.0097
 1299SOL     OW15115   8.686   8.060   4.025  0.2796  0.5066 -0.2225
 1299SOL    HW115116   8.657   8.062   4.120  0.5970 -0.5528 -0.0971
 1299SOL    HW215117   8.711   7.966   3.999 -1.0403  0.5515 -1.7239
 1300SOL     OW15118   9.815   8.348   4.564  0.3289 -0.5028  0.2990
 1300SOL    HW115119   9.788   8.400   4.482 -1.0418  0.0707  1.0939
 1300SOL    HW215120   9.908   8.314   4.552  1.0735  1.7096 -0.4618
 1301SOL     OW15121   1.139   5.832   2.214 -0.4392 -0.0031  0.5419
 1301SOL    HW115122   1.058   5.815   2.157  1.3166  0.2053 -2.1212
 1301SOL    HW215123   1.219   5.794   2.168  1.4014  2.3917  1.7217
 1302SOL     OW15124   4.412   5.138   6.004  0.0030 -0.1447  0.0876
 1302SOL    HW115125   4.506   5.169   6.021 -0.4452  1.4232 -0.2277
 1302SOL    HW215126   4.401   5.119   5.907  0.1381 -0.8624  0.2075
 1303SOL     OW15127   1.724   9.945   0.272  0.0376  0.0899  0.6467
 1303SOL    HW115128   1.758  10.035   0.245 -0.0147  0.7985  2.7923
 1303SOL    HW215129   1.795   9.876   0.256  0.2394  0.5790 -0.5967
 1304SOL     OW15130   2.595   9.695   6.371  0.0787  0.4344 -0.4131
 1304SOL    HW115131   2.512   9.663   6.327 -1.2551 -0.8707  2.9202
 1304SOL    HW215132   2.602   9.794   6.361 -0.9831  0.3467 -2.1415
 1305SOL     OW15133   8.314   5.351   1.752 -0.0417 -0.2598 -0.7228
 1305SOL    HW115134   8.235   5.293   1.733 -0.8257  0.5302  0.0267
 1305SOL    HW215135   8.359   5.319   1.836  0.8983 -1.1791 -1.5744
 1306SOL     OW15136   0.020   8.390   6.203  0.5165  0.3693 -0.1528
 1306SOL    HW115137   0.076   8.364   6.124  0.3071  0.5637 -0.3661
 1306SOL    HW215138   0.026   8.319   6.273  0.5543  0.1064 -0.4223
 1307SOL     OW15139   6.636   8.647   4.066  0.3236  0.1287  0.5512
 1307SOL    HW115140   6.726   8.606   4.058 -0.3594 -1.3180  0.1455
 1307SOL    HW215141   6.583   8.597   4.135 -0.3535  0.6220  0.3889
 1308SOL     OW15142   5.063   1.979   2.826 -0.1586 -0.0175  0.1713
 1308SOL    HW115143   5.115   2.065   2.832  0.5086 -0.3749 -0.4325
 1308SOL    HW215144   5.061   1.935   2.916  0.3795  0.1251  0.2540
 1309SOL     OW15145   4.202   0.532   6.019 -0.0654  0.0740 -0.0513
 1309SOL    HW115146   4.144   0.613   6.007 -0.2751 -0.1566 -0.6093
 1309SOL    HW215147   4.188   0.470   5.942  1.5680  0.4185 -0.6329
 1310SOL     OW15148   9.770   3.971   1.218 -0.4275  0.3991 -0.2220
 1310SOL    HW115149   9.846   3.982   1.153  1.1150  0.5145  1.5761
 1310SOL    HW215150   9.789   4.023   1.301 -1.0323 -2.0377  1.4875
 1311SOL     OW15151   3.472   2.623   3.491  0.2446 -0.4342 -0.1692
 1311SOL    HW115152   3.515   2.546   3.537  0.0830  0.1550  0.9746
 1311SOL    HW215153   3.400   2.661   3.549 -0.6166 -0.2850 -1.3104
 1312SOL     OW15154   4.669   3.796   4.218 -0.5285 -0.2838  0.4033
 1312SOL    HW115155   4.739   3.840   4.162 -1.6830  0.3245 -0.6088
 1312SOL    HW215156   4.708   3.768   4.305  0.3003  2.5422  0.9937
 1313SOL     OW15157   4.022   1.286   4.312  0.4579  0.1091 -0.3373
 1313SOL    HW115158   4.102   1.306   4.368 -0.8931  0.7323  1.4210
 1313SOL    HW215159   3.978   1.371   4.284 -0.3244 -0.2359 -0.1893
 1314SOL     OW15160   8.098   9.542   4.573 -0.0185  0.2918  0.1463
 1314SOL    HW115161   8.069   9.625   4.621 -1.3968 -0.2232  0.2268
 1314SOL    HW215162   8.127   9.474   4.640  3.6685  1.5832 -0.0009
 1315SOL     OW15163   3.208   1.896   2.590  0.1089  0.8242 -0.4488
 1315SOL    HW115164   3.214   1.839   2.671 -1.5664  0.8689 -0.2691
 1315SOL    HW215165   3.212   1.993   2.616  2.7416  0.8137 -0.7336
 1316SOL     OW15166   8.146   3.326   3.359  0.2686 -0.1180 -0.2961
 1316SOL    HW115167   8.125   3.418   3.325 -1.0991  0.3624  1.7578
 1316SOL    HW215168   8.144   3.262   3.282 -0.2363  1.3394 -1.5350
 1317SOL     OW15169   4.861   2.739   5.184  0.3656  0.3803 -0.3695
 1317SOL    HW115170   4.775   2.781   5.154 -0.9722 -2.0854 -0.1245
 1317SOL    HW215171   4.866   2.741   5.284  0.4344  0.2471 -0.3698
 1318SOL     OW15172   0.684   1.766   5.983 -0.1996  0.1006  0.1197
 1318SOL    HW115173   0.696   1.717   6.069 -1.0849  0.9468  0.7348
 1318SOL    HW215174   0.716   1.709   5.908  4.6378  0.9653  1.3336
 1319SOL     OW15175   6.942   9.609   5.969  0.0918 -0.1311 -0.1192
 1319SOL    HW115176   6.892   9.689   6.003 -0.4933 -0.5630  0.0431
 1319SOL    HW215177   6.981   9.631   5.879 -0.5551  0.1456 -0.3373
 1320SOL     OW15178   1.656   7.995   5.234  0.0469  0.1010  0.1146
 1320SOL    HW115179   1.592   8.009   5.310  1.3869  0.8683  1.1319
 1320SOL    HW215180   1.711   8.078   5.221  0.1458 -0.1884 -1.3987
 1321SOL     OW15181   6.631   9.389   2.184 -0.3452 -0.0961 -0.0185
 1321SOL    HW115182   6.716   9.344   2.157 -0.7749 -2.2266  2.0609
 1321SOL    HW215183   6.628   9.400   2.283 -1.5886  1.8773 -0.2279
 1322SOL     OW15184   0.334   4.464   5.055 -0.2847 -0.0278  0.4874
 1322SOL    HW115185   0.234   4.465   5.058 -0.2759  0.6218  0.7657
 1322SOL    HW215186   0.369   4.442   5.146 -0.1685  0.6205  0.6009
 1323SOL     OW15187   9.399   4.288   2.906 -0.4038 -0.1244  0.1160
 1323SOL    HW115188   9.378   4.198   2.944 -0.8503  0.0744  0.3436
 1323SOL    HW215189   9.344   4.303   2.824  0.7196 -0.6413 -0.7430
 1324SOL     OW15190   0.221   6.410   3.112 -0.3198 -0.0577 -0.8189
 1324SOL    HW115191   0.232   6.315   3.140 -1.1934  0.3027  0.8085
 1324SOL    HW215192   0.305   6.461   3.133 -0.7985  0.1044  0.7649
 1325SOL     OW15193   7.524   0.917   3.090  0.3377  0.3187  0.1261
 1325SOL    HW115194   7.435   0.962   3.096  0.2312  0.1505 -0.2184
 1325SOL    HW215195   7.596   0.986   3.100  0.1832  0.7119 -1.3844
 1326SOL     OW15196   0.541   4.039   3.873 -0.5045 -0.1052  1.0180
 1326SOL    HW115197   0.600   4.116   3.848 -1.3220  1.0143  2.4128
 1326SOL    HW215198   0.581   3.954   3.841  1.1302  0.7746  0.6680
 1327SOL     OW15199   4.859   1.761   4.312  0.4220  0.0948  0.5371
 1327SOL    HW115200   4.942   1.815   4.326  1.4318 -0.8292 -1.6703
 1327SOL    HW215201   4.830   1.770   4.216 -0.0212 -2.3602  0.4221
 1328SOL     OW15202   3.297   5.289   6.346 -0.4091 -0.2315  0.0478
 1328SOL    HW115203   3.229   5.306   6.416  0.3079  0.9443  0.4722
 1328SOL    HW215204   3.364   5.222   6.380 -0.6400 -0.4318  0.1045
 1329SOL     OW15205   2.463   1.539   3.057 -0.1767 -0.2461 -0.4119
 1329SOL    HW115206   2.509   1.452   3.075  0.3104 -0.2082 -1.4546
 1329SOL    HW215207   2.412   1.533   2.972 -1.8999 -0.1906  0.5918
 1330SOL     OW15208   7.873   5.934   3.394 -0.0288  0.6000 -0.1550
 1330SOL    HW115209   7.799   5.957   3.457 -0.0590  0.5536 -0.1733
 1330SOL    HW215210   7.921   6.017   3.368  0.9374  0.4506  1.1111
 1331SOL     OW15211   3.716   5.995   5.952  0.1674  0.2501 -0.0115
 1331SOL    HW115212   3.720   6.086   5.911  1.5365  0.7149  1.0954
 1331SOL    HW215213   3.727   5.925   5.881  0.6532  0.9854 -0.6622
 1332SOL     OW15214   8.450   8.657   2.766  0.4010  0.1263 -0.3178
 1332SOL    HW115215   8.543   8.652   2.730  1.6103  0.3440  2.6016
 1332SOL    HW215216   8.450   8.711   2.850 -2.1250 -0.9609  0.4395
 1333SOL     OW15217   3.002   4.235   0.399 -0.3357 -0.1771  0.6644
 1333SOL    HW115218   2.944   4.156   0.418 -1.6624  1.0120  1.7842
 1333SOL    HW215219   3.097   4.214   0.424 -0.3187 -2.0338 -0.8685
 1334SOL     OW15220   0.893   6.916   0.244 -0.0635 -0.0573 -0.6169
 1334SOL    HW115221   0.961   6.973   0.290  1.9987 -1.6612 -1.6392
 1334SOL    HW215222   0.836   6.870   0.313  0.2333  0.8172  0.2351
 1335SOL     OW15223   0.824   7.083   2.278 -0.0487 -0.6332 -0.1558
 1335SOL    HW115224   0.777   7.171   2.282 -0.1728 -0.6578 -1.0622
 1335SOL    HW215225   0.836   7.048   2.371 -0.6176  0.0055  0.1651
 1336SOL     OW15226   8.571   2.298   4.237 -0.4369 -0.2111 -0.2854
 1336SOL    HW115227   8.496   2.233   4.248  1.4094 -2.2813  0.3519
 1336SOL    HW215228   8.542   2.371   4.174 -2.8419 -1.1370 -0.3189
 1337SOL     OW15229   8.498   0.898   4.457  0.1168  0.1676 -0.1459
 1337SOL    HW115230   8.433   0.939   4.521  0.6392  0.9438 -0.1052
 1337SOL    HW215231   8.591   0.908   4.493  0.3981  0.4548 -0.9397
 1338SOL     OW15232   0.970   4.591   6.453 -0.5825  0.0038 -0.2007
 1338SOL    HW115233   0.931   4.559   6.366  0.2079 -0.9310 -0.2205
 1338SOL    HW215234   1.067   4.609   6.441 -0.5819  0.3633  0.3640
 1339SOL     OW15235   4.068   8.147   2.979  0.5262 -0.4602 -0.0297
 1339SOL    HW115236   4.010   8.095   3.042 -1.2864  0.5638 -0.8111
 1339SOL    HW215237   4.112   8.084   2.915  0.3718 -1.2617  0.6423
 1340SOL     OW15238   3.513   9.402   6.066  0.5788  0.5647 -0.1680
 1340SOL    HW115239   3.561   9.453   5.994  1.3197 -2.0054 -1.5372
 1340SOL    HW215240   3.565   9.320   6.090 -0.0382  0.9893  2.7981
 1341SOL     OW15241   6.600   1.530   3.497 -0.2708 -0.4272  0.3167
 1341SOL    HW115242   6.525   1.465   3.485  0.3125 -1.0251 -0.2146
 1341SOL    HW215243   6.668   1.515   3.425  1.1399 -0.9960  1.7349
 1342SOL     OW15244   4.514   8.357   2.093 -0.6040  0.4838 -0.0186
 1342SOL    HW115245   4.558   8.434   2.141 -0.3087  0.5876 -0.4517
 1342SOL    HW215246   4.415   8.365   2.103 -0.4971 -0.1792  1.6112
 1343SOL     OW15247   2.008   2.100   0.321  0.0961  0.5392  0.0080
 1343SOL    HW115248   2.051   2.084   0.232 -1.3351  0.9482 -0.7606
 1343SOL    HW215249   2.056   2.046   0.391  0.2810 -0.9522 -1.2500
 1344SOL     OW15250   4.341   8.804   1.033  0.3265  0.2074  0.0363
 1344SOL    HW115251   4.431   8.848   1.027  0.9050 -0.9733  0.0425
 1344SOL    HW215252   4.307   8.812   1.127  0.3336  0.8175 -0.0082
 1345SOL     OW15253   1.059   2.022   5.449 -0.1288  0.0889  0.1156
 1345SOL    HW115254   1.003   2.102   5.426 -1.1543 -0.7904 -0.4656
 1345SOL    HW215255   1.140   2.020   5.391 -0.1466  0.6449  0.0648
 1346SOL     OW15256   8.364   8.810   3.026 -0.0774  0.0041 -0.3754
 1346SOL    HW115257   8.394   8.898   2.990  0.6315  0.2079  0.6784
 1346SOL    HW215258   8.440   8.767   3.075 -0.0270 -1.8010 -2.0087
 1347SOL     OW15259   2.107   7.664   5.536 -0.5600  0.5954  0.5692
 1347SOL    HW115260   2.024   7.612   5.517  0.8641 -1.4225 -0.3203
 1347SOL    HW215261   2.185   7.601   5.543  0.9352  2.4661  1.1387
 1348SOL     OW15262   9.104   6.776   3.115  0.1949  0.1352 -0.1935
 1348SOL    HW115263   9.066   6.826   3.193  0.3022 -0.0128 -0.0439
 1348SOL    HW215264   9.034   6.763   3.045 -0.3194 -1.0651  0.5328
 1349SOL     OW15265   8.290   8.901   4.190  0.1797 -0.1650  0.0786
 1349SOL    HW115266   8.324   8.816   4.230 -0.3437 -1.0214 -1.2776
 1349SOL    HW215267   8.367   8.958   4.162  0.5299 -0.4297  0.5038
 1350SOL     OW15268   8.915   8.220   5.048 -0.7479  0.0965  0.1223
 1350SOL    HW115269   8.836   8.201   4.990 -0.7604  1.1072 -0.2122
 1350SOL    HW215270   8.895   8.193   5.142 -1.0757 -0.6791 -0.1691
 1351SOL     OW15271   3.400   6.061   2.857 -0.0338 -0.1158 -0.3720
 1351SOL    HW115272   3.380   6.154   2.826 -1.6515 -0.7814 -1.4160
 1351SOL    HW215273   3.315   6.009   2.860  1.0663 -2.0268 -1.3760
 1352SOL     OW15274   7.915   6.356   5.124  0.1432 -0.2506 -0.3187
 1352SOL    HW115275   7.980   6.399   5.062 -0.2257 -0.6676 -0.9953
 1352SOL    HW215276   7.939   6.380   5.219  1.0493 -0.0994 -0.5807
 1353SOL     OW15277   3.547   0.402   4.176 -0.0845  0.6057 -0.2268
 1353SOL    HW115278   3.606   0.342   4.231  1.3468  1.4586 -0.8192
 1353SOL    HW215279   3.566   0.388   4.079 -0.6534  1.1232 -0.4157
 1354SOL     OW15280   7.508   1.139   0.767 -0.1449  0.2054 -0.0979
 1354SOL    HW115281   7.438   1.107   0.831 -0.1512  1.0054  0.3049
 1354SOL    HW215282   7.492   1.099   0.677 -0.6776 -0.2056  0.1765
 1355SOL     OW15283   2.851   2.459   6.599 -0.0137 -0.0418  0.4982
 1355SOL    HW115284   2.756   2.463   6.628  0.2803 -0.7858  1.5967
 1355SOL    HW215285   2.908   2.515   6.659  0.2701  0.2685 -0.0503
 1356SOL     OW15286   5.654   8.460   4.082  0.2483  0.2353 -0.1474
 1356SOL    HW115287   5.604   8.547   4.073 -0.7227 -0.2291  0.6198
 1356SOL    HW215288   5.698   8.456   4.172 -1.0231 -0.7205  0.4591
 1357SOL     OW15289   4.941   3.394   4.421  0.2562  0.4182  0.3402
 1357SOL    HW115290   4.893   3.409   4.334  0.0082  0.2273  0.4442
 1357SOL    HW215291   4.908   3.310   4.463  1.8057 -0.5492 -0.3527
 1358SOL     OW15292   1.455   9.774   1.605 -0.5473  0.5552 -0.0861
 1358SOL    HW115293   1.460   9.850   1.540  2.0401  0.8582  0.4066
 1358SOL    HW215294   1.387   9.708   1.575 -1.2032  1.9636 -1.7304
 1359SOL     OW15295   2.053   0.169   6.086 -0.1600 -0.5387 -0.2176
 1359SOL    HW115296   2.135   0.217   6.054  1.1813 -2.0819  0.8253
 1359SOL    HW215297   1.974   0.200   6.034  0.9913  1.3822 -0.8666
 1360SOL     OW15298   9.878   8.823   5.052  0.0912 -0.1306 -0.4832
 1360SOL    HW115299   9.796   8.794   5.100  0.5208  0.6651  0.7579
 1360SOL    HW215300   9.909   8.911   5.088  1.3246 -0.2868 -1.1223
 1361SOL     OW15301   8.360   3.921   1.635 -0.1029 -0.2748 -0.8781
 1361SOL    HW115302   8.438   3.932   1.574 -0.0437 -0.9271 -0.9283
 1361SOL    HW215303   8.307   3.841   1.606 -0.4015 -0.2403 -0.4289
 1362SOL     OW15304   1.176   0.097   1.453 -0.6846 -0.3588  0.2370
 1362SOL    HW115305   1.099   0.066   1.509  0.0568  1.0199  2.0617
 1362SOL    HW215306   1.253   0.033   1.464 -0.5046 -0.0322  0.8645
 1363SOL     OW15307   3.314   7.424   1.756  0.0013 -0.0495 -0.1483
 1363SOL    HW115308   3.295   7.521   1.772 -0.4861 -0.4120  1.6224
 1363SOL    HW215309   3.260   7.392   1.678 -2.2146  0.3763  1.1593
 1364SOL     OW15310   4.152   5.500   6.048  0.0383  0.4896 -0.4079
 1364SOL    HW115311   4.204   5.447   6.115  1.3194  1.0877 -0.9098
 1364SOL    HW215312   4.119   5.439   5.975 -1.1673 -0.1238  0.6137
 1365SOL     OW15313   2.012   6.055   2.563 -0.1092  0.9581  0.0998
 1365SOL    HW115314   1.912   6.059   2.567 -0.0478  1.3228  1.6615
 1365SOL    HW215315   2.044   6.116   2.491 -1.1384 -1.4584 -2.4822
 1366SOL     OW15316   1.512   6.295   4.198  0.6282  0.3845  0.3477
 1366SOL    HW115317   1.460   6.215   4.230 -0.9258  1.6200  1.0042
 1366SOL    HW215318   1.529   6.287   4.100 -0.8766 -0.0423  0.1033
 1367SOL     OW15319   0.112   5.332   0.936  0.1418  0.5554  0.0279
 1367SOL    HW115320   0.209   5.308   0.924  0.0735  0.5646 -0.5252
 1367SOL    HW215321   0.104   5.431   0.947  0.2154  0.5351  0.2676
 1368SOL     OW15322   8.475   2.774   2.206 -0.0804 -0.9367  0.1169
 1368SOL    HW115323   8.531   2.779   2.123 -1.6386 -1.0448 -0.9541
 1368SOL    HW215324   8.434   2.683   2.214 -0.2040 -0.8226  0.8343
 1369SOL     OW15325   1.901   7.406   4.081  0.0108 -0.1085 -0.1784
 1369SOL    HW115326   1.803   7.391   4.081 -0.1068  0.6134  1.0892
 1369SOL    HW215327   1.948   7.325   4.116 -0.2411  0.1324  0.7330
 1370SOL     OW15328   8.262   2.651   5.075  0.2876 -0.5883  0.3053
 1370SOL    HW115329   8.282   2.673   5.171  0.3201 -2.8739  0.8546
 1370SOL    HW215330   8.264   2.552   5.063  2.6368 -0.2382 -2.5914
 1371SOL     OW15331   7.590   7.224   4.166  0.2127  0.4630  0.0842
 1371SOL    HW115332   7.583   7.157   4.240  1.0269  0.0385 -0.2153
 1371SOL    HW215333   7.643   7.185   4.090 -1.3554  0.5614 -1.0936
 1372SOL     OW15334   8.327   7.850   4.190  0.1630 -0.1526 -0.2553
 1372SOL    HW115335   8.382   7.776   4.150  3.1907  2.5959 -1.3529
 1372SOL    HW215336   8.277   7.898   4.118  0.1191  0.4036  0.1451
 1373SOL     OW15337   3.013   1.623   3.962  0.4388  0.4761  0.1509
 1373SOL    HW115338   3.000   1.525   3.954 -0.5497  0.5001  1.2434
 1373SOL    HW215339   2.955   1.670   3.895 -1.2015  0.3985  1.4967
 1374SOL     OW15340   2.965   6.848   2.370 -0.6175 -0.7548 -0.2092
 1374SOL    HW115341   2.945   6.829   2.466 -2.2439  0.2080 -0.3343
 1374SOL    HW215342   2.903   6.794   2.312  0.9329 -1.9844 -0.7438
 1375SOL     OW15343   7.611   7.502   5.909  0.1142  0.0957  0.6301
 1375SOL    HW115344   7.691   7.445   5.892 -1.2027 -1.6786  0.1890
 1375SOL    HW215345   7.637   7.581   5.965  1.7586 -1.5404  2.2401
 1376SOL     OW15346   6.484   1.156   3.740  0.0843  0.1066 -0.2125
 1376SOL    HW115347   6.433   1.088   3.792  0.9826  0.1721  0.7847
 1376SOL    HW215348   6.544   1.207   3.802  2.6140 -1.1201 -1.5678
 1377SOL     OW15349   3.202   5.657   6.487  0.4416  0.1561 -0.3379
 1377SOL    HW115350   3.188   5.722   6.413 -1.2977 -1.2510 -1.2929
 1377SOL    HW215351   3.116   5.643   6.536  0.4991 -2.1478 -0.8016
 1378SOL     OW15352   3.244   2.315   2.217 -0.9906 -0.4275 -0.2102
 1378SOL    HW115353   3.205   2.286   2.130 -1.4544  0.7476 -0.4087
 1378SOL    HW215354   3.190   2.278   2.292 -2.3419  0.9297 -0.4806
 1379SOL     OW15355   6.926   7.584   3.632  0.1837  0.3852 -0.3601
 1379SOL    HW115356   6.861   7.564   3.706 -1.8853  0.6836 -2.0574
 1379SOL    HW215357   6.927   7.508   3.567  0.5247  0.9816 -1.0619
 1380SOL     OW15358   4.867   7.769   5.328  0.4549  0.8946  0.2808
 1380SOL    HW115359   4.963   7.773   5.301  1.0861  2.0265  2.5449
 1380SOL    HW215360   4.861   7.765   5.428 -1.8473  1.0021  0.1620
 1381SOL     OW15361   8.886   5.185   0.075 -0.0679  0.6128 -0.5212
 1381SOL    HW115362   8.862   5.280   0.093 -1.8119  0.1835 -0.4903
 1381SOL    HW215363   8.852   5.158  -0.015  0.7931  0.1364 -0.7083
 1382SOL     OW15364   4.128   5.150   4.465 -0.1161  1.0589 -0.7103
 1382SOL    HW115365   4.062   5.210   4.420 -1.1670 -0.9059 -1.8523
 1382SOL    HW215366   4.175   5.095   4.396 -1.6128 -1.8494  0.5051
 1383SOL     OW15367   3.541   9.552   6.374 -0.1533 -0.5848 -0.0543
 1383SOL    HW115368   3.528   9.536   6.276 -1.3576  2.8764 -0.5344
 1383SOL    HW215369   3.632   9.521   6.401  0.9283  0.2018 -2.6805
 1384SOL     OW15370   9.697   5.540   4.735  0.0041  0.5209  0.1312
 1384SOL    HW115371   9.673   5.636   4.753  0.1148  0.1333  2.4899
 1384SOL    HW215372   9.786   5.536   4.690  0.7056  1.4765  1.4039
 1385SOL     OW15373   5.132   5.000   3.575 -0.5409  0.0737 -0.3482
 1385SOL    HW115374   5.075   5.064   3.626  1.6344  2.7918 -1.2048
 1385SOL    HW215375   5.229   5.025   3.586  0.4031 -3.2364 -0.5097
 1386SOL     OW15376   8.754   9.913   0.252  0.6568  0.0537 -0.0855
 1386SOL    HW115377   8.847   9.877   0.249  0.8650  0.5982 -0.3193
 1386SOL    HW215378   8.742   9.980   0.178  0.6090  1.2303  0.9747
 1387SOL     OW15379   0.958   8.893   4.040  0.3971  0.1945 -0.0809
 1387SOL    HW115380   1.041   8.924   3.994  0.5935  2.2435  1.5935
 1387SOL    HW215381   0.981   8.828   4.111  0.7299  1.6968  1.2152
 1388SOL     OW15382   8.800   5.797   0.322 -0.4286  0.2563  0.2365
 1388SOL    HW115383   8.893   5.830   0.305 -0.5255 -0.2982 -1.4839
 1388SOL    HW215384   8.804   5.708   0.369 -0.0611 -0.2758 -0.7863
 1389SOL     OW15385   3.154   0.425   1.566  0.0030  0.1154  0.0353
 1389SOL    HW115386   3.192   0.448   1.477  0.6156 -1.9788 -0.2867
 1389SOL    HW215387   3.130   0.508   1.616 -0.3459  1.3040 -2.0806
 1390SOL     OW15388   7.917   9.876   0.026 -0.2583  0.2242 -0.4324
 1390SOL    HW115389   7.986   9.804   0.018  0.7235  1.2899 -1.8956
 1390SOL    HW215390   7.895   9.891   0.122  1.8598  0.1428  0.0808
 1391SOL     OW15391   4.493   3.563   3.884 -0.0516 -0.1082  0.4644
 1391SOL    HW115392   4.489   3.536   3.788  1.7164 -0.4692  0.4803
 1391SOL    HW215393   4.585   3.546   3.920 -0.4396  0.8647  1.9687
 1392SOL     OW15394   9.360   7.419   0.645 -0.2292  0.0146 -1.1732
 1392SOL    HW115395   9.327   7.504   0.604  1.5132  0.6717 -1.2250
 1392SOL    HW215396   9.323   7.341   0.594 -1.5973  0.7346 -1.3030
 1393SOL     OW15397   1.887   3.820   1.810  0.4456 -0.6422 -0.5861
 1393SOL    HW115398   1.813   3.888   1.810  1.6718  0.7264 -1.1045
 1393SOL    HW215399   1.974   3.866   1.826  1.3446 -2.0680 -1.2632
 1394SOL     OW15400   0.196   4.868   1.870 -0.1128  0.6033 -0.3333
 1394SOL    HW115401   0.243   4.849   1.956 -0.4165  0.4791 -0.1948
 1394SOL    HW215402   0.112   4.814   1.865 -0.1304  0.6594 -0.6781
 1395SOL     OW15403   5.552   0.041   1.486  0.4291  0.3822  0.1047
 1395SOL    HW115404   5.453   0.032   1.483  0.4544  0.0576  0.2269
 1395SOL    HW215405   5.581   0.058   1.580  0.3364  2.3200 -0.1929
 1396SOL     OW15406   2.297   2.300   0.507  0.4374 -0.4170 -0.0929
 1396SOL    HW115407   2.307   2.281   0.605 -1.2785 -1.3482 -0.0911
 1396SOL    HW215408   2.314   2.217   0.455 -3.0733 -1.0403 -0.3143
 1397SOL     OW15409   1.976   4.335   3.768  0.1624  0.1541  0.4325
 1397SOL    HW115410   1.900   4.291   3.719  0.8185  1.5381 -1.8798
 1397SOL    HW215411   1.945   4.363   3.859 -2.8994  3.0579 -1.4050
 1398SOL     OW15412   0.707   0.941   1.637  0.7686 -0.4299 -0.1386
 1398SOL    HW115413   0.638   1.014   1.629  0.4870 -0.3866  2.2191
 1398SOL    HW215414   0.662   0.856   1.664  1.5878 -0.4474  1.2334
 1399SOL     OW15415   4.317   4.153   5.662  0.0607  0.2106  0.5316
 1399SOL    HW115416   4.241   4.102   5.701  0.8498 -0.3462  1.3683
 1399SOL    HW215417   4.349   4.108   5.578 -0.4371  0.3710  0.2546
 1400SOL     OW15418   2.117   2.893   6.743 -0.4521  0.3181 -0.3260
 1400SOL    HW115419   2.188   2.940   6.690 -1.9207  0.9461 -1.7802
 1400SOL    HW215420   2.158   2.817   6.792  1.3762  1.1150 -0.5368
 1401SOL     OW15421   5.393   2.105   1.637 -0.0821  0.1302 -0.2233
 1401SOL    HW115422   5.432   2.018   1.607 -3.1472 -1.6454  0.6757
 1401SOL    HW215423   5.390   2.169   1.560  0.5051 -1.1871 -1.3641
 1402SOL     OW15424   4.815   4.324   3.137 -0.1076 -0.0985  0.2612
 1402SOL    HW115425   4.857   4.325   3.228  0.5582 -0.7258 -0.0391
 1402SOL    HW215426   4.796   4.418   3.109 -1.3293  0.0425  1.5103
 1403SOL     OW15427   9.708   1.440   0.756 -0.0636  0.5541  0.2211
 1403SOL    HW115428   9.687   1.428   0.853  2.1977  0.7487  0.7767
 1403SOL    HW215429   9.722   1.350   0.714  1.2968  0.5476  0.6564
 1404SOL     OW15430   2.303   8.533   1.011  0.1360  0.3650 -0.3365
 1404SOL    HW115431   2.326   8.442   1.045  0.2064  0.4521 -0.1532
 1404SOL    HW215432   2.335   8.542   0.916 -1.5781 -0.4806 -1.0133
 1405SOL     OW15433   8.481   4.517   3.532 -1.0936 -0.4477 -0.0987
 1405SOL    HW115434   8.576   4.517   3.499 -0.6068 -1.9397  1.1942
 1405SOL    HW215435   8.429   4.448   3.483 -0.5223 -2.2455  1.7262
 1406SOL     OW15436   7.101   2.586   0.581  0.3209 -0.6825  0.4307
 1406SOL    HW115437   7.077   2.559   0.674 -0.1676 -0.7399  0.2886
 1406SOL    HW215438   7.185   2.539   0.553  0.3561 -0.8181  0.7658
 1407SOL     OW15439   5.580   0.399   4.035 -0.3477  0.1535  0.2571
 1407SOL    HW115440   5.556   0.460   3.960 -2.0869 -1.9330 -0.9684
 1407SOL    HW215441   5.496   0.368   4.081  0.5723 -0.2274  1.7144
 1408SOL     OW15442   4.057   4.605   0.444 -0.5839 -0.0528  0.2305
 1408SOL    HW115443   4.062   4.604   0.544 -0.9491  1.1845  0.2728
 1408SOL    HW215444   4.109   4.528   0.407  0.1401 -0.1123  1.3514
 1409SOL     OW15445   2.714   5.848   2.916  0.5599 -0.3655  0.5239
 1409SOL    HW115446   2.665   5.926   2.877  0.3169  0.5446  2.5758
 1409SOL    HW215447   2.677   5.763   2.878 -1.5814  0.3668  0.8957
 1410SOL     OW15448   4.322   9.341   4.702 -0.0437 -0.2413  0.0861
 1410SOL    HW115449   4.250   9.383   4.757  0.8411 -0.5758  1.5107
 1410SOL    HW215450   4.380   9.285   4.760  1.4786  0.1675 -1.0210
 1411SOL     OW15451   1.075   5.687   1.596 -0.4323  0.3941  0.0905
 1411SOL    HW115452   1.111   5.627   1.668 -1.4650  0.8939  1.0298
 1411SOL    HW215453   1.063   5.633   1.512  0.4468 -0.2705  0.3752
 1412SOL     OW15454   0.229   1.451   0.850  0.5131 -0.3943 -0.5591
 1412SOL    HW115455   0.182   1.382   0.795 -0.1901 -0.0067 -0.4620
 1412SOL    HW215456   0.174   1.472   0.931 -0.6161  2.1900 -1.9357
 1413SOL     OW15457   7.444   8.552   4.125  0.3310  0.4391  0.5859
 1413SOL    HW115458   7.544   8.561   4.130  0.2966 -0.0190  2.2349
 1413SOL    HW215459   7.404   8.568   4.215 -0.8555 -1.9997  0.5408
 1414SOL     OW15460   2.042   3.287   0.176  0.2847 -0.2253  0.2253
 1414SOL    HW115461   2.039   3.207   0.236  2.3969 -0.6853 -0.2305
 1414SOL    HW215462   1.950   3.310   0.145 -0.2507 -2.9996 -0.3091
 1415SOL     OW15463   9.983   2.995   5.016 -0.1131  0.1101  0.3714
 1415SOL    HW115464   9.956   3.059   5.089 -1.1632 -0.7674  0.7653
 1415SOL    HW215465  10.072   3.021   4.980 -0.1639  1.3159  1.0967
 1416SOL     OW15466   2.231   3.435   3.256  0.0140 -0.3202 -0.9331
 1416SOL    HW115467   2.265   3.377   3.182 -0.3193 -0.6949 -0.7899
 1416SOL    HW215468   2.278   3.523   3.252  0.0443 -0.3577 -1.5530
 1417SOL     OW15469   3.338   1.389   1.694  0.0439 -0.3483  0.3872
 1417SOL    HW115470   3.351   1.310   1.634  1.6675  0.0249  0.2248
 1417SOL    HW215471   3.362   1.364   1.787  0.6573 -0.0246  0.3189
 1418SOL     OW15472   9.676   2.462   5.033 -0.0230  0.9558  0.5955
 1418SOL    HW115473   9.614   2.539   5.018 -0.8959  0.3665  1.0936
 1418SOL    HW215474   9.633   2.378   4.999  0.6909  0.6118  0.5436
 1419SOL     OW15475   1.626   2.717   5.314 -0.3215  0.2339 -0.3283
 1419SOL    HW115476   1.656   2.761   5.229  0.3195  0.3558 -0.0451
 1419SOL    HW215477   1.672   2.760   5.392 -2.1518  1.2340  0.2330
 1420SOL     OW15478   5.749   7.960   2.961  0.2963  0.4903 -0.8452
 1420SOL    HW115479   5.654   7.934   2.948  0.3920  0.3441 -1.2533
 1420SOL    HW215480   5.754   8.035   3.028 -0.2384  1.5125 -1.9193
 1421SOL     OW15481   9.925   7.933   1.176 -1.0016 -0.2107 -0.5659
 1421SOL    HW115482   9.921   7.833   1.188  1.5232 -0.6287 -2.6854
 1421SOL    HW215483  10.018   7.960   1.153 -1.3195  2.8695  1.4317
 1422SOL     OW15484   9.391   8.547   0.729  0.3825  0.3679 -0.0071
 1422SOL    HW115485   9.450   8.477   0.689  1.0450 -0.4117  2.3142
 1422SOL    HW215486   9.380   8.531   0.827 -1.7296  1.9056  0.0560
 1423SOL     OW15487   0.915   5.930   1.622 -0.2512  0.2008  0.5742
 1423SOL    HW115488   0.945   5.840   1.592 -0.1304  0.1222  0.9208
 1423SOL    HW215489   0.914   5.933   1.722  1.4886  1.1476  0.5886
 1424SOL     OW15490   8.371   8.260   3.445 -0.6329  0.3149  0.6124
 1424SOL    HW115491   8.458   8.214   3.428  0.4462  2.5106 -0.0729
 1424SOL    HW215492   8.305   8.234   3.374 -0.2984 -0.7353  0.6737
 1425SOL     OW15493   9.243   2.277   4.551  0.0293 -0.1014  0.1788
 1425SOL    HW115494   9.314   2.342   4.525  1.7981 -1.8613  0.5210
 1425SOL    HW215495   9.173   2.274   4.480  1.2266  0.2978 -1.0365
 1426SOL     OW15496   7.143   1.430   4.506  0.1273 -0.2322  0.2852
 1426SOL    HW115497   7.224   1.484   4.486 -0.3701 -0.2345 -1.8879
 1426SOL    HW215498   7.065   1.466   4.455 -0.2927 -2.7799 -0.9483
 1427SOL     OW15499   3.595   4.610   3.432 -0.1127  0.1004 -0.0640
 1427SOL    HW115500   3.623   4.706   3.430 -0.7226  0.2625 -1.4291
 1427SOL    HW215501   3.623   4.565   3.347  0.1244 -0.9156  0.5485
 1428SOL     OW15502   1.016   2.395   2.229  0.5214 -0.2986  0.3714
 1428SOL    HW115503   0.951   2.416   2.303 -1.2703  1.6786 -1.6747
 1428SOL    HW215504   1.097   2.452   2.240 -0.4652  1.2320 -0.1028
 1429SOL     OW15505   4.508   9.092   1.001 -0.6794 -0.1105  0.5461
 1429SOL    HW115506   4.414   9.100   0.969 -0.3798 -1.5831 -0.7636
 1429SOL    HW215507   4.567   9.150   0.946 -0.1838 -2.5457 -1.6239
 1430SOL     OW15508   9.127   5.479   2.593 -0.9577  0.8962  0.0319
 1430SOL    HW115509   9.078   5.415   2.653  1.6449  0.4981  1.8378
 1430SOL    HW215510   9.140   5.566   2.640  0.3622  0.8713 -0.2649
 1431SOL     OW15511   0.431   7.843   2.662 -0.4439  0.0784 -0.2785
 1431SOL    HW115512   0.478   7.928   2.637 -0.4692 -0.5037 -2.3751
 1431SOL    HW215513   0.385   7.855   2.750  1.8316  1.3471  0.7666
 1432SOL     OW15514   9.811   2.636   1.273  0.0654  0.0017 -0.7343
 1432SOL    HW115515   9.744   2.707   1.251  0.1169  0.0677 -0.6763
 1432SOL    HW215516   9.883   2.674   1.331 -0.5099 -0.3767  0.2333
 1433SOL     OW15517   0.947   4.649   5.628 -0.6358  0.0248  1.3281
 1433SOL    HW115518   0.870   4.699   5.666 -0.7355  1.1664 -0.3128
 1433SOL    HW215519   1.030   4.669   5.680 -0.7052  1.7835  0.7770
 1434SOL     OW15520   8.550   2.070   1.537 -0.1014  0.1061 -0.3951
 1434SOL    HW115521   8.452   2.065   1.519 -0.0572 -2.5981  0.0213
 1434SOL    HW215522   8.565   2.101   1.631 -0.4851  2.7655 -1.1689
 1435SOL     OW15523   2.606   1.765   2.795  0.2309  0.4071 -0.4871
 1435SOL    HW115524   2.692   1.744   2.750  1.4259  1.6249  1.1686
 1435SOL    HW215525   2.542   1.806   2.730  0.5302 -1.4094 -1.9527
 1436SOL     OW15526   2.416   3.434   0.658  0.1087  0.3443 -1.0763
 1436SOL    HW115527   2.381   3.341   0.669  0.4775  0.1875 -1.2017
 1436SOL    HW215528   2.516   3.432   0.659  0.1190  0.7159 -1.2843
 1437SOL     OW15529   3.664   7.605   1.870 -0.1028 -0.1861  0.3494
 1437SOL    HW115530   3.579   7.602   1.923 -1.2829  0.4197 -1.4674
 1437SOL    HW215531   3.664   7.684   1.809  2.2099  0.3673  1.0050
 1438SOL     OW15532   9.423   0.743   3.655  0.5149  0.8424 -0.0319
 1438SOL    HW115533   9.355   0.673   3.633 -1.4815  3.4563 -2.5432
 1438SOL    HW215534   9.377   0.823   3.693  2.4133  1.9225  0.0535
 1439SOL     OW15535   9.548   3.805   3.642  0.2751  0.0915 -0.3423
 1439SOL    HW115536   9.600   3.767   3.718 -0.6981  1.8142  1.2262
 1439SOL    HW215537   9.460   3.759   3.635  1.2629 -1.6405 -1.9139
 1440SOL     OW15538   9.474   7.190   6.727  0.2684  0.4318  0.1418
 1440SOL    HW115539   9.561   7.183   6.777 -0.2150 -0.6051  0.8664
 1440SOL    HW215540   9.464   7.111   6.667  0.7531  1.5744 -1.4794
 1441SOL     OW15541   7.320   0.407   4.757  0.2807 -0.0140 -0.4830
 1441SOL    HW115542   7.256   0.434   4.828  0.7294 -1.0946  0.3419
 1441SOL    HW215543   7.295   0.451   4.671 -1.4857 -0.3317 -0.1419
 1442SOL     OW15544   1.404   3.843   3.459 -0.1195  0.7376  0.3754
 1442SOL    HW115545   1.418   3.756   3.412  1.7906 -0.2074  2.6057
 1442SOL    HW215546   1.464   3.912   3.420 -0.4876  0.6623 -0.3394
 1443SOL     OW15547   4.277   8.931   4.014  0.1113 -0.0033  0.3927
 1443SOL    HW115548   4.190   8.907   4.058  0.4707 -0.7038  0.7178
 1443SOL    HW215549   4.270   8.914   3.916 -0.4621  0.9198  0.2649
 1444SOL     OW15550   6.598   0.786   2.323 -0.2207 -0.4877 -1.1156
 1444SOL    HW115551   6.566   0.881   2.325 -0.5728 -0.5722 -2.0748
 1444SOL    HW215552   6.639   0.767   2.233  2.8340 -0.2832  0.1976
 1445SOL     OW15553   1.389   2.050   3.071  0.2680  0.1718  0.0268
 1445SOL    HW115554   1.361   2.060   3.166  1.6869 -0.5761  0.5381
 1445SOL    HW215555   1.422   2.138   3.037  1.5085  0.0221  0.8137
 1446SOL     OW15556   1.004   0.724   2.118  0.0842 -0.5215 -0.0917
 1446SOL    HW115557   0.994   0.793   2.047  0.0396  1.9066  2.1639
 1446SOL    HW215558   1.079   0.750   2.179  0.2049 -2.5864  0.6918
 1447SOL     OW15559   3.593   5.273   1.264  0.7075 -0.3893 -0.7510
 1447SOL    HW115560   3.658   5.233   1.328 -1.0161 -3.3761 -0.8118
 1447SOL    HW215561   3.568   5.365   1.296  2.7611 -0.3172  0.7718
 1448SOL     OW15562   6.799   1.376   6.316  0.0663 -0.6258  0.1629
 1448SOL    HW115563   6.792   1.467   6.356 -1.8234 -0.7350  0.1114
 1448SOL    HW215564   6.874   1.375   6.249  1.1899  0.4064  1.3940
 1449SOL     OW15565   5.447   0.821   3.041 -0.0770 -0.3169 -0.1576
 1449SOL    HW115566   5.368   0.868   3.079  0.9251  1.2841  0.0089
 1449SOL    HW215567   5.459   0.848   2.945  0.4228 -0.3568 -0.1079
 1450SOL     OW15568   2.950   5.633   0.860 -0.4309  0.3091 -0.4435
 1450SOL    HW115569   2.980   5.700   0.792 -1.1929 -1.1218 -2.2264
 1450SOL    HW215570   2.995   5.545   0.843  0.2694  0.2408  1.6307
 1451SOL     OW15571   7.757   0.054   1.427  0.3425 -0.3851  0.4373
 1451SOL    HW115572   7.845   0.077   1.385 -0.7473  0.7049 -1.3398
 1451SOL    HW215573   7.726   0.131   1.483 -0.1300 -0.2177 -0.0542
 1452SOL     OW15574   3.533   5.103   4.094 -0.4041 -0.1880 -0.2894
 1452SOL    HW115575   3.457   5.043   4.121  0.6319 -1.0610  0.7124
 1452SOL    HW215576   3.594   5.055   4.032  0.0713  0.0555 -0.0111
 1453SOL     OW15577   4.769   1.130   3.867 -0.0788  0.4521  0.0705
 1453SOL    HW115578   4.726   1.220   3.870 -0.6336  0.2114 -0.4502
 1453SOL    HW215579   4.729   1.071   3.937 -0.4770  0.2801 -0.3018
 1454SOL     OW15580   6.854   1.689   6.721  0.3377 -0.6951 -0.5003
 1454SOL    HW115581   6.828   1.609   6.667 -2.1169  1.0720 -2.0819
 1454SOL    HW215582   6.794   1.698   6.800  0.1221 -0.0269 -0.7335
 1455SOL     OW15583   0.366   3.375   2.323 -0.6001  0.3903  0.2781
 1455SOL    HW115584   0.279   3.345   2.360 -0.6169  0.5597  0.3784
 1455SOL    HW215585   0.422   3.414   2.396  0.5562 -1.9712  0.7055
 1456SOL     OW15586   4.778   3.409   2.783  0.6970  0.2127 -0.4319
 1456SOL    HW115587   4.713   3.345   2.823 -1.4621  1.7629 -1.3641
 1456SOL    HW215588   4.833   3.450   2.856 -0.6734  0.2870  0.5700
 1457SOL     OW15589   1.678   2.997   4.406  0.3230  0.3693  0.4941
 1457SOL    HW115590   1.610   3.010   4.478  0.1236  0.2686  0.3239
 1457SOL    HW215591   1.748   2.933   4.437  1.5575  2.1352  1.5192
 1458SOL     OW15592   9.404   7.622   3.772 -0.6937 -0.1269  0.3602
 1458SOL    HW115593   9.486   7.647   3.823 -0.5918 -0.6499  0.4521
 1458SOL    HW215594   9.351   7.705   3.753 -0.3390  0.1666  0.6324
 1459SOL     OW15595   0.364   2.211   5.986 -0.4421 -0.8272  0.1610
 1459SOL    HW115596   0.419   2.148   6.042  2.2396  0.5775 -0.7877
 1459SOL    HW215597   0.382   2.194   5.889 -0.8179  0.4266 -0.1361
 1460SOL     OW15598   3.959   7.861   2.055 -0.2672  0.4760 -0.2609
 1460SOL    HW115599   3.966   7.944   1.999 -0.5070  0.3116 -0.5357
 1460SOL    HW215600   3.967   7.781   1.996 -0.1872  0.3026 -0.0141
 1461SOL     OW15601   9.037   0.005   4.343  0.5254 -0.1027 -0.3505
 1461SOL    HW115602   8.981  -0.057   4.287  0.2863  0.7056 -1.0221
 1461SOL    HW215603   8.991   0.022   4.430  0.2673 -0.3375 -0.4407
 1462SOL     OW15604   7.887   5.902   6.471 -0.1324 -0.2434 -0.3302
 1462SOL    HW115605   7.939   5.902   6.385 -0.6035 -0.5080 -0.6233
 1462SOL    HW215606   7.950   5.904   6.548  0.3035 -0.1336 -0.6817
 1463SOL     OW15607   9.914   8.083   3.352 -0.2209  0.1356 -0.0710
 1463SOL    HW115608   9.942   8.027   3.275 -1.3973  0.1084 -0.4969
 1463SOL    HW215609   9.967   8.057   3.433 -1.0436 -1.9407 -0.1472
 1464SOL     OW15610   9.759   7.869   5.980 -0.0818  0.5487 -0.2517
 1464SOL    HW115611   9.713   7.797   6.031 -0.0338  0.8686  0.2403
 1464SOL    HW215612   9.697   7.947   5.969 -0.6986 -0.1647 -2.1384
 1465SOL     OW15613   3.818   5.037   2.279  0.1040  0.3150  0.2426
 1465SOL    HW115614   3.833   5.132   2.306 -0.0862  0.5232 -0.3567
 1465SOL    HW215615   3.722   5.024   2.256  0.1684  0.0319  0.1286
 1466SOL     OW15616   9.233   2.588   2.372 -0.1756 -0.4314 -0.5347
 1466SOL    HW115617   9.149   2.603   2.425 -0.3907 -1.1546 -0.6591
 1466SOL    HW215618   9.259   2.491   2.378  0.9982 -0.0967  0.0162
 1467SOL     OW15619   8.717   9.040   4.271  0.1761 -0.0453 -0.1496
 1467SOL    HW115620   8.645   9.088   4.220 -2.2229 -2.0720  1.1999
 1467SOL    HW215621   8.732   8.950   4.230  1.4037  0.0700  0.0411
 1468SOL     OW15622   4.111   3.713   6.087  0.3675 -0.1835  0.8641
 1468SOL    HW115623   4.205   3.678   6.093  1.1911  2.0540  1.4587
 1468SOL    HW215624   4.093   3.742   5.993  0.7314  0.5745  1.0208
 1469SOL     OW15625   2.003   7.780   0.014 -0.1704 -1.0961  0.4991
 1469SOL    HW115626   2.068   7.779  -0.062 -0.7716 -1.2405 -0.0160
 1469SOL    HW215627   2.041   7.834   0.089  0.5846 -1.2589  0.2373
 1470SOL     OW15628   8.922   3.517   6.434  0.6014  0.0007  0.1812
 1470SOL    HW115629   8.884   3.607   6.457  1.9623  1.2335 -2.1064
 1470SOL    HW215630   8.856   3.466   6.379 -0.0126 -0.2188  1.1311
 1471SOL     OW15631   7.425   2.183   5.288 -0.0950  0.2224  0.1077
 1471SOL    HW115632   7.437   2.118   5.362  1.6372 -0.9164 -1.1396
 1471SOL    HW215633   7.328   2.200   5.274 -0.4379  1.0375  3.1009
 1472SOL     OW15634   3.922   6.181   0.879 -0.0446 -0.1969 -1.2380
 1472SOL    HW115635   3.985   6.242   0.832  0.2663  0.8162  0.4764
 1472SOL    HW215636   3.971   6.099   0.910  0.2627  0.2145 -0.6262
 1473SOL     OW15637   1.746   5.257   0.938  0.0738  0.2095 -0.1893
 1473SOL    HW115638   1.722   5.291   1.029 -1.8934 -1.6609  0.0364
 1473SOL    HW215639   1.704   5.315   0.869  0.6474  0.9917  0.1172
 1474SOL     OW15640   9.817   8.723   4.469 -0.2843  0.9962 -0.3162
 1474SOL    HW115641   9.841   8.642   4.415 -0.1935  0.2064  0.8704
 1474SOL    HW215642   9.736   8.767   4.429 -0.5075  0.1450 -0.8148
 1475SOL     OW15643   3.191   6.362   0.153 -0.1897 -0.2791  0.4153
 1475SOL    HW115644   3.164   6.426   0.224  1.0680 -0.1529  0.7876
 1475SOL    HW215645   3.287   6.336   0.166 -0.0517 -0.5324 -1.0093
 1476SOL     OW15646   3.939   4.568   2.995 -0.2086  0.0526  0.1688
 1476SOL    HW115647   3.978   4.659   2.986 -0.5747  0.1755 -0.1795
 1476SOL    HW215648   4.012   4.502   3.012  0.3350  0.0383 -2.0821
 1477SOL     OW15649   7.664   2.623   0.738  0.4352  0.4212 -0.1490
 1477SOL    HW115650   7.739   2.689   0.742  0.2937  0.5537  0.4203
 1477SOL    HW215651   7.637   2.608   0.643  0.0386  1.6800 -0.2475
 1478SOL     OW15652   4.907   1.100   2.377 -0.2580  0.0303  0.0812
 1478SOL    HW115653   4.965   1.021   2.400  1.1119  1.6479  2.3727
 1478SOL    HW215654   4.950   1.152   2.302  1.1826  1.1028  1.6261
 1479SOL     OW15655   7.728   0.714   1.994  0.3612  1.2436 -0.1427
 1479SOL    HW115656   7.731   0.770   1.911  1.9599  1.1783 -0.1379
 1479SOL    HW215657   7.746   0.619   1.970  0.0675  1.1080  0.1771
 1480SOL     OW15658   7.303   9.191   4.944 -0.1938 -0.4030  0.2270
 1480SOL    HW115659   7.381   9.245   4.912 -0.4432 -0.0437  0.2351
 1480SOL    HW215660   7.229   9.195   4.877  0.4164 -2.1118 -0.5849
 1481SOL     OW15661   0.951   8.095   6.350 -0.3174 -0.3430 -0.4028
 1481SOL    HW115662   1.046   8.065   6.345  0.0265  0.5815  0.4832
 1481SOL    HW215663   0.926   8.140   6.264  0.4125  0.4906 -0.1816
 1482SOL     OW15664   7.264   2.106   3.040 -0.1901 -0.2512 -0.0998
 1482SOL    HW115665   7.255   2.206   3.038  0.3141 -0.2127 -2.7822
 1482SOL    HW215666   7.213   2.069   3.118 -2.8498  1.8822 -0.7363
 1483SOL     OW15667   5.143   1.961   1.783 -0.2204  0.0823  0.0004
 1483SOL    HW115668   5.063   2.006   1.743 -0.4845 -0.0709  0.3551
 1483SOL    HW215669   5.225   2.014   1.760 -0.4263  0.2645 -0.3278
 1484SOL     OW15670   4.577   3.871   5.917  0.7078 -0.3120 -0.4899
 1484SOL    HW115671   4.581   3.950   5.978  0.5657 -0.2885 -0.5093
 1484SOL    HW215672   4.505   3.809   5.949  1.9061 -1.2204  0.4758
 1485SOL     OW15673   5.350   6.519   1.792  0.2373 -0.6217 -0.1783
 1485SOL    HW115674   5.329   6.616   1.775  1.8951 -0.2765 -0.3653
 1485SOL    HW215675   5.429   6.512   1.853 -0.4668 -1.8758  0.6131
 1486SOL     OW15676   9.678   9.876   3.109 -0.6622 -0.1431 -0.2545
 1486SOL    HW115677   9.700   9.796   3.053  0.2354 -0.0300 -0.0813
 1486SOL    HW215678   9.755   9.940   3.106  0.0841 -0.8191  2.3210
 1487SOL     OW15679   8.905   2.806   4.428  0.4331 -0.1475  0.1538
 1487SOL    HW115680   8.807   2.798   4.411 -0.0694  2.1301  1.7944
 1487SOL    HW215681   8.941   2.718   4.460 -1.1992 -0.8093  0.1963
 1488SOL     OW15682   2.016   6.474   0.191 -0.3003 -0.3616  0.0231
 1488SOL    HW115683   2.067   6.561   0.193 -0.9010 -0.0292  0.9667
 1488SOL    HW215684   1.925   6.490   0.155 -0.4028 -0.6121  0.1733
 1489SOL     OW15685   2.597   9.327   6.276 -0.1263 -0.0768  0.2525
 1489SOL    HW115686   2.621   9.424   6.275  0.3755 -0.2102 -0.8877
 1489SOL    HW215687   2.537   9.309   6.354 -0.3708  1.1799  0.3711
 1490SOL     OW15688   6.069   9.377   5.466 -0.2255  0.6846  0.2784
 1490SOL    HW115689   6.151   9.422   5.431  0.5675 -1.5851 -0.8824
 1490SOL    HW215690   5.990   9.403   5.411  0.1793  0.8414 -0.2259
 1491SOL     OW15691   9.779   2.863   1.879  1.1249  0.2584 -0.4648
 1491SOL    HW115692   9.699   2.902   1.832  0.4194 -0.5457  0.0556
 1491SOL    HW215693   9.842   2.826   1.811 -0.1732 -1.4449 -0.7862
 1492SOL     OW15694   5.158   0.880   3.758 -0.4652 -0.4749 -0.2003
 1492SOL    HW115695   5.197   0.810   3.818  1.2846  0.6370  0.0054
 1492SOL    HW215696   5.109   0.948   3.813 -0.9249 -0.7654 -0.2557
 1493SOL     OW15697   7.819   2.887   4.894 -0.1736  0.2316  0.2738
 1493SOL    HW115698   7.781   2.824   4.961  0.5641 -0.0580  0.4249
 1493SOL    HW215699   7.883   2.839   4.835  0.0139  0.7302  0.0667
 1494SOL     OW15700   3.597   0.332   4.760 -0.1388  0.1072  0.6396
 1494SOL    HW115701   3.694   0.351   4.744 -0.6391  1.6633 -0.6443
 1494SOL    HW215702   3.587   0.238   4.792  1.6369 -0.6458 -0.9041
 1495SOL     OW15703   1.792   6.088   4.421 -0.3444  0.4101  0.0034
 1495SOL    HW115704   1.703   6.129   4.439 -0.6114 -0.3479  0.4151
 1495SOL    HW215705   1.786   6.028   4.341  0.2633  1.8663 -1.1693
 1496SOL     OW15706   8.711   4.621   0.868  0.4508 -0.1154 -0.3062
 1496SOL    HW115707   8.772   4.672   0.807  0.7874 -0.3711 -0.1872
 1496SOL    HW215708   8.677   4.682   0.940 -0.2699  0.2839 -0.9843
 1497SOL     OW15709   1.668   6.130   3.554  0.4497 -0.3796  0.2191
 1497SOL    HW115710   1.701   6.223   3.565 -1.9101  0.4628  0.3600
 1497SOL    HW215711   1.717   6.069   3.616  0.0954  1.2412  2.1115
 1498SOL     OW15712   9.570   4.375   3.717  0.3987  0.4416  0.1724
 1498SOL    HW115713   9.607   4.447   3.657  2.4817  0.1811  1.1180
 1498SOL    HW215714   9.471   4.383   3.720  0.6258  3.9509  1.0702
 1499SOL     OW15715   2.392   9.315   0.654 -0.5056 -0.2276  0.2244
 1499SOL    HW115716   2.468   9.255   0.679 -1.6240 -1.9414 -0.3765
 1499SOL    HW215717   2.422   9.410   0.654  0.9863 -0.6853  2.3808
 1500SOL     OW15718   1.714   0.990   4.666 -0.0949  0.4227 -0.2076
 1500SOL    HW115719   1.809   1.018   4.672 -0.0698  0.2053  0.4011
 1500SOL    HW215720   1.667   1.046   4.598  0.2986  0.9793 -0.0230
 1501SOL     OW15721   3.883   0.860   2.006  0.2442  0.0309 -0.0368
 1501SOL    HW115722   3.919   0.908   2.086  0.6312  0.7488 -0.6433
 1501SOL    HW215723   3.811   0.797   2.035  1.9888 -1.4352  1.1826
 1502SOL     OW15724   3.243   3.732   5.163  0.3077  0.3098  0.1924
 1502SOL    HW115725   3.329   3.684   5.177 -0.6324 -1.6437 -0.5892
 1502SOL    HW215726   3.239   3.768   5.070 -0.8257 -1.9548 -0.6716
 1503SOL     OW15727   0.823   9.410   1.526  0.5128 -0.6961 -0.1503
 1503SOL    HW115728   0.793   9.332   1.471  0.8700 -1.4919  0.7671
 1503SOL    HW215729   0.905   9.385   1.577  0.0266 -0.0752  0.9633
 1504SOL     OW15730   0.010   5.324   3.993  0.2706  0.0282  0.2612
 1504SOL    HW115731   0.083   5.257   4.001 -0.1213 -0.3804  0.4316
 1504SOL    HW215732  -0.040   5.308   3.908 -0.3671 -0.4462  0.7207
 1505SOL     OW15733   0.498   6.726   2.640 -1.0069 -0.2695  0.4272
 1505SOL    HW115734   0.574   6.726   2.575 -0.2700  0.8948  1.2688
 1505SOL    HW215735   0.415   6.761   2.595 -0.1035  2.0886  0.5359
 1506SOL     OW15736   2.657   5.661   6.694 -0.4376 -0.1684 -0.1899
 1506SOL    HW115737   2.650   5.760   6.686  0.6794  0.0174  0.9802
 1506SOL    HW215738   2.671   5.636   6.790  1.1246 -1.3365 -0.7007
 1507SOL     OW15739   9.624   0.113   2.669  0.1482 -0.5013 -0.0929
 1507SOL    HW115740   9.667   0.203   2.664 -2.1260  0.5628 -1.0764
 1507SOL    HW215741   9.546   0.117   2.731 -0.1098 -1.7476 -0.3213
 1508SOL     OW15742   4.376   5.336   0.055 -0.0424 -0.3647 -0.6332
 1508SOL    HW115743   4.351   5.269   0.125 -0.2623  2.3514  1.9765
 1508SOL    HW215744   4.301   5.345  -0.011 -0.4758 -1.8146 -0.3517
 1509SOL     OW15745   4.286   0.499   4.537  0.1742 -0.3407 -0.0747
 1509SOL    HW115746   4.374   0.527   4.499  0.0668  0.2267  0.0935
 1509SOL    HW215747   4.279   0.530   4.631 -1.0023  1.3267 -0.6971
 1510SOL     OW15748   1.425   1.935   1.102 -0.0440  0.0321 -0.6810
 1510SOL    HW115749   1.389   1.845   1.076 -1.1039  0.1054  0.4815
 1510SOL    HW215750   1.509   1.924   1.155  0.1342 -0.2430 -1.0159
 1511SOL     OW15751   1.147   9.014   6.160  0.4406  0.3534 -0.4657
 1511SOL    HW115752   1.237   8.980   6.186 -0.5315 -1.4938  0.6362
 1511SOL    HW215753   1.116   8.966   6.078 -0.6044 -0.9363  0.6453
 1512SOL     OW15754   0.976   9.233   5.080  0.1478 -0.4211 -0.0276
 1512SOL    HW115755   0.951   9.140   5.108  1.9939 -0.6044  1.0420
 1512SOL    HW215756   1.011   9.231   4.987  1.2367 -0.9859  0.3809
 1513SOL     OW15757   4.124   3.996   4.068  0.1272  0.7709  0.2134
 1513SOL    HW115758   4.112   4.081   4.017  2.4995  1.1644  0.2411
 1513SOL    HW215759   4.163   3.926   4.009 -1.4038 -0.1989  0.3088
 1514SOL     OW15760   1.700   5.014   0.854 -0.4066 -0.2063 -0.0915
 1514SOL    HW115761   1.718   5.110   0.876 -0.7818 -0.6354  2.1883
 1514SOL    HW215762   1.614   4.986   0.895 -0.4310 -1.4668 -0.9671
 1515SOL     OW15763   1.805   8.481   2.048 -0.5880  0.4838 -0.0033
 1515SOL    HW115764   1.720   8.462   2.097 -0.3656 -0.2209  0.1216
 1515SOL    HW215765   1.795   8.453   1.952 -0.7281  1.0558 -0.1607
 1516SOL     OW15766   9.061   3.616   1.819 -0.0218  0.2527 -0.2883
 1516SOL    HW115767   8.972   3.659   1.835  0.4725  0.6891  1.3229
 1516SOL    HW215768   9.059   3.522   1.853 -0.2160 -0.1186 -1.2972
 1517SOL     OW15769   2.118   5.132   4.594  0.4529 -0.4577  0.0131
 1517SOL    HW115770   2.170   5.129   4.509  1.4405  1.2359  0.5358
 1517SOL    HW215771   2.095   5.226   4.616 -0.3234 -0.9314  1.3214
 1518SOL     OW15772   7.452   9.895   2.246  0.2765  0.3764 -0.4594
 1518SOL    HW115773   7.374   9.939   2.201 -0.1375  0.3495  0.2277
 1518SOL    HW215774   7.519   9.867   2.177 -0.6133 -0.1794 -1.0979
 1519SOL     OW15775   0.589   1.174   1.684  0.4473  0.5971  0.6960
 1519SOL    HW115776   0.677   1.166   1.731  2.2952  0.8829 -2.5736
 1519SOL    HW215777   0.568   1.271   1.670 -0.6059  0.5425  1.7486
 1520SOL     OW15778   1.210   9.258   2.423  0.2572 -0.8030  0.0865
 1520SOL    HW115779   1.133   9.318   2.445  0.5981  0.5564 -2.2660
 1520SOL    HW215780   1.176   9.166   2.403 -0.5540 -0.7088  0.9840
 1521SOL     OW15781   0.147   6.219   0.288  0.2192 -0.2767  0.1887
 1521SOL    HW115782   0.086   6.173   0.224  1.7517 -2.4024  0.2075
 1521SOL    HW215783   0.235   6.237   0.244  0.8270 -0.5285  1.2577
 1522SOL     OW15784   2.877   8.540   0.646 -0.1462 -0.1080  0.2669
 1522SOL    HW115785   2.949   8.527   0.578 -0.3822  1.7523 -0.3719
 1522SOL    HW215786   2.913   8.589   0.725 -0.1978 -1.0568  0.8751
 1523SOL     OW15787   3.042   3.694   4.861  0.4111 -0.1180 -0.0133
 1523SOL    HW115788   3.109   3.722   4.792  0.9097  3.1099  1.6667
 1523SOL    HW215789   2.950   3.717   4.829  0.5955  0.8172  0.0996
 1524SOL     OW15790   3.796   0.750   6.005  0.3431 -0.2538  0.5347
 1524SOL    HW115791   3.719   0.693   6.032  0.7698 -0.7183  0.7752
 1524SOL    HW215792   3.861   0.696   5.951 -0.2383  0.5287 -0.9927
 1525SOL     OW15793   2.111   3.526   6.028 -0.4799  0.7151  0.0632
 1525SOL    HW115794   2.101   3.544   6.126 -2.6123  2.6497 -0.4503
 1525SOL    HW215795   2.188   3.464   6.012 -1.3651 -1.2520  3.1118
 1526SOL     OW15796   5.067   8.662   6.560  0.5239  0.2017 -0.0203
 1526SOL    HW115797   5.012   8.599   6.504 -1.3088  1.7370 -0.0229
 1526SOL    HW215798   5.101   8.737   6.502  0.9978  0.2806  0.3605
 1527SOL     OW15799   9.547   3.811   3.964 -0.0258  0.4351 -0.2470
 1527SOL    HW115800   9.635   3.859   3.962 -0.2021  0.7720  0.3111
 1527SOL    HW215801   9.472   3.876   3.961 -0.2607  0.1603 -0.3781
 1528SOL     OW15802   8.394   0.882   5.539 -0.5319 -0.3503  0.2812
 1528SOL    HW115803   8.424   0.797   5.497  0.7582  0.1611  0.1311
 1528SOL    HW215804   8.467   0.950   5.532 -1.7514  0.9468 -0.1110
 1529SOL     OW15805   8.128   0.331   4.239  0.0844 -0.0022  0.4617
 1529SOL    HW115806   8.123   0.239   4.200  1.8494 -1.0172  2.4952
 1529SOL    HW215807   8.224   0.358   4.247 -0.2870  0.8224  2.5593
 1530SOL     OW15808   7.748   4.291   1.335 -0.2351  0.1806 -0.7685
 1530SOL    HW115809   7.686   4.357   1.292  0.8926  1.2096 -0.8413
 1530SOL    HW215810   7.695   4.213   1.369 -1.4425  0.5359 -1.7729
 1531SOL     OW15811   0.601   8.518   1.375 -0.0574 -0.3622  0.3079
 1531SOL    HW115812   0.639   8.430   1.403  2.0302 -0.2920 -2.1408
 1531SOL    HW215813   0.672   8.588   1.379 -0.9007  0.5710 -0.6753
 1532SOL     OW15814   6.511   1.206   2.863 -0.5631  0.1112 -0.4899
 1532SOL    HW115815   6.533   1.303   2.865 -1.0869  0.2635 -1.6650
 1532SOL    HW215816   6.542   1.163   2.948  2.2919  0.7424 -1.1442
 1533SOL     OW15817   9.989   1.178   4.859 -0.7010  0.3058  0.1326
 1533SOL    HW115818   9.985   1.274   4.887 -1.9999  0.1079  0.6716
 1533SOL    HW215819   9.939   1.165   4.773 -0.0214  0.2231 -0.2481
 1534SOL     OW15820   2.037   6.687   5.548  0.3073 -0.0256  0.1985
 1534SOL    HW115821   2.125   6.731   5.567 -0.3001  0.4963  1.7971
 1534SOL    HW215822   1.965   6.730   5.601 -0.8931 -0.6243 -0.9162
 1535SOL     OW15823   4.606   5.848   2.089 -0.4838 -0.4535 -0.3582
 1535SOL    HW115824   4.509   5.866   2.070 -0.2642  0.5630 -0.5416
 1535SOL    HW215825   4.620   5.750   2.099 -1.5732 -0.5995 -0.1424
 1536SOL     OW15826   1.170   8.297   3.680  0.1690 -0.6132 -0.0895
 1536SOL    HW115827   1.201   8.385   3.645 -1.6736 -0.4324 -1.3605
 1536SOL    HW215828   1.194   8.224   3.616 -1.0023 -0.6142 -0.5420
 1537SOL     OW15829   9.179   3.284   0.429  0.1235 -0.9642 -0.0653
 1537SOL    HW115830   9.227   3.361   0.386  2.2548 -1.3745  1.5473
 1537SOL    HW215831   9.236   3.202   0.425 -1.2373 -1.9456  0.1872
 1538SOL     OW15832   1.537   6.025   5.984  0.2869  0.1184 -0.6469
 1538SOL    HW115833   1.486   5.991   5.905  1.1740 -0.3671 -1.0204
 1538SOL    HW215834   1.481   6.016   6.066 -0.6368  0.6177 -1.2148
 1539SOL     OW15835   3.715   7.882   0.595 -0.1251 -0.4728  0.4029
 1539SOL    HW115836   3.675   7.800   0.555 -0.0422 -1.6961  2.7569
 1539SOL    HW215837   3.705   7.880   0.694  1.3566  1.5684  0.6445
 1540SOL     OW15838   9.213   0.093   5.452  0.6713 -0.6589 -0.1079
 1540SOL    HW115839   9.130   0.092   5.396 -1.3643 -2.5909  2.7838
 1540SOL    HW215840   9.290   0.058   5.399 -0.5856  0.0216 -2.4610
 1541SOL     OW15841   4.842   0.711   1.111  0.2430 -0.0162 -0.2815
 1541SOL    HW115842   4.795   0.634   1.069  1.8895 -2.5701  2.3746
 1541SOL    HW215843   4.925   0.733   1.059  1.1065 -1.7199  0.3448
 1542SOL     OW15844   2.159   2.354   0.042  0.1479 -0.4768  0.3010
 1542SOL    HW115845   2.140   2.416  -0.034  1.6120 -1.1927 -0.6594
 1542SOL    HW215846   2.151   2.404   0.129  2.0194  1.2678 -0.4898
 1543SOL     OW15847   9.017   1.271   1.149  0.0741 -0.3950  0.0892
 1543SOL    HW115848   8.997   1.351   1.206 -1.4687 -0.6320 -0.1174
 1543SOL    HW215849   9.014   1.296   1.053  2.3074 -0.0874  0.0579
 1544SOL     OW15850   4.097   9.834   0.055  0.0469 -0.7068 -0.6236
 1544SOL    HW115851   4.136   9.923   0.076  0.8169 -0.7150 -1.9804
 1544SOL    HW215852   4.093   9.779   0.139 -0.9224  0.7755  0.3236
 1545SOL     OW15853   5.851   8.117   4.321 -1.1054 -0.0810  0.2487
 1545SOL    HW115854   5.813   8.055   4.252  1.7905 -0.1899 -1.3082
 1545SOL    HW215855   5.858   8.068   4.409 -0.8761 -1.2654 -0.4202
 1546SOL     OW15856   6.313   0.825   5.441 -0.2226 -0.3457  0.2044
 1546SOL    HW115857   6.321   0.763   5.519  1.5931  1.1791  1.2701
 1546SOL    HW215858   6.376   0.902   5.453 -1.8716  1.3080 -1.4637
 1547SOL     OW15859   2.191   6.661   0.389  0.1442 -0.4713 -0.6718
 1547SOL    HW115860   2.157   6.736   0.447  1.3581 -0.7161  0.3791
 1547SOL    HW215861   2.176   6.684   0.293 -1.5485  0.1119 -0.2830
 1548SOL     OW15862   5.314   8.061   4.422  0.0592 -0.8387 -0.0424
 1548SOL    HW115863   5.264   8.001   4.359  1.0170  0.9854 -2.6072
 1548SOL    HW215864   5.280   8.155   4.411  3.6563  0.3568 -1.4981
 1549SOL     OW15865   8.889   5.782   4.143 -0.0661  0.3322  0.3453
 1549SOL    HW115866   8.796   5.783   4.180 -0.2038 -2.3886  0.1981
 1549SOL    HW215867   8.950   5.741   4.211  0.4755 -0.5703 -0.6762
 1550SOL     OW15868   8.926   8.285   4.071 -0.4131 -0.6277  0.3045
 1550SOL    HW115869   8.839   8.334   4.069 -0.2238 -0.3372 -0.9967
 1550SOL    HW215870   8.909   8.187   4.060 -0.6432 -0.6747  1.0328
 1551SOL     OW15871   7.469   2.008   1.347  0.0512  0.3500 -0.8466
 1551SOL    HW115872   7.551   2.002   1.290  0.5008  0.4276 -0.2216
 1551SOL    HW215873   7.421   2.094   1.330  0.6051  0.7197 -0.5489
 1552SOL     OW15874   4.140   1.969   1.528 -0.2148  0.0290  0.0746
 1552SOL    HW115875   4.119   2.057   1.484 -2.9419  0.4191  2.0200
 1552SOL    HW215876   4.214   1.982   1.594 -0.7388  0.9572  0.4998
 1553SOL     OW15877   1.485   4.501   6.360  0.4210  0.1836 -0.2006
 1553SOL    HW115878   1.465   4.547   6.273  1.5338  0.2282 -0.4336
 1553SOL    HW215879   1.523   4.410   6.341  0.1354 -0.0289  0.2469
 1554SOL     OW15880   7.021   0.116   2.747 -0.0644 -0.2707  0.0314
 1554SOL    HW115881   7.082   0.131   2.825  3.1860  1.4562 -2.7361
 1554SOL    HW215882   6.974   0.201   2.724 -0.2411 -0.5233 -0.5438
 1555SOL     OW15883   6.836   1.076   3.150 -0.2515  0.6188  0.1855
 1555SOL    HW115884   6.739   1.096   3.145 -0.3533  0.3882  1.0414
 1555SOL    HW215885   6.849   0.981   3.181  0.2271  0.0237 -1.8030
 1556SOL     OW15886   8.648   6.481   5.426 -0.1513  0.2357 -0.0251
 1556SOL    HW115887   8.728   6.482   5.486  0.1576 -0.1285 -0.4306
 1556SOL    HW215888   8.648   6.398   5.371 -2.3062 -1.1989  2.0045
 1557SOL     OW15889   0.445   0.746   4.046 -0.5941 -0.1123 -0.3568
 1557SOL    HW115890   0.541   0.761   4.071 -0.6285  0.7584 -0.7230
 1557SOL    HW215891   0.395   0.713   4.126  0.1470 -1.2194 -0.3336
 1558SOL     OW15892   2.517   8.675   4.428  0.7104 -0.2722  0.5659
 1558SOL    HW115893   2.500   8.590   4.478 -0.8769 -0.0188  0.4752
 1558SOL    HW215894   2.584   8.659   4.356  0.0120 -1.5863  0.1982
 1559SOL     OW15895   0.096   7.812   2.675  0.3579 -0.3680 -0.2029
 1559SOL    HW115896   0.037   7.734   2.693  0.9491 -0.5793  0.8969
 1559SOL    HW215897   0.188   7.792   2.708  1.2327 -0.3251 -2.5792
 1560SOL     OW15898   4.497   3.726   6.351  0.4083  0.2681 -0.0639
 1560SOL    HW115899   4.475   3.704   6.446 -0.9431  1.7929  0.0106
 1560SOL    HW215900   4.571   3.793   6.348  0.4855  0.1813 -0.0676
 1561SOL     OW15901   2.260   0.830   4.971 -0.1485  0.1325 -0.2290
 1561SOL    HW115902   2.212   0.848   5.057  1.4970 -0.2167  0.7826
 1561SOL    HW215903   2.352   0.795   4.991  0.4382  0.5451 -2.1275
 1562SOL     OW15904   2.834   4.075   3.107 -0.1263  0.0103  0.2729
 1562SOL    HW115905   2.844   4.155   3.166 -1.1510  0.8149 -0.6204
 1562SOL    HW215906   2.920   4.059   3.059 -0.4547  1.7641 -0.9888
 1563SOL     OW15907   2.708   7.525   0.800  0.1174 -0.2598  0.0380
 1563SOL    HW115908   2.633   7.582   0.833 -0.6453 -1.2600  0.0661
 1563SOL    HW215909   2.767   7.579   0.740 -0.2129  0.7320  0.5990
 1564SOL     OW15910   9.531   6.069   3.291  0.2288 -0.1480  0.0366
 1564SOL    HW115911   9.447   6.112   3.324 -0.0649 -1.1992  0.6879
 1564SOL    HW215912   9.540   5.978   3.331  2.4588  0.5452  1.1903
 1565SOL     OW15913   3.744   5.205   1.489  0.0150  0.1527  0.4972
 1565SOL    HW115914   3.778   5.119   1.527  0.1929  0.0371  0.0843
 1565SOL    HW215915   3.822   5.266   1.473 -0.0928  0.3225  0.6211
 1566SOL     OW15916   5.310   0.754   0.811 -0.6853 -0.0874  0.3380
 1566SOL    HW115917   5.382   0.821   0.831 -0.4690 -0.3534  0.4700
 1566SOL    HW215918   5.262   0.780   0.727 -0.8237  0.4102  0.5685
 1567SOL     OW15919   1.220   1.177   4.149 -0.2457 -0.3864 -0.3265
 1567SOL    HW115920   1.221   1.266   4.104 -0.4796 -0.8047 -1.1879
 1567SOL    HW215921   1.224   1.189   4.248  1.8710  0.5086 -0.4996
 1568SOL     OW15922   2.730   6.882   1.654 -0.2641 -0.1255  0.2433
 1568SOL    HW115923   2.679   6.836   1.727  2.6195 -2.1371  1.0526
 1568SOL    HW215924   2.706   6.841   1.566 -0.9979 -0.1637  0.4520
 1569SOL     OW15925   0.034   9.643   1.086  0.3032 -0.2750  0.4555
 1569SOL    HW115926   0.116   9.586   1.081  0.5919  0.2531 -1.1211
 1569SOL    HW215927   0.060   9.739   1.069 -0.7129 -0.1714 -0.5268
 1570SOL     OW15928   4.539   8.599   2.234 -0.2103  0.2429 -0.3479
 1570SOL    HW115929   4.440   8.611   2.231 -0.4460 -1.1716  0.9455
 1570SOL    HW215930   4.575   8.637   2.320  0.1247 -0.8260 -0.0114
 1571SOL     OW15931   1.620   0.842   1.197 -1.2930 -0.3196 -0.2370
 1571SOL    HW115932   1.536   0.836   1.143 -1.4134  0.3118 -0.1240
 1571SOL    HW215933   1.621   0.928   1.248  0.7274  1.0359 -2.4299
 1572SOL     OW15934   8.385   0.662   6.285 -0.3827 -0.6100  0.5584
 1572SOL    HW115935   8.354   0.626   6.197  0.0460 -0.3186  0.2830
 1572SOL    HW215936   8.450   0.598   6.327 -0.9933 -1.0004  0.9151
 1573SOL     OW15937   2.833   1.344   5.540  0.4440 -0.3490  0.1485
 1573SOL    HW115938   2.890   1.266   5.515  1.7833  1.2314 -1.8763
 1573SOL    HW215939   2.738   1.324   5.517  0.6880 -1.6567  0.2793
 1574SOL     OW15940   4.557   0.481   0.205  0.3584 -0.1174 -0.5913
 1574SOL    HW115941   4.621   0.413   0.241  0.7741 -0.3081 -1.6957
 1574SOL    HW215942   4.480   0.434   0.162  0.1967  0.1139 -0.5513
 1575SOL     OW15943   2.911   3.171   3.320 -0.2652  0.6797 -0.4201
 1575SOL    HW115944   2.975   3.246   3.336  0.1809  0.4457 -1.0838
 1575SOL    HW215945   2.825   3.190   3.367  0.5789  0.5894  1.1913
 1576SOL     OW15946   2.196   1.813   4.743  0.0467  1.1345 -0.2553
 1576SOL    HW115947   2.100   1.788   4.731  0.2611  0.8258 -1.4019
 1576SOL    HW215948   2.225   1.790   4.836 -0.1280 -1.6970 -0.8449
 1577SOL     OW15949   2.159   3.814   2.366 -0.1950  0.2367  0.2761
 1577SOL    HW115950   2.259   3.822   2.358 -0.0382 -1.5161  0.1769
 1577SOL    HW215951   2.133   3.718   2.352 -2.2191  1.2020 -3.1784
 1578SOL     OW15952   3.777   0.159   0.874 -0.0410 -0.0219 -0.0299
 1578SOL    HW115953   3.709   0.086   0.886  1.3859 -1.6684 -1.7028
 1578SOL    HW215954   3.747   0.222   0.804  0.0900 -0.6987 -0.7020
 1579SOL     OW15955   4.002   0.628   1.506 -0.2200 -0.5079  0.2200
 1579SOL    HW115956   4.042   0.540   1.480  1.4669  0.2683  0.1235
 1579SOL    HW215957   4.064   0.702   1.480 -1.6802  0.7286  0.1977
 1580SOL     OW15958   9.150   8.119   5.557  0.9176 -0.1128  0.0790
 1580SOL    HW115959   9.182   8.025   5.573  0.1237 -0.2252  1.0697
 1580SOL    HW215960   9.055   8.127   5.589  1.3111  1.2916  0.9391
 1581SOL     OW15961   0.429   9.062   4.103  0.4556  0.1041 -0.2075
 1581SOL    HW115962   0.340   9.071   4.057  0.1703  0.5895  0.4284
 1581SOL    HW215963   0.424   8.988   4.169  0.4785  0.2231 -0.0722
 1582SOL     OW15964   0.245   8.945   1.988  0.0842 -0.3080  0.2918
 1582SOL    HW115965   0.246   8.907   2.081 -0.6787  1.2409  0.9447
 1582SOL    HW215966   0.333   8.989   1.969 -0.7908  1.9828  1.3978
 1583SOL     OW15967   2.281   1.012   5.618  0.2147 -0.8341 -0.3497
 1583SOL    HW115968   2.282   0.964   5.530 -1.5970 -1.1242 -0.2194
 1583SOL    HW215969   2.218   0.966   5.680 -0.6011  1.0054  0.1922
 1584SOL     OW15970   1.417   3.717   0.873 -0.3618 -0.0014 -0.4534
 1584SOL    HW115971   1.335   3.725   0.817  0.6421 -0.7400 -2.0514
 1584SOL    HW215972   1.413   3.631   0.925 -0.7692  0.1530 -0.2225
 1585SOL     OW15973   3.665   3.084   1.189 -0.1142  0.0223  0.7850
 1585SOL    HW115974   3.638   2.989   1.171 -1.4563  0.4983  0.3146
 1585SOL    HW215975   3.761   3.096   1.164 -0.4341 -0.7432 -0.8591
 1586SOL     OW15976   2.717   8.376   3.842 -0.5368 -0.8135  0.3450
 1586SOL    HW115977   2.778   8.376   3.922 -0.7817  1.0584  0.5416
 1586SOL    HW215978   2.744   8.302   3.781  0.2522 -1.6873  1.7079
 1587SOL     OW15979   0.273   8.050   6.423  0.0773 -0.2997 -0.1034
 1587SOL    HW115980   0.333   8.002   6.487 -1.3957 -0.7549  0.9756
 1587SOL    HW215981   0.233   7.985   6.359  1.4493  0.1392 -1.4206
 1588SOL     OW15982   2.885   9.663   4.994  0.1147  0.3857  0.2889
 1588SOL    HW115983   2.867   9.679   4.897  0.3260  1.6809  0.4570
 1588SOL    HW215984   2.842   9.736   5.048  0.1805 -0.2144  1.1495
 1589SOL     OW15985   0.024   8.502   3.442  0.5627 -0.2355 -0.4161
 1589SOL    HW115986   0.004   8.446   3.362  0.0132 -0.5507 -0.0592
 1589SOL    HW215987   0.110   8.551   3.427  0.8739 -0.9077 -0.8685
 1590SOL     OW15988   4.568   2.674   2.964  0.0271 -0.6065  0.1159
 1590SOL    HW115989   4.564   2.666   2.864  0.1516 -0.1713  0.0736
 1590SOL    HW215990   4.543   2.767   2.991 -3.3528 -1.6155  0.7285
 1591SOL     OW15991   3.887   2.722   3.274  0.4434  0.0933 -0.3184
 1591SOL    HW115992   3.900   2.674   3.361 -2.2531  0.2219  0.1979
 1591SOL    HW215993   3.976   2.749   3.237  1.7041 -1.1706  1.7116
 1592SOL     OW15994   6.937   7.979   4.684  0.0304  0.3632 -0.1681
 1592SOL    HW115995   6.903   7.894   4.725  2.4657 -0.8515 -0.5711
 1592SOL    HW215996   6.896   8.057   4.731  0.0467 -1.0191  2.2082
 1593SOL     OW15997   7.778   1.253   5.272  0.0760 -0.2534  0.5036
 1593SOL    HW115998   7.836   1.221   5.347 -1.1710 -3.9907 -0.0153
 1593SOL    HW215999   7.834   1.273   5.192  1.2069  1.8805  1.7830
 1594SOL     OW16000   0.112   9.201   1.027 -0.2348  0.5216  0.4299
 1594SOL    HW116001   0.139   9.131   1.093 -0.5188  0.0289  0.0174
 1594SOL    HW216002   0.132   9.171   0.934 -1.3175  0.5401  0.1788
 1595SOL     OW16003   9.218   3.578   5.417 -0.3153 -0.3370  0.5014
 1595SOL    HW116004   9.316   3.583   5.399 -0.2732  1.7476  1.1497
 1595SOL    HW216005   9.173   3.531   5.342  1.0196 -0.0288 -0.5124
 1596SOL     OW16006   4.862   6.166   1.987  0.1258  0.5048  0.5413
 1596SOL    HW116007   4.846   6.098   1.916  1.3255  1.4524 -0.6673
 1596SOL    HW216008   4.902   6.122   2.067  0.2096 -0.3313  0.0464
 1597SOL     OW16009   0.806   0.913   5.855  0.0138  0.1401  0.4984
 1597SOL    HW116010   0.871   0.837   5.848  1.0486  0.8934  1.6320
 1597SOL    HW216011   0.775   0.922   5.949 -1.6720 -0.1311 -0.0095
 1598SOL     OW16012   6.261   9.749   4.298 -0.6156 -0.0810 -0.3344
 1598SOL    HW116013   6.202   9.734   4.377 -0.2960 -0.2732 -0.1306
 1598SOL    HW216014   6.341   9.802   4.326 -1.4011  1.4447 -0.9033
 1599SOL     OW16015   1.987   0.087   1.961  0.1431 -0.5495  0.2391
 1599SOL    HW116016   2.029   0.177   1.960 -0.2947 -0.3332  0.8191
 1599SOL    HW216017   1.887   0.096   1.953 -0.1201 -0.8191  2.8514
 1600SOL     OW16018   1.439   8.706   5.281 -0.3535 -0.1111  0.3529
 1600SOL    HW116019   1.526   8.658   5.291  0.3010  1.0598  0.5070
 1600SOL    HW216020   1.430   8.739   5.187 -0.6994 -0.3597  0.2994
 1601SOL     OW16021   3.732   3.197   6.011 -0.2222  0.4242 -0.0777
 1601SOL    HW116022   3.691   3.286   6.030 -0.4463  0.2940  0.0562
 1601SOL    HW216023   3.666   3.125   6.032  1.0700  0.0660  3.0255
 1602SOL     OW16024   8.761   3.565   2.740 -0.0169 -0.1760  0.1118
 1602SOL    HW116025   8.693   3.592   2.809  1.2505 -2.1396  2.2161
 1602SOL    HW216026   8.726   3.488   2.688 -0.7087  0.8981 -1.0425
 1603SOL     OW16027   3.995   0.371   3.872  0.5422 -0.3522  0.3152
 1603SOL    HW116028   3.919   0.336   3.817  0.6147 -0.8308  0.5187
 1603SOL    HW216029   3.991   0.332   3.964  0.6553  0.1330  0.5292
 1604SOL     OW16030   8.113   9.307   0.465  0.0868  0.0710  0.1968
 1604SOL    HW116031   8.086   9.369   0.391 -0.8217  0.8556  1.1695
 1604SOL    HW216032   8.073   9.339   0.551  0.9616 -0.9524  0.9910
 1605SOL     OW16033   4.452   1.291   0.992 -0.2356  0.0813  0.4447
 1605SOL    HW116034   4.408   1.201   0.995  0.0357 -0.0478  0.5692
 1605SOL    HW216035   4.470   1.316   0.897 -0.9952  0.3365  0.3705
 1606SOL     OW16036   4.221   3.065   4.378 -0.4976 -0.2983  0.1166
 1606SOL    HW116037   4.239   3.115   4.463  1.8498  0.0400 -0.5305
 1606SOL    HW216038   4.272   3.107   4.303  0.0021 -2.4991 -0.8267
 1607SOL     OW16039   7.080   8.472   2.259  0.4279  0.3589  0.2012
 1607SOL    HW116040   7.049   8.550   2.204 -0.7468  1.6284  2.6065
 1607SOL    HW216041   7.180   8.471   2.260  0.4636  0.5924 -1.5587
 1608SOL     OW16042   3.605   1.883   6.453 -0.1796 -0.2783  0.0475
 1608SOL    HW116043   3.647   1.971   6.473  2.1156 -1.1870 -0.6615
 1608SOL    HW216044   3.543   1.892   6.375 -0.7470  0.9164  0.6334
 1609SOL     OW16045   0.702   6.581   3.239  0.0270 -0.3864 -0.2957
 1609SOL    HW116046   0.778   6.539   3.288  0.4935 -0.7211 -1.3005
 1609SOL    HW216047   0.714   6.680   3.237  0.7574 -0.4809 -0.9666
 1610SOL     OW16048   8.452   6.600   3.013 -0.4423  0.1810 -0.2689
 1610SOL    HW116049   8.460   6.511   3.057  1.1320  0.6851  0.4794
 1610SOL    HW216050   8.496   6.596   2.923  2.2291  0.9955  0.9642
 1611SOL     OW16051   5.125   8.583   2.746  0.1069  0.3826 -0.0252
 1611SOL    HW116052   5.217   8.543   2.744  0.2060  0.6525 -1.0269
 1611SOL    HW216053   5.057   8.512   2.730 -0.0437 -0.2969  3.1955
 1612SOL     OW16054   9.945   4.772   0.868  0.1088 -0.0765 -0.2123
 1612SOL    HW116055  10.015   4.723   0.920  0.5951 -1.1049 -1.7908
 1612SOL    HW216056   9.981   4.861   0.840 -0.6545  1.0993  2.3701
 1613SOL     OW16057   7.465   3.035   4.044 -0.3758 -0.1263  0.2550
 1613SOL    HW116058   7.454   2.938   4.022  1.4857 -0.4924  0.8210
 1613SOL    HW216059   7.421   3.090   3.973  0.8537 -1.3417 -1.5016
 1614SOL     OW16060   8.649   8.547   4.819 -0.0631 -0.1912  0.0662
 1614SOL    HW116061   8.601   8.617   4.766 -0.6363  0.0593  0.9143
 1614SOL    HW216062   8.629   8.559   4.916  1.5842 -0.1939  0.4086
 1615SOL     OW16063   9.023   8.702   3.991  0.4069  0.2417  0.4005
 1615SOL    HW116064   9.103   8.761   4.007  0.2144  0.4426  0.6248
 1615SOL    HW216065   8.994   8.661   4.077  1.1910 -1.0225  0.0642
 1616SOL     OW16066   5.621   2.117   4.413 -0.0537 -0.7825  0.6601
 1616SOL    HW116067   5.640   2.157   4.502  0.7427  1.2542 -0.3870
 1616SOL    HW216068   5.679   2.036   4.400  2.4785  0.9952  0.5748
 1617SOL     OW16069   1.643   6.745   5.566 -0.6396 -0.1435  0.1592
 1617SOL    HW116070   1.568   6.692   5.525 -2.1637  2.6050 -0.7546
 1617SOL    HW216071   1.619   6.842   5.565  2.2899  0.6376  1.3433
 1618SOL     OW16072   8.591   3.012   1.919  0.7219 -0.4474  0.1775
 1618SOL    HW116073   8.590   2.917   1.951 -1.1737 -0.8711 -1.0508
 1618SOL    HW216074   8.679   3.054   1.943  1.4809 -2.4121  0.9957
 1619SOL     OW16075   9.007   4.097   2.988 -0.0389  0.2074  0.2935
 1619SOL    HW116076   9.070   4.124   2.915 -0.0392  2.1150  0.9672
 1619SOL    HW216077   8.916   4.083   2.950 -0.4463  2.9565  0.1757
 1620SOL     OW16078   2.765   0.884   5.285  0.2411  0.3712 -0.0193
 1620SOL    HW116079   2.724   0.954   5.227 -1.8769 -0.7776  0.0546
 1620SOL    HW216080   2.698   0.812   5.304  1.9439 -0.9838  1.0543
 1621SOL     OW16081   1.507   6.275   1.347 -0.0867 -0.0539  0.1221
 1621SOL    HW116082   1.421   6.316   1.380  0.3146 -0.1171  1.2621
 1621SOL    HW216083   1.545   6.216   1.419  0.3079 -0.9490 -0.8211
 1622SOL     OW16084   0.256   6.388   2.663  0.1386  0.0458  0.4988
 1622SOL    HW116085   0.258   6.290   2.643  0.3190  0.8119 -3.7042
 1622SOL    HW216086   0.347   6.427   2.649 -0.3256  1.1065  0.3723
 1623SOL     OW16087   9.659   4.066   4.379 -0.1121 -0.1049 -0.3906
 1623SOL    HW116088   9.577   4.009   4.393  1.3315 -1.7335  1.7015
 1623SOL    HW216089   9.735   4.009   4.351  1.0913  0.9341  0.6804
 1624SOL     OW16090   8.314   2.498   6.126 -0.4426  0.3554  0.2874
 1624SOL    HW116091   8.368   2.493   6.210  0.4967 -1.0690 -0.3825
 1624SOL    HW216092   8.218   2.515   6.150 -0.1430  0.2812  1.6212
 1625SOL     OW16093   6.555   8.514   5.316  0.0171 -0.2596 -0.0145
 1625SOL    HW116094   6.461   8.510   5.349 -0.1116 -0.4151 -0.3971
 1625SOL    HW216095   6.589   8.608   5.321 -0.8910  0.1989 -1.9265
 1626SOL     OW16096   0.840   6.811   0.490  0.3190  0.4869 -0.1064
 1626SOL    HW116097   0.898   6.734   0.462 -0.7139  0.1208 -1.2955
 1626SOL    HW216098   0.892   6.871   0.551  1.7568 -0.1322 -0.6832
 1627SOL     OW16099   8.115   2.109   4.359 -0.1420 -0.1787  0.0362
 1627SOL    HW116100   8.127   2.206   4.334  1.3213 -0.5789 -0.9355
 1627SOL    HW216101   8.018   2.086   4.358 -0.7554  1.9768  3.0715
 1628SOL     OW16102   4.451   3.637   5.260  0.8002  0.6019 -0.0978
 1628SOL    HW116103   4.386   3.632   5.185  1.1596 -1.4978 -0.2983
 1628SOL    HW216104   4.404   3.622   5.347  0.9794 -0.8911 -0.2404
 1629SOL     OW16105   3.353   1.462   2.786  0.1298  0.2294  0.5946
 1629SOL    HW116106   3.288   1.429   2.854 -1.6936  1.2200 -0.6208
 1629SOL    HW216107   3.360   1.562   2.793  1.5659  0.1301  0.7391
 1630SOL     OW16108   2.875   7.667   0.571 -0.2362  0.1877 -0.0376
 1630SOL    HW116109   2.912   7.757   0.597  0.0676  0.6318 -1.9543
 1630SOL    HW216110   2.798   7.679   0.510 -0.4898 -0.8593  0.0657
 1631SOL     OW16111   7.450   9.724   2.796  0.9567 -0.7742 -0.4930
 1631SOL    HW116112   7.369   9.683   2.838  1.5352 -2.5224 -1.0196
 1631SOL    HW216113   7.432   9.743   2.700 -0.2308  2.8450  0.3968
 1632SOL     OW16114   8.327   2.386   0.094  0.3953 -0.0330 -0.0756
 1632SOL    HW116115   8.384   2.409   0.015  0.5659 -0.8335 -0.1911
 1632SOL    HW216116   8.286   2.469   0.131 -0.7006  0.2193 -1.7861
 1633SOL     OW16117   3.447   2.166   5.666 -0.1892 -0.1381  0.1490
 1633SOL    HW116118   3.398   2.235   5.612 -1.0167 -1.1432 -0.3947
 1633SOL    HW216119   3.384   2.122   5.729 -0.1040 -1.7329 -0.8461
 1634SOL     OW16120   0.143   0.687   3.713  0.0645 -0.9546 -0.1596
 1634SOL    HW116121   0.145   0.784   3.736  0.7222 -1.1276  0.5035
 1634SOL    HW216122   0.089   0.674   3.630 -0.9573 -0.1509  0.3663
 1635SOL     OW16123   7.908   4.700   1.355  0.1908  0.4841  0.1179
 1635SOL    HW116124   7.891   4.798   1.357  1.9125  0.8139 -0.3706
 1635SOL    HW216125   7.822   4.651   1.362 -0.8515  2.0451 -1.4231
 1636SOL     OW16126   1.947   1.666   1.954 -0.2292  0.0016  0.0790
 1636SOL    HW116127   1.892   1.672   2.037 -0.9519 -1.7359 -0.2665
 1636SOL    HW216128   1.891   1.634   1.878  0.8287 -0.0515 -0.6952
 1637SOL     OW16129   0.098   6.160   2.053  0.2792 -0.2689 -0.2826
 1637SOL    HW116130   0.072   6.104   2.132  0.6560 -0.9295 -0.6160
 1637SOL    HW216131   0.122   6.099   1.976  1.7210  0.3396 -0.3286
 1638SOL     OW16132   9.948   0.946   3.309 -0.0047  0.0955  0.1172
 1638SOL    HW116133   9.869   1.006   3.321 -0.7401 -1.1346  1.5402
 1638SOL    HW216134   9.940   0.897   3.223 -0.3083  0.6943 -0.1975
 1639SOL     OW16135   7.428   1.749   0.701 -0.2553 -0.2752 -0.2888
 1639SOL    HW116136   7.383   1.810   0.635  1.1291 -0.1004 -1.1002
 1639SOL    HW216137   7.521   1.781   0.717 -1.0479  0.6207  3.0046
 1640SOL     OW16138   9.074   6.559   5.929 -0.5587 -0.4593 -0.4975
 1640SOL    HW116139   8.974   6.566   5.928 -0.4907  0.5683  0.1323
 1640SOL    HW216140   9.111   6.589   5.841 -0.7921 -0.7161 -0.6824
 1641SOL     OW16141   6.309   4.625   0.476 -0.6498  0.2979 -0.0008
 1641SOL    HW116142   6.349   4.533   0.472 -0.8531  0.2063  0.0879
 1641SOL    HW216143   6.277   4.644   0.569 -0.2654  0.6055  0.0670
 1642SOL     OW16144   7.946   9.680   3.423  0.1356 -0.1520  0.5188
 1642SOL    HW116145   7.858   9.666   3.468  0.0347  0.0778  0.3981
 1642SOL    HW216146   7.939   9.652   3.327  0.5254 -1.2130  0.7974
 1643SOL     OW16147   2.595   1.444   5.207  0.7966 -0.5703 -0.5658
 1643SOL    HW116148   2.692   1.459   5.191  0.9521  2.4576  2.8017
 1643SOL    HW216149   2.579   1.422   5.303 -2.0116  0.5164 -0.7199
 1644SOL     OW16150   1.629   0.561   1.810 -0.5835  0.2283 -0.1117
 1644SOL    HW116151   1.582   0.612   1.738 -1.6596  1.0625  1.1471
 1644SOL    HW216152   1.569   0.553   1.890  1.3511  1.1228  1.4745
 1645SOL     OW16153   1.335   2.993   0.872 -0.1691  0.1199  0.5467
 1645SOL    HW116154   1.412   2.982   0.935  0.1894  0.9516  0.2545
 1645SOL    HW216155   1.363   3.051   0.795 -0.5877 -0.9120 -0.3978
 1646SOL     OW16156   6.089   8.564   4.542 -0.3324  0.0784  0.3617
 1646SOL    HW116157   6.066   8.467   4.533 -3.6919  0.7573  0.9383
 1646SOL    HW216158   6.050   8.600   4.626  0.1074  2.1500 -0.2857
 1647SOL     OW16159   3.263   5.085   5.460 -0.1395 -0.7240  0.5736
 1647SOL    HW116160   3.347   5.114   5.506  0.6276 -1.9874 -0.0159
 1647SOL    HW216161   3.258   4.985   5.459  0.5148 -0.7881 -3.1540
 1648SOL     OW16162   2.432   1.066   5.957  0.8974 -0.1303  0.0845
 1648SOL    HW116163   2.353   1.125   5.973  1.3752  0.7884 -0.9061
 1648SOL    HW216164   2.401   0.978   5.921  0.4593  0.9992 -2.3889
 1649SOL     OW16165   3.675   6.763   2.613 -0.5109 -0.2303  0.3996
 1649SOL    HW116166   3.724   6.678   2.597  1.1274  0.7514  0.1274
 1649SOL    HW216167   3.736   6.830   2.655 -1.7333  0.8708  0.4595
 1650SOL     OW16168   8.723   6.115   0.586  0.6581 -0.3144  0.4539
 1650SOL    HW116169   8.640   6.126   0.642  1.0215 -0.2796  0.9872
 1650SOL    HW216170   8.768   6.030   0.610  0.5569 -0.5324 -0.1304
 1651SOL     OW16171   0.657   3.846   1.112  0.2937 -0.1948 -0.0664
 1651SOL    HW116172   0.724   3.911   1.145  0.5541 -0.4553 -0.0829
 1651SOL    HW216173   0.587   3.894   1.059  0.2091  0.1375  0.3454
 1652SOL     OW16174   0.242   5.069   6.444  0.2531  0.7163 -0.0071
 1652SOL    HW116175   0.307   5.075   6.368  0.7181 -0.1292  0.3077
 1652SOL    HW216176   0.156   5.029   6.412 -0.0782  1.7520 -0.4057
 1653SOL     OW16177   9.404   9.156   3.608 -0.1568 -0.5660  0.1716
 1653SOL    HW116178   9.398   9.113   3.518 -3.3099  0.2052 -0.0521
 1653SOL    HW216179   9.396   9.087   3.680  1.3548 -1.0626 -0.1266
 1654SOL     OW16180   3.162   1.382   2.085  0.1556 -0.0854 -0.3415
 1654SOL    HW116181   3.144   1.289   2.116 -1.7789 -0.0489 -1.2681
 1654SOL    HW216182   3.251   1.385   2.039  0.1701 -1.5154 -0.4389
 1655SOL     OW16183   1.951   1.425   4.826  0.0695  0.0344 -0.1807
 1655SOL    HW116184   2.049   1.445   4.833  0.1222 -0.4717  0.5401
 1655SOL    HW216185   1.934   1.369   4.745  0.2414  0.9403 -0.8523
 1656SOL     OW16186   7.212   8.898   4.921  0.0061  0.0252  0.0284
 1656SOL    HW116187   7.247   8.990   4.939 -0.2251 -0.0815  1.0595
 1656SOL    HW216188   7.284   8.830   4.936  0.3742  0.0762 -1.3985
 1657SOL     OW16189   0.472   6.014   2.914  0.2134 -0.8280 -0.3771
 1657SOL    HW116190   0.548   6.074   2.891  0.9139 -1.2677  0.7278
 1657SOL    HW216191   0.507   5.930   2.956 -0.8211 -1.4620 -0.7513
 1658SOL     OW16192   3.779   5.765   2.054  0.3088 -0.3241  0.6596
 1658SOL    HW116193   3.825   5.677   2.060 -1.1510 -1.1395  0.2166
 1658SOL    HW216194   3.689   5.753   2.012  1.0070  1.7211 -1.5758
 1659SOL     OW16195   3.880   3.239   2.387 -0.0592 -0.0361  0.3291
 1659SOL    HW116196   3.870   3.242   2.486  1.3077  1.3724  0.4557
 1659SOL    HW216197   3.924   3.154   2.360 -1.0461 -0.7254  0.8555
 1660SOL     OW16198   8.642   3.416   4.300 -0.3008 -0.3117  0.4351
 1660SOL    HW116199   8.685   3.349   4.240  0.9208 -0.1425  1.1009
 1660SOL    HW216200   8.638   3.380   4.393 -2.2030 -0.5832  0.2735
 1661SOL     OW16201   1.641   6.003   1.877  0.3082  0.6475  0.5302
 1661SOL    HW116202   1.572   6.076   1.882 -0.8823 -0.3194 -1.1882
 1661SOL    HW216203   1.732   6.043   1.884 -0.3211  2.3521 -0.5346
 1662SOL     OW16204   1.953   8.639   5.213  0.4839 -0.3843  0.0897
 1662SOL    HW116205   2.001   8.649   5.126 -1.0555  1.0755 -0.6046
 1662SOL    HW216206   1.935   8.729   5.252 -0.4405 -0.9626  1.0285
 1663SOL     OW16207   7.526   5.600   6.264 -0.0497  0.1732 -0.3079
 1663SOL    HW116208   7.583   5.612   6.345 -0.4312  1.1609 -0.1810
 1663SOL    HW216209   7.434   5.573   6.292 -0.3165  1.0017 -0.3859
 1664SOL     OW16210   9.224   5.709   4.532 -0.1697 -0.6136 -0.1130
 1664SOL    HW116211   9.196   5.762   4.451 -0.9143 -0.6830  0.0882
 1664SOL    HW216212   9.192   5.615   4.523 -0.9712 -0.4178  0.6257
 1665SOL     OW16213   7.601   7.016   4.349 -0.0862  0.2962  0.5996
 1665SOL    HW116214   7.575   6.936   4.295  0.2724  0.0096  0.8591
 1665SOL    HW216215   7.645   6.988   4.434 -0.2837  0.7610  0.8589
 1666SOL     OW16216   1.346   6.184   5.627 -0.0867  0.2103  0.4300
 1666SOL    HW116217   1.348   6.086   5.647  0.0758  0.2006  0.3654
 1666SOL    HW216218   1.437   6.223   5.638  0.1445  0.0797 -0.9322
 1667SOL     OW16219   7.668   9.989   6.247 -0.4469 -0.1993  0.0466
 1667SOL    HW116220   7.645  10.051   6.172  1.2519  0.4667  0.0535
 1667SOL    HW216221   7.767   9.993   6.264 -0.7874 -0.4782  2.1940
 1668SOL     OW16222   9.944   4.139   3.111 -0.3547  0.1015  0.3127
 1668SOL    HW116223   9.877   4.094   3.170 -0.1511  1.3660  1.5322
 1668SOL    HW216224  10.011   4.187   3.167  0.6245  0.2291 -0.9340
 1669SOL     OW16225   3.153   9.372   1.035  0.4618 -0.2780  0.0334
 1669SOL    HW116226   3.181   9.462   1.004  2.4066 -0.6465  0.6465
 1669SOL    HW216227   3.058   9.375   1.067  0.4506  1.4826 -0.1470
 1670SOL     OW16228   5.113   5.064   3.225  0.2062 -0.5941  0.1348
 1670SOL    HW116229   5.143   4.978   3.183 -1.4205 -1.8865  1.5335
 1670SOL    HW216230   5.122   5.058   3.324  1.4786  1.4406  0.1719
 1671SOL     OW16231   1.610   0.629   5.434 -0.4499  0.1769  0.2047
 1671SOL    HW116232   1.660   0.709   5.466  0.5859 -0.3768  0.0129
 1671SOL    HW216233   1.670   0.573   5.376 -0.2839 -2.1007  2.4640
 1672SOL     OW16234   1.883   2.060   2.850 -0.1367 -0.1202 -0.2513
 1672SOL    HW116235   1.981   2.077   2.853 -0.0862  0.2266 -2.6739
 1672SOL    HW216236   1.853   2.022   2.937  2.2214 -0.6317  0.3764
 1673SOL     OW16237   9.996   6.459   6.437 -0.1688 -0.0994  0.7190
 1673SOL    HW116238   9.943   6.487   6.517 -2.4633 -0.8136 -0.5236
 1673SOL    HW216239  10.041   6.372   6.455 -2.4032 -1.3173  0.5012
 1674SOL     OW16240   0.072   3.943   5.298 -0.3664 -0.6158  0.7074
 1674SOL    HW116241   0.079   3.854   5.343  0.3015 -0.8717  0.1138
 1674SOL    HW216242   0.007   3.938   5.223 -0.2063 -0.6502  0.5703
 1675SOL     OW16243   1.202   7.880   2.199  0.2314  0.1496 -0.2429
 1675SOL    HW116244   1.270   7.832   2.254 -0.2266  0.2412  0.4181
 1675SOL    HW216245   1.110   7.850   2.226 -0.0129  0.5493 -0.6243
 1676SOL     OW16246   7.622   1.505   1.480 -0.0282  0.2810  0.2847
 1676SOL    HW116247   7.547   1.456   1.523 -0.2425  0.4397  0.0912
 1676SOL    HW216248   7.701   1.507   1.542 -0.2628  0.3233  0.5816
 1677SOL     OW16249   9.212   6.770   4.296  0.3285 -0.3968  0.4190
 1677SOL    HW116250   9.264   6.813   4.221 -0.1950  0.1405  0.3591
 1677SOL    HW216251   9.219   6.827   4.377 -1.2744  0.3735  0.0292
 1678SOL     OW16252   8.850   9.147   2.655  0.0570 -0.2343 -0.4360
 1678SOL    HW116253   8.792   9.068   2.674 -0.1387 -0.1807 -0.8206
 1678SOL    HW216254   8.905   9.130   2.574 -0.2425  0.1636 -0.7264
 1679SOL     OW16255   0.120   4.660   5.620 -0.6513 -0.0797  0.2096
 1679SOL    HW116256   0.098   4.586   5.683 -0.1904 -0.3161  0.0960
 1679SOL    HW216257   0.178   4.728   5.666 -1.3326  0.3691  0.4073
 1680SOL     OW16258   7.507   5.196   0.102 -0.2600 -0.0961  0.6244
 1680SOL    HW116259   7.538   5.160   0.014 -0.0419  0.3677  0.5099
 1680SOL    HW216260   7.450   5.277   0.087  0.8241  0.7406  0.9686
 1681SOL     OW16261   8.251   4.895   3.980 -0.5217 -0.1237 -0.1605
 1681SOL    HW116262   8.276   4.802   3.955 -1.3318 -0.9636  2.0437
 1681SOL    HW216263   8.307   4.960   3.928 -0.0085 -1.8108 -1.7719
 1682SOL     OW16264   1.360   9.727   1.233 -0.1126  0.4685 -0.4221
 1682SOL    HW116265   1.367   9.646   1.292 -0.4381 -0.5820 -1.8042
 1682SOL    HW216266   1.451   9.754   1.202 -0.1499 -0.3273 -1.2314
 1683SOL     OW16267   1.457   7.521   3.039 -0.5330  0.4433 -0.0119
 1683SOL    HW116268   1.410   7.580   2.973 -0.9717  0.1130 -0.0001
 1683SOL    HW216269   1.389   7.471   3.093 -0.2027  1.5818  1.4958
 1684SOL     OW16270   0.426   5.972   4.905 -0.3426  0.4179  0.5589
 1684SOL    HW116271   0.466   6.062   4.923  0.7461 -0.1024  0.7631
 1684SOL    HW216272   0.389   5.934   4.990 -0.9674  0.7495  0.4370
 1685SOL     OW16273   8.861   1.076   1.300 -0.2444  0.2764  0.3144
 1685SOL    HW116274   8.931   1.109   1.237 -0.9502  1.1444 -0.0257
 1685SOL    HW216275   8.776   1.059   1.249 -0.3618 -0.5045  0.7680
 1686SOL     OW16276   9.995   1.444   4.958  0.2298  0.5135  0.3985
 1686SOL    HW116277  10.086   1.481   4.943  0.0621  0.8559  0.2180
 1686SOL    HW216278   9.938   1.512   5.005 -1.1515  1.9048 -3.0989
 1687SOL     OW16279   4.161   7.866   3.647  0.2761  0.0908  0.6879
 1687SOL    HW116280   4.176   7.811   3.729  0.7447 -1.6262 -0.5390
 1687SOL    HW216281   4.237   7.855   3.584 -0.7088  0.3564 -0.5674
 1688SOL     OW16282   1.362   2.704   0.196  0.6381 -0.0187 -0.1251
 1688SOL    HW116283   1.262   2.711   0.191  0.6465  1.4914  1.2303
 1688SOL    HW216284   1.387   2.631   0.260  0.4041 -0.6253 -0.7232
 1689SOL     OW16285   7.648   9.600   1.398 -0.0172 -0.2963  0.4410
 1689SOL    HW116286   7.617   9.685   1.440  0.3462 -0.5223  1.1711
 1689SOL    HW216287   7.717   9.557   1.456  0.9368 -0.3009 -0.6782
 1690SOL     OW16288   0.945   1.136   3.763  0.4498  0.2126  0.4519
 1690SOL    HW116289   0.973   1.081   3.842 -1.4966 -1.3994  0.0382
 1690SOL    HW216290   0.882   1.084   3.706 -2.5783  3.3168  0.7893
 1691SOL     OW16291   3.638   2.766   4.836  0.6447  0.4400  0.3306
 1691SOL    HW116292   3.727   2.740   4.798 -0.5162 -2.1871 -0.7364
 1691SOL    HW216293   3.593   2.831   4.774  0.5653 -0.5339 -0.6360
 1692SOL     OW16294   4.631   6.762   1.728  0.0155  0.0986 -0.1012
 1692SOL    HW116295   4.697   6.830   1.760  0.5792  0.4901 -2.0389
 1692SOL    HW216296   4.662   6.670   1.752  0.6663  0.3628  0.0630
 1693SOL     OW16297   3.485   6.349   0.164  0.3339 -0.0526 -0.0988
 1693SOL    HW116298   3.554   6.307   0.224 -1.3476 -0.4058  1.6334
 1693SOL    HW216299   3.484   6.448   0.179  1.7711  0.1949 -1.5255
 1694SOL     OW16300   7.770   2.354   3.516 -0.1843 -0.4426  0.2195
 1694SOL    HW116301   7.836   2.413   3.469 -0.7381 -0.0707 -0.1022
 1694SOL    HW216302   7.683   2.356   3.466 -0.2450 -1.4248  0.2905
 1695SOL     OW16303   0.289   4.867   3.312  0.3002  0.0894 -0.4058
 1695SOL    HW116304   0.305   4.800   3.384 -0.5221  1.2164  0.8468
 1695SOL    HW216305   0.365   4.933   3.311  0.0776  0.3477 -0.2544
 1696SOL     OW16306   9.128   6.363   1.985  0.1189 -0.2733 -0.1798
 1696SOL    HW116307   9.030   6.369   1.966  0.9685  1.1631 -4.7842
 1696SOL    HW216308   9.153   6.432   2.052 -1.8885 -0.2722  0.6247
 1697SOL     OW16309   8.383   1.766   5.839  0.0817  0.2164 -0.0332
 1697SOL    HW116310   8.345   1.796   5.927 -0.5802 -1.5000  0.2762
 1697SOL    HW216311   8.440   1.685   5.854  1.0404  0.6896 -1.0158
 1698SOL     OW16312   4.401   3.123   3.469 -0.2287  0.5005 -0.2971
 1698SOL    HW116313   4.479   3.061   3.470  0.5566  1.4531  1.8434
 1698SOL    HW216314   4.318   3.074   3.495  0.0495 -0.0321 -0.4137
 1699SOL     OW16315   3.536   3.705   2.163 -0.5744 -0.8550  0.2737
 1699SOL    HW116316   3.621   3.676   2.207 -0.9999 -1.6065  0.6011
 1699SOL    HW216317   3.458   3.676   2.217 -1.0566 -0.3402 -0.1319
 1700SOL     OW16318   9.261   6.879   4.778  0.0600  0.0866 -0.7049
 1700SOL    HW116319   9.329   6.866   4.706 -0.1163 -2.7934 -0.4039
 1700SOL    HW216320   9.182   6.821   4.760 -0.0361 -0.5862  1.7272
 1701SOL     OW16321   2.818   8.194   2.329 -0.1557 -0.3594  0.6019
 1701SOL    HW116322   2.807   8.095   2.329  0.5135 -0.4387 -0.2191
 1701SOL    HW216323   2.811   8.229   2.422  0.5347 -1.2765  0.9982
 1702SOL     OW16324   3.225   9.042   6.497 -0.5194  0.1049 -0.4907
 1702SOL    HW116325   3.145   8.983   6.496 -0.1464 -0.5271  2.1900
 1702SOL    HW216326   3.236   9.086   6.408 -2.7884 -1.1868 -1.4380
 1703SOL     OW16327   0.208   0.054   2.743  0.3330 -0.3357 -0.3170
 1703SOL    HW116328   0.211   0.123   2.669 -1.2863  0.4800  0.3499
 1703SOL    HW216329   0.160  -0.027   2.711 -0.4928  0.0737 -0.1222
 1704SOL     OW16330   2.828   8.003   1.937  0.2450  0.4089 -0.3216
 1704SOL    HW116331   2.847   7.986   2.034  3.0773 -1.0446 -1.0608
 1704SOL    HW216332   2.874   8.088   1.908 -1.2101  1.2346 -0.2233
 1705SOL     OW16333   8.853   3.641   0.198  0.0439  0.1820  0.3082
 1705SOL    HW116334   8.820   3.570   0.135  0.3362 -0.2753  0.6626
 1705SOL    HW216335   8.919   3.699   0.152  0.3897 -0.2607  0.2457
 1706SOL     OW16336   0.782   3.622   1.954 -0.0199 -1.0632 -0.1733
 1706SOL    HW116337   0.873   3.665   1.961  0.4447 -1.9790 -0.5176
 1706SOL    HW216338   0.780   3.539   2.010 -1.5101  0.3636  1.9514
 1707SOL     OW16339   9.519   8.073   3.067  0.0836 -0.2747 -0.3321
 1707SOL    HW116340   9.556   8.164   3.049 -0.2065 -0.2603 -0.8417
 1707SOL    HW216341   9.543   8.046   3.161  0.4483  0.1890 -0.2896
 1708SOL     OW16342   8.225   2.577   3.369 -0.4775 -0.0228 -0.8367
 1708SOL    HW116343   8.260   2.622   3.286 -2.0649  1.8803 -0.4837
 1708SOL    HW216344   8.227   2.640   3.445 -0.0039 -1.4664  0.3780
 1709SOL     OW16345   7.658   0.790   0.923  0.1896  0.0850 -0.2503
 1709SOL    HW116346   7.706   0.703   0.935  0.4817  0.1693 -0.7964
 1709SOL    HW216347   7.606   0.788   0.837  0.5339  0.6018 -0.4753
 1710SOL     OW16348   3.874   1.779   1.048  0.1015  0.5684 -0.2307
 1710SOL    HW116349   3.872   1.736   0.958 -0.5953  1.2172 -0.5255
 1710SOL    HW216350   3.805   1.737   1.107  1.0421 -0.3518  0.2372
 1711SOL     OW16351   0.288   7.345   0.814  0.5483 -0.0191 -0.0391
 1711SOL    HW116352   0.199   7.349   0.858  0.9754  1.1781  0.7424
 1711SOL    HW216353   0.356   7.313   0.879  1.4668  3.2234  0.7026
 1712SOL     OW16354   6.188   8.852   4.955  0.2059 -0.3392  0.0764
 1712SOL    HW116355   6.252   8.812   4.890  2.2270  0.2777  1.6412
 1712SOL    HW216356   6.194   8.952   4.951 -0.5409 -0.2760  0.3607
 1713SOL     OW16357   9.246   1.160   5.227 -0.2722  0.4651 -0.1572
 1713SOL    HW116358   9.342   1.179   5.207 -0.3868  0.6660 -0.5360
 1713SOL    HW216359   9.190   1.237   5.194 -0.5984  0.1597 -0.3150
 1714SOL     OW16360   3.120   3.517   0.498 -0.1047  0.2679 -0.4481
 1714SOL    HW116361   3.062   3.533   0.578  0.9055  0.8067  0.1799
 1714SOL    HW216362   3.193   3.454   0.522 -0.0919  0.0373 -1.0897
 1715SOL     OW16363   5.835   9.546   4.883  0.0933  0.5834  0.3670
 1715SOL    HW116364   5.777   9.530   4.804 -1.0856  0.9334  1.1401
 1715SOL    HW216365   5.883   9.634   4.872 -0.8771  1.1394  0.5060
 1716SOL     OW16366   1.423   4.640   6.127 -0.3416 -0.0455  0.3419
 1716SOL    HW116367   1.419   4.549   6.086  1.0213  0.7469 -1.6018
 1716SOL    HW216368   1.342   4.693   6.099  0.4568  0.4065 -1.1624
 1717SOL     OW16369   4.272   8.758   2.729 -0.5900  0.4267 -0.5240
 1717SOL    HW116370   4.179   8.731   2.753  0.4585 -3.0872 -0.1202
 1717SOL    HW216371   4.290   8.736   2.633 -0.9886  3.5937 -1.3809
 1718SOL     OW16372   4.238   3.542   5.046 -0.4162  0.6040  0.1154
 1718SOL    HW116373   4.315   3.479   5.036 -0.9763  0.1127 -1.2513
 1718SOL    HW216374   4.157   3.490   5.077 -0.0695  1.2174  2.1511
 1719SOL     OW16375   1.460   0.608   5.955 -0.0866  0.4097 -0.1255
 1719SOL    HW116376   1.546   0.655   5.935  0.2330  0.0243  0.3303
 1719SOL    HW216377   1.425   0.637   6.044 -0.6098  0.8225 -0.4612
 1720SOL     OW16378   4.025   2.735   0.597  0.0365  0.0148  0.3240
 1720SOL    HW116379   4.021   2.649   0.546  1.6472  0.5522 -0.7802
 1720SOL    HW216380   4.027   2.716   0.695 -2.1015 -1.0892  0.1665
 1721SOL     OW16381   9.080   8.242   6.436  0.4142 -0.4119 -0.2304
 1721SOL    HW116382   9.145   8.167   6.448  1.2736  0.3735  0.1589
 1721SOL    HW216383   8.988   8.211   6.457  1.1885 -0.4724  3.4131
 1722SOL     OW16384   3.489   5.504   1.379 -0.0527 -0.1007 -0.5594
 1722SOL    HW116385   3.446   5.525   1.291  1.0271  0.0520 -1.0601
 1722SOL    HW216386   3.426   5.526   1.453 -0.8490  0.0777 -1.2800
 1723SOL     OW16387   8.977   5.279   4.991  0.2277 -0.5901 -0.7487
 1723SOL    HW116388   9.038   5.352   5.023 -0.5174  0.3280 -1.4160
 1723SOL    HW216389   8.955   5.218   5.068  0.1137  0.4117  0.0195
 1724SOL     OW16390   4.293   3.885   4.738 -0.2686 -0.2255 -0.0602
 1724SOL    HW116391   4.273   3.978   4.770  1.7650 -0.0617  0.8085
 1724SOL    HW216392   4.340   3.890   4.649  1.8089 -0.2952  1.0016
 1725SOL     OW16393   8.747   8.706   5.764 -0.3077  0.0615  0.4098
 1725SOL    HW116394   8.671   8.766   5.792 -0.3030 -0.8135  2.3728
 1725SOL    HW216395   8.762   8.637   5.834  2.0016 -0.0880 -0.2001
 1726SOL     OW16396   6.469   8.683   2.035  0.1051 -0.2275 -0.1901
 1726SOL    HW116397   6.401   8.748   2.000 -0.6664 -0.8764  0.1021
 1726SOL    HW216398   6.429   8.629   2.109  0.6125 -1.3126 -0.6972
 1727SOL     OW16399   4.348   7.986   5.896  0.1223  0.7691 -0.9141
 1727SOL    HW116400   4.270   7.951   5.845  1.5883 -1.0876 -1.9449
 1727SOL    HW216401   4.415   8.026   5.833  0.5861  1.1574 -0.1836
 1728SOL     OW16402   9.533   2.185   1.277 -0.6320  0.6610 -0.3849
 1728SOL    HW116403   9.532   2.285   1.288 -2.0437  0.7878 -1.4042
 1728SOL    HW216404   9.625   2.156   1.249  0.2142  1.4757  1.4807
 1729SOL     OW16405   4.824   4.199   3.767 -0.1641  0.4494 -0.0087
 1729SOL    HW116406   4.905   4.222   3.713 -0.3452 -1.9350 -1.3812
 1729SOL    HW216407   4.852   4.176   3.860  0.9194 -1.6486 -0.8244
 1730SOL     OW16408   5.066   2.974   5.458 -0.0747 -0.3119  0.5803
 1730SOL    HW116409   5.081   3.017   5.369  1.2102  0.9271  1.3641
 1730SOL    HW216410   4.987   2.913   5.453 -0.6970  0.5959 -1.1113
 1731SOL     OW16411   6.246   0.172   1.304 -0.4265  0.4945  0.6804
 1731SOL    HW116412   6.267   0.258   1.258 -0.7267  0.0719 -0.2574
 1731SOL    HW216413   6.171   0.126   1.257 -0.9342  0.1936  1.7702
 1732SOL     OW16414   7.798   3.335   3.606  0.6491  0.7916  0.3608
 1732SOL    HW116415   7.829   3.424   3.573  0.7346  0.6537  0.0626
 1732SOL    HW216416   7.715   3.346   3.659 -1.3547  0.6865 -2.6174
 1733SOL     OW16417   7.215   9.322   3.564 -0.9585 -0.2635 -0.2979
 1733SOL    HW116418   7.219   9.233   3.520 -2.0041 -0.1632 -0.6145
 1733SOL    HW216419   7.278   9.324   3.642  0.2035 -0.7484 -1.2171
 1734SOL     OW16420   9.114   9.754   1.008 -0.5636 -0.4699  0.6281
 1734SOL    HW116421   9.175   9.803   1.071 -2.0689  0.8414  1.1066
 1734SOL    HW216422   9.050   9.819   0.967 -1.2724 -1.7330 -0.2867
 1735SOL     OW16423   1.446   7.772   4.814  0.0341  0.3121 -0.3986
 1735SOL    HW116424   1.523   7.817   4.858 -0.3919  1.7699 -1.1058
 1735SOL    HW216425   1.427   7.686   4.860  0.9511  0.7876  0.9032
 1736SOL     OW16426   5.292   7.811   2.010 -0.4022 -0.0489 -0.1749
 1736SOL    HW116427   5.378   7.835   2.054 -0.3491 -0.6871  0.0834
 1736SOL    HW216428   5.262   7.721   2.043  0.0246 -0.8930 -1.9748
 1737SOL     OW16429   3.687   2.487   5.812  0.3441  0.3610  0.1682
 1737SOL    HW116430   3.779   2.492   5.851  0.5926  0.7250 -0.4518
 1737SOL    HW216431   3.693   2.482   5.712 -0.3275  1.5379  0.0584
 1738SOL     OW16432   4.688   5.142   0.197 -0.2436 -0.7864  0.0883
 1738SOL    HW116433   4.755   5.116   0.126 -1.4634 -1.2775 -0.9008
 1738SOL    HW216434   4.617   5.072   0.202 -1.6012  0.5569 -0.0533
 1739SOL     OW16435   0.494   6.346   6.701  0.0094  0.1266  0.0001
 1739SOL    HW116436   0.510   6.445   6.703  0.2736  0.0668  1.2415
 1739SOL    HW216437   0.577   6.298   6.732  0.2504 -0.5323 -1.6247
 1740SOL     OW16438   9.450   8.239   4.316  0.3084 -0.0863  0.1844
 1740SOL    HW116439   9.401   8.303   4.376  0.0697 -0.5174  0.4579
 1740SOL    HW216440   9.396   8.224   4.233 -0.5860 -1.4471  0.9954
 1741SOL     OW16441   5.365   0.785   5.648  0.0010 -0.2231 -0.6949
 1741SOL    HW116442   5.368   0.747   5.741 -1.0632 -1.8834 -1.3149
 1741SOL    HW216443   5.338   0.713   5.584  1.4616  0.7314 -2.4003
 1742SOL     OW16444   9.999   4.113   2.846 -0.6972  0.7519 -0.3775
 1742SOL    HW116445   9.929   4.086   2.780 -1.0015  1.1607 -0.2224
 1742SOL    HW216446   9.970   4.088   2.938  0.4017 -1.2079 -0.5351
 1743SOL     OW16447   1.538   7.674   4.531  0.7376  0.3376 -0.5233
 1743SOL    HW116448   1.555   7.632   4.442 -0.1620  2.1422 -1.5937
 1743SOL    HW216449   1.498   7.607   4.593 -0.3318 -0.4750 -2.0600
 1744SOL     OW16450   4.497   3.554   1.029  0.1445 -0.1506  0.5400
 1744SOL    HW116451   4.461   3.640   1.065  0.1388 -0.0468  0.2864
 1744SOL    HW216452   4.421   3.490   1.013  0.2792 -0.7215  2.0886
 1745SOL     OW16453   4.604   2.314   3.525  0.6632  0.1020  0.3906
 1745SOL    HW116454   4.575   2.317   3.430 -1.8793  1.6096  1.1870
 1745SOL    HW216455   4.623   2.406   3.557  1.5234 -0.3996  1.3829
 1746SOL     OW16456   3.934   7.001   2.012  0.0275 -0.2104 -0.3500
 1746SOL    HW116457   3.953   7.074   1.946  1.2769 -0.1329  0.0908
 1746SOL    HW216458   3.885   6.926   1.966  0.3458  0.1122 -1.2164
 1747SOL     OW16459   0.341   7.289   5.443  0.1378  0.3335 -0.2855
 1747SOL    HW116460   0.299   7.289   5.352 -1.2460  1.1002  0.3311
 1747SOL    HW216461   0.393   7.205   5.456 -1.0581 -0.5592 -1.1758
 1748SOL     OW16462   6.159   7.731   3.724  0.1674  0.5542  0.3037
 1748SOL    HW116463   6.088   7.754   3.657  0.8052  3.3142  0.5100
 1748SOL    HW216464   6.167   7.632   3.731 -1.1969  0.2068 -2.3260
 1749SOL     OW16465   2.025   9.811   0.370  0.3907 -0.1762 -0.0897
 1749SOL    HW116466   1.991   9.770   0.285 -2.0065  0.5098  0.4792
 1749SOL    HW216467   2.056   9.904   0.352 -2.1013  0.7341  0.1199
 1750SOL     OW16468   4.848   1.465   1.377  0.2542 -0.0351  0.3635
 1750SOL    HW116469   4.754   1.452   1.409 -0.3825  0.8736 -1.0960
 1750SOL    HW216470   4.891   1.538   1.429 -0.7519  1.3861 -0.7792
 1751SOL     OW16471   6.789   0.651   6.509 -0.5633 -0.2664 -0.1784
 1751SOL    HW116472   6.703   0.625   6.552 -0.9377 -0.8377 -1.2433
 1751SOL    HW216473   6.773   0.672   6.412 -0.0785  2.8562  0.3589
 1752SOL     OW16474   1.961   2.824   2.217 -0.1361  0.1317 -0.2748
 1752SOL    HW116475   2.021   2.764   2.163 -1.3403  0.2592 -1.8055
 1752SOL    HW216476   1.935   2.777   2.301  1.1271 -0.4103 -0.1717
 1753SOL     OW16477   4.723   8.167   4.621  0.3937  0.0732  0.5614
 1753SOL    HW116478   4.808   8.136   4.663 -0.1209 -1.2794  0.6451
 1753SOL    HW216479   4.645   8.129   4.672 -0.2465 -1.3670 -1.4129
 1754SOL     OW16480   4.524   4.435   3.934 -0.1324 -0.3361  0.2995
 1754SOL    HW116481   4.471   4.517   3.958 -0.0487  0.0307 -0.7300
 1754SOL    HW216482   4.549   4.439   3.837 -0.9130 -2.0320  0.0117
 1755SOL     OW16483   5.904   5.160   1.473  0.3592  0.1495  0.1400
 1755SOL    HW116484   5.866   5.085   1.526 -0.5637  0.6892  0.2439
 1755SOL    HW216485   5.833   5.199   1.414  0.6885  1.3169  0.5069
 1756SOL     OW16486   9.267   8.491   3.029  1.2048 -0.5572 -0.1860
 1756SOL    HW116487   9.328   8.479   3.107 -0.8312  0.7973  1.6444
 1756SOL    HW216488   9.192   8.425   3.033  0.9621 -0.3355 -0.8684
 1757SOL     OW16489   8.569   9.402   3.413  0.2863 -0.7427  0.4829
 1757SOL    HW116490   8.567   9.327   3.480  0.3199  1.1377  2.6504
 1757SOL    HW216491   8.603   9.485   3.458 -0.0349  0.6532 -1.8059
 1758SOL     OW16492   2.575   6.026   4.130  0.0086  0.4541 -0.5300
 1758SOL    HW116493   2.478   6.005   4.116 -0.1765  0.1978  1.0020
 1758SOL    HW216494   2.631   5.969   4.070 -0.7099 -0.7012 -0.1272
 1759SOL     OW16495   3.428   3.886   3.077  0.5989  0.2730  0.0713
 1759SOL    HW116496   3.386   3.821   3.014  1.9498 -0.1055 -0.4510
 1759SOL    HW216497   3.494   3.839   3.135  3.7460  1.5975 -2.2729
 1760SOL     OW16498   8.999   6.929   3.333  0.5030 -0.0336 -0.1585
 1760SOL    HW116499   8.907   6.967   3.321  0.2376 -0.8151 -0.5984
 1760SOL    HW216500   9.056   6.996   3.382 -0.8984 -0.3956  2.0746
 1761SOL     OW16501   7.475   2.423   5.168  0.1169  0.3568  0.8036
 1761SOL    HW116502   7.454   2.413   5.071 -2.2149  0.8719  1.2237
 1761SOL    HW216503   7.453   2.337   5.215  1.3203  0.0799  0.8838
 1762SOL     OW16504   7.243   9.655   4.644  0.1260  0.3991  0.1674
 1762SOL    HW116505   7.233   9.696   4.735 -1.9340  1.9324 -0.6937
 1762SOL    HW216506   7.154   9.622   4.612  0.6379  0.6793 -1.6378
 1763SOL     OW16507   7.635   4.048   0.653  0.0668 -1.1495  0.2629
 1763SOL    HW116508   7.593   3.996   0.579  0.0924 -0.8321  0.0221
 1763SOL    HW216509   7.729   4.071   0.629  0.0669 -1.0230  0.3809
 1764SOL     OW16510   8.443   9.634   3.606  0.1962 -0.3619 -0.3314
 1764SOL    HW116511   8.453   9.574   3.685 -1.6829 -0.2402  0.0119
 1764SOL    HW216512   8.530   9.681   3.588  1.2883 -2.1604  0.2025
 1765SOL     OW16513   9.724   3.148   4.236  0.1481  0.3915  0.0793
 1765SOL    HW116514   9.696   3.227   4.290 -1.9232 -0.2207 -0.0503
 1765SOL    HW216515   9.659   3.134   4.161  2.2367  0.4391 -1.8131
 1766SOL     OW16516   7.730   8.261   5.631  0.5047 -0.1632  0.3538
 1766SOL    HW116517   7.803   8.263   5.563  0.1783  0.0871  0.0124
 1766SOL    HW216518   7.681   8.348   5.630 -0.1993 -0.5592  0.1585
 1767SOL     OW16519   8.897   3.076   4.452  0.2910  0.0990 -0.1630
 1767SOL    HW116520   8.961   3.109   4.522 -0.8564 -0.6795  1.2795
 1767SOL    HW216521   8.899   2.976   4.450 -1.0018  0.0668  0.0024
 1768SOL     OW16522   6.005   1.037   5.774 -0.2178 -0.3537  0.5012
 1768SOL    HW116523   5.944   1.079   5.841 -0.5381 -0.7384  0.4561
 1768SOL    HW216524   5.957   0.962   5.728  0.1158 -0.3165  0.0897
 1769SOL     OW16525   7.142   1.171   6.567  0.5197 -0.5440 -0.0155
 1769SOL    HW116526   7.114   1.145   6.474  0.8997  0.3161 -0.3709
 1769SOL    HW216527   7.076   1.236   6.604  1.2746  0.4040 -0.3210
 1770SOL     OW16528   1.683   7.898   5.589 -0.3010 -0.4001  0.2194
 1770SOL    HW116529   1.657   7.803   5.573 -0.8714 -0.4447  1.3272
 1770SOL    HW216530   1.771   7.917   5.547 -0.8347 -1.0348 -1.2100
 1771SOL     OW16531   5.141   8.271   1.404  0.5327 -0.1025  0.6298
 1771SOL    HW116532   5.148   8.331   1.324 -1.3296  2.3916  2.2677
 1771SOL    HW216533   5.229   8.270   1.452  1.4138 -0.9516 -0.9513
 1772SOL     OW16534   2.886   9.666   4.224  0.4082  0.0872 -0.1965
 1772SOL    HW116535   2.934   9.754   4.223  0.7201 -0.0280  1.6220
 1772SOL    HW216536   2.788   9.682   4.229  0.1899  0.3234 -3.7682
 1773SOL     OW16537   1.960   1.034   0.352  0.2882  0.2614 -0.4724
 1773SOL    HW116538   1.871   0.996   0.327  0.1833  0.3474 -0.2294
 1773SOL    HW216539   1.948   1.104   0.423  0.7397 -1.0946  0.9565
 1774SOL     OW16540   2.235   0.142   3.084  0.3147  0.1930 -0.1726
 1774SOL    HW116541   2.204   0.200   3.159 -1.1580 -0.8375  0.0513
 1774SOL    HW216542   2.317   0.092   3.111  0.4754  0.7224  0.3140
 1775SOL     OW16543   4.402   0.477   5.167  0.0603 -0.0875  0.1338
 1775SOL    HW116544   4.322   0.530   5.194  0.2718  0.3531 -0.1001
 1775SOL    HW216545   4.466   0.473   5.244 -0.1112 -0.3005  0.2667
 1776SOL     OW16546   1.373   0.298   5.547 -0.0763  0.2429 -0.2561
 1776SOL    HW116547   1.380   0.366   5.620  2.9280  0.4910 -0.7222
 1776SOL    HW216548   1.359   0.344   5.460 -0.9462  0.1020 -0.1908
 1777SOL     OW16549   0.920   4.355   0.563 -0.0087 -0.1927 -0.7676
 1777SOL    HW116550   0.933   4.434   0.622 -1.5037  0.5864 -1.4475
 1777SOL    HW216551   0.908   4.272   0.618  0.5248  0.2205 -0.0350
 1778SOL     OW16552   3.521   0.860   2.292  0.4586 -0.6812  0.2087
 1778SOL    HW116553   3.489   0.926   2.360 -0.8425 -1.3587  0.2567
 1778SOL    HW216554   3.447   0.838   2.229  2.1905  1.5790 -2.8112
 1779SOL     OW16555   9.741   0.729   5.352  0.4002 -0.0624 -0.7958
 1779SOL    HW116556   9.762   0.803   5.415  0.4917  0.2713 -1.2131
 1779SOL    HW216557   9.677   0.761   5.282 -0.2971 -0.6449 -0.4271
 1780SOL     OW16558   3.112   7.280   4.592  0.8697 -0.2881 -0.4624
 1780SOL    HW116559   3.093   7.182   4.590  2.3538 -0.5664 -1.2174
 1780SOL    HW216560   3.025   7.330   4.596  0.0553 -1.6003 -1.3178
 1781SOL     OW16561   7.911   5.686   1.833  0.1367 -0.0552  0.0469
 1781SOL    HW116562   7.950   5.765   1.785 -0.4248 -0.0484 -0.4078
 1781SOL    HW216563   7.932   5.602   1.782  1.4550 -0.2943  0.9747
 1782SOL     OW16564   6.622   0.448   0.869 -0.0771 -0.2009 -0.3562
 1782SOL    HW116565   6.709   0.413   0.836  0.2082 -0.0518  0.2335
 1782SOL    HW216566   6.631   0.545   0.892  0.1743 -0.6726  1.6792
 1783SOL     OW16567   3.520   1.202   1.175 -0.3743  0.4326  0.8602
 1783SOL    HW116568   3.431   1.244   1.158 -1.5728 -2.9206 -1.8590
 1783SOL    HW216569   3.507   1.110   1.211  2.0887  0.8740  3.0020
 1784SOL     OW16570   4.605   0.967   5.462 -0.5974 -0.2955  0.1810
 1784SOL    HW116571   4.570   1.000   5.550 -0.9332  1.2277 -0.5151
 1784SOL    HW216572   4.528   0.950   5.400 -0.2511  0.8659 -0.5863
 1785SOL     OW16573   1.234   1.709   1.365  0.1012 -0.2426 -0.2349
 1785SOL    HW116574   1.332   1.704   1.348  0.4916  2.5721  0.8764
 1785SOL    HW216575   1.218   1.715   1.464 -1.2506 -1.5958 -0.3604
 1786SOL     OW16576   3.054   1.677   2.507  0.2007  0.2014  0.3557
 1786SOL    HW116577   3.116   1.753   2.527  1.3307 -0.5277 -0.3184
 1786SOL    HW216578   3.053   1.660   2.408 -1.0126  0.1487  0.3713
 1787SOL     OW16579   6.853   9.073   4.106  0.4697  0.0161 -0.2369
 1787SOL    HW116580   6.933   9.038   4.154  0.3877  0.3154  0.1229
 1787SOL    HW216581   6.779   9.007   4.112  0.2351  0.3486  0.6481
 1788SOL     OW16582   3.700   2.903   3.137 -0.3441  0.3704  0.2893
 1788SOL    HW116583   3.707   2.898   3.038 -1.0792  1.9904  0.1379
 1788SOL    HW216584   3.763   2.838   3.179 -1.5530 -1.8114 -1.2456
 1789SOL     OW16585   3.779   3.885   0.234  0.0504  0.1298  0.2697
 1789SOL    HW116586   3.690   3.901   0.193  0.4701  0.0181 -0.6837
 1789SOL    HW216587   3.819   3.973   0.261 -0.1879  0.2095  0.3643
 1790SOL     OW16588   9.065   7.847   0.678 -0.1035  0.0707 -0.4172
 1790SOL    HW116589   8.977   7.882   0.711 -0.7893 -0.5637 -1.5814
 1790SOL    HW216590   9.086   7.887   0.589  0.8647  0.3291 -0.0844
 1791SOL     OW16591   5.330   9.232   1.983 -0.1917 -0.0070  0.1285
 1791SOL    HW116592   5.303   9.140   2.012 -0.1544  0.5188  1.9274
 1791SOL    HW216593   5.407   9.227   1.920 -0.0009 -1.1981  0.4558
 1792SOL     OW16594   0.972   3.119   3.605 -0.2845  0.0162 -0.0829
 1792SOL    HW116595   0.982   3.034   3.657  0.2040 -0.8409 -1.5380
 1792SOL    HW216596   0.989   3.100   3.508 -1.5829  1.4922 -0.6149
 1793SOL     OW16597   0.559   0.474   5.317 -0.4654 -0.8077  0.6036
 1793SOL    HW116598   0.641   0.505   5.269 -1.2388  0.3526  0.0008
 1793SOL    HW216599   0.543   0.532   5.397 -1.0031 -0.7044  0.4183
 1794SOL     OW16600   2.962   7.066   2.805  0.2211 -0.4732  0.3576
 1794SOL    HW116601   2.892   7.117   2.855 -0.0292 -2.8067  2.5116
 1794SOL    HW216602   2.944   6.968   2.815  2.7488 -1.0627 -0.6282
 1795SOL     OW16603   1.558   5.654   4.564  0.3196 -0.5353  1.0638
 1795SOL    HW116604   1.518   5.571   4.525 -1.7633  0.6753  0.5209
 1795SOL    HW216605   1.610   5.703   4.494 -1.4187  0.4089  0.4056
 1796SOL     OW16606   7.359   8.100   3.970  0.1623 -0.4785 -0.3938
 1796SOL    HW116607   7.352   8.049   3.884  1.1983 -0.4304 -0.5171
 1796SOL    HW216608   7.288   8.069   4.033 -0.5646 -0.5650 -1.2377
 1797SOL     OW16609   0.044   7.985   3.597 -0.4648  0.0664  0.0579
 1797SOL    HW116610   0.062   8.082   3.609 -0.2633 -0.1687  1.7912
 1797SOL    HW216611   0.128   7.938   3.572 -0.4798  0.2820 -0.3947
 1798SOL     OW16612   8.110   0.513   4.579  0.4053 -0.1608 -0.2409
 1798SOL    HW116613   8.144   0.598   4.539  0.0573 -0.1227 -0.4534
 1798SOL    HW216614   8.011   0.510   4.572  0.4243 -0.6277 -0.3109
 1799SOL     OW16615   7.936   3.391   6.177 -0.1220  0.0003 -0.2567
 1799SOL    HW116616   8.012   3.370   6.116 -2.1117 -0.6791 -2.5677
 1799SOL    HW216617   7.852   3.352   6.141 -1.4639 -0.0303  2.7116
 1800SOL     OW16618   3.673   0.749   2.936 -0.3389  0.0874  0.1293
 1800SOL    HW116619   3.646   0.682   2.867  0.3096 -1.0174  0.9239
 1800SOL    HW216620   3.603   0.821   2.942 -2.7163 -2.2154  1.5036
 1801SOL     OW16621   1.520   8.718   2.939  0.0216  0.1381 -0.1659
 1801SOL    HW116622   1.435   8.768   2.923 -1.1871 -1.9896 -0.5939
 1801SOL    HW216623   1.551   8.677   2.853 -0.1195 -1.5529  0.5786
 1802SOL     OW16624   9.399   0.997   2.984  0.2579  0.2171 -0.0445
 1802SOL    HW116625   9.390   1.011   2.886  0.2741 -0.8629 -0.2026
 1802SOL    HW216626   9.418   1.085   3.029  0.1849  0.7181 -0.9919
 1803SOL     OW16627   8.100   0.286   1.087 -0.3208  0.3706  0.1755
 1803SOL    HW116628   8.108   0.384   1.105 -0.9533  0.6213 -0.8936
 1803SOL    HW216629   8.136   0.265   0.996 -1.7560 -0.1163 -0.2945
 1804SOL     OW16630   1.015   2.039   6.104 -0.0563 -0.3761  0.5066
 1804SOL    HW116631   0.917   2.033   6.086  0.3292 -1.9753 -1.1854
 1804SOL    HW216632   1.065   2.047   6.017  1.2427  1.7069  1.4031
 1805SOL     OW16633   8.039   0.368   3.113  0.1735 -0.1581  0.2514
 1805SOL    HW116634   8.030   0.444   3.177 -0.9214 -1.5742  1.8460
 1805SOL    HW216635   8.032   0.282   3.163 -1.5133 -1.3177 -1.8783
 1806SOL     OW16636   1.881   6.806   3.449  0.4061  0.2735  0.1126
 1806SOL    HW116637   1.904   6.733   3.513 -4.1770  0.6426  2.4056
 1806SOL    HW216638   1.786   6.795   3.420  0.7797  3.2380 -2.4217
 1807SOL     OW16639   2.239   9.305   2.626 -0.5224  0.0186 -0.5388
 1807SOL    HW116640   2.232   9.383   2.563  0.4312 -0.3708 -1.1411
 1807SOL    HW216641   2.220   9.335   2.719  0.0628  1.0228 -0.7398
 1808SOL     OW16642   1.227   7.090   3.458 -0.4887  0.3284 -0.3935
 1808SOL    HW116643   1.235   7.004   3.509  0.0033  1.2476  1.1162
 1808SOL    HW216644   1.141   7.091   3.408 -0.1283 -1.3886 -1.0945
 1809SOL     OW16645   2.735   7.914   6.401 -0.6718 -0.0179  0.3605
 1809SOL    HW116646   2.808   7.884   6.463  0.1785  1.2844  0.0170
 1809SOL    HW216647   2.669   7.969   6.451 -0.8969 -0.3780  0.4627
 1810SOL     OW16648   9.917   1.154   5.500  0.5135 -0.4233 -0.1654
 1810SOL    HW116649   9.976   1.139   5.421  1.5385  2.0252  0.0992
 1810SOL    HW216650   9.970   1.143   5.584 -0.0011 -0.6069  0.1398
 1811SOL     OW16651   3.193   2.107   2.783  0.1774  0.0374  0.4727
 1811SOL    HW116652   3.151   2.062   2.861  1.7053 -0.7435  0.8682
 1811SOL    HW216653   3.174   2.205   2.786  0.6846  0.1008  2.1345
 1812SOL     OW16654   9.525   8.899   5.864  0.1136  0.4326 -0.0191
 1812SOL    HW116655   9.617   8.859   5.860  0.1902  0.5221  0.6733
 1812SOL    HW216656   9.530   8.997   5.843  0.0556  0.2705 -0.8087
 1813SOL     OW16657   1.165   2.658   1.841  0.5373 -0.1179 -0.5786
 1813SOL    HW116658   1.138   2.700   1.928  1.9517  0.4914 -0.4237
 1813SOL    HW216659   1.091   2.667   1.775 -0.0471  0.5667  0.1630
 1814SOL     OW16660   3.325   9.116   3.966  0.6421  0.2246 -0.4641
 1814SOL    HW116661   3.390   9.050   3.929  1.0493  0.5435 -0.3215
 1814SOL    HW216662   3.326   9.199   3.910  0.2254  0.1644 -0.5675
 1815SOL     OW16663   2.664   0.239   1.315  0.1847 -0.4587 -0.3916
 1815SOL    HW116664   2.609   0.224   1.233  0.3968 -0.1668 -0.5894
 1815SOL    HW216665   2.744   0.179   1.312  0.5201 -0.0080 -0.7076
 1816SOL     OW16666   1.425   8.119   6.486  0.3735  0.5703  0.1027
 1816SOL    HW116667   1.496   8.089   6.422 -0.4643 -1.0045 -0.1315
 1816SOL    HW216668   1.409   8.217   6.475  2.9670  1.0795  0.6494
 1817SOL     OW16669   7.905   0.201   3.666  0.0866 -0.3180  0.2741
 1817SOL    HW116670   7.921   0.224   3.762  0.4111 -2.2031  0.7030
 1817SOL    HW216671   7.963   0.123   3.641 -1.0677 -0.7638 -1.0477
 1818SOL     OW16672   9.081   2.644   4.955  0.5912  0.1713 -0.6105
 1818SOL    HW116673   9.069   2.591   5.039 -3.3115  0.4526 -0.8964
 1818SOL    HW216674   9.129   2.589   4.887 -1.1335 -2.1029 -0.0361
 1819SOL     OW16675   9.977   6.063   2.677 -0.3358 -0.1736 -0.0777
 1819SOL    HW116676   9.927   6.048   2.763 -0.5215  0.3997 -0.0884
 1819SOL    HW216677  10.075   6.051   2.694 -0.3751 -0.1094  0.2065
 1820SOL     OW16678   2.709   2.976   0.554 -0.0670 -0.0788 -0.1265
 1820SOL    HW116679   2.726   2.916   0.476  3.5920 -1.7214  1.8257
 1820SOL    HW216680   2.783   2.968   0.620 -2.6166  1.8928  3.1826
 1821SOL     OW16681   9.814   4.298   3.827  0.2066 -0.1305 -0.3325
 1821SOL    HW116682   9.803   4.248   3.913  2.3752 -2.2734 -1.2372
 1821SOL    HW216683   9.732   4.285   3.770  0.1071 -1.4391  0.0810
 1822SOL     OW16684   8.426   1.425   1.412  0.2475  0.3593  0.1005
 1822SOL    HW116685   8.417   1.428   1.511 -1.1083 -1.0836  0.0282
 1822SOL    HW216686   8.385   1.342   1.376  0.4224  1.0151 -1.7192
 1823SOL     OW16687   1.980   4.952   2.306  0.1297 -0.2308 -0.0577
 1823SOL    HW116688   2.061   5.007   2.287  0.1137  0.1486  0.9368
 1823SOL    HW216689   2.006   4.871   2.357  0.1362 -1.1027 -1.4199
 1824SOL     OW16690   9.272   5.095   5.422  0.3090 -0.4569 -0.4891
 1824SOL    HW116691   9.249   4.999   5.433 -0.5063 -0.3094 -0.8788
 1824SOL    HW216692   9.296   5.134   5.511  0.3372 -0.9394 -0.2843
 1825SOL     OW16693   0.803   9.620   4.747 -0.5208 -0.1022  0.3042
 1825SOL    HW116694   0.836   9.615   4.841  1.1328  0.9778 -0.1980
 1825SOL    HW216695   0.747   9.540   4.727 -0.6058 -0.5102  2.0953
 1826SOL     OW16696   5.562   9.621   1.641 -0.3110 -0.3174  0.2736
 1826SOL    HW116697   5.637   9.645   1.578 -0.3198 -1.5808 -0.2317
 1826SOL    HW216698   5.549   9.695   1.707  1.8282 -0.3687  0.7921
 1827SOL     OW16699   8.035   1.627   5.414 -0.7822  0.5779  0.0898
 1827SOL    HW116700   8.077   1.623   5.505  0.0066  1.2712 -0.2419
 1827SOL    HW216701   8.075   1.557   5.356  0.2937  1.5511 -0.3726
 1828SOL     OW16702   1.231   1.908   1.599  0.1626 -0.1821  0.2503
 1828SOL    HW116703   1.261   1.979   1.663 -2.8340  1.0976  0.2848
 1828SOL    HW216704   1.201   1.950   1.514 -2.0198 -1.3297  0.4195
 1829SOL     OW16705   3.829   3.990   3.133 -0.3202 -0.6233 -0.5315
 1829SOL    HW116706   3.809   3.899   3.170  0.9327 -1.1361 -1.0666
 1829SOL    HW216707   3.804   3.993   3.036 -0.5236 -0.3436 -0.4705
 1830SOL     OW16708   0.487   4.491   1.423 -0.4707  0.7060  0.0744
 1830SOL    HW116709   0.566   4.547   1.447 -2.7216  3.7525  0.7750
 1830SOL    HW216710   0.456   4.515   1.331 -1.6766  0.9062  0.5222
 1831SOL     OW16711   3.066   0.587   5.547 -0.3403  0.4820  0.3469
 1831SOL    HW116712   3.136   0.564   5.614  0.2284 -0.3214 -0.5131
 1831SOL    HW216713   3.005   0.509   5.533 -0.7241  0.7935  0.2613
 1832SOL     OW16714   3.034   4.894   2.632  0.3600  0.5750 -0.1611
 1832SOL    HW116715   3.113   4.851   2.675  0.6261  1.0014 -0.2231
 1832SOL    HW216716   2.988   4.954   2.698 -0.3323 -0.2226  0.0905
 1833SOL     OW16717   2.449   0.340   2.765  0.1206  0.7957 -0.1747
 1833SOL    HW116718   2.496   0.391   2.838  1.5095  0.7752 -1.0305
 1833SOL    HW216719   2.351   0.339   2.783  0.4370  0.7751  1.7106
 1834SOL     OW16720   4.834   1.919   1.101 -0.2414 -0.1201  0.2969
 1834SOL    HW116721   4.906   1.943   1.166 -0.0200  0.4239 -0.1405
 1834SOL    HW216722   4.782   1.842   1.136 -0.8200  0.8523  1.6362
 1835SOL     OW16723   9.708   2.598   2.044  0.4190 -0.2093  0.5269
 1835SOL    HW116724   9.723   2.680   1.990  0.2993 -0.3935  0.2148
 1835SOL    HW216725   9.676   2.623   2.136 -0.3009  0.0625  0.1995
 1836SOL     OW16726   9.176   1.872   3.198 -0.0384  0.1633 -0.4713
 1836SOL    HW116727   9.248   1.939   3.217  0.7219  0.1357 -3.0916
 1836SOL    HW216728   9.119   1.905   3.123 -1.1663 -1.0299 -0.1497
 1837SOL     OW16729   9.740   2.486   2.675 -0.0989 -0.1614 -0.1398
 1837SOL    HW116730   9.715   2.528   2.588  1.8200  0.1342 -0.5677
 1837SOL    HW216731   9.761   2.389   2.661 -0.2524 -0.2304  0.0930
 1838SOL     OW16732   3.363   5.586   2.327  0.1540 -0.2282  0.2484
 1838SOL    HW116733   3.372   5.626   2.418 -0.8967  0.2755  0.1438
 1838SOL    HW216734   3.269   5.598   2.295  0.5005 -0.4506 -0.8773
 1839SOL     OW16735   5.325   8.308   2.136 -0.0455 -0.5279 -0.3400
 1839SOL    HW116736   5.334   8.312   2.236 -0.0275  1.3288 -0.3959
 1839SOL    HW216737   5.269   8.385   2.105 -0.5850 -1.4634 -1.7122
 1840SOL     OW16738   1.572   3.995   2.635  0.5107 -0.0386  0.4445
 1840SOL    HW116739   1.540   3.992   2.541  2.1133  0.6647 -0.1328
 1840SOL    HW216740   1.604   4.087   2.656  1.4913 -0.5510  1.2307
 1841SOL     OW16741   3.236   0.685   3.538  0.2679 -0.2150  0.2779
 1841SOL    HW116742   3.196   0.775   3.555  3.4117  1.0246  1.3748
 1841SOL    HW216743   3.211   0.623   3.613 -0.8150  0.0857  0.1806
 1842SOL     OW16744   8.139   3.580   0.338  0.5117  0.8066  0.9681
 1842SOL    HW116745   8.148   3.663   0.282  0.0404  0.8325  0.9231
 1842SOL    HW216746   8.045   3.575   0.373  0.0012 -0.6693 -0.5506
 1843SOL     OW16747   4.037   2.360   2.232  0.2990 -0.2380  0.0379
 1843SOL    HW116748   4.120   2.359   2.176  1.6363  0.7530  1.9215
 1843SOL    HW216749   4.047   2.295   2.308 -0.7694 -0.3210  0.1173
 1844SOL     OW16750   1.152   5.037   4.262  0.0177 -0.0104 -0.2478
 1844SOL    HW116751   1.232   5.085   4.224  0.3282 -0.8588 -0.6911
 1844SOL    HW216752   1.174   5.006   4.355  0.7204 -1.4615 -0.8816
 1845SOL     OW16753   1.224   1.301   6.676  0.9267  0.0507 -0.0556
 1845SOL    HW116754   1.148   1.360   6.647 -0.2653 -1.3590  0.1135
 1845SOL    HW216755   1.206   1.207   6.647  2.8929 -0.2008 -0.4913
 1846SOL     OW16756   3.467   4.617   4.545 -0.5607  0.0884  0.1341
 1846SOL    HW116757   3.423   4.631   4.634  1.2640 -0.3801  1.1232
 1846SOL    HW216758   3.401   4.638   4.472 -2.3487 -0.3783  1.5769
 1847SOL     OW16759   0.711   8.853   5.728  1.0196 -0.2586 -0.4606
 1847SOL    HW116760   0.664   8.913   5.663  0.2699  0.6257  0.8801
 1847SOL    HW216761   0.804   8.886   5.742  0.7482  0.3524 -0.0645
 1848SOL     OW16762   3.647   5.745   1.316  0.5926  0.1809  0.9025
 1848SOL    HW116763   3.739   5.731   1.352  0.7837 -1.5396 -0.2270
 1848SOL    HW216764   3.592   5.663   1.334  0.1283  0.0730 -1.0002
 1849SOL     OW16765   9.462   8.552   1.272 -0.2948  0.1183  0.1268
 1849SOL    HW116766   9.547   8.568   1.321 -1.0542  1.6396  0.9686
 1849SOL    HW216767   9.385   8.563   1.334 -1.0928 -2.0166 -0.4363
 1850SOL     OW16768   0.543   2.340   5.003  0.5140 -0.3175  0.0734
 1850SOL    HW116769   0.498   2.367   5.088 -0.5035  1.2052 -0.9294
 1850SOL    HW216770   0.642   2.345   5.015  0.3868  3.4827  0.0869
 1851SOL     OW16771   1.004   9.192   2.941  0.3970 -0.3794  0.2225
 1851SOL    HW116772   1.087   9.169   2.889  0.2684  1.7784 -0.9934
 1851SOL    HW216773   0.990   9.291   2.939 -1.5751 -0.6122  1.4177
 1852SOL     OW16774   8.018   8.727   2.446 -0.0584 -0.0240 -0.1478
 1852SOL    HW116775   8.074   8.644   2.457 -1.4399 -1.1560 -1.4051
 1852SOL    HW216776   8.004   8.769   2.536  1.2502 -0.7406  0.4169
 1853SOL     OW16777   4.408   3.668   4.271 -0.1614 -0.1630  0.3715
 1853SOL    HW116778   4.401   3.663   4.171 -1.5826  0.4945  0.4222
 1853SOL    HW216779   4.503   3.686   4.297  0.4758 -1.7476 -0.7976
 1854SOL     OW16780   7.673   1.265   6.015  0.1482  0.3548  0.6448
 1854SOL    HW116781   7.639   1.174   5.990  0.2156  0.1592  1.2535
 1854SOL    HW216782   7.650   1.284   6.110 -0.7303  1.3876  0.2233
 1855SOL     OW16783   0.364   5.615   2.773 -0.2994  0.1351  0.2962
 1855SOL    HW116784   0.352   5.532   2.719  1.5913  0.1967 -0.2476
 1855SOL    HW216785   0.461   5.635   2.784 -0.7038  1.7413  1.2566
 1856SOL     OW16786   6.782   2.180   2.866  0.0279  0.0624 -0.4807
 1856SOL    HW116787   6.707   2.158   2.930 -0.2375 -0.0898 -0.8419
 1856SOL    HW216788   6.744   2.194   2.775  0.3408  0.8589 -0.4912
 1857SOL     OW16789   5.468   7.947   3.238 -0.7272 -0.3249 -0.3776
 1857SOL    HW116790   5.450   8.045   3.248 -2.0796 -0.7204  1.3185
 1857SOL    HW216791   5.478   7.906   3.328  0.5501 -1.6410 -1.0945
 1858SOL     OW16792   3.818   0.661   4.057  0.0543 -0.0483  0.2832
 1858SOL    HW116793   3.784   0.570   4.033  1.1589 -1.1244  2.6174
 1858SOL    HW216794   3.794   0.726   3.985 -1.2995 -2.0557 -1.1209
 1859SOL     OW16795   2.109   0.363   2.010  0.1793  0.0968 -0.2227
 1859SOL    HW116796   2.045   0.424   2.058  0.8499  1.3812 -0.9255
 1859SOL    HW216797   2.190   0.349   2.066 -0.1917 -0.5773  0.1576
 1860SOL     OW16798   8.233   4.290   0.562 -0.2420  0.1205  0.3754
 1860SOL    HW116799   8.185   4.235   0.631 -0.3283 -0.7406 -0.3527
 1860SOL    HW216800   8.246   4.235   0.480  2.1369  0.2928  0.6047
 1861SOL     OW16801   4.034   3.328   3.132  0.5927  0.2082  0.5150
 1861SOL    HW116802   4.127   3.363   3.122  1.3064 -1.7537 -0.0126
 1861SOL    HW216803   4.035   3.246   3.189 -0.8756  0.3967  0.8357
 1862SOL     OW16804   3.804   2.486   3.752  0.2620  0.1864  0.2917
 1862SOL    HW116805   3.779   2.583   3.752  1.0179  0.3904 -1.0719
 1862SOL    HW216806   3.729   2.432   3.714 -0.4848  0.1213  1.7833
 1863SOL     OW16807   2.783   0.236   3.955 -0.1006  0.1839 -0.5030
 1863SOL    HW116808   2.778   0.334   3.975 -2.3477 -0.1148  0.5763
 1863SOL    HW216809   2.737   0.218   3.868 -0.4922 -0.0189 -0.2573
 1864SOL     OW16810   0.748   7.346   5.493  0.1059  0.6058 -0.4864
 1864SOL    HW116811   0.761   7.261   5.544 -0.2024  1.0785  0.3969
 1864SOL    HW216812   0.837   7.390   5.479  0.2044  0.4133 -0.4617
 1865SOL     OW16813   4.455   1.760   5.778  0.3609 -0.0032  0.4475
 1865SOL    HW116814   4.412   1.691   5.835  0.8225 -1.0416 -0.4386
 1865SOL    HW216815   4.387   1.800   5.716 -0.1010  0.9992  1.5796
 1866SOL     OW16816   3.512   1.956   3.308  0.2216  0.1863 -0.0412
 1866SOL    HW116817   3.512   1.885   3.238  1.2990  1.7604 -1.7066
 1866SOL    HW216818   3.550   2.040   3.270  0.6269  1.1623  2.3898
 1867SOL     OW16819   9.303   1.682   2.567  0.3935 -0.5795  0.5221
 1867SOL    HW116820   9.335   1.741   2.642 -0.5786 -0.4368  0.8376
 1867SOL    HW216821   9.302   1.734   2.482  1.6938 -0.8001  0.3661
 1868SOL     OW16822   8.110   3.382   2.875 -0.2655 -0.3646 -0.2869
 1868SOL    HW116823   8.074   3.464   2.832 -0.7325 -0.4876 -0.1296
 1868SOL    HW216824   8.035   3.323   2.903  0.0522 -0.5789  0.1260
 1869SOL     OW16825   5.498   9.825   4.637  0.3196  0.5372 -0.6661
 1869SOL    HW116826   5.533   9.916   4.661  0.0681  1.5308 -3.8316
 1869SOL    HW216827   5.502   9.813   4.538 -1.4596 -2.1886 -0.4567
 1870SOL     OW16828   2.006   9.481   5.549  0.0061  0.2201 -0.0036
 1870SOL    HW116829   2.045   9.573   5.556  1.9013 -0.6945  2.1431
 1870SOL    HW216830   2.080   9.415   5.538 -1.1562 -1.3166  1.2146
 1871SOL     OW16831   0.783   6.964   4.190 -0.2456 -0.7342  0.1186
 1871SOL    HW116832   0.746   7.052   4.221  0.0631 -0.0002 -1.5566
 1871SOL    HW216833   0.862   6.940   4.246 -1.2629 -0.7342  1.6100
 1872SOL     OW16834   1.444   9.589   3.020 -0.0037 -0.1934  0.1872
 1872SOL    HW116835   1.500   9.586   3.103 -0.0713 -2.0649  0.1812
 1872SOL    HW216836   1.360   9.537   3.035 -0.6435  0.6087 -0.6053
 1873SOL     OW16837   5.740   9.828   4.950  0.5582 -0.0813  0.1377
 1873SOL    HW116838   5.727   9.925   4.929  0.9126  0.2039  1.1969
 1873SOL    HW216839   5.657   9.778   4.927  0.6257  0.3550 -1.0977
 1874SOL     OW16840   3.411   4.919   0.993 -0.0463 -0.3836 -0.1843
 1874SOL    HW116841   3.316   4.888   0.990 -1.1766  2.9600 -1.0434
 1874SOL    HW216842   3.463   4.873   0.920 -0.6949 -2.9739  0.9149
 1875SOL     OW16843   0.018   1.515   4.373 -0.1079 -0.5400 -0.0840
 1875SOL    HW116844  -0.029   1.455   4.438 -0.5833 -0.7248 -0.5991
 1875SOL    HW216845   0.052   1.461   4.296  2.1453 -0.6375  0.9300
 1876SOL     OW16846   2.396   5.086   0.367  0.0223  0.4339  0.6332
 1876SOL    HW116847   2.496   5.094   0.359  0.1927 -1.4104  0.5889
 1876SOL    HW216848   2.363   5.019   0.301 -0.9663 -0.5926  2.1216
 1877SOL     OW16849   2.886   6.272   0.719 -0.8809 -0.0243  0.0989
 1877SOL    HW116850   2.867   6.228   0.631  1.3686  1.0134 -0.9603
 1877SOL    HW216851   2.950   6.216   0.772 -1.2173 -0.0177  0.5135
 1878SOL     OW16852   7.965   4.238   2.845 -0.1036 -0.4648 -0.1998
 1878SOL    HW116853   7.875   4.275   2.819 -0.2272 -0.1876  0.6254
 1878SOL    HW216854   7.975   4.242   2.944  0.6698 -0.8580 -0.2643
 1879SOL     OW16855   1.080   3.952   2.032  0.1060 -0.5733 -0.1326
 1879SOL    HW116856   1.016   3.997   2.094 -1.6345 -1.5194 -1.2311
 1879SOL    HW216857   1.088   4.005   1.947  2.7353  0.8984  0.9547
 1880SOL     OW16858   7.449   7.621   5.697  0.5813 -0.8574  0.2341
 1880SOL    HW116859   7.522   7.584   5.754  1.1724 -0.6217 -0.3729
 1880SOL    HW216860   7.432   7.716   5.723  0.0325 -1.1123  0.8259
 1881SOL     OW16861   4.334   1.021   4.408  0.7496 -0.3205 -0.0716
 1881SOL    HW116862   4.275   0.993   4.333  0.5576  1.5078 -0.6205
 1881SOL    HW216863   4.429   1.019   4.378  0.8539 -1.6659  0.3104
 1882SOL     OW16864   9.000   6.782   1.860 -0.5060 -0.8266 -0.5758
 1882SOL    HW116865   8.920   6.835   1.887  0.7285  0.2197  1.0865
 1882SOL    HW216866   8.999   6.694   1.908 -1.3479 -1.3797 -1.5857
 1883SOL     OW16867   4.988   8.727   2.222 -0.1393  0.2160  1.0119
 1883SOL    HW116868   5.070   8.784   2.218  0.4168 -0.7156 -2.8275
 1883SOL    HW216869   5.013   8.631   2.216 -1.3914 -0.2088  2.2871
 1884SOL     OW16870   8.306   7.941   5.091  0.5557 -0.1179 -0.3552
 1884SOL    HW116871   8.222   7.996   5.090 -0.4071 -1.3085  3.9713
 1884SOL    HW216872   8.291   7.857   5.038 -0.8997 -0.1747  0.1258
 1885SOL     OW16873   2.806   5.392   1.660 -0.4502  0.2114 -0.6718
 1885SOL    HW116874   2.787   5.377   1.563 -1.6156 -1.1420 -0.2447
 1885SOL    HW216875   2.800   5.306   1.709  0.7335  0.7861  0.5224
 1886SOL     OW16876   3.169   3.936   0.797 -0.7291 -0.0780  0.2574
 1886SOL    HW116877   3.076   3.966   0.780 -0.3340  1.7363  1.1554
 1886SOL    HW216878   3.214   4.000   0.859  1.0948 -0.9482 -0.1184
 1887SOL     OW16879   6.561   4.444   6.681  0.3941 -0.0722  0.1539
 1887SOL    HW116880   6.484   4.479   6.628  1.7912  0.2710 -1.7251
 1887SOL    HW216881   6.539   4.445   6.778 -2.2339 -0.6956 -0.4023
 1888SOL     OW16882   8.650   2.902   3.878  0.5802  0.1954 -0.2509
 1888SOL    HW116883   8.572   2.890   3.939  1.1175  1.2423  0.6549
 1888SOL    HW216884   8.735   2.897   3.931  1.2858 -3.4422 -1.5632
 1889SOL     OW16885   0.584   6.407   2.644  0.3556  0.1502  0.3229
 1889SOL    HW116886   0.673   6.438   2.677  1.2174 -1.2056 -0.6882
 1889SOL    HW216887   0.571   6.437   2.550 -0.4296  0.6761  0.5941
 1890SOL     OW16888   7.163   0.882   2.777  0.0340  0.3554  0.2278
 1890SOL    HW116889   7.253   0.837   2.785  0.9558  2.1514  0.1681
 1890SOL    HW216890   7.158   0.957   2.844 -1.6604 -0.1149  0.6376
 1891SOL     OW16891   2.184   4.141   1.535  0.2307  0.1233 -0.5017
 1891SOL    HW116892   2.176   4.227   1.586  1.2908 -0.8724  1.3912
 1891SOL    HW216893   2.279   4.108   1.540 -0.5152 -1.9853  0.1579
 1892SOL     OW16894   2.792   5.168   2.451 -0.6133 -0.5114  0.5508
 1892SOL    HW116895   2.762   5.215   2.533 -0.1903  1.4509 -0.3983
 1892SOL    HW216896   2.890   5.149   2.457 -0.9503 -2.0846  1.3092
 1893SOL     OW16897   2.134   4.927   6.130  0.2973  0.0650  0.0166
 1893SOL    HW116898   2.035   4.940   6.142  0.5019  0.4772  1.2897
 1893SOL    HW216899   2.166   4.857   6.194  0.9290  0.2839 -0.0614
 1894SOL     OW16900   2.096   6.202   0.034  0.2295  0.2413  0.3141
 1894SOL    HW116901   2.007   6.184   0.076 -0.2985  0.3190 -0.7501
 1894SOL    HW216902   2.151   6.258   0.096  0.2485 -1.3496  1.7834
 1895SOL     OW16903   9.661   8.756   5.197 -0.1264  0.2025 -0.4207
 1895SOL    HW116904   9.648   8.785   5.292 -2.3073 -0.0977 -0.6021
 1895SOL    HW216905   9.599   8.681   5.176  0.0710  0.5140 -2.2026
 1896SOL     OW16906   8.861   0.433   5.737  0.1709  0.2600 -0.2664
 1896SOL    HW116907   8.870   0.528   5.709 -0.4849  0.6165  0.7053
 1896SOL    HW216908   8.951   0.396   5.760  0.3481  0.8202 -0.0560
 1897SOL     OW16909   8.612   5.268   2.262 -0.6613 -0.1291  0.1170
 1897SOL    HW116910   8.687   5.216   2.221  0.5517  1.2312  0.5642
 1897SOL    HW216911   8.609   5.359   2.221 -1.0512  0.3706  1.2302
 1898SOL     OW16912   0.674   5.779   5.289 -0.1667 -0.5729  0.1159
 1898SOL    HW116913   0.691   5.696   5.341  1.1649 -0.1244  0.4059
 1898SOL    HW216914   0.582   5.813   5.309 -0.7673 -2.0412 -0.1065
 1899SOL     OW16915   1.224   9.604   3.807 -0.0578 -0.1719  0.1152
 1899SOL    HW116916   1.195   9.512   3.782 -0.6586  0.3599 -1.1535
 1899SOL    HW216917   1.154   9.645   3.866 -1.0430  0.4264 -1.4429
 1900SOL     OW16918   3.546   3.315   1.315 -0.1964  0.1155  0.8151
 1900SOL    HW116919   3.580   3.228   1.277 -0.3447  0.1419  0.6222
 1900SOL    HW216920   3.493   3.296   1.397 -1.1152 -0.0661  0.1821
 1901SOL     OW16921   4.192   6.633   1.468 -0.2212 -0.0166 -0.3954
 1901SOL    HW116922   4.173   6.713   1.411 -1.6816  0.9334  1.3721
 1901SOL    HW216923   4.269   6.654   1.529  0.5606 -0.6122 -1.1611
 1902SOL     OW16924   1.884   0.806   3.491 -0.0110  0.0642 -0.3496
 1902SOL    HW116925   1.820   0.736   3.460  0.1651  0.7266 -2.2306
 1902SOL    HW216926   1.976   0.782   3.463  0.0071  1.2069 -1.3251
 1903SOL     OW16927   3.325   8.681   5.427  0.4238  0.0677  0.0874
 1903SOL    HW116928   3.394   8.748   5.400  2.3150 -1.3385  1.3182
 1903SOL    HW216929   3.311   8.616   5.353  2.2928 -1.1313  0.7654
 1904SOL     OW16930   1.910   2.172   3.998 -0.2040  0.3447  0.0138
 1904SOL    HW116931   1.982   2.119   3.952 -0.3907  0.6685 -0.6436
 1904SOL    HW216932   1.921   2.163   4.097 -0.1882 -0.8760 -0.0923
 1905SOL     OW16933   4.434   8.786   1.532  0.1402 -0.1998  0.2349
 1905SOL    HW116934   4.480   8.854   1.589 -0.5701  0.8147 -0.3915
 1905SOL    HW216935   4.335   8.796   1.541  0.0195 -0.0686 -1.1228
 1906SOL     OW16936   8.763   3.381   1.526 -0.4214  0.4785  0.5886
 1906SOL    HW116937   8.664   3.382   1.512 -0.4354  0.0994  0.6548
 1906SOL    HW216938   8.805   3.452   1.470 -0.5046 -0.8544 -1.2283
 1907SOL     OW16939   7.648   8.632   3.104  0.5751 -0.4538  0.3759
 1907SOL    HW116940   7.719   8.561   3.108  0.5594 -0.4618  0.5154
 1907SOL    HW216941   7.623   8.648   3.009  3.0397  1.8096  0.0616
 1908SOL     OW16942   1.338   9.035   5.383 -0.4796 -0.0304  0.0673
 1908SOL    HW116943   1.368   8.962   5.443 -2.8264 -0.6266  0.5859
 1908SOL    HW216944   1.314   8.997   5.293 -0.7392  0.2497  0.0160
 1909SOL     OW16945   6.276   9.796   3.426 -0.1278  0.4985  0.1278
 1909SOL    HW116946   6.211   9.837   3.490  0.0377  0.0029  0.6159
 1909SOL    HW216947   6.370   9.817   3.455 -0.0556  1.3659 -0.6733
 1910SOL     OW16948   2.167   0.622   3.761  0.2466  0.2176 -0.0567
 1910SOL    HW116949   2.243   0.559   3.744 -0.0743 -0.5576  1.2454
 1910SOL    HW216950   2.083   0.582   3.726  0.2958  0.6916 -0.7290
 1911SOL     OW16951   5.373   0.918   5.241  0.6315 -0.8269 -0.3026
 1911SOL    HW116952   5.276   0.940   5.227  0.3654 -1.7401  0.0875
 1911SOL    HW216953   5.404   0.857   5.168  1.2349  0.3806 -1.0877
 1912SOL     OW16954   3.251   4.828   5.563 -0.2577 -0.4020 -0.6523
 1912SOL    HW116955   3.169   4.771   5.568  0.2042 -0.9644  1.0978
 1912SOL    HW216956   3.331   4.769   5.552 -0.1147  0.1798 -2.9282
 1913SOL     OW16957   6.061   0.422   4.252 -0.1763 -0.6573  0.4762
 1913SOL    HW116958   6.114   0.344   4.219 -1.2214 -1.1819  0.0257
 1913SOL    HW216959   6.110   0.507   4.231  1.0978 -1.1977  1.2277
 1914SOL     OW16960   1.136   3.086   1.638 -0.3122  0.3030  0.1285
 1914SOL    HW116961   1.214   3.148   1.630 -1.9437  2.5645  1.0147
 1914SOL    HW216962   1.136   3.022   1.561  1.4030  1.4285 -0.8415
 1915SOL     OW16963   3.986   4.132   2.926  0.2771  0.0877 -0.1196
 1915SOL    HW116964   3.963   4.202   2.994 -1.5837 -0.1910 -0.4355
 1915SOL    HW216965   3.905   4.112   2.870  1.0562 -1.6436 -0.6520
 1916SOL     OW16966   8.929   5.249   0.896  0.1113  0.0875  0.1626
 1916SOL    HW116967   8.957   5.171   0.839  0.6255 -0.2808  0.8983
 1916SOL    HW216968   8.977   5.331   0.865 -0.2831  0.0722 -0.4956
 1917SOL     OW16969   0.747   6.195   5.742 -0.0266  0.1229  0.5134
 1917SOL    HW116970   0.820   6.130   5.722 -0.0900  0.2072 -0.0127
 1917SOL    HW216971   0.666   6.146   5.774  0.7477  0.1499  2.5363
 1918SOL     OW16972   0.217   1.429   3.416  0.1238  0.5351 -0.5252
 1918SOL    HW116973   0.249   1.502   3.476 -0.5694 -1.0082  1.8138
 1918SOL    HW216974   0.273   1.347   3.430 -1.5020 -0.5575 -0.2234
 1919SOL     OW16975   2.026   9.949   5.172  0.4721 -0.2043 -0.0765
 1919SOL    HW116976   2.048   9.948   5.270 -2.3061  1.0313  0.6112
 1919SOL    HW216977   2.054  10.037   5.133  1.8948 -0.8289 -0.4915
 1920SOL     OW16978   5.444   8.749   4.343  0.0362 -0.1591 -0.3019
 1920SOL    HW116979   5.530   8.722   4.386  1.3809  1.6582 -1.7971
 1920SOL    HW216980   5.442   8.715   4.249 -0.5940  0.4069 -0.4950
 1921SOL     OW16981   0.897   7.081   5.007 -0.5785  0.1198  0.8093
 1921SOL    HW116982   0.969   7.106   5.072 -0.8856 -0.3770  1.3476
 1921SOL    HW216983   0.813   7.130   5.031 -0.6145  0.1472  0.6228
 1922SOL     OW16984   1.932   8.254   4.740 -0.1760 -0.3548  0.5277
 1922SOL    HW116985   2.027   8.255   4.709 -0.5679 -1.2646 -0.7534
 1922SOL    HW216986   1.903   8.159   4.753 -1.4927 -0.1719 -0.9663
 1923SOL     OW16987   2.957   7.363   4.996  0.1613 -0.2194  0.3998
 1923SOL    HW116988   2.924   7.428   4.928  0.5825  0.2811  0.6712
 1923SOL    HW216989   2.901   7.280   4.992  1.7433 -1.2090 -2.2487
 1924SOL     OW16990   0.464   5.548   0.606 -0.2099  0.5134  0.0471
 1924SOL    HW116991   0.510   5.468   0.644 -0.2796 -0.1181 -1.1768
 1924SOL    HW216992   0.405   5.520   0.530  0.6534  1.8572 -1.1609
 1925SOL     OW16993   9.905   7.114   0.871 -0.6638 -0.1909 -0.5323
 1925SOL    HW116994   9.806   7.108   0.855 -0.7643 -2.2426  0.6497
 1925SOL    HW216995   9.952   7.045   0.816 -0.1842 -1.1130  0.9840
 1926SOL     OW16996   3.781   9.901   5.557 -0.1832  0.2263  0.7242
 1926SOL    HW116997   3.841   9.976   5.587  1.4024 -0.3432 -0.9230
 1926SOL    HW216998   3.828   9.814   5.570 -0.5512 -0.2143 -0.7879
 1927SOL     OW16999   1.140   2.029   3.626  0.0452 -0.1411  0.2291
 1927SOL    HW117000   1.126   2.104   3.561 -0.6265 -0.3573  0.1165
 1927SOL    HW217001   1.237   2.017   3.643  0.3430 -1.1709 -2.0103
 1928SOL     OW17002   1.595   9.527   4.711  0.1553  0.2055 -0.1161
 1928SOL    HW117003   1.568   9.447   4.764  2.2398 -0.8045 -0.5133
 1928SOL    HW217004   1.625   9.600   4.773  0.8865 -0.3278  0.1658
 1929SOL     OW17005   3.641   4.408   1.327 -0.1079  0.4495 -0.5361
 1929SOL    HW117006   3.657   4.466   1.247  1.6804  0.2635 -0.3392
 1929SOL    HW217007   3.609   4.318   1.297  0.6644  0.3431 -1.0562
 1930SOL     OW17008   0.243   2.677   3.942  0.2825 -0.5081 -0.1602
 1930SOL    HW117009   0.152   2.693   3.980  1.1233 -0.0609  1.6690
 1930SOL    HW217010   0.272   2.757   3.889 -0.6339 -0.9050 -1.2976
 1931SOL     OW17011   9.961   1.354   3.543  0.3276 -0.3312 -0.8440
 1931SOL    HW117012  10.042   1.373   3.487  0.4160 -1.0584 -0.9800
 1931SOL    HW217013   9.912   1.276   3.505  0.5756 -1.0493  0.2640
 1932SOL     OW17014   3.772   4.121   6.691  0.3486  0.5471 -0.4120
 1932SOL    HW117015   3.796   4.064   6.613  0.3104  0.6732 -0.5168
 1932SOL    HW217016   3.831   4.099   6.768  1.5745  1.6515 -1.0117
 1933SOL     OW17017   0.015   6.162   3.155 -0.1872 -0.4350 -0.4442
 1933SOL    HW117018   0.111   6.149   3.131  0.3615 -0.9760  1.8988
 1933SOL    HW217019   0.006   6.241   3.215 -1.1459 -0.6696 -0.2696
 1934SOL     OW17020   3.511   0.634   3.471  0.4762  0.3281  0.3219
 1934SOL    HW117021   3.562   0.717   3.490  1.5698 -0.3510  0.3739
 1934SOL    HW217022   3.424   0.637   3.520  0.0376  1.8982 -0.5014
 1935SOL     OW17023   3.751   0.213   3.540 -0.7427 -0.1634  0.0059
 1935SOL    HW117024   3.733   0.290   3.479  2.1465 -0.0249 -0.7480
 1935SOL    HW217025   3.814   0.149   3.496 -0.8373 -1.5160  1.7435
 1936SOL     OW17026   8.122   7.140   5.401 -0.3964 -0.5744 -0.1790
 1936SOL    HW117027   8.034   7.172   5.435  0.2453 -1.1134  2.0105
 1936SOL    HW217028   8.186   7.129   5.476  1.5223 -0.3503 -1.7263
 1937SOL     OW17029   8.123   7.661   3.775  0.4098  0.6374  0.1849
 1937SOL    HW117030   8.130   7.679   3.677 -1.2730 -2.0093 -0.4728
 1937SOL    HW217031   8.037   7.614   3.794  1.4018 -0.2344  2.7168
 1938SOL     OW17032   0.353   4.454   3.381 -0.3844 -0.5529  0.1049
 1938SOL    HW117033   0.453   4.451   3.379 -0.3208  0.0421  1.7468
 1938SOL    HW217034   0.319   4.485   3.293  0.8916 -0.3738 -0.3363
 1939SOL     OW17035   9.699   5.462   3.555 -0.5512  0.6969  0.0218
 1939SOL    HW117036   9.643   5.381   3.569  0.1143 -0.0421 -1.4687
 1939SOL    HW217037   9.640   5.542   3.544 -1.3332 -0.0634 -1.4763
 1940SOL     OW17038   1.695   8.570   5.300 -0.5616 -0.6159 -0.1962
 1940SOL    HW117039   1.777   8.601   5.253 -1.0981  1.0339 -0.0810
 1940SOL    HW217040   1.717   8.547   5.395  0.1737 -2.2757 -0.7434
 1941SOL     OW17041   7.681   1.154   4.253 -0.0173  0.2081  0.3913
 1941SOL    HW117042   7.720   1.226   4.312 -0.6127 -0.6735  1.8854
 1941SOL    HW217043   7.753   1.091   4.225  0.3877  1.0060 -0.3640
 1942SOL     OW17044   2.950   2.872   0.682 -0.1863  0.2938  0.2350
 1942SOL    HW117045   2.912   2.786   0.718  1.3206 -0.3192  0.3749
 1942SOL    HW217046   3.031   2.897   0.735  0.5629  0.7371 -1.1133
 1943SOL     OW17047   5.994   0.014   4.863 -0.4591  0.0762  0.2735
 1943SOL    HW117048   6.034  -0.025   4.781 -0.1373 -0.4465  0.6717
 1943SOL    HW217049   5.974   0.110   4.848  0.8474  0.3179  0.0228
 1944SOL     OW17050   0.991   1.424   5.120 -0.2792 -1.3370  0.3096
 1944SOL    HW117051   1.026   1.353   5.059 -1.9960 -1.1638 -0.8901
 1944SOL    HW217052   0.974   1.508   5.068  0.0234 -0.6019  1.3791
 1945SOL     OW17053   2.787   9.481   2.497 -0.1907  0.1772 -0.2572
 1945SOL    HW117054   2.755   9.406   2.556  0.3422 -0.0460 -0.2515
 1945SOL    HW217055   2.866   9.451   2.444  1.2413  1.3200  1.1604
 1946SOL     OW17056   1.767   8.520   5.570  0.5079 -0.5449  0.5832
 1946SOL    HW117057   1.765   8.422   5.590  0.8164 -0.0667  3.2332
 1946SOL    HW217058   1.688   8.565   5.613 -0.2250  0.2232 -1.5210
 1947SOL     OW17059   8.184   4.434   1.052  0.5152  0.1750  0.1423
 1947SOL    HW117060   8.151   4.501   1.119 -0.9315 -1.0494  0.6699
 1947SOL    HW217061   8.227   4.483   0.975  1.6042  1.6073  1.6290
 1948SOL     OW17062   6.686   8.866   2.581 -0.4648  0.8266  0.4252
 1948SOL    HW117063   6.785   8.863   2.566 -0.1783  3.8305  1.4892
 1948SOL    HW217064   6.660   8.797   2.649  0.7603 -0.5037 -0.4270
 1949SOL     OW17065   4.785   5.376   2.147 -0.6003 -0.3003 -0.3576
 1949SOL    HW117066   4.834   5.455   2.184 -1.0528  0.0350 -0.4687
 1949SOL    HW217067   4.820   5.355   2.055  0.0140 -0.6767 -0.0431
 1950SOL     OW17068   0.877   1.028   3.192 -0.1519 -0.1065 -0.2601
 1950SOL    HW117069   0.915   1.035   3.100  1.6855 -0.1715  0.4829
 1950SOL    HW217070   0.821   0.945   3.199  2.0045 -1.6089 -0.5058
 1951SOL     OW17071   4.788   8.452   3.543 -0.3887  0.3055  0.7121
 1951SOL    HW117072   4.791   8.465   3.643 -0.1597  0.3982  0.6931
 1951SOL    HW217073   4.856   8.510   3.500 -2.2202  2.2045  0.3009
 1952SOL     OW17074   2.724   9.177   3.384  0.0355 -0.0637 -0.1435
 1952SOL    HW117075   2.656   9.227   3.331  0.7123  0.5994 -0.4066
 1952SOL    HW217076   2.744   9.089   3.339 -1.7948 -0.9698  0.7926
 1953SOL     OW17077   8.556   5.852   1.092  0.6225 -0.1222 -0.5197
 1953SOL    HW117078   8.459   5.844   1.066  0.1840  0.1906  0.9761
 1953SOL    HW217079   8.594   5.760   1.104  0.8182 -0.2791 -2.1288
 1954SOL     OW17080   9.985   1.567   5.520 -0.5724  0.4583 -0.1290
 1954SOL    HW117081   9.969   1.487   5.578  0.1944 -0.4778 -1.2101
 1954SOL    HW217082  10.051   1.628   5.565  1.2009 -1.0093 -0.7084
 1955SOL     OW17083   0.163   4.485   2.786 -0.2987 -0.0467 -0.2176
 1955SOL    HW117084   0.117   4.442   2.863  0.8291  1.3020  1.2524
 1955SOL    HW217085   0.097   4.500   2.712 -1.6833 -0.2664  0.9387
 1956SOL     OW17086   0.439   4.090   4.762 -0.0389 -0.5892  0.5000
 1956SOL    HW117087   0.493   4.056   4.839  1.9294 -0.8772 -0.9695
 1956SOL    HW217088   0.395   4.176   4.787  1.3431 -0.1970  1.6468
 1957SOL     OW17089   2.085   0.449   5.579  0.0337 -0.3310 -0.2150
 1957SOL    HW117090   2.109   0.393   5.500  2.0019 -1.2451  0.9828
 1957SOL    HW217091   2.127   0.410   5.661 -1.6709  0.8089  1.2317
 1958SOL     OW17092   8.788   0.299   1.274  0.1203 -0.1506 -0.3787
 1958SOL    HW117093   8.842   0.308   1.357 -0.0935  0.0325 -0.2578
 1958SOL    HW217094   8.816   0.368   1.207 -0.6185  0.5798  0.0489
 1959SOL     OW17095   5.077   4.458   0.890 -0.1119 -0.8436  0.1921
 1959SOL    HW117096   5.079   4.557   0.901  0.4771 -0.6431 -1.6378
 1959SOL    HW217097   5.063   4.415   0.980 -1.7533  0.9127  0.7955
 1960SOL     OW17098   0.509   4.767   1.261 -0.2123 -0.1271  0.0400
 1960SOL    HW117099   0.517   4.859   1.222  0.3319  0.0242  0.4934
 1960SOL    HW217100   0.553   4.766   1.351  1.2621 -1.2595 -0.6816
 1961SOL     OW17101   5.431   8.935   6.202  0.2423  0.4860  0.3762
 1961SOL    HW117102   5.483   9.002   6.149  0.9267 -0.9505 -0.8265
 1961SOL    HW217103   5.384   8.873   6.140 -3.6192  2.2245  1.4398
 1962SOL     OW17104   7.607   0.905   5.266  0.0248  0.6408 -0.5524
 1962SOL    HW117105   7.646   0.997   5.271  0.1891  0.5563 -0.2624
 1962SOL    HW217106   7.534   0.904   5.198 -0.5113  1.1847  0.0094
 1963SOL     OW17107   2.418   3.931   2.334 -0.6046  0.6878 -0.4124
 1963SOL    HW117108   2.501   3.905   2.284 -0.0676  1.2589  0.1647
 1963SOL    HW217109   2.429   4.025   2.368 -0.0134 -0.4993  2.7658
 1964SOL     OW17110   9.362   2.068   2.791  0.1940 -0.7223 -0.6465
 1964SOL    HW117111   9.360   1.969   2.806 -1.3192 -0.7925 -1.2377
 1964SOL    HW217112   9.417   2.088   2.710 -0.3607 -1.1624 -1.1364
 1965SOL     OW17113   4.976   0.792   4.017 -0.4617 -0.0276  0.1186
 1965SOL    HW117114   5.052   0.804   4.080  0.5387  1.1719 -1.2845
 1965SOL    HW217115   4.954   0.694   4.010  0.6077 -0.3370  0.9043
 1966SOL     OW17116   9.873   1.759   4.401  0.5585 -0.2147 -0.3086
 1966SOL    HW117117   9.928   1.676   4.402 -0.5930 -1.0086 -1.0059
 1966SOL    HW217118   9.911   1.826   4.464 -0.2119 -2.4218  2.5993
 1967SOL     OW17119   2.177   5.617   4.075  0.1202  0.8607 -0.5831
 1967SOL    HW117120   2.139   5.697   4.029 -2.6103  0.4813  0.8671
 1967SOL    HW217121   2.231   5.647   4.154 -0.8716  1.3179 -0.0563
 1968SOL     OW17122   8.158   8.043   2.961 -0.0143  0.0694  0.1691
 1968SOL    HW117123   8.178   7.962   2.905  1.5192  0.3736  0.2834
 1968SOL    HW217124   8.233   8.059   3.025  0.5599  2.6809 -1.1180
 1969SOL     OW17125   8.177   7.701   4.990 -0.0103 -0.1592 -0.8511
 1969SOL    HW117126   8.100   7.729   5.047  1.3552  1.7538  0.1098
 1969SOL    HW217127   8.149   7.695   4.894 -1.7343 -1.0878 -0.3058
 1970SOL     OW17128   8.482   4.944   0.097  0.1522  0.2680  0.5894
 1970SOL    HW117129   8.438   4.858   0.121 -0.6430  0.7317  0.7984
 1970SOL    HW217130   8.546   4.971   0.169  0.5331 -0.2284  0.4425
 1971SOL     OW17131   4.943   0.663   3.727  0.5768  0.2017 -0.0844
 1971SOL    HW117132   5.001   0.743   3.743 -1.5303  1.4830  1.3954
 1971SOL    HW217133   4.900   0.670   3.637 -1.4893  1.9929  1.0010
 1972SOL     OW17134   3.906   0.474   5.214 -0.4912  0.3045  0.2143
 1972SOL    HW117135   4.001   0.500   5.229 -0.4451 -0.0252  0.4949
 1972SOL    HW217136   3.893   0.449   5.118  0.2947 -2.0694  0.6892
 1973SOL     OW17137   9.024   2.611   3.357  0.6194  0.1310  0.5002
 1973SOL    HW117138   9.057   2.600   3.264 -2.1949  2.8192 -0.8951
 1973SOL    HW217139   8.985   2.525   3.389 -0.3091 -0.2574 -1.6111
 1974SOL     OW17140   3.069   6.985   0.794  0.5062  0.0016 -0.2071
 1974SOL    HW117141   3.058   7.052   0.868 -1.2652  1.5857 -1.8326
 1974SOL    HW217142   3.009   7.010   0.718  2.4329 -1.4746 -2.2732
 1975SOL     OW17143   9.870   1.536   1.955 -0.3532  0.4375  0.0827
 1975SOL    HW117144   9.775   1.528   1.985  0.3999 -1.2037  2.0615
 1975SOL    HW217145   9.923   1.585   2.024  0.4618  0.4572 -0.5502
 1976SOL     OW17146   1.826   2.659   3.172 -0.0506  0.0533 -0.1927
 1976SOL    HW117147   1.825   2.560   3.182  1.0170  0.0742  0.2205
 1976SOL    HW217148   1.792   2.702   3.255  0.2149  0.0447 -0.0787
 1977SOL     OW17149   8.814   1.668   4.708 -0.3248 -0.0814  0.2359
 1977SOL    HW117150   8.834   1.766   4.704  2.2405 -0.5193  1.5030
 1977SOL    HW217151   8.805   1.632   4.615  0.1372  1.0883 -0.2674
 1978SOL     OW17152   0.073   8.359   4.458  0.5626 -0.1538 -0.3987
 1978SOL    HW117153   0.111   8.447   4.490  0.6900 -0.0681 -0.7754
 1978SOL    HW217154   0.145   8.290   4.457  0.1990 -0.5623  1.0094
 1979SOL     OW17155   5.605   8.364   4.745 -0.0699 -0.0540 -0.1417
 1979SOL    HW117156   5.556   8.351   4.659  0.1411 -2.3469  0.0363
 1979SOL    HW217157   5.703   8.365   4.727 -0.0761  1.1526 -0.1141
 1980SOL     OW17158   8.172   8.673   5.885 -0.3327 -0.1306  0.2537
 1980SOL    HW117159   8.255   8.642   5.930  0.2158  0.9802  0.0176
 1980SOL    HW217160   8.104   8.600   5.886  0.0935 -0.5306  1.8267
 1981SOL     OW17161   0.899   8.331   6.184 -0.5092  0.2323  1.0255
 1981SOL    HW117162   0.927   8.355   6.091 -1.0990 -1.1860  0.4700
 1981SOL    HW217163   0.807   8.367   6.202 -0.6913 -0.1217  0.8033
 1982SOL     OW17164   3.845   0.589   5.745  0.3150 -0.7671 -0.4209
 1982SOL    HW117165   3.811   0.580   5.651 -1.5353 -0.9081  0.2293
 1982SOL    HW217166   3.794   0.527   5.804 -0.6873  1.5125  1.1916
 1983SOL     OW17167   8.731   8.801   1.441  0.2250 -0.2692  0.2435
 1983SOL    HW117168   8.779   8.789   1.354 -1.1054  0.4087 -0.6053
 1983SOL    HW217169   8.686   8.890   1.442 -1.6953 -1.2072  0.6669
 1984SOL     OW17170   1.675   1.022   2.333  0.0374  0.4867  1.0947
 1984SOL    HW117171   1.705   0.930   2.356  0.8945  0.5338  0.1666
 1984SOL    HW217172   1.744   1.068   2.278 -1.4279  0.8313 -0.5052
 1985SOL     OW17173   9.881   2.543   1.764  0.1803  0.0505  0.0694
 1985SOL    HW117174   9.912   2.509   1.853 -0.7948 -1.0044  0.0136
 1985SOL    HW217175   9.903   2.476   1.693  0.4308  0.6291 -0.4039
 1986SOL     OW17176   8.388   2.332   0.561  0.4129  0.1336  0.8583
 1986SOL    HW117177   8.344   2.243   0.548  0.9189  0.1217 -0.8559
 1986SOL    HW217178   8.318   2.403   0.571  0.0105 -0.3497  1.5147
 1987SOL     OW17179   7.050   2.209   0.844  0.5872 -0.2566 -0.5497
 1987SOL    HW117180   7.134   2.154   0.849  0.1522 -0.9252 -0.6077
 1987SOL    HW217181   6.989   2.183   0.919 -0.7769 -1.7655 -2.1413
 1988SOL     OW17182   3.353   6.737   4.919  0.1588 -0.5379  0.4868
 1988SOL    HW117183   3.289   6.660   4.919 -0.2506 -0.2063  0.8400
 1988SOL    HW217184   3.366   6.769   5.013 -1.0896  0.9680  0.1693
 1989SOL     OW17185   2.129   6.884   5.863 -0.2405  0.2688  0.3562
 1989SOL    HW117186   2.172   6.880   5.774 -2.1178 -1.6840 -0.5013
 1989SOL    HW217187   2.092   6.976   5.878  0.8403  0.8456 -0.4964
 1990SOL     OW17188   9.607   5.357   0.482  0.0135  0.6835  0.2007
 1990SOL    HW117189   9.589   5.259   0.481  1.4307  0.4022  0.4032
 1990SOL    HW217190   9.642   5.385   0.392 -0.8682  1.0996 -0.0143
 1991SOL     OW17191   4.333   3.642   2.100 -0.0625  0.0770  0.0555
 1991SOL    HW117192   4.392   3.720   2.080  1.2585 -0.9811 -0.2786
 1991SOL    HW217193   4.298   3.604   2.014 -2.2481  1.4316  0.3013
 1992SOL     OW17194   3.301   6.627   1.385  0.1231 -0.8696 -0.0210
 1992SOL    HW117195   3.319   6.724   1.401  1.4922 -1.2963  1.1382
 1992SOL    HW217196   3.206   6.615   1.356  0.4608  0.9993 -2.0108
 1993SOL     OW17197   3.944   3.383   4.930  0.2320  0.3880 -0.5486
 1993SOL    HW117198   3.894   3.302   4.960  0.8517  0.2026 -0.0179
 1993SOL    HW217199   3.963   3.442   5.009 -1.8809  1.9868 -1.1951
 1994SOL     OW17200   3.516   9.396   3.992 -0.1608  0.7723 -0.1551
 1994SOL    HW117201   3.538   9.446   4.076 -0.5083 -0.7538  0.8520
 1994SOL    HW217202   3.601   9.371   3.945  0.0302  1.7006 -0.3177
 1995SOL     OW17203   6.035   9.694   3.032  0.3442  1.0067 -0.1626
 1995SOL    HW117204   6.034   9.712   3.130 -0.0711  0.2088 -0.0125
 1995SOL    HW217205   6.123   9.653   3.007 -0.4196 -1.0126  0.3138
 1996SOL     OW17206   1.698   3.232   4.256  0.4436 -0.4808 -0.2283
 1996SOL    HW117207   1.635   3.177   4.311  0.2601 -1.1586 -1.1224
 1996SOL    HW217208   1.650   3.268   4.176  1.4515 -1.8637 -1.4745
 1997SOL     OW17209   1.822   5.708   2.531 -0.8525 -0.3858 -0.0277
 1997SOL    HW117210   1.810   5.789   2.588 -0.4279 -0.0988 -0.3439
 1997SOL    HW217211   1.893   5.725   2.462 -0.7869 -1.0071 -0.1229
 1998SOL     OW17212   3.341  10.000   2.351  0.7548 -0.4395  0.0285
 1998SOL    HW117213   3.263  10.059   2.333  1.4129  0.2831 -0.4995
 1998SOL    HW217214   3.324   9.945   2.433  0.7819  1.6529  1.4759
 1999SOL     OW17215   8.841   5.624   2.145  0.7538  0.3186  0.4522
 1999SOL    HW117216   8.763   5.568   2.118 -0.2105  0.6939  2.3416
 1999SOL    HW217217   8.889   5.578   2.220  1.2078  1.0078  0.5824
 2000SOL     OW17218   1.629   9.375   0.274 -0.4508  0.3178  0.1832
 2000SOL    HW117219   1.574   9.454   0.303 -0.6097  0.7699 -1.3073
 2000SOL    HW217220   1.623   9.304   0.343 -1.7176  0.9490  0.7496
 2001SOL     OW17221   3.595   6.219   0.386 -0.6710  0.6484 -0.2506
 2001SOL    HW117222   3.666   6.249   0.449 -0.9606 -0.1915  0.4992
 2001SOL    HW217223   3.506   6.248   0.420 -0.7880  0.5957 -0.5122
 2002SOL     OW17224   9.327   5.182   0.746  0.4262 -0.5116 -0.7365
 2002SOL    HW117225   9.324   5.123   0.665  2.9514 -0.6320 -0.7958
 2002SOL    HW217226   9.421   5.184   0.781 -0.2084  1.2779  0.9068
 2003SOL     OW17227   5.819   9.413   5.653 -0.5160 -0.0041  0.4413
 2003SOL    HW117228   5.845   9.318   5.671  0.4839  0.5493  2.0425
 2003SOL    HW217229   5.899   9.472   5.665 -0.6659  0.8408 -2.4127
 2004SOL     OW17230   9.213   4.915   4.418 -0.4129 -0.5937  0.4708
 2004SOL    HW117231   9.282   4.988   4.421 -0.9574  0.0565 -1.5468
 2004SOL    HW217232   9.216   4.862   4.502 -0.2120  1.9667  2.1306
 2005SOL     OW17233   2.732   3.253   2.457 -0.2250 -0.3771 -0.3767
 2005SOL    HW117234   2.679   3.200   2.390 -0.2158 -0.0617 -0.6374
 2005SOL    HW217235   2.679   3.333   2.485 -0.0430 -0.2656 -0.3521
 2006SOL     OW17236   2.760   6.590   4.466 -0.4729  0.1580  0.0027
 2006SOL    HW117237   2.728   6.652   4.394 -1.7689  1.1292  1.3764
 2006SOL    HW217238   2.810   6.643   4.535  1.0799 -0.8174 -0.3352
 2007SOL     OW17239   8.145   6.176   4.461  0.1169  0.4725  0.6004
 2007SOL    HW117240   8.230   6.123   4.461  0.0970  0.4308 -0.0052
 2007SOL    HW217241   8.069   6.119   4.490 -0.0590 -0.1010 -0.9381
 2008SOL     OW17242   0.887   1.959   6.578  0.2814  0.4212 -0.0140
 2008SOL    HW117243   0.791   1.944   6.553  0.5061 -2.0251  0.4586
 2008SOL    HW217244   0.940   1.978   6.495 -0.3416  0.2074 -0.4658
 2009SOL     OW17245   3.488   3.012   5.690  0.6133 -0.6238 -0.3485
 2009SOL    HW117246   3.393   2.985   5.704  0.8251 -1.3733 -0.3540
 2009SOL    HW217247   3.547   2.932   5.698  1.2764 -0.1049 -0.0402
 2010SOL     OW17248   1.260   4.601   4.714  0.1391 -0.1587 -0.4574
 2010SOL    HW117249   1.262   4.571   4.619 -2.2695 -1.5659 -0.1073
 2010SOL    HW217250   1.183   4.558   4.761  0.4420  1.6226  1.7645
 2011SOL     OW17251   1.149   1.075   6.497  0.1724  0.2705  0.0003
 2011SOL    HW117252   1.055   1.045   6.513  0.5781 -1.2214 -0.3553
 2011SOL    HW217253   1.166   1.083   6.399  0.9253 -1.1399  0.0087
 2012SOL     OW17254   4.751   0.303   0.264 -0.1760  0.0020  0.3028
 2012SOL    HW117255   4.814   0.265   0.332 -1.0718 -0.0761  1.0988
 2012SOL    HW217256   4.702   0.229   0.219  0.0967  0.0768 -0.1185
 2013SOL     OW17257   3.300   7.413   1.295 -0.5752 -0.5039 -0.5754
 2013SOL    HW117258   3.216   7.365   1.321 -0.5421 -0.8862 -1.1587
 2013SOL    HW217259   3.295   7.508   1.326 -1.8533 -0.1297 -1.8889
 2014SOL     OW17260   8.578   2.925   3.376  0.6060 -0.3872  0.0593
 2014SOL    HW117261   8.666   2.892   3.411  1.0145  0.8678  0.2263
 2014SOL    HW217262   8.518   2.946   3.453 -0.2212 -2.1980 -0.0564
 2015SOL     OW17263   0.836   3.801   0.320 -0.0609  0.6448 -0.0972
 2015SOL    HW117264   0.934   3.780   0.326  0.2950  2.1756 -0.3554
 2015SOL    HW217265   0.785   3.717   0.301  1.1288 -0.2844  0.7585
 2016SOL     OW17266   2.123   7.441   1.042 -0.2016  0.7215 -0.2437
 2016SOL    HW117267   2.165   7.351   1.032 -0.7947  0.4833 -0.6145
 2016SOL    HW217268   2.190   7.505   1.077  1.0476  0.7960 -2.6347
 2017SOL     OW17269   5.089   8.444   2.023 -0.3411 -0.9276  0.0456
 2017SOL    HW117270   5.032   8.384   1.968 -0.0482 -1.3233  0.1771
 2017SOL    HW217271   5.049   8.455   2.114 -0.4620 -0.8184 -0.0203
 2018SOL     OW17272   3.142   0.714   2.464 -0.0551 -0.2963  0.0727
 2018SOL    HW117273   3.165   0.644   2.396  0.6150 -1.8997  1.8906
 2018SOL    HW217274   3.178   0.687   2.553  2.3305  3.5755  0.3893
 2019SOL     OW17275   2.283   5.210   4.366  0.8119 -0.0337 -0.0649
 2019SOL    HW117276   2.265   5.293   4.418  3.0484  0.0025  0.6649
 2019SOL    HW217277   2.231   5.214   4.280  0.2967  1.7517  0.2987
 2020SOL     OW17278   2.669   9.337   3.892  0.1354 -0.3026 -0.1968
 2020SOL    HW117279   2.746   9.385   3.850 -0.6884  1.0661 -0.1776
 2020SOL    HW217280   2.684   9.328   3.990  0.2514  0.0395 -0.1816
 2021SOL     OW17281   0.774   4.581   2.912 -0.9054 -0.1248  0.5360
 2021SOL    HW117282   0.692   4.625   2.876  0.4946  1.1863 -1.1374
 2021SOL    HW217283   0.790   4.612   3.006 -0.4254  2.3457 -0.3170
 2022SOL     OW17284   1.346   5.490   4.851  0.3000 -0.3566  0.0830
 2022SOL    HW117285   1.419   5.558   4.845 -0.2150  0.4305  2.1309
 2022SOL    HW217286   1.351   5.443   4.940 -1.2631 -0.7567 -0.0170
 2023SOL     OW17287   7.635   1.755   0.370  0.3025 -0.2865 -0.3471
 2023SOL    HW117288   7.696   1.809   0.313  0.2144  0.2615  0.0766
 2023SOL    HW217289   7.541   1.784   0.354  0.5394  2.5179  2.8327
 2024SOL     OW17290   1.923   1.079   5.708  0.3920  0.1459 -0.0730
 2024SOL    HW117291   1.840   1.030   5.736 -0.2196  0.6786 -0.9065
 2024SOL    HW217292   2.004   1.025   5.733 -0.2560 -1.1396 -0.6909
 2025SOL     OW17293   7.456   9.412   5.877 -0.0593  0.1934 -0.5287
 2025SOL    HW117294   7.360   9.389   5.894  0.2442 -1.1426 -0.5544
 2025SOL    HW217295   7.487   9.478   5.945 -0.5661 -0.5305  0.4179
 2026SOL     OW17296   2.862   4.114   6.272 -0.3246 -0.2720  0.0863
 2026SOL    HW117297   2.807   4.177   6.326 -0.6262 -0.9506  0.5810
 2026SOL    HW217298   2.857   4.139   6.175 -0.8447  0.1556  0.2222
 2027SOL     OW17299   8.234   0.209   5.331 -0.1983 -0.6067 -0.1438
 2027SOL    HW117300   8.294   0.191   5.409  0.1732 -0.1076 -0.3195
 2027SOL    HW217301   8.184   0.294   5.345 -1.4607 -1.4049  0.3651
 2028SOL     OW17302   9.039   8.815   2.045 -0.1304  0.3620  0.2753
 2028SOL    HW117303   9.059   8.860   2.133  1.4642  0.3507 -0.0738
 2028SOL    HW217304   9.006   8.723   2.062 -1.5434  0.9625  0.9241
 2029SOL     OW17305   7.952   7.039   3.346 -0.3056  0.1473 -0.1864
 2029SOL    HW117306   8.024   7.039   3.415  1.3504  2.3408 -1.8475
 2029SOL    HW217307   7.980   6.981   3.269 -1.6792 -1.4251  0.4520
 2030SOL     OW17308   8.900   6.726   2.887  0.1393  0.0304 -0.6502
 2030SOL    HW117309   8.832   6.784   2.931  0.2739  0.4619 -1.0073
 2030SOL    HW217310   8.879   6.630   2.905 -0.8022  0.1495 -1.1041
 2031SOL     OW17311   0.469   5.101   2.941 -0.0803  0.0102  0.1813
 2031SOL    HW117312   0.546   5.149   2.898 -0.3116 -0.0288 -0.2892
 2031SOL    HW217313   0.436   5.154   3.019  1.3081 -0.6448  1.2471
 2032SOL     OW17314   7.809   1.947   5.178  0.3618 -0.5604 -0.6746
 2032SOL    HW117315   7.906   1.928   5.164  0.8676  1.2534  0.1375
 2032SOL    HW217316   7.791   1.959   5.276 -0.9087 -1.9617 -0.7100
 2033SOL     OW17317   8.850   5.858   6.188  0.5276  0.5529 -0.2436
 2033SOL    HW117318   8.823   5.765   6.215  0.7862  0.5809  0.1070
 2033SOL    HW217319   8.780   5.923   6.218 -0.4448  0.3048 -1.8703
 2034SOL     OW17320   3.819   5.441   0.637  0.5385  0.0421 -0.1753
 2034SOL    HW117321   3.753   5.448   0.711  0.0804  0.2739 -0.6026
 2034SOL    HW217322   3.809   5.519   0.576  0.7186 -0.2916 -0.6373
 2035SOL     OW17323   3.276   1.677   4.999 -0.5652 -0.0490 -0.0009
 2035SOL    HW117324   3.350   1.725   5.046  0.9353 -0.9166 -1.4181
 2035SOL    HW217325   3.242   1.735   4.925 -0.6515 -0.0332  0.0518
 2036SOL     OW17326   8.472   3.331   1.470  0.0118 -0.2285  0.2775
 2036SOL    HW117327   8.436   3.390   1.397  0.1299 -1.2756 -0.6410
 2036SOL    HW217328   8.479   3.237   1.437  1.0754 -0.5284  1.3072
 2037SOL     OW17329   7.610   9.316   1.761  0.1974 -0.4102 -0.1339
 2037SOL    HW117330   7.613   9.217   1.774  0.8392 -0.5141 -1.0095
 2037SOL    HW217331   7.534   9.339   1.699  1.8786 -0.6548 -2.3487
 2038SOL     OW17332   9.285   9.123   5.558  0.4196  0.4682 -0.3725
 2038SOL    HW117333   9.261   9.059   5.484 -0.0393  0.1822  0.0223
 2038SOL    HW217334   9.226   9.106   5.637  1.1016  0.5809  0.1644
 2039SOL     OW17335   5.768   1.217   5.753 -0.1156  0.1197 -0.8142
 2039SOL    HW117336   5.729   1.307   5.775  0.0593  0.0215 -0.0733
 2039SOL    HW217337   5.803   1.217   5.660 -1.6383  0.3040 -1.4069
 2040SOL     OW17338   1.885   0.901   3.740 -0.4354  0.7289  0.4437
 2040SOL    HW117339   1.874   0.828   3.672  0.9734  0.2402  0.7258
 2040SOL    HW217340   1.910   0.986   3.694 -0.9808  0.7660  0.2138
 2041SOL     OW17341   1.982   8.212   3.712 -0.3599 -0.7705 -0.2700
 2041SOL    HW117342   1.966   8.119   3.680  1.3234  0.0687 -3.8205
 2041SOL    HW217343   2.048   8.211   3.787  0.7840 -2.3664 -1.2629
 2042SOL     OW17344   1.924   1.065   1.606 -0.2517 -0.5485 -0.5203
 2042SOL    HW117345   1.964   1.045   1.517 -0.7253 -1.5232 -0.5150
 2042SOL    HW217346   1.987   1.123   1.658 -0.5013  1.0624 -1.9392
 2043SOL     OW17347   9.855   0.974   3.665  0.1748  0.5707  0.1047
 2043SOL    HW117348   9.793   0.895   3.664 -0.9462  1.4388 -0.8890
 2043SOL    HW217349   9.812   1.051   3.618  1.8163  1.3511 -0.1764
 2044SOL     OW17350   7.527   2.179   6.314 -0.1269 -0.0208  0.4245
 2044SOL    HW117351   7.497   2.165   6.408  0.2629 -0.2899  0.5097
 2044SOL    HW217352   7.453   2.218   6.260 -0.9711 -1.6494  0.3785
 2045SOL     OW17353   0.521   3.373   6.089 -0.1588 -0.0260 -0.1276
 2045SOL    HW117354   0.533   3.455   6.144  1.9989 -0.4890  0.1414
 2045SOL    HW217355   0.426   3.341   6.095 -0.5782  1.4486  1.1427
 2046SOL     OW17356   5.838   7.353   4.489  0.3288  0.4093  0.0991
 2046SOL    HW117357   5.742   7.347   4.513  0.5114  0.3439  0.8019
 2046SOL    HW217358   5.846   7.376   4.392 -0.3888 -0.0105 -0.0616
 2047SOL     OW17359   2.043   9.186   4.526  0.0172  0.4411  0.0358
 2047SOL    HW117360   1.970   9.254   4.537 -1.7158 -1.3910  0.2103
 2047SOL    HW217361   2.025   9.131   4.445 -0.3375 -1.8416  1.6146
 2048SOL     OW17362   7.791   1.660   0.873 -0.0261 -0.0282 -0.1891
 2048SOL    HW117363   7.812   1.563   0.883 -0.5011 -0.0007  1.2942
 2048SOL    HW217364   7.726   1.673   0.798  0.0476 -0.8532 -0.3985
 2049SOL     OW17365   1.114   4.564   5.077 -0.8373  0.0007  0.2626
 2049SOL    HW117366   1.125   4.641   5.140  2.1523  0.3277 -0.5566
 2049SOL    HW217367   1.126   4.478   5.127  0.3176  0.2237  0.3877
 2050SOL     OW17368   8.652   7.074   1.823  0.5920  0.2394  0.7390
 2050SOL    HW117369   8.584   7.001   1.826  0.8664 -0.0115  0.8810
 2050SOL    HW217370   8.735   7.045   1.872  0.3185  1.0386  1.6914
 2051SOL     OW17371   2.364   2.510   2.084 -0.0593 -0.5414 -0.9671
 2051SOL    HW117372   2.269   2.539   2.073  0.1707  0.7072  0.1594
 2051SOL    HW217373   2.369   2.434   2.149 -0.1465  0.3890  0.1403
 2052SOL     OW17374   5.274   1.705   5.256  0.3377  0.0872  0.0888
 2052SOL    HW117375   5.287   1.735   5.351  1.0313 -1.4071  0.4971
 2052SOL    HW217376   5.201   1.637   5.252  1.5539 -1.2311 -0.1366
 2053SOL     OW17377   9.920   0.350   5.864 -0.3716 -0.2475 -0.3432
 2053SOL    HW117378   9.936   0.348   5.765  0.8760  2.9927 -0.2814
 2053SOL    HW217379   9.994   0.301   5.911  0.6624  0.7724 -0.8873
 2054SOL     OW17380   7.656   5.677   5.620 -0.1263  0.4964 -0.0662
 2054SOL    HW117381   7.611   5.766   5.633  0.3100  0.5244  1.3843
 2054SOL    HW217382   7.622   5.613   5.689 -0.1892 -0.3654 -0.9016
 2055SOL     OW17383   4.016   7.171   1.804  0.2774 -0.0522 -0.2971
 2055SOL    HW117384   3.978   7.232   1.734 -0.5708 -1.1978 -0.8370
 2055SOL    HW217385   4.087   7.114   1.763 -0.4014 -0.9071 -0.2791
 2056SOL     OW17386   5.900   0.850   1.590 -0.7284 -0.0955 -0.0570
 2056SOL    HW117387   5.959   0.924   1.622 -0.8467  0.7777 -1.8298
 2056SOL    HW217388   5.820   0.843   1.650 -0.1441  0.4407  0.8009
 2057SOL     OW17389   0.681   9.012   5.331  0.2892 -0.1632 -0.2518
 2057SOL    HW117390   0.647   9.090   5.278  1.6870  1.5763  1.3642
 2057SOL    HW217391   0.654   9.022   5.427  1.8987 -0.8160  0.2858
 2058SOL     OW17392   8.374   7.220   1.181  0.1715 -0.3267 -0.2986
 2058SOL    HW117393   8.326   7.162   1.246 -1.7252  1.2313 -0.2531
 2058SOL    HW217394   8.438   7.279   1.230  0.7811 -1.0872 -0.1618
 2059SOL     OW17395   3.169   6.781   3.694 -0.1030  0.2611  0.3079
 2059SOL    HW117396   3.206   6.867   3.660 -0.5024  0.9328  1.5291
 2059SOL    HW217397   3.094   6.751   3.634 -1.6947  2.1201  1.2814
 2060SOL     OW17398   0.328   1.367   5.904 -0.3987 -0.1422  0.3187
 2060SOL    HW117399   0.398   1.411   5.960  1.2385 -0.4905 -1.4260
 2060SOL    HW217400   0.309   1.275   5.939  0.5541 -0.3214  0.3734
 2061SOL     OW17401   7.984   9.254   3.717 -0.0856 -0.1557 -0.3063
 2061SOL    HW117402   8.029   9.339   3.690  0.4066 -0.4516 -0.4177
 2061SOL    HW217403   7.924   9.272   3.795 -0.0054  0.2997 -0.3449
 2062SOL     OW17404   5.617   2.355   3.603 -0.1497  0.1725  0.2016
 2062SOL    HW117405   5.619   2.293   3.525 -2.4135 -0.0162  0.2426
 2062SOL    HW217406   5.639   2.305   3.686  1.9953  0.3132 -0.2604
 2063SOL     OW17407   5.618   5.046   0.951  0.8359  0.5979  0.6051
 2063SOL    HW117408   5.708   5.072   0.916  1.5546 -0.8615  1.3376
 2063SOL    HW217409   5.627   5.012   1.045 -0.3993 -0.1407  0.4694
 2064SOL     OW17410   3.443   8.496   4.547 -0.6068  0.3104  0.4788
 2064SOL    HW117411   3.473   8.488   4.642 -1.1859 -0.4540  0.6079
 2064SOL    HW217412   3.468   8.412   4.497 -1.3870  0.2020  0.2674
 2065SOL     OW17413   0.473   1.612   6.377 -0.2452 -0.2214 -0.2716
 2065SOL    HW117414   0.438   1.525   6.412 -1.0442  0.1879 -0.0235
 2065SOL    HW217415   0.481   1.677   6.453 -2.3580  0.7989 -0.8848
 2066SOL     OW17416   4.981   1.257   1.201  0.0083 -0.7335 -0.0590
 2066SOL    HW117417   5.077   1.280   1.216 -0.2698 -1.1992  2.7583
 2066SOL    HW217418   4.924   1.316   1.260 -1.2622 -2.0956  0.0865
 2067SOL     OW17419   4.874   7.428   3.756  0.2401 -0.4598 -0.3018
 2067SOL    HW117420   4.885   7.354   3.689 -0.1667  0.2942 -1.2137
 2067SOL    HW217421   4.939   7.415   3.831  1.3521 -0.8143 -1.3033
 2068SOL     OW17422   9.536   6.705   5.463  0.2031 -0.0374  0.5164
 2068SOL    HW117423   9.447   6.660   5.459 -0.1453  0.6076  1.1369
 2068SOL    HW217424   9.587   6.683   5.379  0.2761 -2.0799  1.0645
 2069SOL     OW17425   9.109   5.418   4.466  0.5846 -0.6648 -0.1899
 2069SOL    HW117426   9.175   5.373   4.405 -0.8089 -1.4643 -1.1252
 2069SOL    HW217427   9.035   5.354   4.487 -0.8033  0.8049 -0.5601
 2070SOL     OW17428   0.714   2.136   2.677  0.0136 -0.3865  0.0934
 2070SOL    HW117429   0.797   2.117   2.625 -0.1437 -0.0089 -0.2927
 2070SOL    HW217430   0.665   2.212   2.635 -1.2213 -1.4838 -0.4722
 2071SOL     OW17431   1.542   3.850   1.516 -0.6283 -0.2545  0.1606
 2071SOL    HW117432   1.454   3.838   1.561 -0.7067 -0.4192 -0.0382
 2071SOL    HW217433   1.598   3.914   1.569 -1.5096  1.2143 -0.6386
 2072SOL     OW17434   1.235   7.698   1.968 -0.1570 -0.0100  0.0905
 2072SOL    HW117435   1.161   7.665   2.027 -1.0613  0.9615 -0.4659
 2072SOL    HW217436   1.236   7.798   1.969 -0.8573  0.0675 -2.3100
 2073SOL     OW17437   9.008   6.898   0.370  0.4930  0.2983 -0.4206
 2073SOL    HW117438   9.044   6.860   0.455 -0.6344 -0.3507 -0.2120
 2073SOL    HW217439   9.058   6.861   0.292  1.7876  1.1956 -0.0218
 2074SOL     OW17440   3.145   8.491   0.496  0.5832 -0.3205 -0.0979
 2074SOL    HW117441   3.149   8.518   0.400  1.1185 -0.2989 -0.0730
 2074SOL    HW217442   3.203   8.411   0.511 -0.7067 -1.2553 -0.0925
 2075SOL     OW17443   4.871   2.831   2.334 -0.6972  0.0445  0.2940
 2075SOL    HW117444   4.782   2.787   2.327 -1.8732  2.6915 -1.9856
 2075SOL    HW217445   4.933   2.792   2.267 -0.9309  0.0312  0.0860
 2076SOL     OW17446   2.756   6.903   6.291  0.3136  0.0367  1.5823
 2076SOL    HW117447   2.775   6.995   6.259  0.4156 -0.6297 -0.3417
 2076SOL    HW217448   2.806   6.886   6.376  1.9229  1.0477  0.8592
 2077SOL     OW17449   7.983   5.147   5.155 -0.5307  0.4894 -0.7692
 2077SOL    HW117450   7.947   5.153   5.062 -1.3725 -1.1539 -0.5703
 2077SOL    HW217451   7.997   5.051   5.179 -0.6364  0.8866  0.9095
 2078SOL     OW17452   4.676   9.326   5.853  0.6708  0.6367 -0.1049
 2078SOL    HW117453   4.660   9.342   5.756  0.5981 -0.6133 -0.3042
 2078SOL    HW217454   4.774   9.334   5.873  1.3185 -3.4874 -1.1511
 2079SOL     OW17455   1.618   5.454   3.338 -0.4686 -0.3675  0.1820
 2079SOL    HW117456   1.575   5.510   3.266  0.1525 -0.6142 -0.3785
 2079SOL    HW217457   1.715   5.476   3.344 -0.2557 -1.2498  0.0835
 2080SOL     OW17458   8.639   2.901   4.559 -0.2052 -0.8057 -0.2201
 2080SOL    HW117459   8.545   2.928   4.579 -0.1421  0.1973 -1.1836
 2080SOL    HW217460   8.689   2.887   4.644 -0.4152  1.6032  0.3445
 2081SOL     OW17461   4.142   8.189   4.780  0.4846 -0.4121  0.0631
 2081SOL    HW117462   4.185   8.121   4.721 -0.2623 -0.2985 -0.6244
 2081SOL    HW217463   4.203   8.268   4.789  1.2188 -1.0335  0.6139
 2082SOL     OW17464   1.391   1.405   4.877  0.4521  0.2087 -0.1144
 2082SOL    HW117465   1.406   1.309   4.852  0.1087 -0.3717  1.7958
 2082SOL    HW217466   1.478   1.447   4.900  0.3950 -0.2065  0.9010
 2083SOL     OW17467   9.376   0.870   3.267 -0.4596  0.0056 -0.1494
 2083SOL    HW117468   9.424   0.909   3.188 -0.6412  0.9266  0.1928
 2083SOL    HW217469   9.346   0.777   3.245  1.4991 -0.6058 -0.3684
 2084SOL     OW17470   3.780   4.072   1.023 -0.0151 -0.0697 -0.3800
 2084SOL    HW117471   3.726   4.028   0.952 -2.2037  1.5390  0.2409
 2084SOL    HW217472   3.773   4.020   1.108 -0.0981 -0.1866 -0.4592
 2085SOL     OW17473   3.432   7.461   4.289  0.2309 -0.1891 -0.1167
 2085SOL    HW117474   3.393   7.419   4.371  0.8948 -0.0815  0.2551
 2085SOL    HW217475   3.421   7.560   4.294 -0.1208 -0.2126 -0.3665
 2086SOL     OW17476   1.317   4.327   0.544 -0.2121  0.2450  0.3686
 2086SOL    HW117477   1.337   4.395   0.474  0.4598 -0.5161 -0.1903
 2086SOL    HW217478   1.237   4.274   0.516  1.1393 -1.2712 -0.7322
 2087SOL     OW17479   3.540   3.967   2.403 -0.1646 -0.5540 -0.0229
 2087SOL    HW117480   3.579   3.880   2.375 -1.1393 -0.6916 -0.9756
 2087SOL    HW217481   3.499   3.958   2.494  1.1111 -0.6663  0.5534
 2088SOL     OW17482   0.875   5.019   4.292 -0.0692 -0.4953  0.6567
 2088SOL    HW117483   0.972   5.030   4.271 -0.3275 -0.1809 -0.4187
 2088SOL    HW217484   0.824   5.099   4.259 -1.1472 -2.1377 -1.8618
 2089SOL     OW17485   2.540   1.281   0.065 -0.3029 -0.1679  0.1814
 2089SOL    HW117486   2.570   1.362   0.015 -0.5344  0.1272  0.5230
 2089SOL    HW217487   2.493   1.218   0.003  0.5476 -0.3897 -0.2472
 2090SOL     OW17488   2.773   6.302   2.707 -0.2027 -0.7635 -0.1902
 2090SOL    HW117489   2.749   6.362   2.631  1.9874  0.6115  0.1731
 2090SOL    HW217490   2.833   6.229   2.674 -0.0470 -0.7420  0.0427
 2091SOL     OW17491   1.464   5.170   1.966 -0.2859  0.3699  0.1761
 2091SOL    HW117492   1.562   5.164   1.988 -0.1812 -0.2623 -0.4446
 2091SOL    HW217493   1.411   5.135   2.043  0.0849 -1.8255 -0.5325
 2092SOL     OW17494   0.901   2.652   6.137 -0.4463  0.0455  0.3440
 2092SOL    HW117495   0.843   2.620   6.062 -0.6169  0.1422  0.4327
 2092SOL    HW217496   0.990   2.679   6.101 -0.8560  1.0077  0.0297
 2093SOL     OW17497   5.148   7.891   2.410 -0.3969  0.1151  0.2867
 2093SOL    HW117498   5.132   7.891   2.509  2.8022  1.3910  0.8775
 2093SOL    HW217499   5.231   7.943   2.390 -1.3422  0.4080 -3.1666
 2094SOL     OW17500   0.404   0.909   3.791 -0.0336 -0.3427  0.7993
 2094SOL    HW117501   0.308   0.932   3.803  0.0348 -0.0779  0.8517
 2094SOL    HW217502   0.424   0.823   3.837 -0.8476 -1.7910 -1.4817
 2095SOL     OW17503   9.627   6.738   5.172 -0.2440 -0.4809  0.2992
 2095SOL    HW117504   9.543   6.720   5.122  0.0213 -1.2692  0.1360
 2095SOL    HW217505   9.702   6.752   5.108 -0.3359  0.7270  0.4280
 2096SOL     OW17506   2.928   2.619   1.504  0.4453  0.3551  0.2132
 2096SOL    HW117507   2.882   2.657   1.584 -0.4340 -1.2117  0.4665
 2096SOL    HW217508   2.883   2.650   1.421 -0.6769 -0.6377  0.4409
 2097SOL     OW17509   2.214   2.004   6.374 -0.3520 -0.1172 -0.0628
 2097SOL    HW117510   2.125   1.960   6.378 -0.4054 -0.2017 -2.1310
 2097SOL    HW217511   2.270   1.963   6.302 -0.3967  3.1066 -2.0583
 2098SOL     OW17512   5.490   8.822   1.931 -0.3128 -0.1577  0.0557
 2098SOL    HW117513   5.412   8.840   1.873  0.1402 -0.4235 -0.6419
 2098SOL    HW217514   5.573   8.859   1.889 -0.0323 -0.0314  0.7020
 2099SOL     OW17515   9.919   8.607   0.068 -0.1232 -0.0156  0.4941
 2099SOL    HW117516  10.005   8.656   0.076  0.2056 -0.4571 -0.2365
 2099SOL    HW217517   9.898   8.592  -0.029 -1.4908  0.9070  0.6332
 2100SOL     OW17518   3.261   3.813   2.070 -0.2654 -0.1421 -0.0945
 2100SOL    HW117519   3.358   3.837   2.077 -0.4557  0.7189 -0.4039
 2100SOL    HW217520   3.253   3.720   2.035  0.4442 -0.1139 -0.3505
 2101SOL     OW17521   4.800   8.904   5.470  0.1864 -0.2659  0.0909
 2101SOL    HW117522   4.791   8.831   5.538  0.8559 -0.4032  0.0358
 2101SOL    HW217523   4.727   8.972   5.484  0.6012 -0.0503  1.2383
 2102SOL     OW17524   8.371   2.593   0.958 -0.3748  0.2797 -0.6180
 2102SOL    HW117525   8.442   2.586   0.888 -2.0993  1.5725 -2.5912
 2102SOL    HW217526   8.354   2.690   0.978 -1.5993  0.0023 -0.2442
 2103SOL     OW17527   4.118   0.364   5.773 -0.0451  0.1989 -0.0196
 2103SOL    HW117528   4.029   0.373   5.818  0.8280  0.8092  1.6597
 2103SOL    HW217529   4.106   0.354   5.675 -2.0931 -2.1687  0.4078
 2104SOL     OW17530   9.497   1.653   3.263  0.1899  0.1410  0.0883
 2104SOL    HW117531   9.503   1.576   3.327 -0.2952  0.6508  0.7664
 2104SOL    HW217532   9.581   1.659   3.210  0.6835 -0.1775  0.8255
 2105SOL     OW17533   1.248   1.671   3.093  0.3162  0.9222 -0.0206
 2105SOL    HW117534   1.272   1.738   3.022 -0.5983 -0.3687 -1.5902
 2105SOL    HW217535   1.245   1.580   3.053 -1.3133  0.3076  1.4324
 2106SOL     OW17536   2.172   8.312   3.914 -0.4287 -0.5638 -0.6717
 2106SOL    HW117537   2.122   8.390   3.876 -0.4685  0.0755  0.6655
 2106SOL    HW217538   2.264   8.341   3.940  0.1287 -1.3746 -1.7151
 2107SOL     OW17539   1.450   9.742   4.152  0.0597  0.0030 -0.2934
 2107SOL    HW117540   1.486   9.788   4.233 -0.7197 -1.4361  0.8782
 2107SOL    HW217541   1.351   9.732   4.160  0.0972 -0.9878 -0.9929
 2108SOL     OW17542   4.912   4.516   6.288 -0.4317 -0.0835  0.4185
 2108SOL    HW117543   5.004   4.555   6.300 -0.8172  0.9633  0.0985
 2108SOL    HW217544   4.872   4.497   6.377  0.0580 -0.4456  0.5636
 2109SOL     OW17545   5.801   8.975   4.537  0.1940 -0.0903  0.4365
 2109SOL    HW117546   5.898   8.994   4.554  0.2300 -0.8075  1.0648
 2109SOL    HW217547   5.772   8.899   4.594 -0.8983  0.4972  0.6807
 2110SOL     OW17548   9.213   0.219   4.292 -0.4154 -0.2194 -0.3119
 2110SOL    HW117549   9.140   0.252   4.232  0.8217  0.6000 -1.3974
 2110SOL    HW217550   9.186   0.131   4.332 -1.9190 -0.0105 -0.8203
 2111SOL     OW17551   7.024   3.841   1.130  0.1566  0.2754 -0.4795
 2111SOL    HW117552   6.962   3.897   1.185 -0.2734  0.5514 -1.2366
 2111SOL    HW217553   7.078   3.899   1.070 -0.7479 -0.1660 -1.7278
 2112SOL     OW17554   9.017   0.616   4.027 -0.1052  0.0344 -0.3229
 2112SOL    HW117555   8.961   0.694   4.057 -1.7839 -1.1948 -0.1636
 2112SOL    HW217556   9.040   0.626   3.931 -0.5581  0.6065 -0.3740
 2113SOL     OW17557   4.598   4.162   6.058 -0.3464 -1.0305 -0.0412
 2113SOL    HW117558   4.628   4.220   6.134 -1.2603  1.9204 -1.8244
 2113SOL    HW217559   4.618   4.208   5.972 -2.6657 -2.6189 -1.4791
 2114SOL     OW17560   2.720   8.158   2.662 -0.1340  0.2968 -0.2530
 2114SOL    HW117561   2.633   8.170   2.709 -0.2768 -0.2991 -0.3650
 2114SOL    HW217562   2.772   8.244   2.666 -0.5652  0.5427  0.1329
 2115SOL     OW17563   4.424   7.511   5.041  0.3832  0.4825 -0.0514
 2115SOL    HW117564   4.380   7.421   5.044  0.4656  0.4452  0.0319
 2115SOL    HW217565   4.514   7.501   4.998  0.7266  0.3883  0.6929
 2116SOL     OW17566   4.072   2.693   5.286 -0.5378 -0.3041  0.2319
 2116SOL    HW117567   4.057   2.705   5.187 -0.0499 -1.6694 -0.0218
 2116SOL    HW217568   4.075   2.782   5.330 -2.1424  0.2644 -0.7835
 2117SOL     OW17569   8.337   8.589   6.325 -0.4623 -0.2019 -0.3563
 2117SOL    HW117570   8.431   8.582   6.355 -0.3997 -0.2521 -0.5659
 2117SOL    HW217571   8.307   8.684   6.329 -0.2304 -0.1094 -0.8067
 2118SOL     OW17572   8.072   1.248   0.057 -0.3265 -0.3239 -0.0517
 2118SOL    HW117573   8.041   1.307   0.131 -0.3137  0.8775 -0.9951
 2118SOL    HW217574   8.047   1.288  -0.031  2.2977 -0.2280 -0.8036
 2119SOL     OW17575   0.569   6.666   6.000 -0.5450 -0.5286  1.1128
 2119SOL    HW117576   0.609   6.583   5.962  2.9274  1.2736  0.6325
 2119SOL    HW217577   0.582   6.667   6.099  0.1207 -0.1827  1.0206
 2120SOL     OW17578   1.542   0.529   3.615  0.0486 -0.1114 -0.2114
 2120SOL    HW117579   1.575   0.442   3.580  0.9334  1.4636 -3.5078
 2120SOL    HW217580   1.574   0.542   3.709  0.7174 -2.8652 -0.0320
 2121SOL     OW17581   0.750   4.571   0.310  0.1330  0.2494 -0.0378
 2121SOL    HW117582   0.665   4.585   0.258 -1.0200 -0.7652  1.5220
 2121SOL    HW217583   0.761   4.646   0.376  0.0196 -0.0592  0.3312
 2122SOL     OW17584   7.231   3.042   3.027  0.3174  0.3172 -0.3507
 2122SOL    HW117585   7.152   2.990   2.994 -1.2048  0.8813  2.2568
 2122SOL    HW217586   7.285   3.075   2.949 -1.0068 -1.6163 -2.1169
 2123SOL     OW17587   8.166   3.212   4.081  0.6654 -0.2308 -0.1503
 2123SOL    HW117588   8.188   3.120   4.114  1.2863  0.2499  0.8197
 2123SOL    HW217589   8.238   3.276   4.110 -0.1648  0.7062 -0.1190
 2124SOL     OW17590   8.609   8.603   4.430  0.1007  0.3205 -0.5279
 2124SOL    HW117591   8.652   8.519   4.396 -2.4644 -0.8607 -1.0478
 2124SOL    HW217592   8.625   8.611   4.528  0.0414 -1.0112 -0.3977
 2125SOL     OW17593   8.670   3.308   4.629  0.1916  0.1230 -0.6793
 2125SOL    HW117594   8.586   3.271   4.667  1.2666 -1.0729  0.6091
 2125SOL    HW217595   8.732   3.233   4.606  1.9642  1.0503  0.9108
 2126SOL     OW17596   5.215   0.640   3.922 -0.4791  0.1299  0.5618
 2126SOL    HW117597   5.271   0.566   3.883 -1.3730  0.1312 -0.7473
 2126SOL    HW217598   5.243   0.656   4.017  1.1564 -0.4539  0.1985
 2127SOL     OW17599   2.349   9.006   1.997 -0.3231  0.3276 -0.8494
 2127SOL    HW117600   2.354   8.906   1.999  2.1797  0.4370 -0.6509
 2127SOL    HW217601   2.440   9.045   2.009 -1.2590  2.6536 -0.9563
 2128SOL     OW17602   5.365   9.318   3.336 -0.4779  0.1113  0.2749
 2128SOL    HW117603   5.369   9.360   3.427 -0.8720  0.4928  0.1181
 2128SOL    HW217604   5.436   9.248   3.328 -0.4636  0.0600  0.8861
 2129SOL     OW17605   2.523   5.466   1.056  0.2572  0.5624  0.4695
 2129SOL    HW117606   2.587   5.397   1.021 -0.9429 -0.2466 -0.1583
 2129SOL    HW217607   2.457   5.423   1.117 -1.2616  0.9176 -0.8950
 2130SOL     OW17608   5.135   1.852   2.552 -0.3165 -0.9598  0.4691
 2130SOL    HW117609   5.081   1.776   2.516 -0.3978  0.2022 -2.0148
 2130SOL    HW217610   5.086   1.897   2.626 -1.9650 -0.9904 -0.5910
 2131SOL     OW17611   5.224   2.076   3.605 -0.1435  0.4201 -0.1771
 2131SOL    HW117612   5.170   1.994   3.622  0.8648 -0.2349 -0.0813
 2131SOL    HW217613   5.203   2.145   3.674  1.5478 -1.0383  1.8915
 2132SOL     OW17614   7.785   1.776   6.495  0.8626  0.3402 -0.0562
 2132SOL    HW117615   7.696   1.821   6.494  0.4320 -0.3781  2.0084
 2132SOL    HW217616   7.788   1.706   6.423 -0.0277  0.7644 -0.5178
 2133SOL     OW17617   5.037   7.934   2.130  0.3646 -0.4835  0.4193
 2133SOL    HW117618   5.085   7.941   2.218  1.8080  1.3003 -0.5007
 2133SOL    HW217619   5.102   7.906   2.059 -0.4998 -0.5526 -0.3458
 2134SOL     OW17620   1.043   2.192   0.815  0.1896 -0.2660  0.1756
 2134SOL    HW117621   0.957   2.140   0.809  1.0573 -1.6993 -0.1628
 2134SOL    HW217622   1.107   2.142   0.873  0.6116  1.0933  0.9044
 2135SOL     OW17623   4.112   1.611   5.444  0.7223  0.3379 -0.0768
 2135SOL    HW117624   4.069   1.630   5.355  1.6918 -4.0781 -1.6112
 2135SOL    HW217625   4.043   1.573   5.506  1.0311 -1.0219 -0.5432
 2136SOL     OW17626   2.937   7.694   5.356 -0.3767 -0.1255  0.1669
 2136SOL    HW117627   3.001   7.695   5.432  1.3277  1.4388 -1.2230
 2136SOL    HW217628   2.944   7.607   5.307 -0.1907 -0.4231  0.7244
 2137SOL     OW17629   2.383   3.948   5.809 -0.1372 -0.3531  0.2860
 2137SOL    HW117630   2.376   3.962   5.710  1.4584 -1.3091  0.0226
 2137SOL    HW217631   2.409   3.853   5.827  0.6891  0.1126  1.5883
 2138SOL     OW17632   7.785   1.088   6.456  0.0980 -0.5645 -0.6203
 2138SOL    HW117633   7.868   1.066   6.404 -0.7299 -0.8718 -1.8153
 2138SOL    HW217634   7.781   1.186   6.471  1.6685 -0.7276  1.1345
 2139SOL     OW17635   0.211   2.266   5.310 -0.2813  0.2687 -0.5694
 2139SOL    HW117636   0.231   2.283   5.406  0.3064 -0.4294 -0.5647
 2139SOL    HW217637   0.222   2.351   5.258  3.4099 -0.2087 -0.6773
 2140SOL     OW17638   1.388   1.444   0.489  0.1830 -0.2847 -0.5877
 2140SOL    HW117639   1.447   1.474   0.414  0.1065  0.3997 -0.3699
 2140SOL    HW217640   1.300   1.491   0.484  0.9573  1.4149  1.2038
 2141SOL     OW17641   7.991   6.606   4.366  0.3239 -0.4058  0.1775
 2141SOL    HW117642   8.002   6.689   4.422  1.1721  0.3445 -1.0836
 2141SOL    HW217643   8.072   6.549   4.375  1.5401  0.8914 -2.1805
 2142SOL     OW17644   9.448   9.082   5.195 -0.3900  0.5498 -0.1277
 2142SOL    HW117645   9.422   9.013   5.128 -1.6146  0.1369  0.7570
 2142SOL    HW217646   9.544   9.069   5.221  0.4145  1.3988 -2.5979
 2143SOL     OW17647   3.616   2.683   2.534  0.6927 -0.0502 -0.5675
 2143SOL    HW117648   3.525   2.649   2.513  0.5099  0.6442 -0.9159
 2143SOL    HW217649   3.684   2.631   2.482  0.4541 -0.2241 -0.7057
 2144SOL     OW17650   3.286   4.578   4.336 -0.1790  0.0163  0.1515
 2144SOL    HW117651   3.188   4.561   4.331 -0.0164 -0.9801  0.3336
 2144SOL    HW217652   3.319   4.606   4.246 -0.0154 -3.0211 -0.7646
 2145SOL     OW17653   1.891   8.944   5.268 -0.2124 -0.1929 -0.0833
 2145SOL    HW117654   1.978   8.935   5.219  0.1686 -1.2042  0.7414
 2145SOL    HW217655   1.910   8.955   5.366 -1.0181 -0.4399  0.0990
 2146SOL     OW17656   6.788   0.117   3.115  0.1377  0.2272 -0.5219
 2146SOL    HW117657   6.812   0.184   3.185  0.2635 -0.9594  0.5638
 2146SOL    HW217658   6.862   0.051   3.105 -0.3979 -0.3127 -0.9393
 2147SOL     OW17659   4.558   9.797   2.964  0.5474  0.0268  0.0380
 2147SOL    HW117660   4.567   9.789   3.064  1.3021  1.3869  0.1029
 2147SOL    HW217661   4.581   9.710   2.921  1.1901 -0.2853  0.9981
 2148SOL     OW17662   4.154   6.922   1.786 -0.0705 -0.2890  0.1994
 2148SOL    HW117663   4.203   6.878   1.711  0.3760  0.2681  0.1589
 2148SOL    HW217664   4.154   6.861   1.866 -0.9716 -1.0862 -0.3963
 2149SOL     OW17665   8.977   6.360   1.402  0.1045  0.5607  0.0559
 2149SOL    HW117666   8.993   6.358   1.500  0.0094 -1.8912  0.0603
 2149SOL    HW217667   8.893   6.310   1.380  0.9443 -0.2721 -1.3951
 2150SOL     OW17668   4.460   3.246   3.217  0.3749 -0.4566  0.4406
 2150SOL    HW117669   4.431   3.200   3.300 -2.2502 -0.0681 -0.2150
 2150SOL    HW217670   4.415   3.335   3.210  1.0488 -0.2064 -1.0721
 2151SOL     OW17671   3.489   4.694   5.533  0.6478  0.0851 -0.2504
 2151SOL    HW117672   3.534   4.605   5.545  0.5659  0.1856  0.8599
 2151SOL    HW217673   3.558   4.764   5.513  0.7044 -0.2426 -1.2081
 2152SOL     OW17674   7.996   3.568   4.292  0.0821  0.2728 -0.1714
 2152SOL    HW117675   7.962   3.631   4.363  0.3805 -0.0407  0.2535
 2152SOL    HW217676   7.925   3.501   4.272  0.2908 -0.1277  0.4157
 2153SOL     OW17677   6.750   0.344   2.923  0.2193  0.0855  0.3435
 2153SOL    HW117678   6.777   0.281   2.996  1.1948  1.7398  1.4432
 2153SOL    HW217679   6.686   0.412   2.959 -1.9391 -1.0820 -1.1751
 2154SOL     OW17680   9.320   1.024   0.215  0.3356 -0.1876  0.8769
 2154SOL    HW117681   9.301   1.120   0.198  1.8528 -0.1438 -0.6935
 2154SOL    HW217682   9.244   0.984   0.267 -1.8415  1.0562 -1.2266
 2155SOL     OW17683   2.314   6.225   5.200  0.0137  0.3373  0.0589
 2155SOL    HW117684   2.276   6.317   5.197  0.9966  0.7518  0.3374
 2155SOL    HW217685   2.399   6.222   5.147  0.2659 -0.2726  0.4935
 2156SOL     OW17686   3.501   2.903   4.184  0.5256 -0.4430 -0.5799
 2156SOL    HW117687   3.550   2.926   4.268  0.5923 -0.2725 -0.6633
 2156SOL    HW217688   3.564   2.859   4.120  0.3815 -0.9313 -0.3928
 2157SOL     OW17689   3.934   2.118   4.667 -0.0603 -0.1536  0.3785
 2157SOL    HW117690   3.924   2.080   4.759  0.3085 -0.5934  0.2334
 2157SOL    HW217691   3.917   2.047   4.599 -1.0237  0.3347  0.0995
 2158SOL     OW17692   6.069   9.016   4.512 -0.1109 -0.2482 -0.3783
 2158SOL    HW117693   6.111   8.947   4.452  2.7304  2.2498 -1.4133
 2158SOL    HW217694   6.136   9.044   4.582 -0.5723  2.6728 -1.0419
 2159SOL     OW17695   7.298   0.209   2.546  0.0737  0.3868  0.1080
 2159SOL    HW117696   7.350   0.261   2.614 -0.6612  0.7885  0.3717
 2159SOL    HW217697   7.240   0.142   2.591  0.0539  0.2215 -0.1600
 2160SOL     OW17698   9.647   4.892   1.373 -0.2974  0.4052 -0.3133
 2160SOL    HW117699   9.610   4.799   1.373 -3.0400  1.4728  1.1664
 2160SOL    HW217700   9.652   4.925   1.279 -3.1454  0.2303 -0.5604
 2161SOL     OW17701   4.464   9.965   5.484  0.0533  0.2161  0.3494
 2161SOL    HW117702   4.472   9.949   5.583  0.8540 -0.1105  0.2329
 2161SOL    HW217703   4.370   9.948   5.455 -0.0426 -0.2744  0.9507
 2162SOL     OW17704   5.420   8.587   3.393 -0.3292  0.4355 -0.2103
 2162SOL    HW117705   5.451   8.655   3.459  2.6088 -1.7248  0.7356
 2162SOL    HW217706   5.485   8.582   3.317 -0.3064 -1.5215 -0.0998
 2163SOL     OW17707   4.080   5.082   4.972  0.2318  0.0238 -0.2356
 2163SOL    HW117708   4.000   5.064   5.028  0.8677  0.8512  0.9505
 2163SOL    HW217709   4.141   5.146   5.019  0.9150  0.5056 -1.7377
 2164SOL     OW17710   9.885   6.341   5.204 -0.3546  0.8210  0.0679
 2164SOL    HW117711   9.894   6.261   5.264  1.3772  0.8371 -0.1595
 2164SOL    HW217712   9.949   6.412   5.233  0.3809  0.9011 -1.7032
 2165SOL     OW17713   9.170   2.584   6.643  0.2669 -0.5089  0.1660
 2165SOL    HW117714   9.228   2.534   6.579  0.1664 -1.5943  0.8983
 2165SOL    HW217715   9.131   2.520   6.709 -0.3727  0.4601  0.7433
 2166SOL     OW17716   3.168   0.561   3.767  0.6900  0.1876  0.2921
 2166SOL    HW117717   3.102   0.486   3.761  1.0697 -0.0673 -1.0749
 2166SOL    HW217718   3.163   0.604   3.857 -1.0662 -0.0710  0.3308
 2167SOL     OW17719   3.761   0.829   3.830 -0.5953 -0.1692  0.2425
 2167SOL    HW117720   3.807   0.889   3.895 -1.5013  2.5236 -1.5180
 2167SOL    HW217721   3.672   0.803   3.866 -0.0564 -0.7430  1.1671
 2168SOL     OW17722   6.147   0.282   2.530 -0.0267 -0.0185  0.2889
 2168SOL    HW117723   6.228   0.331   2.497  0.2106 -0.7219 -0.1851
 2168SOL    HW217724   6.158   0.259   2.626 -0.4301  1.4552  0.6995
 2169SOL     OW17725   5.280   9.231   2.751  0.3135  0.3265 -0.3771
 2169SOL    HW117726   5.200   9.267   2.703  1.0064 -0.2605 -2.0220
 2169SOL    HW217727   5.363   9.265   2.706  0.9789 -0.3135  0.3630
 2170SOL     OW17728   0.423   1.167   0.717  0.2214 -0.0140  0.0461
 2170SOL    HW117729   0.430   1.165   0.817 -0.7356 -0.1497  0.1218
 2170SOL    HW217730   0.474   1.245   0.682  1.7831 -0.8064  0.5208
 2171SOL     OW17731   2.960   1.142   4.986  0.0071 -0.1584 -0.3859
 2171SOL    HW117732   2.874   1.173   4.945  0.5400  0.8226 -0.7963
 2171SOL    HW217733   2.968   1.181   5.078 -0.0762 -0.4121 -0.2709
 2172SOL     OW17734   5.576   7.206   2.826  0.2849  0.0723 -0.4449
 2172SOL    HW117735   5.535   7.145   2.894 -0.3381 -0.3269 -1.1673
 2172SOL    HW217736   5.524   7.201   2.741 -0.8296  2.9670  0.0342
 2173SOL     OW17737   3.989   5.142   4.082 -0.4480  0.1273 -0.0469
 2173SOL    HW117738   3.967   5.065   4.142 -0.7285  1.7144  1.9289
 2173SOL    HW217739   4.074   5.123   4.033 -0.3820 -1.3179  0.6025
 2174SOL     OW17740   4.074   4.766   5.678 -0.3384 -0.0039  0.6539
 2174SOL    HW117741   4.096   4.790   5.584  0.1443  0.0493  0.7810
 2174SOL    HW217742   4.153   4.782   5.737 -1.2549  1.9007  1.4171
 2175SOL     OW17743   7.650   2.049   4.729 -0.4852 -0.4344  0.3785
 2175SOL    HW117744   7.563   2.065   4.774 -0.6024 -0.7078  0.2529
 2175SOL    HW217745   7.714   2.123   4.752 -0.8436 -0.0784  0.2280
 2176SOL     OW17746   4.831   2.442   0.287 -0.5508  0.1328 -0.1375
 2176SOL    HW117747   4.736   2.460   0.312 -0.9501 -0.1193 -1.4108
 2176SOL    HW217748   4.887   2.523   0.307 -0.8290 -0.0697  1.5497
 2177SOL     OW17749   2.060   4.623   1.675  0.3845  0.5181 -0.8903
 2177SOL    HW117750   1.999   4.545   1.660 -0.1460  0.6347  0.5366
 2177SOL    HW217751   2.032   4.699   1.616 -0.6608  0.4601 -0.4839
 2178SOL     OW17752   8.375   2.110   4.241 -0.2780 -0.4405  0.3720
 2178SOL    HW117753   8.398   2.066   4.154  0.9171 -0.1006  0.5043
 2178SOL    HW217754   8.277   2.099   4.259 -1.1599  2.0453 -2.4441
 2179SOL     OW17755   3.137   6.305   2.319  0.2608  0.2019 -0.8732
 2179SOL    HW117756   3.070   6.376   2.299 -0.3511 -0.9962 -3.2739
 2179SOL    HW217757   3.208   6.306   2.247  2.3843  0.8855  1.1501
 2180SOL     OW17758   3.998   0.905   1.772 -0.4863 -0.1568 -0.2999
 2180SOL    HW117759   3.963   0.889   1.864  1.2289  0.2692  0.4585
 2180SOL    HW217760   4.076   0.845   1.754 -0.8063 -0.2364 -1.4683
 2181SOL     OW17761   4.011   8.936   6.621  0.0566 -0.0007  0.7734
 2181SOL    HW117762   3.956   8.951   6.538  1.0218  0.3531  0.1954
 2181SOL    HW217763   3.997   9.013   6.683  2.8217  2.0146 -1.0000
 2182SOL     OW17764   9.959   4.852   4.268 -0.8680 -0.0072 -0.2919
 2182SOL    HW117765  10.035   4.890   4.216  0.2847 -0.1284  1.2520
 2182SOL    HW217766   9.982   4.759   4.298 -1.5782 -0.0085  0.2666
 2183SOL     OW17767   8.441   6.145   2.250 -0.3160  0.3816 -0.3436
 2183SOL    HW117768   8.356   6.096   2.271 -1.6906  2.6445 -0.4401
 2183SOL    HW217769   8.484   6.104   2.169 -1.5369 -0.4980 -0.5641
 2184SOL     OW17770   9.707   2.640   3.405 -0.6645 -0.4901 -0.1182
 2184SOL    HW117771   9.749   2.600   3.323  2.4674  1.0154  0.6738
 2184SOL    HW217772   9.677   2.734   3.385  1.9718  0.6388  0.9125
 2185SOL     OW17773   7.313   0.834   6.137 -0.0430  0.4156 -0.9218
 2185SOL    HW117774   7.354   0.766   6.076 -0.3020  0.5321 -1.2219
 2185SOL    HW217775   7.367   0.838   6.222  0.5452  0.5396 -1.2957
 2186SOL     OW17776   4.139   3.830   0.735  0.3135  0.3615  0.0710
 2186SOL    HW117777   4.112   3.885   0.656  0.9272  0.6647  0.0712
 2186SOL    HW217778   4.094   3.865   0.817  0.1320  0.4066 -0.0478
 2187SOL     OW17779   2.190   0.972   1.970  0.4311  0.1851  0.1079
 2187SOL    HW117780   2.185   0.885   1.921 -1.3178  1.3192 -1.7917
 2187SOL    HW217781   2.162   0.958   2.065 -1.3048 -1.0762 -0.5594
 2188SOL     OW17782   3.001   1.723   5.559 -0.0305 -0.0820  0.0809
 2188SOL    HW117783   2.929   1.787   5.587 -1.3739 -1.0338 -1.1280
 2188SOL    HW217784   3.015   1.655   5.631 -0.3639  0.0985  0.3189
 2189SOL     OW17785   1.205   2.518   3.711 -0.9100  0.3523  0.4614
 2189SOL    HW117786   1.226   2.597   3.769  1.2840  0.4596 -0.4499
 2189SOL    HW217787   1.276   2.508   3.641 -1.5587 -2.0089  0.1086
 2190SOL     OW17788   1.410   8.325   4.935 -0.0681 -0.0924  0.7063
 2190SOL    HW117789   1.416   8.278   4.847  0.2214 -1.0322  1.2270
 2190SOL    HW217790   1.346   8.277   4.995  1.6115 -0.9011  1.8968
 2191SOL     OW17791   3.839   3.984   1.926  0.0018 -0.4567  0.2442
 2191SOL    HW117792   3.918   3.996   1.984  0.2860  0.8345 -0.3934
 2191SOL    HW217793   3.866   3.995   1.830 -0.7272 -1.1250 -0.0438
 2192SOL     OW17794   8.195   2.308   3.342  0.1212  0.3587  0.2820
 2192SOL    HW117795   8.207   2.408   3.344 -0.5373  0.4113  1.9849
 2192SOL    HW217796   8.208   2.271   3.433 -0.7432 -0.9980 -0.1385
 2193SOL     OW17797   9.548   8.390   0.544 -0.0554 -0.5570  0.3816
 2193SOL    HW117798   9.542   8.322   0.470  0.2203  0.5540 -0.6887
 2193SOL    HW217799   9.579   8.477   0.506  1.3649 -0.3171  2.0559
 2194SOL     OW17800   4.903   9.082   3.245 -0.5525 -0.1525  0.1466
 2194SOL    HW117801   4.977   9.130   3.292 -1.2730  0.4543  0.6827
 2194SOL    HW217802   4.816   9.107   3.287 -1.1190 -0.3872 -0.8765
 2195SOL     OW17803   2.595   7.456   1.711 -0.1801  0.2641 -0.2215
 2195SOL    HW117804   2.669   7.504   1.665  1.5127 -2.8118 -0.8574
 2195SOL    HW217805   2.554   7.389   1.649 -0.2693 -1.4134  1.5846
 2196SOL     OW17806   9.604   8.305   1.653 -0.3889 -0.5118  0.4033
 2196SOL    HW117807   9.525   8.364   1.666 -0.7622 -1.0799  0.7270
 2196SOL    HW217808   9.585   8.237   1.582  0.3575  0.3023 -0.5947
 2197SOL     OW17809   3.594   2.674   1.211  0.1242  1.0219  0.5368
 2197SOL    HW117810   3.523   2.625   1.263  1.0104  0.2208  0.9955
 2197SOL    HW217811   3.625   2.616   1.135  0.6708  1.1495  0.6614
 2198SOL     OW17812   6.812   4.083   0.671  0.1185 -0.2819 -0.2043
 2198SOL    HW117813   6.781   4.157   0.731  1.9890  0.3272  0.0217
 2198SOL    HW217814   6.871   4.021   0.722  2.9707  1.0813 -1.7722
 2199SOL     OW17815   3.338   5.372   5.714 -0.1779 -0.1473  0.2659
 2199SOL    HW117816   3.321   5.470   5.707  0.1476 -0.0233  1.1569
 2199SOL    HW217817   3.255   5.327   5.747  0.3129  0.1088  1.9203
 2200SOL     OW17818   1.632   0.392   0.622  0.2219 -0.2389  0.2082
 2200SOL    HW117819   1.724   0.415   0.654 -0.1893  1.1610  0.4208
 2200SOL    HW217820   1.600   0.461   0.558 -0.2164 -1.3671 -0.8188
 2201SOL     OW17821   0.745   9.369   2.446 -0.0817  0.0426  0.1160
 2201SOL    HW117822   0.698   9.331   2.526 -0.8664 -0.3080 -0.5080
 2201SOL    HW217823   0.727   9.468   2.440 -1.5787 -0.2716 -0.6930
 2202SOL     OW17824   2.351   0.701   3.226  0.4506 -0.6998 -0.0736
 2202SOL    HW117825   2.412   0.735   3.154 -0.1405 -0.4143 -0.4429
 2202SOL    HW217826   2.274   0.653   3.184 -0.6132  0.6395  0.3021
 2203SOL     OW17827   0.349   0.616   4.273  0.2289  0.2740  0.0963
 2203SOL    HW117828   0.373   0.523   4.244 -0.6322  0.4035 -1.0778
 2203SOL    HW217829   0.277   0.611   4.343 -2.0519  0.0988 -2.1663
 2204SOL     OW17830   0.901   3.622   5.111 -0.2845  0.3391 -0.3793
 2204SOL    HW117831   0.878   3.603   5.206  2.3094 -0.4744  0.1351
 2204SOL    HW217832   0.892   3.720   5.093 -0.4401  0.5501  0.8075
 2205SOL     OW17833   3.977   5.145   6.226 -0.6722  0.2642  0.4566
 2205SOL    HW117834   3.888   5.181   6.198 -1.4774 -0.9709  1.4207
 2205SOL    HW217835   3.965   5.074   6.295  0.9949 -0.6565 -0.1569
 2206SOL     OW17836   0.898   7.826   5.344 -0.2723 -0.3438  0.3585
 2206SOL    HW117837   0.854   7.875   5.269  1.4726  1.2925  0.3425
 2206SOL    HW217838   0.832   7.767   5.390 -1.9777  0.6015 -0.8425
 2207SOL     OW17839   6.022   8.044   3.743 -0.6886  0.2440  0.7972
 2207SOL    HW117840   6.008   8.143   3.748 -2.3137  0.1013 -0.4751
 2207SOL    HW217841   6.117   8.023   3.766  0.4516  2.3773 -1.6805
 2208SOL     OW17842   2.330   9.916   5.623 -0.1709  0.0125  0.0227
 2208SOL    HW117843   2.329   9.949   5.717 -0.8817 -0.6261  0.2427
 2208SOL    HW217844   2.351   9.991   5.561 -0.0562  0.5069  0.6632
 2209SOL     OW17845   6.056   7.747   4.388 -0.2995  0.0655  0.1792
 2209SOL    HW117846   6.023   7.654   4.372 -0.0354  0.0445 -0.2355
 2209SOL    HW217847   6.037   7.773   4.483  1.5497 -1.2009  0.9227
 2210SOL     OW17848   7.827   8.700   2.246  0.4075  0.0437 -0.3904
 2210SOL    HW117849   7.785   8.616   2.280  1.7499 -0.9641 -1.1871
 2210SOL    HW217850   7.907   8.722   2.302  3.0931 -2.0530 -3.2582
 2211SOL     OW17851   2.622   7.824   4.748 -0.4093 -0.0352  0.3380
 2211SOL    HW117852   2.539   7.786   4.709 -0.3716 -0.9853  1.1593
 2211SOL    HW217853   2.621   7.812   4.848  0.1223  1.1079  0.4924
 2212SOL     OW17854   7.758   0.853   1.725 -0.1630  0.7058  0.2968
 2212SOL    HW117855   7.805   0.921   1.669  1.3630 -1.1207 -0.6711
 2212SOL    HW217856   7.814   0.771   1.733 -2.6671 -1.0798  0.1506
 2213SOL     OW17857   9.551   1.478   3.866 -0.6250 -0.3639 -0.2073
 2213SOL    HW117858   9.609   1.499   3.944  0.0249 -1.8926 -0.2655
 2213SOL    HW217859   9.455   1.495   3.890 -0.4965 -1.4953  1.1628
 2214SOL     OW17860   8.748   9.504   0.150 -0.2242 -0.1502 -0.0173
 2214SOL    HW117861   8.686   9.545   0.217 -0.9615  0.6438 -1.1555
 2214SOL    HW217862   8.767   9.571   0.077 -1.3867 -1.7891 -1.8773
 2215SOL     OW17863   3.549   0.810   0.229 -0.2172  0.6172 -0.8827
 2215SOL    HW117864   3.468   0.772   0.184 -0.9955 -1.1114  1.8603
 2215SOL    HW217865   3.629   0.755   0.207 -0.6860 -0.5184  0.1845
 2216SOL     OW17866   1.358   6.877   1.950 -0.1242  0.2838 -0.5692
 2216SOL    HW117867   1.430   6.838   1.893  0.7170 -0.8316  1.1922
 2216SOL    HW217868   1.324   6.807   2.013 -4.0615  0.2592 -2.5819
 2217SOL     OW17869   8.786   1.261   2.059  0.1294 -0.4870 -0.4101
 2217SOL    HW117870   8.841   1.211   1.992 -0.5355  0.3823 -1.6212
 2217SOL    HW217871   8.736   1.334   2.013 -0.4466  0.0356  1.0214
 2218SOL     OW17872   7.939   0.726   5.571 -0.3321 -0.6586 -0.4028
 2218SOL    HW117873   7.874   0.666   5.527 -0.6259 -0.4491 -0.2549
 2218SOL    HW217874   8.020   0.737   5.513 -0.2124 -1.3126 -0.3615
 2219SOL     OW17875   4.259   1.055   3.371  0.0240 -0.3289 -0.0472
 2219SOL    HW117876   4.287   0.995   3.446  2.1402 -0.3651 -0.8332
 2219SOL    HW217877   4.256   1.002   3.286 -2.5193 -0.3252  0.0175
 2220SOL     OW17878   9.830   9.924   2.615  0.1480 -0.1713 -0.3706
 2220SOL    HW117879   9.759   9.978   2.659  0.6500 -0.2019  0.4821
 2220SOL    HW217880   9.883   9.875   2.684 -0.2180 -1.6507 -1.1219
 2221SOL     OW17881   9.069   3.158   0.915  0.4913 -0.5161 -0.0964
 2221SOL    HW117882   9.082   3.216   0.996 -4.1070  1.1704 -0.3997
 2221SOL    HW217883   9.070   3.215   0.833  0.3612 -1.5012 -0.7904
 2222SOL     OW17884   0.040   0.315   6.305 -0.0541  0.5606  0.2653
 2222SOL    HW117885  -0.014   0.388   6.346 -1.2784 -0.2708  0.1817
 2222SOL    HW217886   0.130   0.311   6.347 -0.3949  1.3716  1.0695
 2223SOL     OW17887   0.486   0.311   2.321  0.2089 -0.0734 -0.4271
 2223SOL    HW117888   0.393   0.302   2.284  0.2159  0.4820 -0.5957
 2223SOL    HW217889   0.547   0.344   2.249  0.2655  0.8344  0.0295
 2224SOL     OW17890   8.927   9.929   3.586  0.8854  0.2421  0.3815
 2224SOL    HW117891   8.972  10.017   3.599 -0.2585  0.8286  0.4142
 2224SOL    HW217892   8.862   9.936   3.511 -0.0822 -0.2398  1.1696
 2225SOL     OW17893   2.639   1.982   4.301 -0.0130 -0.4153  0.6204
 2225SOL    HW117894   2.705   1.913   4.270  0.9454  0.1552  1.3596
 2225SOL    HW217895   2.584   2.012   4.224  1.2206 -0.2217 -0.2061
 2226SOL     OW17896   1.962   3.712   1.188  0.0096 -0.5789 -0.1078
 2226SOL    HW117897   2.051   3.697   1.144  0.4230 -1.4423  0.9665
 2226SOL    HW217898   1.908   3.628   1.182 -1.3987  0.4354 -2.1682
 2227SOL     OW17899   0.329   5.311   1.919  0.0563 -0.4976  0.0260
 2227SOL    HW117900   0.364   5.224   1.885 -1.0515 -0.9587  0.0565
 2227SOL    HW217901   0.260   5.295   1.990 -0.4267  0.3956 -0.2280
 2228SOL     OW17902   5.269   8.180   1.887  0.8320  0.2113  0.6510
 2228SOL    HW117903   5.170   8.190   1.897  0.9501  0.3839  1.6651
 2228SOL    HW217904   5.315   8.250   1.941  1.4907  1.2782 -1.2505
 2229SOL     OW17905   8.535   8.690   5.082  0.3558 -0.0111 -0.0573
 2229SOL    HW117906   8.621   8.674   5.129 -0.0921 -1.0922  0.4116
 2229SOL    HW217907   8.535   8.782   5.043  1.3836  0.2923  0.6454
 2230SOL     OW17908   4.886   2.374   3.049  0.0388  0.5255 -0.2973
 2230SOL    HW117909   4.957   2.404   2.985 -0.3996  0.2887 -0.8918
 2230SOL    HW217910   4.797   2.379   3.005 -0.0769 -1.3975 -0.3167
 2231SOL     OW17911   5.493   1.787   1.853  1.0933 -1.0376 -0.9000
 2231SOL    HW117912   5.576   1.829   1.817  1.0120 -0.4660 -0.4161
 2231SOL    HW217913   5.518   1.711   1.913  1.3606  0.8232  1.4126
 2232SOL     OW17914   3.129   2.244   5.109  0.8563 -0.1013 -0.0633
 2232SOL    HW117915   3.204   2.235   5.174  0.8518 -1.1663 -0.1874
 2232SOL    HW217916   3.167   2.257   5.017  0.9025 -0.6423 -0.1261
 2233SOL     OW17917   4.281   6.020   2.292 -0.0416  0.3257  0.2813
 2233SOL    HW117918   4.355   6.076   2.254 -0.5188  0.6934 -0.1003
 2233SOL    HW217919   4.193   6.053   2.259 -0.2557 -1.4619 -0.9933
 2234SOL     OW17920   4.126   8.785   5.251  0.0708 -0.3355  0.1572
 2234SOL    HW117921   4.066   8.716   5.292 -0.4217 -1.6821 -2.7159
 2234SOL    HW217922   4.085   8.875   5.261 -1.3730 -0.9819  0.1885
 2235SOL     OW17923   3.867   5.284   3.649  0.0785 -0.0413 -0.3103
 2235SOL    HW117924   3.940   5.351   3.637  1.2308 -1.5553 -2.0273
 2235SOL    HW217925   3.796   5.299   3.580 -0.2795  0.2105  0.1140
 2236SOL     OW17926   2.039   6.843   1.249 -0.5011  0.2531 -0.1609
 2236SOL    HW117927   1.970   6.889   1.192  0.4062  1.3466 -0.3978
 2236SOL    HW217928   2.130   6.877   1.225 -0.0426  0.1954  1.4524
 2237SOL     OW17929   2.196   4.961   5.257 -0.3066 -0.3497 -0.1500
 2237SOL    HW117930   2.271   4.915   5.210  0.0320 -0.4897  0.5215
 2237SOL    HW217931   2.186   5.053   5.221 -0.7276 -0.8150 -1.2221
 2238SOL     OW17932   1.435   5.251   3.392  0.3444  0.1693  0.4740
 2238SOL    HW117933   1.470   5.159   3.375 -0.1599  0.4385 -2.2056
 2238SOL    HW217934   1.511   5.316   3.393  0.4077  0.1192 -0.6377
 2239SOL     OW17935   3.729   2.147   6.494 -0.4452  0.3955  0.1199
 2239SOL    HW117936   3.705   2.188   6.406  0.0290  2.8432  1.0747
 2239SOL    HW217937   3.828   2.149   6.506 -0.6518  3.1685  2.0445
 2240SOL     OW17938   8.878   4.040   4.901  0.4703 -0.2152  0.3156
 2240SOL    HW117939   8.870   4.047   5.000  0.4482  0.5622  0.2670
 2240SOL    HW217940   8.798   3.994   4.863  0.5072 -0.5622  0.6657
 2241SOL     OW17941   6.616   1.401   0.105  0.7247  0.0134 -0.1523
 2241SOL    HW117942   6.576   1.437   0.190 -0.4343  0.2020 -0.7681
 2241SOL    HW217943   6.554   1.420   0.029 -0.7590 -4.7595 -0.2750
 2242SOL     OW17944   2.556   6.613   3.133  0.0119  0.7304 -0.6132
 2242SOL    HW117945   2.641   6.638   3.179 -1.0204  1.7890  0.7592
 2242SOL    HW217946   2.555   6.515   3.114  1.4892  0.6990 -0.5647
 2243SOL     OW17947   2.941   4.609   0.599  0.3234  0.8786  0.0839
 2243SOL    HW117948   2.965   4.597   0.502  1.6147 -0.8150  0.5912
 2243SOL    HW217949   2.994   4.684   0.638  0.3109  1.1136 -0.3476
 2244SOL     OW17950   3.622   0.392   5.798 -0.5213 -0.4158 -0.2300
 2244SOL    HW117951   3.616   0.397   5.699 -0.4145 -0.0337 -0.2196
 2244SOL    HW217952   3.569   0.314   5.831 -0.2801 -0.7450 -0.6121
 2245SOL     OW17953   3.611   4.246   5.879  0.3568  0.2237  0.5923
 2245SOL    HW117954   3.666   4.246   5.962  0.8061 -0.7563  0.2938
 2245SOL    HW217955   3.563   4.159   5.871 -0.4100  0.6689  0.2984
 2246SOL     OW17956   2.758   3.930   5.508 -0.5763 -0.3238 -0.0994
 2246SOL    HW117957   2.748   3.921   5.409 -1.8442  0.8702 -0.0928
 2246SOL    HW217958   2.753   3.840   5.551  2.3068 -1.1072 -1.2941
 2247SOL     OW17959   5.280   1.562   5.794  0.1590  0.0584 -0.0415
 2247SOL    HW117960   5.311   1.507   5.872  1.3450 -0.1945 -0.6823
 2247SOL    HW217961   5.197   1.613   5.820 -0.3325 -1.1902  0.8969
 2248SOL     OW17962   7.974   2.811   0.311 -0.2680 -0.1578 -0.0136
 2248SOL    HW117963   8.058   2.865   0.305 -0.7963  0.5841 -0.8556
 2248SOL    HW217964   7.903   2.865   0.357 -1.0303  0.1719 -1.5512
 2249SOL     OW17965   2.132   9.375   1.077  0.5659  0.0586 -0.5893
 2249SOL    HW117966   2.166   9.417   1.161  0.1730 -0.3820 -0.2092
 2249SOL    HW217967   2.156   9.433   0.999  0.4959  0.7187 -0.1256
 2250SOL     OW17968   3.469   7.918   6.319  0.3369 -0.1651 -0.2269
 2250SOL    HW117969   3.436   7.828   6.291  2.2163 -0.7108 -0.7595
 2250SOL    HW217970   3.437   7.987   6.254 -1.2741 -0.4000  0.2941
 2251SOL     OW17971   0.291   3.542   5.026  0.7131 -0.4961  0.1571
 2251SOL    HW117972   0.309   3.524   4.930 -1.0549 -1.7862  0.0535
 2251SOL    HW217973   0.312   3.638   5.046 -0.1019  0.1120 -1.7959
 2252SOL     OW17974   1.445   3.598   0.497 -0.3187 -0.1278  0.1563
 2252SOL    HW117975   1.477   3.544   0.419  0.2293  0.7172 -0.2086
 2252SOL    HW217976   1.503   3.679   0.508 -0.1912 -0.4035  1.6348
 2253SOL     OW17977   4.467   3.440   6.376  0.7393 -0.2428  0.0145
 2253SOL    HW117978   4.497   3.532   6.350  0.4284 -0.2021 -0.2042
 2253SOL    HW217979   4.381   3.447   6.428 -0.5914 -0.5617 -2.0864
 2254SOL     OW17980   2.720   2.688   1.688  0.1890  0.0918 -0.0136
 2254SOL    HW117981   2.651   2.615   1.690 -0.8391  1.0692  0.9889
 2254SOL    HW217982   2.714   2.742   1.772  1.5087  0.8168 -0.3697
 2255SOL     OW17983   8.376   9.534   0.532 -0.6035 -0.3635  0.4581
 2255SOL    HW117984   8.406   9.628   0.518 -0.6272 -0.2318  1.2830
 2255SOL    HW217985   8.382   9.511   0.629 -1.3534 -0.9497  0.3701
 2256SOL     OW17986   8.278   3.607   0.812 -0.0130 -0.1423 -0.2047
 2256SOL    HW117987   8.345   3.554   0.865 -0.8072 -0.4220  0.5277
 2256SOL    HW217988   8.200   3.629   0.870 -0.2267  0.8257 -0.8484
 2257SOL     OW17989   0.889   6.486   4.164 -0.5666 -0.0198  0.3013
 2257SOL    HW117990   0.859   6.571   4.120 -0.2067  0.5578  1.1788
 2257SOL    HW217991   0.839   6.474   4.250  1.1081  0.5354  1.3782
 2258SOL     OW17992   9.689   9.819   1.915  0.3391 -0.3538 -0.0021
 2258SOL    HW117993   9.638   9.903   1.932  1.1175  0.3078 -0.9214
 2258SOL    HW217994   9.644   9.743   1.963 -0.1055  0.6520  1.2049
 2259SOL     OW17995   8.229   0.352   4.767  0.1713 -0.0529  0.2834
 2259SOL    HW117996   8.164   0.278   4.783 -0.5709  0.4531 -0.3351
 2259SOL    HW217997   8.183   0.427   4.719  1.0145  0.6416  0.5429
 2260SOL     OW17998   1.504   3.203   0.293 -0.0987  0.1739  0.0944
 2260SOL    HW117999   1.497   3.103   0.287 -0.6990  0.1342  1.3850
 2260SOL    HW218000   1.434   3.245   0.236 -0.1333 -0.1448 -0.0973
 2261SOL     OW18001   7.890   1.345   6.466  0.2310 -0.1340 -0.2738
 2261SOL    HW118002   7.910   1.416   6.535  0.1242  0.5419 -0.9313
 2261SOL    HW218003   7.857   1.389   6.383  1.3593 -0.8821 -1.1208
 2262SOL     OW18004   9.271   9.836   4.441 -0.3995 -0.0879 -0.0085
 2262SOL    HW118005   9.273   9.774   4.519 -1.3299  0.3486  0.3752
 2262SOL    HW218006   9.255   9.929   4.473  3.0537  0.7174 -0.3692
 2263SOL     OW18007   7.675   6.148   5.761 -0.0769 -0.0746 -0.5853
 2263SOL    HW118008   7.764   6.129   5.719 -0.1281  1.3138 -1.3698
 2263SOL    HW218009   7.665   6.247   5.773 -1.8564 -0.1628 -1.2673
 2264SOL     OW18010   2.653   1.046   0.251  0.1485 -0.1287  0.1299
 2264SOL    HW118011   2.660   1.123   0.188 -0.6651  0.0257  0.2169
 2264SOL    HW218012   2.740   1.034   0.298  0.9059 -0.5523 -1.3610
 2265SOL     OW18013   8.198   3.256   1.285 -0.1093 -0.0059  0.0939
 2265SOL    HW118014   8.123   3.258   1.352 -0.1905 -1.3396  0.0464
 2265SOL    HW218015   8.239   3.165   1.284  0.0204  0.0630 -1.5434
 2266SOL     OW18016   8.911   4.436   4.198  0.1017  0.0319  0.2161
 2266SOL    HW118017   8.895   4.489   4.115  1.3845  0.0858 -0.0141
 2266SOL    HW218018   8.824   4.411   4.239 -0.5345  0.8624 -0.6017
 2267SOL     OW18019   8.719   4.319   2.773  0.1684  1.0300  0.1329
 2267SOL    HW118020   8.685   4.240   2.723  0.7104  0.6269  0.3933
 2267SOL    HW218021   8.695   4.311   2.870 -0.5416  1.6171  0.0094
 2268SOL     OW18022   9.044   4.839   0.360  0.1588 -0.2104  0.4946
 2268SOL    HW118023   9.076   4.799   0.445  0.4261 -1.1002 -0.0113
 2268SOL    HW218024   9.112   4.824   0.288 -0.0991  0.4548  0.0999
 2269SOL     OW18025   9.325   7.915   5.703 -0.2013 -0.3548  0.1577
 2269SOL    HW118026   9.325   7.878   5.796  0.3484  0.2135  0.3892
 2269SOL    HW218027   9.323   7.840   5.637 -3.5083 -0.7455  0.6164
 2270SOL     OW18028   0.967   6.365   1.413 -0.3902  0.0251 -0.7619
 2270SOL    HW118029   0.927   6.455   1.431  1.4239  0.6917  0.0420
 2270SOL    HW218030   0.921   6.297   1.470  2.3402  1.4441  3.4156
 2271SOL     OW18031   1.260   4.392   3.638 -0.1122  0.1112  1.0662
 2271SOL    HW118032   1.165   4.422   3.634  0.1460  0.7087 -1.8701
 2271SOL    HW218033   1.316   4.462   3.683 -0.6216  0.9761  0.3573
 2272SOL     OW18034   9.378   8.449   1.701  0.1377  0.4750  0.2518
 2272SOL    HW118035   9.366   8.472   1.604  0.7495  0.5019  0.1789
 2272SOL    HW218036   9.396   8.533   1.752 -3.0469  0.8606  0.8650
 2273SOL     OW18037   8.614   1.114   5.340 -0.4145  0.2263  0.0034
 2273SOL    HW118038   8.570   1.186   5.286 -1.2706 -1.8422 -2.1446
 2273SOL    HW218039   8.591   1.126   5.436 -0.5763  2.7869 -0.3157
 2274SOL     OW18040   9.733   7.340   5.351 -0.0109 -0.4949  0.0424
 2274SOL    HW118041   9.700   7.261   5.402 -1.0588  0.0867  0.3052
 2274SOL    HW218042   9.790   7.397   5.410 -1.6997  0.4850  0.8022
 2275SOL     OW18043   4.306   9.637   4.691  0.4776 -0.2170  0.4855
 2275SOL    HW118044   4.224   9.639   4.749 -0.9030  0.5542 -1.4187
 2275SOL    HW218045   4.291   9.571   4.616  2.0553 -0.9004  0.7672
 2276SOL     OW18046   2.167   6.860   2.038  0.2915  0.3059  0.4246
 2276SOL    HW118047   2.210   6.913   1.965 -2.0006 -1.3756 -2.3052
 2276SOL    HW218048   2.206   6.768   2.040 -1.6411 -0.5739 -0.6993
 2277SOL     OW18049   9.893   5.429   5.473  0.2292  0.6799 -0.1266
 2277SOL    HW118050   9.851   5.424   5.563  0.1518 -0.1156 -0.2077
 2277SOL    HW218051   9.826   5.405   5.403 -0.0450  2.4285 -0.4993
 2278SOL     OW18052   9.540   1.500   2.512  0.8864 -0.1180 -0.2683
 2278SOL    HW118053   9.444   1.516   2.487  0.2865 -0.8856  1.4742
 2278SOL    HW218054   9.586   1.450   2.439 -0.8592 -2.4719  0.2115
 2279SOL     OW18055   7.489   7.088   5.391 -0.3482 -0.7638  0.2089
 2279SOL    HW118056   7.420   7.032   5.345 -0.7750 -0.5418  0.5775
 2279SOL    HW218057   7.579   7.044   5.383 -0.6262 -1.3385  0.2141
 2280SOL     OW18058   9.750   3.168   3.188  0.2111 -0.1911 -0.1196
 2280SOL    HW118059   9.762   3.152   3.090  0.7549 -0.8134  0.0411
 2280SOL    HW218060   9.823   3.121   3.239  0.0025  0.2236  0.5766
 2281SOL     OW18061   2.779   9.468   0.499 -0.4078 -0.5916 -0.1834
 2281SOL    HW118062   2.843   9.544   0.486 -0.3606 -0.2506  1.7902
 2281SOL    HW218063   2.705   9.498   0.559 -0.2359 -2.1844  0.8344
 2282SOL     OW18064   0.127   0.936   3.860 -0.1754 -0.5271  0.3005
 2282SOL    HW118065   0.114   1.029   3.827  0.7123  0.1305  1.7983
 2282SOL    HW218066   0.058   0.915   3.929  0.4413 -0.5309  0.9165
 2283SOL     OW18067   9.725   8.129   2.634 -0.5776 -0.3551 -0.2193
 2283SOL    HW118068   9.792   8.089   2.697  0.6479  3.3241  0.9535
 2283SOL    HW218069   9.771   8.154   2.548 -0.6429  1.1181  0.1521
 2284SOL     OW18070   8.547   3.645   1.134 -0.9098 -0.2545 -0.3278
 2284SOL    HW118071   8.493   3.567   1.166 -0.2020 -0.6272 -0.0250
 2284SOL    HW218072   8.616   3.613   1.069 -1.0296  0.2101 -0.6788
 2285SOL     OW18073   4.947   4.323   4.715  0.1590  0.5118  0.2986
 2285SOL    HW118074   4.905   4.247   4.763 -2.5443  1.1182 -1.0282
 2285SOL    HW218075   4.944   4.307   4.617  0.7289  1.7435  0.0653
 2286SOL     OW18076   9.746   6.986   2.815 -0.3652 -0.2669  0.7934
 2286SOL    HW118077   9.738   7.055   2.743 -0.4050 -0.8821  0.2025
 2286SOL    HW218078   9.657   6.944   2.831 -0.4337  0.1381  1.4713
 2287SOL     OW18079   8.085   5.956   2.671 -0.1891 -0.5260  0.2265
 2287SOL    HW118080   8.023   5.986   2.743 -1.7497 -1.2755 -0.7976
 2287SOL    HW218081   8.077   5.858   2.658 -0.1492 -0.3570 -1.1917
 2288SOL     OW18082   8.206   0.269   0.546 -0.0202 -0.5370 -0.3698
 2288SOL    HW118083   8.200   0.253   0.644  2.6653  1.5803  0.1785
 2288SOL    HW218084   8.293   0.234   0.511 -0.3039  0.0687 -1.7237
 2289SOL     OW18085   1.502   5.099   6.425  0.1053 -0.0947  0.4175
 2289SOL    HW118086   1.434   5.125   6.356 -0.8928  0.9460  1.7861
 2289SOL    HW218087   1.544   5.012   6.398 -1.7086 -0.7323 -0.4782
 2290SOL     OW18088   8.259   6.666   6.186 -0.5790 -0.0860 -0.4627
 2290SOL    HW118089   8.270   6.595   6.255  1.4306  0.6830  0.0410
 2290SOL    HW218090   8.261   6.625   6.095 -1.4527 -0.8924 -0.1266
 2291SOL     OW18091   8.861   5.609   5.862  0.5396 -0.4330  0.2196
 2291SOL    HW118092   8.897   5.574   5.948 -0.1986  0.4127  0.8766
 2291SOL    HW218093   8.921   5.682   5.828  0.8634 -0.8080 -0.0113
 2292SOL     OW18094   8.572   2.828   1.252 -0.6373 -0.4872  0.0405
 2292SOL    HW118095   8.499   2.761   1.268 -1.0794 -0.1338 -0.4630
 2292SOL    HW218096   8.596   2.872   1.339  0.6847 -2.3267  0.6430
 2293SOL     OW18097   2.609   0.125   3.764  0.1645  0.2336  0.1180
 2293SOL    HW118098   2.537   0.137   3.833 -0.5054  1.2122 -0.7414
 2293SOL    HW218099   2.614   0.029   3.737  1.3804 -0.4345  2.5460
 2294SOL     OW18100   1.854   9.071   4.327  0.3451  0.0947 -0.0359
 2294SOL    HW118101   1.798   9.131   4.269  1.2393  0.3566 -0.6283
 2294SOL    HW218102   1.818   8.978   4.323  0.3326  0.1402 -0.8985
 2295SOL     OW18103   0.539   5.195   4.607  0.3470  0.5957 -0.0046
 2295SOL    HW118104   0.511   5.247   4.687 -0.6117  1.9084 -1.1626
 2295SOL    HW218105   0.552   5.099   4.632 -3.6319  0.2257  0.9573
 2296SOL     OW18106   4.952   8.707   3.185 -0.2921  0.2342 -0.1201
 2296SOL    HW118107   4.892   8.727   3.108 -0.3155  0.1145 -0.1339
 2296SOL    HW218108   5.004   8.788   3.210 -1.5232  0.7448  0.8272
 2297SOL     OW18109   3.455   9.857   4.818  0.0989  0.8993 -0.0706
 2297SOL    HW118110   3.360   9.833   4.835  0.1023  0.4331 -0.6656
 2297SOL    HW218111   3.515   9.789   4.861  0.1460  0.8167 -0.2645
 2298SOL     OW18112   7.060   8.999   4.283 -0.1487 -0.3790  0.1959
 2298SOL    HW118113   7.061   9.073   4.350 -1.0781 -0.7238  0.6026
 2298SOL    HW218114   7.146   8.947   4.289 -0.7884 -1.2861  2.1200
 2299SOL     OW18115   4.686   9.230   4.275 -0.0776 -0.1182  0.6202
 2299SOL    HW118116   4.612   9.174   4.240  0.5188 -0.5751  0.0811
 2299SOL    HW218117   4.658   9.326   4.278 -0.6668 -0.2846  0.3815
 2300SOL     OW18118   8.265   4.054   1.275  0.5076  0.1695  0.2259
 2300SOL    HW118119   8.213   4.050   1.190  0.4014  2.9122  0.1413
 2300SOL    HW218120   8.357   4.017   1.260  0.6488  1.0722 -1.1954
 2301SOL     OW18121   6.115   7.816   5.280 -0.3598  0.0597  0.2543
 2301SOL    HW118122   6.172   7.810   5.362 -0.1513 -2.2233 -0.0186
 2301SOL    HW218123   6.159   7.875   5.212  1.0364 -0.6274  0.5518
 2302SOL     OW18124   4.042   2.903   3.120  0.1765  0.6242 -0.2626
 2302SOL    HW118125   4.141   2.898   3.127 -0.0737 -2.0846  2.4519
 2302SOL    HW218126   4.008   2.978   3.177  0.6830  1.9776 -1.7215
 2303SOL     OW18127   5.896   8.146   4.920 -0.5766 -0.6886  0.1580
 2303SOL    HW118128   5.873   8.222   4.859 -0.8276 -1.5445 -0.8243
 2303SOL    HW218129   5.896   8.179   5.014  1.8133  1.1538 -0.4201
 2304SOL     OW18130   8.157   0.023   2.702  0.4409 -0.3648  0.5478
 2304SOL    HW118131   8.147   0.006   2.604  0.4682  1.0750  0.2831
 2304SOL    HW218132   8.106   0.105   2.727  0.0876 -0.9519  1.8265
 2305SOL     OW18133   8.858   0.927   2.698  0.4643 -0.4473 -0.2390
 2305SOL    HW118134   8.925   0.929   2.624  2.3218  0.8395  1.4093
 2305SOL    HW218135   8.814   1.017   2.705  0.6603 -0.4086  0.5217
 2306SOL     OW18136   2.390   5.221   2.754 -0.4634  0.3093  0.0249
 2306SOL    HW118137   2.416   5.307   2.709  0.7604 -0.7945 -1.4580
 2306SOL    HW218138   2.364   5.154   2.684 -2.7015 -0.1365  1.2417
 2307SOL     OW18139   3.269   7.691   1.848  0.3130 -0.5556 -0.0584
 2307SOL    HW118140   3.324   7.716   1.927  0.5813  1.0486 -0.7247
 2307SOL    HW218141   3.173   7.682   1.875  0.4383 -0.2280  0.4989
 2308SOL     OW18142   0.989   0.717   5.875 -0.0627  0.0654 -0.2151
 2308SOL    HW118143   0.986   0.618   5.880 -0.4951  0.0830 -0.0918
 2308SOL    HW218144   1.066   0.751   5.928  0.1487 -0.2094 -0.3453
 2309SOL     OW18145   9.968   9.998   6.091 -0.2811 -0.4566  0.4526
 2309SOL    HW118146  10.025   9.925   6.053  1.7568  0.6406  1.3092
 2309SOL    HW218147  10.012  10.086   6.075 -1.8336  0.4366  0.9942
 2310SOL     OW18148   6.547   1.925   3.656 -0.2130  0.1090 -0.3690
 2310SOL    HW118149   6.619   1.859   3.679 -0.6082  0.2634  1.3546
 2310SOL    HW218150   6.459   1.889   3.686 -0.6721  0.6074 -1.1069
 2311SOL     OW18151   5.316   2.186   1.888  0.1485  0.4324  0.2374
 2311SOL    HW118152   5.342   2.173   1.792  0.9232 -0.6445  0.5838
 2311SOL    HW218153   5.377   2.133   1.946 -1.6573 -0.6408  1.2039
 2312SOL     OW18154   8.142   1.600   0.975  0.4159  0.4016 -0.3949
 2312SOL    HW118155   8.119   1.688   1.016 -1.9887  0.3696 -1.6509
 2312SOL    HW218156   8.062   1.561   0.930  2.1610 -1.1320 -2.2781
 2313SOL     OW18157   3.291   2.141   3.607  0.8896 -0.1995 -0.1736
 2313SOL    HW118158   3.336   2.093   3.683 -1.1449 -2.6259 -0.4337
 2313SOL    HW218159   3.345   2.130   3.524  1.5266 -0.2013  0.2334
 2314SOL     OW18160   0.001   1.921   6.709  0.3552  0.3559  0.1344
 2314SOL    HW118161   0.082   1.973   6.681 -0.7207  0.9801 -1.9924
 2314SOL    HW218162   0.024   1.824   6.715  1.9406  0.8467  2.3385
 2315SOL     OW18163   8.652   6.063   0.056  0.3501  0.4164 -0.2083
 2315SOL    HW118164   8.671   6.105   0.145 -0.8933 -0.4693  0.4960
 2315SOL    HW218165   8.678   5.966   0.059  1.5218  0.6796 -1.2432
 2316SOL     OW18166   7.145   2.427   4.644 -0.6636  0.3552 -0.7339
 2316SOL    HW118167   7.106   2.353   4.700 -0.5751  0.4004 -0.6131
 2316SOL    HW218168   7.083   2.447   4.569 -0.5601 -0.0260 -0.9220
 2317SOL     OW18169   8.954   1.370   2.238  0.1515  0.1439 -0.0711
 2317SOL    HW118170   8.891   1.319   2.179  0.8536  0.8404 -1.4340
 2317SOL    HW218171   8.952   1.330   2.330 -2.2903  0.1930 -0.0834
 2318SOL     OW18172   7.330   3.461   4.484  0.4859 -0.0160 -0.2576
 2318SOL    HW118173   7.348   3.490   4.578  1.4734 -0.3485 -0.3356
 2318SOL    HW218174   7.298   3.366   4.484  1.1796 -0.2531 -0.3062
 2319SOL     OW18175   1.515   2.168   5.540 -0.2247  0.0394  0.0139
 2319SOL    HW118176   1.440   2.220   5.582  0.9768  1.1043  0.9040
 2319SOL    HW218177   1.596   2.174   5.599  0.6218 -0.8933 -1.0475
 2320SOL     OW18178   2.651   2.606   3.400 -0.1505  0.1297  0.0270
 2320SOL    HW118179   2.688   2.652   3.480  1.5214 -0.0277 -0.6275
 2320SOL    HW218180   2.637   2.672   3.326 -1.1554  0.1794  0.2537
 2321SOL     OW18181   1.787   9.701   1.635 -0.4198  0.3562 -0.5208
 2321SOL    HW118182   1.722   9.685   1.560 -2.0165  0.2955  0.8600
 2321SOL    HW218183   1.820   9.613   1.670 -0.1233  0.3704 -0.7651
 2322SOL     OW18184   1.617   1.054   4.139  0.2624  0.0330 -0.0398
 2322SOL    HW118185   1.691   1.056   4.206  1.1046 -2.0327 -0.8693
 2322SOL    HW218186   1.553   0.981   4.161  1.1149 -1.3697 -2.0063
 2323SOL     OW18187   1.082   5.123   1.272  0.2508  0.4980  0.9344
 2323SOL    HW118188   1.119   5.109   1.364 -0.6636 -1.4250  1.0414
 2323SOL    HW218189   1.079   5.035   1.224 -2.2409  0.9481  0.2056
 2324SOL     OW18190   0.345   0.516   3.017  0.8686 -0.0968 -0.3817
 2324SOL    HW118191   0.307   0.439   3.068  0.0861  0.3521 -0.2783
 2324SOL    HW218192   0.278   0.589   3.012  1.4439  0.4071 -0.8708
 2325SOL     OW18193   8.709   9.739   5.997 -0.0658 -0.1581  0.1803
 2325SOL    HW118194   8.623   9.717   6.042  0.7445  1.6129  2.6790
 2325SOL    HW218195   8.776   9.667   6.015 -0.8481 -1.3166 -1.3974
 2326SOL     OW18196   9.339   3.516   0.297 -0.1778 -0.1110 -0.3429
 2326SOL    HW118197   9.332   3.595   0.358  1.3338  1.9866 -2.7581
 2326SOL    HW218198   9.427   3.470   0.311  0.9943  1.4976 -2.1581
 2327SOL     OW18199   7.972   5.602   3.050 -0.1944  0.2095  0.0250
 2327SOL    HW118200   7.992   5.590   3.147 -0.3580 -1.3171 -0.1179
 2327SOL    HW218201   7.984   5.698   3.025  1.6435  0.2941  1.1546
 2328SOL     OW18202   0.627   5.692   1.838  0.6137  0.2547 -0.0846
 2328SOL    HW118203   0.670   5.615   1.791 -1.3006  0.1618 -1.7779
 2328SOL    HW218204   0.567   5.659   1.910  0.8572  0.2249  0.1034
 2329SOL     OW18205   9.446   5.294   4.994 -0.2252  0.0002 -0.0682
 2329SOL    HW118206   9.428   5.201   5.028 -2.3342  0.0669 -0.8901
 2329SOL    HW218207   9.361   5.333   4.960  0.9080  1.7722 -0.9167
 2330SOL     OW18208   3.247   3.783   0.061 -0.2209 -0.4542  0.6359
 2330SOL    HW118209   3.194   3.851   0.112 -0.0486  1.0203 -1.1197
 2330SOL    HW218210   3.201   3.763  -0.025  0.6637 -1.2486  0.3424
 2331SOL     OW18211   1.041   0.917   3.518 -0.2611  0.4900  0.1790
 2331SOL    HW118212   1.076   0.920   3.425  0.1304  2.3739  0.3686
 2331SOL    HW218213   0.956   0.865   3.521  0.5196 -0.8639 -0.9526
 2332SOL     OW18214   4.815   8.100   2.070 -0.9708 -0.6457  0.3145
 2332SOL    HW118215   4.752   8.092   2.147 -1.9164 -3.5647 -0.7067
 2332SOL    HW218216   4.894   8.040   2.085  1.3076  2.4526  1.2555
 2333SOL     OW18217   2.584   7.079   0.806  0.1605 -0.3380 -0.1712
 2333SOL    HW118218   2.500   7.117   0.767  0.4569 -0.3970 -0.8844
 2333SOL    HW218219   2.562   6.996   0.857 -0.2401 -0.2454 -0.1869
 2334SOL     OW18220   2.953   2.275   4.146 -0.5450 -0.3293  0.2825
 2334SOL    HW118221   2.871   2.310   4.102 -1.0681  0.3345  1.7620
 2334SOL    HW218222   2.959   2.176   4.133 -1.2274 -0.2787 -0.3940
 2335SOL     OW18223   3.141   8.725   1.811  0.7467 -0.4567  0.6044
 2335SOL    HW118224   3.069   8.780   1.854  1.4764  0.9257  0.1112
 2335SOL    HW218225   3.221   8.723   1.870  0.9330 -0.4839  0.3510
 2336SOL     OW18226   7.611   2.942   4.288 -0.0501 -0.0977 -1.0935
 2336SOL    HW118227   7.690   2.999   4.265 -1.1336  1.7844 -0.3328
 2336SOL    HW218228   7.545   2.945   4.213  0.1059 -0.7548 -1.2569
 2337SOL     OW18229   1.065   0.501   0.311  0.6926  0.1504 -0.0866
 2337SOL    HW118230   1.111   0.413   0.317 -0.1438 -0.2715  0.1555
 2337SOL    HW218231   1.111   0.558   0.242  0.1036 -1.1503 -1.5807
 2338SOL     OW18232   2.451   3.222   4.005 -0.2367  0.3991  0.0525
 2338SOL    HW118233   2.394   3.234   3.924 -0.1727  0.9608  0.0823
 2338SOL    HW218234   2.428   3.137   4.051 -1.4441  0.8868  0.3688
 2339SOL     OW18235   2.239   8.332   5.153 -0.0413 -0.6906 -0.4845
 2339SOL    HW118236   2.307   8.263   5.174  0.2693 -0.1349  0.3454
 2339SOL    HW218237   2.176   8.342   5.230  0.6681  0.8299 -0.0719
 2340SOL     OW18238   7.941   1.003   5.552  0.3043 -0.5898 -0.1024
 2340SOL    HW118239   7.848   1.039   5.546 -0.2491 -1.4535  2.4440
 2340SOL    HW218240   7.936   0.903   5.564  1.5658 -0.6277  0.1004
 2341SOL     OW18241   2.179   9.034   3.823 -0.2062 -0.0178 -0.0279
 2341SOL    HW118242   2.101   9.064   3.879 -0.3771  0.2628 -0.4091
 2341SOL    HW218243   2.262   9.034   3.879  0.1460  2.9378 -0.4282
 2342SOL     OW18244   8.291   2.020   0.528 -0.1958 -0.2903 -0.2037
 2342SOL    HW118245   8.306   1.977   0.616  1.8765  1.0909  0.1573
 2342SOL    HW218246   8.360   1.990   0.463 -1.2426 -0.7078 -1.1535
 2343SOL     OW18247   2.584   5.721   4.675  0.0074 -0.2544 -0.1989
 2343SOL    HW118248   2.597   5.802   4.618 -0.7824 -0.1266 -0.2064
 2343SOL    HW218249   2.505   5.735   4.735  0.2898 -0.7439  0.2894
 2344SOL     OW18250   4.404   8.593   1.365 -0.4118  0.1085 -0.2286
 2344SOL    HW118251   4.331   8.629   1.305 -1.4720  1.2841  1.6917
 2344SOL    HW218252   4.438   8.667   1.423  1.0331 -0.8662  0.1877
 2345SOL     OW18253   3.562   1.419   4.408  0.8022 -0.1359  0.4055
 2345SOL    HW118254   3.467   1.427   4.437  0.2721  0.5500 -1.4687
 2345SOL    HW218255   3.618   1.390   4.486 -1.2074 -2.3474  1.0845
 2346SOL     OW18256   4.526   2.782   5.326  0.0597 -0.3344 -0.2770
 2346SOL    HW118257   4.587   2.703   5.327  2.0845  1.1943  0.2423
 2346SOL    HW218258   4.522   2.820   5.234  0.4879  0.0122 -0.1531
 2347SOL     OW18259   0.253   0.116   1.858 -0.4042  0.5331  0.0460
 2347SOL    HW118260   0.189   0.073   1.921 -0.8751  3.5119  1.6804
 2347SOL    HW218261   0.331   0.153   1.908  0.1768  1.2553 -1.3506
 2348SOL     OW18262   3.361   7.671   3.555 -0.4217  0.2691  0.5941
 2348SOL    HW118263   3.309   7.692   3.472  0.9595  0.8563 -0.1412
 2348SOL    HW218264   3.392   7.756   3.597 -1.8189  0.0248  2.2100
 2349SOL     OW18265   9.098   7.142   1.909 -0.0298  0.2557 -0.0736
 2349SOL    HW118266   9.070   7.142   1.813 -1.1816  1.6293  0.2460
 2349SOL    HW218267   9.167   7.212   1.924  1.1209 -0.8396 -0.1541
 2350SOL     OW18268   1.239   0.886   0.900  0.4948  0.2856 -0.2843
 2350SOL    HW118269   1.185   0.820   0.848  0.1200  0.1811  0.2327
 2350SOL    HW218270   1.300   0.838   0.962  1.1534  0.4052 -0.8319
 2351SOL     OW18271   9.435   7.570   3.162 -0.0543  0.0166  0.6540
 2351SOL    HW118272   9.476   7.614   3.242  1.2732  1.4062 -0.7431
 2351SOL    HW218273   9.504   7.515   3.115  0.1273  1.8761 -1.3729
 2352SOL     OW18274   7.120   8.821   5.187 -0.0971 -0.0264 -0.2238
 2352SOL    HW118275   7.161   8.829   5.096  0.4018 -1.3885 -0.1191
 2352SOL    HW218276   7.173   8.875   5.252  1.0648 -1.1255 -0.2497
 2353SOL     OW18277   5.892   1.020   4.321  0.2378 -0.3922 -0.1361
 2353SOL    HW118278   5.882   1.105   4.372  0.7444 -1.5669  1.9641
 2353SOL    HW218279   5.805   0.970   4.321  0.9432 -1.6927  1.9962
 2354SOL     OW18280   7.809   7.875   2.878 -0.2234  0.1356  0.3114
 2354SOL    HW118281   7.843   7.945   2.942 -1.3049  1.1771 -0.2200
 2354SOL    HW218282   7.808   7.913   2.785  0.2675 -0.9856 -0.1527
 2355SOL     OW18283   8.971   1.791   1.053 -0.0867 -0.2524 -0.7824
 2355SOL    HW118284   8.940   1.869   0.998  0.7219  1.4805  1.1251
 2355SOL    HW218285   9.023   1.825   1.132  0.0592 -2.7292  0.2347
 2356SOL     OW18286   0.138   6.589   0.545  0.3543  0.1214  0.1943
 2356SOL    HW118287   0.215   6.543   0.501  0.3923  0.5900 -0.2454
 2356SOL    HW218288   0.082   6.634   0.475 -0.4131 -0.3515  0.4930
 2357SOL     OW18289   3.557   5.653   0.923  0.3793 -0.1553  0.4731
 2357SOL    HW118290   3.626   5.724   0.935  0.4343 -0.2704  0.8237
 2357SOL    HW218291   3.601   5.567   0.899  0.2171  0.2792 -1.4771
 2358SOL     OW18292   8.522   2.563   3.440 -0.6525  0.7248  0.5252
 2358SOL    HW118293   8.556   2.508   3.364  0.0250  1.7917  0.0505
 2358SOL    HW218294   8.425   2.583   3.426 -1.3632 -1.7814  1.5670
 2359SOL     OW18295   5.759   7.966   2.198  0.1606 -0.4260  0.5670
 2359SOL    HW118296   5.842   7.922   2.232 -0.0865 -0.3448  1.3079
 2359SOL    HW218297   5.749   8.056   2.241  0.6185  0.3247 -0.8821
 2360SOL     OW18298   1.208   2.261   5.661  0.0909 -0.3296  0.0455
 2360SOL    HW118299   1.155   2.188   5.618 -1.9554  2.4428 -2.3400
 2360SOL    HW218300   1.162   2.292   5.744 -0.2810 -0.2124 -0.2031
 2361SOL     OW18301   3.711   4.633   5.888  0.2577 -0.0473 -0.1010
 2361SOL    HW118302   3.637   4.699   5.876  0.5609 -0.0087 -1.9287
 2361SOL    HW218303   3.790   4.679   5.928  0.4333  0.6761 -1.2770
 2362SOL     OW18304   6.331   0.608   2.992 -0.1829  0.0926 -0.0017
 2362SOL    HW118305   6.329   0.573   2.898 -0.9502  1.0137 -0.3456
 2362SOL    HW218306   6.325   0.708   2.990  1.2283  0.2089  0.9857
 2363SOL     OW18307   7.923   8.636   4.562  0.3531 -0.4275  0.2070
 2363SOL    HW118308   7.983   8.715   4.573 -0.5706  0.4210 -0.7091
 2363SOL    HW218309   7.957   8.579   4.488 -0.0312  0.1106 -0.3851
 2364SOL     OW18310   2.364   9.146   5.780  0.0462  0.4538 -0.2316
 2364SOL    HW118311   2.441   9.088   5.754 -0.2656 -0.8063  1.5412
 2364SOL    HW218312   2.305   9.161   5.701  1.5384  0.5504 -1.3467
 2365SOL     OW18313   9.450   5.008   2.461  0.2053 -0.0333 -0.2054
 2365SOL    HW118314   9.359   5.025   2.500 -0.3986 -0.1735 -1.5286
 2365SOL    HW218315   9.499   4.942   2.518 -0.6243 -0.1694  0.3637
 2366SOL     OW18316   5.144   3.624   0.473  0.0127  0.1165  0.1075
 2366SOL    HW118317   5.223   3.609   0.413 -0.7023 -0.2392 -0.7691
 2366SOL    HW218318   5.109   3.535   0.503 -0.4550  0.2480 -0.0499
 2367SOL     OW18319   3.983   8.091   1.903 -0.0181 -0.3083 -0.6903
 2367SOL    HW118320   3.896   8.139   1.889 -0.3899 -1.0246 -0.8954
 2367SOL    HW218321   4.058   8.148   1.871 -0.5586 -0.4012 -2.1515
 2368SOL     OW18322   2.674   7.339   0.113  0.0704 -0.6008  0.2280
 2368SOL    HW118323   2.731   7.264   0.145 -1.7058 -1.8265  0.6319
 2368SOL    HW218324   2.618   7.307   0.036  0.7069  0.8918 -0.8834
 2369SOL     OW18325   3.111   0.967   3.923  0.0940  0.0554  0.5373
 2369SOL    HW118326   3.126   1.056   3.966  0.6084  0.4793 -0.5034
 2369SOL    HW218327   3.141   0.895   3.986 -0.0327  0.6242  1.2616
 2370SOL     OW18328   1.190   4.961   1.790  0.6154 -0.3259  0.2238
 2370SOL    HW118329   1.149   5.005   1.869  0.5275  1.8145 -0.9857
 2370SOL    HW218330   1.290   4.960   1.801  0.6719  0.9583 -0.1338
 2371SOL     OW18331   2.674   4.446   1.428  1.0814 -0.1358 -0.0320
 2371SOL    HW118332   2.772   4.450   1.408  1.1341 -0.3569  0.1863
 2371SOL    HW218333   2.656   4.371   1.491  0.6312 -0.7619 -0.8875
 2372SOL     OW18334   1.566   1.569   0.327  0.0771 -0.4868 -0.4657
 2372SOL    HW118335   1.544   1.663   0.300  0.2107 -0.9931 -2.3892
 2372SOL    HW218336   1.663   1.551   0.307 -0.3795 -1.5822 -1.7153
 2373SOL     OW18337   7.303   8.250   5.103  0.7464  0.1316 -0.1872
 2373SOL    HW118338   7.338   8.293   5.019  1.4495  0.2343  0.1572
 2373SOL    HW218339   7.259   8.320   5.159  2.0206  0.4426  0.4414
 2374SOL     OW18340   8.816   6.565   6.000 -0.6912  0.0799 -0.2751
 2374SOL    HW118341   8.787   6.471   6.016 -0.8074  0.0685 -0.5345
 2374SOL    HW218342   8.758   6.605   5.928 -0.2333  0.1425 -0.6066
 2375SOL     OW18343   4.876   2.439   2.301  0.0885  0.4431  0.3497
 2375SOL    HW118344   4.910   2.353   2.340 -1.3761  0.0916  0.9017
 2375SOL    HW218345   4.946   2.479   2.242  0.4656 -1.5742 -0.6197
 2376SOL     OW18346   2.407   7.379   0.512  0.9293 -0.1947 -0.2550
 2376SOL    HW118347   2.378   7.330   0.430 -0.4820 -0.0510  0.1385
 2376SOL    HW218348   2.378   7.474   0.506 -0.5054 -0.5356  1.0591
 2377SOL     OW18349   0.470   6.227   4.466 -0.4826 -0.3740 -0.0595
 2377SOL    HW118350   0.493   6.148   4.523 -3.0495 -0.8421  0.3689
 2377SOL    HW218351   0.440   6.196   4.376  1.1320  0.2583 -0.8301
 2378SOL     OW18352   6.217   8.272   2.771  0.8314  0.1301  0.5441
 2378SOL    HW118353   6.130   8.280   2.722 -0.1736  0.7747  2.3545
 2378SOL    HW218354   6.292   8.301   2.711 -0.0656 -1.4680 -1.3930
 2379SOL     OW18355   5.533   2.913   3.969 -0.2809  0.3334 -0.6823
 2379SOL    HW118356   5.587   2.896   3.887  0.4664  1.4578 -0.4197
 2379SOL    HW218357   5.440   2.878   3.955 -0.4682  1.4704 -2.4025
 2380SOL     OW18358   5.911   0.187   2.394 -0.1301 -0.4122  1.0676
 2380SOL    HW118359   6.000   0.227   2.415 -0.1197  0.7436 -0.9944
 2380SOL    HW218360   5.916   0.088   2.405  1.7075 -0.4586  0.0975
 2381SOL     OW18361   4.414   3.729   3.002 -0.2260 -0.2444 -0.3850
 2381SOL    HW118362   4.351   3.676   2.946 -3.8340 -0.2408  3.4463
 2381SOL    HW218363   4.493   3.672   3.025 -0.9772 -1.8026 -1.5377
 2382SOL     OW18364   1.962   8.012   1.048 -0.1307  0.2847  0.3179
 2382SOL    HW118365   1.946   7.975   0.957 -1.8577  2.2663 -0.2143
 2382SOL    HW218366   1.890   7.981   1.110  0.9349 -0.9073  0.9981
 2383SOL     OW18367   4.932   9.109   2.063  0.4492 -0.7313  0.1836
 2383SOL    HW118368   4.889   9.019   2.050  3.1296 -1.9005 -0.9743
 2383SOL    HW218369   5.031   9.097   2.074  1.0008  2.1852 -1.2633
 2384SOL     OW18370   0.314   3.750   2.080 -0.5743 -0.4864  0.1535
 2384SOL    HW118371   0.393   3.768   2.139 -0.8390 -1.7449  0.9134
 2384SOL    HW218372   0.343   3.752   1.984  0.9763 -3.5483  0.4926
 2385SOL     OW18373   0.691   9.726   6.448 -0.1411 -0.1771 -0.0928
 2385SOL    HW118374   0.777   9.706   6.494 -0.5391 -1.6672  0.0197
 2385SOL    HW218375   0.658   9.816   6.477  0.4132 -0.4134  1.2883
 2386SOL     OW18376   1.269   5.783   6.716 -0.2415 -0.3927  0.6619
 2386SOL    HW118377   1.343   5.735   6.763  0.6072 -0.5482 -0.8020
 2386SOL    HW218378   1.196   5.718   6.693 -0.7538 -0.2827  1.8951
 2387SOL     OW18379   1.011   3.330   5.395  0.3860  0.8422 -0.1143
 2387SOL    HW118380   1.100   3.360   5.428  1.0904  0.0297 -1.2487
 2387SOL    HW218381   1.023   3.255   5.329 -1.3518 -2.9218  3.6039
 2388SOL     OW18382   9.374   7.096   1.334  0.6267  0.6037  0.4891
 2388SOL    HW118383   9.449   7.033   1.313  0.0631 -0.2448  1.0303
 2388SOL    HW218384   9.410   7.174   1.386  1.2679  0.5700  0.0981
 2389SOL     OW18385   4.666   3.806   5.145 -0.0427  0.4961 -0.9158
 2389SOL    HW118386   4.722   3.855   5.212  1.7422 -2.5120 -0.0783
 2389SOL    HW218387   4.592   3.758   5.192  0.0052  0.0159 -1.3187
 2390SOL     OW18388   3.260   0.571   1.347 -0.5798  0.2507 -1.3231
 2390SOL    HW118389   3.321   0.597   1.422 -0.7786  0.6901 -1.3101
 2390SOL    HW218390   3.230   0.653   1.298 -2.6265  0.2168 -0.1841
 2391SOL     OW18391   3.762   5.690   3.379  0.0844 -0.9737 -0.3764
 2391SOL    HW118392   3.715   5.606   3.404  1.9201 -1.8931  0.1289
 2391SOL    HW218393   3.831   5.670   3.309 -0.7466  0.4602 -1.6313
 2392SOL     OW18394   8.350   3.837   3.141 -0.2621 -0.2701  0.1766
 2392SOL    HW118395   8.397   3.797   3.219 -0.4112 -0.4057  0.1991
 2392SOL    HW218396   8.331   3.765   3.074 -0.2902 -0.1859  0.0943
 2393SOL     OW18397   8.318   4.855   5.113 -0.1736  0.6409  0.3780
 2393SOL    HW118398   8.311   4.907   5.028  0.2112  0.7846  0.4302
 2393SOL    HW218399   8.340   4.918   5.188 -0.3327  0.4884  0.5515
 2394SOL     OW18400   7.221   3.394   0.785 -0.7576  0.3384 -0.0708
 2394SOL    HW118401   7.262   3.454   0.715 -0.3818 -0.8419 -0.8709
 2394SOL    HW218402   7.274   3.310   0.792 -1.4027  0.0109  0.9143
 2395SOL     OW18403   4.439   3.642   6.616  0.5742  0.3375  0.5383
 2395SOL    HW118404   4.435   3.675   6.710 -1.6605 -0.2801  0.6984
 2395SOL    HW218405   4.361   3.581   6.599  0.8558  0.5704 -1.7641
 2396SOL     OW18406   4.592   9.482   6.331 -0.1516  0.3400  0.1811
 2396SOL    HW118407   4.680   9.452   6.367 -1.4132 -2.4099  1.1650
 2396SOL    HW218408   4.562   9.418   6.260  0.1530  3.1184 -2.5587
 2397SOL     OW18409   0.597   5.800   3.046 -0.3739  0.1759 -0.0940
 2397SOL    HW118410   0.593   5.757   2.956 -0.7852 -1.0026  0.4843
 2397SOL    HW218411   0.691   5.825   3.067 -0.3737  1.1030 -1.1453
 2398SOL     OW18412   1.079   9.899   5.914  0.3404  0.5082 -0.0657
 2398SOL    HW118413   1.172   9.934   5.897 -0.1302  1.5361 -0.5624
 2398SOL    HW218414   1.053   9.837   5.841  1.0098 -0.5490  0.5842
 2399SOL     OW18415   8.233   7.525   1.499  0.6525  0.0231 -0.1606
 2399SOL    HW118416   8.234   7.425   1.508 -0.0175 -0.1680 -1.9460
 2399SOL    HW218417   8.316   7.563   1.539  1.4059 -1.3340 -0.3845
 2400SOL     OW18418   6.912   2.353   3.231 -0.3150  0.7205 -0.0149
 2400SOL    HW118419   6.845   2.405   3.178 -0.8428  0.3156  0.2654
 2400SOL    HW218420   6.952   2.281   3.173 -2.4463 -1.1121  0.7620
 2401SOL     OW18421   4.368   8.795   5.901  0.1210  0.3743 -0.1388
 2401SOL    HW118422   4.448   8.746   5.867 -0.8626 -0.7762 -0.8210
 2401SOL    HW218423   4.388   8.832   5.992  0.4677 -2.4049  0.9818
 2402SOL     OW18424   8.606   9.111   4.562 -0.2194 -0.3941 -0.6084
 2402SOL    HW118425   8.658   9.032   4.531 -3.0067 -1.7933 -1.8820
 2402SOL    HW218426   8.620   9.187   4.498  1.5248 -0.2215 -0.0355
 2403SOL     OW18427   2.232   8.782   1.763  0.0381  0.5192  0.0633
 2403SOL    HW118428   2.221   8.773   1.664 -1.3032  0.2141  0.2299
 2403SOL    HW218429   2.171   8.854   1.797 -1.8514 -1.5092  1.0931
 2404SOL     OW18430   7.257   4.194   0.400 -0.0906 -0.6489 -0.0897
 2404SOL    HW118431   7.223   4.117   0.344 -0.2079 -1.1202  0.6176
 2404SOL    HW218432   7.226   4.280   0.360  0.0458 -0.9695 -0.8989
 2405SOL     OW18433   3.631   0.433   1.415  0.0870  0.6560 -0.0056
 2405SOL    HW118434   3.542   0.478   1.417  0.8325  2.1592  0.8178
 2405SOL    HW218435   3.622   0.339   1.448 -1.7537 -0.3127 -3.1217
 2406SOL     OW18436   2.344   3.153   3.681  0.4171  0.0541 -0.0188
 2406SOL    HW118437   2.422   3.108   3.638 -1.0976 -0.1376 -2.6563
 2406SOL    HW218438   2.355   3.252   3.674 -1.0326  0.0627 -3.3285
 2407SOL     OW18439   1.722   1.037   5.316 -0.2261 -0.1657 -1.2214
 2407SOL    HW118440   1.721   0.941   5.346 -1.0912  0.5159  0.9980
 2407SOL    HW218441   1.651   1.088   5.364  2.1848  2.2542 -0.1285
 2408SOL     OW18442   0.390   9.113   2.623  0.1521  0.0226 -0.6343
 2408SOL    HW118443   0.298   9.119   2.662  1.2227  0.0807  2.0463
 2408SOL    HW218444   0.414   9.017   2.608 -0.2063 -0.0096 -1.0013
 2409SOL     OW18445   2.917   5.705   0.174  0.0517 -0.3566  0.2590
 2409SOL    HW118446   2.824   5.671   0.189  0.3422 -1.5375 -0.5178
 2409SOL    HW218447   2.980   5.660   0.237  0.0892  0.4789  0.8188
 2410SOL     OW18448   2.869   9.409   1.017 -0.1708  0.2411 -0.3023
 2410SOL    HW118449   2.806   9.462   1.075 -0.9918 -1.2703  0.2026
 2410SOL    HW218450   2.834   9.317   1.005  1.8311 -0.5550 -0.2336
 2411SOL     OW18451   0.131   7.004   3.236 -0.3318  0.2031  0.5666
 2411SOL    HW118452   0.055   6.956   3.282 -0.6077  0.7745  0.7122
 2411SOL    HW218453   0.154   6.956   3.152 -0.2839 -0.4661  0.9536
 2412SOL     OW18454   8.443   7.676   4.001 -0.3082  1.2020  0.1678
 2412SOL    HW118455   8.541   7.691   4.014  0.1821 -0.6538 -1.1947
 2412SOL    HW218456   8.414   7.718   3.914 -0.4808  0.7209 -0.0074
 2413SOL     OW18457   5.544   1.582   2.012 -0.3040  0.1618 -0.2487
 2413SOL    HW118458   5.545   1.570   2.111 -0.2281  1.0295 -0.1351
 2413SOL    HW218459   5.599   1.511   1.969  1.2848  0.9313  0.4759
 2414SOL     OW18460   1.716   0.741   2.879 -0.1208  0.1183 -0.2313
 2414SOL    HW118461   1.766   0.658   2.852 -1.6800 -0.2375 -2.1651
 2414SOL    HW218462   1.647   0.762   2.810  0.2282  3.0499  0.2458
 2415SOL     OW18463   8.170   8.968   5.397 -0.0820  0.4945 -0.0810
 2415SOL    HW118464   8.114   8.897   5.355 -0.2358 -0.2439  1.3492
 2415SOL    HW218465   8.258   8.930   5.423 -0.4235  0.6269  1.3265
 2416SOL     OW18466   3.762   7.211   4.412  0.2718 -0.5863 -0.5109
 2416SOL    HW118467   3.765   7.302   4.372 -0.3340  0.3476  1.5094
 2416SOL    HW218468   3.848   7.164   4.394  1.9507  1.6664  1.3234
 2417SOL     OW18469   0.516   9.119   3.117 -0.1137  0.3078 -0.3602
 2417SOL    HW118470   0.581   9.184   3.077  1.9844 -1.0591  0.7326
 2417SOL    HW218471   0.484   9.057   3.045 -0.0401  0.8536 -0.8718
 2418SOL     OW18472   8.316   3.104   5.033  0.3761  0.2275  0.0055
 2418SOL    HW118473   8.235   3.138   5.080  1.0170 -2.1489  3.0217
 2418SOL    HW218474   8.392   3.097   5.099  1.9350 -1.1468 -1.8835
 2419SOL     OW18475   0.905   0.340   0.653  0.4172  0.1023 -0.1005
 2419SOL    HW118476   0.888   0.248   0.616  0.0150 -0.3741  1.2552
 2419SOL    HW218477   0.970   0.388   0.593  1.5319 -1.4807 -0.2023
 2420SOL     OW18478   5.873   2.328   4.163 -0.5888  0.4592 -0.6032
 2420SOL    HW118479   5.913   2.383   4.236  1.2442 -1.1351 -0.3528
 2420SOL    HW218480   5.878   2.379   4.077 -1.0832  1.6037  0.0307
 2421SOL     OW18481   4.113   8.331   1.271 -0.2657  0.2305  0.0275
 2421SOL    HW118482   4.187   8.274   1.235 -0.3704  0.5629 -0.7220
 2421SOL    HW218483   4.138   8.427   1.261  0.4760  0.3193  2.4686
 2422SOL     OW18484   0.836   0.711   5.431 -0.3210  0.0610  0.2862
 2422SOL    HW118485   0.776   0.732   5.354 -0.3254 -1.8966 -0.2772
 2422SOL    HW218486   0.888   0.628   5.412  1.0532  0.5601  1.6405
 2423SOL     OW18487   1.369   7.007   4.222  0.6143 -0.0018  0.2372
 2423SOL    HW118488   1.397   6.961   4.306  2.6658 -1.3137 -1.1369
 2423SOL    HW218489   1.425   7.089   4.209 -0.3875  0.7580  0.6584
 2424SOL     OW18490   4.771   4.941   1.204 -0.0989 -0.2316 -0.4467
 2424SOL    HW118491   4.781   4.877   1.128  0.4523 -2.9451  1.8403
 2424SOL    HW218492   4.861   4.962   1.242 -0.4525  0.2717  0.1247
 2425SOL     OW18493   4.369   7.831   4.744  0.3671  0.6074 -0.2176
 2425SOL    HW118494   4.274   7.802   4.751  0.5356 -0.3862 -1.8266
 2425SOL    HW218495   4.414   7.820   4.833 -0.0777 -2.3182 -0.3339
 2426SOL     OW18496   1.986   6.535   3.622 -0.2933 -0.6210  0.4790
 2426SOL    HW118497   2.077   6.496   3.635 -0.1828 -0.2847  0.7259
 2426SOL    HW218498   1.983   6.626   3.662 -1.0145 -0.9962  1.2747
 2427SOL     OW18499   1.777   3.420   3.354  0.1671  0.3560 -0.6815
 2427SOL    HW118500   1.791   3.399   3.451  0.1515  1.0762 -0.5236
 2427SOL    HW218501   1.712   3.354   3.315  0.2969 -0.0341 -0.2436
 2428SOL     OW18502   4.191   1.847   5.216  0.3321 -0.1182  0.2046
 2428SOL    HW118503   4.277   1.897   5.208 -0.8237  1.7300 -0.7950
 2428SOL    HW218504   4.195   1.766   5.157  1.1564  0.2757 -0.3010
 2429SOL     OW18505   8.948   9.140   1.497  0.1166  0.3093  0.3268
 2429SOL    HW118506   8.863   9.150   1.550  0.5415 -1.0109  1.2795
 2429SOL    HW218507   8.927   9.145   1.400 -0.9702  0.6239  0.5686
 2430SOL     OW18508   4.929   8.433   2.657  0.6248 -0.2228  0.6566
 2430SOL    HW118509   4.945   8.491   2.578  0.4882  0.0367  0.8198
 2430SOL    HW218510   4.838   8.392   2.651  1.0033 -1.0118  0.1668
 2431SOL     OW18511   9.553   4.437   6.480  0.1189 -0.6787  0.2267
 2431SOL    HW118512   9.584   4.352   6.437  1.4819 -0.4094  0.6688
 2431SOL    HW218513   9.458   4.455   6.453 -0.6898 -3.1057  1.3086
 2432SOL     OW18514   1.652   4.589   1.072 -0.4720  0.3888 -0.2247
 2432SOL    HW118515   1.690   4.499   1.095  0.7308  1.1433  0.8250
 2432SOL    HW218516   1.698   4.625   0.992 -0.3903  0.4190 -0.1643
 2433SOL     OW18517   8.017   6.581   3.521  0.1573 -0.2833  0.4753
 2433SOL    HW118518   8.100   6.551   3.474 -0.6749 -2.2195  0.1869
 2433SOL    HW218519   8.008   6.532   3.608 -1.5290 -1.3536 -0.2760
 2434SOL     OW18520   1.120   9.302   3.521 -0.4597 -0.3534  0.0433
 2434SOL    HW118521   1.075   9.333   3.605 -0.5657  1.3945 -0.6396
 2434SOL    HW218522   1.105   9.203   3.510 -0.6221 -0.5666  1.9559
 2435SOL     OW18523   0.823   9.197   2.239 -0.1107 -0.4889  0.0337
 2435SOL    HW118524   0.798   9.241   2.153 -2.0640 -0.1597  0.7419
 2435SOL    HW218525   0.797   9.256   2.316  2.7286 -0.2344  0.8456
 2436SOL     OW18526   2.207   0.358   2.894  0.5237 -0.5080  0.4523
 2436SOL    HW118527   2.141   0.323   2.828 -0.4131  2.6306 -0.3330
 2436SOL    HW218528   2.191   0.313   2.983 -2.8661  0.3218  0.3495
 2437SOL     OW18529   1.922   1.183   2.249 -0.1257  0.2489 -0.3570
 2437SOL    HW118530   1.954   1.196   2.155 -0.3516 -0.2426 -0.5042
 2437SOL    HW218531   1.959   1.255   2.307  0.4418  0.2518 -0.7208
 2438SOL     OW18532   3.226   5.628   5.733 -0.4906  0.2758 -0.3787
 2438SOL    HW118533   3.261   5.717   5.762  0.8133 -0.7143  1.1593
 2438SOL    HW218534   3.152   5.598   5.793 -0.9406  0.3239 -0.9027
 2439SOL     OW18535   0.284   6.141   3.107 -0.0559  0.3087  0.0115
 2439SOL    HW118536   0.351   6.106   3.042 -0.3113  0.1454 -0.1640
 2439SOL    HW218537   0.306   6.108   3.199 -0.2558 -0.2530 -0.1417
 2440SOL     OW18538   8.232   1.711   4.036  0.3006 -0.1278 -0.2041
 2440SOL    HW118539   8.231   1.615   4.006  0.8331 -0.9702  2.3366
 2440SOL    HW218540   8.176   1.720   4.119  1.4947  1.4742  0.4467
 2441SOL     OW18541   3.768   8.866   2.825  0.2625  0.2524  0.6405
 2441SOL    HW118542   3.738   8.885   2.731 -0.3155 -3.1833  0.0745
 2441SOL    HW218543   3.747   8.771   2.849  1.3745  0.7457  3.8997
 2442SOL     OW18544   8.956   9.035   4.941 -0.4936  0.7012  0.6053
 2442SOL    HW118545   8.998   9.123   4.919 -0.7666  1.1631  1.9123
 2442SOL    HW218546   8.995   9.000   5.026  0.3763 -0.9496 -0.4332
 2443SOL     OW18547   2.121   9.931   6.493 -0.2882  0.3528  0.4530
 2443SOL    HW118548   2.043   9.923   6.429  1.5687  0.2481 -1.8743
 2443SOL    HW218549   2.120  10.022   6.535  0.2932  1.6480 -2.2306
 2444SOL     OW18550   4.452   4.277   3.252 -0.1489 -0.2411 -0.1909
 2444SOL    HW118551   4.380   4.256   3.186 -0.9418  0.7637  0.3467
 2444SOL    HW218552   4.513   4.347   3.214  0.3481 -0.8314 -0.5001
 2445SOL     OW18553   2.946   3.845   3.226 -0.0175 -0.0046 -0.2054
 2445SOL    HW118554   3.040   3.819   3.247 -0.1376 -0.0004  0.3448
 2445SOL    HW218555   2.946   3.935   3.182  0.2458 -0.0683 -0.3398
 2446SOL     OW18556   3.504   5.043   5.909 -0.3602 -0.4551  0.7930
 2446SOL    HW118557   3.560   5.121   5.882  0.5229 -0.9034  1.2910
 2446SOL    HW218558   3.437   5.072   5.978 -1.6517  0.3695 -0.7773
 2447SOL     OW18559   8.301   5.381   5.616 -0.5293  0.0675  0.0538
 2447SOL    HW118560   8.369   5.309   5.632 -0.2447  0.5054  0.8652
 2447SOL    HW218561   8.347   5.469   5.610 -1.0350  0.3753  0.6904
 2448SOL     OW18562   3.028   2.668   3.418  0.4200  0.3454 -0.0502
 2448SOL    HW118563   2.947   2.725   3.406 -0.0101 -0.4151 -0.8339
 2448SOL    HW218564   3.095   2.689   3.347 -0.3546 -1.1492 -1.2541
 2449SOL     OW18565   2.210   5.588   5.431  0.0994  0.0691  0.0362
 2449SOL    HW118566   2.275   5.550   5.497  0.4266 -1.8705 -1.3812
 2449SOL    HW218567   2.153   5.657   5.477  0.9822 -0.5206  2.0873
 2450SOL     OW18568   3.799   7.167   3.490  0.4725  0.1521  0.6947
 2450SOL    HW118569   3.788   7.266   3.493 -0.2480  0.0969 -0.1435
 2450SOL    HW218570   3.821   7.138   3.397 -1.5317 -0.7056  0.4711
 2451SOL     OW18571   1.242   5.025   4.555  0.1685 -0.1986  0.5289
 2451SOL    HW118572   1.206   4.970   4.630 -0.1566 -1.9474 -0.8486
 2451SOL    HW218573   1.326   4.982   4.520  0.4833  0.7551  0.0897
 2452SOL     OW18574   2.924   5.188   0.934  0.0202  0.7253 -0.6193
 2452SOL    HW118575   2.962   5.168   0.844  1.8621  0.2012  0.2528
 2452SOL    HW218576   2.882   5.106   0.971  1.5203  0.2418  0.0579
 2453SOL     OW18577   2.519   9.485   3.439  0.0684 -0.0841 -0.1174
 2453SOL    HW118578   2.488   9.437   3.522  0.4961 -0.6145 -0.2634
 2453SOL    HW218579   2.514   9.423   3.361 -1.4023  0.7519 -0.7051
 2454SOL     OW18580   2.948   8.983   1.079 -0.0794 -0.8256  1.1047
 2454SOL    HW118581   2.888   8.905   1.060 -0.6307  0.2946 -2.0819
 2454SOL    HW218582   2.892   9.066   1.089  0.8473  0.1288 -1.3290
 2455SOL     OW18583   8.904   4.465   5.200 -0.4477 -0.4228 -0.0246
 2455SOL    HW118584   8.831   4.477   5.132  0.7931 -0.6073 -1.4232
 2455SOL    HW218585   8.948   4.553   5.217 -1.9446 -0.0172  1.9540
 2456SOL     OW18586   1.336   7.878   6.122 -0.2079 -0.1013 -0.5699
 2456SOL    HW118587   1.431   7.847   6.115  0.2012  1.0398 -0.2603
 2456SOL    HW218588   1.274   7.801   6.108  0.7736 -0.9971  0.0001
 2457SOL     OW18589   0.368   8.695   5.123 -0.0129 -0.3783  0.7080
 2457SOL    HW118590   0.344   8.687   5.027  1.3374  0.7984  0.2685
 2457SOL    HW218591   0.454   8.745   5.133 -1.2706  1.4818  2.6329
 2458SOL     OW18592   7.163   5.263   6.650  0.0097 -0.3316 -0.3714
 2458SOL    HW118593   7.127   5.237   6.739 -0.4327  0.0253 -0.4502
 2458SOL    HW218594   7.260   5.238   6.646  0.6141  1.6441  1.0261
 2459SOL     OW18595   4.895   3.296   3.368 -0.2035  0.0734  0.1309
 2459SOL    HW118596   4.926   3.388   3.345  1.2014  0.1863  2.3936
 2459SOL    HW218597   4.951   3.229   3.319  0.1816  0.3892  0.1337
 2460SOL     OW18598   2.414   9.094   1.511 -0.0567  0.5764 -0.7782
 2460SOL    HW118599   2.492   9.041   1.476  0.4618  0.3922  0.6256
 2460SOL    HW218600   2.439   9.191   1.516 -0.2335  0.6450 -1.2028
 2461SOL     OW18601   8.116   2.960   3.094 -0.1983 -0.5088 -0.6817
 2461SOL    HW118602   8.099   3.020   3.172 -1.0136 -1.6578  0.0533
 2461SOL    HW218603   8.187   2.999   3.036 -1.2992  1.5839 -0.6900
 2462SOL     OW18604   3.449   8.558   1.365  0.8809 -0.4713 -0.1657
 2462SOL    HW118605   3.373   8.583   1.425 -0.0023  2.1576 -2.3032
 2462SOL    HW218606   3.417   8.491   1.297  0.2504  1.1396 -1.4876
 2463SOL     OW18607   1.598   2.311   3.731  0.2302  0.3867  0.0394
 2463SOL    HW118608   1.683   2.317   3.783  1.7426 -0.1872 -2.2683
 2463SOL    HW218609   1.595   2.224   3.682 -2.1457  0.0029  0.8313
 2464SOL     OW18610   0.778   4.199   5.624 -0.6363  0.1926 -0.6888
 2464SOL    HW118611   0.695   4.221   5.676 -0.2591 -0.4584  0.2053
 2464SOL    HW218612   0.789   4.100   5.619 -0.6783  0.2555 -2.0424
 2465SOL     OW18613   2.851   7.123   3.981  0.0124 -0.4573  0.0724
 2465SOL    HW118614   2.944   7.088   3.976  0.1783  0.0316 -0.3829
 2465SOL    HW218615   2.854   7.223   3.990 -0.4683 -0.3855 -0.5223
 2466SOL     OW18616   7.190   0.481   1.203  0.5834  0.2317 -0.0868
 2466SOL    HW118617   7.095   0.468   1.174  0.4901 -0.1356  0.3828
 2466SOL    HW218618   7.249   0.485   1.122  0.4716 -1.9843 -0.2966
 2467SOL     OW18619   4.693   7.966   1.408  0.9617 -0.2643  0.6422
 2467SOL    HW118620   4.723   8.036   1.342  0.0865 -2.1579 -1.8519
 2467SOL    HW218621   4.763   7.895   1.415 -0.6281 -2.0695 -1.2849
 2468SOL     OW18622   5.600   7.499   4.210 -0.3324 -0.0506  0.6720
 2468SOL    HW118623   5.595   7.579   4.270 -0.0115 -0.4129  1.1877
 2468SOL    HW218624   5.695   7.465   4.208 -0.2988  0.0622 -0.1781
 2469SOL     OW18625   7.008   9.056   3.885  0.1541  0.0051 -0.3727
 2469SOL    HW118626   6.960   9.083   3.969 -0.1447 -2.8139  0.3927
 2469SOL    HW218627   6.964   8.977   3.845  2.2353 -0.6664 -1.4333
 2470SOL     OW18628   2.212   1.873   3.636 -0.1008  0.2530  0.0624
 2470SOL    HW118629   2.263   1.848   3.553  1.9743  0.5484  1.2193
 2470SOL    HW218630   2.205   1.793   3.695 -1.5482  0.0539 -0.3533
 2471SOL     OW18631   3.306   8.498   6.068 -0.2694 -0.1624 -0.2461
 2471SOL    HW118632   3.261   8.410   6.055  0.4762 -0.6053  0.1794
 2471SOL    HW218633   3.405   8.485   6.069 -0.0702  0.9304 -2.2274
 2472SOL     OW18634   2.825   9.834   1.040  0.2328 -0.6479 -0.9204
 2472SOL    HW118635   2.845   9.843   0.943 -1.6458  0.3125 -1.2451
 2472SOL    HW218636   2.742   9.779   1.052  0.8866 -1.4225  0.1900
 2473SOL     OW18637   0.294   9.616   3.711 -0.1854  0.1920  0.2653
 2473SOL    HW118638   0.211   9.656   3.750 -2.2246 -0.8213 -2.8996
 2473SOL    HW218639   0.303   9.522   3.743 -1.4973 -0.4291 -1.1792
 2474SOL     OW18640   6.511   0.382   3.966 -0.5003  0.1045  0.0933
 2474SOL    HW118641   6.565   0.308   4.006  0.2826 -0.2137 -1.5247
 2474SOL    HW218642   6.527   0.467   4.017  0.0177 -0.4194  0.8095
 2475SOL     OW18643   5.859   9.650   1.451  0.0195  0.1756  0.9693
 2475SOL    HW118644   5.914   9.719   1.497 -1.9550  1.2115  1.8419
 2475SOL    HW218645   5.772   9.690   1.422 -0.9249 -1.8011  0.9822
 2476SOL     OW18646   2.654   9.086   2.244 -0.1695 -0.1846 -0.5149
 2476SOL    HW118647   2.684   8.991   2.240  0.7398  0.1244 -1.3019
 2476SOL    HW218648   2.595   9.099   2.323 -1.2755 -1.6705 -1.0822
 2477SOL     OW18649   9.257   5.634   6.362 -0.1917  0.4361 -0.1551
 2477SOL    HW118650   9.188   5.705   6.348 -1.0037  0.1083  1.9480
 2477SOL    HW218651   9.346   5.667   6.332 -0.7993  1.8397 -0.4535
 2478SOL     OW18652   4.910   3.316   1.941  0.5169  0.1216  0.1615
 2478SOL    HW118653   4.991   3.375   1.947  1.9570 -1.7181 -0.7931
 2478SOL    HW218654   4.914   3.248   2.013  0.7320 -1.0688 -0.9587
 2479SOL     OW18655   5.052   9.832   3.789 -0.1226 -0.0809 -0.2292
 2479SOL    HW118656   5.066   9.848   3.691  2.2405  3.0663  0.5542
 2479SOL    HW218657   5.131   9.867   3.840 -1.0491 -2.2093  2.7902
 2480SOL     OW18658   1.276   2.290   4.656 -0.1792  0.2655  0.1025
 2480SOL    HW118659   1.198   2.228   4.650 -0.3499  0.4074  0.7667
 2480SOL    HW218660   1.296   2.309   4.753  2.5109 -2.1079  0.0960
 2481SOL     OW18661   4.110   9.004   3.625 -0.2051 -0.6645 -0.0794
 2481SOL    HW118662   4.089   9.087   3.572 -1.0948 -0.9125 -0.1271
 2481SOL    HW218663   4.025   8.962   3.656  0.2893 -0.9338  0.9240
 2482SOL     OW18664   3.003   5.024   2.981 -0.8870 -0.1933 -0.6741
 2482SOL    HW118665   2.948   5.068   2.910 -0.5869  0.7825 -0.3138
 2482SOL    HW218666   2.943   4.975   3.044 -1.1526 -1.0714 -1.6047
 2483SOL     OW18667   9.812   8.083   1.698 -0.1652 -0.1905 -0.0318
 2483SOL    HW118668   9.888   8.095   1.633  0.3742 -0.2879  0.5779
 2483SOL    HW218669   9.755   8.165   1.696  0.1774  0.0505 -0.2077
 2484SOL     OW18670   7.973   1.057   0.284 -0.1251 -0.1091  0.4297
 2484SOL    HW118671   7.965   1.072   0.186 -2.6541 -1.6388  0.3603
 2484SOL    HW218672   8.059   1.009   0.304  1.2128  1.7327 -0.8222
 2485SOL     OW18673   1.908   3.227   3.935  0.0215 -0.3925  0.2676
 2485SOL    HW118674   1.967   3.271   3.868  1.3060  0.3726  1.8916
 2485SOL    HW218675   1.831   3.183   3.888  0.6163  0.5942 -1.6447
 2486SOL     OW18676   2.949   6.780   3.497 -0.1344  0.1654 -0.3284
 2486SOL    HW118677   2.899   6.865   3.513 -0.0443  0.4045 -1.2591
 2486SOL    HW218678   3.015   6.795   3.423  0.6574 -0.4063  0.2456
 2487SOL     OW18679   9.184   9.550   5.794  0.5280 -0.1365 -0.9331
 2487SOL    HW118680   9.260   9.492   5.822  0.6208 -0.6516 -2.2284
 2487SOL    HW218681   9.174   9.625   5.859 -0.6920 -2.5300  1.7694
 2488SOL     OW18682   3.123   3.975   0.217  0.9028  0.1156 -0.3617
 2488SOL    HW118683   3.045   3.918   0.241 -0.5856  2.0183 -0.5268
 2488SOL    HW218684   3.157   4.021   0.299  2.3283 -1.2840 -0.1627
 2489SOL     OW18685   0.642   7.728   5.938  0.2033 -0.4855  0.7431
 2489SOL    HW118686   0.664   7.705   6.033  0.6352  0.3423  0.8478
 2489SOL    HW218687   0.553   7.774   5.935 -0.1690 -1.2033  0.6544
 2490SOL     OW18688   4.279   7.272   2.289  0.0008 -0.7474 -0.4077
 2490SOL    HW118689   4.323   7.257   2.201  0.6354 -1.1953 -0.0238
 2490SOL    HW218690   4.211   7.201   2.306  0.5889 -1.2395 -0.0961
 2491SOL     OW18691   9.973   6.855   0.796 -0.2773 -0.4013 -0.0589
 2491SOL    HW118692  10.049   6.841   0.733  0.3368  0.9001  0.3791
 2491SOL    HW218693   9.997   6.820   0.886 -0.2170 -0.0205  0.0723
 2492SOL     OW18694   3.151   9.743   2.409  0.2312  0.2023 -0.1443
 2492SOL    HW118695   3.153   9.692   2.324 -0.0968 -0.1427  0.0533
 2492SOL    HW218696   3.192   9.688   2.482 -1.2785 -0.3028  0.3461
 2493SOL     OW18697   0.852   9.567   0.656 -0.1545 -0.4047  0.3869
 2493SOL    HW118698   0.803   9.484   0.629 -0.7799 -0.1245  0.6594
 2493SOL    HW218699   0.789   9.630   0.701  0.4058  0.0570  0.5329
 2494SOL     OW18700   6.850   9.600   2.329 -0.3038 -0.2590 -0.4892
 2494SOL    HW118701   6.888   9.532   2.267  1.2808 -0.9047  1.1383
 2494SOL    HW218702   6.802   9.670   2.277  2.2130  0.0038 -2.5746
 2495SOL     OW18703   8.327   2.504   2.301 -0.2815 -0.4917 -0.4908
 2495SOL    HW118704   8.255   2.563   2.337 -0.5359 -0.8825 -0.3596
 2495SOL    HW218705   8.287   2.427   2.252  0.0907  1.3716 -3.8019
 2496SOL     OW18706   8.947   9.202   5.412 -0.0458  0.3022  0.5217
 2496SOL    HW118707   8.848   9.213   5.402 -0.0888 -1.1354 -0.7003
 2496SOL    HW218708   8.982   9.273   5.474 -1.8945  0.5410  1.3224
 2497SOL     OW18709   0.064   9.752   0.246 -0.0821  0.0742  0.5365
 2497SOL    HW118710  -0.004   9.786   0.181  0.3698 -1.3613 -0.7371
 2497SOL    HW218711   0.133   9.823   0.262 -1.7877  1.4852  1.7500
 2498SOL     OW18712   8.627   6.715   3.208 -0.1332 -0.1390 -0.6084
 2498SOL    HW118713   8.564   6.787   3.236  0.3506  0.3156 -0.6897
 2498SOL    HW218714   8.579   6.649   3.151 -1.0000 -0.7789  0.8274
 2499SOL     OW18715   0.249   1.942   5.805 -0.6969  0.1574 -0.5954
 2499SOL    HW118716   0.296   1.853   5.805 -0.2023  0.4087  0.2474
 2499SOL    HW218717   0.277   1.995   5.725 -0.2900 -0.0815 -0.6113
 2500SOL     OW18718   0.670   3.594   0.886 -0.3098 -0.5393 -0.2451
 2500SOL    HW118719   0.663   3.505   0.841 -0.6221 -0.9151  0.5376
 2500SOL    HW218720   0.649   3.584   0.983  0.8764  0.1689  0.0919
 2501SOL     OW18721   4.198   0.426   1.446  0.3765 -0.6582 -0.0771
 2501SOL    HW118722   4.224   0.396   1.537 -1.8777 -1.2224  0.4276
 2501SOL    HW218723   4.139   0.357   1.404  1.1889 -0.2932 -1.8608
 2502SOL     OW18724   1.622   7.124   4.465 -0.3317  0.2796 -0.2710
 2502SOL    HW118725   1.656   7.211   4.501 -1.6254  0.7457 -0.1794
 2502SOL    HW218726   1.655   7.049   4.522  2.2874  0.5227 -1.3633
 2503SOL     OW18727   2.001   0.269   3.540  0.9531 -0.5693 -0.6221
 2503SOL    HW118728   2.040   0.207   3.609  0.5128 -0.1122  0.0403
 2503SOL    HW218729   1.913   0.304   3.572  1.4222  0.7888 -0.7593
 2504SOL     OW18730   3.329   4.773   2.133  0.1617  0.3326  0.2946
 2504SOL    HW118731   3.248   4.789   2.189 -1.4774  2.2620 -2.5019
 2504SOL    HW218732   3.386   4.855   2.131 -0.1849  0.5540 -1.4234
 2505SOL     OW18733   1.112   9.639   3.248  0.0458 -0.2860 -0.0348
 2505SOL    HW118734   1.191   9.621   3.307 -0.6665 -1.2886  0.6288
 2505SOL    HW218735   1.041   9.685   3.300  0.3701  1.0696 -0.7621
 2506SOL     OW18736   3.916   2.623   3.537 -0.0165  0.0291  0.2073
 2506SOL    HW118737   3.883   2.557   3.606 -0.0655 -0.4101 -0.2353
 2506SOL    HW218738   3.871   2.711   3.552 -1.1353 -0.4601 -0.1581
 2507SOL     OW18739   3.206   2.976   5.745 -0.2940  0.7681 -0.2802
 2507SOL    HW118740   3.221   2.997   5.841  1.0275 -0.1194 -0.2770
 2507SOL    HW218741   3.117   2.930   5.734  0.5527 -1.2343  0.8605
 2508SOL     OW18742   0.627   2.595   5.455  0.3064  0.0257  0.3310
 2508SOL    HW118743   0.710   2.542   5.437  0.1347 -0.7694  1.7553
 2508SOL    HW218744   0.641   2.689   5.427  1.7392 -0.0756  0.6473
 2509SOL     OW18745   8.353   4.342   4.653 -0.2468  0.1083  0.2007
 2509SOL    HW118746   8.341   4.293   4.566  0.0170  0.1767  0.1248
 2509SOL    HW218747   8.335   4.439   4.639 -0.5669  0.0624  0.3047
 2510SOL     OW18748   4.373   4.178   4.529  0.2188  0.0525 -0.4493
 2510SOL    HW118749   4.404   4.097   4.480 -0.9772 -0.1008 -0.9702
 2510SOL    HW218750   4.287   4.210   4.490 -0.7378 -0.0242  1.4970
 2511SOL     OW18751   2.350   0.607   5.604 -0.2961  0.5254  0.1660
 2511SOL    HW118752   2.357   0.522   5.552  0.9042  1.1948 -0.8039
 2511SOL    HW218753   2.254   0.628   5.622 -0.7972  0.7452 -2.5717
 2512SOL     OW18754   0.296   8.502   1.472  0.0274  0.0005 -0.3207
 2512SOL    HW118755   0.297   8.491   1.572  0.8052  1.5095 -0.1599
 2512SOL    HW218756   0.384   8.537   1.441 -1.7112  4.0486 -0.9896
 2513SOL     OW18757   0.079   0.688   4.030  0.4749 -0.2282  0.6057
 2513SOL    HW118758  -0.017   0.716   4.025  0.9005  1.2760  0.7186
 2513SOL    HW218759   0.127   0.744   4.098  1.9675  0.5770 -1.0813
 2514SOL     OW18760   8.818   3.942   2.431 -0.3103 -0.2798  0.5289
 2514SOL    HW118761   8.908   3.909   2.403 -1.5246 -2.7168 -0.6714
 2514SOL    HW218762   8.792   4.021   2.376  0.4136 -0.5662 -0.2352
 2515SOL     OW18763   9.363   3.924   0.188 -0.5138 -0.1499  0.0385
 2515SOL    HW118764   9.352   3.844   0.129 -1.9508  0.0237  0.0409
 2515SOL    HW218765   9.413   3.995   0.138 -0.3392 -0.5855 -0.4135
 2516SOL     OW18766   0.509   5.634   3.634 -0.1268  0.5962 -0.1673
 2516SOL    HW118767   0.438   5.700   3.659 -1.6328 -0.2578 -2.0432
 2516SOL    HW218768   0.538   5.650   3.540 -0.1530 -1.1034 -0.4806
 2517SOL     OW18769   9.071   6.425   1.643 -0.1370  0.0267 -0.8737
 2517SOL    HW118770   9.006   6.495   1.672 -1.0337 -0.3527 -1.9542
 2517SOL    HW218771   9.148   6.468   1.595  0.7148  0.5302  0.9081
 2518SOL     OW18772   3.398   7.040   3.757 -0.4359 -0.1850 -0.3344
 2518SOL    HW118773   3.375   7.017   3.663  1.5637 -0.9847 -0.6660
 2518SOL    HW218774   3.470   7.110   3.757 -1.2247  0.6322  0.6128
 2519SOL     OW18775   9.185   3.231   1.716  0.3706  0.0261  0.1817
 2519SOL    HW118776   9.098   3.188   1.693  0.1727 -0.0970  1.1161
 2519SOL    HW218777   9.176   3.278   1.805  1.5029 -0.6975  0.6863
 2520SOL     OW18778   9.892   7.404   2.150 -0.3097  0.1302  0.3238
 2520SOL    HW118779   9.817   7.355   2.195  1.7452 -1.6916  1.8921
 2520SOL    HW218780   9.920   7.355   2.068 -1.0669  1.0086 -0.4660
 2521SOL     OW18781   6.889   8.508   2.449  0.3961  0.6387 -0.4513
 2521SOL    HW118782   6.812   8.540   2.394 -0.2955 -3.0466 -1.7376
 2521SOL    HW218783   6.966   8.486   2.389  0.0646 -2.2330  0.1310
 2522SOL     OW18784   0.071   6.520   1.218  0.7960 -0.3188  0.8435
 2522SOL    HW118785   0.060   6.550   1.313  0.8779 -1.1721  1.1282
 2522SOL    HW218786   0.015   6.439   1.202  0.6266 -0.0609  0.1004
 2523SOL     OW18787   0.236   8.321   6.637  0.2526 -0.1412 -0.0366
 2523SOL    HW118788   0.233   8.405   6.583 -3.9930 -0.2204 -0.1027
 2523SOL    HW218789   0.238   8.242   6.576 -2.6219 -0.1847 -0.1351
 2524SOL     OW18790   8.337   2.276   3.572  0.1428  0.0161 -0.1985
 2524SOL    HW118791   8.374   2.353   3.623  0.9759 -1.3618  1.3234
 2524SOL    HW218792   8.247   2.252   3.610  0.3053 -0.3691 -0.0641
 2525SOL     OW18793   9.986   1.407   2.561 -0.1359 -0.8877 -0.2969
 2525SOL    HW118794   9.990   1.329   2.623  0.6783  0.9843  2.0570
 2525SOL    HW218795  10.000   1.492   2.612  1.5367  0.6427 -3.1684
 2526SOL     OW18796   8.806   1.787   6.519 -0.1180  0.2395 -0.4778
 2526SOL    HW118797   8.894   1.834   6.520 -0.1581  0.3109  0.3596
 2526SOL    HW218798   8.778   1.767   6.613  0.2956 -2.1831 -0.8275
 2527SOL     OW18799   1.301   1.584   5.204 -0.1464 -0.9119 -0.7339
 2527SOL    HW118800   1.275   1.537   5.120  0.9987  0.2223 -1.7564
 2527SOL    HW218801   1.327   1.679   5.183  1.3902 -0.9806  0.6937
 2528SOL     OW18802   0.794   7.452   2.611  0.7861  0.1564 -0.3834
 2528SOL    HW118803   0.710   7.496   2.582  0.9811  0.6434 -0.2220
 2528SOL    HW218804   0.867   7.471   2.545  0.8120 -0.1158 -0.4330
 2529SOL     OW18805   0.319   5.777   6.650 -0.1158 -0.1445 -0.2862
 2529SOL    HW118806   0.255   5.719   6.700 -1.0924 -0.4109 -1.7970
 2529SOL    HW218807   0.309   5.872   6.679 -0.2401 -0.3792  0.4444
 2530SOL     OW18808   9.607   1.149   6.441 -0.0508  0.5391 -0.5271
 2530SOL    HW118809   9.562   1.176   6.356  0.1575  2.1796 -0.1210
 2530SOL    HW218810   9.647   1.057   6.429 -0.7769  0.3901 -1.9012
 2531SOL     OW18811   3.255   6.747   1.675  0.4996 -0.0614  0.0540
 2531SOL    HW118812   3.236   6.834   1.721  1.9799 -0.5484  1.6633
 2531SOL    HW218813   3.174   6.689   1.678  0.2670  0.3121  1.1871
 2532SOL     OW18814   9.933   5.418   6.575  0.7386 -0.4768 -0.3365
 2532SOL    HW118815   9.939   5.328   6.617  0.5433 -0.1500  0.4041
 2532SOL    HW218816   9.837   5.445   6.570  0.9448  0.7598  1.7645
 2533SOL     OW18817   1.387   5.129   4.161 -0.5348  0.0783  0.0645
 2533SOL    HW118818   1.457   5.117   4.232 -1.0113  1.7769  0.8489
 2533SOL    HW218819   1.428   5.116   4.071  0.2979 -1.1003  0.6035
 2534SOL     OW18820   8.458   6.827   4.025  0.0547  0.6103  0.5301
 2534SOL    HW118821   8.457   6.741   4.076 -0.0315  0.3722  0.1252
 2534SOL    HW218822   8.377   6.832   3.966  0.2599  0.7967  0.2652
 2535SOL     OW18823   9.049   9.266   4.849  0.1374 -0.0331  0.2378
 2535SOL    HW118824   9.036   9.353   4.896 -1.2697  0.7611 -1.5628
 2535SOL    HW218825   9.146   9.241   4.852  0.5590  1.5755  0.7894
 2536SOL     OW18826   4.606   8.982   1.660 -0.1565  0.7009  0.2820
 2536SOL    HW118827   4.604   9.067   1.713  3.1760  0.9862  0.0708
 2536SOL    HW218828   4.645   9.000   1.570 -0.6654 -0.8243 -0.2620
 2537SOL     OW18829   4.642   1.114   4.703 -0.2086 -0.1494 -0.9098
 2537SOL    HW118830   4.704   1.038   4.685  0.0772 -0.4177  1.0799
 2537SOL    HW218831   4.690   1.201   4.692 -0.1121 -0.2893 -1.6214
 2538SOL     OW18832   2.596   7.748   1.694  0.1267  0.4563 -0.2845
 2538SOL    HW118833   2.611   7.683   1.769 -1.0305  1.7764  1.1127
 2538SOL    HW218834   2.575   7.697   1.611 -1.8842 -0.9663  1.0398
 2539SOL     OW18835   4.266   6.324   2.643 -0.6240  0.5003  0.6717
 2539SOL    HW118836   4.198   6.251   2.652  0.8415 -0.8939  0.8849
 2539SOL    HW218837   4.309   6.317   2.553  0.4684  0.2308  1.2043
 2540SOL     OW18838   4.974   0.713   0.076 -0.2471 -0.4196 -0.1132
 2540SOL    HW118839   5.033   0.781   0.031 -0.8639 -1.3741 -2.4210
 2540SOL    HW218840   4.886   0.755   0.097 -0.2925 -0.2356 -0.6688
 2541SOL     OW18841   5.137   7.840   2.686  0.1116  0.2202  0.2538
 2541SOL    HW118842   5.061   7.809   2.744 -1.0477  2.5466  0.0502
 2541SOL    HW218843   5.173   7.926   2.723 -0.1872  1.3682 -2.0870
 2542SOL     OW18844   3.287   5.950   4.513  0.2976 -0.7086 -0.3819
 2542SOL    HW118845   3.205   6.007   4.504 -0.2101 -1.4407 -0.4811
 2542SOL    HW218846   3.322   5.958   4.606  0.6461  0.3118 -0.5942
 2543SOL     OW18847   0.554   6.594   0.011  0.2870 -0.3607 -0.6578
 2543SOL    HW118848   0.652   6.584  -0.006  0.5990 -0.7743  1.2568
 2543SOL    HW218849   0.526   6.687  -0.012  1.1821 -0.1598 -0.9662
 2544SOL     OW18850   2.974   2.657   6.459  0.5300 -0.6605  0.1068
 2544SOL    HW118851   3.060   2.627   6.417  0.6027 -1.5844  0.8853
 2544SOL    HW218852   2.921   2.577   6.486 -0.8384 -0.1062 -0.8721
 2545SOL     OW18853   4.675   9.292   5.199 -0.6994 -1.2796 -0.3108
 2545SOL    HW118854   4.626   9.373   5.233 -0.2711 -1.1218 -0.0710
 2545SOL    HW218855   4.659   9.284   5.100  0.5913  0.0644 -0.6642
 2546SOL     OW18856   2.386   2.275   6.190 -0.0374 -0.3236  0.0367
 2546SOL    HW118857   2.481   2.244   6.176  0.0955 -0.2551  0.7665
 2546SOL    HW218858   2.352   2.239   6.277 -0.3361  0.4967  0.2553
 2547SOL     OW18859   3.238   7.899   4.482 -0.3789  0.5068 -0.0016
 2547SOL    HW118860   3.296   7.879   4.561  0.8522 -0.8098 -1.2162
 2547SOL    HW218861   3.198   7.814   4.448  0.4043  0.8220 -1.7836
 2548SOL     OW18862   0.071   6.150   0.544 -0.0033  0.0150 -0.0008
 2548SOL    HW118863   0.090   6.185   0.452 -0.9596  0.3259 -0.0940
 2548SOL    HW218864   0.009   6.072   0.537  1.6156 -1.3041  0.2477
 2549SOL     OW18865   8.813   6.912   1.511 -0.2591 -0.1905 -0.1274
 2549SOL    HW118866   8.858   6.832   1.473  0.4359  0.2025 -0.1506
 2549SOL    HW218867   8.718   6.890   1.535  0.7138 -1.7900  2.4159
 2550SOL     OW18868   2.376   9.551   0.868  0.2513 -0.3109 -0.1510
 2550SOL    HW118869   2.420   9.471   0.908 -2.2494 -1.2179  0.8608
 2550SOL    HW218870   2.419   9.634   0.903  0.3726 -1.1449  1.7156
 2551SOL     OW18871   2.455   3.708   5.859 -0.1312 -0.4253  0.3692
 2551SOL    HW118872   2.401   3.636   5.817  0.6025 -0.6489 -0.2085
 2551SOL    HW218873   2.488   3.678   5.948  1.4472 -1.4167 -0.5211
 2552SOL     OW18874   1.460   0.434   1.402 -0.0992  0.3565 -0.1279
 2552SOL    HW118875   1.554   0.465   1.385  0.0282  0.7102  1.1761
 2552SOL    HW218876   1.453   0.399   1.496 -1.0875 -0.3789 -0.4690
 2553SOL     OW18877   2.893   5.446   3.708 -0.4319  0.2609 -0.1447
 2553SOL    HW118878   2.921   5.514   3.776  0.1290 -0.3547  0.2425
 2553SOL    HW218879   2.810   5.477   3.662  1.1070  2.3594 -1.6376
 2554SOL     OW18880   8.428   2.054   2.536 -0.0944 -0.0225  0.5448
 2554SOL    HW118881   8.462   2.050   2.442 -1.0644 -1.0212  0.2210
 2554SOL    HW218882   8.328   2.053   2.535 -0.1042 -1.0563  1.6228
 2555SOL     OW18883   4.014   1.354   5.186 -0.0420 -0.1029  0.1210
 2555SOL    HW118884   4.099   1.358   5.237 -0.7150 -1.7957  1.4188
 2555SOL    HW218885   3.937   1.353   5.249 -0.9756 -0.0479 -0.9867
 2556SOL     OW18886   5.392   7.954   3.829  0.2006 -0.2769 -0.6876
 2556SOL    HW118887   5.465   7.901   3.788 -0.2733 -0.9323 -0.6845
 2556SOL    HW218888   5.347   7.901   3.901  0.7989  0.7294  0.4528
 2557SOL     OW18889   8.513   4.624   1.097 -0.0443 -0.4118 -0.4694
 2557SOL    HW118890   8.447   4.630   1.172  2.6865  3.2199  1.8738
 2557SOL    HW218891   8.596   4.579   1.130  0.0676 -1.5243 -2.2356
 2558SOL     OW18892   1.040   3.368   6.662  0.0221  0.3237  0.3511
 2558SOL    HW118893   1.003   3.311   6.735  0.6664  0.0272  0.4478
 2558SOL    HW218894   1.071   3.311   6.587 -0.5095  0.6218 -0.0978
 2559SOL     OW18895   3.295   7.862   2.781 -0.2009 -0.3560 -0.3047
 2559SOL    HW118896   3.289   7.953   2.740 -0.7789 -0.1522  0.2182
 2559SOL    HW218897   3.382   7.853   2.830 -0.0601 -0.1537 -0.5171
 2560SOL     OW18898   8.931   1.541   1.090  0.1665 -0.2573 -0.1279
 2560SOL    HW118899   8.903   1.527   0.995 -0.4016 -1.8492  0.2702
 2560SOL    HW218900   8.945   1.639   1.106 -1.2990  0.1929 -1.4223
 2561SOL     OW18901   9.578   8.195   0.728 -0.7246 -0.1822 -0.4454
 2561SOL    HW118902   9.505   8.193   0.796 -0.6965  1.7485 -0.3196
 2561SOL    HW218903   9.559   8.267   0.661  0.8604  0.0728 -0.6342
 2562SOL     OW18904   8.147   2.314   1.340 -0.5221  0.0714 -0.4145
 2562SOL    HW118905   8.117   2.275   1.427 -2.0129  0.2581 -0.8280
 2562SOL    HW218906   8.242   2.289   1.323 -0.0052  0.6138  1.5884
 2563SOL     OW18907   2.212   5.186   3.093 -0.6732  0.5127 -0.5357
 2563SOL    HW118908   2.139   5.248   3.064 -1.5841 -0.3312 -0.0740
 2563SOL    HW218909   2.172   5.099   3.124  0.5025  0.1834  0.0813
 2564SOL     OW18910   0.893   0.451   1.328 -0.2920  0.4658  0.2441
 2564SOL    HW118911   0.892   0.428   1.426  1.9304  0.0841  0.2067
 2564SOL    HW218912   0.911   0.549   1.317  1.1876  0.1953  0.1948
 2565SOL     OW18913   2.768   0.509   4.001 -0.7850  0.6087  0.4719
 2565SOL    HW118914   2.801   0.579   3.938 -0.3064 -0.4756 -0.5002
 2565SOL    HW218915   2.668   0.509   4.002 -0.7944  1.6791  0.9254
 2566SOL     OW18916   5.223   2.322   4.355 -0.3124 -1.0868 -0.3140
 2566SOL    HW118917   5.170   2.241   4.330 -1.2898 -0.0595 -1.6140
 2566SOL    HW218918   5.275   2.353   4.275 -0.6861  0.1337 -0.0872
 2567SOL     OW18919   3.003   6.733   5.510  0.4860  0.3427  0.1608
 2567SOL    HW118920   2.967   6.797   5.578 -2.1387 -0.4280 -0.4525
 2567SOL    HW218921   3.030   6.648   5.556  2.0254  1.0967  0.6884
 2568SOL     OW18922   9.031   8.145   4.384 -0.2460 -0.1570  0.7168
 2568SOL    HW118923   8.961   8.125   4.452 -0.7799  0.9169  0.4963
 2568SOL    HW218924   9.079   8.230   4.409 -1.9888  1.5083 -1.4251
 2569SOL     OW18925   6.336   7.469   5.607 -0.0220 -0.0362  0.3847
 2569SOL    HW118926   6.332   7.396   5.539  1.1315 -1.1001  1.4360
 2569SOL    HW218927   6.432   7.490   5.626 -0.3502  0.9392  0.9594
 2570SOL     OW18928   2.152   2.994   6.428 -0.1632 -0.3376 -0.6265
 2570SOL    HW118929   2.234   2.998   6.485  0.0499 -0.9360 -0.8782
 2570SOL    HW218930   2.158   3.064   6.356 -0.8242  0.9687  0.5866
 2571SOL     OW18931   0.927   5.054   6.250 -0.6395 -0.6775 -0.0647
 2571SOL    HW118932   0.865   5.121   6.290 -1.0247 -0.9179 -0.2616
 2571SOL    HW218933   0.938   4.977   6.313 -0.0904 -0.3737  0.2213
 2572SOL     OW18934   8.305   6.011   0.258 -0.3573  0.1371 -0.1809
 2572SOL    HW118935   8.377   5.950   0.290 -0.1626  0.4305 -0.0507
 2572SOL    HW218936   8.249   5.965   0.189 -0.3043 -0.2344  0.0304
 2573SOL     OW18937   9.610   5.632   5.348  0.4490  0.0847  0.2768
 2573SOL    HW118938   9.563   5.544   5.336 -1.0261  0.7201  1.1666
 2573SOL    HW218939   9.666   5.651   5.268  0.3804 -1.4203 -0.1504
 2574SOL     OW18940   9.848   1.703   6.453 -0.3259  0.4805 -0.1859
 2574SOL    HW118941   9.923   1.638   6.460 -0.2835  0.6439  0.9569
 2574SOL    HW218942   9.763   1.654   6.434  0.0607  0.2971 -1.4876
 2575SOL     OW18943   0.306   9.923   5.090  0.3607 -0.4650 -0.2230
 2575SOL    HW118944   0.311   9.864   5.010  0.5155  0.5913 -1.0069
 2575SOL    HW218945   0.212   9.930   5.122  0.4645 -1.8046  0.3858
 2576SOL     OW18946   0.321   9.069   0.114  0.3599  0.4071 -0.5661
 2576SOL    HW118947   0.396   9.130   0.136  0.2968  0.3213 -0.1113
 2576SOL    HW218948   0.235   9.106   0.150  0.5080 -0.5671  0.8263
 2577SOL     OW18949   7.550   0.399   2.292  0.2350 -0.1840 -0.1739
 2577SOL    HW118950   7.473   0.460   2.275  0.4113 -0.4095 -1.7896
 2577SOL    HW218951   7.518   0.304   2.290  0.5436 -0.2719 -0.7161
 2578SOL     OW18952   2.974   9.047   3.779  0.2967 -0.2246 -0.0354
 2578SOL    HW118953   2.951   9.118   3.845 -0.1589  0.6099 -1.0673
 2578SOL    HW218954   3.073   9.035   3.776  0.3456  0.0684  0.4565
 2579SOL     OW18955   2.872   6.575   1.424  0.1907  0.1597 -0.0419
 2579SOL    HW118956   2.931   6.571   1.505  0.1081 -0.5997 -0.0109
 2579SOL    HW218957   2.927   6.596   1.344  0.2939  0.7847  0.1908
 2580SOL     OW18958   4.507   0.684   2.729  0.3350 -0.0901 -0.3236
 2580SOL    HW118959   4.415   0.720   2.713  1.1519  1.7138 -1.1375
 2580SOL    HW218960   4.515   0.594   2.687 -0.7539  0.1841 -1.1424
 2581SOL     OW18961   3.905   9.556   2.468  0.0396  0.4316  0.1403
 2581SOL    HW118962   3.853   9.538   2.551 -0.4660  1.4365  0.0577
 2581SOL    HW218963   4.001   9.533   2.483 -0.0647  0.5169  0.9682
 2582SOL     OW18964   0.136   7.833   0.565 -0.2163  0.1223  0.0903
 2582SOL    HW118965   0.102   7.812   0.657  1.0387  2.0993  1.0240
 2582SOL    HW218966   0.226   7.792   0.552  0.2333  1.0370  0.2715
 2583SOL     OW18967   7.723   6.856   5.132 -0.4556  0.5997 -0.4474
 2583SOL    HW118968   7.726   6.831   5.229 -4.1016 -0.0751 -0.4242
 2583SOL    HW218969   7.747   6.776   5.076 -0.2081  0.4601 -0.1414
 2584SOL     OW18970   0.336   1.119   6.023 -0.3223 -0.4916 -0.0432
 2584SOL    HW118971   0.261   1.076   6.074 -0.7804 -0.5705 -0.7885
 2584SOL    HW218972   0.359   1.063   5.943 -0.2481  0.1387 -0.4673
 2585SOL     OW18973   3.624   1.797   5.320  0.4198 -0.3174 -0.0267
 2585SOL    HW118974   3.684   1.758   5.389 -0.1412  0.0484  0.6789
 2585SOL    HW218975   3.551   1.849   5.365  1.4966  2.0616 -0.9258
 2586SOL     OW18976   6.677   1.321   5.527 -0.4011  0.1607  0.3054
 2586SOL    HW118977   6.770   1.295   5.554  0.5280  4.4529  1.7196
 2586SOL    HW218978   6.623   1.341   5.609 -1.7980  0.1277 -0.5928
 2587SOL     OW18979   2.245   1.190   0.682 -0.0369 -0.0688  0.2922
 2587SOL    HW118980   2.289   1.196   0.772 -1.6149  1.4807  0.9892
 2587SOL    HW218981   2.169   1.126   0.686  1.0141 -1.3998 -0.4522
 2588SOL     OW18982   8.995   4.337   4.985 -0.0883  0.3414  0.0239
 2588SOL    HW118983   8.959   4.363   5.074  1.8184 -0.3846  1.0447
 2588SOL    HW218984   8.952   4.252   4.955  1.0565 -0.7633  1.4393
 2589SOL     OW18985   9.316   6.715   3.614  0.4521 -0.4683  0.4722
 2589SOL    HW118986   9.292   6.619   3.597  1.5292 -0.4786 -1.1132
 2589SOL    HW218987   9.376   6.722   3.693 -0.2129 -1.0248  1.0297
 2590SOL     OW18988   8.890   4.296   1.275 -0.4443 -0.4249 -0.3252
 2590SOL    HW118989   8.983   4.326   1.296 -0.2656 -0.5454 -0.9202
 2590SOL    HW218990   8.886   4.268   1.179 -1.0136 -0.7368 -0.2068
 2591SOL     OW18991   0.242   3.820   3.363 -0.0250 -0.1512 -0.5426
 2591SOL    HW118992   0.193   3.751   3.417  0.8581 -0.2618  0.1324
 2591SOL    HW218993   0.304   3.774   3.299 -0.6987 -0.0083 -1.3088
 2592SOL     OW18994   8.268   3.978   1.008  0.1789 -0.4320  0.5287
 2592SOL    HW118995   8.349   3.977   0.949  1.7403  0.5426  2.5837
 2592SOL    HW218996   8.203   4.045   0.974  1.2797  0.4791  0.1900
 2593SOL     OW18997   7.990   1.719   4.467 -0.2616 -0.0334  0.2266
 2593SOL    HW118998   8.044   1.686   4.391 -0.4429 -0.9661  0.4945
 2593SOL    HW218999   8.049   1.765   4.534  0.5392 -2.8316  1.5078
 2594SOL     OW19000   3.406   1.573   1.372 -0.0524 -0.3020 -0.4871
 2594SOL    HW119001   3.491   1.520   1.378 -0.0154 -0.1223  0.6694
 2594SOL    HW219002   3.412   1.652   1.432 -1.9668 -1.5952  1.4811
 2595SOL     OW19003   3.463   7.266   0.604  0.0402 -0.2199  0.2885
 2595SOL    HW119004   3.485   7.214   0.520  1.7597  0.3366  0.3730
 2595SOL    HW219005   3.434   7.202   0.675  1.1107 -0.9878  0.0604
 2596SOL     OW19006   1.680   3.681   3.295  0.1281 -0.6534 -0.3291
 2596SOL    HW119007   1.584   3.655   3.303 -0.2096  0.6930 -0.0224
 2596SOL    HW219008   1.735   3.599   3.280 -0.9008 -1.5886  0.9156
 2597SOL     OW19009   4.038   9.624   4.785 -0.5276  0.1010  0.6308
 2597SOL    HW119010   3.991   9.633   4.873 -1.8267 -0.1692 -0.0265
 2597SOL    HW219011   3.985   9.565   4.725  0.2779  0.4120 -0.3987
 2598SOL     OW19012   4.539   8.310   5.555 -0.3967  0.2072  0.6204
 2598SOL    HW119013   4.613   8.243   5.559 -2.1041 -1.7342  0.5060
 2598SOL    HW219014   4.534   8.348   5.463  0.7018  0.6408  0.7334
 2599SOL     OW19015   3.801   4.331   5.685  0.2045 -0.1470 -0.0869
 2599SOL    HW119016   3.775   4.410   5.629 -0.7800  1.0151  1.9395
 2599SOL    HW219017   3.720   4.296   5.732  0.4979 -2.8129 -1.4523
 2600SOL     OW19018   7.974   0.148   4.791 -0.5409 -0.4497  0.3210
 2600SOL    HW119019   7.984   0.168   4.694 -1.5687 -0.3917  0.2224
 2600SOL    HW219020   7.994   0.051   4.807 -2.0518 -0.8816 -0.2337
 2601SOL     OW19021   2.684   8.267   3.106 -0.6890 -0.1896  0.0430
 2601SOL    HW119022   2.610   8.200   3.098 -0.1576 -1.0133  1.6998
 2601SOL    HW219023   2.672   8.321   3.189  1.2289 -1.2095  1.0298
 2602SOL     OW19024   8.578   5.902   5.891 -0.0425 -0.0461 -0.3964
 2602SOL    HW119025   8.559   5.901   5.989  0.0249 -0.9112 -0.3889
 2602SOL    HW219026   8.677   5.900   5.876 -0.0465  0.2948 -0.4819
 2603SOL     OW19027   3.849   4.448   6.047  0.3494 -0.1669 -0.7801
 2603SOL    HW119028   3.915   4.510   6.088  0.5514 -0.3214 -0.8690
 2603SOL    HW219029   3.806   4.491   5.968  1.4664 -0.6288 -1.6639
 2604SOL     OW19030   0.248   4.106   3.430 -0.3955  0.0952 -0.2243
 2604SOL    HW119031   0.233   4.007   3.422  0.3007 -0.1594  1.2367
 2604SOL    HW219032   0.346   4.125   3.420 -0.3713  0.4857  0.7157
 2605SOL     OW19033   2.896   3.796   4.395  0.0554  0.3854 -0.0017
 2605SOL    HW119034   2.834   3.846   4.455 -0.0507 -0.6348  0.7570
 2605SOL    HW219035   2.895   3.699   4.419 -0.4898 -0.1557 -2.0848
 2606SOL     OW19036   7.259   0.761   0.921 -0.3385  0.4832  0.1502
 2606SOL    HW119037   7.167   0.790   0.947  0.1232  2.7754 -0.6354
 2606SOL    HW219038   7.278   0.671   0.960 -2.0608  0.9656  2.2064
 2607SOL     OW19039   1.453   8.101   0.019  0.4079 -0.2384  0.1614
 2607SOL    HW119040   1.472   8.191   0.059 -1.0295  0.7138 -1.2144
 2607SOL    HW219041   1.430   8.113  -0.078  0.9280 -2.1775 -0.2040
 2608SOL     OW19042   4.243   9.568   6.450 -0.6349  0.1481 -0.4229
 2608SOL    HW119043   4.303   9.535   6.377 -0.9460  1.1055 -1.1224
 2608SOL    HW219044   4.176   9.498   6.472  1.7001 -1.5712  1.4790
 2609SOL     OW19045   3.093   3.109   4.540  0.4199  0.4013 -0.6769
 2609SOL    HW119046   3.087   3.166   4.622  2.0369  2.3321 -1.8398
 2609SOL    HW219047   3.011   3.054   4.532 -1.5295  3.0562  0.1679
 2610SOL     OW19048   8.733   0.520   3.788 -0.0515 -0.4429  0.3024
 2610SOL    HW119049   8.675   0.501   3.709  0.0179  1.4430 -0.2200
 2610SOL    HW219050   8.769   0.613   3.781 -0.9495  0.1531  3.1263
 2611SOL     OW19051   2.652   6.811   2.777 -0.7522 -0.3280  0.2044
 2611SOL    HW119052   2.588   6.878   2.815 -1.8078  0.4864 -2.8099
 2611SOL    HW219053   2.603   6.750   2.715  1.3339  0.3897 -2.2554
 2612SOL     OW19054   7.830   1.479   3.038  0.3486 -0.0128 -0.0487
 2612SOL    HW119055   7.905   1.427   2.996 -0.2851 -0.0655 -1.1109
 2612SOL    HW219056   7.779   1.419   3.100 -0.0695 -0.5332 -0.8884
 2613SOL     OW19057   0.726   9.016   4.910  0.0001 -0.2384 -0.2870
 2613SOL    HW119058   0.815   9.006   4.865 -0.6700 -0.5771 -1.5357
 2613SOL    HW219059   0.691   9.108   4.894  1.6558  1.0782  3.0475
 2614SOL     OW19060   7.309   9.793   5.959 -0.0729  0.3537 -0.2406
 2614SOL    HW119061   7.334   9.837   5.872  0.2301 -0.3956 -0.5325
 2614SOL    HW219062   7.230   9.733   5.945  0.2305 -0.0802 -0.0799
 2615SOL     OW19063   6.962   9.525   2.778  0.0363  0.4016  0.4693
 2615SOL    HW119064   7.002   9.484   2.695  0.9904 -1.3745  1.7828
 2615SOL    HW219065   6.903   9.601   2.751 -1.4366 -1.5066 -2.0292
 2616SOL     OW19066   3.355   0.732   3.202 -0.9221 -0.1716 -0.0675
 2616SOL    HW119067   3.333   0.827   3.227  1.1575  0.4771 -0.5770
 2616SOL    HW219068   3.409   0.690   3.275  2.3363  0.6590 -1.8755
 2617SOL     OW19069   0.951   3.063   1.836  0.1457  0.3065 -0.2571
 2617SOL    HW119070   1.037   3.041   1.790  0.5155 -0.5004  0.8061
 2617SOL    HW219071   0.874   3.037   1.777  0.6157  0.1251 -0.7962
 2618SOL     OW19072   1.298   2.649   6.260 -0.2352 -0.1954 -0.2683
 2618SOL    HW119073   1.333   2.742   6.246  1.1235 -0.4320  1.3458
 2618SOL    HW219074   1.365   2.596   6.313 -1.4258 -1.8067 -0.3416
 2619SOL     OW19075   2.084   9.403   5.892  0.0039  0.3143  0.3124
 2619SOL    HW119076   2.100   9.308   5.919  0.3707 -0.5926 -2.9124
 2619SOL    HW219077   1.991   9.429   5.916 -0.5811 -1.3575 -0.0668
 2620SOL     OW19078   4.200   6.111   3.342  0.4393  0.6593 -0.3105
 2620SOL    HW119079   4.106   6.102   3.374  0.2773  0.6258 -0.7816
 2620SOL    HW219080   4.231   6.024   3.302  1.0273  0.3693  0.7677
 2621SOL     OW19081   1.509   9.988   0.832 -0.2327  0.0289  0.2797
 2621SOL    HW119082   1.520  10.073   0.884 -2.2886 -0.0934  0.9984
 2621SOL    HW219083   1.431   9.997   0.770  2.1692  0.1373 -2.7965
 2622SOL     OW19084   9.044   2.242   2.219  0.0159  0.7723  0.6649
 2622SOL    HW119085   8.949   2.212   2.215 -0.3851  1.9814  0.8535
 2622SOL    HW219086   9.086   2.208   2.303 -0.7514  1.6293  1.4134
 2623SOL     OW19087   0.416   8.220   5.974  0.1885 -0.4346  0.4180
 2623SOL    HW119088   0.454   8.259   5.891  0.2688 -0.9685  0.2002
 2623SOL    HW219089   0.335   8.164   5.951 -2.2555  2.6759  1.1386
 2624SOL     OW19090   8.219   6.984   6.508  0.1906 -0.4183  0.0244
 2624SOL    HW119091   8.275   6.963   6.428  1.3891  1.7886  0.2496
 2624SOL    HW219092   8.226   6.909   6.574  1.0992 -1.1813 -0.9200
 2625SOL     OW19093   3.189   9.002   4.685  0.0834  0.4074 -0.5466
 2625SOL    HW119094   3.231   8.912   4.669 -0.9905  0.0536 -1.4742
 2625SOL    HW219095   3.094   8.989   4.712 -0.1761  1.2875 -1.0368
 2626SOL     OW19096   9.816   0.866   3.042  0.0765 -0.0134  0.5662
 2626SOL    HW119097   9.718   0.861   3.061 -0.1291 -1.6477 -0.7975
 2626SOL    HW219098   9.855   0.774   3.041  1.2452  0.4689 -0.8115
 2627SOL     OW19099   4.790   3.184   0.941  0.1210 -0.0603 -0.2594
 2627SOL    HW119100   4.754   3.277   0.939 -0.1466 -0.1240  0.9401
 2627SOL    HW219101   4.752   3.132   0.865 -1.4815  0.1923  0.3335
 2628SOL     OW19102   0.308   4.726   2.882  0.0341 -0.2795  0.1106
 2628SOL    HW119103   0.261   4.745   2.968 -0.9246  0.2650 -0.5214
 2628SOL    HW219104   0.271   4.642   2.841 -0.1425 -0.0467 -0.2097
 2629SOL     OW19105   2.539   1.062   2.387 -0.1913 -0.0804  0.5773
 2629SOL    HW119106   2.532   0.972   2.344 -0.1253 -0.0819  0.5699
 2629SOL    HW219107   2.627   1.070   2.434  0.6918  0.7374 -1.1639
 2630SOL     OW19108   0.667   2.482   0.838 -0.0503  0.5362  0.2675
 2630SOL    HW119109   0.742   2.431   0.881 -1.7885 -0.9250  1.6054
 2630SOL    HW219110   0.685   2.491   0.740  1.8335  0.1653  0.5470
 2631SOL     OW19111   8.585   7.212   2.734 -0.0577  0.5126  0.3337
 2631SOL    HW119112   8.632   7.184   2.650 -1.6730  1.1858 -0.8122
 2631SOL    HW219113   8.630   7.293   2.772 -0.4159  1.2733 -0.8613
 2632SOL     OW19114   3.534   6.109   5.107  0.8559 -0.7438 -0.8047
 2632SOL    HW119115   3.513   6.150   5.196 -1.9124  0.3452 -1.8886
 2632SOL    HW219116   3.560   6.181   5.043  2.2793 -1.4646 -1.0477
 2633SOL     OW19117   9.026   0.450   3.386 -0.0158 -0.1528  0.4622
 2633SOL    HW119118   8.945   0.419   3.437 -0.3309 -0.4439 -0.2026
 2633SOL    HW219119   9.001   0.462   3.289 -0.3953  3.9566  0.9823
 2634SOL     OW19120   0.410   3.292   1.041 -0.4894  0.4622  0.1069
 2634SOL    HW119121   0.509   3.292   1.027  0.0389  1.3427  3.3802
 2634SOL    HW219122   0.376   3.386   1.037 -1.1594  0.1800 -0.8356
 2635SOL     OW19123   4.262   1.259   6.503  0.5082  0.3200  0.2355
 2635SOL    HW119124   4.211   1.330   6.552  2.4485  1.4549  0.6621
 2635SOL    HW219125   4.255   1.276   6.404  1.1598  1.2771  0.3423
 2636SOL     OW19126   4.540   4.303   4.154 -0.6418 -0.0491  0.1960
 2636SOL    HW119127   4.540   4.353   4.067 -1.2270 -0.6840 -0.1714
 2636SOL    HW219128   4.503   4.211   4.140 -1.3241  0.0574  1.2375
 2637SOL     OW19129   9.176   1.189   1.417  0.3241  0.1966  0.5976
 2637SOL    HW119130   9.201   1.136   1.337  1.1606  1.3677  0.0651
 2637SOL    HW219131   9.256   1.240   1.450 -0.5711  1.5276  0.7748
 2638SOL     OW19132   1.551   5.880   4.223 -0.3106 -0.1540 -0.5560
 2638SOL    HW119133   1.621   5.871   4.294 -2.1265 -1.5009  1.0820
 2638SOL    HW219134   1.588   5.846   4.136  1.3333 -0.1380  0.1214
 2639SOL     OW19135   1.722   1.446   3.900  0.1429 -0.0380  0.5158
 2639SOL    HW119136   1.730   1.347   3.888 -1.7755 -0.3668  1.7549
 2639SOL    HW219137   1.670   1.485   3.825 -0.4876 -0.2055  0.8638
 2640SOL     OW19138   3.059   2.303   6.358 -0.1452  0.1478 -0.0067
 2640SOL    HW119139   3.136   2.246   6.386 -0.0165 -0.0716 -0.8123
 2640SOL    HW219140   3.089   2.398   6.350 -0.1354  0.1811  0.3789
 2641SOL     OW19141   4.542   9.929   2.583 -0.4169  0.1578  0.3666
 2641SOL    HW119142   4.546   9.830   2.593 -1.8666 -0.1501 -1.5735
 2641SOL    HW219143   4.446   9.958   2.579 -0.0094  1.4797 -0.3364
 2642SOL     OW19144   9.302   3.495   4.309  0.3021 -0.3640 -0.4200
 2642SOL    HW119145   9.284   3.406   4.267 -0.4703 -0.0126 -0.8308
 2642SOL    HW219146   9.220   3.552   4.304  0.6631  0.2216  0.2211
 2643SOL     OW19147   7.769   0.117   2.442  0.0617  0.5611 -0.6121
 2643SOL    HW119148   7.673   0.128   2.413  0.3335 -0.2746 -1.8805
 2643SOL    HW219149   7.772   0.104   2.541 -1.0755  1.3549 -0.4508
 2644SOL     OW19150   2.916   0.367   4.207 -0.3375 -0.1091 -0.5905
 2644SOL    HW119151   2.991   0.319   4.163 -2.1019 -1.7365 -1.9488
 2644SOL    HW219152   2.866   0.421   4.139  1.3021  3.3795  0.8180
 2645SOL     OW19153   4.197   0.485   4.267  0.5235 -0.1540  0.2395
 2645SOL    HW119154   4.239   0.474   4.357 -0.2618  0.7072  0.7145
 2645SOL    HW219155   4.238   0.564   4.220  1.2642 -0.8819 -0.3576
 2646SOL     OW19156   9.528   9.849   4.272 -0.2470  0.1024 -0.6527
 2646SOL    HW119157   9.472   9.893   4.343 -0.3240 -2.7427  1.1004
 2646SOL    HW219158   9.468   9.815   4.200 -0.4892  0.0650 -0.4371
 2647SOL     OW19159   1.051   4.141   0.422  0.7505  0.5812  0.2672
 2647SOL    HW119160   1.008   4.205   0.486 -0.2179  0.6622 -0.4668
 2647SOL    HW219161   0.985   4.114   0.352  1.3021 -0.8337  0.2793
 2648SOL     OW19162   1.627   0.885   6.098 -0.1510 -0.0861  0.3138
 2648SOL    HW119163   1.634   0.906   6.196 -0.6311 -1.6872  0.7064
 2648SOL    HW219164   1.545   0.928   6.061 -0.4483 -0.2104  0.8227
 2649SOL     OW19165   4.423   0.760   0.788  0.0604 -0.5039  0.4514
 2649SOL    HW119166   4.444   0.819   0.711 -0.6564 -0.7571  0.0516
 2649SOL    HW219167   4.335   0.787   0.827  0.8475  0.2012  1.7514
 2650SOL     OW19168   6.831   3.780   6.309 -0.3145 -0.1545 -0.5804
 2650SOL    HW119169   6.821   3.879   6.308  0.4811 -0.0656 -0.0047
 2650SOL    HW219170   6.799   3.744   6.397  0.7963 -0.2563 -0.2177
 2651SOL     OW19171   0.951   2.575   3.081 -0.5392 -0.7155 -0.6290
 2651SOL    HW119172   0.875   2.622   3.124 -0.2453 -1.2824  0.5226
 2651SOL    HW219173   0.969   2.616   2.991 -1.2724  0.3474 -0.2971
 2652SOL     OW19174   9.730   1.655   4.722  0.1858  0.0771 -0.7347
 2652SOL    HW119175   9.657   1.670   4.655  1.3799  1.3713 -1.7714
 2652SOL    HW219176   9.742   1.557   4.737 -1.7115 -0.1504 -0.6003
 2653SOL     OW19177   7.714   7.696   3.079  0.3029  0.3986  0.6494
 2653SOL    HW119178   7.730   7.603   3.046 -0.5041  0.3244  0.4504
 2653SOL    HW219179   7.738   7.762   3.008 -2.3811  0.2017 -0.5088
 2654SOL     OW19180   1.970   2.726   6.113  0.0930  0.0880  0.1758
 2654SOL    HW119181   1.951   2.670   6.032  0.2402 -1.1852  0.9961
 2654SOL    HW219182   2.043   2.791   6.092 -0.5655  0.4753 -1.0078
 2655SOL     OW19183   6.902   2.080   2.584  0.1228  0.0350  0.6272
 2655SOL    HW119184   6.910   1.981   2.572  1.1336  0.3626 -1.7075
 2655SOL    HW219185   6.992   2.120   2.602 -0.1182  0.6576  0.4733
 2656SOL     OW19186   3.635   9.836   2.958  0.7155 -0.1520 -0.2792
 2656SOL    HW119187   3.610   9.932   2.961 -1.3799 -0.6856 -0.0694
 2656SOL    HW219188   3.634   9.797   3.050 -1.3857 -1.0760 -0.6565
 2657SOL     OW19189   8.424   4.253   4.106  0.4448  0.2990 -0.3268
 2657SOL    HW119190   8.410   4.349   4.131  1.2293  0.9408 -2.2726
 2657SOL    HW219191   8.466   4.204   4.183 -0.2515  1.4360  0.7860
 2658SOL     OW19192   7.944   0.918   4.577  0.2848  0.6471 -0.5212
 2658SOL    HW119193   7.858   0.930   4.528  0.3744 -0.1141 -0.8576
 2658SOL    HW219194   7.931   0.946   4.673 -0.9989 -1.7458  0.0379
 2659SOL     OW19195   8.307   9.162   5.763 -0.2568 -0.2074  0.2684
 2659SOL    HW119196   8.227   9.212   5.731 -0.2109  0.6266  1.4367
 2659SOL    HW219197   8.385   9.224   5.771 -0.0028 -0.6158  1.0111
 2660SOL     OW19198   2.316   5.929   4.399  0.4238  0.5677  0.3204
 2660SOL    HW119199   2.372   5.990   4.342 -0.0369  1.3275  0.6742
 2660SOL    HW219200   2.305   5.969   4.490 -0.1240  0.0928  0.4657
 2661SOL     OW19201   0.670   7.551   4.217 -0.1768  0.0730  0.6174
 2661SOL    HW119202   0.766   7.557   4.189 -0.0575  0.1710  1.0391
 2661SOL    HW219203   0.631   7.643   4.222  0.2836  0.1895  2.4062
 2662SOL     OW19204   8.923   3.723   4.568  0.9694  0.3422 -0.3784
 2662SOL    HW119205   8.830   3.698   4.598  0.3276  3.5180  0.5025
 2662SOL    HW219206   8.931   3.708   4.470 -0.3765 -0.3357 -0.4014
 2663SOL     OW19207   3.277   9.579   6.405  0.1908  0.3094  0.3136
 2663SOL    HW119208   3.262   9.669   6.365  0.7186  1.2575  2.1774
 2663SOL    HW219209   3.372   9.551   6.390  1.1038  1.7667  2.9247
 2664SOL     OW19210   3.414   2.349   6.482  0.4971 -0.3627  0.0466
 2664SOL    HW119211   3.449   2.347   6.576  1.7190 -1.7247 -0.4153
 2664SOL    HW219212   3.491   2.348   6.418 -0.3207  0.8536 -0.9836
 2665SOL     OW19213   8.062   4.514   0.258 -0.1746 -0.2805  0.0808
 2665SOL    HW119214   7.993   4.587   0.256  0.5708  0.4078 -1.1759
 2665SOL    HW219215   8.016   4.426   0.245 -0.8169  0.2011 -1.1161
 2666SOL     OW19216   5.517   7.397   3.316  0.2434  0.5515  0.3441
 2666SOL    HW119217   5.615   7.376   3.326 -0.3072 -1.0873  2.5237
 2666SOL    HW219218   5.489   7.378   3.222  1.6188 -0.7605  0.1793
 2667SOL     OW19219   0.457   3.593   2.746 -0.0320  0.3007 -0.0532
 2667SOL    HW119220   0.384   3.535   2.780 -1.3701  1.0966 -1.4841
 2667SOL    HW219221   0.528   3.536   2.703  0.0842 -0.4545  1.1284
 2668SOL     OW19222   4.893   3.645   1.901  0.0384 -0.2404 -0.2793
 2668SOL    HW119223   4.965   3.650   1.831  0.0827  0.5938 -0.1885
 2668SOL    HW219224   4.931   3.676   1.988 -0.0609 -1.1287  0.0775
 2669SOL     OW19225   9.367   5.396   2.368 -0.4781 -0.3387  0.1415
 2669SOL    HW119226   9.290   5.369   2.426 -0.1223 -1.3881  0.1424
 2669SOL    HW219227   9.449   5.347   2.397 -0.1204 -0.2786 -0.7451
 2670SOL     OW19228   7.323   0.249   3.285  0.1573 -0.3756  0.0330
 2670SOL    HW119229   7.365   0.160   3.268  0.5665 -0.2280  0.2743
 2670SOL    HW219230   7.327   0.305   3.203  2.4460  0.4678  0.6948
 2671SOL     OW19231   3.970   8.088   6.242  0.2419 -0.0975  0.4733
 2671SOL    HW119232   3.901   8.043   6.298 -0.9275  0.9317 -0.1033
 2671SOL    HW219233   3.971   8.047   6.151  1.1106 -0.7858  0.7887
 2672SOL     OW19234   8.976   6.837   6.195 -0.3835 -0.2833 -0.0212
 2672SOL    HW119235   8.912   6.844   6.272 -1.7628 -1.0519 -1.0844
 2672SOL    HW219236   8.925   6.834   6.109  0.9867 -3.0734 -0.7887
 2673SOL     OW19237   6.151   9.298   1.797 -0.3862  0.0237  0.0546
 2673SOL    HW119238   6.228   9.360   1.811 -1.7791  1.5925  0.9673
 2673SOL    HW219239   6.119   9.306   1.703 -0.0474  0.0940 -0.0549
 2674SOL     OW19240   6.953   9.125   2.741  0.6387  0.3871 -0.0583
 2674SOL    HW119241   6.981   9.201   2.683  0.4419 -0.4412 -1.2594
 2674SOL    HW219242   7.000   9.042   2.712 -1.0365 -0.4751 -0.3857
 2675SOL     OW19243   1.218   8.495   6.717  0.1107  0.2927  0.7003
 2675SOL    HW119244   1.161   8.566   6.675  2.7979  1.2301 -1.5015
 2675SOL    HW219245   1.306   8.534   6.743  0.8548 -1.7915  1.3751
 2676SOL     OW19246   3.059   5.300   5.580 -0.1015 -0.1557 -0.0837
 2676SOL    HW119247   3.078   5.285   5.677  1.2239  0.7797 -0.1832
 2676SOL    HW219248   3.118   5.240   5.525 -0.1355  0.0257 -0.3216
 2677SOL     OW19249   1.528   4.712   2.293  0.5241 -0.4659  0.0260
 2677SOL    HW119250   1.573   4.642   2.238  1.2363 -1.4928  1.8826
 2677SOL    HW219251   1.437   4.680   2.320  0.5689 -0.3740  0.2863
 2678SOL     OW19252   4.245   4.128   6.589  0.3352 -0.0177  0.8120
 2678SOL    HW119253   4.297   4.134   6.675  1.2293 -0.8104  0.3274
 2678SOL    HW219254   4.263   4.208   6.533  0.2325  0.1998  1.0870
 2679SOL     OW19255   9.735   8.818   2.421  0.5075  0.0617 -0.2161
 2679SOL    HW119256   9.723   8.719   2.424  2.0105 -0.1981 -1.7446
 2679SOL    HW219257   9.691   8.860   2.500  1.5513 -1.9979  1.5154
 2680SOL     OW19258   1.219   0.573   6.657 -0.2803  0.5471  0.2071
 2680SOL    HW119259   1.219   0.656   6.714  1.0171 -0.5989  1.9255
 2680SOL    HW219260   1.287   0.509   6.692 -1.7112 -1.5136 -0.7345
 2681SOL     OW19261   3.114   5.901   2.625  0.3860 -0.2727 -0.0521
 2681SOL    HW119262   3.150   5.970   2.563 -1.2007  0.5033 -0.1568
 2681SOL    HW219263   3.066   5.830   2.573  1.3526 -1.0610  0.1093
 2682SOL     OW19264   2.355   7.002   3.471  0.2581  0.1733 -0.1527
 2682SOL    HW119265   2.262   6.981   3.503  0.4714 -1.3733 -0.5086
 2682SOL    HW219266   2.421   6.976   3.541  0.5095 -0.1312 -0.4975
 2683SOL     OW19267   0.252   4.694   6.506 -0.7621  0.0020  0.1029
 2683SOL    HW119268   0.311   4.717   6.428 -1.0234  3.5538  0.8744
 2683SOL    HW219269   0.157   4.687   6.475 -0.6560 -0.2505 -0.1728
 2684SOL     OW19270   4.503   5.634   2.822  0.2430 -0.0637 -0.3075
 2684SOL    HW119271   4.496   5.595   2.730 -1.4877 -2.0079  0.6254
 2684SOL    HW219272   4.526   5.731   2.815  1.3265 -0.4622 -2.7532
 2685SOL     OW19273   7.477   0.810   0.722  0.8309  0.2476 -0.2642
 2685SOL    HW119274   7.392   0.823   0.772  1.7139  2.0933  0.8363
 2685SOL    HW219275   7.473   0.859   0.635  0.0226 -1.3716 -1.1678
 2686SOL     OW19276   4.629   0.893   1.100  0.0627  0.0004  0.0807
 2686SOL    HW119277   4.683   0.817   1.136 -0.8578 -0.3024  0.8265
 2686SOL    HW219278   4.535   0.863   1.085  0.0020  0.6321 -0.8684
 2687SOL     OW19279   3.065   6.608   1.239 -0.3091  0.0469  0.3712
 2687SOL    HW119280   3.143   6.663   1.209  0.9545 -1.2826  1.1664
 2687SOL    HW219281   3.076   6.514   1.207 -1.9198 -0.0114 -0.0595
 2688SOL     OW19282   8.302   1.044   2.423  0.1042 -0.4558  0.3378
 2688SOL    HW119283   8.374   0.984   2.457 -0.7230 -1.1618  0.8520
 2688SOL    HW219284   8.279   1.018   2.329  0.4516 -0.2863  0.2041
 2689SOL     OW19285   2.908   6.967   0.455 -0.6926 -0.0737  0.1988
 2689SOL    HW119286   2.876   6.877   0.485 -1.6840 -0.0921 -0.8550
 2689SOL    HW219287   2.889   7.035   0.526  1.4267 -0.9307  1.6360
 2690SOL     OW19288   3.361   1.389   5.206 -0.0742  0.2444 -0.3300
 2690SOL    HW119289   3.345   1.291   5.203  1.2718 -0.0527  1.6005
 2690SOL    HW219290   3.309   1.430   5.281  1.2134  0.6338  0.3599
 2691SOL     OW19291   7.759   1.889   3.319 -0.4494 -0.1039 -0.2710
 2691SOL    HW119292   7.758   1.796   3.355  0.9975 -0.0633 -0.0989
 2691SOL    HW219293   7.802   1.889   3.228 -0.2043  0.4362 -0.1576
 2692SOL     OW19294   6.093   2.709   3.991  0.2359 -0.1974 -0.2777
 2692SOL    HW119295   6.046   2.728   4.077  1.0621  1.4969 -0.1745
 2692SOL    HW219296   6.103   2.610   3.979 -2.3472 -0.5386  0.2116
 2693SOL     OW19297   0.594   4.924   6.122  0.1073  0.3733  0.1424
 2693SOL    HW119298   0.606   4.887   6.214  0.3355  2.0436  0.8104
 2693SOL    HW219299   0.597   4.850   6.055  3.1777 -0.5299  1.1961
 2694SOL     OW19300   2.358   2.017   3.058  0.0897  0.8996  0.0403
 2694SOL    HW119301   2.328   1.925   3.083 -0.2475  0.7127 -1.0258
 2694SOL    HW219302   2.451   2.012   3.021  1.3233  1.4211  2.9376
 2695SOL     OW19303   9.780   3.555   5.774 -0.3542  0.5133 -0.4807
 2695SOL    HW119304   9.719   3.483   5.742  0.0765 -0.0023 -0.1453
 2695SOL    HW219305   9.728   3.622   5.827 -1.1931  1.6924 -2.7126
 2696SOL     OW19306   4.042   2.008   5.361  0.4386  0.2399  0.0030
 2696SOL    HW119307   4.094   1.942   5.307 -0.8081 -0.9971  0.2687
 2696SOL    HW219308   4.049   1.984   5.458  0.3106  0.7306  0.1322
 2697SOL     OW19309   9.777   0.521   3.296  0.6900 -0.1541 -0.5006
 2697SOL    HW119310   9.706   0.577   3.339 -0.3646  1.7984 -4.5932
 2697SOL    HW219311   9.740   0.431   3.275  0.4860 -0.2780  0.3402
 2698SOL     OW19312   1.678   9.397   2.555  0.3148  0.3906 -0.5958
 2698SOL    HW119313   1.713   9.454   2.480  1.8901  2.8583  1.9119
 2698SOL    HW219314   1.591   9.433   2.587  0.1543 -0.0271 -0.5566
 2699SOL     OW19315   8.172   1.580   4.935  0.3501 -0.9177  0.4150
 2699SOL    HW119316   8.089   1.588   4.989  1.5591  0.8146  2.0432
 2699SOL    HW219317   8.244   1.638   4.973  1.4297 -0.1110 -2.6842
 2700SOL     OW19318   8.812   2.931   3.669 -0.0511  0.4445  0.2599
 2700SOL    HW119319   8.749   2.957   3.743 -0.3416 -0.3432  0.2916
 2700SOL    HW219320   8.772   2.856   3.616  0.4050  0.6359 -0.3587
 2701SOL     OW19321   4.363   0.873   5.948 -0.0285 -0.5219 -0.4154
 2701SOL    HW119322   4.377   0.805   5.875  0.4879 -1.6354  0.6957
 2701SOL    HW219323   4.398   0.837   6.034 -1.4716  0.3962  0.5888
 2702SOL     OW19324   9.254   8.341   5.700  0.5957 -0.1361 -0.2105
 2702SOL    HW119325   9.249   8.252   5.655 -1.6693 -0.6774  1.0679
 2702SOL    HW219326   9.264   8.329   5.799 -0.5464  0.9961  0.0650
 2703SOL     OW19327   3.119   8.671   3.062 -0.0782 -0.1518 -0.1165
 2703SOL    HW119328   3.034   8.623   3.039 -0.0902 -0.2567  0.1481
 2703SOL    HW219329   3.103   8.770   3.056 -0.3173 -0.1640  0.2755
 2704SOL     OW19330   2.526   2.778   3.901  0.3849 -0.8031 -0.9515
 2704SOL    HW119331   2.443   2.817   3.861  0.1913 -1.0736 -0.8187
 2704SOL    HW219332   2.542   2.687   3.862  0.0598 -1.1713 -0.2411
 2705SOL     OW19333   9.866   8.259   5.164  0.2908  0.1056  0.1158
 2705SOL    HW119334   9.875   8.294   5.257 -0.3647  0.9711 -0.1324
 2705SOL    HW219335   9.925   8.312   5.103 -1.2298  1.2752 -0.3773
 2706SOL     OW19336   9.483   0.863   6.549  0.8561 -0.1289 -0.1635
 2706SOL    HW119337   9.474   0.763   6.549 -0.1056 -0.0453 -0.4259
 2706SOL    HW219338   9.569   0.888   6.506  0.4096 -0.7898 -1.4553
 2707SOL     OW19339   6.490   0.383   5.782  0.7739  0.3740  0.1464
 2707SOL    HW119340   6.400   0.421   5.801  0.1016 -1.2879  0.3947
 2707SOL    HW219341   6.540   0.370   5.867  0.3514 -0.8342  0.2201
 2708SOL     OW19342   9.346   3.779   6.714  0.4407 -0.4508 -0.0594
 2708SOL    HW119343   9.335   3.855   6.650  1.6877  0.9623  1.3492
 2708SOL    HW219344   9.277   3.709   6.696  0.2606  0.3059 -2.3829
 2709SOL     OW19345   9.069   6.723   4.592 -0.4469  0.4549  0.5423
 2709SOL    HW119346   8.976   6.692   4.612 -0.2383 -0.2009  0.5164
 2709SOL    HW219347   9.066   6.801   4.530 -0.9180 -0.6201 -0.7932
 2710SOL     OW19348   8.791   6.190   5.988 -0.0175 -0.0722 -0.5786
 2710SOL    HW119349   8.812   6.094   5.968  1.6858  0.4576 -1.4000
 2710SOL    HW219350   8.841   6.219   6.069  0.5063  0.4899 -1.0950
 2711SOL     OW19351   3.651   4.896   5.471  0.6215  0.2644 -0.2889
 2711SOL    HW119352   3.724   4.926   5.532  0.5457 -0.1292 -0.0019
 2711SOL    HW219353   3.612   4.976   5.425  0.0658  0.6649  0.8619
 2712SOL     OW19354   3.330   1.664   0.476  0.0252 -0.5948  0.3244
 2712SOL    HW119355   3.262   1.734   0.498 -0.4765 -1.2764  0.9428
 2712SOL    HW219356   3.408   1.707   0.430 -1.2290  0.0508 -1.2292
 2713SOL     OW19357   4.119   5.054   2.365 -0.0758  0.6416  0.5300
 2713SOL    HW119358   4.079   5.031   2.454  0.2532  2.6119  1.2089
 2713SOL    HW219359   4.048   5.092   2.305 -0.3482 -0.9003 -0.1464
 2714SOL     OW19360   6.941   7.706   4.007 -0.8907  0.0942  0.5363
 2714SOL    HW119361   6.898   7.629   3.960  0.1157 -0.1834  0.0493
 2714SOL    HW219362   7.038   7.687   4.020 -0.5955  1.3460  0.2757
 2715SOL     OW19363   2.633   3.781   6.692 -0.1780 -0.3122 -0.3902
 2715SOL    HW119364   2.693   3.764   6.771 -0.7329  0.6406  0.2469
 2715SOL    HW219365   2.591   3.695   6.663  0.4632 -0.7643 -0.0083
 2716SOL     OW19366   1.520   7.204   2.835 -0.4023  0.2557 -0.2359
 2716SOL    HW119367   1.472   7.249   2.759 -2.9952  2.4517  2.5768
 2716SOL    HW219368   1.600   7.258   2.861 -0.3777  0.3137 -0.4343
 2717SOL     OW19369   5.789   8.584   5.487  0.0939  0.1692  0.5456
 2717SOL    HW119370   5.751   8.674   5.508 -0.5444 -0.1832  0.9108
 2717SOL    HW219371   5.737   8.514   5.535 -1.2824 -0.6382 -2.0063
 2718SOL     OW19372   9.597   4.396   0.841  0.3114  0.1542 -0.2928
 2718SOL    HW119373   9.523   4.454   0.808  1.1890  0.4480 -1.8137
 2718SOL    HW219374   9.602   4.313   0.786  0.0465 -0.6444  0.8795
 2719SOL     OW19375   0.822   8.773   1.092  0.0974  0.9610  0.0294
 2719SOL    HW119376   0.900   8.794   1.033 -0.5024  3.5589  0.1054
 2719SOL    HW219377   0.851   8.709   1.163  1.8219  0.8627 -0.7257
 2720SOL     OW19378   2.942   8.744   2.394 -0.4184  0.7883  0.2847
 2720SOL    HW119379   2.955   8.821   2.457 -0.2919 -0.6712  2.0537
 2720SOL    HW219380   2.942   8.658   2.444 -1.4292 -0.3428 -1.5800
 2721SOL     OW19381   9.522   3.678   4.207  0.4183  0.0289 -0.0702
 2721SOL    HW119382   9.458   3.602   4.199  1.2216 -0.7606  0.8940
 2721SOL    HW219383   9.496   3.750   4.143 -0.3329 -1.0545 -0.9987
 2722SOL     OW19384   1.886   0.444   0.017 -0.2819  0.1456  0.5625
 2722SOL    HW119385   1.884   0.381  -0.061 -0.5199  0.8822 -0.0334
 2722SOL    HW219386   1.844   0.400   0.096 -1.5520  0.0003 -0.1820
 2723SOL     OW19387   5.691   0.971   3.158 -0.1128 -0.0548 -0.7186
 2723SOL    HW119388   5.616   0.949   3.096 -2.2535  1.8721  1.0887
 2723SOL    HW219389   5.672   0.935   3.249  2.7117 -2.3316 -0.9606
 2724SOL     OW19390   4.307   7.172   3.977  0.1020 -0.6089  0.3528
 2724SOL    HW119391   4.223   7.119   3.991 -0.1676 -0.4092 -0.4593
 2724SOL    HW219392   4.368   7.122   3.916 -0.7804  0.6449 -1.6198
 2725SOL     OW19393   5.803   9.065   3.611 -0.0466  0.2595  0.1909
 2725SOL    HW119394   5.848   9.073   3.700 -0.9389  0.4527  0.6317
 2725SOL    HW219395   5.858   9.111   3.542  0.7887 -0.1220  0.5953
 2726SOL     OW19396   7.437   0.663   5.974 -0.1668 -0.0268 -0.0183
 2726SOL    HW119397   7.442   0.566   5.953  1.4607 -0.1126  0.6975
 2726SOL    HW219398   7.510   0.712   5.927  0.7991  0.4183  1.9092
 2727SOL     OW19399   0.137   3.573   6.484  0.1513  0.3944 -0.0584
 2727SOL    HW119400   0.154   3.617   6.396 -0.5748 -0.7307 -0.7783
 2727SOL    HW219401   0.183   3.484   6.487 -1.9753 -0.7583 -0.3630
 2728SOL     OW19402   5.341   7.837   4.914  0.0914 -0.3790  0.2557
 2728SOL    HW119403   5.305   7.893   4.840  0.0084 -1.3429 -0.4420
 2728SOL    HW219404   5.414   7.778   4.879 -0.2681 -1.1773  0.8394
 2729SOL     OW19405   9.723   2.156   0.520  0.7721  0.6797 -0.5313
 2729SOL    HW119406   9.654   2.193   0.583 -0.2625 -0.2188 -1.1141
 2729SOL    HW219407   9.698   2.178   0.426 -1.7858 -4.2994 -1.2001
 2730SOL     OW19408   3.940   1.312   0.683 -0.2597 -0.1973  0.4944
 2730SOL    HW119409   3.932   1.225   0.635 -1.1727 -0.8452  1.7958
 2730SOL    HW219410   4.035   1.327   0.710 -0.5338 -2.0728  2.6205
 2731SOL     OW19411   5.613   1.066   2.748 -0.7425  0.1632  0.2173
 2731SOL    HW119412   5.526   1.063   2.798 -0.7892  0.7584  0.1707
 2731SOL    HW219413   5.652   0.974   2.745 -0.9427  0.0448  0.9951
 2732SOL     OW19414   6.991   0.252   4.919  0.2136 -0.1680  0.7930
 2732SOL    HW119415   6.994   0.276   5.016  2.8979 -0.6044  0.8527
 2732SOL    HW219416   6.995   0.336   4.864 -2.8461  0.1912  1.0006
 2733SOL     OW19417   0.453   2.689   1.216 -0.0473 -0.4080  0.0383
 2733SOL    HW119418   0.489   2.719   1.127  1.4852  1.8434  1.3746
 2733SOL    HW219419   0.445   2.589   1.217 -1.6176 -0.3809 -3.1837
 2734SOL     OW19420   4.978   9.631   1.352  0.7651  0.4030  0.5038
 2734SOL    HW119421   4.916   9.692   1.400 -0.0698 -0.3341  0.3801
 2734SOL    HW219422   5.071   9.644   1.386  0.2982  0.3961  1.8093
 2735SOL     OW19423   0.835   3.543   5.360  0.4267 -0.7631 -0.6312
 2735SOL    HW119424   0.856   3.611   5.430  1.1214 -1.0866 -0.5295
 2735SOL    HW219425   0.900   3.468   5.364 -0.0715 -1.2293 -1.0353
 2736SOL     OW19426   9.873   4.592   1.149  0.4008 -0.0271 -0.3783
 2736SOL    HW119427   9.892   4.499   1.180  2.0157 -0.2135 -1.8273
 2736SOL    HW219428   9.955   4.630   1.106 -0.8151  1.3637 -1.5134
 2737SOL     OW19429   4.227   7.691   5.068  0.1957 -0.2711  0.5923
 2737SOL    HW119430   4.230   7.725   5.161  3.1146 -0.7625  0.7148
 2737SOL    HW219431   4.309   7.636   5.049 -1.2400 -1.7542 -1.6548
 2738SOL     OW19432   0.577   3.257   5.824 -0.0971  0.1830 -0.1129
 2738SOL    HW119433   0.571   3.296   5.916  0.9391 -1.5910  0.7353
 2738SOL    HW219434   0.666   3.281   5.784 -0.1125  0.0533 -0.2243
 2739SOL     OW19435   2.775   2.551   5.744 -0.1562 -0.1151  0.1503
 2739SOL    HW119436   2.748   2.476   5.805 -1.9241  2.3301  2.5141
 2739SOL    HW219437   2.699   2.575   5.684 -0.2415  0.9610  0.6739
 2740SOL     OW19438   7.410   9.526   5.518 -0.2355 -0.4308 -0.3517
 2740SOL    HW119439   7.329   9.472   5.496  0.0579 -0.1044 -2.4126
 2740SOL    HW219440   7.382   9.617   5.550 -0.7150 -1.5623  2.5351
 2741SOL     OW19441   8.431   9.499   3.834  0.1072  0.5211 -0.0582
 2741SOL    HW119442   8.484   9.426   3.878  1.0596 -0.1009 -2.1921
 2741SOL    HW219443   8.433   9.580   3.892  0.1638 -0.7038  1.7101
 2742SOL     OW19444   6.480   3.792   0.385 -0.2674 -0.2550 -0.4636
 2742SOL    HW119445   6.549   3.828   0.448 -0.8049  0.8758 -0.5059
 2742SOL    HW219446   6.404   3.857   0.378 -1.2755 -1.4263 -0.5344
 2743SOL     OW19447   7.974   8.022   4.974 -0.3884 -0.2667 -0.1459
 2743SOL    HW119448   7.903   8.004   4.906 -0.2612 -0.7863 -0.1416
 2743SOL    HW219449   8.023   8.106   4.950 -2.3367  1.2430  0.9420
 2744SOL     OW19450   6.406   1.144   5.752 -0.1476 -0.5622  0.4346
 2744SOL    HW119451   6.483   1.147   5.816 -0.1165 -1.4792  0.4532
 2744SOL    HW219452   6.371   1.236   5.737  0.8013 -0.1616  0.6147
 2745SOL     OW19453   6.053   8.810   2.364  0.2654  0.3819  0.0282
 2745SOL    HW119454   6.095   8.893   2.328  1.4374  0.1065  0.7451
 2745SOL    HW219455   6.078   8.798   2.460 -1.1629  0.0128  0.3749
 2746SOL     OW19456   9.579   4.877   5.198  0.3502  0.2199 -0.6015
 2746SOL    HW119457   9.646   4.835   5.138  0.6539 -0.9522  0.5327
 2746SOL    HW219458   9.507   4.811   5.220 -1.2320  1.4846 -1.8565
 2747SOL     OW19459   1.245   4.692   2.811  0.1724 -0.3707 -0.4575
 2747SOL    HW119460   1.330   4.744   2.816 -0.3433  0.3667  1.0742
 2747SOL    HW219461   1.265   4.597   2.789  1.3596 -0.1128 -0.5307
 2748SOL     OW19462   8.045   0.949   3.913  0.6407  0.0552 -0.2162
 2748SOL    HW119463   8.097   0.922   3.994 -0.5901 -1.0695  0.2051
 2748SOL    HW219464   8.107   0.954   3.835  1.7038  0.4323  0.6399
 2749SOL     OW19465   4.502   9.486   0.196 -0.4674 -0.1948 -0.5479
 2749SOL    HW119466   4.427   9.428   0.165 -1.5243  0.9171 -0.1558
 2749SOL    HW219467   4.495   9.499   0.295  0.4931 -0.4279 -0.4494
 2750SOL     OW19468   7.135   0.883   3.829 -0.3258 -0.2656 -0.1068
 2750SOL    HW119469   7.045   0.892   3.872 -0.0132  1.3815  0.2023
 2750SOL    HW219470   7.187   0.811   3.875 -0.8155  0.0013  0.8714
 2751SOL     OW19471   1.183   0.490   3.532  0.0283 -0.1363 -1.1731
 2751SOL    HW119472   1.178   0.469   3.629  0.5627 -1.6608 -1.4490
 2751SOL    HW219473   1.244   0.567   3.516  0.1723 -0.0780 -0.3204
 2752SOL     OW19474   9.883   2.366   2.012 -0.2761 -0.6812  0.5926
 2752SOL    HW119475   9.974   2.388   2.046 -0.1194  1.6887 -1.2280
 2752SOL    HW219476   9.817   2.433   2.047 -0.5105  0.3472 -1.7187
 2753SOL     OW19477   8.221   2.568   0.612  0.1659 -0.0791  0.5714
 2753SOL    HW119478   8.237   2.665   0.596 -0.8627 -0.3247 -2.1610
 2753SOL    HW219479   8.123   2.550   0.619  0.4245 -0.5905  3.5732
 2754SOL     OW19480   3.580   2.422   3.087 -0.0896  0.6064 -0.0643
 2754SOL    HW119481   3.660   2.482   3.078  0.6240 -0.5554 -1.6033
 2754SOL    HW219482   3.525   2.427   3.004  0.1278 -1.0758 -0.3320
 2755SOL     OW19483   5.886   0.154   3.572 -0.0936 -0.5594 -0.3104
 2755SOL    HW119484   5.815   0.130   3.638 -0.0196 -1.5766 -0.5903
 2755SOL    HW219485   5.971   0.106   3.595 -0.4377 -1.9850 -1.8920
 2756SOL     OW19486   7.912   5.694   5.495  0.1182  0.4856  0.1927
 2756SOL    HW119487   7.838   5.698   5.563  1.1774  1.5695  1.3198
 2756SOL    HW219488   8.000   5.693   5.543  0.8404 -0.2532 -1.1454
 2757SOL     OW19489   7.971   2.936   5.202 -0.1974  0.4511  0.1893
 2757SOL    HW119490   7.975   2.883   5.287 -0.9505  0.7471  0.4151
 2757SOL    HW219491   7.967   2.873   5.124 -1.9537  0.1378  0.4942
 2758SOL     OW19492   5.110   3.155   2.885  0.7450  0.1447 -0.6398
 2758SOL    HW119493   5.157   3.078   2.841  0.8326  0.5629 -1.2936
 2758SOL    HW219494   5.014   3.131   2.900  0.9763 -0.4094 -0.0555
 2759SOL     OW19495   0.287   1.039   5.546  0.1148  0.4281  0.4486
 2759SOL    HW119496   0.326   0.962   5.598  0.4994 -0.2144 -0.7740
 2759SOL    HW219497   0.227   1.092   5.606  1.4824  0.3939  1.8713
 2760SOL     OW19498   4.604   8.464   6.437 -0.3139  0.3401 -0.7365
 2760SOL    HW119499   4.600   8.538   6.504  1.0533 -0.8829  0.7526
 2760SOL    HW219500   4.516   8.419   6.431 -0.3050  0.1292  0.6413
 2761SOL     OW19501   2.489   7.759   2.920 -0.1647 -0.1966 -0.7706
 2761SOL    HW119502   2.448   7.768   3.011  2.3214  0.8495  0.2949
 2761SOL    HW219503   2.487   7.664   2.891 -1.5018 -0.4485  0.1130
 2762SOL     OW19504   3.978   3.503   5.191 -0.1894 -0.0051 -0.4083
 2762SOL    HW119505   3.905   3.569   5.209 -0.0362 -0.2199  1.1386
 2762SOL    HW219506   4.047   3.509   5.264  1.0543 -0.1971 -1.5483
 2763SOL     OW19507   7.998   3.173   3.549  0.5058 -0.0194  0.9540
 2763SOL    HW119508   8.055   3.237   3.497  0.6217  0.1379  1.2723
 2763SOL    HW219509   7.911   3.217   3.571 -0.8762 -1.2119 -1.9257
 2764SOL     OW19510   2.764   0.906   1.663  0.3409  0.6734  0.5215
 2764SOL    HW119511   2.802   0.824   1.621 -0.4330  0.0762  0.9758
 2764SOL    HW219512   2.836   0.973   1.677  0.7498  0.5969 -1.0759
 2765SOL     OW19513   8.328   7.163   2.533  0.3205 -0.3366 -0.4739
 2765SOL    HW119514   8.417   7.122   2.516  0.9679  0.0249  1.8779
 2765SOL    HW219515   8.340   7.258   2.565 -0.6359 -1.4639  3.5688
 2766SOL     OW19516   9.699   3.230   1.501  0.4671  0.1021 -0.3229
 2766SOL    HW119517   9.719   3.328   1.494 -0.0511  0.3098  0.9358
 2766SOL    HW219518   9.780   3.177   1.476  0.8232  0.8591 -0.7702
 2767SOL     OW19519   4.627   5.395   0.099  0.6172 -0.2115 -0.2845
 2767SOL    HW119520   4.530   5.390   0.074  1.0748 -0.6339 -2.0156
 2767SOL    HW219521   4.657   5.306   0.133  0.9664 -0.7016 -1.8788
 2768SOL     OW19522   6.413   2.719   3.486  0.6457  0.5475 -0.4987
 2768SOL    HW119523   6.419   2.651   3.559  0.5136 -1.7250 -2.5199
 2768SOL    HW219524   6.377   2.805   3.522  1.1256 -0.3574  2.1935
 2769SOL     OW19525   2.592   7.199   2.181 -0.1980 -0.3981 -0.1870
 2769SOL    HW119526   2.673   7.156   2.222  1.0728  0.7623 -1.4419
 2769SOL    HW219527   2.620   7.256   2.105 -2.0713  1.2311  0.3201
 2770SOL     OW19528   1.883   1.638   2.456 -0.0879  0.0828  0.7714
 2770SOL    HW119529   1.881   1.589   2.543 -0.4160  1.9579  1.8390
 2770SOL    HW219530   1.871   1.736   2.472  0.4582  0.5231 -1.3395
 2771SOL     OW19531   4.171   4.116   5.183 -0.2774  0.1597  0.4511
 2771SOL    HW119532   4.098   4.174   5.147 -0.4375 -1.0288 -1.2012
 2771SOL    HW219533   4.215   4.068   5.108 -0.1313 -1.8333  1.7737
 2772SOL     OW19534   9.433   7.062   2.660 -0.3634  0.9304 -0.5978
 2772SOL    HW119535   9.524   7.097   2.641 -0.0645  0.9927  0.8865
 2772SOL    HW219536   9.439   6.989   2.728 -1.4004  0.8019 -0.6336
 2773SOL     OW19537   0.341   6.591   3.449 -0.6588  0.3831  0.0533
 2773SOL    HW119538   0.245   6.580   3.476 -0.5588  1.0191  0.6999
 2773SOL    HW219539   0.388   6.648   3.517 -0.0275  0.7648 -0.6936
 2774SOL     OW19540   0.846   8.110   4.572  0.2629 -0.2569  0.5349
 2774SOL    HW119541   0.865   8.058   4.656  0.4497  0.5188  0.9766
 2774SOL    HW219542   0.874   8.056   4.493  0.5876 -0.7770  0.9990
 2775SOL     OW19543   6.375   8.484   2.250 -0.3240  0.0245 -0.2159
 2775SOL    HW119544   6.345   8.389   2.253 -0.0207 -0.0902 -0.7650
 2775SOL    HW219545   6.333   8.534   2.325  0.6751 -0.8689  0.9594
 2776SOL     OW19546   7.567   0.532   2.526 -0.5328  0.8347  0.2833
 2776SOL    HW119547   7.627   0.612   2.530  0.1002  0.3341  1.1307
 2776SOL    HW219548   7.580   0.484   2.439  0.3900  0.6725  0.4995
 2777SOL     OW19549   4.677   6.973   3.538 -1.1368  0.0592  0.1773
 2777SOL    HW119550   4.758   7.028   3.559 -0.1652 -0.8280 -1.1782
 2777SOL    HW219551   4.614   6.976   3.615 -0.1367  1.3483  0.9624
 2778SOL     OW19552   8.453   7.720   2.619  0.3562  0.3873  0.0347
 2778SOL    HW119553   8.424   7.786   2.549  2.5189  1.6419  0.2668
 2778SOL    HW219554   8.550   7.699   2.606  0.2019 -1.1646  1.2565
 2779SOL     OW19555   8.407   6.125   6.686  0.0706 -0.0415  0.0049
 2779SOL    HW119556   8.404   6.057   6.613  0.3703 -0.0606  0.0103
 2779SOL    HW219557   8.492   6.115   6.737 -0.5794 -0.7045  0.9932
 2780SOL     OW19558   2.865   9.472   5.889 -0.5303 -0.0372  0.0239
 2780SOL    HW119559   2.904   9.400   5.947  0.0769 -1.6308 -2.3103
 2780SOL    HW219560   2.784   9.436   5.841 -0.8752  1.1763 -0.3199
 2781SOL     OW19561   4.404   5.997   1.433  0.1869 -0.8326  0.8746
 2781SOL    HW119562   4.405   5.978   1.335 -0.9204 -0.7628  0.8435
 2781SOL    HW219563   4.413   6.095   1.448  1.8503 -0.9745  0.9021
 2782SOL     OW19564   1.437   7.128   3.661  0.3982  0.0372  0.1364
 2782SOL    HW119565   1.373   7.113   3.587 -0.6474 -0.5051  1.1356
 2782SOL    HW219566   1.414   7.213   3.709  0.7839  0.1413  0.1452
 2783SOL     OW19567   1.067   0.054   3.546 -0.2105  0.2560  0.3443
 2783SOL    HW119568   1.104   0.074   3.455  0.8506  0.2172  0.7619
 2783SOL    HW219569   1.105  -0.033   3.579  1.3849  1.5022  1.8759
 2784SOL     OW19570   2.178   9.412   6.181 -0.8131  0.2746 -0.2529
 2784SOL    HW119571   2.213   9.324   6.212  2.0665  1.4132 -0.1502
 2784SOL    HW219572   2.124   9.399   6.098 -3.4554 -2.0073  1.7263
 2785SOL     OW19573   3.670   8.243   3.013  0.3451 -0.2701  0.0730
 2785SOL    HW119574   3.725   8.301   3.073  0.1004  0.7500 -0.6874
 2785SOL    HW219575   3.641   8.162   3.063  1.7676 -0.3721  0.7621
 2786SOL     OW19576   5.735   0.380   2.329  0.5582  0.2310 -0.1866
 2786SOL    HW119577   5.652   0.361   2.276  0.6903 -1.6076  0.2168
 2786SOL    HW219578   5.794   0.299   2.329  1.9501  1.2224  0.2712
 2787SOL     OW19579   8.276   6.160   2.652  0.5853  0.1284 -0.5555
 2787SOL    HW119580   8.344   6.122   2.714  1.9741  2.4853 -0.5660
 2787SOL    HW219581   8.191   6.107   2.659  1.5340 -1.2073  1.4294
 2788SOL     OW19582   3.065   7.255   6.007 -0.1274  0.6168 -0.7505
 2788SOL    HW119583   3.109   7.252   5.917 -0.5827 -1.4380 -0.9332
 2788SOL    HW219584   2.974   7.296   5.999  0.1317  1.1195 -1.0981
 2789SOL     OW19585   3.116   4.781   2.317 -0.6184  0.0739 -0.5495
 2789SOL    HW119586   3.037   4.720   2.316 -0.2829 -0.3615 -2.2821
 2789SOL    HW219587   3.088   4.871   2.351 -0.9716 -1.1842  2.6562
 2790SOL     OW19588   8.443   4.456   1.496 -0.7700 -0.6330  0.0993
 2790SOL    HW119589   8.409   4.534   1.444 -0.5220 -0.2863  0.4478
 2790SOL    HW219590   8.375   4.383   1.495 -1.2603 -0.1837  0.2671
 2791SOL     OW19591   7.584   2.644   5.320  0.6678  0.1830 -0.4804
 2791SOL    HW119592   7.533   2.568   5.279  2.6040 -0.4516 -1.8024
 2791SOL    HW219593   7.654   2.608   5.382  1.5227  0.8873 -1.0204
 2792SOL     OW19594   7.578   0.250   3.902 -0.1770  0.3424 -0.0455
 2792SOL    HW119595   7.609   0.155   3.910 -1.2708  0.0936  1.5260
 2792SOL    HW219596   7.485   0.258   3.939  0.2632  2.1995  0.7114
 2793SOL     OW19597   7.207   1.741   0.878  0.1621 -0.5819 -0.1885
 2793SOL    HW119598   7.283   1.764   0.818  0.4619 -3.1339 -0.8508
 2793SOL    HW219599   7.236   1.751   0.973  1.0133 -0.6258 -0.4395
 2794SOL     OW19600   1.237   6.895   1.642  0.1353  0.3301  0.5460
 2794SOL    HW119601   1.161   6.902   1.708 -0.1156  1.1832  0.1732
 2794SOL    HW219602   1.323   6.887   1.692 -0.2159 -0.9486  0.9754
 2795SOL     OW19603   0.920   9.933   6.140  0.2256  0.4524  0.2820
 2795SOL    HW119604   0.920  10.021   6.186  1.9746  0.6835 -0.1236
 2795SOL    HW219605   0.975   9.939   6.056 -0.8689 -0.6190 -0.5363
 2796SOL     OW19606   1.874   4.908   6.124 -0.3660  0.1391 -0.2105
 2796SOL    HW119607   1.812   4.960   6.065  2.0092 -0.5883 -3.4438
 2796SOL    HW219608   1.841   4.814   6.132 -0.3035  0.0516 -0.9803
 2797SOL     OW19609   9.684   4.465   0.460 -0.8189 -0.6753  0.3358
 2797SOL    HW119610   9.784   4.463   0.469 -0.9642  0.6729  2.6462
 2797SOL    HW219611   9.649   4.372   0.467  0.2794 -1.1510 -0.4026
 2798SOL     OW19612   0.036   0.220   0.315  0.2230  0.1536  0.1246
 2798SOL    HW119613   0.076   0.169   0.239 -0.1713 -2.0840  1.3790
 2798SOL    HW219614  -0.039   0.168   0.355  0.5323  1.1980  2.1706
 2799SOL     OW19615   8.418   1.579   6.619 -0.1973 -0.0606  0.5841
 2799SOL    HW119616   8.341   1.535   6.666 -1.6330  0.2227 -1.4136
 2799SOL    HW219617   8.502   1.530   6.640 -0.6562  0.5364  4.0449
 2800SOL     OW19618   3.439   7.476   5.752  0.4935 -0.0754 -0.0000
 2800SOL    HW119619   3.487   7.544   5.696  0.7336 -0.7223 -0.5876
 2800SOL    HW219620   3.425   7.513   5.844  2.9068 -0.1841  0.4456
 2801SOL     OW19621   4.481   4.557   1.485  0.0631  0.4920 -0.2129
 2801SOL    HW119622   4.410   4.532   1.552  0.9283 -0.1392  0.4797
 2801SOL    HW219623   4.442   4.552   1.393 -0.2656 -1.8424  0.0078
 2802SOL     OW19624   4.031   6.907   4.610 -0.1970  0.0933  0.4085
 2802SOL    HW119625   3.977   6.829   4.581  1.3567 -0.6584 -0.4767
 2802SOL    HW219626   4.053   6.898   4.707 -1.4957  0.3264  0.7392
 2803SOL     OW19627   2.241   8.681   2.506 -0.1134 -0.3366  0.2622
 2803SOL    HW119628   2.146   8.668   2.481 -0.2196  0.9568 -0.0597
 2803SOL    HW219629   2.253   8.772   2.546  0.7946 -0.8660  1.2553
 2804SOL     OW19630   6.597   1.836   1.777 -0.1808 -0.0909  0.8377
 2804SOL    HW119631   6.678   1.844   1.835  0.2200  2.2447  0.0257
 2804SOL    HW219632   6.615   1.882   1.689 -2.5120  0.8059  0.8082
 2805SOL     OW19633   2.364   0.091   0.860  0.0280  0.2487  0.2149
 2805SOL    HW119634   2.392   0.146   0.781 -0.8197  2.6256  1.5070
 2805SOL    HW219635   2.264   0.090   0.866  0.0794 -0.2443  1.0386
 2806SOL     OW19636   0.950   4.989   2.513  0.4080  0.2462 -0.4160
 2806SOL    HW119637   1.028   5.043   2.546  0.4998  0.4340 -0.9369
 2806SOL    HW219638   0.866   5.041   2.526  0.2447 -0.3400  1.0415
 2807SOL     OW19639   9.274   4.325   4.089  0.1361  0.2858  0.1160
 2807SOL    HW119640   9.321   4.246   4.128  0.7196 -0.6745 -2.4758
 2807SOL    HW219641   9.214   4.365   4.159  1.1031 -1.4045  1.9699
 2808SOL     OW19642   8.500   1.813   2.670 -0.1893 -0.5779  0.0022
 2808SOL    HW119643   8.526   1.785   2.577  1.3282 -1.3268  0.6424
 2808SOL    HW219644   8.438   1.891   2.664  1.1012  0.3758 -1.6264
 2809SOL     OW19645   5.829   0.627   2.122 -0.5716  0.2044  0.5115
 2809SOL    HW119646   5.821   0.544   2.177 -1.6278  0.8766  1.3803
 2809SOL    HW219647   5.764   0.623   2.046 -1.0493  0.5115  0.9051
 2810SOL     OW19648   6.869   8.834   3.191 -0.2735  0.3375  0.4327
 2810SOL    HW119649   6.905   8.816   3.100  0.0145  1.1949  0.3713
 2810SOL    HW219650   6.770   8.816   3.192 -0.3768  0.8529 -0.1982
 2811SOL     OW19651   2.060   7.256   5.114  0.5148  0.1857  0.8561
 2811SOL    HW119652   2.092   7.251   5.020 -0.0771  0.9720  0.6075
 2811SOL    HW219653   1.980   7.198   5.125  0.8807 -0.2952  1.0033
 2812SOL     OW19654   3.228   8.324   5.632 -0.6596  0.2653 -0.6189
 2812SOL    HW119655   3.247   8.228   5.608 -0.4470 -0.2501  1.5156
 2812SOL    HW219656   3.312   8.367   5.666 -1.2534  0.5337  0.5486
 2813SOL     OW19657   1.561   8.375   2.848 -0.2074  0.2989 -0.4360
 2813SOL    HW119658   1.608   8.463   2.836 -0.3883  0.1951 -1.9486
 2813SOL    HW219659   1.624   8.310   2.891 -0.0317  1.1281  0.5817
 2814SOL     OW19660   3.887   5.247   3.259  0.2883 -0.1676  0.3469
 2814SOL    HW119661   3.859   5.338   3.229  1.5941  0.1793  0.1589
 2814SOL    HW219662   3.983   5.248   3.284  0.1808 -1.3796  0.8476
 2815SOL     OW19663   7.817   0.204   4.183 -0.7275  0.1785  0.1643
 2815SOL    HW119664   7.760   0.279   4.216 -1.4418  1.0405 -2.8858
 2815SOL    HW219665   7.912   0.221   4.208 -0.8971  2.0325 -0.4023
 2816SOL     OW19666   2.075  10.002   5.786 -0.2102  0.0356  0.2378
 2816SOL    HW119667   2.095   9.924   5.845 -0.0887 -0.7153 -0.7797
 2816SOL    HW219668   1.984   9.991   5.746  0.5256 -0.5191 -1.3417
 2817SOL     OW19669   3.731   2.508   0.493  0.2561 -0.0289 -0.3849
 2817SOL    HW119670   3.698   2.514   0.398 -0.0359 -1.0908 -0.3586
 2817SOL    HW219671   3.831   2.500   0.493  0.2715  0.1519 -0.5927
 2818SOL     OW19672   4.487   4.944   0.145 -0.2305 -0.3278  0.2659
 2818SOL    HW119673   4.444   4.894   0.220 -0.9032 -0.8090 -0.4447
 2818SOL    HW219674   4.459   4.905   0.058 -1.9249  2.1890 -0.3562
 2819SOL     OW19675   8.890   8.732   1.238  0.2266 -0.2918 -0.2982
 2819SOL    HW119676   8.899   8.758   1.142 -1.3937 -1.4362 -0.7831
 2819SOL    HW219677   8.846   8.642   1.245 -0.7662  0.2969  1.5476
 2820SOL     OW19678   8.991   4.037   5.685 -0.3463  0.6270  0.3725
 2820SOL    HW119679   9.000   4.136   5.695  2.8348  0.2864  1.2117
 2820SOL    HW219680   9.026   4.009   5.596  3.0603 -0.2160  1.9077
 2821SOL     OW19681   0.400   9.764   1.162  0.0019  0.2984 -0.1109
 2821SOL    HW119682   0.368   9.682   1.210  0.0823  1.0645  1.2834
 2821SOL    HW219683   0.343   9.842   1.189  0.5868  0.9038 -0.6230
 2822SOL     OW19684   6.016   0.263   4.690  0.3860 -0.3801  0.0608
 2822SOL    HW119685   5.919   0.289   4.682  0.4718 -0.0417  0.1018
 2822SOL    HW219686   6.049   0.230   4.602  0.1504 -0.7722  0.1213
 2823SOL     OW19687   9.463   2.548   3.171 -0.5441  0.0156  0.4526
 2823SOL    HW119688   9.461   2.515   3.076  1.9683  0.6776  0.1327
 2823SOL    HW219689   9.461   2.470   3.233 -0.1080 -0.5126 -0.1865
 2824SOL     OW19690   9.587   2.556   0.080 -0.3028 -0.2088 -0.0045
 2824SOL    HW119691   9.646   2.597   0.149 -0.6481  0.0044  0.1680
 2824SOL    HW219692   9.492   2.555   0.114 -0.1338 -2.2000  0.4672
 2825SOL     OW19693   2.197   4.813   4.286 -0.1380  0.0894 -0.3388
 2825SOL    HW119694   2.260   4.794   4.211 -1.1347  1.6882 -1.6196
 2825SOL    HW219695   2.131   4.738   4.294  1.6005 -1.3628  0.7092
 2826SOL     OW19696   1.575   1.124   1.030 -0.0287  0.3618 -0.5244
 2826SOL    HW119697   1.580   1.087   0.937  0.1164 -0.4541 -0.1945
 2826SOL    HW219698   1.490   1.094   1.073 -0.7423  1.8656 -0.8649
 2827SOL     OW19699   8.933   7.895   1.962 -0.1998  0.3634 -0.1188
 2827SOL    HW119700   8.881   7.939   1.889  1.5905  1.0139 -1.0147
 2827SOL    HW219701   8.878   7.894   2.045 -1.4266  1.5629 -0.8918
 2828SOL     OW19702   0.748   9.688   1.519 -1.0341 -0.3779  0.0143
 2828SOL    HW119703   0.661   9.726   1.553 -0.3772  0.4628  0.7906
 2828SOL    HW219704   0.758   9.594   1.552 -1.4876 -0.3512  0.2297
 2829SOL     OW19705   3.309   1.122   5.215  0.4638 -0.4286 -0.3326
 2829SOL    HW119706   3.249   1.107   5.136 -0.1562 -0.8255  0.2017
 2829SOL    HW219707   3.404   1.119   5.186  0.3225 -3.1683 -0.6474
 2830SOL     OW19708   1.288   3.168   5.019  0.1953  0.4252  0.5028
 2830SOL    HW119709   1.347   3.241   4.985  0.8816 -0.7042 -0.8169
 2830SOL    HW219710   1.281   3.096   4.949 -1.0074 -0.4509  1.5044
 2831SOL     OW19711   4.231   7.469   2.028  0.1859 -0.5741 -0.1277
 2831SOL    HW119712   4.158   7.406   2.002  0.4317 -1.8604  2.2395
 2831SOL    HW219713   4.316   7.419   2.041  0.9288  0.5804 -0.4446
 2832SOL     OW19714   8.105   2.421   5.781  0.2434 -0.4567 -0.5198
 2832SOL    HW119715   8.096   2.443   5.684 -1.1782 -1.5680 -0.6437
 2832SOL    HW219716   8.164   2.341   5.792 -1.8957 -2.0930 -0.6806
 2833SOL     OW19717   3.868   5.124   1.078  0.2275 -0.2666  0.0275
 2833SOL    HW119718   3.878   5.196   1.148 -0.0865 -0.8583  0.6884
 2833SOL    HW219719   3.821   5.162   0.998 -1.8287 -0.2459  1.2089
 2834SOL     OW19720   9.585   5.245   2.476  0.2740  0.3302  0.1266
 2834SOL    HW119721   9.653   5.254   2.549  0.8866  1.6335 -0.5856
 2834SOL    HW219722   9.537   5.158   2.486  0.5715  0.3358  1.8885
 2835SOL     OW19723   8.477   6.309   5.763  0.1907  1.0207  0.3566
 2835SOL    HW119724   8.506   6.297   5.858 -0.7518  0.5865  0.5916
 2835SOL    HW219725   8.528   6.245   5.705 -1.3069 -0.7627  0.9666
 2836SOL     OW19726   9.537   6.910   4.287 -0.2671  0.0367  0.3757
 2836SOL    HW119727   9.517   6.942   4.194  0.3372  2.1976  0.9735
 2836SOL    HW219728   9.623   6.858   4.286  1.1045  2.2623  0.1505
 2837SOL     OW19729   0.529   6.861   2.211  0.6079 -0.4838 -0.4564
 2837SOL    HW119730   0.612   6.826   2.253  1.7784 -1.2643 -3.3030
 2837SOL    HW219731   0.552   6.915   2.130 -1.4843  2.4026  0.7802
 2838SOL     OW19732   3.660   9.908   1.732  0.1942 -0.0764 -0.3172
 2838SOL    HW119733   3.562   9.899   1.746 -0.1070  2.0463 -0.8929
 2838SOL    HW219734   3.706   9.916   1.821 -0.4108  1.1965 -0.1097
 2839SOL     OW19735   2.862   3.843   1.985 -0.0610 -0.1700  0.4105
 2839SOL    HW119736   2.948   3.855   1.936 -0.0036  0.6518  0.7098
 2839SOL    HW219737   2.812   3.765   1.947  0.8192 -0.6594  0.2464
 2840SOL     OW19738   1.220   3.491   5.584  0.1810 -0.0417  0.4449
 2840SOL    HW119739   1.260   3.508   5.674  0.9075 -2.4765  0.6173
 2840SOL    HW219740   1.290   3.501   5.514 -0.2405  1.2317  0.1925
 2841SOL     OW19741   4.236   0.454   3.752 -0.3195  0.2412 -0.4476
 2841SOL    HW119742   4.153   0.415   3.791  0.1225 -0.0301  0.2477
 2841SOL    HW219743   4.254   0.414   3.662  0.0238 -1.0359  0.1771
 2842SOL     OW19744   2.180   3.253   2.189  0.0003  0.5676 -0.3691
 2842SOL    HW119745   2.212   3.159   2.181 -2.3093 -0.4038  1.2819
 2842SOL    HW219746   2.212   3.291   2.276  0.0231  0.9504 -0.5459
 2843SOL     OW19747   5.584   0.647   0.920  0.2031  0.5315 -0.1723
 2843SOL    HW119748   5.486   0.663   0.907  0.0682  0.3879  0.6166
 2843SOL    HW219749   5.636   0.725   0.886 -0.1839  0.6000 -0.6092
 2844SOL     OW19750   9.727   7.731   2.524  0.0354  0.0157  0.3674
 2844SOL    HW119751   9.660   7.805   2.529  2.0616  2.1174 -1.9772
 2844SOL    HW219752   9.731   7.695   2.431  0.5128 -1.7059  1.0250
 2845SOL     OW19753   3.859   7.605   1.181 -0.6864 -0.6632 -0.0392
 2845SOL    HW119754   3.855   7.689   1.127 -1.0075  0.0053  1.0070
 2845SOL    HW219755   3.954   7.583   1.202 -0.6422 -0.1493  0.3098
 2846SOL     OW19756   3.170   4.929   1.209 -0.2163  0.2683 -0.1347
 2846SOL    HW119757   3.085   4.954   1.254 -0.1973 -0.9701  0.6207
 2846SOL    HW219758   3.247   4.973   1.256 -0.2517 -0.4849  0.6351
 2847SOL     OW19759   2.328   7.742   3.654  0.1386  0.5670 -0.1605
 2847SOL    HW119760   2.424   7.768   3.655  0.9089 -2.0286 -1.1147
 2847SOL    HW219761   2.320   7.644   3.675 -2.2257  0.5812 -0.8391
 2848SOL     OW19762   7.906   3.541   0.443 -0.2561 -0.0113  0.0865
 2848SOL    HW119763   7.918   3.442   0.450  0.6614 -0.1036 -2.1961
 2848SOL    HW219764   7.809   3.563   0.450 -0.6458 -1.2602 -1.0641
 2849SOL     OW19765   3.488   1.268   3.666  0.8739 -0.5466 -0.8938
 2849SOL    HW119766   3.574   1.299   3.708  0.2010  0.3982 -0.2124
 2849SOL    HW219767   3.509   1.206   3.590  2.1095 -2.0371  0.6294
 2850SOL     OW19768   0.700   8.020   1.257 -0.4383  0.4138  0.1301
 2850SOL    HW119769   0.654   8.014   1.345  1.0845  0.9685  0.9814
 2850SOL    HW219770   0.790   7.976   1.262 -0.7078 -0.3604 -1.4058
 2851SOL     OW19771   8.281   4.539   2.154  0.1989  0.0685 -0.2341
 2851SOL    HW119772   8.257   4.518   2.059  0.0902  3.4366 -1.0335
 2851SOL    HW219773   8.379   4.522   2.168  0.6614  1.5117 -1.5755
 2852SOL     OW19774   3.500   6.940   4.018 -1.0957  0.3070  0.0079
 2852SOL    HW119775   3.486   6.971   3.924  1.9180 -1.2213 -1.0068
 2852SOL    HW219776   3.507   7.019   4.078  0.1173  1.4397 -1.5600
 2853SOL     OW19777   1.308   4.903   0.363  0.1849 -0.0800 -0.0276
 2853SOL    HW119778   1.271   4.959   0.289 -0.9494 -2.0308 -0.9943
 2853SOL    HW219779   1.403   4.927   0.379 -0.2744  2.0821 -0.4280
 2854SOL     OW19780   0.858   7.658   0.524  0.0698  0.4843 -0.0006
 2854SOL    HW119781   0.851   7.605   0.439 -1.0451  0.0108  0.3731
 2854SOL    HW219782   0.834   7.753   0.506 -0.0565  0.4078 -0.2401
 2855SOL     OW19783   1.909   3.539   1.478  0.7627 -0.0027  0.2296
 2855SOL    HW119784   1.899   3.506   1.572  1.3900  0.2727  0.3939
 2855SOL    HW219785   1.913   3.639   1.478  1.8377 -0.0458  0.0095
 2856SOL     OW19786   8.417   8.821   5.433  0.4523  0.3036 -0.0825
 2856SOL    HW119787   8.506   8.797   5.392 -0.4428 -1.0595 -1.2624
 2856SOL    HW219788   8.406   8.771   5.519 -0.2317 -1.4587 -1.1792
 2857SOL     OW19789   0.437   1.686   3.362  0.4420 -0.4661 -0.6728
 2857SOL    HW119790   0.520   1.635   3.342  1.0143 -0.8342  2.3625
 2857SOL    HW219791   0.400   1.657   3.450 -2.3875  0.3785 -1.5137
 2858SOL     OW19792   1.210   6.524   3.023  0.1572  0.3277 -0.0989
 2858SOL    HW119793   1.288   6.509   2.963  1.8705  0.5796  2.0247
 2858SOL    HW219794   1.180   6.619   3.016  1.0733  0.6480  0.2866
 2859SOL     OW19795   1.230   5.865   1.779 -0.0685  0.8126 -0.9092
 2859SOL    HW119796   1.199   5.946   1.829 -0.6661  0.2939 -0.4300
 2859SOL    HW219797   1.159   5.836   1.715 -0.2971  0.0442 -0.3217
 2860SOL     OW19798   7.474   7.644   3.665 -0.0860  0.2511  0.1975
 2860SOL    HW119799   7.554   7.688   3.626 -0.2423  1.2149  0.9464
 2860SOL    HW219800   7.447   7.691   3.749 -0.8144 -0.6998  0.5158
 2861SOL     OW19801   0.358   5.495   0.359 -0.7069  0.2597 -0.9420
 2861SOL    HW119802   0.301   5.438   0.300 -0.8327  0.2540 -0.8154
 2861SOL    HW219803   0.353   5.590   0.329  0.2962  0.0554 -1.7736
 2862SOL     OW19804   8.226   2.772   3.565 -0.1238 -0.7705 -0.0838
 2862SOL    HW119805   8.303   2.833   3.583 -0.4356 -0.8781  1.6590
 2862SOL    HW219806   8.148   2.824   3.531 -0.1178 -0.3087  0.6033
 2863SOL     OW19807   8.989   1.222   0.563  0.1677 -0.1749  0.1694
 2863SOL    HW119808   9.054   1.173   0.621  1.1554 -0.2986 -1.0447
 2863SOL    HW219809   9.037   1.287   0.505 -0.6014 -1.3362 -1.8288
 2864SOL     OW19810   7.705   2.530   0.335 -0.2967  0.1130 -0.6486
 2864SOL    HW119811   7.746   2.549   0.246  1.4269 -0.0935  0.0842
 2864SOL    HW219812   7.734   2.440   0.368 -0.4252  0.4306  0.3756
 2865SOL     OW19813   9.955   5.003   5.446  0.1784 -0.2441 -0.3127
 2865SOL    HW119814  10.037   4.961   5.405 -0.1210 -0.6712 -0.4738
 2865SOL    HW219815   9.886   5.016   5.375 -0.0324 -0.2226 -0.1024
 2866SOL     OW19816   3.181   9.819   4.790 -0.1330  0.0253  0.0241
 2866SOL    HW119817   3.210   9.822   4.694  0.0220 -0.7644  0.0490
 2866SOL    HW219818   3.090   9.778   4.797 -0.9602  1.7848  0.0327
 2867SOL     OW19819   1.782   5.770   6.250 -0.4904 -0.0237 -0.0535
 2867SOL    HW119820   1.749   5.849   6.198  0.3611  0.3037 -0.1181
 2867SOL    HW219821   1.880   5.759   6.233 -0.6188 -1.1218 -0.0681
 2868SOL     OW19822   1.710   8.342   6.669 -0.2627  0.5576 -0.9571
 2868SOL    HW119823   1.791   8.290   6.642 -1.7131 -2.1931 -0.2296
 2868SOL    HW219824   1.653   8.359   6.589 -0.4816 -0.2443 -0.9724
 2869SOL     OW19825   8.904   5.519   3.780  0.1320  0.2364  0.0787
 2869SOL    HW119826   8.821   5.574   3.789  0.0821  0.2892 -0.6825
 2869SOL    HW219827   8.880   5.429   3.744  0.2868 -0.0950  0.7919
 2870SOL     OW19828   4.112   1.469   0.936  0.4848 -0.4152 -0.1631
 2870SOL    HW119829   4.012   1.465   0.929  0.4772  0.3328 -0.5036
 2870SOL    HW219830   4.140   1.439   1.027 -0.1465  0.7665  0.4296
 2871SOL     OW19831   5.790   7.365   2.788  0.1591 -0.0100 -0.3438
 2871SOL    HW119832   5.770   7.458   2.819  0.7656  0.8676 -2.5298
 2871SOL    HW219833   5.705   7.313   2.783 -0.3315  0.7781 -0.2735
 2872SOL     OW19834   1.012   7.267   0.643  0.1744  0.0151 -0.1787
 2872SOL    HW119835   1.099   7.277   0.691 -0.1859 -0.9307  0.6928
 2872SOL    HW219836   0.956   7.348   0.660  0.8497  0.5950 -0.6840
 2873SOL     OW19837   2.507   4.650   5.425 -0.1456 -0.9606  0.3526
 2873SOL    HW119838   2.463   4.656   5.515 -0.5674 -0.5423  0.1201
 2873SOL    HW219839   2.444   4.607   5.361 -0.0509 -0.7577  0.1239
 2874SOL     OW19840   9.564   7.793   0.033 -0.5087 -0.0003 -0.1671
 2874SOL    HW119841   9.465   7.791   0.047 -0.4647 -1.3595  0.0580
 2874SOL    HW219842   9.605   7.864   0.090 -1.2546 -0.0791  0.4685
 2875SOL     OW19843   8.626   0.708   3.242  0.4321  0.0002 -0.0159
 2875SOL    HW119844   8.640   0.797   3.199  0.6564 -0.5626 -1.1179
 2875SOL    HW219845   8.546   0.663   3.202  1.4286 -1.0946 -0.7832
 2876SOL     OW19846   2.089   0.353   4.218  0.3356  0.2223 -0.0708
 2876SOL    HW119847   2.084   0.305   4.130  1.0655 -1.5263  0.8179
 2876SOL    HW219848   2.116   0.448   4.202  1.1949 -0.2681 -1.6902
 2877SOL     OW19849   2.167   1.891   1.309  0.2753  0.3490  0.2108
 2877SOL    HW119850   2.078   1.877   1.353  0.1300 -0.6494 -0.3903
 2877SOL    HW219851   2.232   1.824   1.345  0.1279 -0.5486 -1.1739
 2878SOL     OW19852   4.558   0.126   2.762 -0.3574  0.0836 -0.6452
 2878SOL    HW119853   4.618   0.088   2.832  0.1409 -0.5694 -1.4136
 2878SOL    HW219854   4.565   0.071   2.679 -0.6446  1.0777 -1.3372
 2879SOL     OW19855   1.203   3.398   3.263  0.2155 -0.0946 -0.1749
 2879SOL    HW119856   1.198   3.408   3.362 -0.1489  0.7750 -0.2773
 2879SOL    HW219857   1.205   3.488   3.220  0.5217 -0.4630 -0.9540
 2880SOL     OW19858   4.657   7.510   2.984  0.0179 -0.3092  0.4030
 2880SOL    HW119859   4.588   7.439   2.967 -0.7688  0.6475 -0.4840
 2880SOL    HW219860   4.747   7.468   2.986 -0.4539 -1.3727  0.1130
 2881SOL     OW19861   8.102   1.239   2.491 -0.1183 -0.7017  0.1903
 2881SOL    HW119862   8.125   1.315   2.553 -0.9070  0.0073 -0.3861
 2881SOL    HW219863   8.177   1.173   2.491  0.8643  0.3974  0.2009
 2882SOL     OW19864   7.750   2.916   0.960  0.5179 -0.5795 -0.3419
 2882SOL    HW119865   7.689   2.996   0.956 -0.5523 -1.4059 -0.9201
 2882SOL    HW219866   7.722   2.857   1.035  0.3599 -1.1456 -0.8392
 2883SOL     OW19867   1.217   8.972   3.924  0.1742 -0.1981 -0.3949
 2883SOL    HW119868   1.215   9.053   3.982 -1.4148 -0.8481  0.4970
 2883SOL    HW219869   1.294   8.914   3.951 -0.2550 -0.2545  0.7616
 2884SOL     OW19870   4.162   8.408   4.333  0.3334 -0.0074 -0.0970
 2884SOL    HW119871   4.249   8.364   4.355  0.2871 -0.1371 -0.1718
 2884SOL    HW219872   4.179   8.504   4.310  0.8513 -0.8106 -3.2157
 2885SOL     OW19873   6.621   9.296   2.779 -0.1767 -0.2086  0.1629
 2885SOL    HW119874   6.685   9.328   2.709 -1.9443  1.8234 -0.5769
 2885SOL    HW219875   6.535   9.268   2.737 -0.0350 -2.3175  1.2104
 2886SOL     OW19876   9.002   8.488   2.220  0.1956  0.1640 -0.1152
 2886SOL    HW119877   8.941   8.430   2.275  0.8493 -0.7899 -0.3820
 2886SOL    HW219878   9.047   8.554   2.280 -0.8581  0.6778  0.1330
 2887SOL     OW19879   3.930   3.362   0.345 -0.4396 -0.4911 -0.8666
 2887SOL    HW119880   3.870   3.433   0.382  0.2376 -0.0328 -0.6183
 2887SOL    HW219881   3.932   3.368   0.246  0.3821  0.4846 -0.7980
 2888SOL     OW19882   2.134   9.795   3.533 -0.0043  0.0108  0.0439
 2888SOL    HW119883   2.191   9.792   3.451 -0.2048 -3.3406 -0.0660
 2888SOL    HW219884   2.042   9.824   3.509 -0.0123 -0.7748 -0.9158
 2889SOL     OW19885   8.769   9.171   6.053 -0.2788 -0.2872  0.0545
 2889SOL    HW119886   8.690   9.112   6.040  1.1604 -1.8479 -1.7958
 2889SOL    HW219887   8.850   9.116   6.073  0.4341  1.2643  1.6265
 2890SOL     OW19888   0.219   3.087   1.011  0.0750  0.7437 -0.4023
 2890SOL    HW119889   0.212   3.014   1.079  3.8622 -1.6753 -2.4480
 2890SOL    HW219890   0.278   3.160   1.046  0.5728  0.3296 -0.3627
 2891SOL     OW19891   0.074   0.586   6.713  0.0399 -0.0072  0.2500
 2891SOL    HW119892   0.108   0.618   6.801 -1.5918  1.2593  0.4657
 2891SOL    HW219893  -0.021   0.555   6.724 -0.1176  0.0116 -1.0116
 2892SOL     OW19894   9.150   8.561   4.631  0.2827  0.4561  0.5326
 2892SOL    HW119895   9.187   8.645   4.592  0.3366  0.6789  1.0531
 2892SOL    HW219896   9.185   8.549   4.724 -1.3105  0.9170  1.2211
 2893SOL     OW19897   8.812   5.354   1.319  0.4563 -0.4741 -0.1303
 2893SOL    HW119898   8.713   5.342   1.324 -0.1115  2.6669 -2.1070
 2893SOL    HW219899   8.849   5.293   1.249  0.0312 -2.1584  1.0987
 2894SOL     OW19900   7.699   7.291   5.672  0.2253  0.2130  0.0295
 2894SOL    HW119901   7.765   7.316   5.743  0.0734  0.5463  0.0560
 2894SOL    HW219902   7.607   7.285   5.712 -0.2411  2.7583 -0.5939
 2895SOL     OW19903   4.293   9.917   6.196 -0.0243 -0.2991  0.5218
 2895SOL    HW119904   4.212   9.859   6.208 -0.3766  0.2460  0.7815
 2895SOL    HW219905   4.266  10.005   6.158  0.9138 -1.5274 -3.2544
 2896SOL     OW19906   8.514   4.246   6.396 -0.4235 -0.3803  0.0047
 2896SOL    HW119907   8.431   4.196   6.370 -1.3357  0.5985  0.9192
 2896SOL    HW219908   8.510   4.267   6.494 -0.1046  1.4999 -0.3668
 2897SOL     OW19909   2.179   3.906   4.505 -0.0774  0.0765  0.0498
 2897SOL    HW119910   2.229   3.957   4.575  1.2192 -0.2052 -0.6350
 2897SOL    HW219911   2.154   3.816   4.540 -0.3728  0.3382  0.5102
 2898SOL     OW19912   3.279   9.494   0.762  0.3501  0.5940 -0.5651
 2898SOL    HW119913   3.185   9.507   0.793  0.3998 -0.1497 -0.0811
 2898SOL    HW219914   3.321   9.583   0.743 -0.2642  0.9561 -0.2365
 2899SOL     OW19915   3.706   5.877   5.131  0.3401 -0.2841 -0.2481
 2899SOL    HW119916   3.643   5.945   5.167 -0.2908 -0.9704 -0.0440
 2899SOL    HW219917   3.779   5.860   5.197  1.3364  1.2599 -0.9046
 2900SOL     OW19918   4.758   8.189   2.771  0.3597 -0.2197  0.4356
 2900SOL    HW119919   4.774   8.108   2.828  1.2357 -0.8726 -0.7157
 2900SOL    HW219920   4.745   8.161   2.676  1.5885  1.0568 -0.1252
 2901SOL     OW19921   3.640   3.665   6.602 -0.3023 -0.0413 -0.0044
 2901SOL    HW119922   3.579   3.596   6.641 -1.0215  0.4743 -0.1983
 2901SOL    HW219923   3.617   3.679   6.505 -1.0160  1.3781  0.3494
 2902SOL     OW19924   4.138   6.673   3.330  0.6028  0.0587 -0.7748
 2902SOL    HW119925   4.166   6.579   3.351 -0.1141  0.1151  0.4927
 2902SOL    HW219926   4.099   6.676   3.238 -0.7721 -1.1875 -0.2509
 2903SOL     OW19927   7.558   9.991   1.233 -0.2018  0.2007  0.5473
 2903SOL    HW119928   7.583  10.019   1.140  0.4509 -2.9504 -0.3075
 2903SOL    HW219929   7.637  10.002   1.294  0.0487  0.2492  0.2162
 2904SOL     OW19930   5.151   0.169   2.869  0.3941  0.4620 -0.1051
 2904SOL    HW119931   5.194   0.085   2.836 -0.1661 -0.0168  0.3801
 2904SOL    HW219932   5.100   0.212   2.794 -1.3000 -0.8928  0.2451
 2905SOL     OW19933   3.396   6.046   0.298  0.1553  0.3393  0.2788
 2905SOL    HW119934   3.486   6.019   0.263 -0.2794  0.4711 -0.9733
 2905SOL    HW219935   3.391   6.145   0.305  0.4247  0.2916  1.2499
 2906SOL     OW19936   1.989   4.978   6.438  0.7210  0.3295  0.0209
 2906SOL    HW119937   1.911   4.963   6.499  1.1781  0.6774  0.7115
 2906SOL    HW219938   2.033   4.891   6.417  0.3950  0.1784 -0.0339
 2907SOL     OW19939   2.701   8.945   3.936 -0.3110  0.4157  0.3514
 2907SOL    HW119940   2.649   9.019   3.895 -0.4750  0.3638  0.4663
 2907SOL    HW219941   2.780   8.982   3.984 -0.5107  0.5308  0.5892
 2908SOL     OW19942   6.329   1.526   4.860 -0.7455  0.1754 -0.7397
 2908SOL    HW119943   6.278   1.583   4.796  1.7079  2.5227 -0.7040
 2908SOL    HW219944   6.265   1.472   4.915 -2.9528 -0.3884 -3.7560
 2909SOL     OW19945   1.834   4.730   4.053 -0.2509 -0.1205 -0.4898
 2909SOL    HW119946   1.861   4.826   4.045  0.4374 -0.1635  1.0037
 2909SOL    HW219947   1.913   4.671   4.034 -0.3551 -0.3539 -0.2119
 2910SOL     OW19948   3.653   9.018   4.411 -0.2478 -0.0478  0.3475
 2910SOL    HW119949   3.579   9.084   4.393 -0.2475  0.3400  1.7255
 2910SOL    HW219950   3.614   8.934   4.449 -0.0017  0.1227  0.9898
 2911SOL     OW19951   1.943   8.473   4.909  1.1385 -0.5708  0.2987
 2911SOL    HW119952   1.856   8.471   4.960  1.3916 -0.7082  0.7279
 2911SOL    HW219953   1.966   8.380   4.880  1.2027 -0.5505  0.2850
 2912SOL     OW19954   6.966   0.708   2.742  0.5045  0.5478  0.2393
 2912SOL    HW119955   7.030   0.781   2.767  0.3617  0.1923  1.6778
 2912SOL    HW219956   7.012   0.620   2.748 -0.3681  0.2020  2.2746
 2913SOL     OW19957   1.222   7.001   6.378 -0.2136 -0.0758  0.3931
 2913SOL    HW119958   1.186   7.091   6.355 -1.4066 -0.9788 -1.3787
 2913SOL    HW219959   1.173   6.931   6.327 -1.3950 -2.0230  4.0305
 2914SOL     OW19960   4.307   1.285   5.278 -0.2287 -0.1582  0.1463
 2914SOL    HW119961   4.342   1.292   5.185  0.4727 -0.0389  0.4112
 2914SOL    HW219962   4.368   1.226   5.332  0.0235  0.7187  0.8366
 2915SOL     OW19963   2.782   2.480   6.283  0.1363 -0.0382 -0.0231
 2915SOL    HW119964   2.684   2.462   6.288 -0.0437  0.2992 -2.0333
 2915SOL    HW219965   2.821   2.473   6.374 -1.6941 -0.5168  0.7553
 2916SOL     OW19966   8.120   8.985   2.506  0.0558  0.0577  0.1334
 2916SOL    HW119967   8.097   8.929   2.426  3.1774  1.0607 -1.5503
 2916SOL    HW219968   8.102   9.081   2.485  1.6705  0.4118  0.3232
 2917SOL     OW19969   3.029   9.759   4.485 -0.1007  0.6865  0.1176
 2917SOL    HW119970   3.023   9.720   4.393  1.0782 -0.4545  0.5175
 2917SOL    HW219971   2.985   9.849   4.485 -2.2283 -0.2965 -0.9932
 2918SOL     OW19972   0.018   9.674   4.484 -0.3268 -0.0147 -0.4405
 2918SOL    HW119973  -0.019   9.764   4.461  0.1520  0.5822  1.1000
 2918SOL    HW219974   0.003   9.612   4.407 -2.0088  0.9661 -0.9371
 2919SOL     OW19975   9.245   6.524   2.165  0.4356  0.0811 -0.4705
 2919SOL    HW119976   9.238   6.584   2.244  1.9724  0.8160 -0.8815
 2919SOL    HW219977   9.300   6.443   2.189 -2.0005 -1.4245  0.2176
 2920SOL     OW19978   9.374   1.674   3.555  0.3020 -0.0037 -0.3769
 2920SOL    HW119979   9.341   1.748   3.614 -1.8759 -1.3984  0.2235
 2920SOL    HW219980   9.336   1.587   3.587 -0.2825 -0.8879 -3.3601
 2921SOL     OW19981   1.393   1.692   0.988  0.6318 -0.2040  0.2098
 2921SOL    HW119982   1.487   1.659   1.004  0.0918 -0.4489  3.1980
 2921SOL    HW219983   1.336   1.615   0.959  1.6062  0.2066 -2.9670
 2922SOL     OW19984   2.721   9.712   5.389 -0.1122  0.0618  0.6483
 2922SOL    HW119985   2.627   9.730   5.359 -0.2743 -1.2330  0.3494
 2922SOL    HW219986   2.721   9.690   5.487 -0.3662 -1.6792  0.2790
 2923SOL     OW19987   4.102   8.596   1.551 -0.5907 -0.6082  0.5090
 2923SOL    HW119988   4.097   8.615   1.452 -0.7296  0.8352  0.7840
 2923SOL    HW219989   4.077   8.501   1.567  0.0216 -1.0367 -0.9175
 2924SOL     OW19990   8.012   2.031   5.586 -0.4088  0.3315 -0.2791
 2924SOL    HW119991   8.020   2.040   5.686 -1.4269  1.1426 -0.2677
 2924SOL    HW219992   8.069   1.955   5.556 -0.4465 -0.2160  0.9786
 2925SOL     OW19993   0.694   6.722   4.094 -0.1293  0.0477 -0.6621
 2925SOL    HW119994   0.601   6.712   4.127  0.8216 -0.2878  1.9705
 2925SOL    HW219995   0.733   6.808   4.128  1.4634 -1.1457  0.6430
 2926SOL     OW19996   3.668   6.512   4.124  0.0831  0.2889 -0.0438
 2926SOL    HW119997   3.703   6.579   4.058 -0.3482 -0.8311 -1.4382
 2926SOL    HW219998   3.579   6.478   4.094 -0.2275 -0.0608  1.2436
 2927SOL     OW19999   3.284   4.520   5.701 -0.6778 -0.0621  0.4793
 2927SOL    HW120000   3.195   4.539   5.660 -1.1691 -2.3137  0.4271
 2927SOL    HW220001   3.356   4.541   5.636 -1.2709 -0.0564 -0.1786
 2928SOL     OW20002   3.744   9.368   2.296  0.2802  0.1722  0.1627
 2928SOL    HW120003   3.793   9.451   2.326  1.2958  0.1436 -1.3736
 2928SOL    HW220004   3.774   9.290   2.351  1.9297  0.1692 -0.7275
 2929SOL     OW20005   4.113   4.606   4.234  0.3013  0.7746  0.1780
 2929SOL    HW120006   4.172   4.533   4.201 -1.5670 -0.9987  0.6853
 2929SOL    HW220007   4.154   4.648   4.315  0.2082 -1.3609  1.3509
 2930SOL     OW20008   7.311   0.781   3.344 -0.3533  0.1777 -0.3191
 2930SOL    HW120009   7.246   0.801   3.271 -0.0851  2.4493  0.0333
 2930SOL    HW220010   7.295   0.688   3.378 -1.4958 -0.3427 -2.1842
 2931SOL     OW20011   0.078   1.531   3.787 -0.1385  0.0584 -0.7601
 2931SOL    HW120012   0.047   1.475   3.710 -0.4903  0.5169 -0.9583
 2931SOL    HW220013  -0.002   1.565   3.837  0.0878 -0.1440 -0.2624
 2932SOL     OW20014   4.334   4.703   2.652  0.5974  0.1090  0.1355
 2932SOL    HW120015   4.384   4.618   2.670  0.1750  0.1803  1.6315
 2932SOL    HW220016   4.383   4.780   2.694  0.5034  0.4933 -0.4522
 2933SOL     OW20017   7.867   4.303   3.592  0.0898 -0.3177 -0.0046
 2933SOL    HW120018   7.929   4.274   3.665  0.0123 -1.2696 -0.3038
 2933SOL    HW220019   7.782   4.335   3.632  0.2939 -0.2160  0.3542
 2934SOL     OW20020   2.634   3.021   2.157 -0.3062  0.1031  0.3510
 2934SOL    HW120021   2.683   2.961   2.219 -2.3930 -1.7715  0.2456
 2934SOL    HW220022   2.698   3.062   2.092  1.5474  0.2723  2.2362
 2935SOL     OW20023   3.345   7.078   5.257 -0.7203  0.2698 -0.2478
 2935SOL    HW120024   3.365   7.073   5.355  1.3232  0.6471 -0.6249
 2935SOL    HW220025   3.349   6.987   5.217 -0.7227  0.2218 -0.1374
 2936SOL     OW20026   8.438   9.312   6.380  0.1842 -0.2660 -0.1707
 2936SOL    HW120027   8.531   9.286   6.407  0.4859 -0.8964 -1.7366
 2936SOL    HW220028   8.423   9.409   6.399  0.9729 -0.2876  0.5783
 2937SOL     OW20029   7.585   1.371   2.228  0.6224  0.8639  0.2101
 2937SOL    HW120030   7.668   1.382   2.173  2.1451  0.5040  2.3853
 2937SOL    HW220031   7.566   1.274   2.241 -0.5557  0.9374 -0.8602
 2938SOL     OW20032   8.894   1.115   5.195  0.2251 -0.3940 -0.2571
 2938SOL    HW120033   8.881   1.057   5.114  1.7832 -0.8034 -0.2283
 2938SOL    HW220034   8.809   1.119   5.248 -1.0222  0.4104 -2.2534
 2939SOL     OW20035   8.495   8.195   0.593  0.5033  0.0029 -0.3231
 2939SOL    HW120036   8.406   8.201   0.548  0.2653  0.6718  0.2315
 2939SOL    HW220037   8.515   8.281   0.640  1.2450 -0.2994 -0.0738
 2940SOL     OW20038   5.608   0.219   5.206  0.1234 -0.6171 -0.4328
 2940SOL    HW120039   5.655   0.143   5.251 -0.5556 -0.1583  1.0866
 2940SOL    HW220040   5.640   0.306   5.245  0.2496 -0.1495 -1.5437
 2941SOL     OW20041   1.391   7.049   1.143  0.0908  0.2096 -0.2610
 2941SOL    HW120042   1.329   6.994   1.088  0.4813  0.0351 -0.5248
 2941SOL    HW220043   1.393   7.013   1.237  0.9766 -0.7404 -0.6348
 2942SOL     OW20044   1.767   2.652   4.370 -0.2213  0.2887 -0.4923
 2942SOL    HW120045   1.813   2.607   4.293 -1.4693 -1.7328 -0.0801
 2942SOL    HW220046   1.833   2.710   4.418  1.8627 -2.2934 -0.1036
 2943SOL     OW20047   1.792   5.023   2.836 -0.0363 -0.0408 -0.1505
 2943SOL    HW120048   1.876   5.038   2.786  0.9973 -1.8470  0.9710
 2943SOL    HW220049   1.718   5.075   2.794  1.6809  1.7748 -0.9805
 2944SOL     OW20050   0.886   2.263   2.846  0.5018 -0.1862  0.0324
 2944SOL    HW120051   0.807   2.229   2.795  0.0414 -0.3925  0.8587
 2944SOL    HW220052   0.890   2.362   2.841 -0.9830 -0.0144  1.6299
 2945SOL     OW20053   0.908   9.553   6.657 -0.3650 -0.4710 -0.1102
 2945SOL    HW120054   0.841   9.479   6.651  0.0968 -0.8284 -0.9143
 2945SOL    HW220055   0.860   9.641   6.664 -0.9347 -0.6119 -2.0118
 2946SOL     OW20056   9.545   8.004   5.518  0.8254 -0.0808 -0.4126
 2946SOL    HW120057   9.543   8.069   5.443  3.4446  0.0428 -0.4285
 2946SOL    HW220058   9.453   7.991   5.555 -0.1755  1.2603 -2.4175
 2947SOL     OW20059   9.330   0.380   0.378  0.0673  0.1636 -0.1376
 2947SOL    HW120060   9.384   0.354   0.458 -0.1701  2.8901  0.9425
 2947SOL    HW220061   9.391   0.391   0.299  0.8441  1.4236  0.6318
 2948SOL     OW20062   2.587   2.346   2.680 -0.2898  0.1527  0.4984
 2948SOL    HW120063   2.682   2.329   2.656 -0.1082  1.1583  0.4717
 2948SOL    HW220064   2.545   2.405   2.610 -0.6431  0.5412  1.0313
 2949SOL     OW20065   9.147   1.855   4.790 -0.6545  0.4322 -0.1849
 2949SOL    HW120066   9.224   1.872   4.850  0.1606  2.1310 -1.6536
 2949SOL    HW220067   9.163   1.771   4.737 -0.5243 -0.0377  0.5947
 2950SOL     OW20068   3.349   1.558   6.485 -0.1565  0.9452  0.2055
 2950SOL    HW120069   3.396   1.610   6.557 -1.1255  1.8236  0.2168
 2950SOL    HW220070   3.255   1.593   6.475 -0.7558 -0.6879  0.0886
 2951SOL     OW20071   1.264   1.223   6.267  0.0672 -0.1498  0.0731
 2951SOL    HW120072   1.233   1.318   6.266  1.0006  0.1567  0.3059
 2951SOL    HW220073   1.364   1.220   6.267  0.0484 -1.1203  0.7896
 2952SOL     OW20074   3.004   5.172   0.301 -0.6303 -0.2562  0.6217
 2952SOL    HW120075   3.078   5.117   0.262  0.2322  0.0737  1.7766
 2952SOL    HW220076   2.956   5.219   0.227  1.3920  0.8619 -0.0300
 2953SOL     OW20077   1.976   1.696   5.759 -0.4939  0.0674  0.6076
 2953SOL    HW120078   1.980   1.795   5.744 -0.6505 -0.3903 -2.9910
 2953SOL    HW220079   1.880   1.668   5.762 -0.4546 -0.2774 -0.9495
 2954SOL     OW20080   8.896   5.242   3.445  0.4628 -0.0062 -0.6646
 2954SOL    HW120081   8.841   5.284   3.373 -0.8184 -2.4843 -1.2031
 2954SOL    HW220082   8.911   5.145   3.423  0.9375 -0.5455  1.8742
 2955SOL     OW20083   0.662   2.695   4.792  0.2352 -0.0807  0.0100
 2955SOL    HW120084   0.693   2.706   4.886  2.4008  0.3436 -0.7196
 2955SOL    HW220085   0.693   2.606   4.758 -0.7017 -0.3112 -0.2508
 2956SOL     OW20086   2.073   3.055   4.422 -0.7332 -0.0818 -0.7128
 2956SOL    HW120087   2.046   3.094   4.334  0.7525  1.0576 -0.6901
 2956SOL    HW220088   2.166   3.019   4.415 -0.4481  0.3857  0.5002
 2957SOL     OW20089   0.126   1.575   1.500 -0.5348  0.3924  0.3954
 2957SOL    HW120090   0.221   1.603   1.490 -0.4603  0.2893  0.7856
 2957SOL    HW220091   0.068   1.629   1.439  0.2479 -2.3154 -2.8638
 2958SOL     OW20092   2.357   6.494   5.868  0.4303  0.3642 -0.3095
 2958SOL    HW120093   2.321   6.509   5.776 -0.1905 -0.2292 -0.1705
 2958SOL    HW220094   2.324   6.567   5.929 -1.0764 -0.5092 -0.0432
 2959SOL     OW20095   4.785   8.460   3.820 -0.7394 -0.3224 -0.3427
 2959SOL    HW120096   4.849   8.405   3.874 -0.5334 -0.6202 -0.8822
 2959SOL    HW220097   4.723   8.508   3.881 -0.3380 -0.4449  0.1703
 2960SOL     OW20098   1.491   4.076   3.783 -0.0622  0.0172 -0.2112
 2960SOL    HW120099   1.447   4.133   3.713 -1.1958 -0.3795  0.1730
 2960SOL    HW220100   1.458   4.102   3.873 -1.3973 -1.9403 -0.1071
 2961SOL     OW20101   2.275   7.128   5.965 -0.1529 -0.6292  0.1573
 2961SOL    HW120102   2.183   7.118   5.927  0.4316 -0.0633 -1.4627
 2961SOL    HW220103   2.290   7.223   5.992  0.5128 -0.3517 -1.1292
 2962SOL     OW20104   9.022   1.411   3.295 -0.3845 -0.3061 -0.3551
 2962SOL    HW120105   9.105   1.450   3.256  0.4989 -0.2871  1.4877
 2962SOL    HW220106   8.958   1.484   3.317 -0.3569 -0.2179 -0.5675
 2963SOL     OW20107   3.724   2.368   4.086  0.1158 -0.2846  0.0722
 2963SOL    HW120108   3.713   2.387   4.183  2.8520  0.8733  0.1855
 2963SOL    HW220109   3.684   2.442   4.032  1.0624  0.4591  0.3762
 2964SOL     OW20110   9.301   1.668   1.754  0.1831 -0.7392 -0.6160
 2964SOL    HW120111   9.261   1.578   1.776 -0.4597  0.2354  2.4198
 2964SOL    HW220112   9.390   1.677   1.798 -0.4802  0.7235  0.4699
 2965SOL     OW20113   5.151   2.303   2.367  0.9230 -0.4619  0.3741
 2965SOL    HW120114   5.179   2.325   2.274 -0.7887 -0.8902 -0.2430
 2965SOL    HW220115   5.161   2.205   2.383  1.9653 -0.2825  0.9148
 2966SOL     OW20116   1.117   1.416   6.074  0.5591 -0.5601  0.4995
 2966SOL    HW120117   1.206   1.435   6.032  0.6938  0.3590  1.1916
 2966SOL    HW220118   1.065   1.355   6.015  0.4075  1.3594 -1.4081
 2967SOL     OW20119   1.503   1.825   2.740  0.0223 -0.1655  0.0294
 2967SOL    HW120120   1.499   1.837   2.640 -0.2714 -3.1997 -0.3846
 2967SOL    HW220121   1.411   1.830   2.778 -0.5908 -4.2062 -0.6342
 2968SOL     OW20122   2.553   3.503   6.372  0.3775  0.3650 -0.5700
 2968SOL    HW120123   2.488   3.551   6.313 -0.3263  0.0847 -0.0275
 2968SOL    HW220124   2.617   3.570   6.412 -0.7404  0.8918  0.3653
 2969SOL     OW20125   0.178   7.934   2.227  0.0871  0.0242 -0.4069
 2969SOL    HW120126   0.262   7.931   2.281 -0.7633  2.4271  1.1379
 2969SOL    HW220127   0.099   7.931   2.288 -0.9206  0.8104 -1.6515
 2970SOL     OW20128   1.856   1.863   1.421 -0.0558  0.0896 -0.0046
 2970SOL    HW120129   1.921   1.913   1.479  0.3168 -0.1329 -0.2247
 2970SOL    HW220130   1.845   1.770   1.457 -0.3621  0.1697  0.1129
 2971SOL     OW20131   3.279   8.349   2.688  0.2655 -0.3623 -0.5362
 2971SOL    HW120132   3.285   8.265   2.635 -0.4104  0.2089 -1.5327
 2971SOL    HW220133   3.270   8.427   2.627 -0.9310  0.2725  0.4159
 2972SOL     OW20134   0.028   0.409   2.951  0.3173  0.3017  0.0022
 2972SOL    HW120135   0.060   0.385   3.043 -0.5202 -1.0075 -0.0240
 2972SOL    HW220136   0.107   0.432   2.893  1.0564 -1.0280  0.4492
 2973SOL     OW20137   1.761   5.048   1.339  0.0925 -0.5689 -0.2056
 2973SOL    HW120138   1.702   4.983   1.291 -0.3564 -1.1890  1.1594
 2973SOL    HW220139   1.846   5.002   1.365  0.1560 -0.3556 -0.0353
 2974SOL     OW20140   9.669   8.812   3.335 -0.1214  0.0298 -0.0026
 2974SOL    HW120141   9.621   8.853   3.413  0.7375  1.0322  0.0114
 2974SOL    HW220142   9.659   8.712   3.339  0.5618  0.0109  1.8408
 2975SOL     OW20143   9.719   6.360   4.191 -0.2817 -0.0439 -0.3627
 2975SOL    HW120144   9.723   6.318   4.101 -2.9865 -0.6164 -0.2516
 2975SOL    HW220145   9.805   6.342   4.240  0.6976 -0.8227 -2.3043
 2976SOL     OW20146   5.383   9.647   3.318  0.3206 -0.1569  0.3326
 2976SOL    HW120147   5.425   9.733   3.290 -0.3714 -0.0357 -0.3222
 2976SOL    HW220148   5.453   9.589   3.361  0.7630  0.7677  0.8883
 2977SOL     OW20149   8.859   4.380   1.860  0.5108 -0.4178  0.1257
 2977SOL    HW120150   8.853   4.476   1.832 -0.1657  0.0185  1.6891
 2977SOL    HW220151   8.822   4.321   1.788  0.1314  0.5652 -0.4885
 2978SOL     OW20152   8.354   9.283   0.682  0.0705 -0.6152 -0.5152
 2978SOL    HW120153   8.376   9.187   0.665  2.1654 -0.3274  0.3994
 2978SOL    HW220154   8.279   9.311   0.623 -0.2181 -2.6735 -1.1680
 2979SOL     OW20155   3.613   5.233   2.385 -0.5166 -0.2990 -0.3264
 2979SOL    HW120156   3.592   5.272   2.475  1.6863 -1.1382  0.6149
 2979SOL    HW220157   3.589   5.136   2.385 -0.5805 -0.2834 -0.6714
 2980SOL     OW20158   7.393   9.790   4.441 -0.1061  0.1986 -0.4180
 2980SOL    HW120159   7.338   9.745   4.512  0.8185  1.0563  0.8789
 2980SOL    HW220160   7.475   9.735   4.424  0.2593  0.5908  0.0510
 2981SOL     OW20161   0.076   6.171   2.443  0.6200  0.0738  0.2818
 2981SOL    HW120162   0.036   6.260   2.421  0.5440  0.0442  0.2981
 2981SOL    HW220163   0.053   6.147   2.537  1.1784  0.3250  0.4800
 2982SOL     OW20164   1.910   1.549   6.101 -1.2166 -0.4735 -0.6102
 2982SOL    HW120165   1.815   1.542   6.068 -0.8343  1.0145 -2.1120
 2982SOL    HW220166   1.931   1.470   6.158 -2.7174 -1.9103 -1.9672
 2983SOL     OW20167   7.568   1.738   6.220  0.4285  0.4333  0.2263
 2983SOL    HW120168   7.525   1.712   6.134  1.0861  0.8885 -0.2565
 2983SOL    HW220169   7.656   1.691   6.229  0.4984  0.6143  0.5017
 2984SOL     OW20170   5.345   0.105   3.485 -0.0639  0.0360 -0.2125
 2984SOL    HW120171   5.389   0.044   3.419 -0.2125 -0.4039  0.1000
 2984SOL    HW220172   5.266   0.060   3.525 -0.8805  0.8771 -0.8682
 2985SOL     OW20173   1.861   1.576   3.092  0.3043  0.2337 -0.1723
 2985SOL    HW120174   1.786   1.619   3.041  0.2856 -0.6230 -0.8746
 2985SOL    HW220175   1.936   1.642   3.100 -0.2378  0.8541 -0.0889
 2986SOL     OW20176   5.235   7.983   4.718 -0.8404  0.0342 -0.0129
 2986SOL    HW120177   5.137   7.994   4.732 -0.5190  1.5335  1.2564
 2986SOL    HW220178   5.264   8.042   4.643 -0.5110  1.5262  1.2628
 2987SOL     OW20179   0.673   1.932   2.268  0.3631 -0.2921  0.5237
 2987SOL    HW120180   0.617   2.015   2.274 -0.2345 -0.7557  1.5041
 2987SOL    HW220181   0.682   1.905   2.173 -0.0581  0.4810  0.2544
 2988SOL     OW20182   2.846   0.178   0.852  0.3160  0.1415  0.0572
 2988SOL    HW120183   2.803   0.256   0.897  0.6619 -0.4793  1.5087
 2988SOL    HW220184   2.906   0.132   0.917 -1.0268 -2.2133 -0.3095
 2989SOL     OW20185   4.170   5.695   2.923  0.6990  0.1834 -0.3114
 2989SOL    HW120186   4.169   5.792   2.947  2.0540  0.4093 -1.0913
 2989SOL    HW220187   4.077   5.662   2.913  0.2302  1.5675 -0.6226
 2990SOL     OW20188   8.625   3.339   2.679 -0.1856  0.2422  0.4684
 2990SOL    HW120189   8.698   3.292   2.729  1.5993  1.5703 -0.8572
 2990SOL    HW220190   8.564   3.384   2.744  1.5320  1.1017  1.5044
 2991SOL     OW20191   1.916   7.096   3.855  0.1119 -0.3539 -0.2189
 2991SOL    HW120192   1.821   7.080   3.828  0.6273 -0.0453 -2.3087
 2991SOL    HW220193   1.926   7.077   3.952 -2.1600 -0.0867  0.1103
 2992SOL     OW20194   3.559   1.637   3.889  0.2363  0.2072  0.0602
 2992SOL    HW120195   3.530   1.610   3.797 -0.8681 -1.6814  0.9322
 2992SOL    HW220196   3.621   1.715   3.882 -1.3319  1.3282 -2.1571
 2993SOL     OW20197   9.617   4.440   3.029 -0.2991 -0.0944 -0.5345
 2993SOL    HW120198   9.698   4.463   2.975  0.2499 -1.8398 -0.4922
 2993SOL    HW220199   9.560   4.375   2.978 -0.1042 -1.2561  0.6719
 2994SOL     OW20200   3.685   8.541   0.052 -0.1378 -0.4238 -0.0594
 2994SOL    HW120201   3.636   8.627   0.066 -1.5954 -1.2225 -0.1245
 2994SOL    HW220202   3.732   8.543  -0.036  1.1160  0.8881  0.6117
 2995SOL     OW20203   4.194   4.780   3.542  0.0266  0.1461  0.3018
 2995SOL    HW120204   4.224   4.865   3.498 -0.6529 -0.0285 -0.5108
 2995SOL    HW220205   4.268   4.713   3.537  0.2631  0.4111  0.1870
 2996SOL     OW20206   8.384   7.829   6.290 -0.0065 -0.8170  0.0678
 2996SOL    HW120207   8.366   7.799   6.384 -1.6436 -1.3624 -0.3883
 2996SOL    HW220208   8.317   7.786   6.229 -0.5425  1.4810 -1.0155
 2997SOL     OW20209   4.538   9.476   0.882 -0.8289 -0.2515 -0.8301
 2997SOL    HW120210   4.634   9.456   0.861 -0.4133  0.3360  0.4881
 2997SOL    HW220211   4.480   9.405   0.842  0.3629 -2.1567  0.7309
 2998SOL     OW20212   4.213   7.771   1.508 -0.4579  0.0504 -0.0772
 2998SOL    HW120213   4.225   7.736   1.600 -2.4995 -1.8788 -0.4868
 2998SOL    HW220214   4.161   7.857   1.511 -2.1248 -0.9574  0.4711
 2999SOL     OW20215   7.983   2.342   3.017  0.0737  0.0796  0.0558
 2999SOL    HW120216   7.893   2.333   3.060 -0.1772  2.1351  0.0053
 2999SOL    HW220217   8.027   2.252   3.012 -2.0316 -0.9601 -0.0476
 3000SOL     OW20218   8.803   5.584   1.452  0.0304  0.0876 -0.0597
 3000SOL    HW120219   8.869   5.652   1.423  0.1440  0.5373  1.2122
 3000SOL    HW220220   8.800   5.509   1.386 -0.7980  1.7771 -1.9706
 3001SOL     OW20221   8.660   8.225   5.302  0.7440 -0.2828  0.4310
 3001SOL    HW120222   8.610   8.312   5.297  0.2968 -0.5228  0.8194
 3001SOL    HW220223   8.758   8.244   5.299  0.6549  0.2698  1.0085
 3002SOL     OW20224   1.002   9.898   4.784 -0.0832 -0.1676  0.2932
 3002SOL    HW120225   0.942   9.955   4.728 -1.5810 -1.6178  0.3907
 3002SOL    HW220226   0.948   9.852   4.854  1.6347  0.9621  2.4219
 3003SOL     OW20227   6.090   4.854   1.045 -0.4291  0.2848 -0.0479
 3003SOL    HW120228   6.093   4.775   0.983  1.2599  0.4922 -0.2402
 3003SOL    HW220229   6.181   4.871   1.082 -1.0394  1.3734  0.9798
 3004SOL     OW20230   3.213   3.164   0.694  0.3945 -1.0622 -0.5974
 3004SOL    HW120231   3.257   3.243   0.651 -2.6429  0.4168 -1.1707
 3004SOL    HW220232   3.256   3.080   0.661  1.8729  0.2461 -2.1418
 3005SOL     OW20233   6.476   9.979   2.865 -0.2455 -0.0106  0.2343
 3005SOL    HW120234   6.465   9.895   2.812  0.0275  0.6585 -0.9088
 3005SOL    HW220235   6.414   9.978   2.943 -0.3952 -1.1779  0.1074
 3006SOL     OW20236   9.064   9.009   1.075  0.2932 -0.2031  0.2880
 3006SOL    HW120237   9.023   9.074   1.139  0.7522  0.5582 -0.1908
 3006SOL    HW220238   9.115   8.940   1.126 -0.7810 -0.6035  0.8404
 3007SOL     OW20239   6.527   4.110   0.329  0.1317  0.0596 -0.3143
 3007SOL    HW120240   6.573   4.084   0.414  0.9814  0.2778 -0.7037
 3007SOL    HW220241   6.446   4.053   0.316  1.2611 -1.5274 -0.5088
 3008SOL     OW20242   4.731   1.425   3.867  0.3469 -0.7239 -0.5900
 3008SOL    HW120243   4.813   1.476   3.892 -0.1893 -0.5624  0.8490
 3008SOL    HW220244   4.721   1.426   3.767  2.4957 -1.3699 -0.8506
 3009SOL     OW20245   2.827   8.008   1.417 -0.1455  0.0916  0.2465
 3009SOL    HW120246   2.851   7.964   1.330 -0.3585 -1.6706  1.0507
 3009SOL    HW220247   2.891   7.978   1.488 -0.3686  1.0004  0.8349
 3010SOL     OW20248   1.240   2.413   6.114 -0.0405  0.3604 -0.3297
 3010SOL    HW120249   1.269   2.499   6.156 -0.3857  0.5874 -0.5539
 3010SOL    HW220250   1.243   2.340   6.183 -1.6669  0.9562  0.3962
 3011SOL     OW20251   3.109   2.666   4.237  0.7440 -1.2453 -0.3560
 3011SOL    HW120252   3.018   2.635   4.267  0.7920 -1.8187 -0.7900
 3011SOL    HW220253   3.150   2.723   4.308 -0.4812  0.0605 -0.6863
 3012SOL     OW20254   0.122   5.011   4.812  0.1777 -0.3664 -0.0482
 3012SOL    HW120255   0.060   5.019   4.734 -1.2448 -0.8200  1.0015
 3012SOL    HW220256   0.103   5.083   4.878  1.3822  0.0252 -0.1175
 3013SOL     OW20257   8.218   6.756   2.513  0.0125  0.1059  0.0159
 3013SOL    HW120258   8.219   6.836   2.572  1.9984 -0.7864  1.2179
 3013SOL    HW220259   8.143   6.696   2.539 -0.9976  1.1714 -0.3854
 3014SOL     OW20260   3.480   1.817   0.327 -0.8772 -0.0228 -0.1140
 3014SOL    HW120261   3.403   1.870   0.291 -2.0161 -0.2440  1.9381
 3014SOL    HW220262   3.542   1.795   0.252 -3.2577 -0.6476 -1.9815
 3015SOL     OW20263   0.012   9.452   4.943  0.5192 -0.0954  0.0533
 3015SOL    HW120264   0.028   9.353   4.943  1.1453  0.0061 -0.5532
 3015SOL    HW220265  -0.068   9.472   4.886  0.0859 -0.2992  0.5843
 3016SOL     OW20266   3.481   6.725   4.692 -0.4111  0.1533 -0.1923
 3016SOL    HW120267   3.472   6.813   4.644 -1.9990  0.0704 -0.0959
 3016SOL    HW220268   3.440   6.733   4.783 -0.1354 -0.5494 -0.0058
 3017SOL     OW20269   2.825   3.054   5.543  0.2962  0.2127  0.4449
 3017SOL    HW120270   2.890   3.124   5.512  0.7032 -0.8530 -1.1063
 3017SOL    HW220271   2.874   2.983   5.594  0.1001  0.2424  0.6794
 3018SOL     OW20272   3.546   4.959   2.147 -0.0287  0.0310  0.0726
 3018SOL    HW120273   3.545   4.928   2.052 -2.3399  0.5415 -0.0915
 3018SOL    HW220274   3.492   5.042   2.156  0.2087  0.0197  1.8346
 3019SOL     OW20275   3.977   4.859   1.354  0.0742 -0.0840 -0.4106
 3019SOL    HW120276   4.049   4.924   1.329 -0.7437  1.2318  0.5549
 3019SOL    HW220277   3.888   4.895   1.324 -0.2260 -1.5323 -1.3095
 3020SOL     OW20278   4.251   7.021   3.010 -0.3948 -0.6201  0.2564
 3020SOL    HW120279   4.246   7.015   3.109  2.2116  0.2483  0.4943
 3020SOL    HW220280   4.182   7.086   2.977  1.5290  2.4265  1.9647
 3021SOL     OW20281   3.390   3.423   4.435 -0.0272  0.3822 -0.2658
 3021SOL    HW120282   3.385   3.382   4.343  0.9390  0.1891 -0.2395
 3021SOL    HW220283   3.397   3.523   4.426  0.6876  0.3216 -0.4259
 3022SOL     OW20284   7.832   9.805   0.973 -0.0910  0.9683  0.5618
 3022SOL    HW120285   7.821   9.713   0.935 -1.5589  1.1994  0.4023
 3022SOL    HW220286   7.899   9.802   1.047 -0.2553 -0.2519  0.6815
 3023SOL     OW20287   4.403   5.034   5.000  0.1703 -0.1954  0.0718
 3023SOL    HW120288   4.456   5.040   4.915 -1.1937  0.0416 -0.7738
 3023SOL    HW220289   4.308   5.055   4.981 -0.2789 -0.8584  1.5481
 3024SOL     OW20290   7.736   9.919   5.964  0.4536 -0.1951  0.5946
 3024SOL    HW120291   7.745   9.864   5.882 -0.1160  0.6518 -0.0466
 3024SOL    HW220292   7.713   9.861   6.042  0.3134 -0.9064  0.0193
 3025SOL     OW20293   9.813   7.221   3.156  0.1761  0.3099 -0.3242
 3025SOL    HW120294   9.913   7.227   3.151  0.1307  0.1144 -1.6469
 3025SOL    HW220295   9.787   7.135   3.200  0.5700 -0.6484 -1.9496
 3026SOL     OW20296   4.020   7.498   4.739 -0.2503 -0.5348  0.1441
 3026SOL    HW120297   3.925   7.471   4.723 -0.4340  1.0132 -1.5273
 3026SOL    HW220298   4.081   7.432   4.695 -0.5738 -0.9509  0.3147
 3027SOL     OW20299   3.488   1.785   6.119 -0.2100 -0.4883  0.4705
 3027SOL    HW120300   3.493   1.815   6.024 -1.6096 -0.6177  0.3456
 3027SOL    HW220301   3.469   1.864   6.178 -3.0812 -0.9241  0.2250
 3028SOL     OW20302   0.117   4.285   3.234 -0.1766 -0.2962  0.5373
 3028SOL    HW120303   0.165   4.241   3.310  0.7214 -0.3897 -0.0745
 3028SOL    HW220304   0.160   4.373   3.214 -1.2630  0.3645  1.0155
 3029SOL     OW20305   3.169   6.539   6.659 -0.4020  0.3071 -0.0397
 3029SOL    HW120306   3.180   6.478   6.737 -2.5902 -0.1476 -0.0659
 3029SOL    HW220307   3.129   6.625   6.689  2.0911  1.5569 -0.1047
 3030SOL     OW20308   1.784   4.643   0.534  0.0153 -0.2023 -0.4210
 3030SOL    HW120309   1.796   4.710   0.460  2.1846 -0.9574 -0.7978
 3030SOL    HW220310   1.701   4.664   0.585 -1.2705  0.5982 -2.7883
 3031SOL     OW20311   6.268   2.825   4.200 -0.2736 -1.0685 -0.0497
 3031SOL    HW120312   6.297   2.859   4.111  0.0031  0.2486  0.5314
 3031SOL    HW220313   6.347   2.820   4.261 -1.1104  2.1464  1.4212
 3032SOL     OW20314   1.212   2.892   3.070  0.1286 -0.4766 -0.3014
 3032SOL    HW120315   1.247   2.835   3.144  1.3629 -1.8494 -1.9073
 3032SOL    HW220316   1.194   2.985   3.105  1.6808 -0.8152  1.4522
 3033SOL     OW20317   0.441   8.853   3.281  0.2742  0.3770  0.1414
 3033SOL    HW120318   0.409   8.937   3.238  1.2811  0.8982  0.4068
 3033SOL    HW220319   0.540   8.857   3.294  0.5107 -1.3453 -0.9595
 3034SOL     OW20320   2.421   1.544   4.137 -0.4375 -0.0943  0.2173
 3034SOL    HW120321   2.439   1.489   4.219 -0.6883  1.0656  1.0521
 3034SOL    HW220322   2.497   1.532   4.072 -0.1772 -0.9166  0.6591
 3035SOL     OW20323   9.452   3.471   3.647  0.0047 -0.3564 -0.0640
 3035SOL    HW120324   9.552   3.470   3.658 -0.1941  3.1729  3.1310
 3035SOL    HW220325   9.409   3.463   3.736 -2.6874 -2.2691 -1.4477
 3036SOL     OW20326   9.762   7.688   1.476  0.2582  0.0626  0.3490
 3036SOL    HW120327   9.731   7.738   1.556 -0.4754 -0.7849  0.6053
 3036SOL    HW220328   9.787   7.594   1.503 -1.3278 -0.6682 -0.6390
 3037SOL     OW20329   5.195   9.010   5.066 -0.2180  0.1755  0.1687
 3037SOL    HW120330   5.135   9.007   5.146 -0.3093  1.0639  0.1490
 3037SOL    HW220331   5.272   8.948   5.079 -1.1105 -0.9372  0.2148
 3038SOL     OW20332   2.076   5.749   0.725  0.6238 -0.0647 -0.2469
 3038SOL    HW120333   2.060   5.652   0.745 -0.5753  0.1392 -0.1617
 3038SOL    HW220334   2.171   5.772   0.746  0.3574 -0.7168  1.7756
 3039SOL     OW20335   3.535   4.267   0.247 -0.3600  0.0553 -0.2390
 3039SOL    HW120336   3.480   4.241   0.167 -0.3690 -1.5456  0.2723
 3039SOL    HW220337   3.612   4.323   0.218 -0.0495 -0.9792 -1.4466
 3040SOL     OW20338   6.172   5.303   0.833 -0.3363  0.2135  0.5128
 3040SOL    HW120339   6.146   5.247   0.755 -1.5542 -1.3454  1.9929
 3040SOL    HW220340   6.272   5.309   0.838 -0.1331 -2.4986  0.7304
 3041SOL     OW20341   8.046   0.537   2.898 -0.2864  0.1620  0.2339
 3041SOL    HW120342   7.973   0.511   2.835 -0.7553  1.1049  0.3803
 3041SOL    HW220343   8.034   0.489   2.984 -1.5176  1.3287  0.7269
 3042SOL     OW20344   3.987   8.364   0.346  0.0527 -0.0787 -0.3030
 3042SOL    HW120345   3.989   8.444   0.286  1.8573  0.4342  0.4053
 3042SOL    HW220346   4.020   8.284   0.296  1.0861  0.2462 -0.1583
 3043SOL     OW20347   8.232   0.732   4.428  0.0597  0.1081 -0.5817
 3043SOL    HW120348   8.286   0.729   4.344 -0.8060 -0.8470 -1.1126
 3043SOL    HW220349   8.275   0.794   4.493  1.5238 -0.2616 -1.1869
 3044SOL     OW20350   3.175   4.287   3.047 -0.0925 -0.5941  0.3858
 3044SOL    HW120351   3.142   4.318   2.958 -0.0792  1.0377  0.9209
 3044SOL    HW220352   3.190   4.367   3.106  0.0520 -1.6410  1.7912
 3045SOL     OW20353   8.190   9.761   6.662  0.2298 -0.1092  0.3860
 3045SOL    HW120354   8.137   9.791   6.583  0.3796 -0.4240  0.1654
 3045SOL    HW220355   8.154   9.674   6.696  0.8000 -0.4897  0.0383
 3046SOL     OW20356   4.251   5.045   4.236  0.3993  0.2786  0.0428
 3046SOL    HW120357   4.204   4.958   4.217  0.4472  0.1785  0.3821
 3046SOL    HW220358   4.260   5.097   4.151  1.8381 -0.7663 -0.4680
 3047SOL     OW20359   9.569   6.426   0.628 -0.0899  0.1831  0.6915
 3047SOL    HW120360   9.658   6.392   0.597 -0.0244 -0.1168  1.1940
 3047SOL    HW220361   9.582   6.493   0.701 -0.2896 -0.2168  1.0976
 3048SOL     OW20362   8.851   5.310   2.060 -0.3478  0.3236  0.9201
 3048SOL    HW120363   8.902   5.249   2.121  0.3763  0.5271  0.5287
 3048SOL    HW220364   8.915   5.356   1.998 -1.2389 -1.2784 -1.2471
 3049SOL     OW20365   9.281   8.085   1.103 -0.1809  0.3186  0.0685
 3049SOL    HW120366   9.184   8.062   1.114  0.1761 -1.0493  0.4058
 3049SOL    HW220367   9.305   8.160   1.166 -0.7898  0.0206  0.6619
 3050SOL     OW20368   2.838   4.002   0.464  0.0682  0.1371  0.3661
 3050SOL    HW120369   2.868   3.910   0.442 -0.4567 -0.1131  0.6968
 3050SOL    HW220370   2.750   3.999   0.512 -0.8910  0.8846 -1.2823
 3051SOL     OW20371   0.595   5.336   0.690 -0.0755 -0.1719 -0.3157
 3051SOL    HW120372   0.590   5.272   0.767 -0.6024  1.1691  0.8021
 3051SOL    HW220373   0.676   5.317   0.636  0.1722 -1.3091  0.4289
 3052SOL     OW20374   1.116   0.765   4.633  0.3090 -0.0713  0.0243
 3052SOL    HW120375   1.082   0.835   4.695  0.7640 -1.3634  1.7979
 3052SOL    HW220376   1.050   0.691   4.626  0.0140  0.3225 -1.5009
 3053SOL     OW20377   9.201   1.510   4.373 -0.4374  0.2581 -0.0702
 3053SOL    HW120378   9.165   1.423   4.406 -0.8034  0.0922 -0.9042
 3053SOL    HW220379   9.281   1.493   4.315 -0.6512  0.4670 -0.4232
 3054SOL     OW20380   9.266   7.789   1.816  0.2139  0.3065 -0.6823
 3054SOL    HW120381   9.322   7.855   1.867  0.4600 -0.5343  0.1496
 3054SOL    HW220382   9.200   7.747   1.878  1.1101 -1.3775 -0.8527
 3055SOL     OW20383   0.144   6.434   3.689  0.0698 -0.0606  0.0451
 3055SOL    HW120384   0.214   6.475   3.747  0.6209 -0.5154 -0.3013
 3055SOL    HW220385   0.102   6.505   3.632 -1.3574  0.6078  1.9064
 3056SOL     OW20386   1.005   4.841   4.965  0.6834 -0.4895  0.5334
 3056SOL    HW120387   0.959   4.930   4.974  1.6594  0.0682  0.0772
 3056SOL    HW220388   1.045   4.815   5.052  1.4566  0.1024  0.3530
 3057SOL     OW20389   3.638   5.177   4.349 -0.4233 -0.0316 -0.6019
 3057SOL    HW120390   3.570   5.152   4.279 -1.4184  2.1610 -0.4400
 3057SOL    HW220391   3.592   5.192   4.436  0.5926 -0.8518  0.0925
 3058SOL     OW20392   0.614   5.240   1.251 -0.1658  0.8074  0.7722
 3058SOL    HW120393   0.563   5.326   1.243  0.3512  1.0467 -0.0166
 3058SOL    HW220394   0.711   5.261   1.262 -0.3425  0.3898  3.4712
 3059SOL     OW20395   1.708   7.391   4.528 -0.4401 -0.0911  0.0457
 3059SOL    HW120396   1.669   7.435   4.447  0.0969 -1.4586 -0.9770
 3059SOL    HW220397   1.793   7.437   4.553 -0.9440  0.7472  0.2256
 3060SOL     OW20398   8.979   6.956   4.019  0.0141 -0.5250 -0.0605
 3060SOL    HW120399   8.979   7.056   4.028 -0.7343 -0.6239  1.0270
 3060SOL    HW220400   8.911   6.917   4.081 -1.0399 -1.5960 -1.8672
 3061SOL     OW20401   6.246   4.977   0.172  0.2447 -0.5187  0.1253
 3061SOL    HW120402   6.303   4.908   0.217 -0.3952  1.3379  4.0452
 3061SOL    HW220403   6.292   5.066   0.174 -0.3228 -0.1525 -1.9277
 3062SOL     OW20404   4.476   5.171   5.238 -0.3153  0.2053 -0.3127
 3062SOL    HW120405   4.416   5.138   5.310 -1.5018  1.5200 -0.6842
 3062SOL    HW220406   4.459   5.118   5.154  0.3962 -0.6846  0.0916
 3063SOL     OW20407   2.186   6.087   1.817  0.4816 -0.3177  0.6719
 3063SOL    HW120408   2.120   6.156   1.789  0.9492 -0.6794 -1.4176
 3063SOL    HW220409   2.138   6.003   1.841 -0.0005  0.3299  2.0026
 3064SOL     OW20410   4.584   2.137   0.614  0.3186 -0.4784  0.1544
 3064SOL    HW120411   4.621   2.203   0.679 -2.3622 -0.4206  1.6852
 3064SOL    HW220412   4.588   2.045   0.654 -2.7642 -0.2457  1.0827
 3065SOL     OW20413   9.026   0.379   4.473  0.5220  0.1307  0.1287
 3065SOL    HW120414   8.983   0.305   4.422 -0.0499  0.5838 -0.0405
 3065SOL    HW220415   8.975   0.397   4.557  1.4469 -0.5938  0.8601
 3066SOL     OW20416   6.930   7.289   3.608 -0.1858 -0.5571 -0.3207
 3066SOL    HW120417   6.875   7.281   3.691 -0.0093  0.1587 -0.1279
 3066SOL    HW220418   7.010   7.230   3.615  1.2199  1.4616  1.1672
 3067SOL     OW20419   9.609   7.390   3.052  0.0901 -0.1471 -0.1207
 3067SOL    HW120420   9.689   7.347   3.095 -0.0171  0.6608  0.9222
 3067SOL    HW220421   9.542   7.320   3.029  0.9100 -0.7854 -0.5943
 3068SOL     OW20422   8.785   2.640   3.132  0.2801 -0.1132  0.2031
 3068SOL    HW120423   8.789   2.556   3.187  0.0146 -2.0651 -2.6241
 3068SOL    HW220424   8.690   2.670   3.124  0.3015  0.0785  0.6575
 3069SOL     OW20425   0.430   8.807   3.563  0.5321  0.0702 -0.3976
 3069SOL    HW120426   0.456   8.712   3.546 -1.1040 -0.4491 -0.1253
 3069SOL    HW220427   0.405   8.850   3.476 -1.6528 -0.6815 -0.1830
 3070SOL     OW20428   0.009   4.338   1.212  0.4516  0.1424 -0.1862
 3070SOL    HW120429  -0.004   4.255   1.266  1.1773  0.2385  0.1437
 3070SOL    HW220430  -0.015   4.320   1.117  0.8893 -0.5353 -0.1759
 3071SOL     OW20431   4.818   4.800   0.965  0.0923  0.5911  0.4361
 3071SOL    HW120432   4.719   4.791   0.958  0.3712 -2.2939 -0.4900
 3071SOL    HW220433   4.861   4.767   0.880  1.8549  1.7349  0.8476
 3072SOL     OW20434   6.402   8.305   2.534 -0.0656 -0.3963 -0.1888
 3072SOL    HW120435   6.474   8.243   2.566 -0.0219  0.7482  2.0072
 3072SOL    HW220436   6.343   8.256   2.469  0.1065 -2.6965  1.3243
 3073SOL     OW20437   8.615   9.447   5.482  0.2925  0.1154  0.0902
 3073SOL    HW120438   8.637   9.360   5.438 -1.3077 -0.4708  0.3969
 3073SOL    HW220439   8.635   9.442   5.579 -0.6987 -0.2588  0.2847
 3074SOL     OW20440   2.312   7.784   3.132 -0.3962 -0.6510  0.3580
 3074SOL    HW120441   2.298   7.862   3.192 -1.3842 -1.4821  1.2355
 3074SOL    HW220442   2.351   7.708   3.184 -0.6701 -1.1708 -0.1829
 3075SOL     OW20443   1.032   0.048   4.227  0.7834 -0.3651 -0.5956
 3075SOL    HW120444   1.031   0.036   4.127  0.9724 -0.7124 -0.5562
 3075SOL    HW220445   1.126   0.050   4.260  0.7623  1.3706 -0.6073
 3076SOL     OW20446   6.517   1.460   4.122 -0.2015  0.5260 -0.2064
 3076SOL    HW120447   6.426   1.418   4.124 -0.0898  0.1199 -2.3132
 3076SOL    HW220448   6.582   1.395   4.082  1.1500  0.5957  1.8208
 3077SOL     OW20449   1.733   8.901   5.584  0.0241  0.1483 -0.0443
 3077SOL    HW120450   1.686   8.813   5.583 -3.0519  1.7307 -1.6046
 3077SOL    HW220451   1.819   8.892   5.634  0.7197 -4.1596 -1.7865
 3078SOL     OW20452   5.569   0.573   3.381  0.3057  0.0063 -0.2322
 3078SOL    HW120453   5.494   0.639   3.380  0.6726  0.4926  1.6385
 3078SOL    HW220454   5.542   0.494   3.437  0.8929 -0.1676 -0.1923
 3079SOL     OW20455   9.501   2.826   5.760  0.1119 -0.9321  0.1722
 3079SOL    HW120456   9.419   2.856   5.712  1.0153  1.1504 -0.1225
 3079SOL    HW220457   9.480   2.811   5.857 -0.6796 -0.6913  0.0383
 3080SOL     OW20458   9.336   2.617   0.146 -0.2585  0.5572  0.3974
 3080SOL    HW120459   9.258   2.642   0.087  0.1989 -0.4761 -0.6736
 3080SOL    HW220460   9.305   2.610   0.241 -1.1312  1.6891  0.2184
 3081SOL     OW20461   4.209   1.487   3.465  0.2764  0.1509 -0.3876
 3081SOL    HW120462   4.139   1.470   3.396  1.2036 -0.5824 -1.1654
 3081SOL    HW220463   4.190   1.433   3.546 -0.8372  1.0414 -0.0381
 3082SOL     OW20464   0.680   8.680   6.160  0.7084  0.3756 -0.4085
 3082SOL    HW120465   0.768   8.675   6.112  0.0827 -1.0944 -1.4399
 3082SOL    HW220466   0.695   8.713   6.253  2.2946  0.5954 -0.7300
 3083SOL     OW20467   9.794   9.729   5.663  0.0567  0.0406 -0.4210
 3083SOL    HW120468   9.753   9.737   5.753 -0.9103  0.7222 -0.9190
 3083SOL    HW220469   9.854   9.649   5.660 -0.5985 -0.4850  0.5478
 3084SOL     OW20470   1.373   2.878   5.891 -0.2547  0.1420 -0.1050
 3084SOL    HW120471   1.426   2.954   5.855  2.0521 -1.7352 -0.8478
 3084SOL    HW220472   1.360   2.809   5.819 -2.5516 -0.0667  0.4654
 3085SOL     OW20473   9.585   2.625   2.492 -0.0912 -0.2128  0.4267
 3085SOL    HW120474   9.531   2.686   2.433  0.9517  0.3430  0.0243
 3085SOL    HW220475   9.535   2.608   2.577 -0.7882  0.4857  0.1691
 3086SOL     OW20476   6.100   4.674   6.480 -0.8828 -0.5813  0.6112
 3086SOL    HW120477   6.159   4.594   6.474 -0.2228 -0.0594  0.0741
 3086SOL    HW220478   6.138   4.739   6.545 -0.4656  0.0831 -0.2892
 3087SOL     OW20479   2.580   1.672   0.862  0.0160 -0.3051 -0.3680
 3087SOL    HW120480   2.666   1.683   0.913  0.2226  1.2372 -1.0219
 3087SOL    HW220481   2.558   1.757   0.815 -1.4310 -0.9660 -0.9199
 3088SOL     OW20482   0.567   5.887   2.116 -0.4115  0.9280  0.2119
 3088SOL    HW120483   0.547   5.789   2.125 -2.2989  1.3373  0.8397
 3088SOL    HW220484   0.529   5.920   2.030 -0.0295  1.1684  0.1363
 3089SOL     OW20485   8.003   6.708   5.485  0.3315  0.5184  0.2230
 3089SOL    HW120486   8.011   6.764   5.568  1.8484  1.8133 -0.7459
 3089SOL    HW220487   8.014   6.767   5.405  1.1944 -1.0551 -0.8429
 3090SOL     OW20488   8.064   3.107   5.391 -0.3016  0.1596  0.1224
 3090SOL    HW120489   8.119   3.030   5.424  0.2729  1.0717  1.3368
 3090SOL    HW220490   8.011   3.078   5.311  2.0411 -0.6802 -1.1692
 3091SOL     OW20491   9.683   2.342   1.656  0.2133  0.7616 -0.1449
 3091SOL    HW120492   9.732   2.367   1.573 -0.3322 -1.2038 -1.0951
 3091SOL    HW220493   9.736   2.273   1.706 -1.6270 -1.6064 -1.3355
 3092SOL     OW20494   1.923   6.539   0.581  0.1459  0.0573 -0.0596
 3092SOL    HW120495   1.990   6.472   0.549  1.2494  0.8399  0.5618
 3092SOL    HW220496   1.960   6.631   0.569 -1.0000  0.5157 -0.1116
 3093SOL     OW20497   4.085   0.342   5.501  0.5899 -0.1500  0.1001
 3093SOL    HW120498   4.018   0.370   5.433 -0.4260  1.2287  1.6270
 3093SOL    HW220499   4.157   0.287   5.457 -1.7549 -2.0561 -1.4449
 3094SOL     OW20500   8.119   0.190   6.491 -0.2407  0.4169  0.0148
 3094SOL    HW120501   8.148   0.286   6.489 -0.8868  0.6561  1.5524
 3094SOL    HW220502   8.074   0.170   6.578 -0.5019 -1.1783 -0.4626
 3095SOL     OW20503   4.507   0.505   3.985 -0.1721  0.2821  0.3067
 3095SOL    HW120504   4.552   0.492   3.897 -0.0251  1.7922  0.1574
 3095SOL    HW220505   4.508   0.418   4.035  1.2130 -0.1721 -0.4785
 3096SOL     OW20506   2.132   2.442   0.306  0.4483 -0.1610 -0.5538
 3096SOL    HW120507   2.184   2.393   0.377  1.4681  2.0868  0.2876
 3096SOL    HW220508   2.034   2.431   0.324  0.6741 -1.1044  0.1535
 3097SOL     OW20509   1.735   5.148   2.007  0.8263 -0.3365  0.0926
 3097SOL    HW120510   1.729   5.135   2.106  1.1463  0.4550  0.2244
 3097SOL    HW220511   1.751   5.060   1.962 -0.7045 -0.8979  0.6314
 3098SOL     OW20512   9.236   9.438   4.419 -1.3526 -0.1148  0.1783
 3098SOL    HW120513   9.177   9.369   4.461 -1.3567 -0.0295  0.3080
 3098SOL    HW220514   9.188   9.481   4.343 -0.8353 -1.2737 -0.8347
 3099SOL     OW20515   7.330   2.699   3.737  0.4071  0.0768 -0.1410
 3099SOL    HW120516   7.350   2.607   3.771 -1.4758 -1.0406 -1.9390
 3099SOL    HW220517   7.246   2.697   3.684  0.7326  2.7207 -0.8104
 3100SOL     OW20518   4.727   3.884   6.345 -0.0159  0.5166 -0.3220
 3100SOL    HW120519   4.794   3.841   6.286 -0.2770  0.1079 -0.3217
 3100SOL    HW220520   4.758   3.976   6.370 -0.7320  1.4057 -2.5621
 3101SOL     OW20521   4.336   6.260   1.502  0.0687  0.4033  0.4136
 3101SOL    HW120522   4.236   6.266   1.492  0.0202 -2.0863 -0.9824
 3101SOL    HW220523   4.358   6.212   1.587  0.0711  0.4382  0.4330
 3102SOL     OW20524   9.488   6.194   0.165  0.4443  0.1690  0.1408
 3102SOL    HW120525   9.471   6.257   0.241  0.5155 -0.5301  0.7483
 3102SOL    HW220526   9.402   6.152   0.137  0.5814 -0.4751  0.6494
 3103SOL     OW20527   3.139   4.121   4.771  0.1533 -0.3905 -0.2423
 3103SOL    HW120528   3.200   4.068   4.711  1.3994  0.1577  0.5139
 3103SOL    HW220529   3.149   4.219   4.750 -1.9343 -0.3916 -1.4466
 3104SOL     OW20530   8.475   9.268   2.486 -0.1021  0.4400  0.1712
 3104SOL    HW120531   8.509   9.320   2.408  1.8604  0.2796  0.9036
 3104SOL    HW220532   8.454   9.175   2.457  0.8644  0.3077 -0.1180
 3105SOL     OW20533   4.453   9.123   5.034 -0.4568  0.3358  0.2756
 3105SOL    HW120534   4.449   9.214   4.992  2.0267  0.4939  0.3160
 3105SOL    HW220535   4.473   9.055   4.963  2.6229  0.4652  0.9538
 3106SOL     OW20536   8.731   8.374   4.330  0.1966 -0.0790 -0.2754
 3106SOL    HW120537   8.791   8.318   4.386  0.7232  0.5938 -0.1596
 3106SOL    HW220538   8.639   8.333   4.328  0.3671 -0.4978  0.4617
 3107SOL     OW20539   2.599   0.165   0.057 -0.0434  0.1533 -0.3209
 3107SOL    HW120540   2.679   0.222   0.039 -0.5358  0.4427 -1.6546
 3107SOL    HW220541   2.526   0.221   0.097 -0.6554  0.5494 -1.9705
 3108SOL     OW20542   1.123   8.115   4.173  0.1927  0.3661  0.3711
 3108SOL    HW120543   1.186   8.183   4.212  0.9749  0.1124 -0.4436
 3108SOL    HW220544   1.137   8.108   4.075 -0.2861 -0.5663  0.3585
 3109SOL     OW20545   4.038   0.548   2.641 -0.1099 -0.1111 -0.7772
 3109SOL    HW120546   3.963   0.534   2.576 -1.3051 -0.6378  0.6957
 3109SOL    HW220547   4.023   0.491   2.722  0.3506  2.0010  0.8334
 3110SOL     OW20548   7.370   3.783   0.208  0.0539 -0.2833  0.0663
 3110SOL    HW120549   7.404   3.836   0.131 -2.2363  2.7604  1.0704
 3110SOL    HW220550   7.279   3.748   0.187 -0.1101 -0.4035  0.9610
 3111SOL     OW20551   2.737   4.288   6.471 -0.2146  0.1304  0.4065
 3111SOL    HW120552   2.662   4.235   6.511 -0.2065  0.8004  1.3246
 3111SOL    HW220553   2.781   4.343   6.542  1.9008 -1.1226  0.1109
 3112SOL     OW20554   9.683   7.860   1.652 -0.5165  0.1510  0.0820
 3112SOL    HW120555   9.729   7.945   1.678 -0.1108  0.4583 -1.5995
 3112SOL    HW220556   9.588   7.879   1.627 -0.3939  0.1221 -0.4013
 3113SOL     OW20557   3.352   8.279   1.698  0.0826  0.3071  0.0443
 3113SOL    HW120558   3.257   8.251   1.690  0.3406 -0.6078  0.1867
 3113SOL    HW220559   3.361   8.346   1.772 -0.0861 -1.2918  1.5281
 3114SOL     OW20560   2.893   8.929   2.612 -0.3403 -0.7559 -0.8103
 3114SOL    HW120561   2.795   8.928   2.629 -0.1783  2.6605  0.6773
 3114SOL    HW220562   2.940   8.872   2.680 -0.9840  0.8405  1.0134
 3115SOL     OW20563   9.643   7.726   5.540 -0.0577  0.2524 -0.8122
 3115SOL    HW120564   9.702   7.693   5.466 -0.2605  0.7227 -1.1814
 3115SOL    HW220565   9.571   7.784   5.502 -1.4087 -1.1642 -0.5083
 3116SOL     OW20566   0.417   2.163   3.409 -0.0154  0.7524  0.4876
 3116SOL    HW120567   0.465   2.077   3.430 -1.3091  0.4088  2.1203
 3116SOL    HW220568   0.326   2.142   3.371  0.1735  1.4111 -0.3510
 3117SOL     OW20569   3.051   4.262   2.342 -0.0779 -0.6147 -0.2612
 3117SOL    HW120570   3.150   4.254   2.333 -0.1008 -0.6805 -0.4608
 3117SOL    HW220571   3.007   4.194   2.284 -0.2565  0.0609 -0.9259
 3118SOL     OW20572   7.643   7.459   4.612  0.0358  0.0112  0.2619
 3118SOL    HW120573   7.664   7.514   4.532 -0.7986 -0.3905 -0.2341
 3118SOL    HW220574   7.685   7.369   4.603 -1.6443 -0.6995 -0.6073
 3119SOL     OW20575   9.979   8.151   3.927 -0.5272  0.0117  0.0711
 3119SOL    HW120576   9.942   8.180   3.839  2.5023  1.2426 -0.8943
 3119SOL    HW220577  10.041   8.221   3.961  0.3591 -1.6164  1.9134
 3120SOL     OW20578   3.052   4.669   4.533  0.4146 -0.0900 -0.4618
 3120SOL    HW120579   3.079   4.618   4.615  3.1774  2.5011  0.3582
 3120SOL    HW220580   2.971   4.724   4.553 -0.3378 -1.2649 -0.2226
 3121SOL     OW20581   3.945   1.864   4.548 -0.4055 -1.5312  0.4874
 3121SOL    HW120582   4.024   1.806   4.529 -0.8323 -2.3722  1.2446
 3121SOL    HW220583   3.870   1.838   4.488 -0.4124 -1.3748  0.4282
 3122SOL     OW20584   9.019   8.253   2.666 -0.3117  0.1404  0.3434
 3122SOL    HW120585   9.117   8.263   2.646 -0.3875  1.6257  0.6409
 3122SOL    HW220586   9.006   8.181   2.734  0.4683 -0.8353 -0.5275
 3123SOL     OW20587   8.397   7.167   4.955  0.4708  0.3784 -0.6410
 3123SOL    HW120588   8.326   7.133   5.017  2.2182 -1.7425  0.2644
 3123SOL    HW220589   8.363   7.165   4.861 -0.9942  0.3152 -0.1291
 3124SOL     OW20590   1.411   9.407   4.534 -0.3695 -0.1548  0.7646
 3124SOL    HW120591   1.366   9.480   4.484  1.4951  0.4432 -0.0906
 3124SOL    HW220592   1.481   9.445   4.594  0.2248 -1.1831  0.7437
 3125SOL     OW20593   4.942   4.021   2.513 -0.6216 -0.6960  0.6178
 3125SOL    HW120594   5.021   4.072   2.479 -0.0437 -1.5600  0.6490
 3125SOL    HW220595   4.880   3.999   2.438 -0.7478 -0.1731  0.5670
 3126SOL     OW20596   8.117   7.042   3.576  0.0695 -0.4582  0.6620
 3126SOL    HW120597   8.166   7.094   3.506 -0.4904  0.0434  0.6493
 3126SOL    HW220598   8.148   7.071   3.667 -1.0331  0.6753  0.6847
 3127SOL     OW20599   1.634   6.503   5.185 -1.1639  0.2869 -0.4691
 3127SOL    HW120600   1.555   6.473   5.132 -0.7360 -0.2020 -0.8352
 3127SOL    HW220601   1.670   6.587   5.145  1.6296 -2.2185 -3.4915
 3128SOL     OW20602   2.331   1.566   0.914  0.6421  1.1026 -0.2208
 3128SOL    HW120603   2.300   1.541   0.822  0.4777  1.3672 -0.2390
 3128SOL    HW220604   2.423   1.602   0.909  2.0331 -2.2033  0.1765
 3129SOL     OW20605   9.455   3.176   0.176 -0.7524  0.8431  0.1405
 3129SOL    HW120606   9.510   3.127   0.109 -2.1765 -0.2937 -0.2138
 3129SOL    HW220607   9.490   3.269   0.186  0.6196  0.4430 -0.7918
 3130SOL     OW20608   2.277   9.593   0.473  0.4075  0.4286  0.3313
 3130SOL    HW120609   2.211   9.518   0.477 -0.5623  1.2637  0.3368
 3130SOL    HW220610   2.306   9.607   0.378  0.8070 -0.1426  0.3722
 3131SOL     OW20611   3.566   7.216   0.085  1.1224 -0.1118  0.1747
 3131SOL    HW120612   3.480   7.261   0.108  0.1119 -1.2152 -1.3339
 3131SOL    HW220613   3.640   7.283   0.083 -0.0311  1.1476 -0.2879
 3132SOL     OW20614   4.314   7.087   3.287  0.4213  0.4656 -1.0846
 3132SOL    HW120615   4.404   7.045   3.298  0.0786  0.1958  0.8876
 3132SOL    HW220616   4.322   7.186   3.298  0.2510  0.2959  0.8137
 3133SOL     OW20617   0.064   4.756   0.573  0.3571 -0.4399  0.4481
 3133SOL    HW120618   0.161   4.744   0.598  0.4062  1.2035  1.0988
 3133SOL    HW220619   0.012   4.779   0.655 -0.3818 -0.0904 -0.1216
 3134SOL     OW20620   3.416   9.917   6.554  0.3617  0.1057 -0.3264
 3134SOL    HW120621   3.462   9.989   6.502 -0.2871  0.5257 -0.3209
 3134SOL    HW220622   3.343   9.877   6.499  0.8295 -0.6705 -0.3930
 3135SOL     OW20623   8.887   2.221   0.208  0.1978  0.1520  0.2717
 3135SOL    HW120624   8.876   2.143   0.147  0.0076 -0.5827  1.2171
 3135SOL    HW220625   8.972   2.209   0.260  0.6271  1.0339 -0.2300
 3136SOL     OW20626   7.192   3.406   0.042  0.3835  0.0571  0.2640
 3136SOL    HW120627   7.260   3.461  -0.007 -0.4028 -0.0129 -0.9277
 3136SOL    HW220628   7.188   3.315   0.000  0.9932 -0.6050  1.6192
 3137SOL     OW20629   1.587   3.586   5.034 -0.1838 -0.4451  0.3735
 3137SOL    HW120630   1.630   3.674   5.014 -0.3708 -0.4191  0.0907
 3137SOL    HW220631   1.520   3.597   5.107  1.2539 -0.7366  1.7727
 3138SOL     OW20632   2.730   5.636   1.343 -0.2948  0.1903 -0.2291
 3138SOL    HW120633   2.740   5.633   1.244 -1.0748 -0.7128 -0.2982
 3138SOL    HW220634   2.801   5.694   1.383 -1.7215  2.9322 -1.5441
 3139SOL     OW20635   2.381   3.126   6.211 -0.2216  0.0965  0.9773
 3139SOL    HW120636   2.380   3.050   6.146 -0.7879 -0.5559  1.7535
 3139SOL    HW220637   2.465   3.180   6.197 -1.3520  1.2401 -1.7610
 3140SOL     OW20638   2.093   9.984   2.640 -0.1333  0.3414 -0.0799
 3140SOL    HW120639   2.026   9.929   2.589 -0.3480  0.0189  0.5472
 3140SOL    HW220640   2.142   9.926   2.704 -0.8961  1.0041  1.1375
 3141SOL     OW20641   4.728   8.676   0.970 -0.0301 -0.7788  0.3503
 3141SOL    HW120642   4.688   8.616   1.040 -2.4807 -1.4717 -1.5813
 3141SOL    HW220643   4.691   8.651   0.880  2.6370  0.4704 -1.1300
 3142SOL     OW20644   2.455   9.288   3.245  0.4635  0.2149 -0.1427
 3142SOL    HW120645   2.472   9.340   3.161  1.8259  0.6179  0.3586
 3142SOL    HW220646   2.448   9.191   3.224 -3.1884  0.6364 -1.2493
 3143SOL     OW20647   1.536   9.404   6.465  0.2700  0.2206 -0.2401
 3143SOL    HW120648   1.614   9.358   6.508  0.3071  0.5217  0.0115
 3143SOL    HW220649   1.569   9.473   6.401  0.2322  1.7417  1.3187
 3144SOL     OW20650   2.735   3.479   2.803  0.1577  0.4404 -0.7153
 3144SOL    HW120651   2.724   3.537   2.884  1.6240  1.5692 -1.3089
 3144SOL    HW220652   2.815   3.509   2.751 -0.4380 -0.6324 -2.2864
 3145SOL     OW20653   2.582   1.609   1.285 -0.7054 -0.5130 -0.8355
 3145SOL    HW120654   2.671   1.562   1.283 -1.1606 -1.3614 -1.5742
 3145SOL    HW220655   2.597   1.708   1.284  0.2626 -0.6362  0.6581
 3146SOL     OW20656   8.999   1.534   5.579 -0.0348  0.0170  0.9426
 3146SOL    HW120657   9.074   1.489   5.626 -0.5916 -1.4863  0.4179
 3146SOL    HW220658   8.989   1.496   5.487 -3.0316 -1.6501  1.8790
 3147SOL     OW20659   9.531   3.170   6.613 -0.3600 -0.1461  0.2213
 3147SOL    HW120660   9.590   3.090   6.607  0.8921  0.5600  2.4209
 3147SOL    HW220661   9.435   3.142   6.613  0.0648 -1.5997  0.4402
 3148SOL     OW20662   4.404   8.410   1.592 -0.1619 -0.1203  0.2313
 3148SOL    HW120663   4.385   8.479   1.522  0.5695 -0.6822 -0.5232
 3148SOL    HW220664   4.399   8.319   1.552  1.2654 -0.4082  0.6750
 3149SOL     OW20665   0.778  -0.002   4.070  0.4241  0.1297  0.0123
 3149SOL    HW120666   0.857   0.022   4.126  0.2845 -0.8913  0.6733
 3149SOL    HW220667   0.718   0.077   4.061  2.2025  1.3297 -1.6842
 3150SOL     OW20668   3.152   8.411   1.219  0.0535 -0.2711  0.4472
 3150SOL    HW120669   3.101   8.491   1.251  0.3774 -0.2743  0.9882
 3150SOL    HW220670   3.167   8.349   1.296 -0.6087 -1.0808 -0.0604
 3151SOL     OW20671   3.176   3.713   3.292 -0.7790  0.0468  0.0046
 3151SOL    HW120672   3.168   3.666   3.380 -1.3197 -1.8102 -0.9923
 3151SOL    HW220673   3.192   3.645   3.220  0.0236  1.5730 -1.2768
 3152SOL     OW20674   7.576   8.107   4.155 -0.3981 -0.0654  0.1898
 3152SOL    HW120675   7.503   8.080   4.092 -0.9935  2.4832 -0.2311
 3152SOL    HW220676   7.536   8.151   4.236  0.6489  1.2542  0.0021
 3153SOL     OW20677   8.725   6.249   1.376 -0.3162 -0.0207  0.4053
 3153SOL    HW120678   8.645   6.297   1.411 -0.5290 -0.0027 -0.0913
 3153SOL    HW220679   8.703   6.153   1.361 -0.9049  0.4132 -1.7455
 3154SOL     OW20680   9.958   5.054   2.026 -0.1383  0.5738  0.1790
 3154SOL    HW120681   9.976   4.964   2.067 -2.6174  0.0121  0.1099
 3154SOL    HW220682   9.860   5.073   2.030  0.2364  2.8205 -0.7940
 3155SOL     OW20683   8.694   0.762   6.590  0.5959 -0.2450  0.6068
 3155SOL    HW120684   8.665   0.750   6.685  1.7680 -1.4592  0.8278
 3155SOL    HW220685   8.776   0.819   6.587  0.5314 -0.1644  0.3080
 3156SOL     OW20686   3.593   7.605   5.003  0.7244 -0.3011  0.1587
 3156SOL    HW120687   3.640   7.661   4.935  1.4355 -1.2050 -0.0985
 3156SOL    HW220688   3.659   7.549   5.053  0.1258 -0.1695  1.1017
 3157SOL     OW20689   4.652   0.857   2.937 -1.0689 -0.1358  0.1567
 3157SOL    HW120690   4.676   0.945   2.895 -0.1932 -0.4904 -0.0973
 3157SOL    HW220691   4.613   0.797   2.867  0.6117 -0.8109 -0.2111
 3158SOL     OW20692   4.797   1.169   1.688  0.0580  0.5327 -0.3404
 3158SOL    HW120693   4.727   1.228   1.727 -2.2958  0.9020 -4.7937
 3158SOL    HW220694   4.779   1.074   1.714 -0.7369  0.8991  0.4688
 3159SOL     OW20695   7.887   4.284   1.589 -0.2928 -0.1144 -0.1221
 3159SOL    HW120696   7.836   4.290   1.503  1.2666 -0.5651 -1.0925
 3159SOL    HW220697   7.952   4.209   1.584  1.4050  1.2745  0.6038
 3160SOL     OW20698   0.225   5.029   1.160 -0.0411 -0.0196 -0.2164
 3160SOL    HW120699   0.245   5.116   1.204 -2.0132  1.1028 -1.4365
 3160SOL    HW220700   0.248   4.953   1.221  0.9816  1.3894  1.1492
 3161SOL     OW20701   1.362   4.396   5.456 -0.0228  0.4925  0.5238
 3161SOL    HW120702   1.429   4.363   5.522 -0.2260 -1.3140 -0.1515
 3161SOL    HW220703   1.343   4.493   5.474  2.5617  0.9843  0.8835
 3162SOL     OW20704   6.910   3.636   1.008  0.3913  0.7731  0.4801
 3162SOL    HW120705   6.957   3.720   1.037  1.0283  0.2617  0.9404
 3162SOL    HW220706   6.974   3.559   1.013  0.5023  0.6562 -2.2456
 3163SOL     OW20707   5.805   1.917   4.370 -0.0265 -0.0052  0.2317
 3163SOL    HW120708   5.856   1.831   4.370 -0.2643 -0.1431  0.4766
 3163SOL    HW220709   5.819   1.963   4.282  0.3683 -0.1353  0.2249
 3164SOL     OW20710   4.456   0.513   6.468 -0.4640 -0.0864  0.4246
 3164SOL    HW120711   4.477   0.421   6.500 -0.9864  0.4441  2.3997
 3164SOL    HW220712   4.531   0.547   6.411  0.4078 -1.1745  0.9091
 3165SOL     OW20713   9.137   1.521   0.765 -0.3895  0.2081 -0.1879
 3165SOL    HW120714   9.142   1.572   0.679  2.0878 -1.6223 -1.1731
 3165SOL    HW220715   9.173   1.428   0.751 -2.0898 -0.8731  2.2767
 3166SOL     OW20716   1.610   3.859   6.495  0.1142  0.0019  0.4312
 3166SOL    HW120717   1.553   3.778   6.481  2.2105 -1.3350 -0.7154
 3166SOL    HW220718   1.591   3.926   6.424 -0.2597 -0.2891  0.2559
 3167SOL     OW20719   2.630   8.073   4.483 -0.1338 -0.0199  0.4186
 3167SOL    HW120720   2.712   8.117   4.448 -0.2375 -0.0377  0.1548
 3167SOL    HW220721   2.635   7.975   4.466 -0.3697  0.0239  0.0836
 3168SOL     OW20722   4.985   2.967   3.747  0.1751  0.0758 -0.1229
 3168SOL    HW120723   5.021   3.002   3.833 -1.3481 -1.1969  1.0586
 3168SOL    HW220724   4.894   3.005   3.730  0.2267 -0.1152 -0.8787
 3169SOL     OW20725   7.994   2.816   4.464 -0.0509 -0.1811  0.1776
 3169SOL    HW120726   8.057   2.883   4.426 -0.2799  0.8295  1.5570
 3169SOL    HW220727   7.923   2.795   4.397  0.6804  0.0742 -0.6871
 3170SOL     OW20728   0.907   8.612   5.538  0.4206  0.4592  0.2729
 3170SOL    HW120729   0.820   8.621   5.587  0.3382 -0.4531  0.3060
 3170SOL    HW220730   0.938   8.517   5.544  0.0218  0.1496 -2.1068
 3171SOL     OW20731   8.195   9.113   6.015 -0.1842  0.9539 -0.3350
 3171SOL    HW120732   8.140   9.031   6.028  1.2945 -0.1728 -0.9642
 3171SOL    HW220733   8.227   9.118   5.920 -0.2621  2.2530 -0.3037
 3172SOL     OW20734   2.911   3.060   2.916 -0.4934 -0.4713  0.3011
 3172SOL    HW120735   2.963   3.083   2.833 -0.9711  0.2939  0.2061
 3172SOL    HW220736   2.876   3.144   2.957  0.3785 -0.7742  1.7107
 3173SOL     OW20737   2.578   8.076   1.521 -0.7905 -0.1626 -0.4577
 3173SOL    HW120738   2.585   8.137   1.600  0.1212 -2.8509  1.6220
 3173SOL    HW220739   2.669   8.041   1.497 -1.3486 -1.0665 -1.3219
 3174SOL     OW20740   2.986   5.571   6.632 -0.8855  0.0373  0.1363
 3174SOL    HW120741   2.900   5.526   6.611 -0.8387  0.3819 -0.8566
 3174SOL    HW220742   3.002   5.571   6.730 -2.6783  1.1738  0.4423
 3175SOL     OW20743   3.611   1.475   6.437 -0.5837  0.2440  0.2502
 3175SOL    HW120744   3.514   1.498   6.446 -0.5221  0.4867  0.2956
 3175SOL    HW220745   3.666   1.547   6.478 -0.3249  1.0645 -1.5201
 3176SOL     OW20746   1.081   5.072   2.005  0.6107 -0.3171  0.5204
 3176SOL    HW120747   1.018   5.012   2.055 -0.5916  1.2197  0.8762
 3176SOL    HW220748   1.155   5.101   2.066 -0.1204  0.4778  1.0386
 3177SOL     OW20749   1.043   5.746   4.983  0.3959 -0.8427  0.2660
 3177SOL    HW120750   0.949   5.754   5.016 -0.4818 -1.0775 -2.0818
 3177SOL    HW220751   1.088   5.835   4.989 -0.5162 -0.3427 -0.1925
 3178SOL     OW20752   0.399   7.612   5.258  0.3640 -0.3926 -0.0900
 3178SOL    HW120753   0.340   7.616   5.338  0.0611 -1.2890 -0.2562
 3178SOL    HW220754   0.463   7.536   5.267 -0.4702 -1.2629 -1.2200
 3179SOL     OW20755   1.891   1.298   1.422  0.2319 -0.0147  0.0132
 3179SOL    HW120756   1.845   1.296   1.334 -1.8298  0.7672  1.0282
 3179SOL    HW220757   1.838   1.245   1.488  0.4273  1.4256  1.3681
 3180SOL     OW20758   1.149   2.293   6.496  0.0956  0.2170  0.9863
 3180SOL    HW120759   1.077   2.355   6.465 -0.0920 -0.2170  0.5607
 3180SOL    HW220760   1.231   2.307   6.441  0.0328  0.0418  0.8479
 3181SOL     OW20761   9.365   9.942   6.212 -0.0419  0.5712  0.1113
 3181SOL    HW120762   9.320  10.026   6.181  0.1875  1.1037  1.1558
 3181SOL    HW220763   9.441   9.967   6.273 -0.5066 -0.4245  1.1078
 3182SOL     OW20764   8.587   3.510   2.396 -0.7378  0.2897 -0.1350
 3182SOL    HW120765   8.557   3.445   2.466  1.5898 -0.2427  0.4222
 3182SOL    HW220766   8.621   3.593   2.439 -1.4355  0.9028 -0.7457
 3183SOL     OW20767   9.320   7.360   5.887  0.3168 -0.2580 -0.0739
 3183SOL    HW120768   9.302   7.310   5.802 -1.2429  1.1595 -0.6091
 3183SOL    HW220769   9.233   7.387   5.928  1.1406  2.3238  0.0182
 3184SOL     OW20770   4.244   2.130   0.004 -0.4908  0.4438  0.3841
 3184SOL    HW120771   4.179   2.059  -0.022  0.0944  0.4209 -1.0451
 3184SOL    HW220772   4.206   2.183   0.081 -2.0940  0.2902 -0.2807
 3185SOL     OW20773   0.607   4.722   5.910  0.1135 -0.1178  0.1085
 3185SOL    HW120774   0.509   4.703   5.919  0.5121 -1.7858  0.9822
 3185SOL    HW220775   0.628   4.743   5.814 -0.8007 -1.4653 -0.4031
 3186SOL     OW20776   6.802   9.898   3.953  0.1525  0.1346  0.4330
 3186SOL    HW120777   6.843   9.807   3.943  0.4274  0.2242  0.7362
 3186SOL    HW220778   6.843   9.960   3.886  0.8778  0.3472  1.0595
 3187SOL     OW20779   9.762   6.551   6.589 -0.1435 -0.4262 -0.8765
 3187SOL    HW120780   9.720   6.462   6.571  1.1501 -1.1909 -0.1662
 3187SOL    HW220781   9.747   6.576   6.685 -1.6969  0.7910 -1.3938
 3188SOL     OW20782   9.652   6.025   3.955 -0.1233 -0.4038  0.2706
 3188SOL    HW120783   9.711   6.007   4.034 -0.5352  1.3201  0.9944
 3188SOL    HW220784   9.657   6.122   3.931 -2.3569 -0.3120  0.1025
 3189SOL     OW20785   0.857   9.150   4.083 -0.0013  0.5195 -0.6979
 3189SOL    HW120786   0.919   9.072   4.070  1.4210  1.6838 -1.0002
 3189SOL    HW220787   0.765   9.125   4.052  0.0844 -1.5431  0.6205
 3190SOL     OW20788   6.960   2.390   2.882 -0.1705 -0.1824  0.2249
 3190SOL    HW120789   6.891   2.318   2.871  1.0409 -1.2718 -0.3575
 3190SOL    HW220790   6.928   2.474   2.838 -1.0419 -0.7284 -0.2006
 3191SOL     OW20791   3.401   6.377   1.426  0.2521 -0.2911  0.1337
 3191SOL    HW120792   3.499   6.396   1.426  0.3650 -0.7259 -1.5737
 3191SOL    HW220793   3.350   6.463   1.425  0.6333 -0.0683  0.0492
 3192SOL     OW20794   2.806   2.860   0.059  0.0973 -0.1134 -0.5178
 3192SOL    HW120795   2.888   2.811   0.029 -0.2862 -2.2544  1.7735
 3192SOL    HW220796   2.727   2.827   0.007  0.0029 -1.2284  0.3179
 3193SOL     OW20797   2.941   7.520   3.378  0.8125 -0.4541  0.4321
 3193SOL    HW120798   3.002   7.441   3.374  0.4016 -0.7210 -0.7813
 3193SOL    HW220799   2.887   7.517   3.463  0.5228 -1.6850  0.2096
 3194SOL     OW20800   3.486   4.772   5.841  0.3718 -0.6832  0.5171
 3194SOL    HW120801   3.388   4.760   5.859  0.0893  1.1822  0.3047
 3194SOL    HW220802   3.510   4.868   5.851  1.8071 -0.8339 -1.2960
 3195SOL     OW20803   1.440   2.194   6.044  0.1461  0.2880  0.1442
 3195SOL    HW120804   1.391   2.242   6.117 -1.2750 -0.4808 -0.2847
 3195SOL    HW220805   1.478   2.260   5.980 -1.0247  0.8770  0.0469
 3196SOL     OW20806   1.515   8.913   2.147  0.2406 -0.6638 -0.3421
 3196SOL    HW120807   1.507   8.872   2.238 -1.5290 -0.3200 -0.3242
 3196SOL    HW220808   1.456   8.994   2.142  1.2824  0.0368 -1.3995
 3197SOL     OW20809   7.455   9.606   6.077  0.1241  0.1947 -0.5782
 3197SOL    HW120810   7.392   9.679   6.052  1.3736  1.0046 -1.4405
 3197SOL    HW220811   7.438   9.577   6.171  0.4338  2.4875  0.2145
 3198SOL     OW20812   1.573   1.847   0.376  0.5022  0.1178 -0.2786
 3198SOL    HW120813   1.606   1.930   0.332  0.0258  1.0706  1.1144
 3198SOL    HW220814   1.488   1.866   0.424  0.4478 -1.1462  0.1435
 3199SOL     OW20815   8.067   0.539   3.711  0.2659  0.0359 -0.2776
 3199SOL    HW120816   8.024   0.564   3.798  0.3193 -0.3893 -0.1284
 3199SOL    HW220817   8.008   0.568   3.635 -0.4031 -0.7535 -0.0676
 3200SOL     OW20818   2.405   3.434   3.613  0.4147 -0.0806 -0.2733
 3200SOL    HW120819   2.349   3.514   3.592 -0.9458 -0.6380  1.1520
 3200SOL    HW220820   2.449   3.447   3.702  0.7656 -0.6047 -0.3718
 3201SOL     OW20821   2.548   6.808   6.550  0.0359  0.3585 -0.2021
 3201SOL    HW120822   2.549   6.812   6.450  0.3729 -0.4273 -0.2297
 3201SOL    HW220823   2.454   6.796   6.582 -0.0453  0.3857 -0.4277
 3202SOL     OW20824   1.388   7.578   0.945  0.0949  0.1038 -0.7732
 3202SOL    HW120825   1.307   7.629   0.920  1.0205  1.2062 -1.5773
 3202SOL    HW220826   1.362   7.487   0.979 -1.3643 -0.2284 -2.7213
 3203SOL     OW20827   7.664   9.726   0.371 -0.0133 -0.0017 -0.4593
 3203SOL    HW120828   7.628   9.814   0.341 -0.8391 -0.3813 -0.5916
 3203SOL    HW220829   7.667   9.724   0.471  2.5432  1.1823 -0.4885
 3204SOL     OW20830   3.996   9.163   0.763  0.4949  0.5443  0.1061
 3204SOL    HW120831   4.015   9.246   0.815  0.3443  0.7059 -0.0945
 3204SOL    HW220832   3.928   9.183   0.693 -0.4043 -0.0252  0.8033
 3205SOL     OW20833   8.287   4.190   2.215  0.6004 -0.0188  0.0369
 3205SOL    HW120834   8.274   4.140   2.301  1.6350 -0.0516  0.1776
 3205SOL    HW220835   8.236   4.276   2.218  0.6949  0.0163  0.7174
 3206SOL     OW20836   3.573   0.228   0.642 -0.3118  0.7296 -0.3812
 3206SOL    HW120837   3.536   0.190   0.557 -0.8555  1.5862 -0.5285
 3206SOL    HW220838   3.586   0.327   0.632  0.0608  0.7624  0.3760
 3207SOL     OW20839   1.609   2.949   4.760  0.2484 -0.1006 -0.1346
 3207SOL    HW120840   1.590   2.869   4.703  0.0577  0.1170 -0.3747
 3207SOL    HW220841   1.705   2.975   4.749  0.7830 -1.3783  1.2998
 3208SOL     OW20842   2.174   0.257   1.513  0.6197  0.3955 -0.0859
 3208SOL    HW120843   2.197   0.175   1.564  1.2771  1.0552  0.6992
 3208SOL    HW220844   2.180   0.239   1.414  0.5019 -0.5565  0.0839
 3209SOL     OW20845   9.985   2.599   4.550  0.3141 -0.2213 -0.2595
 3209SOL    HW120846  10.071   2.595   4.601  0.0104  0.1992  0.2887
 3209SOL    HW220847   9.950   2.507   4.537  0.7169 -0.3757 -0.2510
 3210SOL     OW20848   8.852   9.573   2.972  0.2939  0.1128 -0.1263
 3210SOL    HW120849   8.879   9.490   2.924  0.3974  0.9318 -1.4938
 3210SOL    HW220850   8.931   9.613   3.018  0.5439  0.2339 -0.6590
 3211SOL     OW20851   1.223   0.497   4.487  0.5813  0.1670 -0.5372
 3211SOL    HW120852   1.262   0.532   4.573  0.7109 -0.9231 -0.1486
 3211SOL    HW220853   1.200   0.400   4.498  1.1237 -0.1196 -1.9224
 3212SOL     OW20854   0.313   8.146   1.412  0.0681 -0.5378  0.4886
 3212SOL    HW120855   0.390   8.184   1.463 -1.9509  2.3509  1.5093
 3212SOL    HW220856   0.334   8.148   1.314  2.0718 -1.6701  0.8724
 3213SOL     OW20857   3.546   1.877   1.264  0.1118  0.4690  0.7054
 3213SOL    HW120858   3.531   1.829   1.178 -0.1372 -0.6573  1.3689
 3213SOL    HW220859   3.617   1.946   1.252  0.0373  0.3586 -0.4121
 3214SOL     OW20860   2.150   0.269   3.301 -0.3603 -0.1071  0.7187
 3214SOL    HW120861   2.062   0.251   3.346 -0.3259  0.8945  1.2125
 3214SOL    HW220862   2.223   0.268   3.369 -0.5707  3.4854  1.0904
 3215SOL     OW20863   9.130   3.115   3.017  0.0421 -0.1567 -0.2323
 3215SOL    HW120864   9.081   3.088   3.101 -1.1505  0.6567 -0.6437
 3215SOL    HW220865   9.063   3.141   2.947  1.0365 -0.7006 -1.3946
 3216SOL     OW20866   1.606   7.964   0.209 -0.3929 -0.1284  0.1062
 3216SOL    HW120867   1.585   8.016   0.126 -0.0750  2.2320  1.4442
 3216SOL    HW220868   1.532   7.900   0.229 -0.6949 -0.3631 -1.7229
 3217SOL     OW20869   4.475   3.898   2.805 -0.3996 -0.4811 -0.3341
 3217SOL    HW120870   4.458   3.836   2.881  0.2741 -0.5441 -0.2378
 3217SOL    HW220871   4.502   3.987   2.840  1.9836 -1.1048 -0.5237
 3218SOL     OW20872   2.435   0.215   5.978  0.4934  0.3457 -0.1083
 3218SOL    HW120873   2.392   0.267   6.052 -0.1573 -1.8761  1.1240
 3218SOL    HW220874   2.462   0.277   5.904  0.0036  2.4427  1.4354
 3219SOL     OW20875   9.276   6.003   3.974  0.0376 -0.2001  0.6224
 3219SOL    HW120876   9.307   6.073   4.039  1.7352  0.4496 -0.8596
 3219SOL    HW220877   9.287   5.912   4.016 -0.5768  0.3071  1.9130
 3220SOL     OW20878   1.461   3.797   5.220 -0.3790 -0.2503 -0.1765
 3220SOL    HW120879   1.371   3.805   5.177 -1.0581 -1.1195  1.0266
 3220SOL    HW220880   1.480   3.879   5.274  0.8819  1.2470 -2.8340
 3221SOL     OW20881   9.427   2.452   4.471 -0.3307  0.0462 -0.0998
 3221SOL    HW120882   9.488   2.400   4.410 -2.0100  0.2226 -1.9766
 3221SOL    HW220883   9.478   2.528   4.512  0.9554 -0.3667 -0.9024
 3222SOL     OW20884   9.606   0.576   6.124 -0.0986  0.4118 -0.4077
 3222SOL    HW120885   9.635   0.532   6.210  1.0744  1.9999  0.0288
 3222SOL    HW220886   9.588   0.673   6.141  0.9876  0.9248 -2.1374
 3223SOL     OW20887   3.627   7.472   0.714 -0.4297  0.4341 -0.0165
 3223SOL    HW120888   3.605   7.541   0.645 -1.0851  0.8093  0.5643
 3223SOL    HW220889   3.606   7.381   0.678 -0.8471  0.6360 -0.2832
 3224SOL     OW20890   2.609   5.054   5.821 -0.7201  0.0348  0.1929
 3224SOL    HW120891   2.530   5.044   5.761 -0.6303  0.6397 -0.0212
 3224SOL    HW220892   2.596   4.998   5.903 -1.7078  0.7220  0.5094
 3225SOL     OW20893   1.681   1.227   4.512  0.1326 -0.2599  0.2672
 3225SOL    HW120894   1.609   1.295   4.497  0.6261  0.0357 -0.7953
 3225SOL    HW220895   1.761   1.272   4.552  1.0938  0.1415 -2.0220
 3226SOL     OW20896   1.761   9.203   3.336 -0.4149 -0.1998 -0.1399
 3226SOL    HW120897   1.674   9.195   3.384 -0.9889 -0.5491 -1.2230
 3226SOL    HW220898   1.828   9.248   3.395 -1.7886  1.5590  0.1211
 3227SOL     OW20899   1.977   9.000   0.194 -0.1128 -0.5374  0.1781
 3227SOL    HW120900   1.920   8.985   0.114  0.1340 -1.7463  0.2238
 3227SOL    HW220901   1.919   9.016   0.274 -0.3671 -0.0574 -0.1051
 3228SOL     OW20902   7.456   0.183   3.038  0.1347  0.9867 -0.5051
 3228SOL    HW120903   7.483   0.102   2.984  0.1985  0.1433  0.7680
 3228SOL    HW220904   7.537   0.237   3.059  0.0477  1.5959 -1.6682
 3229SOL     OW20905   4.574   9.021  -0.003 -0.3474  0.1212  0.0127
 3229SOL    HW120906   4.479   8.993  -0.019  0.1998 -0.8880 -1.5548
 3229SOL    HW220907   4.579   9.071   0.084 -2.0842 -0.9534  0.7790
 3230SOL     OW20908   0.080   7.265   3.172 -0.4346  0.5470 -0.0551
 3230SOL    HW120909   0.116   7.176   3.202  2.0257  1.1100 -1.2142
 3230SOL    HW220910   0.122   7.337   3.226  2.2052  1.3974 -3.0757
 3231SOL     OW20911   6.152   0.056   2.730 -0.2242  0.4766  0.2693
 3231SOL    HW120912   6.158   0.081   2.827 -1.1629 -0.0205  0.4658
 3231SOL    HW220913   6.056   0.060   2.701  0.1729  1.6632 -0.9203
 3232SOL     OW20914   4.186   1.972   5.887 -0.0701  0.1279  0.1490
 3232SOL    HW120915   4.092   2.004   5.873  0.7458  2.6041  0.0613
 3232SOL    HW220916   4.244   2.008   5.814  1.7523  2.3279  2.5750
 3233SOL     OW20917   8.854   8.871   4.730  0.1144 -0.2102  0.6444
 3233SOL    HW120918   8.897   8.786   4.759 -1.3100 -1.0872  0.2688
 3233SOL    HW220919   8.880   8.944   4.792  1.4630 -0.8839  0.8963
 3234SOL     OW20920   8.995   7.411   1.278 -0.7264  0.0288  0.0271
 3234SOL    HW120921   9.085   7.416   1.235 -0.7991  2.5478  0.1043
 3234SOL    HW220922   9.005   7.387   1.374 -0.1723 -0.2507 -0.0992
 3235SOL     OW20923   9.188   8.360   4.397  0.1620 -0.3428 -0.0657
 3235SOL    HW120924   9.164   8.406   4.482 -1.3407 -1.1087 -0.0602
 3235SOL    HW220925   9.142   8.405   4.320  1.3237  0.2046 -0.4462
 3236SOL     OW20926   1.840   3.454   5.016 -0.0387  0.3395 -0.0937
 3236SOL    HW120927   1.920   3.509   4.993 -1.1205  2.4457  1.0829
 3236SOL    HW220928   1.756   3.507   5.000 -1.0962 -0.8579  1.2937
 3237SOL     OW20929   0.702   6.978   0.008  0.0860  0.0636  0.4732
 3237SOL    HW120930   0.710   7.032   0.092 -1.9096  1.1917 -0.0255
 3237SOL    HW220931   0.766   6.901   0.012  1.0255  0.9000  2.3976
 3238SOL     OW20932   7.787   1.726   5.726 -0.6071 -0.2223 -0.2393
 3238SOL    HW120933   7.778   1.741   5.627 -1.1498  1.3900  0.0450
 3238SOL    HW220934   7.706   1.762   5.772 -0.5303 -1.3318  0.7641
 3239SOL     OW20935   2.542   4.981   4.749  0.2442 -0.0765  0.0592
 3239SOL    HW120936   2.519   5.055   4.811  1.6397 -0.3495  0.9317
 3239SOL    HW220937   2.581   4.905   4.801  0.6094 -0.6556 -1.0435
 3240SOL     OW20938   0.695   7.722   3.009  0.2490  0.2567 -0.1755
 3240SOL    HW120939   0.605   7.723   3.052  0.6539  2.6101  0.6782
 3240SOL    HW220940   0.712   7.810   2.966  1.4667 -0.7537 -1.7961
 3241SOL     OW20941   1.760   1.698   2.173  0.2226  0.3835 -0.4518
 3241SOL    HW120942   1.808   1.665   2.254 -1.8168  1.2491  1.1542
 3241SOL    HW220943   1.697   1.627   2.142  0.2700  0.4354 -0.6636
 3242SOL     OW20944   2.931   9.876   1.973  0.0521  0.2554  0.0331
 3242SOL    HW120945   3.028   9.869   1.951  0.1285  1.3712  0.0219
 3242SOL    HW220946   2.919   9.876   2.072 -0.1038 -2.0681  0.0451
 3243SOL     OW20947   1.515   8.955   0.381 -0.2768 -0.3958  0.0062
 3243SOL    HW120948   1.533   8.922   0.289 -0.1716 -1.8314  0.5375
 3243SOL    HW220949   1.429   8.918   0.415 -0.3968  0.2502  0.4226
 3244SOL     OW20950   2.672   0.077   5.403  0.3614  0.3262  0.1535
 3244SOL    HW120951   2.670   0.146   5.475 -1.9273 -1.7812  2.2012
 3244SOL    HW220952   2.753   0.019   5.415 -1.0218 -1.2563  2.3382
 3245SOL     OW20953   9.878   0.765   1.275  0.4501  0.4954 -0.2772
 3245SOL    HW120954   9.798   0.719   1.239  2.2320 -2.1507 -1.0351
 3245SOL    HW220955   9.946   0.777   1.202  0.5362  3.2579  0.1996
 3246SOL     OW20956   2.454   0.674   1.928  0.4929 -0.2419  0.4716
 3246SOL    HW120957   2.516   0.653   1.853  0.5511  1.0679  0.1436
 3246SOL    HW220958   2.441   0.773   1.934 -1.0735 -0.4733  0.9397
 3247SOL     OW20959   7.479   8.771   5.889  0.4521  0.1829  0.3650
 3247SOL    HW120960   7.531   8.856   5.898  1.0763 -0.2024  0.4064
 3247SOL    HW220961   7.410   8.766   5.961  1.1753  0.1169  1.0582
 3248SOL     OW20962   1.567   6.662   6.234 -0.2612  0.0262  0.2204
 3248SOL    HW120963   1.610   6.725   6.170  1.5091 -1.5519 -0.2075
 3248SOL    HW220964   1.619   6.576   6.236 -2.8838 -1.6146  0.3905
 3249SOL     OW20965   3.864   9.100   4.133 -0.0198  0.3122 -0.4249
 3249SOL    HW120966   3.913   9.091   4.046  0.9593 -0.6484  0.2174
 3249SOL    HW220967   3.767   9.083   4.118  0.0667  0.6406 -1.4208
 3250SOL     OW20968   0.164   5.178   2.374 -0.6409 -0.4859  0.8357
 3250SOL    HW120969   0.078   5.228   2.373 -0.9491 -0.9767  1.9598
 3250SOL    HW220970   0.170   5.123   2.458  1.1202  0.1626  1.1618
 3251SOL     OW20971   3.677   5.491   0.177 -0.2389 -0.2634 -0.3005
 3251SOL    HW120972   3.649   5.414   0.234  1.0154 -0.3711  0.2004
 3251SOL    HW220973   3.680   5.575   0.232 -1.6204  0.1630 -0.8478
 3252SOL     OW20974   7.714   9.659   6.086  0.5688 -0.0929 -0.0183
 3252SOL    HW120975   7.746   9.645   6.180 -1.7582 -0.6244  0.7528
 3252SOL    HW220976   7.615   9.641   6.082  0.5034  0.6069 -2.4323
 3253SOL     OW20977   1.134   9.454   4.154 -0.0492  0.1704 -0.8128
 3253SOL    HW120978   1.086   9.422   4.073  1.2382  1.7344 -2.2309
 3253SOL    HW220979   1.156   9.551   4.145 -0.0771  0.4413  1.5203
 3254SOL     OW20980   2.328   6.873   0.955  0.3597 -0.4216  0.1987
 3254SOL    HW120981   2.425   6.858   0.934  0.7948  2.2745  0.1459
 3254SOL    HW220982   2.313   6.865   1.054  0.7917 -0.0128  0.2968
 3255SOL     OW20983   2.267   5.198   6.664 -0.5450  0.1410  0.2449
 3255SOL    HW120984   2.245   5.157   6.575  0.6480 -2.0437  0.9442
 3255SOL    HW220985   2.315   5.285   6.649 -3.5328  1.6228 -1.2474
 3256SOL     OW20986   2.960   7.712   6.053  0.2283  0.2437  0.3034
 3256SOL    HW120987   2.862   7.728   6.047  0.0256 -1.1809 -0.1940
 3256SOL    HW220988   2.988   7.708   6.149 -0.1197  1.0741  0.4426
 3257SOL     OW20989   4.745   8.201   1.294  0.3004 -0.5095  0.0188
 3257SOL    HW120990   4.830   8.213   1.244  0.5130 -1.1278  0.2207
 3257SOL    HW220991   4.735   8.273   1.362 -0.0202  0.3727 -0.9518
 3258SOL     OW20992   0.163   0.504   2.698 -0.3121 -0.3306 -0.0076
 3258SOL    HW120993   0.186   0.588   2.648  0.2073 -0.7722 -0.5036
 3258SOL    HW220994   0.094   0.453   2.647 -1.1165  0.1212  0.6205
 3259SOL     OW20995   2.743   9.568   2.221  0.0395  0.1021 -0.0750
 3259SOL    HW120996   2.725   9.514   2.303  1.5772  0.4404  0.5000
 3259SOL    HW220997   2.683   9.648   2.219  0.6805  0.6215  1.2186
 3260SOL     OW20998   1.156   3.758   1.547  0.4797 -0.1933 -0.2167
 3260SOL    HW120999   1.092   3.739   1.473  1.0086  0.1761 -0.7752
 3260SOL    HW221000   1.192   3.673   1.582 -1.2667 -0.4791  0.9562
 3261SOL     OW21001   9.372   1.273   5.985  0.1756 -0.1940 -0.2479
 3261SOL    HW121002   9.435   1.252   5.910  0.3316  0.6393 -0.3531
 3261SOL    HW221003   9.279   1.247   5.958  0.3736 -0.8317 -0.3368
 3262SOL     OW21004   6.246   1.118   2.802  0.6671 -0.0062 -0.5615
 3262SOL    HW121005   6.329   1.162   2.837  1.1459  0.3113 -2.0357
 3262SOL    HW221006   6.246   1.124   2.702 -1.6339  0.8885 -0.5396
 3263SOL     OW21007   0.130   9.872   1.728  0.4419  0.2579 -0.2246
 3263SOL    HW121008   0.086   9.914   1.648 -2.1047 -1.3601  0.2733
 3263SOL    HW221009   0.060   9.845   1.794  2.2170 -2.0596  0.7643
 3264SOL     OW21010   2.627   1.988   2.588 -0.2553 -0.4973 -0.1191
 3264SOL    HW121011   2.669   2.011   2.676 -0.6160 -1.5646  0.3446
 3264SOL    HW221012   2.648   2.059   2.521  0.8833 -0.1842  0.5607
 3265SOL     OW21013   1.379   4.054   5.939  0.1643 -0.0898  0.3371
 3265SOL    HW121014   1.341   4.109   5.865 -0.8562 -1.4463 -0.1761
 3265SOL    HW221015   1.356   3.958   5.925  1.4071 -0.5950  1.5245
 3266SOL     OW21016   9.938   1.552   2.261 -0.2009 -0.9874  0.0433
 3266SOL    HW121017  10.006   1.496   2.215 -0.4785 -0.6644 -0.7644
 3266SOL    HW221018   9.984   1.619   2.320  0.2348  0.0880 -1.4815
 3267SOL     OW21019   1.522   9.243   1.994 -0.0136  0.0123 -0.2357
 3267SOL    HW121020   1.443   9.182   2.008 -0.5438  0.5200 -0.9517
 3267SOL    HW221021   1.586   9.233   2.070 -0.7677 -0.4170  0.3529
 3268SOL     OW21022   9.779   2.511   3.167  0.7554 -0.0802  1.0142
 3268SOL    HW121023   9.695   2.463   3.192 -0.2455  1.2535  0.2607
 3268SOL    HW221024   9.803   2.489   3.072  1.2807 -0.4696  1.2308
 3269SOL     OW21025   0.638   6.423   5.878 -0.0336  0.3388  0.2482
 3269SOL    HW121026   0.583   6.400   5.958 -0.7436 -1.9970 -0.8547
 3269SOL    HW221027   0.688   6.342   5.848  3.1076  2.1052  0.4928
 3270SOL     OW21028   3.521   9.071   4.790 -0.3230  0.0315 -0.0631
 3270SOL    HW121029   3.578   9.113   4.721  0.3832 -1.8622 -0.6515
 3270SOL    HW221030   3.430   9.053   4.752 -0.1224 -0.4500 -0.3222
 3271SOL     OW21031   7.269   8.669   3.167  0.0952  0.4508 -0.1016
 3271SOL    HW121032   7.209   8.718   3.231 -0.9819 -1.3634  0.3194
 3271SOL    HW221033   7.361   8.661   3.206 -0.6951 -1.1255  1.4979
 3272SOL     OW21034   4.187   6.322   2.980 -0.7225  0.4642  0.0968
 3272SOL    HW121035   4.202   6.414   2.945 -1.8901  1.2055  1.5407
 3272SOL    HW221036   4.248   6.259   2.932 -0.9344  1.7376 -1.9490
 3273SOL     OW21037   1.044   3.635   6.059 -0.0934 -0.1409  0.1366
 3273SOL    HW121038   0.956   3.589   6.049 -0.3045  0.2803  0.0430
 3273SOL    HW221039   1.069   3.678   5.972 -0.5411  1.0591  0.5958
 3274SOL     OW21040   7.392   1.690   2.327  0.6301 -0.1938  0.0952
 3274SOL    HW121041   7.485   1.727   2.320  1.1218 -1.6051 -1.0392
 3274SOL    HW221042   7.331   1.742   2.268  1.1950 -0.7550 -1.0020
 3275SOL     OW21043   7.529   8.596   5.287  0.2503 -0.4277 -0.0508
 3275SOL    HW121044   7.462   8.523   5.298  0.2105 -0.5381 -0.9748
 3275SOL    HW221045   7.493   8.681   5.326 -1.1668 -0.0573 -2.0895
 3276SOL     OW21046   3.598   3.875   4.353  0.3337  0.1900  1.0414
 3276SOL    HW121047   3.627   3.881   4.258 -1.4497 -1.7124  0.3160
 3276SOL    HW221048   3.523   3.940   4.369 -0.2690 -0.4205  0.7538
 3277SOL     OW21049   0.484   2.920   3.222 -0.2276 -0.1636 -0.3398
 3277SOL    HW121050   0.545   2.962   3.155 -0.3029 -0.8769 -0.8520
 3277SOL    HW221051   0.499   2.963   3.311 -1.7116  2.3815 -1.2466
 3278SOL     OW21052   0.923   4.343   2.512  0.4573  0.3095  0.4244
 3278SOL    HW121053   0.884   4.364   2.602  1.2877  0.2305  0.8126
 3278SOL    HW221054   0.969   4.255   2.516  3.5121  1.8375  0.9248
 3279SOL     OW21055   4.317   9.220   3.697 -0.4044  0.7962  0.2902
 3279SOL    HW121056   4.237   9.223   3.756  0.0924  1.3989  0.9421
 3279SOL    HW221057   4.291   9.242   3.603 -0.9414  1.3314  0.5659
 3280SOL     OW21058   4.158   3.059   1.275  0.0650 -0.4319  0.3325
 3280SOL    HW121059   4.244   3.010   1.268 -0.3321 -1.2044  0.7218
 3280SOL    HW221060   4.174   3.157   1.265  0.8373 -0.6552 -0.6879
 3281SOL     OW21061   1.171   6.534   0.626 -0.1763  0.3174 -0.2779
 3281SOL    HW121062   1.085   6.571   0.660 -1.2181 -0.5116 -1.9220
 3281SOL    HW221063   1.216   6.482   0.698 -0.9462  0.9224  0.6506
 3282SOL     OW21064   3.490   8.062   1.812  0.1757  0.4408 -0.3039
 3282SOL    HW121065   3.485   8.096   1.906  2.2065  0.3065 -0.1057
 3282SOL    HW221066   3.476   8.137   1.748 -1.7764  0.4285  0.0884
 3283SOL     OW21067   4.766   2.259   4.748  0.4054 -0.1799  0.0452
 3283SOL    HW121068   4.822   2.341   4.744  1.7668 -1.0855  0.1166
 3283SOL    HW221069   4.753   2.232   4.843  0.5064 -0.4051 -0.0038
 3284SOL     OW21070   9.011   9.170   2.398 -0.3416 -0.5382  0.2461
 3284SOL    HW121071   9.039   9.235   2.327  0.6899 -0.8006  0.4165
 3284SOL    HW221072   9.039   9.078   2.372 -1.9357 -0.9508 -0.0632
 3285SOL     OW21073   9.651   0.303   5.511  0.5608  0.0951  0.5390
 3285SOL    HW121074   9.624   0.262   5.598 -1.5014  0.4799  0.1127
 3285SOL    HW221075   9.601   0.389   5.498  2.0005  0.8301 -0.3265
 3286SOL     OW21076   4.515   6.507   1.220  0.3713  0.1317  0.3076
 3286SOL    HW121077   4.561   6.441   1.161 -0.0941 -0.1070  0.2125
 3286SOL    HW221078   4.522   6.477   1.316 -0.3376 -0.3482  0.2074
 3287SOL     OW21079   5.268   1.781   3.841  0.0819 -0.2531 -0.1123
 3287SOL    HW121080   5.345   1.811   3.785 -0.9171  0.7818 -0.9479
 3287SOL    HW221081   5.268   1.681   3.846  0.4123 -0.3419 -1.6212
 3288SOL     OW21082   4.071   6.990   2.596 -0.1974 -0.6107  0.5092
 3288SOL    HW121083   4.108   6.916   2.540 -0.1163 -0.8343  0.8592
 3288SOL    HW221084   3.971   6.983   2.599 -0.2520 -0.1588 -0.2238
 3289SOL     OW21085   3.179   6.683   2.964  0.0045 -0.3361 -0.8798
 3289SOL    HW121086   3.215   6.591   2.950  1.6791  0.2404 -0.4582
 3289SOL    HW221087   3.197   6.739   2.883  0.8248  0.1890 -0.3454
 3290SOL     OW21088   8.468   5.490   6.430 -0.2886  0.5826 -0.2218
 3290SOL    HW121089   8.544   5.460   6.488 -0.1093 -0.2862 -0.8860
 3290SOL    HW221090   8.468   5.436   6.345 -1.5267  0.7009 -0.3084
 3291SOL     OW21091   8.851   2.792   0.653  0.9528  0.0917 -0.6067
 3291SOL    HW121092   8.753   2.770   0.657  0.8902  0.3704 -0.6253
 3291SOL    HW221093   8.884   2.813   0.745  1.6630 -2.9376 -0.1186
 3292SOL     OW21094   2.626   3.194   5.147  0.1106  0.1183 -0.0258
 3292SOL    HW121095   2.651   3.276   5.197  0.2256 -0.1016  0.2810
 3292SOL    HW221096   2.531   3.201   5.116 -0.1170  0.0443  0.6479
 3293SOL     OW21097   9.478   6.367   0.367  0.6283 -0.3640 -0.2424
 3293SOL    HW121098   9.448   6.449   0.318  1.1328  0.3326  0.6034
 3293SOL    HW221099   9.491   6.388   0.464  0.8389 -1.4246 -0.0313
 3294SOL     OW21100   7.905   1.746   2.285 -0.3146  0.2576  0.7806
 3294SOL    HW121101   7.819   1.793   2.302 -0.8462 -0.5916  0.4511
 3294SOL    HW221102   7.975   1.812   2.259 -1.7024  0.6149 -2.2305
 3295SOL     OW21103   1.203   5.294   4.525  0.1231 -0.5951 -0.1820
 3295SOL    HW121104   1.206   5.195   4.533 -0.0752 -0.5205  0.8854
 3295SOL    HW221105   1.135   5.320   4.457 -0.1701 -1.1747 -0.1123
 3296SOL     OW21106   3.250   3.292   1.219 -0.0415  0.3562 -0.1885
 3296SOL    HW121107   3.214   3.298   1.126  0.4078 -0.0257 -0.3885
 3296SOL    HW221108   3.327   3.229   1.221  0.9958  1.6175  0.1154
 3297SOL     OW21109   3.316   7.571   6.443 -0.3011 -0.5049 -0.2798
 3297SOL    HW121110   3.395   7.526   6.484 -0.2034 -0.6511 -0.6281
 3297SOL    HW221111   3.232   7.526   6.474 -0.1201 -2.2410 -2.2231
 3298SOL     OW21112   9.720   5.755   2.953  0.4977  0.1652  0.1819
 3298SOL    HW121113   9.797   5.696   2.978  1.6171  1.0660 -1.0814
 3298SOL    HW221114   9.715   5.833   3.015 -0.3323 -0.6723  1.1915
 3299SOL     OW21115   6.841   7.242   4.658 -0.1707 -0.7252 -0.2851
 3299SOL    HW121116   6.876   7.273   4.747 -0.6866  1.3378 -0.7714
 3299SOL    HW221117   6.791   7.156   4.670  0.6645 -1.0249  1.2422
 3300SOL     OW21118   4.843   7.682   4.865  0.3782  0.2865  0.8223
 3300SOL    HW121119   4.923   7.714   4.916  0.5964  0.2067  0.5328
 3300SOL    HW221120   4.868   7.670   4.769 -0.3699  1.6092  0.4654
 3301SOL     OW21121   7.556   2.167   0.735  0.4423  0.4709  0.4978
 3301SOL    HW121122   7.633   2.230   0.744  1.7275 -1.0556  0.4538
 3301SOL    HW221123   7.565   2.114   0.651  0.0846 -0.6741  1.1624
 3302SOL     OW21124   0.559   5.907   2.615  0.1432  0.2485 -0.3855
 3302SOL    HW121125   0.604   5.986   2.655 -1.1733  0.3639  0.9180
 3302SOL    HW221126   0.491   5.871   2.679  0.4554 -1.7098 -1.1004
 3303SOL     OW21127   7.538   8.345   3.088  0.4412  0.2305 -0.1620
 3303SOL    HW121128   7.519   8.258   3.041  1.1278  0.7132 -1.3555
 3303SOL    HW221129   7.614   8.391   3.043  0.9160  0.8570  1.2647
 3304SOL     OW21130   9.383   7.214   2.963  0.0524  0.1791  0.3173
 3304SOL    HW121131   9.352   7.120   2.954 -1.6985  0.8125 -0.5768
 3304SOL    HW221132   9.360   7.265   2.880  0.5084  1.5292  0.9933
 3305SOL     OW21133   1.164   9.232   4.587 -0.3353  0.7785 -0.5853
 3305SOL    HW121134   1.256   9.251   4.551 -0.7472  1.9447 -1.0384
 3305SOL    HW221135   1.113   9.318   4.594 -1.7101  0.0131 -1.2061
 3306SOL     OW21136   7.656   4.823   6.708 -0.2536 -0.5273 -0.5175
 3306SOL    HW121137   7.641   4.861   6.616  0.6173 -0.9451 -0.8447
 3306SOL    HW221138   7.672   4.898   6.772 -2.3771 -0.1440 -0.3898
 3307SOL     OW21139   8.889   0.438   0.570  0.0400 -0.3307 -0.0571
 3307SOL    HW121140   8.863   0.362   0.630 -0.7558  0.6260  0.8387
 3307SOL    HW221141   8.811   0.462   0.512 -0.0179  0.3622  0.2907
 3308SOL     OW21142   8.888   6.929   0.734 -0.1921  0.6306 -0.5517
 3308SOL    HW121143   8.866   6.887   0.823  1.4167  0.8275 -0.0539
 3308SOL    HW221144   8.942   6.865   0.680 -0.3033  0.9139 -0.9949
 3309SOL     OW21145   6.476   7.807   2.941 -0.4623 -0.2508  0.2104
 3309SOL    HW121146   6.467   7.709   2.924 -1.5404  0.3299 -3.0670
 3309SOL    HW221147   6.385   7.848   2.950 -0.1914  0.9250 -1.9430
 3310SOL     OW21148   0.389   6.884   6.250 -0.2609  0.2386  0.3746
 3310SOL    HW121149   0.299   6.890   6.294 -1.5551 -1.6927 -1.8803
 3310SOL    HW221150   0.384   6.923   6.158  1.2166  0.1964  0.2730
 3311SOL     OW21151   3.138   8.538   0.233  0.0265 -0.2117  0.3132
 3311SOL    HW121152   3.232   8.544   0.199 -0.5973  0.8395 -1.2447
 3311SOL    HW221153   3.081   8.494   0.164 -0.6895 -0.5908  1.1429
 3312SOL     OW21154   1.355   6.006   6.174  0.1189  0.4060 -0.0336
 3312SOL    HW121155   1.274   6.050   6.136  0.6152  1.3370 -0.0313
 3312SOL    HW221156   1.389   6.061   6.251  0.7840  0.0507 -0.0749
 3313SOL     OW21157   6.251   0.058   5.862 -0.2823  0.1020  0.4982
 3313SOL    HW121158   6.285  -0.036   5.858 -2.9650 -0.8891 -0.2959
 3313SOL    HW221159   6.259   0.100   5.772  2.7500  1.3720  1.2936
 3314SOL     OW21160   9.541   8.768   4.866  0.7344 -0.2888 -0.2670
 3314SOL    HW121161   9.577   8.683   4.903  1.2016  1.1266  2.6508
 3314SOL    HW221162   9.609   8.808   4.804  0.5606 -1.9240 -1.5586
 3315SOL     OW21163   0.653   4.983   4.895 -0.4635 -0.2987  0.1709
 3315SOL    HW121164   0.700   5.043   4.960 -1.1961 -0.2493  0.6627
 3315SOL    HW221165   0.554   4.987   4.911 -0.7586  0.6832 -1.7852
 3316SOL     OW21166   6.759   1.833   5.449 -0.3135 -0.4126 -0.1570
 3316SOL    HW121167   6.794   1.783   5.527 -2.3725  0.3297  1.2838
 3316SOL    HW221168   6.682   1.783   5.409 -0.8924  0.4446 -0.1322
 3317SOL     OW21169   8.464   0.710   1.725 -0.8069  0.3045 -0.3379
 3317SOL    HW121170   8.512   0.796   1.708 -0.8739  0.4003 -0.0397
 3317SOL    HW221171   8.436   0.706   1.821  2.1805 -1.5582  0.5141
 3318SOL     OW21172   7.089   2.077   4.513 -0.3915  0.1042 -0.2058
 3318SOL    HW121173   7.070   2.059   4.609 -0.7172 -0.0726 -0.3030
 3318SOL    HW221174   7.018   2.035   4.456  0.9619 -1.6993 -0.6410
 3319SOL     OW21175   9.385   2.761   3.330 -0.4661 -0.0803  0.5596
 3319SOL    HW121176   9.391   2.690   3.259  0.7601  1.3336 -0.7757
 3319SOL    HW221177   9.303   2.817   3.315 -0.2998  0.1113  0.3777
 3320SOL     OW21178   3.695   9.155   1.512 -0.2633 -0.4610 -0.6748
 3320SOL    HW121179   3.642   9.239   1.525  0.2516  0.1784 -2.5286
 3320SOL    HW221180   3.639   9.089   1.461 -0.8962 -1.5181  1.3080
 3321SOL     OW21181   6.479   1.317   6.000 -0.0715 -0.0681  0.2652
 3321SOL    HW121182   6.522   1.295   6.088  1.6851  2.2879  0.0363
 3321SOL    HW221183   6.389   1.357   6.016  0.0010 -0.1701  0.9579
 3322SOL     OW21184   3.894   9.043   1.642  0.1907  0.4090  0.2710
 3322SOL    HW121185   3.881   8.949   1.611  0.6114 -0.1976  1.8614
 3322SOL    HW221186   3.820   9.100   1.608 -0.8186 -0.7874  0.4300
 3323SOL     OW21187   7.373   4.173   5.915 -0.5528 -0.6201 -0.3933
 3323SOL    HW121188   7.353   4.167   6.012  2.0929 -0.6339  0.1766
 3323SOL    HW221189   7.344   4.089   5.869  0.5203 -1.6587  0.8226
 3324SOL     OW21190   9.145   3.695   3.271 -0.2086  0.4595  0.0015
 3324SOL    HW121191   9.220   3.761   3.265 -0.2769  0.6711  1.4071
 3324SOL    HW221192   9.057   3.744   3.272 -0.4378  0.1847 -2.4257
 3325SOL     OW21193   4.633   2.510   0.462  0.1984  0.5198 -0.6174
 3325SOL    HW121194   4.602   2.416   0.471  0.3923  0.4996 -0.1189
 3325SOL    HW221195   4.600   2.564   0.540  0.6821  0.6960 -0.5303
 3326SOL     OW21196   1.008   5.618   4.468  0.2541  0.0269 -0.1994
 3326SOL    HW121197   1.087   5.639   4.409 -0.7796  2.2055 -0.8387
 3326SOL    HW221198   1.038   5.617   4.563  1.1902  0.1832 -0.4797
 3327SOL     OW21199   6.510   0.102   6.075  0.5398  0.4454  0.1226
 3327SOL    HW121200   6.415   0.076   6.058  0.2143 -0.6019  3.1470
 3327SOL    HW221201   6.569   0.023   6.058  0.5548  0.2975  0.8577
 3328SOL     OW21202   1.361   4.931   2.521 -1.0451 -0.1253  0.1868
 3328SOL    HW121203   1.345   4.875   2.439  0.4752  1.4889 -1.2633
 3328SOL    HW221204   1.398   4.874   2.594  0.2789 -1.0597 -1.1887
 3329SOL     OW21205   0.913   5.472   4.905 -0.8614  0.0153 -0.2213
 3329SOL    HW121206   0.979   5.417   4.852 -2.2311 -2.4955  0.6251
 3329SOL    HW221207   0.963   5.530   4.969  0.6631  0.5649 -1.8479
 3330SOL     OW21208   9.725   5.178   5.594  0.2665  0.3953 -0.3354
 3330SOL    HW121209   9.808   5.124   5.580 -1.4155 -2.3131 -0.2002
 3330SOL    HW221210   9.734   5.230   5.679  1.0764 -1.3813  0.6999
 3331SOL     OW21211   3.543   8.418   4.783  0.1311  0.0181 -0.3122
 3331SOL    HW121212   3.565   8.511   4.811 -2.3016  0.6763 -0.5255
 3331SOL    HW221213   3.538   8.359   4.864 -0.8581  0.6289  0.0815
 3332SOL     OW21214   9.754   3.016   6.283  0.6013  0.5121 -0.1956
 3332SOL    HW121215   9.672   3.062   6.249 -0.3033 -0.0201  1.2573
 3332SOL    HW221216   9.827   3.083   6.294  0.4353  0.9558 -1.6900
 3333SOL     OW21217   2.657   3.744   5.663 -0.3146  0.1228 -0.2817
 3333SOL    HW121218   2.608   3.760   5.749  0.0252 -0.2700 -0.0150
 3333SOL    HW221219   2.712   3.661   5.671  1.9645  1.6195  0.1155
 3334SOL     OW21220   8.040   9.799   1.179 -0.2249  0.0847 -0.0100
 3334SOL    HW121221   8.078   9.842   1.261 -1.7866  0.3246  0.6029
 3334SOL    HW221222   8.093   9.826   1.099  0.7928  0.5316  0.8069
 3335SOL     OW21223   1.382   0.201   6.082 -0.1065 -0.2150  0.2470
 3335SOL    HW121224   1.473   0.190   6.121 -0.8284 -1.9922  1.4912
 3335SOL    HW221225   1.331   0.270   6.135  0.3614  0.4871 -0.2060
 3336SOL     OW21226   8.814   3.818   5.656  0.5960 -0.1142 -0.0350
 3336SOL    HW121227   8.760   3.806   5.740  0.9591 -0.8333  0.1045
 3336SOL    HW221228   8.869   3.901   5.664  1.2872 -0.6376  0.8181
 3337SOL     OW21229   0.453   6.264   2.033  0.5698  0.2410  0.3216
 3337SOL    HW121230   0.462   6.174   1.990  1.2073 -0.1235  1.2009
 3337SOL    HW221231   0.545   6.301   2.052  0.3230  1.3910 -0.6899
 3338SOL     OW21232   8.331   4.836   6.657  0.0133 -0.0097  0.0809
 3338SOL    HW121233   8.380   4.905   6.711  0.0703  0.3152 -0.3844
 3338SOL    HW221234   8.332   4.749   6.706  1.3780 -0.1084 -0.1063
 3339SOL     OW21235   4.908   4.833   2.241  0.0431 -0.6561  0.5337
 3339SOL    HW121236   4.818   4.828   2.198 -0.2334  0.2571  0.9857
 3339SOL    HW221237   4.947   4.924   2.227 -0.2672 -0.1706  2.6117
 3340SOL     OW21238   4.033   6.809   3.995 -0.6102 -0.2967 -0.1799
 3340SOL    HW121239   4.087   6.739   3.948 -0.7260  0.4530 -1.4624
 3340SOL    HW221240   3.977   6.766   4.066  0.0239 -1.3730 -0.3199
 3341SOL     OW21241   4.206   4.167   3.736  0.2576 -0.6487 -0.5828
 3341SOL    HW121242   4.149   4.226   3.794 -0.6984 -1.9964 -0.1311
 3341SOL    HW221243   4.271   4.118   3.794  0.2439 -0.9418 -0.8156
 3342SOL     OW21244   4.772   9.403   6.699  0.3537  0.1264  0.2654
 3342SOL    HW121245   4.765   9.401   6.599  0.2008 -0.4710  0.2864
 3342SOL    HW221246   4.709   9.471   6.735 -0.2719 -0.3083  0.0085
 3343SOL     OW21247   1.869   8.358   1.183 -0.5917 -0.2212 -0.1192
 3343SOL    HW121248   1.924   8.342   1.266  1.3166  2.6944 -0.7471
 3343SOL    HW221249   1.910   8.309   1.106 -0.3097 -0.0532 -0.0758
 3344SOL     OW21250   4.657   9.969   4.913  0.3132 -0.3653  0.2499
 3344SOL    HW121251   4.630  10.045   4.974 -0.0207 -0.4450  0.2020
 3344SOL    HW221252   4.582   9.903   4.908  1.2365 -1.5482  1.6363
 3345SOL     OW21253   8.745   8.735   1.714  0.3455 -0.1292  0.1401
 3345SOL    HW121254   8.799   8.808   1.756  0.1921 -0.6194  1.2051
 3345SOL    HW221255   8.763   8.733   1.616  0.7168  1.0282  0.1766
 3346SOL     OW21256   7.711   1.409   2.463 -0.0629  0.0558  0.7163
 3346SOL    HW121257   7.660   1.401   2.377  1.9075  0.2704 -0.5120
 3346SOL    HW221258   7.765   1.326   2.477  2.2093  1.3673  0.0007
 3347SOL     OW21259   2.599   1.624   5.772 -0.3036 -0.6580  0.2832
 3347SOL    HW121260   2.535   1.686   5.727 -1.0031 -1.7844 -0.2823
 3347SOL    HW221261   2.554   1.538   5.793  1.3857 -2.0326 -1.4706
 3348SOL     OW21262   1.078   7.071   1.228 -0.7844  0.9472  0.1015
 3348SOL    HW121263   1.113   7.004   1.163 -2.0945  0.0201  0.3331
 3348SOL    HW221264   1.107   7.163   1.200 -1.4780  0.5918 -1.8970
 3349SOL     OW21265   9.255   2.999   1.180  0.2397  0.0385 -0.5498
 3349SOL    HW121266   9.307   3.076   1.141  0.6926 -0.3967 -0.8039
 3349SOL    HW221267   9.220   2.942   1.106 -1.4775  0.8972 -0.4211
 3350SOL     OW21268   8.593   5.538   1.052 -0.7359  0.0152 -0.1473
 3350SOL    HW121269   8.519   5.494   1.000 -0.9297 -1.2432  1.1783
 3350SOL    HW221270   8.581   5.520   1.149  0.2431  1.4468  0.2576
 3351SOL     OW21271   3.265   4.275   5.361  0.2490  0.5239 -0.9229
 3351SOL    HW121272   3.294   4.366   5.330  0.6695  0.8092  0.2912
 3351SOL    HW221273   3.273   4.210   5.285 -0.2374  1.5282 -1.8614
 3352SOL     OW21274   0.906   2.630   6.631 -0.1195  0.0499  0.1253
 3352SOL    HW121275   0.868   2.630   6.538 -1.4596 -2.9273  0.6185
 3352SOL    HW221276   0.833   2.653   6.696  0.3695  0.2345  0.6085
 3353SOL     OW21277   3.664   4.900   0.459 -0.6079  0.1998 -0.4248
 3353SOL    HW121278   3.762   4.903   0.477 -1.0813  1.4638  2.1605
 3353SOL    HW221279   3.638   4.808   0.431  1.0650 -0.5377  0.3976
 3354SOL     OW21280   3.179   5.798   4.149 -0.0923 -0.2457  0.0649
 3354SOL    HW121281   3.092   5.755   4.124 -0.4740  0.1471  0.7190
 3354SOL    HW221282   3.163   5.892   4.177  0.4819 -0.3155  0.6390
 3355SOL     OW21283   2.331   9.021   4.048 -0.2315  0.5632 -0.1905
 3355SOL    HW121284   2.388   9.088   4.095 -1.6914  1.2144  0.6798
 3355SOL    HW221285   2.251   9.000   4.105 -0.0792 -1.4848 -0.7056
 3356SOL     OW21286   2.951   8.439   5.268 -0.6828  0.2948 -0.0107
 3356SOL    HW121287   2.904   8.412   5.184 -1.1578  1.0033  0.0139
 3356SOL    HW221288   2.947   8.539   5.277 -1.1268  0.1892  1.1194
 3357SOL     OW21289   7.273   2.560   4.848 -0.2540 -0.5332  0.4270
 3357SOL    HW121290   7.200   2.540   4.782 -0.6784  1.4286  0.2756
 3357SOL    HW221291   7.236   2.616   4.922  1.2804  1.1888 -0.0937
 3358SOL     OW21292   8.550   4.396   0.281 -0.4945 -0.8653  0.0744
 3358SOL    HW121293   8.636   4.421   0.236  0.6668 -0.4861  2.4371
 3358SOL    HW221294   8.565   4.389   0.380 -3.6165  1.0342  0.7436
 3359SOL     OW21295   3.524   6.437   0.958  0.2015 -0.2421  0.1960
 3359SOL    HW121296   3.596   6.371   0.980 -0.6914 -1.0327  0.7440
 3359SOL    HW221297   3.532   6.464   0.862 -0.2297 -2.1392 -0.3881
 3360SOL     OW21298   2.048   8.850   1.241  0.9228 -0.5574  0.6652
 3360SOL    HW121299   2.086   8.825   1.152  1.7475  1.5251  0.4083
 3360SOL    HW221300   2.100   8.927   1.279 -1.6994  1.0008  1.2452
 3361SOL     OW21301   9.509   9.637   2.032  0.3500 -0.4311  0.3236
 3361SOL    HW121302   9.493   9.550   2.078  2.1840 -1.5922 -1.1740
 3361SOL    HW221303   9.422   9.674   2.000 -0.6017 -1.0458  2.1182
 3362SOL     OW21304   3.441   7.133   0.370 -0.2113 -0.3152  0.6021
 3362SOL    HW121305   3.465   7.050   0.320 -3.0584 -2.4878  2.6585
 3362SOL    HW221306   3.345   7.129   0.396 -0.6305  4.0132  0.1512
 3363SOL     OW21307   0.876   0.112   3.084  0.4266  0.4139 -0.4203
 3363SOL    HW121308   0.781   0.087   3.064  0.2340  0.4557  0.4279
 3363SOL    HW221309   0.937   0.057   3.027 -0.0883  0.0135 -0.5941
 3364SOL     OW21310   8.548   2.347   5.008 -0.5245 -0.3920  0.3185
 3364SOL    HW121311   8.463   2.327   4.959 -0.5513  1.4699 -0.4719
 3364SOL    HW221312   8.585   2.434   4.975  1.1678 -0.6934  1.3617
 3365SOL     OW21313   0.783   2.931   1.665 -0.4742  0.3688 -0.5771
 3365SOL    HW121314   0.789   2.952   1.567 -1.3365  1.2908 -0.4406
 3365SOL    HW221315   0.691   2.954   1.698 -0.9667 -2.1749 -0.0786
 3366SOL     OW21316   0.688   0.755   6.428 -0.2908  0.1062 -0.1511
 3366SOL    HW121317   0.781   0.739   6.461 -0.4400 -1.7920 -0.6149
 3366SOL    HW221318   0.683   0.846   6.387  1.0754  0.6567  0.8366
 3367SOL     OW21319   1.793   2.914   5.768 -0.0013  0.0508 -0.0952
 3367SOL    HW121320   1.767   3.008   5.791  0.2768  0.1661 -0.2506
 3367SOL    HW221321   1.783   2.901   5.670 -1.6722 -0.5904  0.1470
 3368SOL     OW21322   1.076   4.532   2.982  0.3223  0.0979 -0.2041
 3368SOL    HW121323   1.156   4.579   2.945  0.7179 -0.5701 -0.1992
 3368SOL    HW221324   1.004   4.531   2.913 -0.3632  2.3165  0.4160
 3369SOL     OW21325   9.315   7.971   1.587  0.3269  0.1082  0.1503
 3369SOL    HW121326   9.278   7.879   1.571  0.7593 -0.4441  2.1971
 3369SOL    HW221327   9.289   8.002   1.678 -0.1382  2.2026 -0.6673
 3370SOL     OW21328   5.405   5.286   0.327 -0.2381 -0.0241  0.3533
 3370SOL    HW121329   5.459   5.362   0.363 -1.8645  1.1776  0.2823
 3370SOL    HW221330   5.318   5.281   0.376 -1.1136 -0.4113 -1.2295
 3371SOL     OW21331   8.774   3.931   6.709  0.0198  0.4846 -0.1238
 3371SOL    HW121332   8.854   3.896   6.757 -0.8865 -0.1279  0.9489
 3371SOL    HW221333   8.691   3.888   6.745 -0.6873  0.0038 -2.2180
 3372SOL     OW21334   9.924   2.191   3.897  0.2442  1.0996  0.2477
 3372SOL    HW121335   9.864   2.266   3.927 -0.8646  0.3390 -0.0380
 3372SOL    HW221336  10.006   2.189   3.953  0.5120  2.8370 -0.0372
 3373SOL     OW21337   5.790   1.490   4.601 -0.1236  0.1030  0.0280
 3373SOL    HW121338   5.740   1.535   4.527  1.7208  1.7618 -0.2777
 3373SOL    HW221339   5.779   1.542   4.686 -0.8946 -0.8773  0.5361
 3374SOL     OW21340   0.980   7.535   3.697  0.0751 -0.2257 -0.2421
 3374SOL    HW121341   0.933   7.574   3.776  1.2120 -0.2177  0.4368
 3374SOL    HW221342   0.935   7.450   3.670 -0.7524  0.1440 -0.0404
 3375SOL     OW21343   8.416   6.320   4.633 -0.1063 -0.3284 -0.5657
 3375SOL    HW121344   8.374   6.303   4.722  2.1393  0.9239  0.7722
 3375SOL    HW221345   8.405   6.416   4.608  2.1714  0.1059 -0.0367
 3376SOL     OW21346   0.533   4.249   3.192 -0.5627 -0.1635  0.0868
 3376SOL    HW121347   0.572   4.308   3.264 -2.5330 -1.2261  2.0967
 3376SOL    HW221348   0.571   4.157   3.201 -1.6640 -0.5841  0.4988
 3377SOL     OW21349   0.565   1.505   2.330 -0.5274 -0.3254  0.4763
 3377SOL    HW121350   0.591   1.408   2.323 -1.7297 -0.8798  2.9761
 3377SOL    HW221351   0.646   1.560   2.347 -0.0597 -1.1532  1.0014
 3378SOL     OW21352   7.901   0.589   3.916  0.1782  0.8420 -0.2797
 3378SOL    HW121353   7.947   0.584   4.004 -2.2904 -3.5249  0.8805
 3378SOL    HW221354   7.815   0.640   3.925 -0.2789  0.0390 -0.0267
 3379SOL     OW21355   3.119   5.027   4.571 -0.2435 -0.1900 -0.0818
 3379SOL    HW121356   3.151   4.988   4.485  0.0105  2.7212 -1.3498
 3379SOL    HW221357   3.188   5.012   4.642 -0.5273 -2.7371 -0.3128
 3380SOL     OW21358   8.209   2.108   5.773 -0.4553 -0.3502 -0.3586
 3380SOL    HW121359   8.149   2.072   5.845  1.0479 -1.8637  0.1684
 3380SOL    HW221360   8.233   2.036   5.709  0.1614  0.4304 -1.0272
 3381SOL     OW21361   8.370   8.248   4.612  0.3895 -0.2572 -0.4003
 3381SOL    HW121362   8.423   8.236   4.528  0.7213 -0.7476 -0.1291
 3381SOL    HW221363   8.292   8.186   4.611 -0.1723  0.4603 -0.7957
 3382SOL     OW21364   4.334   7.823   5.583  0.2473 -0.6648  0.3228
 3382SOL    HW121365   4.310   7.920   5.592 -0.6589 -0.9000  0.5438
 3382SOL    HW221366   4.397   7.811   5.506 -1.2097 -0.1563 -0.9804
 3383SOL     OW21367   1.727   7.875   4.605  0.0884 -0.2333 -0.2348
 3383SOL    HW121368   1.694   7.969   4.604  1.6612  0.3269 -2.1399
 3383SOL    HW221369   1.649   7.813   4.603 -0.9382  1.0620 -3.1280
 3384SOL     OW21370   1.133   1.800   0.779  0.8589 -0.6606  0.1620
 3384SOL    HW121371   1.071   1.759   0.846 -2.9747 -0.8072 -3.2281
 3384SOL    HW221372   1.200   1.857   0.825 -1.1971 -1.2777  4.1175
 3385SOL     OW21373   3.532   2.307   5.956  0.1828 -0.2315 -0.0593
 3385SOL    HW121374   3.489   2.251   5.885  0.4291 -0.0410 -0.3591
 3385SOL    HW221375   3.597   2.370   5.914  1.0327 -0.7715  0.4191
 3386SOL     OW21376   0.827   1.254   1.812 -0.2448 -0.2935  0.2931
 3386SOL    HW121377   0.798   1.344   1.844  0.3798  0.2114 -0.5483
 3386SOL    HW221378   0.905   1.223   1.867  0.0645  0.0423  0.0443
 3387SOL     OW21379   2.305   8.529   4.168  0.3965  0.0900 -0.3787
 3387SOL    HW121380   2.338   8.606   4.114  0.5695  1.3011  1.4016
 3387SOL    HW221381   2.214   8.550   4.205  0.0004 -0.9821 -0.7141
 3388SOL     OW21382   5.468   6.414   2.449 -0.6714 -0.4672  0.1434
 3388SOL    HW121383   5.496   6.325   2.484  0.1401  0.2202  1.2966
 3388SOL    HW221384   5.540   6.450   2.388 -0.4748 -0.1011  0.5868
 3389SOL     OW21385   8.676   1.892   1.888  0.0493 -0.3203 -0.3372
 3389SOL    HW121386   8.680   1.814   1.825  3.0177 -1.6975  1.4360
 3389SOL    HW221387   8.724   1.970   1.847 -0.1668 -0.4233 -0.7950
 3390SOL     OW21388   5.873   0.808   5.688  0.2822 -0.0601 -0.5785
 3390SOL    HW121389   5.782   0.825   5.650 -0.0589 -0.7239 -0.0470
 3390SOL    HW221390   5.915   0.730   5.641  0.7048  0.4307 -1.0305
 3391SOL     OW21391   3.348   6.825   5.183 -0.0741 -0.4873  0.2638
 3391SOL    HW121392   3.420   6.783   5.238  0.4166  1.1296  0.9019
 3391SOL    HW221393   3.259   6.799   5.219  0.2267 -0.7367  0.8371
 3392SOL     OW21394   2.921   3.968   4.789  0.1788 -0.1030  0.2490
 3392SOL    HW121395   2.874   4.008   4.868 -0.6442  0.9316 -0.7369
 3392SOL    HW221396   3.002   4.023   4.766  0.8516 -0.8487  0.8520
 3393SOL     OW21397   3.962   5.206   5.506  0.2080  0.1242  0.3068
 3393SOL    HW121398   3.901   5.133   5.537  1.4100 -1.1471 -0.3017
 3393SOL    HW221399   3.908   5.276   5.459 -0.8051 -0.9658 -0.1969
 3394SOL     OW21400   9.001   2.113   5.654 -0.5152 -0.1218  0.4850
 3394SOL    HW121401   8.947   2.188   5.615 -0.1098 -0.3572 -0.5477
 3394SOL    HW221402   8.951   2.027   5.645 -0.3217 -0.2122  0.2683
 3395SOL     OW21403   1.732   6.039   2.521 -0.0126 -0.2041  0.2814
 3395SOL    HW121404   1.674   6.083   2.589 -0.6913  1.9712 -1.6492
 3395SOL    HW221405   1.681   5.968   2.473 -0.0077 -0.6512  0.9312
 3396SOL     OW21406   1.256   6.346   0.453 -0.6573 -0.1324 -0.1186
 3396SOL    HW121407   1.351   6.323   0.475  0.2610  1.4739 -2.2901
 3396SOL    HW221408   1.223   6.416   0.515  0.1781  0.5937 -0.4932
 3397SOL     OW21409   5.660   9.964   2.919 -0.6992  0.2002  0.0880
 3397SOL    HW121410   5.694   9.890   2.978  0.9828  1.7464  1.1039
 3397SOL    HW221411   5.647  10.047   2.974 -1.0249  1.1165 -1.3498
 3398SOL     OW21412   8.105   9.534   4.305  0.5525 -0.3698 -0.6011
 3398SOL    HW121413   8.031   9.467   4.300  0.5824 -0.4310 -0.2089
 3398SOL    HW221414   8.118   9.563   4.400  1.0644 -0.3973 -0.6628
 3399SOL     OW21415   4.054   2.369   3.735 -0.1338  0.1335  0.2636
 3399SOL    HW121416   3.971   2.425   3.739  0.5056  1.1046  0.1791
 3399SOL    HW221417   4.032   2.275   3.759 -1.3354  0.2984 -0.1537
 3400SOL     OW21418   1.167   6.128   0.718  0.3318  0.6571  0.2112
 3400SOL    HW121419   1.113   6.208   0.742 -0.3948 -0.2603  1.7184
 3400SOL    HW221420   1.124   6.081   0.640 -2.5567 -1.4593  2.9441
 3401SOL     OW21421   2.519   6.915   5.657  0.0622  0.1463 -0.0780
 3401SOL    HW121422   2.566   6.982   5.600  1.1714  0.0569  0.7355
 3401SOL    HW221423   2.585   6.849   5.693 -0.6897 -0.0100  1.0302
 3402SOL     OW21424   2.751   3.258   5.953 -0.8388  0.3392 -0.1229
 3402SOL    HW121425   2.735   3.160   5.965  1.3298  0.0438  0.4722
 3402SOL    HW221426   2.763   3.278   5.856  1.8637 -0.5019  0.0119
 3403SOL     OW21427   1.357   1.328   0.743  0.0153 -0.2847  0.3955
 3403SOL    HW121428   1.399   1.238   0.727 -1.8363 -1.0772 -0.1616
 3403SOL    HW221429   1.350   1.377   0.656  0.3494  0.0948  0.5828
 3404SOL     OW21430   3.392   5.211   1.779  0.1453  0.0663  0.4917
 3404SOL    HW121431   3.332   5.163   1.715 -0.0611 -0.1822  0.8688
 3404SOL    HW221432   3.471   5.154   1.801 -1.0805 -0.9392  2.4630
 3405SOL     OW21433   0.928   8.118   2.628  0.1390 -0.1275  0.0094
 3405SOL    HW121434   1.018   8.148   2.662  1.2711 -0.4704 -2.5667
 3405SOL    HW221435   0.880   8.069   2.701  3.1461 -2.2197  0.6878
 3406SOL     OW21436   2.793   1.910   5.610  0.3787 -0.7328  0.3032
 3406SOL    HW121437   2.709   1.945   5.652 -0.7285 -0.5572 -1.9623
 3406SOL    HW221438   2.872   1.959   5.646 -0.8575  1.8680 -0.3899
 3407SOL     OW21439   3.727   1.941   5.691 -0.2617 -0.0467  0.4289
 3407SOL    HW121440   3.741   1.857   5.640  0.6979 -0.2626  1.0349
 3407SOL    HW221441   3.732   2.019   5.629 -0.3930 -0.3803 -0.0055
 3408SOL     OW21442   0.870   1.547   6.131  0.3731  0.0124  0.1181
 3408SOL    HW121443   0.817   1.482   6.076 -0.6792  2.1355 -1.4861
 3408SOL    HW221444   0.966   1.520   6.131 -0.0455 -1.5679 -0.4370
 3409SOL     OW21445   9.268   8.524   3.487  0.1658 -0.0808 -0.0027
 3409SOL    HW121446   9.188   8.583   3.483  1.2762  1.4790  0.2148
 3409SOL    HW221447   9.277   8.486   3.579 -0.7683 -0.9175 -0.2483
 3410SOL     OW21448   8.649   7.109   3.760  0.5872  0.2321  0.3295
 3410SOL    HW121449   8.655   7.009   3.766 -4.4889 -0.3510 -1.8781
 3410SOL    HW221450   8.584   7.142   3.827  0.6021  1.8117 -0.4239
 3411SOL     OW21451   3.273   8.629   4.969 -0.3333 -0.1257  0.3156
 3411SOL    HW121452   3.282   8.531   4.956 -1.8928 -0.3073  0.4164
 3411SOL    HW221453   3.325   8.657   5.050  1.5428 -0.5588 -0.7181
 3412SOL     OW21454   4.778   7.180   2.190  0.5859  0.1400  0.0132
 3412SOL    HW121455   4.838   7.101   2.178  2.1184  0.8451  2.7048
 3412SOL    HW221456   4.828   7.254   2.235 -2.3954  0.5763  2.7897
 3413SOL     OW21457   6.966   9.625   5.254 -0.0611 -0.0396  0.7590
 3413SOL    HW121458   7.014   9.538   5.251 -0.7349 -0.4576  1.7222
 3413SOL    HW221459   6.901   9.624   5.330  0.8165  1.7605  1.5681
 3414SOL     OW21460   3.653   9.545   1.201 -0.1813  0.0732  0.2996
 3414SOL    HW121461   3.712   9.554   1.121  0.9098 -2.6457  0.7476
 3414SOL    HW221462   3.672   9.619   1.265  1.3326  0.3370 -0.4453
 3415SOL     OW21463   1.643   4.382   2.475  0.8892  0.1700  0.3156
 3415SOL    HW121464   1.667   4.454   2.541 -0.8969 -0.8805  2.2007
 3415SOL    HW221465   1.560   4.336   2.506 -0.0828 -0.2699 -2.8017
 3416SOL     OW21466   0.216   6.562   1.670  0.5345  0.1278 -0.0111
 3416SOL    HW121467   0.215   6.653   1.712  3.5827  0.6521 -0.9379
 3416SOL    HW221468   0.209   6.492   1.742 -0.7239  1.0510  0.7959
 3417SOL     OW21469   8.931   5.601   4.358  0.1887 -0.5002 -0.5754
 3417SOL    HW121470   8.897   5.665   4.427  0.5498 -0.8484 -0.0692
 3417SOL    HW221471   9.007   5.548   4.397  0.1925 -0.9107 -1.1427
 3418SOL     OW21472   4.241   0.309   1.145  0.6562 -0.2733  0.1907
 3418SOL    HW121473   4.180   0.275   1.217  1.6347  0.6424  1.4742
 3418SOL    HW221474   4.321   0.351   1.187  1.3437  0.0823 -1.4562
 3419SOL     OW21475   2.216   9.217   2.162 -0.4961 -0.1781 -0.5729
 3419SOL    HW121476   2.259   9.177   2.081  0.9452  0.9274 -0.3919
 3419SOL    HW221477   2.227   9.155   2.239  1.1504  0.2445 -0.4447
 3420SOL     OW21478   7.509   1.109   0.217 -0.1467  0.0166 -0.2743
 3420SOL    HW121479   7.577   1.044   0.183  1.2682  1.5576 -0.4863
 3420SOL    HW221480   7.481   1.170   0.143 -1.7988 -0.6162 -0.1898
 3421SOL     OW21481   1.062   2.640   5.438 -0.0825 -0.4183  0.5143
 3421SOL    HW121482   1.056   2.740   5.425 -0.9549 -0.6291 -0.8879
 3421SOL    HW221483   0.996   2.612   5.508 -0.9201 -0.1800 -0.1616
 3422SOL     OW21484   4.680   5.913   3.131 -0.2094  0.3041  0.6003
 3422SOL    HW121485   4.587   5.931   3.163 -0.6056 -2.5183  1.1290
 3422SOL    HW221486   4.718   5.836   3.182  0.9075 -1.2228 -2.4353
 3423SOL     OW21487   0.818   7.049   3.122 -0.5195 -0.3521 -0.2268
 3423SOL    HW121488   0.856   7.035   3.213  0.5627 -1.7690 -0.8667
 3423SOL    HW221489   0.789   7.144   3.112  0.1163  0.0210  1.3039
 3424SOL     OW21490   3.264   0.703   4.746  0.4091  0.2432 -0.2874
 3424SOL    HW121491   3.197   0.691   4.673  0.3461 -0.6680 -0.0861
 3424SOL    HW221492   3.355   0.681   4.712  0.3396 -0.4808 -0.0107
 3425SOL     OW21493   8.902   4.172   3.226  0.0012 -0.1814 -0.1739
 3425SOL    HW121494   8.811   4.214   3.219  0.4498  0.4759 -2.8082
 3425SOL    HW221495   8.925   4.127   3.139  1.9421 -0.8286  0.6440
 3426SOL     OW21496   3.084   4.530   5.378 -0.6072  0.9047 -0.7008
 3426SOL    HW121497   3.122   4.452   5.329 -2.2846 -1.3861  1.5130
 3426SOL    HW221498   3.002   4.561   5.331 -2.1777 -1.2484  0.5126
 3427SOL     OW21499   4.724   1.462   4.653  0.4688 -0.0099  0.1975
 3427SOL    HW121500   4.723   1.482   4.555  0.5060  0.3526  0.2708
 3427SOL    HW221501   4.636   1.485   4.693  0.9791  1.3823  0.5556
 3428SOL     OW21502   0.175   0.331   3.178 -0.3547 -0.5419 -0.3370
 3428SOL    HW121503   0.173   0.241   3.220 -0.1106  0.2052  1.3192
 3428SOL    HW221504   0.196   0.400   3.248  1.3252  0.5910 -1.9039
 3429SOL     OW21505   3.193   3.612   5.788  0.0423  0.0349  0.4977
 3429SOL    HW121506   3.200   3.532   5.727  1.4745 -1.2562  2.3155
 3429SOL    HW221507   3.110   3.664   5.765  0.0849 -0.9200 -1.9492
 3430SOL     OW21508   0.022   1.325   6.296 -0.1171  0.0203  0.4786
 3430SOL    HW121509   0.105   1.290   6.340  1.6189  2.4274 -0.7105
 3430SOL    HW221510   0.037   1.421   6.269 -2.6030 -0.0955 -1.5179
 3431SOL     OW21511   0.305   5.878   3.651  0.5461 -0.0401  0.0836
 3431SOL    HW121512   0.313   5.830   3.738  1.2482 -4.2174 -2.1410
 3431SOL    HW221513   0.210   5.874   3.619  0.5577  0.2264  0.0191
 3432SOL     OW21514   9.467   0.075   2.132  0.5038 -0.1903 -0.3086
 3432SOL    HW121515   9.533   0.091   2.206  0.6744  1.1849 -0.7367
 3432SOL    HW221516   9.507   0.106   2.045 -0.4726  0.0915 -0.6615
 3433SOL     OW21517   8.598   8.471   0.566 -0.5333  0.5100 -0.5805
 3433SOL    HW121518   8.589   8.567   0.594 -3.0020  0.0326  0.3581
 3433SOL    HW221519   8.678   8.461   0.506  0.5754  2.8837  0.4360
 3434SOL     OW21520   0.935   7.852   6.705  0.9646  0.0500 -0.3090
 3434SOL    HW121521   0.961   7.940   6.666  0.8838  0.1265 -0.1933
 3434SOL    HW221522   0.963   7.778   6.643  1.1237  0.1512 -0.3572
 3435SOL     OW21523   8.004   9.886   5.851 -0.0347 -0.3747 -0.0374
 3435SOL    HW121524   7.951   9.945   5.911 -2.1084 -0.1636 -2.0310
 3435SOL    HW221525   7.986   9.790   5.873 -1.0435 -0.2973 -0.5095
 3436SOL     OW21526   4.367   9.938   1.795  0.0599 -0.5349  0.1946
 3436SOL    HW121527   4.457   9.899   1.816  0.2263 -0.1992  0.1059
 3436SOL    HW221528   4.359   9.950   1.696  0.0086 -0.3411  0.2241
 3437SOL     OW21529   4.845   3.184   4.565 -0.4294  0.0318  0.3090
 3437SOL    HW121530   4.757   3.223   4.591 -0.9027 -0.0753 -1.0984
 3437SOL    HW221531   4.844   3.085   4.579 -0.3717  0.0936  0.7413
 3438SOL     OW21532   0.997   5.482   1.021  0.0821  0.2246  0.2760
 3438SOL    HW121533   0.907   5.475   1.063 -0.6105 -2.0163 -1.4659
 3438SOL    HW221534   1.026   5.392   0.989  2.4559  1.1166 -0.2198
 3439SOL     OW21535   4.816   2.146   3.451  0.2136 -0.0042 -0.6098
 3439SOL    HW121536   4.724   2.176   3.476 -0.5111 -1.3307 -1.5669
 3439SOL    HW221537   4.881   2.220   3.466 -1.0520  1.0407 -0.1608
 3440SOL     OW21538   2.562   3.636   6.094  0.4759  0.3405 -0.0643
 3440SOL    HW121539   2.559   3.728   6.133  3.3151  0.7874 -0.7508
 3440SOL    HW221540   2.642   3.587   6.128  0.7604 -0.7241 -2.1352
 3441SOL     OW21541   8.469   1.603   1.214 -0.3537 -0.0787  0.0739
 3441SOL    HW121542   8.454   1.546   1.295 -1.9370 -0.6288 -0.5896
 3441SOL    HW221543   8.458   1.548   1.131 -1.8825  1.1501 -0.5757
 3442SOL     OW21544   9.483   0.365   2.016  0.5087 -0.2253 -0.1698
 3442SOL    HW121545   9.404   0.414   2.052 -0.1380 -0.3106 -1.4351
 3442SOL    HW221546   9.470   0.347   1.918  1.5053 -1.3993 -0.1071
 3443SOL     OW21547   3.758   9.787   4.335  0.0940 -0.2743  0.4200
 3443SOL    HW121548   3.748   9.810   4.432  0.4082  1.5403  0.0471
 3443SOL    HW221549   3.738   9.869   4.280 -2.0726 -1.7884 -1.1382
 3444SOL     OW21550   8.437   7.558   2.135  0.0225  0.7033  0.7125
 3444SOL    HW121551   8.456   7.515   2.223  0.0146 -2.1453 -0.6083
 3444SOL    HW221552   8.367   7.505   2.086  0.0637  2.1963 -1.0232
 3445SOL     OW21553   8.638   4.134   1.092  0.3313 -0.0749 -0.1309
 3445SOL    HW121554   8.567   4.191   1.052 -1.0484 -1.9498 -0.4210
 3445SOL    HW221555   8.596   4.059   1.144  2.0653 -1.1152 -0.1839
 3446SOL     OW21556   8.281   3.751   4.639  0.1224 -0.3669  0.2814
 3446SOL    HW121557   8.354   3.726   4.702 -0.5483 -0.3443  1.0814
 3446SOL    HW221558   8.298   3.711   4.549  1.6210  0.4507  0.1892
 3447SOL     OW21559   8.431   4.547   6.591 -0.4861 -1.0267  0.1144
 3447SOL    HW121560   8.336   4.578   6.582 -0.4574 -0.9911 -0.0742
 3447SOL    HW221561   8.433   4.451   6.617 -0.5695 -1.2662 -0.7526
 3448SOL     OW21562   7.538   3.357   1.158 -0.1774 -0.2251  0.0239
 3448SOL    HW121563   7.623   3.406   1.177  0.2094 -0.1588 -1.7602
 3448SOL    HW221564   7.462   3.421   1.156  0.1029  0.0844 -0.8058
 3449SOL     OW21565   5.515   8.230   3.295 -0.2969  0.1361 -0.7662
 3449SOL    HW121566   5.418   8.209   3.311 -0.1668  0.3406  0.3456
 3449SOL    HW221567   5.526   8.329   3.283 -0.2394  0.0997 -1.0201
 3450SOL     OW21568   0.800   9.207   5.597 -0.5171 -0.1932 -0.1007
 3450SOL    HW121569   0.868   9.154   5.547 -0.4717 -0.2041 -0.0270
 3450SOL    HW221570   0.846   9.273   5.656 -0.5762  0.1202 -0.4005
 3451SOL     OW21571   9.741   5.233   0.988 -0.0203  0.6223 -0.5648
 3451SOL    HW121572   9.816   5.209   1.050  0.0134  0.6631 -0.5903
 3451SOL    HW221573   9.779   5.271   0.903 -0.0280 -0.2831 -0.9791
 3452SOL     OW21574   1.912   6.612   1.044  0.2429  0.1528 -0.0283
 3452SOL    HW121575   1.967   6.625   0.961  0.0612 -0.9615 -0.3227
 3452SOL    HW221576   1.867   6.523   1.041 -0.8112  0.6574  0.6678
 3453SOL     OW21577   4.032   5.348   0.367  0.5063  0.1262  0.4154
 3453SOL    HW121578   4.056   5.379   0.275  0.8274  0.0480  0.4717
 3453SOL    HW221579   3.941   5.306   0.365  0.0224  1.1679  0.3605
 3454SOL     OW21580   6.846   8.005   3.010 -0.5971 -0.1741 -0.6274
 3454SOL    HW121581   6.893   7.923   3.042  0.1819 -0.2313 -1.8756
 3454SOL    HW221582   6.904   8.085   3.025 -0.0534 -0.2500 -2.2115
 3455SOL     OW21583   7.089   0.271   3.421 -0.2748 -0.3506 -0.3564
 3455SOL    HW121584   7.168   0.291   3.364 -0.5594 -1.6145 -1.2176
 3455SOL    HW221585   7.092   0.175   3.451 -1.2962 -0.3231 -0.1293
 3456SOL     OW21586   9.200   6.083   2.662 -0.0957 -0.1294  0.3343
 3456SOL    HW121587   9.227   6.176   2.686 -2.0772  0.5855 -0.1676
 3456SOL    HW221588   9.205   6.071   2.563  0.0580 -0.5412  0.3887
 3457SOL     OW21589   5.472   9.794   4.365  0.0105  0.1138 -0.7241
 3457SOL    HW121590   5.420   9.876   4.340  0.3663 -0.1359 -2.3506
 3457SOL    HW221591   5.456   9.723   4.297 -0.1325 -1.1100  0.5701
 3458SOL     OW21592   5.457   8.564   4.846 -0.0227  0.5028 -0.0518
 3458SOL    HW121593   5.498   8.495   4.787 -0.1799 -0.9179  1.4635
 3458SOL    HW221594   5.397   8.623   4.792 -0.5150 -1.0408 -1.2216
 3459SOL     OW21595   0.553   9.262   3.735 -0.6069  0.3125 -0.2687
 3459SOL    HW121596   0.582   9.262   3.639 -0.2551  0.3968 -0.1629
 3459SOL    HW221597   0.597   9.185   3.783  0.8694  1.4852  0.3160
 3460SOL     OW21598   4.682   0.051   4.670 -0.3068  0.3957 -0.5440
 3460SOL    HW121599   4.677   0.012   4.762 -0.5304  1.5605 -0.0488
 3460SOL    HW221600   4.732  -0.011   4.610 -1.2352 -0.9477  0.0558
 3461SOL     OW21601   1.230   0.721   2.295 -0.0407  0.2699  0.2490
 3461SOL    HW121602   1.307   0.718   2.231 -0.3628 -1.9385 -0.0743
 3461SOL    HW221603   1.231   0.640   2.353 -0.6145  1.5199  2.0692
 3462SOL     OW21604   3.624   6.916   0.781 -0.6324 -0.6384  0.3578
 3462SOL    HW121605   3.688   6.993   0.778  0.0545 -1.2155 -0.0757
 3462SOL    HW221606   3.676   6.830   0.792 -1.2291 -1.2301 -1.2478
 3463SOL     OW21607   7.649   2.727   6.480 -0.5953  0.2510 -0.4336
 3463SOL    HW121608   7.606   2.637   6.475  0.1720 -0.1981  0.7516
 3463SOL    HW221609   7.579   2.798   6.478 -1.2582 -0.3951 -0.4940
 3464SOL     OW21610   0.167   6.701   5.515  0.1532  0.1345 -0.2061
 3464SOL    HW121611   0.176   6.644   5.596  0.1938  0.7228  0.2044
 3464SOL    HW221612   0.111   6.654   5.447 -0.9216  0.1737  0.6461
 3465SOL     OW21613   9.563   1.775   5.090  0.1860 -0.4450  0.2283
 3465SOL    HW121614   9.535   1.869   5.105  3.6281  0.6658  0.2043
 3465SOL    HW221615   9.557   1.724   5.176 -3.9953 -0.9306 -0.2707
 3466SOL     OW21616   1.519   9.692   2.331 -0.0252  0.3051 -0.4292
 3466SOL    HW121617   1.447   9.734   2.275 -0.5014  1.9085  1.3500
 3466SOL    HW221618   1.488   9.603   2.363 -1.4857  1.2401  0.8226
 3467SOL     OW21619   0.343   9.692   2.990 -0.5925  0.5702  0.1793
 3467SOL    HW121620   0.403   9.623   3.031 -0.6784  1.2895  1.5352
 3467SOL    HW221621   0.250   9.656   2.983 -0.4744  0.2675  0.1474
 3468SOL     OW21622   6.635   0.021   4.573  0.1857  0.0756  0.1832
 3468SOL    HW121623   6.562  -0.047   4.579  0.3447 -0.2137 -1.0656
 3468SOL    HW221624   6.682   0.026   4.661  0.6953 -2.0445  0.0624
 3469SOL     OW21625   0.241   0.921   4.143  0.4317 -0.1083 -0.2961
 3469SOL    HW121626   0.241   1.004   4.088  0.0331 -0.1998 -0.4406
 3469SOL    HW221627   0.315   0.861   4.114  1.0531  0.4300  0.1704
 3470SOL     OW21628   4.366   1.295   3.199 -0.6007 -0.2068  0.3924
 3470SOL    HW121629   4.332   1.232   3.270 -0.0415 -0.6455  0.2774
 3470SOL    HW221630   4.294   1.359   3.174 -0.8432 -0.1279  1.2732
 3471SOL     OW21631   2.659   3.335   1.332  0.2328 -0.3472  0.3086
 3471SOL    HW121632   2.623   3.410   1.276  1.6367 -0.1601 -0.3562
 3471SOL    HW221633   2.759   3.343   1.339  0.4720 -2.5278 -0.3231
 3472SOL     OW21634   7.853   0.056   2.091 -0.2636  0.1074 -0.0368
 3472SOL    HW121635   7.838  -0.028   2.143 -2.2733  1.1770  1.1633
 3472SOL    HW221636   7.930   0.106   2.131 -1.6518  0.8094  1.8251
 3473SOL     OW21637   2.228   7.201   4.050 -0.0777 -0.3090 -0.4815
 3473SOL    HW121638   2.263   7.293   4.036 -1.7866  0.5927  1.0328
 3473SOL    HW221639   2.201   7.162   3.963  0.3984  0.7178 -1.0960
 3474SOL     OW21640   4.635   6.777   2.272 -0.1501  0.4550  0.0097
 3474SOL    HW121641   4.640   6.833   2.354  0.2010 -0.7495  0.8207
 3474SOL    HW221642   4.611   6.835   2.194 -0.5837  1.5914  0.9649
 3475SOL     OW21643   9.825   7.339   0.461 -0.5392 -0.3529 -0.5530
 3475SOL    HW121644   9.903   7.397   0.486 -0.4143  0.0168 -1.7793
 3475SOL    HW221645   9.760   7.336   0.537  0.0330  0.3951 -0.0236
 3476SOL     OW21646   0.518   8.813   6.488  0.2376  0.0811  0.0998
 3476SOL    HW121647   0.580   8.735   6.492 -0.2009 -0.1867  2.6135
 3476SOL    HW221648   0.569   8.898   6.499  0.5827  0.0975 -1.5409
 3477SOL     OW21649   3.722   9.570   3.537 -0.1212  0.0390  0.0540
 3477SOL    HW121650   3.664   9.554   3.457  0.0199  0.0335 -0.0468
 3477SOL    HW221651   3.812   9.527   3.523 -1.1575 -2.7821  1.5644
 3478SOL     OW21652   6.722   1.860   3.205  0.3071  0.0181 -0.0227
 3478SOL    HW121653   6.676   1.925   3.265 -0.2533 -0.2881 -0.1049
 3478SOL    HW221654   6.788   1.907   3.147  0.4686  0.3900  0.4717
 3479SOL     OW21655   9.417   5.998   4.727  0.5172 -0.5030  0.1720
 3479SOL    HW121656   9.435   5.921   4.665 -1.7965  0.7667 -2.1962
 3479SOL    HW221657   9.484   6.070   4.710 -0.1540 -0.1299 -0.9321
 3480SOL     OW21658   8.505   4.986   4.570  0.1689  0.1376  0.0182
 3480SOL    HW121659   8.559   4.982   4.486  1.5357 -0.9766  0.9385
 3480SOL    HW221660   8.475   5.080   4.586 -0.9505  0.1838 -2.2408
 3481SOL     OW21661   1.809   3.668   0.920 -0.0888  0.4527 -0.6146
 3481SOL    HW121662   1.806   3.668   0.820  0.8611 -0.2633 -0.6521
 3481SOL    HW221663   1.777   3.756   0.955  0.4886  1.0430 -1.5774
 3482SOL     OW21664   0.065   5.192   3.601 -0.5777 -0.1929 -0.2118
 3482SOL    HW121665   0.002   5.152   3.534 -2.9626  0.2103  1.7259
 3482SOL    HW221666   0.118   5.119   3.644 -0.2039 -0.6081 -1.3466
 3483SOL     OW21667   3.780   7.717   4.849  0.3116 -0.1214  0.4139
 3483SOL    HW121668   3.816   7.789   4.909  1.2540 -0.6443  0.4751
 3483SOL    HW221669   3.791   7.743   4.754 -1.1477  0.6924  0.4455
 3484SOL     OW21670   1.342   5.420   5.113  0.2961 -0.7950  0.2087
 3484SOL    HW121671   1.282   5.481   5.164  0.5008  0.0246 -0.5015
 3484SOL    HW221672   1.315   5.325   5.128  0.7371 -0.6165  2.2980
 3485SOL     OW21673   8.213   0.266   3.867  0.0547  0.8644  0.2039
 3485SOL    HW121674   8.116   0.288   3.881 -0.0232  0.1573  0.8584
 3485SOL    HW221675   8.269   0.341   3.901 -0.2418  0.7857  0.8791
 3486SOL     OW21676   9.076   1.718   1.938 -0.5716 -0.0503 -0.0295
 3486SOL    HW121677   9.136   1.797   1.931  1.6511 -1.7802 -0.9514
 3486SOL    HW221678   9.093   1.656   1.862 -3.1167 -0.8807  0.0206
 3487SOL     OW21679   2.166   8.177   0.015 -0.0344 -0.3561 -0.4624
 3487SOL    HW121680   2.148   8.263  -0.033 -3.1613 -0.8451 -0.2298
 3487SOL    HW221681   2.168   8.194   0.113  2.7154 -0.0106 -0.5296
 3488SOL     OW21682   4.180   9.040   6.204 -0.1462 -0.3445  0.1983
 3488SOL    HW121683   4.169   9.082   6.294 -0.4273  0.1937 -0.0819
 3488SOL    HW221684   4.190   9.112   6.135 -1.0640 -0.7288 -0.3415
 3489SOL     OW21685   5.130   9.149   4.775  0.0000 -0.3602 -0.2620
 3489SOL    HW121686   5.214   9.129   4.725  1.5407  0.2566  2.0251
 3489SOL    HW221687   5.131   9.101   4.863 -1.8062  0.0794  0.0215
 3490SOL     OW21688   4.584   1.708   4.753 -0.3563  0.2705 -0.1661
 3490SOL    HW121689   4.596   1.763   4.670  0.6505 -0.0261 -0.2241
 3490SOL    HW221690   4.512   1.640   4.738  3.0008 -2.9988 -2.5291
 3491SOL     OW21691   2.881   9.068   4.120  0.3359  0.3398 -0.0570
 3491SOL    HW121692   2.905   9.160   4.089  0.2658  0.3830  0.0188
 3491SOL    HW221693   2.867   9.069   4.219  2.2529 -0.1342  0.2518
 3492SOL     OW21694   1.296   0.955   4.536  0.2978 -0.6637  0.4793
 3492SOL    HW121695   1.365   0.943   4.608 -0.4035 -2.6898  0.8194
 3492SOL    HW221696   1.232   0.879   4.538 -1.6955  0.9642 -0.1581
 3493SOL     OW21697   4.285   2.804   3.288  0.3912 -0.4123 -0.3376
 3493SOL    HW121698   4.382   2.823   3.269  0.6015 -1.7964 -0.6842
 3493SOL    HW221699   4.266   2.708   3.272 -0.9079 -0.2859  0.3663
 3494SOL     OW21700   9.392   5.185   6.331  0.7999  0.0724  0.8354
 3494SOL    HW121701   9.339   5.212   6.251  1.5248 -1.9970 -0.3898
 3494SOL    HW221702   9.333   5.137   6.396  0.7814 -0.6550  0.2871
 3495SOL     OW21703   3.674   5.749   0.306 -0.4064  0.2951  0.4594
 3495SOL    HW121704   3.582   5.754   0.343 -1.6544 -0.4932 -2.3769
 3495SOL    HW221705   3.691   5.827   0.246  0.0463 -0.5034 -0.4901
 3496SOL     OW21706   9.400   1.636   0.385  0.2111  0.0277  0.1365
 3496SOL    HW121707   9.398   1.580   0.469  0.3050  1.0058  0.7939
 3496SOL    HW221708   9.413   1.732   0.409 -1.0117  0.4739 -0.9205
 3497SOL     OW21709   4.819   8.773   4.300  0.6511  0.2133 -0.6740
 3497SOL    HW121710   4.723   8.794   4.281  0.4259 -0.2489 -0.0753
 3497SOL    HW221711   4.858   8.844   4.359  0.0975 -0.6290  0.7465
 3498SOL     OW21712   8.966   6.538   1.160 -0.3833  0.0332  0.5063
 3498SOL    HW121713   8.878   6.499   1.134 -0.7395  0.1901  1.4673
 3498SOL    HW221714   9.012   6.477   1.225 -0.4776  0.6955  1.2051
 3499SOL     OW21715   1.951   2.947   0.699  0.0834  0.0768  0.1185
 3499SOL    HW121716   1.852   2.947   0.689 -0.0282  0.8938  1.0579
 3499SOL    HW221717   1.981   2.861   0.740 -0.1761 -0.4004 -0.6915
 3500SOL     OW21718   8.454   1.362   4.111 -0.1432  0.4048  0.1613
 3500SOL    HW121719   8.362   1.340   4.080 -1.4730  3.0645  2.0799
 3500SOL    HW221720   8.469   1.321   4.202  1.6520 -2.4388 -1.3342
 3501SOL     OW21721   1.524   6.268   0.564 -0.4293  0.3284  0.1960
 3501SOL    HW121722   1.504   6.237   0.657  2.3829 -0.8550  0.4795
 3501SOL    HW221723   1.570   6.357   0.568  0.8790 -0.3242  0.0642
 3502SOL     OW21724   2.653   5.176   0.645  0.4648 -0.2422  0.4600
 3502SOL    HW121725   2.740   5.178   0.595  1.0957 -0.1287  1.5533
 3502SOL    HW221726   2.661   5.231   0.728 -1.3930  1.7175 -0.6170
 3503SOL     OW21727   8.610   2.042   5.701 -0.1639  0.5665 -0.2957
 3503SOL    HW121728   8.531   1.998   5.744  1.2997 -1.2158  0.6150
 3503SOL    HW221729   8.638   2.121   5.756  1.1414 -1.1671  1.6075
 3504SOL     OW21730   1.553   0.916   6.369  0.5489 -0.1195  0.2440
 3504SOL    HW121731   1.591   0.856   6.439 -1.1414  2.1586  3.2160
 3504SOL    HW221732   1.578   1.010   6.388 -1.1547  0.6955 -1.3935
 3505SOL     OW21733   9.088   8.103   1.423  0.2180 -0.5552 -0.2498
 3505SOL    HW121734   9.172   8.149   1.394  2.6894 -3.9733  1.1038
 3505SOL    HW221735   9.077   8.113   1.522  0.4544 -2.2345 -0.0348
 3506SOL     OW21736   2.258   4.515   6.628  0.1284  0.0233 -0.0448
 3506SOL    HW121737   2.307   4.513   6.715  0.8332 -0.3266 -0.4445
 3506SOL    HW221738   2.217   4.606   6.615  0.8940  0.4079  0.1751
 3507SOL     OW21739   8.447   6.270   5.186  0.2238 -0.5879  0.3014
 3507SOL    HW121740   8.498   6.260   5.272  3.5706  0.0044 -1.5458
 3507SOL    HW221741   8.425   6.180   5.149  2.5204 -0.9038 -0.3425
 3508SOL     OW21742   7.280   7.924   2.735 -0.0067 -0.1744  0.2043
 3508SOL    HW121743   7.245   8.011   2.769  0.5038 -0.0252  0.3419
 3508SOL    HW221744   7.347   7.887   2.800  0.1978 -0.3950 -0.1310
 3509SOL     OW21745   5.480   0.443   1.685  0.0035 -0.7874  0.1783
 3509SOL    HW121746   5.566   0.483   1.653 -0.4218 -0.1423 -0.1815
 3509SOL    HW221747   5.405   0.472   1.625 -0.7837  0.3130  1.6383
 3510SOL     OW21748   2.659   9.603   2.854 -0.7118 -0.4752  0.0933
 3510SOL    HW121749   2.691   9.521   2.806 -1.2074  0.2579 -1.5420
 3510SOL    HW221750   2.689   9.684   2.804 -0.5635  0.3447  1.4860
 3511SOL     OW21751   8.746   2.438   6.397  0.1961 -0.1257  0.2151
 3511SOL    HW121752   8.819   2.399   6.452  0.8718  1.0488  0.1757
 3511SOL    HW221753   8.745   2.537   6.409 -1.5691 -0.1522  0.4341
 3512SOL     OW21754   0.003   8.845   4.092 -0.4038  0.6369 -0.0746
 3512SOL    HW121755  -0.088   8.864   4.056 -0.5944  1.1226  0.6591
 3512SOL    HW221756   0.071   8.897   4.041 -0.3604 -0.9488 -1.6831
 3513SOL     OW21757   3.982   1.922   4.172  0.5307  0.1028 -0.2060
 3513SOL    HW121758   4.029   2.003   4.208  0.5215  0.0165  0.0021
 3513SOL    HW221759   3.887   1.923   4.202  0.7681 -0.4676  0.5837
 3514SOL     OW21760   9.408   3.994   1.185  0.6189 -0.2868  0.3992
 3514SOL    HW121761   9.418   4.030   1.278 -0.7307  2.2977 -0.4120
 3514SOL    HW221762   9.478   4.034   1.126 -0.3188  0.3268 -0.3153
 3515SOL     OW21763   2.024   1.563   1.271  0.4153  0.0265 -0.0387
 3515SOL    HW121764   2.095   1.535   1.335 -0.0458 -0.1931  0.3827
 3515SOL    HW221765   2.063   1.622   1.200  0.9904 -0.0111  0.2502
 3516SOL     OW21766   7.499   4.287   0.158 -0.0633 -0.3314  0.3426
 3516SOL    HW121767   7.456   4.214   0.105 -0.1541  0.3013 -0.4506
 3516SOL    HW221768   7.574   4.327   0.106 -1.1704  1.3810  0.0064
 3517SOL     OW21769   3.777   1.359   3.119  0.7349  0.5588  0.4998
 3517SOL    HW121770   3.808   1.283   3.062  1.0692  2.0269 -1.3123
 3517SOL    HW221771   3.804   1.446   3.078 -0.6397  1.7132  1.9402
 3518SOL     OW21772   1.684   8.631   2.748 -0.3854 -0.5608 -0.1518
 3518SOL    HW121773   1.677   8.625   2.649 -0.4059  1.7826 -0.3047
 3518SOL    HW221774   1.776   8.603   2.776  0.3894  1.0289 -1.0448
 3519SOL     OW21775   9.290   2.893   0.459 -0.2043  0.1747 -0.1431
 3519SOL    HW121776   9.350   2.890   0.380 -0.6822  0.9736 -0.5430
 3519SOL    HW221777   9.313   2.973   0.514  0.9813 -1.0581  1.2216
 3520SOL     OW21778   8.786   3.623   4.999  0.1297 -0.4612  0.1919
 3520SOL    HW121779   8.778   3.673   4.913  2.0380  0.5520  0.5741
 3520SOL    HW221780   8.737   3.672   5.071  2.7614  1.4496  0.7764
 3521SOL     OW21781   8.339   3.829   0.637 -0.1684 -0.2272  0.1002
 3521SOL    HW121782   8.299   3.774   0.710  2.0181 -0.6696  1.0091
 3521SOL    HW221783   8.409   3.889   0.675  1.0041 -0.4655 -1.6048
 3522SOL     OW21784   0.482   4.430   4.611  0.5008  0.0595 -0.2535
 3522SOL    HW121785   0.495   4.474   4.700  0.4763  0.2304 -0.3340
 3522SOL    HW221786   0.484   4.499   4.539 -3.1567  0.4163 -0.1008
 3523SOL     OW21787   8.458   2.944   0.378  0.2257 -0.1047 -0.0998
 3523SOL    HW121788   8.417   2.896   0.300 -1.4446  1.5918 -0.2946
 3523SOL    HW221789   8.557   2.952   0.365  0.2830 -1.9078 -0.9047
 3524SOL     OW21790   9.676   3.076   1.112  0.1258  0.3631  0.0174
 3524SOL    HW121791   9.688   3.070   1.013 -0.7798 -1.0779 -0.0153
 3524SOL    HW221792   9.579   3.083   1.134  0.2247 -0.7452  0.8623
 3525SOL     OW21793   4.479   3.134   0.229 -1.1346 -0.3846 -0.1460
 3525SOL    HW121794   4.444   3.147   0.136 -1.2562 -0.3156 -0.0908
 3525SOL    HW221795   4.562   3.188   0.241 -2.9111  2.2445  0.8254
 3526SOL     OW21796   0.374   5.153   0.082  0.0684  0.1628  0.5666
 3526SOL    HW121797   0.467   5.156   0.120  0.1560  0.8544  0.2990
 3526SOL    HW221798   0.369   5.080   0.014  0.8571  1.1352 -0.5536
 3527SOL     OW21799   8.335   5.083   4.301  0.1268  0.0463  0.3949
 3527SOL    HW121800   8.310   4.987   4.284 -1.0265  0.5356 -0.7125
 3527SOL    HW221801   8.398   5.115   4.230 -0.0612  0.3283  0.3537
 3528SOL     OW21802   3.935   9.233   4.353  0.4560 -0.1070  0.0825
 3528SOL    HW121803   4.019   9.282   4.327  0.3647 -0.8390 -1.6270
 3528SOL    HW221804   3.904   9.177   4.277 -1.4128 -0.1222  0.8289
 3529SOL     OW21805   4.237   9.771   5.923 -0.7889 -0.1591  0.1367
 3529SOL    HW121806   4.157   9.824   5.895 -0.2775  1.3203  1.3916
 3529SOL    HW221807   4.221   9.731   6.013 -0.3714 -0.3870  0.1105
 3530SOL     OW21808   4.380   2.953   5.458 -0.7566 -0.6295  0.2999
 3530SOL    HW121809   4.435   2.889   5.405 -1.8653  0.0217 -1.6521
 3530SOL    HW221810   4.383   3.044   5.416 -0.5649  0.2304  2.1002
 3531SOL     OW21811   9.666   9.117   1.546  0.6484 -0.0699 -0.1269
 3531SOL    HW121812   9.641   9.070   1.631 -1.5271  0.2802 -0.5456
 3531SOL    HW221813   9.583   9.147   1.499  1.8736  0.6407 -1.8791
 3532SOL     OW21814   0.103   1.582   6.259  0.3332 -0.4818 -0.2259
 3532SOL    HW121815   0.101   1.587   6.159 -1.4018  0.2803 -0.1779
 3532SOL    HW221816   0.115   1.674   6.298 -0.2853 -0.6054  0.2740
 3533SOL     OW21817   2.631   8.503   4.665  0.2870  0.6432 -0.3929
 3533SOL    HW121818   2.729   8.523   4.672  0.2834  0.2931  0.8643
 3533SOL    HW221819   2.581   8.566   4.725 -0.1045 -0.2528  0.2285
 3534SOL     OW21820   3.520   0.367   5.209  0.7740 -0.3391 -0.2168
 3534SOL    HW121821   3.603   0.356   5.154  0.2846  0.1493 -1.0775
 3534SOL    HW221822   3.466   0.283   5.207  0.0364  0.1435 -1.7250
 3535SOL     OW21823   4.092   2.549   3.969 -0.8637  0.7324 -0.0508
 3535SOL    HW121824   4.166   2.615   3.957 -1.3191  1.3851  0.6093
 3535SOL    HW221825   4.076   2.499   3.884  0.4824  0.4271 -0.1271
 3536SOL     OW21826   7.343   1.288   5.604  0.3971 -0.2684 -0.4261
 3536SOL    HW121827   7.342   1.201   5.554 -0.3357 -1.6186  1.8297
 3536SOL    HW221828   7.283   1.353   5.558 -2.1331 -2.2458 -0.1099
 3537SOL     OW21829   1.844   9.592   5.369  0.5420  0.6065 -0.0870
 3537SOL    HW121830   1.890   9.583   5.281 -0.5087 -1.6117 -0.4213
 3537SOL    HW221831   1.890   9.534   5.437 -2.0194 -2.0789 -0.5593
 3538SOL     OW21832   4.072   7.530   3.585  0.3925  0.1525  0.1338
 3538SOL    HW121833   4.060   7.558   3.680 -1.0084  0.3026 -0.0870
 3538SOL    HW221834   3.985   7.536   3.536  0.5151 -2.4284 -0.4861
 3539SOL     OW21835   7.392   1.756   1.623  0.4209  0.1344 -0.0391
 3539SOL    HW121836   7.355   1.670   1.658  2.2473 -1.0234 -0.8660
 3539SOL    HW221837   7.387   1.756   1.523  0.8510  0.7778 -0.0598
 3540SOL     OW21838   4.245   9.426   3.165  0.7237 -0.0114  0.2077
 3540SOL    HW121839   4.281   9.404   3.075  1.7302 -0.5194  0.7209
 3540SOL    HW221840   4.152   9.461   3.156  0.0663 -1.9061 -0.8737
 3541SOL     OW21841   9.506   3.689   1.803  0.0075  0.6561  0.3403
 3541SOL    HW121842   9.484   3.604   1.756  0.4330  0.0031  1.3151
 3541SOL    HW221843   9.427   3.750   1.801  0.4632  1.2322 -2.4668
 3542SOL     OW21844   3.159   4.692   3.426 -0.0237 -0.3043  0.0119
 3542SOL    HW121845   3.223   4.649   3.489 -1.0245  1.6816  2.4434
 3542SOL    HW221846   3.068   4.651   3.436  0.0213 -0.6028 -0.7855
 3543SOL     OW21847   9.950   9.137   6.490 -0.0975  0.6289 -0.0003
 3543SOL    HW121848   9.932   9.050   6.535  0.6696  0.2191 -0.4739
 3543SOL    HW221849  10.032   9.129   6.434  0.4186  1.8677  0.5482
 3544SOL     OW21850   3.838   6.665   0.805  0.2438 -0.0025  0.4211
 3544SOL    HW121851   3.908   6.672   0.877  1.2019  1.1476 -0.5890
 3544SOL    HW221852   3.872   6.609   0.730 -0.6274 -0.9262  0.7092
 3545SOL     OW21853   8.049   8.270   4.873  0.0225 -0.1570  0.0503
 3545SOL    HW121854   7.980   8.343   4.874  1.3767  1.1523  0.5993
 3545SOL    HW221855   8.136   8.306   4.838  1.5042 -0.7324  2.9581
 3546SOL     OW21856   1.473   0.317   3.303 -0.2301  0.0252 -0.6152
 3546SOL    HW121857   1.383   0.359   3.289  0.1215  0.5230 -1.4317
 3546SOL    HW221858   1.488   0.246   3.235 -0.0368 -0.1102 -0.4328
 3547SOL     OW21859   8.549   3.607   6.254  0.0716 -0.3419  0.2289
 3547SOL    HW121860   8.559   3.621   6.352 -1.3920  1.0488  0.1906
 3547SOL    HW221861   8.516   3.691   6.211  1.9821 -0.5140 -1.6543
 3548SOL     OW21862   1.151   2.731   6.017  0.0673 -0.2834 -0.2898
 3548SOL    HW121863   1.202   2.695   6.094 -0.0890 -0.9366 -0.4917
 3548SOL    HW221864   1.204   2.804   5.973 -0.4140  1.0126  1.2254
 3549SOL     OW21865   1.659   3.751   2.755  0.1095  0.2637 -0.0015
 3549SOL    HW121866   1.646   3.828   2.692 -1.4249 -0.2933 -0.3911
 3549SOL    HW221867   1.755   3.725   2.758  0.5013  1.6218 -0.5467
 3550SOL     OW21868   9.199   1.276   0.219  0.1791  0.6420  0.8178
 3550SOL    HW121869   9.153   1.337   0.284  2.3793  1.1696  1.9130
 3550SOL    HW221870   9.283   1.318   0.187 -0.7853  0.3221 -2.3389
 3551SOL     OW21871   8.695   5.004   4.386 -0.3322 -0.7621 -0.5058
 3551SOL    HW121872   8.783   5.027   4.428 -1.0658 -0.6352  0.9798
 3551SOL    HW221873   8.711   4.943   4.308  1.1652  0.2102 -0.9824
 3552SOL     OW21874   7.009   4.747   1.492  0.3366 -0.2533 -0.3777
 3552SOL    HW121875   6.956   4.669   1.457  1.6816 -1.0914 -0.6018
 3552SOL    HW221876   7.032   4.732   1.588  1.1324 -0.4433 -0.5910
 3553SOL     OW21877   7.269   7.484   4.538 -0.8309  0.2368 -0.3404
 3553SOL    HW121878   7.258   7.412   4.470 -1.1970 -0.0396  0.0060
 3553SOL    HW221879   7.366   7.494   4.562 -0.6995  0.3564 -0.9200
 3554SOL     OW21880   2.493   3.951   4.928 -0.4262 -0.1977  0.2942
 3554SOL    HW121881   2.448   3.985   4.846 -0.1936 -1.7394 -0.4997
 3554SOL    HW221882   2.562   3.883   4.902 -0.5469 -0.9011  1.7720
 3555SOL     OW21883   8.361   5.145   2.311 -0.5493  0.4386  0.5578
 3555SOL    HW121884   8.456   5.174   2.307  0.0860 -1.7361 -0.8990
 3555SOL    HW221885   8.356   5.047   2.328 -2.5268  0.5346  0.6771
 3556SOL     OW21886   4.774   4.774   1.801  0.4398 -0.3857 -0.3767
 3556SOL    HW121887   4.705   4.744   1.735  0.2744  0.2792 -0.5081
 3556SOL    HW221888   4.858   4.721   1.787 -0.2570 -1.6891  0.2433
 3557SOL     OW21889   9.495   9.122   4.699  0.0379  0.0103  0.4806
 3557SOL    HW121890   9.534   9.056   4.634  1.7424 -0.3846  1.8528
 3557SOL    HW221891   9.547   9.207   4.696 -0.2733  0.2191  0.8689
 3558SOL     OW21892   3.732   7.824   3.960  0.3008  0.3318 -0.0524
 3558SOL    HW121893   3.825   7.844   3.991  0.5104 -1.7711  0.7584
 3558SOL    HW221894   3.736   7.762   3.882 -0.4601 -0.5084  0.5803
 3559SOL     OW21895   1.550   7.287   5.577 -0.0671 -0.4387  0.5128
 3559SOL    HW121896   1.598   7.278   5.490  0.4675 -0.3437  0.7968
 3559SOL    HW221897   1.602   7.347   5.638 -0.6564 -0.1646  0.7417
 3560SOL     OW21898   2.592   9.821   0.331  0.5109  0.1075 -0.8633
 3560SOL    HW121899   2.512   9.823   0.391  1.9185  1.1189  1.0218
 3560SOL    HW221900   2.598   9.731   0.287  0.1797 -1.0935  1.4983
 3561SOL     OW21901   9.522   9.424   2.221 -0.1660  0.1921 -0.1416
 3561SOL    HW121902   9.471   9.339   2.229 -0.0973  0.1901  0.2489
 3561SOL    HW221903   9.564   9.447   2.309 -2.4320  2.0394  0.5043
 3562SOL     OW21904   6.482   7.384   4.820 -0.5040  0.1676 -0.0946
 3562SOL    HW121905   6.553   7.449   4.845 -1.0895  0.4886  0.7558
 3562SOL    HW221906   6.399   7.433   4.793  0.4634 -0.1088 -3.9505
 3563SOL     OW21907   1.329   3.227   5.306 -0.2450 -0.0488 -0.3392
 3563SOL    HW121908   1.311   3.210   5.209 -1.6937  0.0219 -0.0901
 3563SOL    HW221909   1.399   3.163   5.339  1.1563  0.7293 -1.7213
 3564SOL     OW21910   3.671   4.392   2.624 -0.0227  0.4221  0.5813
 3564SOL    HW121911   3.617   4.323   2.673  0.9708  0.1306  1.2629
 3564SOL    HW221912   3.681   4.473   2.681  0.2267  0.4957  0.4319
 3565SOL     OW21913   8.994   4.978   5.946 -0.8069  0.1257  0.3113
 3565SOL    HW121914   8.943   5.045   6.000  1.2903  1.5176  0.6256
 3565SOL    HW221915   9.042   4.915   6.007  0.6876  1.0344  0.1255
 3566SOL     OW21916   9.359   8.941   2.328  0.6754  0.5659 -0.1888
 3566SOL    HW121917   9.343   9.017   2.391  1.1991  0.5241 -0.0049
 3566SOL    HW221918   9.397   8.863   2.378  0.8910  0.4600 -0.5145
 3567SOL     OW21919   8.827   7.176   3.365 -0.0956 -0.3351  0.1100
 3567SOL    HW121920   8.890   7.248   3.335 -1.2423 -0.0803 -1.7775
 3567SOL    HW221921   8.792   7.199   3.456 -0.2015  1.3335 -0.3360
 3568SOL     OW21922   4.148   9.831   0.551  0.0844  0.1457 -0.2704
 3568SOL    HW121923   4.117   9.912   0.500  0.5260 -0.3206 -1.2999
 3568SOL    HW221924   4.070   9.792   0.601 -0.4332  0.4380 -0.8332
 3569SOL     OW21925   9.518   9.192   5.745  0.8336  0.0023 -0.2899
 3569SOL    HW121926   9.500   9.125   5.674 -1.7210 -0.1888  0.4919
 3569SOL    HW221927   9.538   9.281   5.704 -0.1895 -0.2135 -1.2566
 3570SOL     OW21928   4.352   8.346   5.744  0.2093  0.4740  0.0684
 3570SOL    HW121929   4.401   8.353   5.657  1.3567  0.8584  0.7358
 3570SOL    HW221930   4.418   8.339   5.818 -0.7436 -2.5040  0.7071
 3571SOL     OW21931   1.033   1.463   1.371 -0.0112 -0.5157 -0.1229
 3571SOL    HW121932   0.999   1.439   1.462 -0.5437  0.9185  0.0705
 3571SOL    HW221933   0.982   1.541   1.335  2.5224  1.2300 -0.1413
 3572SOL     OW21934   0.217   7.483   4.338  0.1842 -0.0020 -0.0502
 3572SOL    HW121935   0.129   7.437   4.352  0.4252  0.2227  2.3537
 3572SOL    HW221936   0.206   7.581   4.352  0.7800  0.0435  0.1145
 3573SOL     OW21937   4.354   0.404   2.140 -0.1168 -0.1171  0.4088
 3573SOL    HW121938   4.374   0.476   2.073  1.4388  0.0105  0.9892
 3573SOL    HW221939   4.258   0.409   2.167 -0.5629  0.3490 -1.2010
 3574SOL     OW21940   0.637   3.027   6.257 -0.3093 -0.1348 -0.0228
 3574SOL    HW121941   0.710   2.989   6.200  0.4441  2.5397 -0.8875
 3574SOL    HW221942   0.676   3.061   6.343 -0.7328  0.2473  0.0193
 3575SOL     OW21943   2.751   2.858   1.043 -0.5857  0.3295 -0.4667
 3575SOL    HW121944   2.843   2.849   1.081 -0.8846 -1.2081 -0.0660
 3575SOL    HW221945   2.749   2.815   0.952 -0.5217  1.7413 -1.1489
 3576SOL     OW21946   2.205   0.197   1.224 -0.6842  0.0420  0.0582
 3576SOL    HW121947   2.137   0.139   1.180  1.8992 -1.8767 -1.5390
 3576SOL    HW221948   2.296   0.157   1.212  0.8069  2.7653  1.7442
 3577SOL     OW21949   5.715   8.732   4.745 -0.0644  0.5920 -0.1690
 3577SOL    HW121950   5.676   8.647   4.779 -0.5265  1.2433  0.9418
 3577SOL    HW221951   5.744   8.789   4.822 -0.1728  1.6379 -0.8906
 3578SOL     OW21952   9.876   3.217   2.629  0.0872  0.1175  0.0639
 3578SOL    HW121953   9.863   3.126   2.590 -0.7927 -0.8753  2.5638
 3578SOL    HW221954   9.799   3.275   2.601 -1.5589 -1.1383  1.7864
 3579SOL     OW21955   8.666   5.942   5.184 -0.0798  0.2590 -0.4697
 3579SOL    HW121956   8.748   5.926   5.129 -1.1877  1.4650 -2.5184
 3579SOL    HW221957   8.687   6.006   5.257  1.3071 -1.0612  0.3339
 3580SOL     OW21958   2.260   0.585   5.961 -0.2268 -0.1842  0.0851
 3580SOL    HW121959   2.243   0.517   5.890 -0.1229  2.1033 -2.1971
 3580SOL    HW221960   2.194   0.573   6.035 -0.8151 -2.1292 -0.7266
 3581SOL     OW21961   7.900   0.593   6.531  0.4517 -0.4353 -0.0269
 3581SOL    HW121962   7.974   0.660   6.538  0.6160 -0.3293 -2.3941
 3581SOL    HW221963   7.910   0.526   6.604  2.8847 -0.3995 -0.2575
 3582SOL     OW21964   2.299   9.085   4.617 -0.3739 -0.5575  0.9593
 3582SOL    HW121965   2.353   9.138   4.682 -1.0514 -0.1211  1.1632
 3582SOL    HW221966   2.206   9.122   4.611 -0.6392 -1.2662  0.5624
 3583SOL     OW21967   3.398   6.276   2.182  0.4370 -0.1161  0.0172
 3583SOL    HW121968   3.439   6.271   2.273  2.2044 -1.7138 -0.8402
 3583SOL    HW221969   3.417   6.192   2.131  0.1459  1.0446 -2.1091
 3584SOL     OW21970   7.819   7.834   3.304 -0.3727 -0.1588 -0.1748
 3584SOL    HW121971   7.755   7.879   3.366 -0.4368 -0.9219  0.3146
 3584SOL    HW221972   7.769   7.782   3.235 -0.2774 -1.1327  0.4882
 3585SOL     OW21973   0.651   9.190   2.657  0.1934  0.0013 -0.1799
 3585SOL    HW121974   0.707   9.111   2.684 -0.1925 -0.2714 -0.1666
 3585SOL    HW221975   0.559   9.159   2.632  0.2188  0.3818 -0.7504
 3586SOL     OW21976   5.792   8.982   2.201  0.0028  0.0217 -0.2729
 3586SOL    HW121977   5.830   8.957   2.290 -0.0820 -0.2869 -0.3205
 3586SOL    HW221978   5.699   8.946   2.194 -0.8680  2.0669  0.4511
 3587SOL     OW21979   3.176   1.275   4.275  0.2142  0.1375  0.2205
 3587SOL    HW121980   3.204   1.370   4.290  1.6759 -0.2946  0.2779
 3587SOL    HW221981   3.103   1.253   4.339  1.0532  0.7086  1.4037
 3588SOL     OW21982   5.524   7.805   2.217  0.0824  0.8340  0.2824
 3588SOL    HW121983   5.570   7.717   2.223 -0.1713  0.6271 -0.8099
 3588SOL    HW221984   5.591   7.879   2.220  0.3711  0.5748  0.1435
 3589SOL     OW21985   8.559   9.074   0.642 -0.4128  0.0186  0.6156
 3589SOL    HW121986   8.643   9.125   0.655 -2.7391  3.9231  1.2449
 3589SOL    HW221987   8.534   9.075   0.545 -0.1805 -0.4283  0.5489
 3590SOL     OW21988   2.631   7.471   2.463  0.0536  0.2579 -0.0201
 3590SOL    HW121989   2.557   7.436   2.404  0.0829 -1.0965  0.7304
 3590SOL    HW221990   2.666   7.397   2.519  1.2863  1.1457  0.3863
 3591SOL     OW21991   0.277   7.148   3.680  0.3518 -0.6616  0.5583
 3591SOL    HW121992   0.318   7.155   3.589  0.3074  2.5735  0.7199
 3591SOL    HW221993   0.183   7.181   3.676  0.6423  0.3756  1.9497
 3592SOL     OW21994   0.223   4.244   4.852  0.2857 -0.2449  0.4121
 3592SOL    HW121995   0.219   4.344   4.842 -0.6137 -0.5725 -2.9976
 3592SOL    HW221996   0.139   4.213   4.897  0.7030  0.5258  1.7759
 3593SOL     OW21997   9.692   1.271   6.657 -0.7128  0.0322  0.1269
 3593SOL    HW121998   9.787   1.249   6.676 -0.1573  1.5773 -0.7364
 3593SOL    HW221999   9.665   1.234   6.568 -0.8118 -0.0983  0.2108
 3594SOL     OW22000   8.712   8.797   4.171 -0.1498 -0.0099 -0.0810
 3594SOL    HW122001   8.656   8.775   4.091  0.1778 -0.8410 -0.0887
 3594SOL    HW222002   8.686   8.738   4.248 -0.8078  1.1323  0.5875
 3595SOL     OW22003   2.866   5.494   2.108 -0.2834 -0.7308 -0.2552
 3595SOL    HW122004   2.818   5.527   2.027 -0.5157  0.4409  0.3442
 3595SOL    HW222005   2.836   5.401   2.129 -2.7762  0.1808  0.4464
 3596SOL     OW22006   4.814   3.222   5.254  0.4522  0.3393  0.1604
 3596SOL    HW122007   4.847   3.250   5.344  0.5700  1.8337 -0.3446
 3596SOL    HW222008   4.858   3.276   5.183 -0.2111 -0.3038 -0.7605
 3597SOL     OW22009   1.217   5.713   2.482 -0.3744  0.4367  0.7257
 3597SOL    HW122010   1.224   5.788   2.417  2.6223 -0.1052  0.3526
 3597SOL    HW222011   1.122   5.706   2.515 -1.5061  1.9762 -2.0327
 3598SOL     OW22012   0.444   1.589   4.245 -0.2914  0.0987  0.1139
 3598SOL    HW122013   0.410   1.615   4.335 -1.7049 -0.2411 -0.3139
 3598SOL    HW222014   0.368   1.555   4.189  0.4774  0.7572 -1.3670
 3599SOL     OW22015   3.093   7.181   1.953 -0.0100  0.0309 -0.0606
 3599SOL    HW122016   3.088   7.132   2.040  1.2531 -0.9778 -0.5556
 3599SOL    HW222017   3.188   7.195   1.927 -0.3491  1.9422 -0.3896
 3600SOL     OW22018   9.481   8.896   1.277  0.4710 -0.3640  0.3582
 3600SOL    HW122019   9.418   8.934   1.344 -0.2375  0.3393 -0.6955
 3600SOL    HW222020   9.568   8.874   1.322 -0.3895 -1.0389  1.7551
 3601SOL     OW22021   9.836   1.528   6.710 -0.4602 -0.0953 -0.4915
 3601SOL    HW122022   9.765   1.485   6.656 -0.7695 -1.2054  0.7672
 3601SOL    HW222023   9.801   1.613   6.749 -0.7266 -0.0717 -0.7820
 3602SOL     OW22024   8.093   1.206   3.687 -0.1155 -0.6910  0.3959
 3602SOL    HW122025   8.072   1.116   3.650  0.9268 -1.4273  1.5588
 3602SOL    HW222026   8.043   1.220   3.773 -0.1316 -0.2363  0.3154
 3603SOL     OW22027   8.597   2.645   1.641 -0.2706  0.6323  0.0848
 3603SOL    HW122028   8.594   2.739   1.608 -2.9935  0.7237  0.4622
 3603SOL    HW222029   8.540   2.587   1.582 -3.5144  0.4222  3.2422
 3604SOL     OW22030   4.012   4.415   4.563 -0.2089 -0.9543  0.3393
 3604SOL    HW122031   3.921   4.377   4.580 -0.4733 -0.2024  0.6395
 3604SOL    HW222032   4.007   4.515   4.562  0.1659 -0.9281 -2.1906
 3605SOL     OW22033   3.320   0.294   3.476  0.1115  0.0087 -0.1100
 3605SOL    HW122034   3.270   0.230   3.417 -0.9173  1.1404 -0.4750
 3605SOL    HW222035   3.410   0.312   3.435 -0.2057  0.0041 -0.8214
 3606SOL     OW22036   8.803   9.884   4.261  0.1905  0.2395  0.0939
 3606SOL    HW122037   8.719   9.918   4.303 -0.8439 -1.5894 -0.4068
 3606SOL    HW222038   8.796   9.785   4.249  1.0100  0.4982 -3.0484
 3607SOL     OW22039   8.475   2.052   6.413  0.7891  0.2697  0.4132
 3607SOL    HW122040   8.526   2.052   6.327 -0.7079 -0.8185 -0.4860
 3607SOL    HW222041   8.492   2.138   6.462  1.1196  1.1688 -1.2672
 3608SOL     OW22042   8.206   6.845   0.833 -0.2971  0.8220  0.5353
 3608SOL    HW122043   8.212   6.847   0.733 -0.6752  0.8413  0.5107
 3608SOL    HW222044   8.236   6.932   0.870 -1.5264  1.3306  0.3581
 3609SOL     OW22045   2.901   2.571   2.279 -0.6390  0.3365  0.1214
 3609SOL    HW122046   2.816   2.527   2.250  0.3224 -0.2144 -1.9029
 3609SOL    HW222047   2.972   2.557   2.210  1.2465  0.3868  1.9894
 3610SOL     OW22048   7.209   8.212   2.807  0.0337  0.5939  0.1993
 3610SOL    HW122049   7.152   8.214   2.889 -1.3633 -0.0042 -0.7398
 3610SOL    HW222050   7.214   8.303   2.767 -0.7638  0.5386 -0.0371
 3611SOL     OW22051   3.912   8.833   2.385 -0.5196  0.6251  0.2313
 3611SOL    HW122052   3.983   8.868   2.447  1.0528 -1.5121 -0.2749
 3611SOL    HW222053   3.823   8.871   2.410  0.0143 -0.4646  4.0410
 3612SOL     OW22054   2.265   1.373   0.474 -0.3606  0.0718 -0.3423
 3612SOL    HW122055   2.263   1.286   0.524 -0.7590  1.1661  1.6195
 3612SOL    HW222056   2.332   1.367   0.400  0.6187 -1.4700  0.6238
 3613SOL     OW22057   2.630   8.630   0.582  0.1218 -0.1895 -0.1742
 3613SOL    HW122058   2.713   8.579   0.603 -0.1045 -0.0907  1.0052
 3613SOL    HW222059   2.651   8.703   0.517  1.5090  1.4924  2.0987
 3614SOL     OW22060   2.238   8.801   4.704  0.2259  0.4513 -0.7993
 3614SOL    HW122061   2.334   8.778   4.723 -0.0406 -0.6127 -0.6803
 3614SOL    HW222062   2.233   8.891   4.662  1.1977  0.9687  0.1578
 3615SOL     OW22063   1.527   3.323   3.259 -0.3315 -0.5086 -0.0936
 3615SOL    HW122064   1.515   3.376   3.175 -0.3751  0.5367  0.5602
 3615SOL    HW222065   1.538   3.226   3.237 -1.4266 -0.3777 -1.2234
 3616SOL     OW22066   2.546   1.943   5.711 -0.1412  0.3230 -0.5791
 3616SOL    HW122067   2.555   1.975   5.806  1.0004  3.5684 -1.6945
 3616SOL    HW222068   2.455   1.905   5.697 -1.3106  2.3320  1.1484
 3617SOL     OW22069   2.556   5.833   2.393 -0.3919 -0.0420 -0.1475
 3617SOL    HW122070   2.538   5.914   2.337 -0.5167 -0.6135 -0.9561
 3617SOL    HW222071   2.557   5.858   2.489 -1.0109  0.8163 -0.3586
 3618SOL     OW22072   7.728   0.948   2.423  0.1853  0.2073 -0.8060
 3618SOL    HW122073   7.694   0.950   2.517  0.7352  0.3462 -0.6093
 3618SOL    HW222074   7.701   0.862   2.379  0.4955 -0.1407 -0.3104
 3619SOL     OW22075   3.656   3.240   4.521 -0.4644 -0.2292  0.1694
 3619SOL    HW122076   3.697   3.320   4.563 -2.4050  0.5982  0.5377
 3619SOL    HW222077   3.568   3.264   4.481  0.1196 -1.5868 -2.0685
 3620SOL     OW22078   7.248   4.285   0.958  0.2343  0.7126  0.5701
 3620SOL    HW122079   7.254   4.207   0.897  2.3623 -0.0528  1.7017
 3620SOL    HW222080   7.336   4.332   0.962 -0.3852  1.8257  1.6337
 3621SOL     OW22081   2.100   4.453   0.831 -0.2882  0.7459 -0.1495
 3621SOL    HW122082   2.194   4.417   0.834 -0.1103  1.1854 -0.3990
 3621SOL    HW222083   2.101   4.551   0.853 -0.8492  0.4690  1.1659
 3622SOL     OW22084   6.687   8.267   2.412 -0.3478 -0.0563  0.7125
 3622SOL    HW122085   6.700   8.355   2.367  0.5605 -0.2023  0.6764
 3622SOL    HW222086   6.706   8.276   2.510 -0.6437 -0.1259  0.7785
 3623SOL     OW22087   3.004   3.602   1.127 -0.2115 -0.2125 -0.0549
 3623SOL    HW122088   3.012   3.529   1.194 -0.8324  0.7843  1.1360
 3623SOL    HW222089   2.913   3.598   1.084 -0.8478  0.7993  1.1592
 3624SOL     OW22090   0.777   6.700   4.701  0.3718  0.2445 -0.7849
 3624SOL    HW122091   0.682   6.724   4.678  0.5319  0.6673 -1.0145
 3624SOL    HW222092   0.803   6.745   4.786 -0.1715 -1.2011  0.1665
 3625SOL     OW22093   1.441   6.052   3.850  0.4188 -0.0457  0.2311
 3625SOL    HW122094   1.503   6.123   3.817 -0.7381  1.1919  0.6993
 3625SOL    HW222095   1.361   6.094   3.892  0.1602 -1.6178  1.3684
 3626SOL     OW22096   2.008   3.265   0.623  0.4873 -0.0645 -0.1938
 3626SOL    HW122097   1.989   3.168   0.639  0.5626 -0.1546 -0.6504
 3626SOL    HW222098   2.107   3.278   0.618  0.6930  0.6757  3.9694
 3627SOL     OW22099   0.606   7.474   0.119  0.6079 -0.3871 -0.0245
 3627SOL    HW122100   0.569   7.567   0.126 -0.8562 -0.8493 -1.2139
 3627SOL    HW222101   0.690   7.476   0.065  0.8777  0.3255  0.4184
 3628SOL     OW22102   0.802   0.667   0.059  0.5251  0.1516 -0.4462
 3628SOL    HW122103   0.709   0.663   0.023  0.9432  0.9688 -1.6324
 3628SOL    HW222104   0.848   0.580   0.039 -0.5917 -1.0041  1.8654
 3629SOL     OW22105   2.275   2.541   0.842 -0.5117  0.0240 -0.6164
 3629SOL    HW122106   2.339   2.565   0.769  0.7486  1.7488  0.9790
 3629SOL    HW222107   2.194   2.599   0.835  0.4179  1.4989  0.3899
 3630SOL     OW22108   2.071   1.081   3.114 -0.3343  0.0796  0.0146
 3630SOL    HW122109   2.044   1.008   3.051 -0.6655 -1.0509  1.4342
 3630SOL    HW222110   2.030   1.168   3.084  2.5279  0.3397 -3.4047
 3631SOL     OW22111   2.427   0.818   6.482 -0.1757  0.0243 -0.1686
 3631SOL    HW122112   2.425   0.718   6.473 -0.6988  0.0488 -0.3627
 3631SOL    HW222113   2.522   0.849   6.488  0.0522 -0.3733 -1.4886
 3632SOL     OW22114   0.670   1.522   3.327  0.1873  0.7455 -0.4130
 3632SOL    HW122115   0.691   1.425   3.316  0.7613  0.9225 -0.9763
 3632SOL    HW222116   0.713   1.557   3.410 -2.0129 -0.0252  1.0555
 3633SOL     OW22117   9.789   4.241   4.085  0.5922  0.8147 -0.2062
 3633SOL    HW122118   9.807   4.161   4.142 -0.0354  0.2984 -0.7276
 3633SOL    HW222119   9.729   4.304   4.135  2.6062  1.8582  0.9490
 3634SOL     OW22120   0.688   7.673   6.196  0.2569 -0.2729  0.5530
 3634SOL    HW122121   0.618   7.690   6.265 -3.1980  0.9054 -3.0208
 3634SOL    HW222122   0.730   7.584   6.211 -1.4199 -0.6524  3.2703
 3635SOL     OW22123   5.461   1.201   5.654  0.0056  0.1782 -0.0068
 3635SOL    HW122124   5.401   1.137   5.606  2.3121 -0.6009 -1.9606
 3635SOL    HW222125   5.478   1.167   5.747 -1.1098 -0.5015 -0.0326
 3636SOL     OW22126   9.708   1.911   1.196 -0.3415  0.3422 -0.2863
 3636SOL    HW122127   9.638   1.857   1.150 -0.1549  2.2678 -2.9130
 3636SOL    HW222128   9.721   1.997   1.148  2.3277  0.9520  1.4200
 3637SOL     OW22129   3.346   5.077   0.587  0.4615  0.1361  0.0920
 3637SOL    HW122130   3.402   5.023   0.650 -0.6162  0.2008  1.1170
 3637SOL    HW222131   3.260   5.029   0.570  0.3244  0.6029 -0.5642
 3638SOL     OW22132   4.707   0.228   0.838  0.3288 -0.4074 -0.6059
 3638SOL    HW122133   4.693   0.134   0.806  1.1541 -0.6181 -0.3631
 3638SOL    HW222134   4.633   0.286   0.804 -0.7315 -1.3412  0.0470
 3639SOL     OW22135   7.741   1.601   4.294  0.1618  0.2859 -0.3740
 3639SOL    HW122136   7.695   1.562   4.214  2.8406 -0.7099 -1.4808
 3639SOL    HW222137   7.734   1.701   4.291 -4.1837  0.1275  0.9141
 3640SOL     OW22138   6.480   1.607   4.334  0.3440 -0.2279 -0.5651
 3640SOL    HW122139   6.388   1.642   4.350  0.8114 -0.1508  2.0601
 3640SOL    HW222140   6.482   1.560   4.245 -2.5415 -1.3218 -0.1078
 3641SOL     OW22141   9.510   4.569   2.610  0.2049 -0.4372 -0.6260
 3641SOL    HW122142   9.601   4.536   2.635 -0.1625 -0.4894  0.7062
 3641SOL    HW222143   9.486   4.537   2.519  0.3235 -2.8742  0.1679
 3642SOL     OW22144   8.923   6.406   4.621 -0.1557 -0.2550 -0.2378
 3642SOL    HW122145   8.858   6.361   4.681 -2.5753  1.3104 -1.5953
 3642SOL    HW222146   8.928   6.356   4.534 -0.4255  0.2564 -0.5521
 3643SOL     OW22147   8.060   9.388   1.464 -0.1119 -0.0945 -0.3497
 3643SOL    HW122148   8.150   9.404   1.502 -0.2078 -1.5215  0.4963
 3643SOL    HW222149   8.030   9.469   1.413  1.5302  0.4634 -0.4340
 3644SOL     OW22150   4.506   4.430   0.531 -0.3176  0.0050 -0.2818
 3644SOL    HW122151   4.424   4.425   0.474 -0.0580 -1.5691 -0.5292
 3644SOL    HW222152   4.496   4.369   0.610 -1.5222  3.6188  2.5269
 3645SOL     OW22153   9.496   9.877   0.547  0.0853  0.1738 -0.1378
 3645SOL    HW122154   9.579   9.824   0.530  0.6001  0.8519  0.2169
 3645SOL    HW222155   9.467   9.921   0.462  0.8232  0.9680  0.0197
 3646SOL     OW22156   0.555   0.487   3.523  0.0365  0.7583 -0.0608
 3646SOL    HW122157   0.590   0.501   3.615  0.6152  0.8020 -0.2873
 3646SOL    HW222158   0.604   0.413   3.478 -0.6752  0.3110 -0.1123
 3647SOL     OW22159   0.326   3.943   6.712 -0.1829  0.2141 -0.2694
 3647SOL    HW122160   0.259   3.878   6.677 -0.3645  0.4486 -0.3534
 3647SOL    HW222161   0.396   3.894   6.764 -0.7634  0.0427  0.3502
 3648SOL     OW22162   0.772   5.214   2.930 -0.2325  0.1209 -0.0964
 3648SOL    HW122163   0.840   5.247   2.995 -2.0360  1.9780  0.9065
 3648SOL    HW222164   0.786   5.116   2.913  0.6321 -0.2597  2.6292
 3649SOL     OW22165   3.018   3.525   2.959  0.4186 -0.9226  0.2885
 3649SOL    HW122166   3.041   3.453   2.894 -1.3400  0.1739 -1.6334
 3649SOL    HW222167   3.087   3.529   3.031  3.9452 -0.4470 -2.9666
 3650SOL     OW22168   7.781   2.199   6.584 -0.2880  0.0650 -0.3914
 3650SOL    HW122169   7.837   2.138   6.528  1.2977  0.5227  0.6860
 3650SOL    HW222170   7.756   2.280   6.530  0.8161  0.2716 -0.6091
 3651SOL     OW22171   0.038   3.942   4.504  0.3840 -0.3272 -0.1756
 3651SOL    HW122172   0.059   4.039   4.513 -1.5394  0.1679 -0.6352
 3651SOL    HW222173   0.108   3.897   4.449  0.6063  1.0756 -1.0629
 3652SOL     OW22174   4.234   3.528   2.903 -0.1466  0.0412  0.4162
 3652SOL    HW122175   4.179   3.592   2.849 -0.7263  0.6972  1.7405
 3652SOL    HW222176   4.260   3.450   2.847  0.0239  1.1228 -1.0555
 3653SOL     OW22177   9.219   7.512   6.410 -0.2799  0.2343 -0.4194
 3653SOL    HW122178   9.209   7.564   6.495  2.5215  4.3736 -2.5109
 3653SOL    HW222179   9.135   7.521   6.355 -0.8384  0.2349  0.4246
 3654SOL     OW22180   0.193   0.474   2.116  0.7719  0.0593 -0.1006
 3654SOL    HW122181   0.142   0.512   2.193 -3.0376  0.2963 -2.6463
 3654SOL    HW222182   0.178   0.531   2.035  2.8696 -1.4692 -1.6122
 3655SOL     OW22183   8.917   7.503   1.694  0.0237  0.0004  0.2095
 3655SOL    HW122184   8.969   7.588   1.696  0.2012 -0.1288  1.4032
 3655SOL    HW222185   8.851   7.502   1.770 -0.8374 -0.3808 -0.5350
 3656SOL     OW22186   9.474   3.861   0.799  0.2779 -0.7384 -0.3481
 3656SOL    HW122187   9.418   3.799   0.855  1.6321 -3.1097 -1.5273
 3656SOL    HW222188   9.571   3.841   0.815  0.7060  0.3614 -1.5521
 3657SOL     OW22189   4.938   8.517   4.925  0.3177 -0.2492  0.4319
 3657SOL    HW122190   4.892   8.594   4.969 -0.7604 -0.8785  0.4085
 3657SOL    HW222191   4.936   8.528   4.826  0.3036 -0.2333  0.4342
 3658SOL     OW22192   2.556   3.546   1.179 -0.1661  0.3995  0.4386
 3658SOL    HW122193   2.476   3.587   1.135 -0.1476  0.3064  0.3144
 3658SOL    HW222194   2.573   3.589   1.267  0.5473  1.4525 -0.2015
 3659SOL     OW22195   9.824   2.137   1.761 -0.7296  0.4384 -0.1829
 3659SOL    HW122196   9.816   2.142   1.860 -2.4823 -0.4445 -0.2592
 3659SOL    HW222197   9.836   2.041   1.733 -0.1215  0.6946 -0.8107
 3660SOL     OW22198   4.315   9.034   5.251  0.2243  0.2530 -0.1555
 3660SOL    HW122199   4.373   9.032   5.332  0.6203  1.9188 -0.3634
 3660SOL    HW222200   4.370   9.065   5.172 -0.9327  1.9311 -0.3388
 3661SOL     OW22201   5.492   6.958   2.470 -0.2347  0.3857 -0.5000
 3661SOL    HW122202   5.483   7.027   2.542  0.3060  0.6360 -0.6678
 3661SOL    HW222203   5.485   6.867   2.510  0.4091  0.5194 -0.0783
 3662SOL     OW22204   1.589   0.006   2.661  0.3319 -0.3287  0.0370
 3662SOL    HW122205   1.629  -0.079   2.628 -0.4492  0.0331 -1.9567
 3662SOL    HW222206   1.490  -0.004   2.667  0.1151  0.7519 -1.3235
 3663SOL     OW22207   4.478   4.952   2.064 -0.4118  0.6616 -0.1662
 3663SOL    HW122208   4.440   4.970   1.973  0.5709 -0.4682 -0.8052
 3663SOL    HW222209   4.529   5.032   2.095  1.1127  0.2396 -1.5508
 3664SOL     OW22210   0.322   1.719   1.734  0.2599  0.0904 -0.3999
 3664SOL    HW122211   0.292   1.802   1.687  0.7485  1.3849  1.5102
 3664SOL    HW222212   0.242   1.664   1.759 -0.1459  0.5717 -0.6299
 3665SOL     OW22213   1.957   6.675   2.643  0.3621  0.1044 -0.3024
 3665SOL    HW122214   1.867   6.713   2.664  0.1664  2.0606 -4.2093
 3665SOL    HW222215   2.021   6.699   2.716 -2.4632 -2.4301  3.2076
 3666SOL     OW22216   9.289   9.813   0.740 -0.0729  0.0762  0.1828
 3666SOL    HW122217   9.222   9.887   0.749  0.1887  0.3173  0.1555
 3666SOL    HW222218   9.346   9.829   0.659  0.2501  0.0629  0.4057
 3667SOL     OW22219   9.458   4.877   5.997 -0.7957  0.0492 -0.7838
 3667SOL    HW122220   9.523   4.871   5.921  0.1698  0.3483  0.0171
 3667SOL    HW222221   9.463   4.793   6.051 -2.1459 -0.5589 -1.5653
 3668SOL     OW22222   3.972   5.881   1.363 -0.2107  0.0355 -0.0725
 3668SOL    HW122223   3.945   5.801   1.416  1.8291 -0.4029  0.3320
 3668SOL    HW222224   3.949   5.964   1.414 -1.0064 -0.3211  0.1468
 3669SOL     OW22225   4.657   0.724   5.559 -0.4915  0.1688 -0.0429
 3669SOL    HW122226   4.643   0.660   5.483 -1.7392 -1.3892  1.4647
 3669SOL    HW222227   4.644   0.818   5.526 -1.2126 -0.4803 -1.7035
 3670SOL     OW22228   7.447   0.231   6.154 -0.6762  0.1943  0.3330
 3670SOL    HW122229   7.406   0.144   6.183 -0.2160  0.0324  0.4972
 3670SOL    HW222230   7.487   0.277   6.233 -0.3454  0.2530  0.1292
 3671SOL     OW22231   4.492   2.963   4.634  0.3365  0.4549  0.0477
 3671SOL    HW122232   4.514   2.935   4.541  0.5291  1.1342 -0.1132
 3671SOL    HW222233   4.576   2.974   4.686  0.2705  0.8808  0.0663
 3672SOL     OW22234   3.835   2.273   2.068  0.3566  0.1180 -0.3817
 3672SOL    HW122235   3.822   2.176   2.088 -0.2606  0.4434  0.8522
 3672SOL    HW222236   3.912   2.308   2.121 -0.7028  0.7677  0.7757
 3673SOL     OW22237   0.164   5.676   4.572  0.4157  0.1652 -0.1314
 3673SOL    HW122238   0.111   5.756   4.544 -2.4810 -2.2862 -2.1427
 3673SOL    HW222239   0.122   5.635   4.653  1.5466  0.4019  0.5665
 3674SOL     OW22240   5.227   9.708   1.045  0.4698  0.2238  0.1209
 3674SOL    HW122241   5.146   9.701   1.103 -0.7771  1.4550 -1.4127
 3674SOL    HW222242   5.220   9.642   0.970  0.9890  0.1865  0.1065
 3675SOL     OW22243   7.654   1.498   5.295  0.0690 -0.6135 -0.4979
 3675SOL    HW122244   7.702   1.579   5.328  0.0420  0.4090 -2.8098
 3675SOL    HW222245   7.720   1.426   5.273 -0.0550 -2.1153  3.7118
 3676SOL     OW22246   0.376   3.519   1.410  0.4133 -0.5289  0.2748
 3676SOL    HW122247   0.406   3.580   1.484 -0.0012  0.1725 -0.1280
 3676SOL    HW222248   0.283   3.488   1.429  0.1657 -0.0469 -0.1375
 3677SOL     OW22249   2.197   8.822   5.978  0.3910 -0.3027  0.1270
 3677SOL    HW122250   2.275   8.767   5.947  0.6752 -1.0983  2.1162
 3677SOL    HW222251   2.115   8.764   5.981 -0.1803  0.4157 -1.5351
 3678SOL     OW22252   1.894   4.550   3.285 -0.0631  0.0325 -0.6894
 3678SOL    HW122253   1.990   4.563   3.309  0.1330 -0.7879 -1.0085
 3678SOL    HW222254   1.842   4.527   3.368 -0.6117  3.6576  0.0835
 3679SOL     OW22255   1.665   4.460   0.736  0.6625  0.0317  0.2088
 3679SOL    HW122256   1.602   4.388   0.765  0.4678 -0.5474 -1.6103
 3679SOL    HW222257   1.679   4.455   0.637  1.7377  1.6251  0.2556
 3680SOL     OW22258   0.276   0.419   0.796 -0.5469  0.1488 -0.1939
 3680SOL    HW122259   0.367   0.413   0.835 -0.3211 -1.3287 -0.8789
 3680SOL    HW222260   0.281   0.401   0.697 -1.6232 -0.3938 -0.1575
 3681SOL     OW22261   7.505   1.988   1.760  0.5050  0.2430 -0.7148
 3681SOL    HW122262   7.596   1.985   1.720 -0.1175  0.1298 -2.1522
 3681SOL    HW222263   7.444   1.926   1.710 -0.2597 -0.0163  0.5011
 3682SOL     OW22264   2.179   4.362   1.323 -0.2513  0.5402  0.1980
 3682SOL    HW122265   2.198   4.327   1.414 -2.3340  1.0529  0.8721
 3682SOL    HW222266   2.242   4.321   1.257  0.8667 -0.3052  1.7664
 3683SOL     OW22267   8.982   8.569   3.466 -0.0695  0.3616 -0.2883
 3683SOL    HW122268   8.913   8.504   3.434  0.6563 -0.1331 -0.8707
 3683SOL    HW222269   8.996   8.558   3.564 -0.7454  0.4031 -0.1810
 3684SOL     OW22270   9.221   4.090   1.963  0.3627  0.0204  0.5125
 3684SOL    HW122271   9.176   4.087   1.873 -1.6445 -0.5194  1.5021
 3684SOL    HW222272   9.271   4.005   1.978 -0.9544 -0.7302  0.7164
 3685SOL     OW22273   2.977   2.547   6.130 -0.0727  0.3500 -0.0713
 3685SOL    HW122274   2.898   2.512   6.181  0.0421  0.0214 -0.1211
 3685SOL    HW222275   3.057   2.550   6.190  0.3244 -1.0271 -0.5015
 3686SOL     OW22276   0.078   5.557   4.831 -0.0385 -0.3625  0.3045
 3686SOL    HW122277   0.119   5.580   4.920  0.3340 -0.1454  0.0781
 3686SOL    HW222278   0.022   5.475   4.841 -0.9838  0.3541  1.0152
 3687SOL     OW22279   9.820   8.733   3.789 -0.1877 -0.1421 -0.4319
 3687SOL    HW122280   9.794   8.776   3.876  2.9297 -0.4437  0.7383
 3687SOL    HW222281   9.761   8.654   3.772 -1.1738  0.2173  1.1778
 3688SOL     OW22282   8.460   7.195   3.968  0.4482  0.5885 -0.1068
 3688SOL    HW122283   8.536   7.173   4.029  0.1952 -0.3335 -0.1125
 3688SOL    HW222284   8.398   7.259   4.015  1.4269  1.6475 -0.2589
 3689SOL     OW22285   7.993   3.030   0.027 -0.3585  0.1770  0.7186
 3689SOL    HW122286   7.909   3.068   0.066  0.0802 -0.2048  2.0564
 3689SOL    HW222287   8.062   3.021   0.099  0.9537  0.8255 -0.4415
 3690SOL     OW22288   9.781   3.752   1.859  0.3262 -0.1559  0.1077
 3690SOL    HW122289   9.827   3.829   1.903  0.7350 -0.0182 -0.5599
 3690SOL    HW222290   9.682   3.760   1.872  0.3683  0.4715  0.0512
 3691SOL     OW22291   8.079   7.407   5.822 -0.1109 -0.1576 -0.1611
 3691SOL    HW122292   8.025   7.490   5.812 -0.0702  0.0630  1.3206
 3691SOL    HW222293   8.168   7.429   5.861  0.4823 -0.7136 -1.1791
 3692SOL     OW22294   0.727   9.326   6.615 -0.1116 -0.2690 -0.8583
 3692SOL    HW122295   0.777   9.311   6.529  0.0336 -2.5580 -0.4102
 3692SOL    HW222296   0.629   9.323   6.597 -0.0977  1.4295 -1.2836
 3693SOL     OW22297   1.465   5.780   6.495  0.2522 -0.3048 -0.0043
 3693SOL    HW122298   1.391   5.799   6.561 -1.2005 -0.4006 -1.5739
 3693SOL    HW222299   1.536   5.727   6.540  0.2231  1.3018  2.0386
 3694SOL     OW22300   8.924   2.800   1.353 -0.3022 -0.1978 -0.6333
 3694SOL    HW122301   8.878   2.711   1.359 -2.4813  0.9249 -0.2065
 3694SOL    HW222302   8.933   2.839   1.444 -1.9466  1.2875 -1.0898
 3695SOL     OW22303   8.527   4.053   3.153  0.0241  0.4320  0.0848
 3695SOL    HW122304   8.468   3.973   3.168 -0.6252  0.9120  0.0877
 3695SOL    HW222305   8.471   4.133   3.134  0.5947  1.2796  1.8415
 3696SOL     OW22306   0.871   9.079   3.717  0.1071 -0.6364  0.0605
 3696SOL    HW122307   0.907   9.153   3.775 -1.0659  0.1878 -0.2644
 3696SOL    HW222308   0.944   9.013   3.699  1.7813  1.5414 -1.4307
 3697SOL     OW22309   4.588   7.802   1.984  0.1320 -0.3289 -0.4249
 3697SOL    HW122310   4.507   7.859   1.972  0.3237 -0.0345 -0.3299
 3697SOL    HW222311   4.598   7.740   1.905  0.4647  0.4422 -0.9884
 3698SOL     OW22312   5.112   1.267   2.762  0.2106 -0.0951  0.0770
 3698SOL    HW122313   5.141   1.172   2.765 -0.3364 -0.2758 -0.2433
 3698SOL    HW222314   5.012   1.272   2.760  0.1810  0.5381  1.9071
 3699SOL     OW22315   7.824   3.769   0.938  0.4428 -0.4544 -0.1674
 3699SOL    HW122316   7.812   3.775   1.037  1.3621 -1.1630 -0.0002
 3699SOL    HW222317   7.778   3.846   0.894 -0.0995 -0.2169  0.7968
 3700SOL     OW22318   3.692   3.027   4.353 -0.3827  0.1991 -0.0582
 3700SOL    HW122319   3.683   3.091   4.430  0.1166 -0.2494  0.3785
 3700SOL    HW222320   3.763   3.060   4.291  0.2578 -0.2019  0.4487
 3701SOL     OW22321   6.930   9.369   6.082 -0.4694  0.5727  0.3823
 3701SOL    HW122322   6.878   9.382   6.166  0.7171  2.4105  0.8564
 3701SOL    HW222323   6.950   9.458   6.041  1.3759 -0.1733 -0.3613
 3702SOL     OW22324   8.156   7.683   3.502 -0.1533  0.5154  0.1114
 3702SOL    HW122325   8.143   7.622   3.424  0.8474  2.9341 -2.0334
 3702SOL    HW222326   8.162   7.778   3.470  0.4155  1.5738  3.1291
 3703SOL     OW22327   3.965   7.498   3.864  0.4023  0.3406 -0.3623
 3703SOL    HW122328   3.914   7.544   3.937  1.4473  0.1854  0.4751
 3703SOL    HW222329   4.061   7.490   3.890  0.5628 -0.7692 -1.2518
 3704SOL     OW22330   6.173   0.835   3.189  0.3099 -0.4578  0.6080
 3704SOL    HW122331   6.128   0.874   3.109 -1.1333 -1.3838  0.9518
 3704SOL    HW222332   6.152   0.890   3.270 -1.2982 -1.5868  0.9982
 3705SOL     OW22333   0.764   8.444   2.278 -0.5512  0.0383  0.0481
 3705SOL    HW122334   0.863   8.447   2.262 -0.5650 -0.1543 -0.0879
 3705SOL    HW222335   0.717   8.470   2.194 -0.6157  0.2345  0.1454
 3706SOL     OW22336   9.642   6.147   4.965  0.0731  0.5660 -0.1097
 3706SOL    HW122337   9.603   6.080   5.028  1.4639 -1.1506 -0.9876
 3706SOL    HW222338   9.596   6.141   4.876  2.2627 -1.5542 -1.1878
 3707SOL     OW22339   1.804   1.973   2.598  0.2700  0.9169 -0.4652
 3707SOL    HW122340   1.829   2.006   2.689 -2.4116  1.4604  0.1250
 3707SOL    HW222341   1.719   1.921   2.604  1.3418 -1.1188 -2.3085
 3708SOL     OW22342   3.550   6.693   5.960 -0.4785 -0.6662  0.0535
 3708SOL    HW122343   3.476   6.749   5.997 -1.4460 -1.7828 -0.1364
 3708SOL    HW222344   3.627   6.692   6.024 -0.5570  0.6430  0.1748
 3709SOL     OW22345   4.188   2.248   5.310 -0.2644 -0.4443 -0.1493
 3709SOL    HW122346   4.215   2.231   5.216  0.0932  0.1034 -0.1510
 3709SOL    HW222347   4.131   2.173   5.343 -0.6297 -0.4990 -0.8935
 3710SOL     OW22348   3.626   2.744   6.085  0.3650  0.0888  0.3674
 3710SOL    HW122349   3.684   2.786   6.015 -0.0678  0.4213  0.2069
 3710SOL    HW222350   3.667   2.658   6.114  0.3348 -0.2693 -0.6148
 3711SOL     OW22351   6.938   8.143   3.723 -0.3118  0.7737  0.1295
 3711SOL    HW122352   6.938   8.075   3.796  1.1999  1.8255  1.1292
 3711SOL    HW222353   6.874   8.115   3.652 -0.1916 -1.3531  0.8304
 3712SOL     OW22354   7.519   1.097   0.486  0.0553 -0.7808  0.1842
 3712SOL    HW122355   7.525   1.058   0.394  1.4961  1.4184 -0.6995
 3712SOL    HW222356   7.447   1.167   0.487 -1.6166 -2.4838  1.4031
 3713SOL     OW22357   9.239   5.357   5.345 -0.2086  0.2395  0.0334
 3713SOL    HW122358   9.158   5.397   5.388  0.0522 -0.8614  1.6169
 3713SOL    HW222359   9.236   5.258   5.357  1.0172  0.1349 -0.5333
 3714SOL     OW22360   3.268   9.921   3.229  0.0340 -0.3618 -0.0870
 3714SOL    HW122361   3.226   9.997   3.279 -1.7193 -2.4277  1.6947
 3714SOL    HW222362   3.282   9.948   3.134 -0.8725  2.0639  0.4146
 3715SOL     OW22363   0.732   2.449   0.531 -0.1983  0.2490 -0.2098
 3715SOL    HW122364   0.781   2.536   0.527 -0.3729  0.3415 -0.3924
 3715SOL    HW222365   0.789   2.377   0.492  0.0137  0.2509  0.1014
 3716SOL     OW22366   7.916   2.012   6.404  0.3794 -0.1192  0.2744
 3716SOL    HW122367   8.014   2.018   6.385  0.5399 -1.1443  0.7328
 3716SOL    HW222368   7.894   1.919   6.436 -0.5241  0.4616  1.3700
 3717SOL     OW22369   8.337   6.262   0.164  0.0232  0.3834  0.0410
 3717SOL    HW122370   8.322   6.175   0.209 -0.8726  0.5637  0.1007
 3717SOL    HW222371   8.369   6.246   0.070 -0.7717 -0.0232 -0.1669
 3718SOL     OW22372   2.413   0.279   0.649  0.1337 -0.1715 -0.2734
 3718SOL    HW122373   2.487   0.344   0.665 -0.9298  1.4845 -1.7726
 3718SOL    HW222374   2.439   0.216   0.575  0.1358  0.3070 -0.6879
 3719SOL     OW22375   9.003   6.517   3.628 -0.5392  0.2764 -0.2038
 3719SOL    HW122376   8.952   6.584   3.575 -2.0094 -1.2567 -0.7713
 3719SOL    HW222377   8.977   6.523   3.724 -0.5927  0.5818 -0.2382
 3720SOL     OW22378   3.210   2.222   3.099 -0.3752 -0.2583 -0.1960
 3720SOL    HW122379   3.140   2.282   3.137 -0.2082 -0.4401  0.4084
 3720SOL    HW222380   3.213   2.137   3.151  0.2029 -0.3018 -0.2917
 3721SOL     OW22381   7.862   9.228   5.892  0.3622  0.2733 -0.2103
 3721SOL    HW122382   7.770   9.262   5.873  0.6378  0.6867 -0.8272
 3721SOL    HW222383   7.863   9.183   5.982 -0.5987 -0.3376 -0.4868
 3722SOL     OW22384   0.480   0.139   5.019  0.0002 -0.2759  0.3507
 3722SOL    HW122385   0.481   0.133   4.919 -1.9621 -2.0770  0.3967
 3722SOL    HW222386   0.436   0.057   5.056 -0.7581  1.1312  2.6241
 3723SOL     OW22387   3.442   7.729   1.034  0.5427  0.1523 -0.0325
 3723SOL    HW122388   3.480   7.728   1.127  1.6085  1.5821 -0.4277
 3723SOL    HW222389   3.430   7.635   1.002  0.9995 -0.3469  1.2209
 3724SOL     OW22390   0.443   5.190   2.307  0.8580  0.6022 -0.4118
 3724SOL    HW122391   0.344   5.208   2.304  1.0176  1.7249  0.8704
 3724SOL    HW222392   0.459   5.091   2.301 -0.4670  0.2129  2.0959
 3725SOL     OW22393   2.694   9.347   0.253 -0.1684 -0.4894 -0.2182
 3725SOL    HW122394   2.670   9.378   0.345 -1.6298  0.6706 -0.9783
 3725SOL    HW222395   2.740   9.259   0.259 -0.0704 -0.3308  1.6398
 3726SOL     OW22396   3.069   6.332   1.783 -0.2786  0.1480  0.4564
 3726SOL    HW122397   3.099   6.350   1.877  2.4141  3.0009 -0.8419
 3726SOL    HW222398   3.120   6.254   1.747  0.2988  0.4393  0.6363
 3727SOL     OW22399   3.077   5.390   1.212  0.1708 -0.0216  0.1040
 3727SOL    HW122400   3.053   5.304   1.166  0.7981  0.4172 -1.0482
 3727SOL    HW222401   3.009   5.460   1.190  0.5585  0.2336 -0.2903
 3728SOL     OW22402   9.832   2.961   0.337  0.1920 -0.2128  0.9767
 3728SOL    HW122403   9.903   3.004   0.394 -0.0398  1.5830 -0.0363
 3728SOL    HW222404   9.876   2.907   0.266  0.5419  0.1291  0.9278
 3729SOL     OW22405   8.005   6.075   2.415 -0.5617 -0.0366 -0.0620
 3729SOL    HW122406   8.007   6.016   2.496 -1.8362  0.1375  0.0919
 3729SOL    HW222407   8.075   6.044   2.350  0.8192  0.1202  1.3000
 3730SOL     OW22408   3.822   8.267   3.296  0.1201 -0.0492  0.4996
 3730SOL    HW122409   3.776   8.212   3.366 -0.2634  0.6082  0.7810
 3730SOL    HW222410   3.894   8.322   3.339  0.6996 -0.5532  0.1740
 3731SOL     OW22411   0.955   4.470   4.563 -0.2131 -0.7276  0.0613
 3731SOL    HW122412   0.903   4.384   4.558 -0.3436 -0.7236  1.3138
 3731SOL    HW222413   0.965   4.498   4.658  2.1533 -0.7488 -0.1514
 3732SOL     OW22414   3.383   9.294   3.749  1.4708 -0.2370  0.4580
 3732SOL    HW122415   3.296   9.298   3.699  1.8822  0.3479 -0.2246
 3732SOL    HW222416   3.407   9.386   3.782  0.9720 -0.6916  2.1445
 3733SOL     OW22417   8.814   5.854   4.455  1.1337  0.2692 -0.9193
 3733SOL    HW122418   8.789   5.941   4.497 -0.8052 -1.2191  1.1014
 3733SOL    HW222419   8.755   5.837   4.376  0.2945 -0.0342 -0.2374
 3734SOL     OW22420   8.908   1.268   2.814 -0.1793  0.0214 -0.0804
 3734SOL    HW122421   9.000   1.242   2.843  0.5620  1.4441 -1.1181
 3734SOL    HW222422   8.906   1.281   2.715 -1.6139 -0.4690 -0.1317
 3735SOL     OW22423   9.141   3.817   3.793  0.1150  0.0991 -0.3499
 3735SOL    HW122424   9.223   3.870   3.771  0.3230  0.0480  0.2782
 3735SOL    HW222425   9.153   3.774   3.883  0.0085 -1.1307 -0.9213
 3736SOL     OW22426   7.467   1.243   6.743 -0.0577 -0.4366  0.4273
 3736SOL    HW122427   7.494   1.218   6.650 -0.3143 -0.0276  0.2453
 3736SOL    HW222428   7.401   1.318   6.740 -1.0382 -1.2515  0.8726
 3737SOL     OW22429   4.069   5.903   2.531  0.6151 -0.2449 -0.1475
 3737SOL    HW122430   4.163   5.891   2.499  0.3657 -0.2276 -0.8883
 3737SOL    HW222431   4.009   5.919   2.453 -0.2779 -2.0049  0.1517
 3738SOL     OW22432   6.349   6.977   4.356 -0.0901 -0.2237  0.4520
 3738SOL    HW122433   6.425   6.919   4.387  0.0996 -0.0016  0.4026
 3738SOL    HW222434   6.345   6.975   4.256  0.0002 -0.0414  0.4459
 3739SOL     OW22435   6.400   7.988   3.509  0.1359  0.2222  0.7123
 3739SOL    HW122436   6.406   8.064   3.444  0.1791  0.2308  0.7265
 3739SOL    HW222437   6.395   8.023   3.602 -1.6357  0.2637  0.6136
 3740SOL     OW22438   2.851   3.140   6.623 -0.2256 -0.3917 -0.2982
 3740SOL    HW122439   2.818   3.046   6.637 -1.2412  0.2113  1.4465
 3740SOL    HW222440   2.789   3.188   6.562 -0.5352 -0.3808  0.0280
 3741SOL     OW22441   0.427   8.914   2.903  0.2889 -0.0803  0.3806
 3741SOL    HW122442   0.367   8.979   2.856  0.2596  0.1081  0.6748
 3741SOL    HW222443   0.395   8.821   2.886  0.6304 -0.0461 -0.4537
 3742SOL     OW22444   0.778   1.616   1.625  1.0400  0.3120  0.1164
 3742SOL    HW122445   0.864   1.663   1.643  1.3258 -0.1679  0.0158
 3742SOL    HW222446   0.797   1.521   1.599  0.4598  0.0947  0.4883
 3743SOL     OW22447   5.849   9.923   3.286  0.8510  0.2985 -0.5390
 3743SOL    HW122448   5.803   9.890   3.203  0.2798 -0.1405 -0.0500
 3743SOL    HW222449   5.926   9.863   3.307 -1.4920 -2.0916  1.5891
 3744SOL     OW22450   3.220   0.442   5.739 -0.3626  0.6530 -0.4790
 3744SOL    HW122451   3.243   0.384   5.661 -0.5733  0.7964 -0.6504
 3744SOL    HW222452   3.292   0.509   5.754 -0.2603  0.5408 -0.4701
 3745SOL     OW22453   0.597   2.231   5.517 -0.1566 -0.0615 -0.5017
 3745SOL    HW122454   0.566   2.261   5.607 -0.1880 -1.1415 -0.1391
 3745SOL    HW222455   0.571   2.298   5.448 -1.1931  0.1982  0.1307
 3746SOL     OW22456   0.004   6.630   3.248 -0.8103  0.6638 -0.4717
 3746SOL    HW122457   0.048   6.630   3.158  0.1127 -0.9468 -0.0325
 3746SOL    HW222458  -0.095   6.639   3.237 -0.5712  2.0855 -1.5689
 3747SOL     OW22459   8.480   3.662   4.810 -0.2828 -0.7168  0.1336
 3747SOL    HW122460   8.478   3.592   4.882  1.3662 -0.2692  0.6518
 3747SOL    HW222461   8.507   3.750   4.849  0.3908 -0.4100 -0.9761
 3748SOL     OW22462   9.653   3.170   3.639  0.3061  0.4539 -0.1232
 3748SOL    HW122463   9.617   3.186   3.547 -0.3466  0.1716  0.0812
 3748SOL    HW222464   9.603   3.226   3.705 -0.0334 -0.2433  0.2160
 3749SOL     OW22465   9.559   0.319   4.961 -0.4384  0.5213 -0.0367
 3749SOL    HW122466   9.581   0.223   4.979 -1.0306  0.7166  1.8007
 3749SOL    HW222467   9.474   0.324   4.909  0.0416  0.0326 -0.8893
 3750SOL     OW22468   0.046   2.931   3.654 -0.4615 -0.3299  0.2475
 3750SOL    HW122469   0.123   2.920   3.717  0.5664 -0.6036 -1.0373
 3750SOL    HW222470   0.044   2.855   3.589  0.2453  1.4049 -1.8755
 3751SOL     OW22471   9.834   6.732   4.960  0.2785 -0.3751 -0.0414
 3751SOL    HW122472   9.922   6.690   4.935 -0.8417 -2.8221  0.0039
 3751SOL    HW222473   9.772   6.728   4.882  0.1926  1.3721 -0.0786
 3752SOL     OW22474   5.748   1.681   3.371  0.2890 -0.5620  0.7095
 3752SOL    HW122475   5.813   1.755   3.383 -1.1708  1.2155 -1.9355
 3752SOL    HW222476   5.794   1.601   3.333  1.0771  0.3793 -0.3114
 3753SOL     OW22477   9.479   7.453   6.702  0.2451 -0.2148  0.4714
 3753SOL    HW122478   9.497   7.355   6.705  1.5281 -0.0170 -0.1706
 3753SOL    HW222479   9.528   7.498   6.777  1.7159  0.2224 -0.7267
 3754SOL     OW22480   4.709   5.189   3.520 -0.0824 -0.9503 -0.0342
 3754SOL    HW122481   4.732   5.102   3.565 -1.5842 -0.7998  1.0626
 3754SOL    HW222482   4.755   5.194   3.431  1.2808 -2.1650  0.5862
 3755SOL     OW22483   8.104   7.914   6.001 -0.3197  0.3089  0.4625
 3755SOL    HW122484   8.160   7.838   5.967 -0.8804 -0.1928  0.6473
 3755SOL    HW222485   8.017   7.878   6.035 -0.2004  0.9213  1.4286
 3756SOL     OW22486   6.775   2.661   3.648  0.2304  0.2633 -0.2414
 3756SOL    HW122487   6.807   2.575   3.609 -1.8644 -0.3531 -0.7000
 3756SOL    HW222488   6.771   2.653   3.748  0.4818  0.0004 -0.2526
 3757SOL     OW22489   7.583   4.915   0.699 -0.2061  0.2045 -0.4659
 3757SOL    HW122490   7.598   4.936   0.603  2.1353 -2.2402 -0.6858
 3757SOL    HW222491   7.519   4.838   0.707 -0.5945  0.5669 -0.0663
 3758SOL     OW22492   5.190   8.795   5.238 -0.3301  0.1866  0.2786
 3758SOL    HW122493   5.169   8.705   5.201  0.6533  0.0513  0.0455
 3758SOL    HW222494   5.107   8.850   5.241 -0.9892 -0.8152  0.6693
 3759SOL     OW22495   8.835   3.209   4.068  0.1867  0.4390 -0.4782
 3759SOL    HW122496   8.806   3.133   4.126  1.2922 -0.4211 -1.0209
 3759SOL    HW222497   8.904   3.176   4.003  1.1314  2.0333 -0.3111
 3760SOL     OW22498   2.703   2.051   1.414 -0.1816  1.2096 -0.0220
 3760SOL    HW122499   2.758   2.111   1.355  0.8005  0.8814  0.5417
 3760SOL    HW222500   2.764   1.998   1.472 -1.0939  0.4293  0.2252
 3761SOL     OW22501   2.796   9.711   3.907 -0.7130 -0.1400  0.2429
 3761SOL    HW122502   2.774   9.639   3.841 -0.6919  0.0234  0.0578
 3761SOL    HW222503   2.813   9.670   3.997  0.3520 -0.4663 -0.1000
 3762SOL     OW22504   0.887   6.787   5.194  0.3747  0.4166 -0.4636
 3762SOL    HW122505   0.812   6.725   5.215  1.1240 -0.4389 -0.3022
 3762SOL    HW222506   0.873   6.874   5.241 -0.9448  0.5595 -1.1136
 3763SOL     OW22507   5.113   9.766   4.960  0.1696  0.3958  0.3771
 3763SOL    HW122508   5.204   9.778   4.920  0.6173 -1.0179  0.9391
 3763SOL    HW222509   5.090   9.848   5.013  0.3029  1.5516 -1.2980
 3764SOL     OW22510   3.675   8.161   0.739  0.3622 -0.0788 -0.4974
 3764SOL    HW122511   3.608   8.125   0.804 -1.4852 -1.1197 -2.8676
 3764SOL    HW222512   3.627   8.204   0.663  2.4793  1.5687 -0.9428
 3765SOL     OW22513   1.835   8.250   6.260 -0.6075  0.4781  0.7563
 3765SOL    HW122514   1.866   8.322   6.322  1.6310 -0.1575  0.4127
 3765SOL    HW222515   1.899   8.173   6.263  0.0029  0.7482 -2.8988
 3766SOL     OW22516   6.436   0.036   3.734 -0.2211  0.0039  0.7356
 3766SOL    HW122517   6.455   0.134   3.727 -0.1220 -0.0412  0.3389
 3766SOL    HW222518   6.469  -0.010   3.652  0.0427 -0.4115  1.0707
 3767SOL     OW22519   3.000   0.839   6.313 -0.3534  0.9888 -0.0787
 3767SOL    HW122520   2.979   0.887   6.228  2.1080  0.6395 -0.9073
 3767SOL    HW222521   3.023   0.905   6.384  0.3272  1.1713 -0.4633
 3768SOL     OW22522   9.200   6.646   1.443 -1.2392  0.6646 -0.4349
 3768SOL    HW122523   9.236   6.653   1.536  1.1083 -1.4653 -1.1329
 3768SOL    HW222524   9.101   6.658   1.444 -0.9040  3.7048  1.9282
 3769SOL     OW22525   1.652   1.004   1.953 -0.4052  0.3535 -0.3403
 3769SOL    HW122526   1.702   1.088   1.932  1.0057 -0.5412 -0.6460
 3769SOL    HW222527   1.624   0.960   1.868  0.2493 -0.2929 -0.2285
 3770SOL     OW22528   2.230   0.454   4.741  1.0571 -0.0601  0.6354
 3770SOL    HW122529   2.196   0.415   4.655  2.7064 -0.6504  0.2352
 3770SOL    HW222530   2.171   0.531   4.768 -0.5994 -1.0554 -0.0152
 3771SOL     OW22531   1.445   4.113   2.029  0.1231  0.2418  0.1240
 3771SOL    HW122532   1.492   4.178   2.088 -0.8084  0.9303  0.1051
 3771SOL    HW222533   1.491   4.024   2.034  0.8369  0.6506  0.8547
 3772SOL     OW22534   5.038   1.695   2.205  0.1772  0.4431 -0.3477
 3772SOL    HW122535   4.949   1.740   2.203 -1.2604 -2.2616 -0.3777
 3772SOL    HW222536   5.081   1.701   2.115 -1.4627 -1.0057 -1.2577
 3773SOL     OW22537   4.608   5.169   6.332  0.6808 -0.3982  0.1928
 3773SOL    HW122538   4.515   5.204   6.329  0.3177 -1.4221 -0.5107
 3773SOL    HW222539   4.651   5.196   6.419  0.1561  1.1192  0.0056
 3774SOL     OW22540   4.304   2.555   1.772  0.3014 -0.1608  0.0956
 3774SOL    HW122541   4.291   2.459   1.796  1.3106 -0.9369 -2.2821
 3774SOL    HW222542   4.349   2.562   1.683  2.1374  2.5281  1.1452
 3775SOL     OW22543   9.125   9.048   4.198  0.3015 -0.2890 -0.2727
 3775SOL    HW122544   9.215   9.085   4.176 -0.5592  0.4618 -2.5884
 3775SOL    HW222545   9.089   9.095   4.279  0.1816  2.4413 -1.8556
 3776SOL     OW22546   6.414   1.437   0.988  0.4987 -0.3307  0.6327
 3776SOL    HW122547   6.444   1.347   1.021 -2.0690 -1.3245  0.3502
 3776SOL    HW222548   6.379   1.429   0.895  0.6415  1.0461  0.4540
 3777SOL     OW22549   9.238   9.158   3.859  0.0160 -0.8182  0.2947
 3777SOL    HW122550   9.148   9.115   3.856 -0.5256  0.3152 -0.3337
 3777SOL    HW222551   9.249   9.218   3.779  0.4787  0.6911  1.4531
 3778SOL     OW22552   2.787   5.355   1.396  0.4372  0.7999 -0.0158
 3778SOL    HW122553   2.743   5.440   1.368  1.0140  1.2270  0.3810
 3778SOL    HW222554   2.881   5.373   1.424  1.0110 -0.1753 -1.2661
 3779SOL     OW22555   9.403   9.742   6.056 -0.3795  0.2882  0.4951
 3779SOL    HW122556   9.457   9.672   6.103 -0.9976  0.6489  1.7964
 3779SOL    HW222557   9.381   9.815   6.121  0.0096  1.5460 -0.7707
 3780SOL     OW22558   5.791   0.068   5.352  0.4985 -0.1551  0.4201
 3780SOL    HW122559   5.784   0.168   5.348  1.3397 -0.1547 -1.9313
 3780SOL    HW222560   5.846   0.042   5.431  0.2718  1.2378  1.0597
 3781SOL     OW22561   2.099   0.077   0.849  0.0510 -0.0910  0.3420
 3781SOL    HW122562   2.010   0.034   0.833 -0.7935  1.9947 -0.7387
 3781SOL    HW222563   2.085   0.170   0.885  1.7188  0.9906 -1.6715
 3782SOL     OW22564   6.187   9.136   4.913 -0.2336 -0.0628 -0.3059
 3782SOL    HW122565   6.247   9.176   4.982 -0.5916 -0.8836  0.4853
 3782SOL    HW222566   6.093   9.165   4.929 -0.0790  1.1546 -1.4957
 3783SOL     OW22567   9.206   6.349   4.559  0.0083 -0.1297 -0.6815
 3783SOL    HW122568   9.113   6.379   4.579 -0.0697 -0.5061 -0.4745
 3783SOL    HW222569   9.270   6.424   4.578 -0.1128 -0.3173  0.5275
 3784SOL     OW22570   4.449   4.862   4.257 -0.1207  0.4998  0.2860
 3784SOL    HW122571   4.411   4.805   4.330  2.0871  2.5332  3.1379
 3784SOL    HW222572   4.405   4.952   4.259 -2.3520 -0.4092 -3.0696
 3785SOL     OW22573   2.826   7.535   1.601 -0.0993  0.1855  0.1984
 3785SOL    HW122574   2.866   7.477   1.672  0.5597  1.2429  0.6936
 3785SOL    HW222575   2.866   7.512   1.513 -0.7384 -0.9588  0.1940
 3786SOL     OW22576   4.692   1.089   3.252  0.3611 -0.6589  0.1267
 3786SOL    HW122577   4.659   1.176   3.288  0.0063 -0.4323 -0.7378
 3786SOL    HW222578   4.620   1.045   3.197  1.2170 -0.5202 -1.1409
 3787SOL     OW22579   9.189   1.282   4.513  0.0840  0.1529  0.4846
 3787SOL    HW122580   9.255   1.307   4.583  0.1414 -1.2605  0.9512
 3787SOL    HW222581   9.232   1.223   4.445 -0.3554  0.3033  0.0690
 3788SOL     OW22582   7.869   9.830   3.826  0.1395 -0.0293 -0.4732
 3788SOL    HW122583   7.941   9.764   3.848  1.1597  0.6241 -1.7900
 3788SOL    HW222584   7.898   9.886   3.749 -1.3289  0.9911 -0.2972
 3789SOL     OW22585   2.337   5.855   0.803 -0.5744  0.4915  0.4948
 3789SOL    HW122586   2.383   5.805   0.877  1.9417  0.5251 -1.0008
 3789SOL    HW222587   2.363   5.952   0.808 -1.7785  0.8169  0.5884
 3790SOL     OW22588   2.536   2.067   4.800 -0.2718  0.5875  0.1108
 3790SOL    HW122589   2.569   2.158   4.826  0.8264  0.2432 -0.0677
 3790SOL    HW222590   2.506   2.018   4.881  1.9358 -0.0016  0.5900
 3791SOL     OW22591   0.398   6.458   4.865 -0.1464 -0.4259 -0.3320
 3791SOL    HW122592   0.482   6.442   4.814  0.3337 -1.6942  0.8256
 3791SOL    HW222593   0.396   6.553   4.898  0.4168 -0.1441 -1.1064
 3792SOL     OW22594   1.855   7.338   0.551  0.1647 -0.0311  0.1135
 3792SOL    HW122595   1.761   7.363   0.527  0.3236  0.4231 -0.0549
 3792SOL    HW222596   1.919   7.394   0.497  0.5465 -1.6125 -1.1054
 3793SOL     OW22597   6.707   2.282   3.437  0.6561  0.1048  0.5260
 3793SOL    HW122598   6.750   2.273   3.527  0.3279  3.4617  1.1068
 3793SOL    HW222599   6.777   2.304   3.369  0.6145 -0.1559  0.4013
 3794SOL     OW22600   7.739   3.561   6.092  0.0721  0.2604 -0.5038
 3794SOL    HW122601   7.815   3.542   6.155  0.4928  0.3990 -0.9665
 3794SOL    HW222602   7.764   3.638   6.033  0.3060 -0.8837 -1.9073
 3795SOL     OW22603   6.087   2.158   3.978  0.0135 -0.5812 -0.4595
 3795SOL    HW122604   6.016   2.101   4.020  1.0658 -1.1049  0.6235
 3795SOL    HW222605   6.058   2.185   3.886 -2.3075  0.5524  0.5578
 3796SOL     OW22606   9.976   7.923   3.149 -0.3866 -0.4031 -0.4303
 3796SOL    HW122607   9.904   7.896   3.085 -0.2546 -2.7694  0.3664
 3796SOL    HW222608  10.066   7.904   3.108 -0.1905  1.7201 -1.0665
 3797SOL     OW22609   8.693   6.218   5.340  0.6010 -0.5144  0.7124
 3797SOL    HW122610   8.782   6.264   5.339  0.8141 -0.9457 -0.9594
 3797SOL    HW222611   8.671   6.191   5.434  1.6863  0.6318  1.3186
 3798SOL     OW22612   5.331   0.277   5.713 -0.6540 -0.1907  0.1865
 3798SOL    HW122613   5.236   0.288   5.743 -0.4032  2.9054 -0.0891
 3798SOL    HW222614   5.334   0.274   5.613 -0.5345 -1.3112  0.2122
 3799SOL     OW22615   8.983   7.505   3.588 -0.0639  0.2270 -0.0159
 3799SOL    HW122616   8.909   7.438   3.600  1.0459 -0.9358  0.3990
 3799SOL    HW222617   9.044   7.502   3.667 -0.3143  2.1498  0.2812
 3800SOL     OW22618   1.483   1.139   4.836  0.1357 -0.3304 -0.1419
 3800SOL    HW122619   1.563   1.111   4.889 -0.7822 -2.0866  0.3741
 3800SOL    HW222620   1.464   1.069   4.767  0.8501  1.5530 -2.3109
 3801SOL     OW22621   4.380   3.168   4.176  0.1073 -0.8967  0.0197
 3801SOL    HW122622   4.351   3.224   4.099 -0.4985  0.4209  1.1916
 3801SOL    HW222623   4.450   3.103   4.145  0.2607 -0.0320 -1.5103
 3802SOL     OW22624   9.916   5.437   2.068  0.5553 -0.1210 -0.3177
 3802SOL    HW122625   9.926   5.520   2.123  0.7067  0.0667 -0.6278
 3802SOL    HW222626  10.000   5.382   2.074 -0.0729 -0.9540  1.0345
 3803SOL     OW22627   8.134   5.854   3.025 -0.2158 -0.1422 -0.7200
 3803SOL    HW122628   8.213   5.822   2.974  0.6201 -0.5897  0.8034
 3803SOL    HW222629   8.155   5.940   3.070 -0.8844  0.1712 -0.9990
 3804SOL     OW22630   2.820   5.214   2.154 -0.4504  0.1382  0.1220
 3804SOL    HW122631   2.807   5.211   2.254  1.2030 -0.1074  0.3439
 3804SOL    HW222632   2.882   5.140   2.127 -0.6924  0.3686 -1.0586
 3805SOL     OW22633   0.019   2.190   4.945  0.2342 -0.3296 -0.1080
 3805SOL    HW122634   0.104   2.165   4.990  0.9133 -1.1466 -1.8047
 3805SOL    HW222635  -0.027   2.262   4.998  2.9072  1.5015 -0.1894
 3806SOL     OW22636   2.206   9.978   2.340  0.0010 -0.6592 -0.5931
 3806SOL    HW122637   2.224   9.998   2.244 -0.8722  0.6204 -0.5028
 3806SOL    HW222638   2.118   9.932   2.349  1.0160 -2.6769 -0.5836
 3807SOL     OW22639   6.082   0.851   5.289 -0.1310 -0.2819  0.1670
 3807SOL    HW122640   6.160   0.873   5.348 -1.8383  1.5509  1.8088
 3807SOL    HW222641   6.107   0.865   5.194  1.0786  1.9432  0.7706
 3808SOL     OW22642   9.208   8.917   3.052 -0.1438 -0.0752  0.0941
 3808SOL    HW122643   9.246   8.856   2.983  1.0557  1.1101 -0.3209
 3808SOL    HW222644   9.143   8.867   3.109  0.8759 -1.7580 -0.1841
 3809SOL     OW22645   9.310   9.111   1.682 -0.6813 -0.1010  0.3557
 3809SOL    HW122646   9.251   9.174   1.632 -0.3299  0.9651  1.2589
 3809SOL    HW222647   9.369   9.163   1.744 -0.2434 -1.3144  0.9684
 3810SOL     OW22648   7.469   6.469   5.722  0.5052  0.1029  0.3760
 3810SOL    HW122649   7.568   6.458   5.731  0.4424 -2.3196 -1.4664
 3810SOL    HW222650   7.438   6.424   5.638 -1.7882  3.2448 -0.5423
 3811SOL     OW22651   4.718   8.121   4.105  0.7008 -0.5937 -0.4528
 3811SOL    HW122652   4.686   8.086   4.193  1.6792 -0.9423 -0.2338
 3811SOL    HW222653   4.812   8.155   4.115  0.7777 -0.5406 -1.3396
 3812SOL     OW22654   7.274   0.405   1.880 -0.2116 -0.1862 -0.1749
 3812SOL    HW122655   7.196   0.399   1.818 -0.0391 -2.6376 -0.1826
 3812SOL    HW222656   7.354   0.438   1.830 -0.9374  1.2915 -0.4078
 3813SOL     OW22657   7.859   7.550   3.783 -0.5521  0.1393 -0.2142
 3813SOL    HW122658   7.803   7.577   3.706  0.7890  1.0904 -0.8804
 3813SOL    HW222659   7.806   7.557   3.868 -0.8601  2.9012 -0.6058
 3814SOL     OW22660   2.368   9.861   1.863 -0.2541 -0.0250  0.2606
 3814SOL    HW122661   2.384   9.885   1.767  2.3559 -0.7783  0.4652
 3814SOL    HW222662   2.274   9.830   1.874  0.0879 -2.3742 -2.5760
 3815SOL     OW22663   9.418   2.596   2.699  0.4613  0.2486  0.3401
 3815SOL    HW122664   9.323   2.583   2.726  1.0050  0.2387  2.2935
 3815SOL    HW222665   9.449   2.687   2.726  0.3209  1.1814 -2.4412
 3816SOL     OW22666   0.492   3.072   1.267 -0.3060 -0.1496 -0.0606
 3816SOL    HW122667   0.535   3.156   1.299  1.4348 -1.5505  1.4094
 3816SOL    HW222668   0.527   3.048   1.176 -3.7993  2.7914 -2.3052
 3817SOL     OW22669   5.231   8.549   3.153  0.2214 -0.4221 -0.6797
 3817SOL    HW122670   5.147   8.598   3.129  0.0647 -1.2827 -1.9790
 3817SOL    HW222671   5.262   8.578   3.243 -1.7765 -0.5074  0.0589
 3818SOL     OW22672   0.024   7.451   2.427 -0.3128  0.8362 -0.1174
 3818SOL    HW122673   0.018   7.414   2.334  0.2640 -0.4713  0.3531
 3818SOL    HW222674   0.085   7.394   2.481 -0.3522  1.8118  0.9695
 3819SOL     OW22675   7.592   0.113   4.363  0.3185 -0.7009  0.2086
 3819SOL    HW122676   7.676   0.116   4.309 -0.1734  1.0655 -0.5118
 3819SOL    HW222677   7.588   0.028   4.415  3.8450  0.3108  2.3204
 3820SOL     OW22678   8.887   0.854   4.085  0.0021 -0.6301 -0.4676
 3820SOL    HW122679   8.847   0.926   4.141  0.9426  0.1560 -0.7910
 3820SOL    HW222680   8.868   0.872   3.988 -1.4085 -1.8497 -0.4379
 3821SOL     OW22681   6.216   8.986   5.488 -0.3353  0.1533 -0.7005
 3821SOL    HW122682   6.142   8.999   5.421 -1.8584  1.3209  1.1588
 3821SOL    HW222683   6.183   8.931   5.564  1.0337 -0.1813 -0.3374
 3822SOL     OW22684   2.256   4.137   5.990 -0.3253 -0.3314 -0.0883
 3822SOL    HW122685   2.286   4.054   5.941  0.6077 -1.0282  1.6207
 3822SOL    HW222686   2.321   4.211   5.972  1.0722 -1.1256  1.5871
 3823SOL     OW22687   9.600   8.928   2.634 -0.3754 -0.3362  0.5567
 3823SOL    HW122688   9.561   9.018   2.654 -0.1703 -0.0208 -0.4330
 3823SOL    HW222689   9.588   8.868   2.713 -0.1031  0.7001  1.3956
 3824SOL     OW22690   9.538   5.983   0.378  0.3162 -0.3097  0.6976
 3824SOL    HW122691   9.567   6.037   0.300  1.3506  0.6627  1.7387
 3824SOL    HW222692   9.549   6.036   0.462 -0.7449 -1.3452  1.5231
 3825SOL     OW22693   0.776   7.762   4.475  0.0288 -0.3421 -0.2098
 3825SOL    HW122694   0.811   7.837   4.418 -1.0964  0.8323  0.6283
 3825SOL    HW222695   0.832   7.680   4.460  2.4428  1.1871  0.2816
 3826SOL     OW22696   1.712   5.895   5.184  0.3291 -0.0204  0.0337
 3826SOL    HW122697   1.652   5.973   5.172 -0.3353 -0.7258 -1.2893
 3826SOL    HW222698   1.705   5.862   5.278 -1.0659  0.1267 -0.0133
 3827SOL     OW22699   3.257   7.877   2.064  0.5687  0.3050 -0.4564
 3827SOL    HW122700   3.238   7.880   2.163  0.8398  1.5587 -0.4281
 3827SOL    HW222701   3.229   7.964   2.023 -1.5432 -0.9933 -1.8640
 3828SOL     OW22702   3.343   1.250   6.088  0.2855 -0.3850  0.3870
 3828SOL    HW122703   3.285   1.329   6.070  0.0550 -0.9842 -1.5834
 3828SOL    HW222704   3.428   1.280   6.132 -0.7925  0.6695  1.8107
 3829SOL     OW22705   2.634   3.724   4.493 -0.0135  0.0568  0.2041
 3829SOL    HW122706   2.685   3.674   4.423  0.6812 -0.7562  1.2795
 3829SOL    HW222707   2.547   3.677   4.510  0.2226 -0.2529  0.5447
 3830SOL     OW22708   3.221   3.663   4.651  0.2008  0.0328  0.4405
 3830SOL    HW122709   3.191   3.571   4.626  0.8026 -0.1395  0.3293
 3830SOL    HW222710   3.319   3.661   4.671 -0.2616  0.1792  2.7794
 3831SOL     OW22711   3.310   4.532   6.347 -0.4968 -0.0164  0.1318
 3831SOL    HW122712   3.239   4.505   6.413  0.8419 -0.6379  1.3370
 3831SOL    HW222713   3.376   4.458   6.336  1.2975  1.4397  0.8478
 3832SOL     OW22714   8.510   5.204   5.657  0.1156  0.8536  0.4229
 3832SOL    HW122715   8.543   5.169   5.745 -0.6831  1.2207  0.8690
 3832SOL    HW222716   8.506   5.128   5.591 -1.0975  0.1982  1.2322
 3833SOL     OW22717   4.448   2.298   2.770 -0.0268  0.4888 -0.2428
 3833SOL    HW122718   4.519   2.358   2.805  0.3496 -0.8745  1.4118
 3833SOL    HW222719   4.448   2.212   2.822 -0.8976 -0.7323 -2.1847
 3834SOL     OW22720   2.371   3.701   0.721 -0.0993  0.2007 -0.1549
 3834SOL    HW122721   2.384   3.604   0.702 -0.0871 -0.0101  0.9217
 3834SOL    HW222722   2.390   3.719   0.818 -0.9209  1.1270 -0.1646
 3835SOL     OW22723   3.591   4.124   1.264  0.1776 -0.2705  0.1222
 3835SOL    HW122724   3.512   4.086   1.312 -0.6688  0.6994 -0.5032
 3835SOL    HW222725   3.669   4.061   1.274 -1.0248 -1.8549 -0.3431
 3836SOL     OW22726   6.936   1.191   4.257  0.1802  0.9148  0.2092
 3836SOL    HW122727   7.005   1.135   4.210  0.1966 -0.9302  2.3277
 3836SOL    HW222728   6.977   1.277   4.287  0.5788  1.4153 -1.7152
 3837SOL     OW22729   6.719   9.058   2.073 -0.1096 -0.3552  0.2466
 3837SOL    HW122730   6.795   9.045   2.136  0.4792  0.4775 -0.2810
 3837SOL    HW222731   6.749   9.112   1.994 -1.3875  0.4925  0.3236
 3838SOL     OW22732   5.186   5.088   4.679  0.2209  0.4924  0.2314
 3838SOL    HW122733   5.267   5.132   4.719 -0.8017  0.1997  2.7372
 3838SOL    HW222734   5.143   5.029   4.747 -1.1144 -0.7510 -1.6319
 3839SOL     OW22735   0.508   4.400   6.505 -0.4084  0.1589 -0.0355
 3839SOL    HW122736   0.522   4.425   6.409 -2.1272 -1.4933 -0.7512
 3839SOL    HW222737   0.594   4.372   6.546  0.0592 -0.6513 -1.5492
 3840SOL     OW22738   1.726   2.051   0.267  0.1899  0.3120 -0.0594
 3840SOL    HW122739   1.733   1.972   0.206  0.7934 -0.4515  0.9914
 3840SOL    HW222740   1.814   2.068   0.311 -0.2961  0.7096  0.7807
 3841SOL     OW22741   3.040   4.662   5.640 -0.3714  0.6838  0.2262
 3841SOL    HW122742   3.059   4.619   5.552  1.7222  1.4889  0.2696
 3841SOL    HW222743   2.971   4.609   5.688 -0.8621 -0.2848 -1.4928
 3842SOL     OW22744   1.210   8.117   5.070  0.0853 -0.1490 -0.0655
 3842SOL    HW122745   1.203   8.157   5.161  0.5239 -0.1171 -0.0476
 3842SOL    HW222746   1.242   8.023   5.077  1.2269  0.2219 -0.2656
 3843SOL     OW22747   3.185   0.787   1.212 -0.1982  0.1258 -0.2064
 3843SOL    HW122748   3.154   0.775   1.118 -0.5329 -1.3829  0.0798
 3843SOL    HW222749   3.108   0.814   1.269  0.6201  4.2360 -0.9102
 3844SOL     OW22750   6.650   2.178   3.118  0.1178 -0.6608  0.2997
 3844SOL    HW122751   6.650   2.277   3.112 -0.7937 -0.7481 -1.4945
 3844SOL    HW222752   6.622   2.150   3.210 -0.6796  0.7254  0.4835
 3845SOL     OW22753   4.068   5.616   0.453 -0.2820 -0.3743  0.6790
 3845SOL    HW122754   4.054   5.518   0.443 -1.8641  0.0001 -0.9836
 3845SOL    HW222755   3.982   5.660   0.477 -0.6715  1.1519 -3.1354
 3846SOL     OW22756   2.019   7.133   5.882 -0.6713 -0.3381 -0.0413
 3846SOL    HW122757   1.931   7.108   5.841 -0.1122 -0.2728 -1.3018
 3846SOL    HW222758   2.053   7.217   5.840 -0.2575 -0.0750  0.8103
 3847SOL     OW22759   0.766   3.831   5.797  0.4495 -0.2311 -0.0972
 3847SOL    HW122760   0.751   3.872   5.887 -0.2276 -0.9005  0.0945
 3847SOL    HW222761   0.861   3.800   5.790  0.4980 -0.1973  0.3948
 3848SOL     OW22762   1.663   9.776   0.808  0.8494  0.4548 -0.2847
 3848SOL    HW122763   1.594   9.846   0.828  1.1413  0.4801  0.6351
 3848SOL    HW222764   1.618   9.697   0.766  0.4966  1.1269 -1.2004
 3849SOL     OW22765   3.364   6.951   4.528  0.7627 -0.4273 -0.4770
 3849SOL    HW122766   3.448   7.005   4.535  0.2811  0.4362 -1.2060
 3849SOL    HW222767   3.354   6.916   4.435  0.0472 -0.0652 -0.5445
 3850SOL     OW22768   1.492   9.547   3.914 -0.0668  0.2270  0.0932
 3850SOL    HW122769   1.393   9.541   3.907  0.0341 -1.3004 -0.2005
 3850SOL    HW222770   1.517   9.595   3.998 -1.0322 -0.7297  0.9317
 3851SOL     OW22771   4.512   9.123   5.879  0.2011  0.3434  1.1240
 3851SOL    HW122772   4.580   9.051   5.863 -0.7463 -0.4193  0.4554
 3851SOL    HW222773   4.555   9.212   5.872  0.5562 -0.0374 -2.2009
 3852SOL     OW22774   6.467   1.110   2.336  0.0361 -0.1715  0.5160
 3852SOL    HW122775   6.442   1.132   2.242  1.0799 -0.5240  0.1441
 3852SOL    HW222776   6.516   1.188   2.376 -0.9272  0.2036  0.9635
 3853SOL     OW22777   7.378   9.358   2.882  0.1751 -0.7235  0.2636
 3853SOL    HW122778   7.325   9.274   2.876  0.0659 -0.4822 -3.5613
 3853SOL    HW222779   7.323   9.430   2.924 -0.7461 -1.7697  0.8729
 3854SOL     OW22780   7.689   8.204   2.452 -0.2746  0.1279  0.2145
 3854SOL    HW122781   7.609   8.202   2.513 -0.1081  0.8600  0.4681
 3854SOL    HW222782   7.721   8.111   2.436  0.3288 -0.0255  2.1216
 3855SOL     OW22783   9.004   0.892   0.133 -0.4064 -0.2753 -0.2963
 3855SOL    HW122784   9.044   0.800   0.144  0.6218  0.0593 -1.1534
 3855SOL    HW222785   9.036   0.951   0.207 -0.1212 -0.2830 -0.4136
 3856SOL     OW22786   3.503   8.776   3.456 -0.7294  0.2513 -0.4030
 3856SOL    HW122787   3.526   8.740   3.366  0.1833  0.3562 -0.2195
 3856SOL    HW222788   3.431   8.845   3.447  0.5706  1.5267 -1.2756
 3857SOL     OW22789   1.617   5.690   1.951  0.5629 -0.2021  1.3402
 3857SOL    HW122790   1.633   5.785   1.926 -1.4284  0.0404  0.9169
 3857SOL    HW222791   1.705   5.645   1.968  1.8750  0.4377 -3.0667
 3858SOL     OW22792   7.375   3.877   6.300  1.0505 -0.0298 -0.0263
 3858SOL    HW122793   7.282   3.841   6.286  0.9285 -0.7118  2.2956
 3858SOL    HW222794   7.439   3.824   6.245  0.3595 -1.2546  0.3118
 3859SOL     OW22795   8.068   4.835   0.812  0.1582 -0.5880 -0.4384
 3859SOL    HW122796   7.990   4.845   0.873  0.6653 -0.6498  0.2226
 3859SOL    HW222797   8.037   4.798   0.724 -0.3412 -2.0298  0.3324
 3860SOL     OW22798   8.733   0.009   6.073  0.3843  0.5494 -0.3047
 3860SOL    HW122799   8.740  -0.087   6.046  0.4121  0.3187  0.5086
 3860SOL    HW222800   8.712   0.015   6.171 -3.6392  1.3283 -1.1412
 3861SOL     OW22801   2.887   6.521   6.491  0.3342  0.0253 -0.7105
 3861SOL    HW122802   2.982   6.504   6.468  0.2877 -0.5583 -0.4747
 3861SOL    HW222803   2.882   6.584   6.569  0.5714 -1.2389  0.3590
 3862SOL     OW22804   8.542   8.900   5.829  0.5052 -0.3211  0.3781
 3862SOL    HW122805   8.505   8.913   5.921 -1.0611 -0.9572 -0.1479
 3862SOL    HW222806   8.597   8.980   5.804  0.5562  0.0574  1.6800
 3863SOL     OW22807   9.054   0.753   5.463  0.2570 -0.8361  0.4858
 3863SOL    HW122808   9.086   0.674   5.515  1.5970 -1.3503 -1.0722
 3863SOL    HW222809   9.128   0.787   5.405 -1.0826 -0.0389 -0.8005
 3864SOL     OW22810   9.447   0.732   2.155  0.1510  0.4259  0.7363
 3864SOL    HW122811   9.537   0.706   2.121 -0.4157  0.8008 -1.1454
 3864SOL    HW222812   9.389   0.651   2.160  0.2621  0.3547  0.8674
 3865SOL     OW22813   2.242   5.441   4.489  0.2330 -0.1512  0.4153
 3865SOL    HW122814   2.339   5.461   4.475 -0.0859  0.5917 -0.8858
 3865SOL    HW222815   2.195   5.526   4.514 -0.1298 -0.4351  0.6797
 3866SOL     OW22816   0.331   1.728   0.317  0.1249  0.0773 -0.1122
 3866SOL    HW122817   0.258   1.713   0.384  1.7454 -2.1649  1.2129
 3866SOL    HW222818   0.367   1.820   0.329 -1.2007  0.5408  0.4895
 3867SOL     OW22819   5.043   4.981   4.870  0.3926  0.2152 -0.7460
 3867SOL    HW122820   5.006   4.891   4.894  0.6574  0.3019 -0.0115
 3867SOL    HW222821   4.985   5.052   4.911  1.5913  0.3476  0.7630
 3868SOL     OW22822   1.200   4.769   5.705  0.2742 -0.1892  0.1124
 3868SOL    HW122823   1.257   4.851   5.706 -1.0256  0.7383  0.0058
 3868SOL    HW222824   1.216   4.719   5.620 -0.2600  0.9425 -0.6740
 3869SOL     OW22825   0.337   1.602   3.612  0.5302  0.3546  0.1126
 3869SOL    HW122826   0.284   1.620   3.695 -0.3879  0.0566 -0.4007
 3869SOL    HW222827   0.424   1.560   3.636  0.0211 -0.2679  0.8826
 3870SOL     OW22828   7.537   8.991   4.373 -0.0509  0.1929  0.2696
 3870SOL    HW122829   7.600   8.969   4.299 -1.3176  0.7402 -0.9745
 3870SOL    HW222830   7.589   9.031   4.450  0.9879  1.4913 -1.0799
 3871SOL     OW22831   1.060   8.342   2.454  0.4712 -0.1236  0.6194
 3871SOL    HW122832   1.059   8.283   2.373  2.9911  0.4082  0.1549
 3871SOL    HW222833   1.101   8.292   2.531  1.6814  0.6486  0.4940
 3872SOL     OW22834   5.308   0.277   2.297  0.1108 -0.1745  0.2325
 3872SOL    HW122835   5.369   0.306   2.370  0.8928 -1.3098  0.0416
 3872SOL    HW222836   5.213   0.279   2.330  0.4764 -0.8938  1.3355
 3873SOL     OW22837   7.958   6.846   5.750 -0.2562 -0.1785  0.3257
 3873SOL    HW122838   8.044   6.853   5.799 -0.3537 -1.6296  0.7400
 3873SOL    HW222839   7.885   6.820   5.814 -0.5208 -1.3783 -0.4279
 3874SOL     OW22840   8.358   9.126   3.467  0.0341  0.2801  0.0616
 3874SOL    HW122841   8.347   9.197   3.536 -0.0619  2.1686 -1.8398
 3874SOL    HW222842   8.272   9.076   3.457 -0.8926  1.9519 -0.7284
 3875SOL     OW22843   2.711   0.506   0.161 -0.0065 -0.5487 -0.0747
 3875SOL    HW122844   2.621   0.513   0.117 -0.7566 -0.8411  1.3730
 3875SOL    HW222845   2.772   0.451   0.104 -0.7696 -0.4084 -1.0388
 3876SOL     OW22846   4.696   3.272   1.240  0.4830 -0.3257  0.1591
 3876SOL    HW122847   4.600   3.281   1.268  0.4808 -0.1528  0.0945
 3876SOL    HW222848   4.736   3.192   1.285  0.2604 -0.5000  0.0539
 3877SOL     OW22849   5.303   6.314   1.593 -0.0001 -0.0522 -0.5377
 3877SOL    HW122850   5.234   6.354   1.533 -0.0756 -0.6074 -0.8236
 3877SOL    HW222851   5.352   6.387   1.640 -0.3345  0.3681 -0.8305
 3878SOL     OW22852   8.239   9.375   4.749  0.0570  0.4299 -0.3250
 3878SOL    HW122853   8.296   9.297   4.725  0.7510  1.0833 -0.8237
 3878SOL    HW222854   8.278   9.422   4.829 -0.0739  0.5670 -0.3407
 3879SOL     OW22855   5.469   1.468   2.528 -0.1523  0.3453 -0.4528
 3879SOL    HW122856   5.518   1.381   2.533  0.8095  0.9997  2.4245
 3879SOL    HW222857   5.372   1.453   2.547 -0.0844 -0.1701 -0.4979
 3880SOL     OW22858   1.882   0.828   2.011 -0.6326  0.0411  0.8111
 3880SOL    HW122859   1.794   0.875   2.007 -0.8996 -0.5273 -0.2613
 3880SOL    HW222860   1.919   0.819   1.919  1.1392  1.3482  1.3586
 3881SOL     OW22861   1.836   8.983   6.189  0.4746  0.0718  0.3599
 3881SOL    HW122862   1.886   8.897   6.183 -0.2130 -0.2586 -0.7365
 3881SOL    HW222863   1.892   9.050   6.238  1.2265 -0.8360  0.7632
 3882SOL     OW22864   8.459   7.853   3.441 -0.1275  0.1303 -0.1959
 3882SOL    HW122865   8.454   7.773   3.382  1.1780 -1.4243  1.7135
 3882SOL    HW222866   8.368   7.895   3.449 -0.7392 -0.9180 -1.5339
 3883SOL     OW22867   0.211   8.480   5.985 -0.5014 -0.0039  0.8522
 3883SOL    HW122868   0.290   8.428   5.954 -1.1147 -0.4123 -0.0457
 3883SOL    HW222869   0.224   8.508   6.080  1.0564  0.5816  0.4811
 3884SOL     OW22870   8.150   2.549   0.225  0.0797  0.0224  0.1396
 3884SOL    HW122871   8.103   2.598   0.299 -0.4452  0.5310 -0.5258
 3884SOL    HW222872   8.104   2.462   0.208 -0.7300  0.5797 -0.6039
 3885SOL     OW22873   3.765   3.330   4.204  0.1999 -0.0582  0.1187
 3885SOL    HW122874   3.765   3.403   4.274  0.9944 -1.2277  1.3640
 3885SOL    HW222875   3.841   3.268   4.221 -1.5662 -2.2657  0.2278
 3886SOL     OW22876   2.643   0.417   0.679 -0.4108  0.0678 -0.6789
 3886SOL    HW122877   2.715   0.461   0.733 -1.3895 -0.5014  1.1162
 3886SOL    HW222878   2.683   0.378   0.597  0.9125  2.0015 -0.9961
 3887SOL     OW22879   4.409   3.234   5.387 -0.5511  0.1381  0.4258
 3887SOL    HW122880   4.470   3.308   5.416 -0.0311  0.4219 -1.2999
 3887SOL    HW222881   4.314   3.261   5.404 -0.4420  1.7947 -1.4055
 3888SOL     OW22882   0.929   7.190   1.425  0.8894  0.0804 -0.5766
 3888SOL    HW122883   0.986   7.166   1.347  1.1377  0.3609 -0.4827
 3888SOL    HW222884   0.834   7.164   1.407  0.5226  2.2337 -1.9091
 3889SOL     OW22885   2.583   1.393   4.321  0.0740  0.4938  0.0566
 3889SOL    HW122886   2.669   1.409   4.273 -0.2381  1.6551 -0.1229
 3889SOL    HW222887   2.602   1.352   4.410  0.7416 -0.2799 -0.4307
 3890SOL     OW22888   4.173   3.065   2.074  0.6173 -0.0105 -0.0794
 3890SOL    HW122889   4.252   3.072   2.135  0.7775  2.5320 -0.5146
 3890SOL    HW222890   4.152   3.156   2.036 -0.5142 -1.2298 -2.4757
 3891SOL     OW22891   4.810   0.659   4.719  0.0853  0.4458  0.1958
 3891SOL    HW122892   4.716   0.626   4.714  0.9470 -2.1644  0.5202
 3891SOL    HW222893   4.849   0.637   4.809  1.6947 -0.5453 -0.7125
 3892SOL     OW22894   1.513   6.057   6.442 -0.3819  0.3950 -0.1114
 3892SOL    HW122895   1.498   5.959   6.451 -0.2442  0.4300  0.5040
 3892SOL    HW222896   1.577   6.088   6.512 -0.4336  0.9249 -0.2952
 3893SOL     OW22897   9.716   0.512   0.450 -0.6973 -0.0047 -0.2069
 3893SOL    HW122898   9.791   0.490   0.388 -0.1087  0.1029  0.4499
 3893SOL    HW222899   9.655   0.434   0.459 -1.3852  0.3311 -1.7410
 3894SOL     OW22900   4.787   8.831   0.395 -0.7723 -0.2001  0.4264
 3894SOL    HW122901   4.803   8.757   0.329 -1.0896  1.0582 -1.0871
 3894SOL    HW222902   4.688   8.847   0.404 -0.6637  0.8963 -0.2327
 3895SOL     OW22903   0.194   5.563   1.371 -0.1863 -0.4374 -0.2263
 3895SOL    HW122904   0.110   5.569   1.427 -0.1880 -1.8644 -0.0481
 3895SOL    HW222905   0.183   5.617   1.288 -0.5822  0.8789  0.6729
 3896SOL     OW22906   3.432   8.604   5.180 -0.5121 -0.4546  0.3982
 3896SOL    HW122907   3.495   8.649   5.243  1.9655 -2.8171 -0.2729
 3896SOL    HW222908   3.418   8.509   5.209 -1.6365 -0.7387 -1.0132
 3897SOL     OW22909   1.944   2.257   6.386 -0.0765  0.0077 -0.1461
 3897SOL    HW122910   2.009   2.194   6.344 -1.0600 -1.3495  0.3285
 3897SOL    HW222911   1.931   2.232   6.482 -1.1940  0.3478 -0.1989
 3898SOL     OW22912   3.685   6.983   3.149  0.0049 -0.0588 -0.3000
 3898SOL    HW122913   3.778   7.005   3.117  0.1297  2.1828  1.4918
 3898SOL    HW222914   3.691   6.910   3.217  0.6425  1.0015  0.8177
 3899SOL     OW22915   1.334   3.069   4.556  0.6395 -0.3224 -0.2985
 3899SOL    HW122916   1.349   2.972   4.574 -1.7311 -0.8248 -0.8906
 3899SOL    HW222917   1.261   3.079   4.489  2.5122  1.8079 -2.1059
 3900SOL     OW22918   1.416   3.092   3.985 -0.3608 -0.2789  0.9313
 3900SOL    HW122919   1.330   3.082   4.034  0.5727 -1.9003  2.2829
 3900SOL    HW222920   1.483   3.028   4.021  1.9723  2.1543  1.1190
 3901SOL     OW22921   4.802   8.807   4.734  0.1639 -0.1424 -0.0018
 3901SOL    HW122922   4.878   8.790   4.671  0.0841 -0.0374 -0.1273
 3901SOL    HW222923   4.837   8.850   4.818  0.1460  0.5484 -0.3471
 3902SOL     OW22924   2.270   1.461   2.223  0.0338  0.0600 -0.1361
 3902SOL    HW122925   2.272   1.442   2.125 -1.4060  0.8996 -0.3448
 3902SOL    HW222926   2.342   1.409   2.269 -0.7204 -2.1040 -1.3414
 3903SOL     OW22927   3.566   7.666   1.268 -0.7360  0.3675  0.1995
 3903SOL    HW122928   3.533   7.618   1.349 -0.4700 -1.1866 -0.6002
 3903SOL    HW222929   3.640   7.615   1.225  0.6326  2.2765  0.1906
 3904SOL     OW22930   1.812   8.863   0.021 -0.3805  0.1399  0.1037
 3904SOL    HW122931   1.810   8.795  -0.052 -1.2739  0.1512  0.1123
 3904SOL    HW222932   1.719   8.886   0.047 -0.0818  1.1949  0.2628
 3905SOL     OW22933   6.430   7.935   2.377 -0.6004  0.4866 -0.3686
 3905SOL    HW122934   6.513   7.955   2.428 -0.3709  1.4194 -1.0880
 3905SOL    HW222935   6.350   7.957   2.433 -0.3537  1.2051 -0.3024
 3906SOL     OW22936   0.147   4.400   0.059 -0.3721 -0.6842 -0.5427
 3906SOL    HW122937   0.077   4.435   0.121 -0.1317 -0.5706 -0.3323
 3906SOL    HW222938   0.218   4.469   0.046 -0.2593 -0.8274 -0.6935
 3907SOL     OW22939   7.185   2.029   3.304  0.3780 -0.3697 -0.0612
 3907SOL    HW122940   7.123   2.056   3.378  1.4745 -1.7737  1.4322
 3907SOL    HW222941   7.165   1.935   3.277  0.0460  0.1112 -1.5086
 3908SOL     OW22942   3.860   2.272   2.501  0.2482 -0.1964 -0.2107
 3908SOL    HW122943   3.953   2.239   2.516 -0.4343 -1.0749  2.5256
 3908SOL    HW222944   3.853   2.366   2.533  0.3534  0.1069 -1.0674
 3909SOL     OW22945   8.955   5.049   4.046  0.4137 -0.7135 -0.0209
 3909SOL    HW122946   8.857   5.038   4.029  0.4239 -0.2100 -0.4161
 3909SOL    HW222947   8.969   5.119   4.117  0.4493 -1.4250  0.6709
 3910SOL     OW22948   2.494   5.981   3.133  0.1436  0.1069 -0.0790
 3910SOL    HW122949   2.421   6.013   3.193  1.0443  0.5026  0.8176
 3910SOL    HW222950   2.457   5.965   3.042 -1.0216  0.4833  0.3146
 3911SOL     OW22951   2.050   0.196   5.053  0.0664  0.0416  0.9263
 3911SOL    HW122952   2.124   0.206   4.987 -0.1908 -0.2852  0.5870
 3911SOL    HW222953   1.964   0.227   5.012  0.5537  3.5172  2.4002
 3912SOL     OW22954   4.207   1.696   2.188 -0.1673 -0.1195 -0.0923
 3912SOL    HW122955   4.288   1.660   2.141  1.4598  2.2930  0.7647
 3912SOL    HW222956   4.160   1.761   2.128  0.6442  1.2633  0.7397
 3913SOL     OW22957   2.369   4.525   5.218 -0.3901  0.2865  0.5217
 3913SOL    HW122958   2.373   4.462   5.141  0.1123 -1.2126  1.7527
 3913SOL    HW222959   2.273   4.542   5.242 -0.5094 -0.7112  0.7561
 3914SOL     OW22960   8.857   5.596   1.002  0.0845 -0.3641 -0.1865
 3914SOL    HW122961   8.893   5.683   1.037  1.0398 -1.0938  0.6841
 3914SOL    HW222962   8.768   5.578   1.042  0.1290 -0.0429  0.0531
 3915SOL     OW22963   9.915   9.419   6.459  0.3383  0.4246  0.1286
 3915SOL    HW122964   9.898   9.454   6.367  1.1632 -2.1121 -1.0491
 3915SOL    HW222965   9.942   9.323   6.453  1.8240  0.6260  2.9311
 3916SOL     OW22966   4.524   1.601   3.782  0.0421 -0.9331  0.1720
 3916SOL    HW122967   4.540   1.536   3.856 -0.3750 -0.7348  0.4351
 3916SOL    HW222968   4.470   1.678   3.816 -0.9823 -1.3129 -0.5781
 3917SOL     OW22969   9.260   3.360   6.430  0.5628  0.6437  0.2247
 3917SOL    HW122970   9.341   3.418   6.418  0.0642  1.1401 -0.8865
 3917SOL    HW222971   9.269   3.307   6.514  2.6849 -0.3326 -0.5755
 3918SOL     OW22972   7.669   1.767   1.434  0.2099  0.5403  0.0420
 3918SOL    HW122973   7.675   1.668   1.446  2.3476  0.8191  1.5486
 3918SOL    HW222974   7.574   1.792   1.413 -0.2033 -1.8786 -1.1182
 3919SOL     OW22975   7.267   0.613   2.516 -0.4208 -0.4309  0.0905
 3919SOL    HW122976   7.246   0.606   2.614 -1.4550  0.0598 -0.0903
 3919SOL    HW222977   7.359   0.576   2.499  0.1280  0.2986  1.3843
 3920SOL     OW22978   0.042   8.428   2.426  0.4500  0.4960 -0.1256
 3920SOL    HW122979   0.128   8.399   2.383 -0.7110  0.0897 -2.2059
 3920SOL    HW222980   0.035   8.528   2.422  1.4312  0.6415  1.2668
 3921SOL     OW22981   7.401   1.431   0.306  0.4240  0.4591 -0.5968
 3921SOL    HW122982   7.407   1.531   0.300  0.9285  0.3450 -2.2936
 3921SOL    HW222983   7.491   1.393   0.328  0.5693  0.2921 -1.4569
 3922SOL     OW22984   2.623   3.966   0.622  0.2816 -0.3796  0.9054
 3922SOL    HW122985   2.550   3.898   0.634 -0.2417 -0.4462 -2.3358
 3922SOL    HW222986   2.593   4.054   0.659 -0.9695 -0.6980  0.6726
 3923SOL     OW22987   7.807   5.842   4.760  0.9960 -0.1303 -0.2768
 3923SOL    HW122988   7.824   5.744   4.763 -0.7650 -0.4385 -0.0251
 3923SOL    HW222989   7.729   5.864   4.818 -0.9182  0.9034 -3.1102
 3924SOL     OW22990   3.161   9.506   5.878  0.2720  0.2845  0.2684
 3924SOL    HW122991   3.191   9.446   5.804 -0.0912  0.5509 -0.0966
 3924SOL    HW222992   3.069   9.540   5.858 -0.5114 -0.9394  1.6153
 3925SOL     OW22993   3.503   6.501   0.694 -0.0324  0.0075  0.2988
 3925SOL    HW122994   3.403   6.497   0.691 -0.0102 -0.7845  0.5177
 3925SOL    HW222995   3.533   6.593   0.668 -0.7753  0.0004 -0.6334
 3926SOL     OW22996   8.254   6.598   3.691 -0.0691  0.1828 -0.3745
 3926SOL    HW122997   8.336   6.556   3.730 -1.5784  1.1725  4.1137
 3926SOL    HW222998   8.173   6.546   3.719 -1.2263  0.7544 -2.5457
 3927SOL     OW22999   8.549   8.448   3.829 -0.3715  0.1307 -0.2463
 3927SOL    HW123000   8.462   8.463   3.781 -0.2252 -0.6834 -0.7715
 3927SOL    HW223001   8.548   8.498   3.916 -0.4589  1.9878 -1.2885
 3928SOL     OW23002   2.867   8.245   4.456  0.2128 -0.2161 -0.6993
 3928SOL    HW123003   2.913   8.196   4.382 -1.2027 -0.1267 -1.6669
 3928SOL    HW223004   2.927   8.317   4.491  1.4993 -1.2720 -0.6864
 3929SOL     OW23005   6.393   1.230   1.459  0.1955 -0.2605 -0.0949
 3929SOL    HW123006   6.367   1.165   1.387 -0.0921  0.2401 -0.4432
 3929SOL    HW223007   6.347   1.205   1.544 -2.2539  1.1968 -0.9386
 3930SOL     OW23008   0.787   1.986   4.212 -0.3462 -0.3816  0.0458
 3930SOL    HW123009   0.742   1.901   4.185 -0.9984  0.2766 -0.9550
 3930SOL    HW223010   0.729   2.064   4.189  0.6519  0.3968  0.1087
 3931SOL     OW23011   9.860   3.720   5.118  1.1372  0.7573  0.5267
 3931SOL    HW123012   9.924   3.649   5.145  1.2115  0.3792 -0.6085
 3931SOL    HW223013   9.781   3.719   5.180  1.0323 -0.4643  0.3893
 3932SOL     OW23014   3.408   5.784   2.611 -0.3394  0.2831 -0.3001
 3932SOL    HW123015   3.506   5.796   2.592 -0.2482  0.5695  0.3369
 3932SOL    HW223016   3.361   5.871   2.597 -0.1095  0.7475  1.7518
 3933SOL     OW23017   9.812   7.174   4.698  0.0987 -0.0915  0.0718
 3933SOL    HW123018   9.742   7.107   4.722  1.5075 -0.8956  2.0946
 3933SOL    HW223019   9.878   7.181   4.773 -0.4050  4.1055  0.2540
 3934SOL     OW23020   3.648   1.275   4.952 -0.0191 -0.2831  0.1733
 3934SOL    HW123021   3.595   1.257   4.868  1.3966  0.4253 -0.8914
 3934SOL    HW223022   3.636   1.370   4.978 -1.1687 -0.7263  1.2982
 3935SOL     OW23023   6.078   0.376   3.462  0.1116  0.6139 -0.1566
 3935SOL    HW123024   6.039   0.437   3.394 -1.4493  1.4755  1.4570
 3935SOL    HW223025   6.005   0.319   3.502  0.7287  1.1570  1.8074
 3936SOL     OW23026   9.182   3.599   4.698 -0.6635  0.4223 -0.2315
 3936SOL    HW123027   9.108   3.652   4.658 -0.6578 -0.5525 -1.5626
 3936SOL    HW223028   9.257   3.591   4.632 -0.2687 -0.4079  0.3060
 3937SOL     OW23029   3.708   7.747   0.233 -0.3370 -0.1312  0.2068
 3937SOL    HW123030   3.772   7.824   0.227  0.2577 -0.5269  1.3746
 3937SOL    HW223031   3.688   7.714   0.141  1.9438 -0.6366 -0.1540
 3938SOL     OW23032   3.666   1.380   5.859 -0.0897 -0.0188 -0.3968
 3938SOL    HW123033   3.618   1.344   5.939 -1.9101  1.5963 -0.7183
 3938SOL    HW223034   3.759   1.407   5.886  0.1549 -1.7765  0.5846
 3939SOL     OW23035   2.914   2.650   0.822 -0.3924 -0.0347  0.2554
 3939SOL    HW123036   2.978   2.636   0.897 -0.1126  0.6638  0.1511
 3939SOL    HW223037   2.837   2.587   0.832 -1.6360  1.7734  2.5638
 3940SOL     OW23038   8.496   9.779   4.550  0.2302 -0.2768  0.0799
 3940SOL    HW123039   8.463   9.698   4.501  0.8006 -1.0045  0.8596
 3940SOL    HW223040   8.582   9.756   4.596 -0.7053  0.1160  2.0756
 3941SOL     OW23041   0.675   0.767   4.720 -0.1886  0.5902  0.1766
 3941SOL    HW123042   0.600   0.769   4.653  0.7469 -1.0833 -0.9500
 3941SOL    HW223043   0.667   0.686   4.777  0.8745  0.2929 -0.0844
 3942SOL     OW23044   2.715   4.856   1.851  0.5859  0.8106 -0.5757
 3942SOL    HW123045   2.807   4.821   1.832 -0.3356 -2.3551  0.4464
 3942SOL    HW223046   2.650   4.815   1.787 -0.7825 -0.8496  1.7724
 3943SOL     OW23047   4.410   2.225   4.327 -0.0776 -0.1543  0.2606
 3943SOL    HW123048   4.351   2.300   4.297  0.3501  0.1330  0.1239
 3943SOL    HW223049   4.479   2.208   4.256  0.8837  0.4579  1.0239
 3944SOL     OW23050   3.354   6.291   0.475  0.3864 -0.2598 -0.3105
 3944SOL    HW123051   3.339   6.388   0.493 -0.1363 -0.2104 -0.9725
 3944SOL    HW223052   3.269   6.240   0.490  0.5938 -0.5749 -0.2036
 3945SOL     OW23053   2.622   1.235   4.554 -0.3321  0.3763  0.2963
 3945SOL    HW123054   2.665   1.200   4.637  1.4509 -0.0177 -0.7631
 3945SOL    HW223055   2.524   1.210   4.554  0.1781 -1.7737  1.1204
 3946SOL     OW23056   3.336   4.620   0.624  0.1169  0.1897  0.6814
 3946SOL    HW123057   3.385   4.700   0.658 -0.9538  0.1620  2.3725
 3946SOL    HW223058   3.243   4.619   0.663  0.4901 -2.4659  1.6292
 3947SOL     OW23059   9.763   3.454   3.190 -0.7229  0.5062 -0.3202
 3947SOL    HW123060   9.862   3.459   3.175 -0.7690 -1.3386 -1.3985
 3947SOL    HW223061   9.735   3.358   3.201 -2.4960  0.9460 -0.7522
 3948SOL     OW23062   0.799   0.168   3.641  0.1588 -0.2314  0.1510
 3948SOL    HW123063   0.810   0.247   3.701 -2.1946  0.4133 -0.2382
 3948SOL    HW223064   0.881   0.159   3.584  0.4936  1.9254  0.2218
 3949SOL     OW23065   0.113   9.683   6.700  0.4441  0.5063  0.3455
 3949SOL    HW123066   0.079   9.654   6.789 -0.3748 -1.3367 -0.5339
 3949SOL    HW223067   0.036   9.707   6.641  0.9000  0.1718 -0.3828
 3950SOL     OW23068   9.510   0.935   0.719 -0.4990  0.0424 -0.4221
 3950SOL    HW123069   9.561   0.949   0.634 -0.4880 -0.1149 -0.4407
 3950SOL    HW223070   9.490   1.024   0.760  0.6343  0.0716  0.0901
 3951SOL     OW23071   1.933   0.560   2.092  0.7311 -0.0274 -0.0277
 3951SOL    HW123072   1.901   0.555   2.187  0.0907  0.1866 -0.2380
 3951SOL    HW223073   1.918   0.652   2.056  0.3356 -0.3014 -0.5666
 3952SOL     OW23074   6.769   0.074   4.792 -0.2705  0.5588 -0.0079
 3952SOL    HW123075   6.824   0.036   4.867 -0.7121  0.9725  0.5228
 3952SOL    HW223076   6.695   0.129   4.829 -0.8241  0.3136 -0.7398
 3953SOL     OW23077   9.378   9.947   3.058  0.7336  0.4693 -0.0105
 3953SOL    HW123078   9.386  10.010   2.981  1.3177  0.7522  0.2808
 3953SOL    HW223079   9.469   9.918   3.087  0.4918 -0.1578  0.1492
 3954SOL     OW23080   4.634   0.637   1.360  0.0837 -0.4933  0.0011
 3954SOL    HW123081   4.636   0.538   1.375  1.2268 -0.7410 -1.6434
 3954SOL    HW223082   4.694   0.660   1.283 -0.9799  1.3628 -0.2980
 3955SOL     OW23083   0.355   2.655   2.547 -0.0248  0.1101  0.6757
 3955SOL    HW123084   0.427   2.709   2.502  0.9605 -0.3131  1.7087
 3955SOL    HW223085   0.266   2.682   2.512  0.6249  0.8281 -0.4474
 3956SOL     OW23086   0.328   4.657   0.335 -0.0592 -0.5712 -0.1871
 3956SOL    HW123087   0.256   4.693   0.277  1.2813  0.1993 -1.4018
 3956SOL    HW223088   0.346   4.561   0.311  0.3927 -0.2979 -0.9690
 3957SOL     OW23089   1.256   1.742   6.060  0.2345 -0.2801  0.3992
 3957SOL    HW123090   1.235   1.837   6.037 -3.5641 -1.0876  0.1657
 3957SOL    HW223091   1.255   1.730   6.159 -0.9483 -0.3785  0.3865
 3958SOL     OW23092   1.282   7.094   0.203 -0.0825  0.1810  0.6613
 3958SOL    HW123093   1.379   7.100   0.226  0.0561  1.4923 -0.1968
 3958SOL    HW223094   1.227   7.104   0.286  0.4960  0.1256  1.0548
 3959SOL     OW23095   1.796   7.473   4.899  0.0464 -0.5490 -0.3559
 3959SOL    HW123096   1.872   7.435   4.847 -0.5233 -0.1618 -1.4798
 3959SOL    HW223097   1.829   7.505   4.988  0.8305 -2.1575 -0.0505
 3960SOL     OW23098   2.854   1.763   0.244 -0.6083 -0.3397 -0.5001
 3960SOL    HW123099   2.837   1.813   0.329 -1.3114  0.1645 -0.9368
 3960SOL    HW223100   2.943   1.717   0.250  0.5301  1.8160 -0.5173
 3961SOL     OW23101   2.995   8.507   4.869  0.4778 -0.7691 -0.3871
 3961SOL    HW123102   3.083   8.462   4.888  0.0066 -1.8403 -0.7238
 3961SOL    HW223103   3.000   8.602   4.898  2.3052 -0.3812 -1.8776
 3962SOL     OW23104   6.822   4.886   6.565 -0.0116  0.4927  0.3500
 3962SOL    HW123105   6.803   4.793   6.599 -0.7965  1.0778  1.5287
 3962SOL    HW223106   6.843   4.946   6.642 -0.0242  1.4148 -0.3663
 3963SOL     OW23107   2.349   1.507   5.074 -0.1241 -0.2772  0.1662
 3963SOL    HW123108   2.352   1.421   5.024  0.6171 -0.0731 -0.1470
 3963SOL    HW223109   2.381   1.491   5.168  1.8447  0.0089 -0.4269
 3964SOL     OW23110   3.353   9.382   4.644 -0.1256  0.2649  0.1148
 3964SOL    HW123111   3.433   9.423   4.598  0.2133  0.3430  0.7716
 3964SOL    HW223112   3.271   9.401   4.590  0.5149 -1.2504 -1.4511
 3965SOL     OW23113   6.913   1.378   2.746  0.0291 -0.3167 -0.3062
 3965SOL    HW123114   6.871   1.328   2.822 -0.7253  0.7718 -0.0077
 3965SOL    HW223115   6.984   1.321   2.705  0.5117 -0.8927  1.2762
 3966SOL     OW23116   7.871   3.719   2.395 -0.3621 -0.1553 -0.0533
 3966SOL    HW123117   7.963   3.759   2.390 -0.4798  0.1760  0.3762
 3966SOL    HW223118   7.861   3.650   2.324 -0.0856  0.4427 -0.6874
 3967SOL     OW23119   2.385   5.713   0.458 -0.3464 -0.0754  0.1139
 3967SOL    HW123120   2.372   5.782   0.530  0.9559  1.6350 -1.2709
 3967SOL    HW223121   2.324   5.733   0.381  0.2107 -0.3274 -0.3953
 3968SOL     OW23122   6.721   0.065   3.424 -0.0853  0.2303  0.5706
 3968SOL    HW123123   6.712   0.154   3.469 -0.7910  1.5953 -2.1155
 3968SOL    HW223124   6.816   0.053   3.393 -0.3398  0.7744 -0.4459
 3969SOL     OW23125   4.300   1.930   2.354  0.2518 -0.0160  0.4953
 3969SOL    HW123126   4.399   1.926   2.369  0.5560  0.9857 -1.1073
 3969SOL    HW223127   4.270   1.849   2.304  0.4878  0.3064 -0.1779
 3970SOL     OW23128   2.351   3.964   6.375 -0.1854  0.0397  0.0099
 3970SOL    HW123129   2.322   3.997   6.464  0.0823  1.1189 -0.3045
 3970SOL    HW223130   2.273   3.964   6.312 -0.2705 -0.2967  0.1126
 3971SOL     OW23131   6.487   0.584   6.148  0.0071  0.4397  0.0502
 3971SOL    HW123132   6.404   0.618   6.105 -0.3391 -0.8727 -0.3415
 3971SOL    HW223133   6.528   0.513   6.091  0.2379 -0.4204  1.2660
 3972SOL     OW23134   8.442   1.467   4.566 -0.3154 -0.4088  0.3179
 3972SOL    HW123135   8.531   1.465   4.612  0.1791 -0.6823 -0.6377
 3972SOL    HW223136   8.409   1.561   4.561  1.1690  0.0387 -1.6708
 3973SOL     OW23137   5.398   1.027   4.417  0.2887 -0.0503  0.5527
 3973SOL    HW123138   5.335   1.096   4.381  0.2427 -0.0492  0.6361
 3973SOL    HW223139   5.462   1.000   4.345  0.4112  0.1986  0.5661
 3974SOL     OW23140   8.970   8.592   0.825 -0.2370  0.1003 -0.5860
 3974SOL    HW123141   8.926   8.587   0.735 -2.2116 -0.5983  0.3944
 3974SOL    HW223142   8.949   8.680   0.867 -0.8780 -0.3097 -0.0357
 3975SOL     OW23143   0.593   5.064   2.031  0.1041 -0.3264  0.1721
 3975SOL    HW123144   0.596   5.126   2.109 -0.7442 -1.3681  1.0361
 3975SOL    HW223145   0.642   4.980   2.052 -0.4302 -0.7575 -0.2907
 3976SOL     OW23146   4.204   6.794   2.488 -0.2184  0.7294 -0.4851
 3976SOL    HW123147   4.268   6.722   2.513 -0.5753  0.9490  1.1172
 3976SOL    HW223148   4.230   6.833   2.399  0.9168 -0.2552 -0.5950
 3977SOL     OW23149   1.049   7.347   1.134  0.3398  0.2112  0.5451
 3977SOL    HW123150   1.011   7.361   1.042 -0.2763  1.0345  0.9246
 3977SOL    HW223151   0.994   7.396   1.201  2.4434  2.0163  1.0337
 3978SOL     OW23152   4.267   1.663   6.715  0.2773 -0.0302  0.3988
 3978SOL    HW123153   4.218   1.587   6.673  0.0979 -1.2661  2.7810
 3978SOL    HW223154   4.357   1.633   6.746  0.4640  0.8993  0.7768
 3979SOL     OW23155   5.631   8.741   6.071 -0.0406 -0.0169  0.7988
 3979SOL    HW123156   5.619   8.692   5.984 -0.7150 -1.0172  1.4532
 3979SOL    HW223157   5.544   8.746   6.119 -0.2547  2.9242  0.1988
 3980SOL     OW23158   9.702   6.463   3.777 -0.0519  0.4483  0.2841
 3980SOL    HW123159   9.777   6.529   3.790 -0.3484  1.1100 -1.2853
 3980SOL    HW223160   9.693   6.441   3.680 -1.1790 -0.4836  0.5896
 3981SOL     OW23161   4.277   8.040   3.321 -0.5375 -0.1179  0.6714
 3981SOL    HW123162   4.264   8.107   3.393 -1.3143 -0.3119  0.7147
 3981SOL    HW223163   4.256   8.082   3.232  2.1351  0.6535  0.3528
 3982SOL     OW23164   9.726   3.689   1.282 -0.1630  0.5365  0.2983
 3982SOL    HW123165   9.762   3.764   1.226 -0.0001  0.5295  0.3904
 3982SOL    HW223166   9.719   3.720   1.377  0.9268  0.1015  0.5343
 3983SOL     OW23167   2.401   6.755   1.517 -0.2310  0.0432 -0.8316
 3983SOL    HW123168   2.493   6.773   1.481 -0.2683 -1.2278 -1.5947
 3983SOL    HW223169   2.369   6.666   1.484 -1.0722 -0.2675  0.7695
 3984SOL     OW23170   2.019   8.833   0.750  0.1891  0.1143  0.1724
 3984SOL    HW123171   1.936   8.881   0.722 -0.2869 -0.0912  1.2004
 3984SOL    HW223172   2.025   8.746   0.703 -1.5520 -1.0481  2.0333
 3985SOL     OW23173   3.235   7.384   3.943  0.0912  0.0288  0.0609
 3985SOL    HW123174   3.253   7.482   3.950  1.2193 -0.1818  0.2112
 3985SOL    HW223175   3.146   7.363   3.985 -0.6743  1.1379 -0.9946
 3986SOL     OW23176   3.131   6.992   4.871  0.2576 -0.4374  1.0110
 3986SOL    HW123177   3.095   7.005   4.778 -0.9923  0.0154  1.5362
 3986SOL    HW223178   3.141   6.894   4.889 -1.0264 -0.5901  0.9494
 3987SOL     OW23179   8.466   6.164   0.705 -0.3123 -0.1510  0.3944
 3987SOL    HW123180   8.439   6.190   0.797 -1.6665  0.9003 -0.2757
 3987SOL    HW223181   8.417   6.221   0.639 -0.7508 -2.1390 -1.0370
 3988SOL     OW23182   4.174   5.951   1.591  0.2285  0.7987 -0.3423
 3988SOL    HW123183   4.265   5.979   1.561  0.7409 -0.0363  0.4395
 3988SOL    HW223184   4.108   6.022   1.566  1.0557  1.3174 -1.0826
 3989SOL     OW23185   1.455   3.500   1.065 -0.0687  0.1816 -0.4059
 3989SOL    HW123186   1.499   3.558   1.133 -0.3548  0.3290 -0.3455
 3989SOL    HW223187   1.451   3.406   1.098  2.2709 -0.2923 -1.3646
 3990SOL     OW23188   8.727   1.145   2.489  0.7107  0.3659  0.0988
 3990SOL    HW123189   8.747   1.100   2.402  0.3741  0.9491 -0.2803
 3990SOL    HW223190   8.792   1.220   2.503 -0.7604  1.8505 -0.8287
 3991SOL     OW23191   1.322   3.397   1.972  0.0164  0.3516  0.1150
 3991SOL    HW123192   1.254   3.326   1.952  2.9368 -2.4789 -0.2484
 3991SOL    HW223193   1.351   3.390   2.067  0.9839  0.4215 -0.1648
 3992SOL     OW23194   4.372   4.266   2.733  0.0474  0.7173  0.5646
 3992SOL    HW123195   4.415   4.222   2.654  0.3048  1.2540  0.4013
 3992SOL    HW223196   4.306   4.203   2.775 -1.3861  1.0433 -1.1253
 3993SOL     OW23197   4.512   3.252   2.141 -0.2863  0.6402 -0.1146
 3993SOL    HW123198   4.477   3.345   2.153  0.3782  0.9519 -0.5583
 3993SOL    HW223199   4.530   3.212   2.231 -0.2884  1.0527  0.0732
 3994SOL     OW23200   3.934   3.604   2.473  0.4338  0.0803 -0.0617
 3994SOL    HW123201   3.942   3.699   2.504  1.3314 -0.4635  1.4382
 3994SOL    HW223202   4.021   3.575   2.433  0.5465 -0.4586  0.5529
 3995SOL     OW23203   0.819   1.001   0.666  0.1865  0.3089 -0.1631
 3995SOL    HW123204   0.756   1.048   0.728  0.7383  1.2926 -0.3262
 3995SOL    HW223205   0.913   1.022   0.693  0.5167 -2.6552  1.2680
 3996SOL     OW23206   9.972   7.599   4.182  0.6119 -0.2734  0.1772
 3996SOL    HW123207   9.949   7.528   4.248 -1.6213  0.8107  0.6398
 3996SOL    HW223208   9.995   7.557   4.094 -1.6028 -1.5669  0.1729
 3997SOL     OW23209   1.830   9.379   2.802  0.3104 -0.1599  0.0160
 3997SOL    HW123210   1.826   9.299   2.861 -2.6690  1.7407  2.5367
 3997SOL    HW223211   1.786   9.359   2.714 -1.1562 -1.0206  0.9444
 3998SOL     OW23212   5.145   2.732   4.628  0.0334  0.3123  0.0074
 3998SOL    HW123213   5.199   2.708   4.547 -0.2867 -0.9453  0.1518
 3998SOL    HW223214   5.185   2.687   4.708 -0.8688 -0.1282  0.2152
 3999SOL     OW23215   8.138   3.669   2.577  0.2263 -0.9534 -0.3511
 3999SOL    HW123216   8.233   3.678   2.606  0.6978  0.2171 -2.1610
 3999SOL    HW223217   8.130   3.598   2.508  0.1986  0.5388 -1.9030
 4000SOL     OW23218   9.444   0.224   0.069 -0.4691 -0.4597 -0.3111
 4000SOL    HW123219   9.484   0.162   0.138 -0.2010  0.2930  0.2199
 4000SOL    HW223220   9.423   0.172  -0.014  0.1769 -1.1763 -0.0360
 4001SOL     OW23221   3.925   3.412   6.423  0.5989  0.2579 -0.5039
 4001SOL    HW123222   3.935   3.504   6.460  4.7382  0.0175 -0.8605
 4001SOL    HW223223   3.904   3.417   6.326 -0.9754  0.8040 -0.1483
 4002SOL     OW23224   4.935   9.525   1.114  0.3084 -0.1715  0.5133
 4002SOL    HW123225   4.840   9.503   1.092  0.8502 -2.0925  0.0268
 4002SOL    HW223226   4.939   9.566   1.206 -0.9137 -0.5295  0.7396
 4003SOL     OW23227   4.746   1.427   2.421 -0.2551 -0.1629 -0.0206
 4003SOL    HW123228   4.654   1.465   2.430  0.5702  2.3245 -1.5000
 4003SOL    HW223229   4.749   1.336   2.463 -3.1651  0.0299  0.7203
 4004SOL     OW23230   2.168   9.712   5.560 -0.2204 -0.3579  0.4565
 4004SOL    HW123231   2.215   9.800   5.560 -1.2630  0.2285 -0.9027
 4004SOL    HW223232   2.232   9.640   5.532  0.0829  0.3205 -0.6353
 4005SOL     OW23233   0.770   7.797   2.549  0.3001 -0.1407 -0.8701
 4005SOL    HW123234   0.747   7.826   2.456  2.1357 -1.2077 -1.6679
 4005SOL    HW223235   0.689   7.759   2.593 -0.8558  1.3787 -1.6328
 4006SOL     OW23236   3.605   4.880   4.747  0.1436 -0.1276  0.0999
 4006SOL    HW123237   3.647   4.797   4.709 -0.0612 -0.8234  1.3508
 4006SOL    HW223238   3.588   4.866   4.845  2.6333  2.3971  0.9568
 4007SOL     OW23239   9.279   1.585   5.213  0.2243  0.7950  0.3345
 4007SOL    HW123240   9.370   1.606   5.250  0.2458  0.7470  0.3072
 4007SOL    HW223241   9.285   1.501   5.159 -0.0533  0.2459  1.1489
 4008SOL     OW23242   9.101   6.799   0.628 -0.3930 -0.6355  0.0262
 4008SOL    HW123243   9.177   6.854   0.663 -0.2553 -0.7873 -0.0324
 4008SOL    HW223244   9.134   6.708   0.605 -0.3424 -0.3237 -1.1508
 4009SOL     OW23245   0.978   9.848   1.472 -0.3955 -0.2000  0.0818
 4009SOL    HW123246   0.894   9.797   1.486 -0.4285 -0.3683 -0.7478
 4009SOL    HW223247   1.021   9.821   1.386 -0.0149  0.6126  0.0061
 4010SOL     OW23248   3.100   3.634   5.373 -0.9303  0.3948 -0.3760
 4010SOL    HW123249   3.091   3.692   5.454 -1.8355 -1.2828  0.7592
 4010SOL    HW223250   3.164   3.676   5.309  0.8861  1.0664  1.8199
 4011SOL     OW23251   5.810   1.957   3.862  0.7137  0.5896  0.0984
 4011SOL    HW123252   5.789   1.991   3.770  3.1572  1.8665 -0.0393
 4011SOL    HW223253   5.857   1.869   3.855  0.9115  0.6927  0.1063
 4012SOL     OW23254   7.562   9.068   5.911  0.1238 -0.4013 -0.0089
 4012SOL    HW123255   7.520   9.066   5.820 -3.4266  0.6847  1.5184
 4012SOL    HW223256   7.521   9.142   5.965  2.3200 -0.8965  2.4053
 4013SOL     OW23257   8.281   1.492   0.103  0.6983 -0.6715 -0.3662
 4013SOL    HW123258   8.328   1.407   0.080  2.4409  0.1967 -0.1107
 4013SOL    HW223259   8.203   1.472   0.161  0.9713 -2.1178 -0.4650
 4014SOL     OW23260   4.476   9.543   0.453  0.3207  0.0736  0.2296
 4014SOL    HW123261   4.560   9.593   0.472 -0.6661  0.8370  2.9017
 4014SOL    HW223262   4.482   9.451   0.492  0.4222 -0.3251 -0.7268
 4015SOL     OW23263   1.614   9.228   5.170  0.3233  0.4306  0.0292
 4015SOL    HW123264   1.586   9.132   5.165  0.2094  0.5489 -2.4029
 4015SOL    HW223265   1.713   9.235   5.164  0.1700  0.5923 -3.5911
 4016SOL     OW23266   3.721   0.773   6.565 -0.7207  0.4800 -0.5398
 4016SOL    HW123267   3.709   0.708   6.641  2.5159  1.0204  0.5296
 4016SOL    HW223268   3.695   0.865   6.595 -1.5303  0.3298 -0.7841
 4017SOL     OW23269   1.729   2.235   0.018 -1.0268  0.4408 -0.0870
 4017SOL    HW123270   1.666   2.311   0.034  0.4673  1.7675 -0.2870
 4017SOL    HW223271   1.699   2.155   0.069 -1.5348  1.7758  1.7700
 4018SOL     OW23272   2.037   6.776   2.390  0.7119  0.2678 -0.2136
 4018SOL    HW123273   2.074   6.715   2.320  0.1288  0.3927 -0.6321
 4018SOL    HW223274   2.013   6.723   2.471  0.7069  0.0160 -0.3769
 4019SOL     OW23275   2.334   0.061   6.301  0.5524  0.3613  0.2145
 4019SOL    HW123276   2.284  -0.007   6.248  0.2953 -0.5383  1.5962
 4019SOL    HW223277   2.427   0.028   6.318  0.2543  0.0907  1.3645
 4020SOL     OW23278   9.891   9.874   0.819 -0.1783 -0.1454 -0.2309
 4020SOL    HW123279   9.816   9.882   0.885  0.0962  2.2945 -0.1823
 4020SOL    HW223280   9.977   9.863   0.868 -0.3571 -1.8190 -0.2679
 4021SOL     OW23281   3.780   5.488   6.379 -0.5249  0.0045 -0.3039
 4021SOL    HW123282   3.710   5.533   6.434 -0.5512 -0.2756 -0.1071
 4021SOL    HW223283   3.866   5.540   6.385 -0.9898  0.9381 -1.3936
 4022SOL     OW23284   3.604   3.252   2.970 -1.0496  0.0685  0.6081
 4022SOL    HW123285   3.699   3.280   2.987 -1.4540  0.4992  2.2679
 4022SOL    HW223286   3.550   3.266   3.053 -2.0262 -2.5244  0.4477
 4023SOL     OW23287   3.947   5.799   0.786  0.1783  0.0978  0.1318
 4023SOL    HW123288   3.988   5.710   0.768 -0.7890  0.0269 -1.9460
 4023SOL    HW223289   3.848   5.793   0.774  0.1744  1.6063 -0.7982
 4024SOL     OW23290   5.356   2.648   4.457 -0.0791 -0.2399  0.3335
 4024SOL    HW123291   5.409   2.564   4.446  2.7354  1.8367 -2.4411
 4024SOL    HW223292   5.330   2.684   4.367 -2.0591  1.3982  1.5060
 4025SOL     OW23293   8.111   2.774   6.570 -0.3329  0.2052 -0.0857
 4025SOL    HW123294   8.032   2.718   6.545  0.5124 -0.1506 -2.0620
 4025SOL    HW223295   8.083   2.869   6.579 -0.8716  0.2077 -1.5473
 4026SOL     OW23296   1.482   1.292   4.217  0.1188 -0.2314 -0.1787
 4026SOL    HW123297   1.513   1.211   4.166 -0.7833  0.4925 -1.9137
 4026SOL    HW223298   1.411   1.265   4.282 -0.2766 -0.8126 -0.8498
 4027SOL     OW23299   7.950   7.666   2.542 -0.4330  0.3185  0.2019
 4027SOL    HW123300   7.920   7.758   2.566  0.0798 -0.0763  2.4950
 4027SOL    HW223301   7.965   7.660   2.443 -0.6595  2.6233  0.0049
 4028SOL     OW23302   0.660   1.615   5.261 -0.1323 -0.5950  0.2483
 4028SOL    HW123303   0.729   1.679   5.296  0.4553 -0.8107 -0.4806
 4028SOL    HW223304   0.703   1.526   5.244 -0.8049 -1.0030  0.6613
 4029SOL     OW23305   5.266   1.841   4.236  0.2862 -0.1168  0.1691
 4029SOL    HW123306   5.247   1.887   4.150 -0.4132 -0.1274  0.3117
 4029SOL    HW223307   5.188   1.854   4.298 -0.2799 -2.1553 -0.0710
 4030SOL     OW23308   3.665   3.930   0.818  0.1523  0.0241 -0.4318
 4030SOL    HW123309   3.572   3.894   0.826  0.0577  0.0465 -1.3358
 4030SOL    HW223310   3.697   3.918   0.724  0.4229  1.5266 -0.5516
 4031SOL     OW23311   5.733   9.813   5.345 -0.4151  0.5043 -0.2828
 4031SOL    HW123312   5.728   9.913   5.344 -0.3808  0.4983 -1.4643
 4031SOL    HW223313   5.777   9.781   5.261  0.3113 -0.4671  0.4503
 4032SOL     OW23314   2.246   5.550   2.995 -0.2759  0.8041  0.0698
 4032SOL    HW123315   2.156   5.519   3.025  0.0607 -0.9940 -0.6933
 4032SOL    HW223316   2.315   5.486   3.028  0.6025  1.5617 -0.2941
 4033SOL     OW23317   6.223   1.641   2.003  0.5642 -0.1259 -0.8275
 4033SOL    HW123318   6.285   1.580   2.052  1.0888  1.0602  0.0156
 4033SOL    HW223319   6.146   1.665   2.061  0.6342  0.4302 -0.9556
 4034SOL     OW23320   8.330   9.450   5.452 -0.2937 -0.0987 -0.4394
 4034SOL    HW123321   8.312   9.361   5.411  0.3617  0.1268 -1.2462
 4034SOL    HW223322   8.428   9.457   5.473 -0.5030  0.0799  0.4641
 4035SOL     OW23323   3.755   2.407   5.501  0.5569 -0.1732 -0.4676
 4035SOL    HW123324   3.829   2.416   5.435 -0.1495 -1.5803 -1.4874
 4035SOL    HW223325   3.713   2.316   5.491 -0.2463  0.0057  1.1908
 4036SOL     OW23326   0.216   1.920   1.585 -0.0797  0.0428 -0.7770
 4036SOL    HW123327   0.221   2.015   1.614  0.3233  0.1565 -1.2120
 4036SOL    HW223328   0.279   1.905   1.509 -2.3240  0.1321 -2.7021
 4037SOL     OW23329   7.974   9.050   5.598  0.1679  0.1836 -0.6296
 4037SOL    HW123330   8.034   9.031   5.521 -0.7356  0.8699 -1.5063
 4037SOL    HW223331   7.998   9.139   5.637  0.2167  0.1111 -0.4935
 4038SOL     OW23332   8.296   1.288   3.494 -0.0507  0.2613  0.2191
 4038SOL    HW123333   8.219   1.250   3.546  0.0793  0.2299  0.3917
 4038SOL    HW223334   8.263   1.358   3.431 -0.4905 -1.1763 -1.1704
 4039SOL     OW23335   3.629   8.117   0.466 -0.4578  0.1929  0.5181
 4039SOL    HW123336   3.585   8.064   0.394  1.6608 -0.5616 -0.2314
 4039SOL    HW223337   3.664   8.055   0.537 -0.6350  0.7884  1.1300
 4040SOL     OW23338   3.120   3.812   6.235  0.1588 -0.1799  0.1592
 4040SOL    HW123339   3.129   3.901   6.280  1.1103 -1.2645  2.1707
 4040SOL    HW223340   3.033   3.808   6.186 -0.3349  1.5004  0.8681
 4041SOL     OW23341   8.204   2.112   3.157 -0.3726  0.4734  0.1758
 4041SOL    HW123342   8.205   2.166   3.241 -0.1899  2.5778 -1.1399
 4041SOL    HW223343   8.163   2.022   3.176 -1.6227  1.4146  2.1859
 4042SOL     OW23344   4.400   9.018   2.240  0.0041 -0.4087 -0.0815
 4042SOL    HW123345   4.494   8.984   2.237  0.5435  1.0193  0.2615
 4042SOL    HW223346   4.379   9.064   2.153 -0.5129 -1.0687 -0.3091
 4043SOL     OW23347   6.280   0.510   3.595  0.1749  0.2161 -0.4292
 4043SOL    HW123348   6.321   0.572   3.528  1.5736 -0.9085 -0.6378
 4043SOL    HW223349   6.198   0.467   3.555  0.5111  0.1982 -1.1014
 4044SOL     OW23350   4.152   7.290   4.586 -0.3735 -0.6594  0.0511
 4044SOL    HW123351   4.214   7.212   4.599  1.2344  0.2410 -2.0128
 4044SOL    HW223352   4.140   7.307   4.488  1.3644  3.2855  0.4365
 4045SOL     OW23353   8.060   9.308   5.737  0.0131  0.3860  0.7082
 4045SOL    HW123354   8.000   9.283   5.813 -1.1600  1.8472  0.2928
 4045SOL    HW223355   8.066   9.408   5.731  0.1417  0.2943 -1.0619
 4046SOL     OW23356   4.155   3.527   5.438 -0.9845  0.0170  0.1752
 4046SOL    HW123357   4.240   3.526   5.491 -0.8773  0.2356  0.0029
 4046SOL    HW223358   4.127   3.432   5.421 -0.8724 -0.0561  0.3876
 4047SOL     OW23359   3.063   2.044   4.872  0.2849  0.1209  0.1355
 4047SOL    HW123360   2.990   2.051   4.941  0.9307  2.1349  0.6594
 4047SOL    HW223361   3.152   2.044   4.918  0.6806 -0.0742 -0.6213
 4048SOL     OW23362   0.224   4.817   2.537 -0.9997 -0.0772 -0.3398
 4048SOL    HW123363   0.128   4.794   2.554 -0.6825  0.2671  2.0172
 4048SOL    HW223364   0.254   4.885   2.603  1.0964 -0.7601 -0.5610
 4049SOL     OW23365   1.825   5.173   6.283  0.2508  0.6262  0.3257
 4049SOL    HW123366   1.778   5.103   6.230  0.1157  1.0489 -0.1239
 4049SOL    HW223367   1.904   5.134   6.329  1.4960  0.6423 -1.7331
 4050SOL     OW23368   2.488   1.384   5.809  0.0239  0.0766  0.0510
 4050SOL    HW123369   2.394   1.379   5.777  0.1492  1.0622 -0.4678
 4050SOL    HW223370   2.539   1.305   5.774  0.2742  1.3503 -2.5518
 4051SOL     OW23371   7.723   4.758   6.297 -0.7331 -0.5421  0.3479
 4051SOL    HW123372   7.671   4.813   6.362  1.0408  0.2312  1.1405
 4051SOL    HW223373   7.683   4.767   6.206 -2.3157 -0.4177  1.0489
 4052SOL     OW23374   2.366   7.182   0.111 -0.1799 -0.2390  0.5653
 4052SOL    HW123375   2.466   7.174   0.111 -0.0818  0.8257 -0.3721
 4052SOL    HW223376   2.328   7.116   0.047 -0.1664 -1.4938  1.8304
 4053SOL     OW23377   8.483   8.224   5.015 -0.1001  0.0572 -0.4715
 4053SOL    HW123378   8.406   8.181   5.062  0.5379 -0.0407  0.5076
 4053SOL    HW223379   8.567   8.174   5.036  0.1661 -0.1257 -1.9185
 4054SOL     OW23380   8.369   7.468   2.605  0.6179 -0.1239  0.2259
 4054SOL    HW123381   8.278   7.453   2.644  0.4188  1.3306  0.3734
 4054SOL    HW223382   8.394   7.564   2.617  2.5320 -0.6893  0.9394
 4055SOL     OW23383   5.183   3.576   0.129  0.7055  0.0254  0.2475
 4055SOL    HW123384   5.115   3.503   0.140  0.1609  0.7338  1.7275
 4055SOL    HW223385   5.137   3.660   0.102  0.9287  0.6040  1.6339
 4056SOL     OW23386   7.758   0.373   5.971  0.5628  0.0219 -0.7334
 4056SOL    HW123387   7.856   0.382   5.987  0.3833  1.5089 -0.3279
 4056SOL    HW223388   7.740   0.295   5.912  1.6899 -2.5928  2.2289
 4057SOL     OW23389   1.658   3.275   5.450  0.2350 -0.3776 -0.0284
 4057SOL    HW123390   1.624   3.197   5.397  0.5568  0.1797 -1.0475
 4057SOL    HW223391   1.718   3.331   5.394  0.9673 -0.0440  1.0693
 4058SOL     OW23392   7.368   4.174   6.662  0.4570  0.0301  0.4030
 4058SOL    HW123393   7.292   4.121   6.701 -0.7569  1.5105  0.0837
 4058SOL    HW223394   7.393   4.136   6.573 -0.5833  0.1503  0.0603
 4059SOL     OW23395   8.847   1.866   3.844  0.7358  0.0638  0.2133
 4059SOL    HW123396   8.847   1.824   3.935 -0.4358 -1.6170 -0.5608
 4059SOL    HW223397   8.773   1.933   3.838 -0.3412 -1.1381 -0.0926
 4060SOL     OW23398   8.791   1.061   2.236 -0.0535  0.1064  0.3631
 4060SOL    HW123399   8.779   0.976   2.185 -0.7245 -0.0770  0.8179
 4060SOL    HW223400   8.803   1.137   2.172  1.2973 -0.4327 -0.0392
 4061SOL     OW23401   9.251   8.671   5.122  0.3661  0.0537  0.4209
 4061SOL    HW123402   9.342   8.630   5.119  0.5384  0.3096  2.0710
 4061SOL    HW223403   9.222   8.682   5.217 -0.9363  0.9806 -0.0718
 4062SOL     OW23404   0.528   6.928   5.164  0.0627 -0.6612  0.6388
 4062SOL    HW123405   0.463   6.917   5.239 -3.2900  1.4991 -1.8049
 4062SOL    HW223406   0.563   7.021   5.163 -0.1757 -0.5774 -0.6576
 4063SOL     OW23407   5.477   5.344   1.055 -0.7637 -0.0292  0.0693
 4063SOL    HW123408   5.574   5.361   1.073 -0.9172  2.0479 -0.8167
 4063SOL    HW223409   5.464   5.327   0.957 -1.5008  1.5077 -0.1124
 4064SOL     OW23410   7.492   9.029   3.293 -0.0534 -0.7134 -0.2017
 4064SOL    HW123411   7.533   9.042   3.203  0.2564 -1.6301 -0.1968
 4064SOL    HW223412   7.493   8.932   3.317 -1.4997 -0.6644  0.1387
 4065SOL     OW23413   1.466   7.540   2.123  0.6863 -0.1619 -0.5189
 4065SOL    HW123414   1.420   7.591   2.051 -0.2972 -0.4194 -0.0872
 4065SOL    HW223415   1.541   7.486   2.084 -0.6069 -1.2542 -1.5474
 4066SOL     OW23416   8.132   3.942   2.541  0.1806 -0.2262 -0.8576
 4066SOL    HW123417   8.121   3.846   2.567  2.2465  0.1154  1.3909
 4066SOL    HW223418   8.045   3.989   2.551 -0.6473 -1.6459 -1.1462
 4067SOL     OW23419   1.531   9.083   3.501  0.4765  0.9781 -0.1073
 4067SOL    HW123420   1.541   8.999   3.447  0.2605  1.5173 -0.9935
 4067SOL    HW223421   1.457   9.138   3.464 -0.2860  0.9330  1.3138
 4068SOL     OW23422   6.318   0.390   1.162 -0.4391 -0.2245 -0.2274
 4068SOL    HW123423   6.376   0.447   1.220 -0.6222 -0.4627  0.1987
 4068SOL    HW223424   6.296   0.439   1.078  0.9400 -0.3998 -0.7070
 4069SOL     OW23425   5.976   7.516   4.656  0.5620 -0.4871 -0.1501
 4069SOL    HW123426   5.962   7.489   4.751 -0.6426  0.4855 -0.0448
 4069SOL    HW223427   5.933   7.450   4.595  1.5375 -1.2377 -0.0364
 4070SOL     OW23428   3.500   0.680   0.859 -0.5006 -0.2527 -0.2720
 4070SOL    HW123429   3.570   0.647   0.923 -0.6516  1.7573  1.0124
 4070SOL    HW223430   3.507   0.780   0.852 -2.1903 -0.1953 -1.3822
 4071SOL     OW23431   3.064   5.492   1.865  0.4310  0.1705  0.4567
 4071SOL    HW123432   3.054   5.447   1.776 -0.0370  0.1565  0.5145
 4071SOL    HW223433   2.973   5.505   1.906  0.5424  1.3615  0.3379
 4072SOL     OW23434   7.737   6.431   5.744  0.0831  0.4650 -0.5025
 4072SOL    HW123435   7.809   6.428   5.814  1.0387  0.3380 -1.4710
 4072SOL    HW223436   7.756   6.506   5.680  0.9462 -1.3688 -2.4341
 4073SOL     OW23437   9.266   6.441   4.280 -0.3097  0.2171 -0.3049
 4073SOL    HW123438   9.277   6.422   4.377  0.0799 -1.2666 -0.6219
 4073SOL    HW223439   9.207   6.520   4.267  0.9647  1.4400  1.1781
 4074SOL     OW23440   2.574   5.127   2.302  0.6160  0.2067  0.0138
 4074SOL    HW123441   2.594   5.055   2.235 -1.5124 -1.6128  1.2774
 4074SOL    HW223442   2.655   5.141   2.360  1.3007 -0.6344 -0.7188
 4075SOL     OW23443   0.488   2.512   3.491 -0.1064 -0.4201 -0.7715
 4075SOL    HW123444   0.392   2.509   3.461 -0.0872 -0.1929 -0.8549
 4075SOL    HW223445   0.546   2.471   3.421 -0.2248 -1.2565 -0.3877
 4076SOL     OW23446   0.195   9.036   1.462  0.2792  0.5790 -0.7747
 4076SOL    HW123447   0.106   9.041   1.509  1.0989  0.2766  0.8467
 4076SOL    HW223448   0.220   9.126   1.427  0.9854  1.4417  1.8867
 4077SOL     OW23449   2.286   1.750   3.015  0.2166  0.0744 -0.1691
 4077SOL    HW123450   2.257   1.708   2.929 -2.0506  1.1128  0.0437
 4077SOL    HW223451   2.348   1.689   3.063 -0.1547 -1.4261 -1.5676
 4078SOL     OW23452   9.368   0.943   4.600 -0.9194  0.5121  0.6312
 4078SOL    HW123453   9.397   0.980   4.688 -0.4090 -1.0297  1.1411
 4078SOL    HW223454   9.305   0.867   4.615 -0.9052  0.3004 -0.3422
 4079SOL     OW23455   1.893   7.596   6.454  0.3852 -0.1409 -0.4367
 4079SOL    HW123456   1.831   7.673   6.469 -1.9805 -2.5388  2.9329
 4079SOL    HW223457   1.987   7.624   6.474 -0.1696  2.3748 -1.2138
 4080SOL     OW23458   1.382   0.713   5.619  0.1906 -0.0639  0.3838
 4080SOL    HW123459   1.476   0.701   5.650  0.1609 -0.2661  0.3914
 4080SOL    HW223460   1.343   0.794   5.662 -0.7381 -1.8307  2.9632
 4081SOL     OW23461   2.406   6.428   6.389  0.1293 -0.1340 -0.6459
 4081SOL    HW123462   2.429   6.426   6.486 -2.1813  1.3560 -0.0413
 4081SOL    HW223463   2.472   6.486   6.340 -1.1869  2.6548  0.7662
 4082SOL     OW23464   0.095   6.619   3.963 -0.2027  0.0275 -0.1272
 4082SOL    HW123465   0.113   6.698   4.022  0.3051 -0.9982  1.1015
 4082SOL    HW223466   0.181   6.591   3.919 -0.3264 -0.0235 -0.3361
 4083SOL     OW23467   3.406   8.406   1.130 -0.0341 -0.1349 -0.5952
 4083SOL    HW123468   3.310   8.392   1.157  0.2542 -2.0865 -0.4982
 4083SOL    HW223469   3.414   8.493   1.081 -1.9515 -0.1962 -1.0734
 4084SOL     OW23470   4.398   9.036   4.482 -0.1270  0.0374 -0.4364
 4084SOL    HW123471   4.403   8.937   4.465 -0.1116  0.0510 -0.5090
 4084SOL    HW223472   4.411   9.085   4.396 -0.4175  0.0955 -0.4462
 4085SOL     OW23473   5.935   1.885   3.337 -0.5002  0.2707  0.8906
 4085SOL    HW123474   6.016   1.832   3.313 -0.0086  1.0269  0.8642
 4085SOL    HW223475   5.912   1.947   3.262 -0.2153  1.1222  1.4978
 4086SOL     OW23476   1.762   6.814   1.147 -0.1049  0.3127  0.2352
 4086SOL    HW123477   1.701   6.838   1.071  0.5748  0.2767 -0.3193
 4086SOL    HW223478   1.823   6.740   1.119  0.6391  0.7949  0.5700
 4087SOL     OW23479   1.013   2.789   4.430  0.5094  0.3430  0.1403
 4087SOL    HW123480   0.974   2.774   4.340 -0.0879 -0.5067  0.5290
 4087SOL    HW223481   0.941   2.818   4.493  0.9448  1.0553  0.3147
 4088SOL     OW23482   8.703   3.464   0.009  0.7295  0.8087  0.1793
 4088SOL    HW123483   8.732   3.372  -0.017  0.6167  0.6564  0.5882
 4088SOL    HW223484   8.619   3.459   0.062 -1.6333  1.4139 -3.3083
 4089SOL     OW23485   2.949   0.255   6.133  0.5534 -0.1793 -0.5333
 4089SOL    HW123486   2.883   0.224   6.064  0.2503  0.3830 -0.4966
 4089SOL    HW223487   3.002   0.332   6.097  1.3107 -0.7376 -0.6231
 4090SOL     OW23488   4.938   0.472   5.751 -0.3503  0.9227  0.2532
 4090SOL    HW123489   4.944   0.511   5.843 -2.3335  0.9059  0.4128
 4090SOL    HW223490   4.843   0.448   5.731  0.2695 -0.3428 -1.2884
 4091SOL     OW23491   3.866   0.218   3.181 -0.2539  0.9673 -0.0330
 4091SOL    HW123492   3.870   0.318   3.193 -1.4565  0.9461  0.6268
 4091SOL    HW223493   3.770   0.188   3.186  0.0174 -0.1129 -1.1708
 4092SOL     OW23494   4.171   4.252   4.376  0.2364  0.4758 -0.5080
 4092SOL    HW123495   4.113   4.171   4.384  0.2759  0.5138  0.1817
 4092SOL    HW223496   4.131   4.327   4.429  1.0617  0.4192  0.1949
 4093SOL     OW23497   9.782   2.777   4.445 -0.1288  0.2275 -0.4846
 4093SOL    HW123498   9.833   2.863   4.446 -0.2374  0.3082 -1.6659
 4093SOL    HW223499   9.827   2.711   4.504  0.9071  0.5512 -0.9085
 4094SOL     OW23500   0.835   6.808   4.932 -0.3976 -0.1029  0.3498
 4094SOL    HW123501   0.862   6.773   5.021  1.7603 -3.0026 -1.3647
 4094SOL    HW223502   0.872   6.901   4.920  1.4013 -0.6452  1.5282
 4095SOL     OW23503   9.083   8.825   5.764  0.7589  0.0399  0.3810
 4095SOL    HW123504   9.009   8.757   5.762  1.2319 -0.4489 -0.6747
 4095SOL    HW223505   9.169   8.781   5.787  1.0750  0.2675 -0.3472
 4096SOL     OW23506   9.400   0.468   0.917 -0.2086  0.4019  0.6475
 4096SOL    HW123507   9.361   0.381   0.887  0.5250  0.4301 -0.4130
 4096SOL    HW223508   9.357   0.543   0.867 -1.6180  0.7396  2.3456
 4097SOL     OW23509   3.856   4.309   4.258  0.3315 -0.0072  0.3285
 4097SOL    HW123510   3.767   4.345   4.288  0.7363  1.2921  0.0194
 4097SOL    HW223511   3.904   4.269   4.336 -1.0055 -1.7854  0.2803
 4098SOL     OW23512   9.722   9.540   1.506  0.2456  0.0685 -0.2694
 4098SOL    HW123513   9.813   9.534   1.546  0.5195 -0.9591 -1.0437
 4098SOL    HW223514   9.656   9.497   1.568  0.3351  0.5069  0.1315
 4099SOL     OW23515   5.170   1.637   1.283 -0.4191  0.1714  0.1452
 4099SOL    HW123516   5.129   1.580   1.211  0.8558 -1.0242  0.3611
 4099SOL    HW223517   5.269   1.639   1.272 -0.1204 -0.7639  2.3907
 4100SOL     OW23518   3.553   0.659   2.691  0.1613 -0.3424 -0.0028
 4100SOL    HW123519   3.547   0.666   2.591 -2.2730  0.0489  0.1384
 4100SOL    HW223520   3.563   0.563   2.717 -1.8391 -0.7102 -0.5313
 4101SOL     OW23521   0.003   4.584   4.326 -0.5029 -0.0318  0.0560
 4101SOL    HW123522  -0.007   4.501   4.381 -0.0272  0.3484  0.7305
 4101SOL    HW223523   0.099   4.595   4.300 -0.5006  0.4892  0.2682
 4102SOL     OW23524   4.517   4.763   3.014  0.0816 -0.2893 -0.1261
 4102SOL    HW123525   4.453   4.729   3.083  0.0634 -1.7019 -0.8117
 4102SOL    HW223526   4.469   4.819   2.947  0.1385  1.2965  1.1198
 4103SOL     OW23527   3.110   8.872   0.001 -0.6107  0.1373 -0.0073
 4103SOL    HW123528   3.189   8.923  -0.032 -0.4503  1.0536  1.7278
 4103SOL    HW223529   3.130   8.834   0.091 -1.5845 -0.9713 -0.2538
 4104SOL     OW23530   0.663   0.181   5.235 -0.4644 -0.9890  0.8199
 4104SOL    HW123531   0.608   0.156   5.155  1.5032 -1.9571 -0.2799
 4104SOL    HW223532   0.666   0.280   5.244  0.2248 -0.8186 -1.0106
 4105SOL     OW23533   3.703   6.199   1.288 -0.6096  0.4733  0.2260
 4105SOL    HW123534   3.689   6.253   1.205  3.1888  1.7297  0.3526
 4105SOL    HW223535   3.708   6.260   1.367 -1.6878 -0.5386  1.1010
 4106SOL     OW23536   6.957   1.899   0.311  0.0694 -0.2698 -0.0238
 4106SOL    HW123537   7.018   1.926   0.237  1.5845 -0.5733  1.0973
 4106SOL    HW223538   6.966   1.963   0.388 -0.6833 -0.5707  0.3250
 4107SOL     OW23539   3.969   4.270   5.878 -0.0647  0.5478  0.0093
 4107SOL    HW123540   3.913   4.301   5.801 -1.0504 -1.4280 -0.0863
 4107SOL    HW223541   3.934   4.312   5.962 -0.2986  1.0692 -0.3453
 4108SOL     OW23542   6.962   0.676   1.417 -0.0689 -0.0847  0.2485
 4108SOL    HW123543   6.977   0.673   1.516 -0.1669  0.6387  0.2863
 4108SOL    HW223544   7.025   0.741   1.376 -1.2354  0.9416  0.0668
 4109SOL     OW23545   8.375   3.696   4.391 -0.4876  0.3548  0.3649
 4109SOL    HW123546   8.465   3.663   4.364 -0.2340  0.8922  0.5515
 4109SOL    HW223547   8.308   3.670   4.321 -0.5471 -1.7564  1.1716
 4110SOL     OW23548   2.908   0.970   2.045  0.2488 -0.2003  0.0939
 4110SOL    HW123549   2.808   0.979   2.039  0.2595  1.7704  2.2714
 4110SOL    HW223550   2.931   0.880   2.080 -0.7958 -0.4381  0.2089
 4111SOL     OW23551   9.981   0.651   0.721 -0.1643 -0.2424  0.3754
 4111SOL    HW123552   9.957   0.584   0.792  1.2014  0.0799  1.1586
 4111SOL    HW223553  10.006   0.737   0.764  1.3698 -0.2610 -0.4716
 4112SOL     OW23554   9.773   6.910   1.762  0.0320  0.1651 -0.5123
 4112SOL    HW123555   9.776   7.007   1.783  0.6236  0.2043 -0.7620
 4112SOL    HW223556   9.707   6.865   1.823  0.9940  0.4492  0.7750
 4113SOL     OW23557   1.693   7.441   2.956  0.6057 -0.1013  0.0211
 4113SOL    HW123558   1.605   7.472   2.991 -0.6495 -1.1347 -2.1496
 4113SOL    HW223559   1.742   7.392   3.029 -0.5110  0.6289  1.2880
 4114SOL     OW23560   8.066   8.884   4.573  0.1997 -0.0980 -0.2830
 4114SOL    HW123561   8.061   8.936   4.658 -1.3758  1.7750 -1.4628
 4114SOL    HW223562   8.087   8.945   4.497 -3.2761 -0.8032 -1.9504
 4115SOL     OW23563   4.511   9.687   1.685 -0.2076  0.3107  0.2854
 4115SOL    HW123564   4.565   9.743   1.748 -0.8225  1.7454 -0.4406
 4115SOL    HW223565   4.570   9.657   1.610  1.0012 -2.9100  2.3741
 4116SOL     OW23566   9.874   7.113   2.351  0.4164  0.4022  0.1307
 4116SOL    HW123567   9.898   7.065   2.267 -1.8295 -0.6489  0.0544
 4116SOL    HW223568   9.788   7.162   2.338  2.3558  4.0130  0.4068
 4117SOL     OW23569   5.846   8.419   3.033 -0.0595 -0.2634 -0.1146
 4117SOL    HW123570   5.826   8.371   2.947  1.0297 -1.2830  0.1948
 4117SOL    HW223571   5.927   8.380   3.075 -0.1661  0.7182  1.0291
 4118SOL     OW23572   3.055   3.619   2.429 -0.3719 -0.4101  0.0144
 4118SOL    HW123573   2.964   3.581   2.411 -1.4179  1.6210  0.8506
 4118SOL    HW223574   3.072   3.621   2.527  0.4085 -0.3893 -0.1130
 4119SOL     OW23575   1.852   6.054   1.456 -0.0394  0.4246 -0.3090
 4119SOL    HW123576   1.950   6.047   1.477  0.2199 -1.2074 -1.9643
 4119SOL    HW223577   1.817   5.965   1.429 -1.9995  1.0114  0.1973
 4120SOL     OW23578   9.203   3.743   6.337 -0.2683 -0.4748  0.1899
 4120SOL    HW123579   9.193   3.725   6.434  0.1764 -1.6670  0.0208
 4120SOL    HW223580   9.113   3.754   6.295 -0.4908 -0.9221  0.5593
 4121SOL     OW23581   6.725   1.536   4.882 -0.6295 -0.1013 -0.3261
 4121SOL    HW123582   6.720   1.481   4.798  2.0578 -1.5012  0.3760
 4121SOL    HW223583   6.666   1.496   4.952 -0.2610 -0.9151 -0.4751
 4122SOL     OW23584   2.287   8.065   6.235 -0.4078  0.4767 -0.3508
 4122SOL    HW123585   2.343   7.995   6.191 -0.6323 -0.9564  1.5505
 4122SOL    HW223586   2.325   8.156   6.216  0.5095 -0.2302 -1.9579
 4123SOL     OW23587   2.840   8.897   5.041  0.4113 -0.0054  0.0021
 4123SOL    HW123588   2.884   8.970   5.094  0.0946  0.7983 -0.8234
 4123SOL    HW223589   2.910   8.841   4.997  0.6879 -0.8761  1.5099
 4124SOL     OW23590   1.896   0.802   1.272  0.4007 -0.0944 -0.0207
 4124SOL    HW123591   1.803   0.813   1.237  0.2298 -0.5164  0.3030
 4124SOL    HW223592   1.934   0.716   1.238  0.2344 -0.5087  0.8318
 4125SOL     OW23593   9.285   7.867   3.694 -0.4734  0.5302 -0.1942
 4125SOL    HW123594   9.296   7.966   3.680 -0.2418  0.7487  1.3518
 4125SOL    HW223595   9.190   7.847   3.716 -0.3467  0.5439  0.3867
 4126SOL     OW23596   8.916   6.682   1.385  0.0598  0.0843  0.2833
 4126SOL    HW123597   8.846   6.611   1.393  0.0646 -0.0017 -0.3560
 4126SOL    HW223598   8.959   6.676   1.294 -0.6445  1.5289 -0.1612
 4127SOL     OW23599   1.448   3.637   6.467 -0.1480  0.3821 -0.1254
 4127SOL    HW123600   1.442   3.599   6.375 -0.9763  0.5805 -0.1549
 4127SOL    HW223601   1.362   3.683   6.490  1.2343  3.2602 -0.5163
 4128SOL     OW23602   2.079   4.219   2.508  0.1562 -0.6360 -0.1468
 4128SOL    HW123603   2.057   4.122   2.498 -1.6169 -0.1312 -1.6032
 4128SOL    HW223604   2.120   4.236   2.597 -2.4207 -2.2313  1.3943
 4129SOL     OW23605   0.934   3.808   1.344 -0.0953 -0.0697  0.1903
 4129SOL    HW123606   0.949   3.746   1.267 -4.3923 -0.1062 -0.7468
 4129SOL    HW223607   0.976   3.896   1.324  1.4472 -0.9968 -0.8121
 4130SOL     OW23608   0.293   5.101   5.469  0.1768  0.4720  0.0421
 4130SOL    HW123609   0.242   5.169   5.519 -0.5501  0.9640 -1.3358
 4130SOL    HW223610   0.280   5.115   5.370 -0.1948 -1.7992 -0.2622
 4131SOL     OW23611   4.748   9.647   0.471  0.4172 -0.2945  0.3666
 4131SOL    HW123612   4.766   9.718   0.402  1.9760 -0.3937  0.6504
 4131SOL    HW223613   4.776   9.558   0.435  1.7733 -0.2666  1.3313
 4132SOL     OW23614   0.917   4.349   3.085  0.1698  0.1255 -0.0813
 4132SOL    HW123615   0.980   4.424   3.065  1.6255 -0.8814  0.5443
 4132SOL    HW223616   0.909   4.290   3.005 -0.2535  0.4617 -0.2813
 4133SOL     OW23617   5.094   1.571   0.997 -0.1952 -0.1132  0.7282
 4133SOL    HW123618   5.060   1.650   0.945  1.7535  0.6636  0.5739
 4133SOL    HW223619   5.170   1.529   0.947  1.0380  0.0316  2.4240
 4134SOL     OW23620   9.699   0.396   2.635  0.2054 -0.0480  0.2663
 4134SOL    HW123621   9.673   0.455   2.711 -1.5273  0.6473 -0.8317
 4134SOL    HW223622   9.657   0.430   2.551 -0.0245 -2.2735 -0.5505
 4135SOL     OW23623   0.088   0.112   4.349 -0.1733 -0.1053 -0.1866
 4135SOL    HW123624   0.173   0.127   4.399  1.0766 -0.6271 -2.0952
 4135SOL    HW223625   0.108   0.059   4.266 -2.3596 -0.2076 -0.6594
 4136SOL     OW23626   3.956   5.997   0.451  0.4699 -0.4991 -0.3525
 4136SOL    HW123627   3.954   5.967   0.355  0.3055 -2.2489  0.1722
 4136SOL    HW223628   3.893   5.940   0.505 -0.4003  1.3129  0.5719
 4137SOL     OW23629   7.789   3.578   3.884 -0.1957 -0.5934 -0.4168
 4137SOL    HW123630   7.726   3.507   3.851 -0.0746 -0.8854 -0.0150
 4137SOL    HW223631   7.868   3.535   3.928  0.8611 -0.2576 -1.9467
 4138SOL     OW23632   8.935   7.787   3.487 -0.0424  0.0835 -0.5918
 4138SOL    HW123633   8.986   7.863   3.527 -1.6839  0.5470  0.6349
 4138SOL    HW223634   8.961   7.702   3.532  0.3715  0.1773 -0.6513
 4139SOL     OW23635   8.787   9.443   2.217  0.3825  0.2962 -0.4425
 4139SOL    HW123636   8.810   9.478   2.308  2.3398 -1.3323 -0.2694
 4139SOL    HW223637   8.743   9.353   2.225  0.8198  0.0184 -1.1047
 4140SOL     OW23638   2.987   6.224   3.519 -0.4336 -0.2353 -0.2322
 4140SOL    HW123639   3.011   6.194   3.611  0.4716 -0.9231 -0.6798
 4140SOL    HW223640   2.909   6.286   3.523 -0.7657 -0.7208  0.9400
 4141SOL     OW23641   8.732   6.869   0.384  0.4050  0.2802 -0.0018
 4141SOL    HW123642   8.831   6.871   0.395  0.2799  2.5275  1.0662
 4141SOL    HW223643   8.701   6.959   0.353 -1.3746 -0.2196  0.3014
 4142SOL     OW23644   8.101   5.422   5.150 -0.1845  0.3474  0.2351
 4142SOL    HW123645   8.068   5.455   5.061  1.1395  1.4813  0.1596
 4142SOL    HW223646   8.054   5.337   5.172 -0.8977  0.3060 -1.3204
 4143SOL     OW23647   5.622   9.090   3.352 -0.0802  0.7911 -0.4022
 4143SOL    HW123648   5.683   9.059   3.425  0.8249  1.7639 -0.7258
 4143SOL    HW223649   5.673   9.097   3.266 -1.0006  0.2086 -1.0083
 4144SOL     OW23650   2.504   6.998   5.955  0.2273 -0.8309 -0.0951
 4144SOL    HW123651   2.528   6.927   5.889 -3.3507 -2.4551  0.2228
 4144SOL    HW223652   2.411   7.029   5.939  0.8654  2.0391  1.3729
 4145SOL     OW23653   7.643   4.478   2.269 -0.3660  0.0840  0.4631
 4145SOL    HW123654   7.657   4.484   2.368  1.4784 -0.6037  0.2573
 4145SOL    HW223655   7.590   4.395   2.248  0.3190 -0.4422  0.7806
 4146SOL     OW23656   4.086   9.904   4.185  0.2564  0.3646 -0.2400
 4146SOL    HW123657   4.104   9.974   4.255 -0.0621 -0.2361  0.4446
 4146SOL    HW223658   3.989   9.882   4.184  0.0609  1.2262 -1.6923
 4147SOL     OW23659   5.057   2.777   2.896  0.0360  0.5146 -0.7517
 4147SOL    HW123660   4.964   2.777   2.859  0.4916 -1.9185 -2.0608
 4147SOL    HW223661   5.122   2.777   2.820  1.1064  1.3535  0.1514
 4148SOL     OW23662   3.264   2.146   6.463 -0.1763 -0.0553 -0.5100
 4148SOL    HW123663   3.320   2.229   6.470  0.6732 -0.5120 -1.7589
 4148SOL    HW223664   3.274   2.093   6.547 -1.1497  1.3509  0.5225
 4149SOL     OW23665   4.619   9.344   1.972  0.3415 -0.3095  0.2450
 4149SOL    HW123666   4.629   9.394   2.058  0.0768 -0.0614  0.1352
 4149SOL    HW223667   4.708   9.335   1.928  0.0465  2.5245 -1.0882
 4150SOL     OW23668   9.222   9.436   3.155 -0.3828 -0.1803  0.2783
 4150SOL    HW123669   9.160   9.513   3.167  0.0484  0.2919 -0.5044
 4150SOL    HW223670   9.186   9.374   3.085  0.1081  0.1805 -0.2954
 4151SOL     OW23671   0.289   4.269   5.976 -0.2535  0.3727  0.0441
 4151SOL    HW123672   0.286   4.200   5.904  2.2657 -0.8309  1.0418
 4151SOL    HW223673   0.255   4.229   6.062 -2.8213  1.6719 -0.3107
 4152SOL     OW23674   9.531   1.355   6.191  0.4185 -0.7894  0.4124
 4152SOL    HW123675   9.463   1.359   6.117  0.1595  0.5838  0.7079
 4152SOL    HW223676   9.620   1.330   6.154 -0.0270 -1.6284 -0.1247
 4153SOL     OW23677   5.060   2.954   4.507  0.2160  0.7044  0.3682
 4153SOL    HW123678   5.097   2.876   4.558  0.5618 -0.0704 -1.0383
 4153SOL    HW223679   5.028   3.024   4.571 -1.6939 -1.3088  1.6780
 4154SOL     OW23680   6.968   7.995   4.410 -0.1795 -0.2489  0.0970
 4154SOL    HW123681   6.891   7.991   4.345  0.3422 -0.2265 -0.5279
 4154SOL    HW223682   6.933   8.013   4.502 -0.7778  1.5636 -0.4648
 4155SOL     OW23683   8.387   6.502   5.466 -0.1170 -0.4445 -0.1494
 4155SOL    HW123684   8.485   6.510   5.483 -0.2102 -1.1491  0.7369
 4155SOL    HW223685   8.370   6.507   5.368  0.9808 -2.0761 -0.4444
 4156SOL     OW23686   9.747   9.770   4.967 -0.2045 -0.3012 -0.3683
 4156SOL    HW123687   9.712   9.677   4.975 -2.4155  0.5946  1.1027
 4156SOL    HW223688   9.809   9.776   4.889  0.4563 -3.1290 -0.1204
 4157SOL     OW23689   3.875   2.542   6.719 -0.1260 -0.2991  0.1534
 4157SOL    HW123690   3.850   2.630   6.677 -0.8532 -0.6846 -0.2253
 4157SOL    HW223691   3.953   2.503   6.670 -0.0034 -0.0154  0.1205
 4158SOL     OW23692   0.601   1.539   0.172 -0.0793  0.1750  0.4442
 4158SOL    HW123693   0.669   1.578   0.110 -0.2125 -0.2411  0.0359
 4158SOL    HW223694   0.626   1.561   0.266  1.4859 -1.3301  0.3862
 4159SOL     OW23695   0.834   7.005   1.113 -0.4451  0.2689 -0.4607
 4159SOL    HW123696   0.801   6.911   1.122 -2.2061  1.0464  1.6586
 4159SOL    HW223697   0.905   7.021   1.182 -2.4899  1.4327  1.4478
 4160SOL     OW23698   1.319   2.419   1.208  0.7389  0.5658  0.3245
 4160SOL    HW123699   1.314   2.487   1.136 -1.5530 -0.5387 -0.6138
 4160SOL    HW223700   1.372   2.340   1.177 -1.2419 -0.4218 -0.6319
 4161SOL     OW23701   3.197   3.695   6.499  0.8957  0.2783 -0.3267
 4161SOL    HW123702   3.172   3.764   6.431  2.5033  0.4586 -0.7585
 4161SOL    HW223703   3.287   3.658   6.478  1.5240  0.4859  1.8260
 4162SOL     OW23704   3.740   4.857   3.042 -0.1370 -0.5465  0.0906
 4162SOL    HW123705   3.706   4.854   3.136  0.3339  0.4490  0.2993
 4162SOL    HW223706   3.731   4.950   3.005  1.5559 -0.4426 -0.1369
 4163SOL     OW23707   9.623   6.682   2.691  0.5057  0.4566  0.0973
 4163SOL    HW123708   9.565   6.708   2.613  0.4426  1.0782  0.3475
 4163SOL    HW223709   9.718   6.707   2.672  0.9281 -1.8422 -0.8981
 4164SOL     OW23710   3.469   7.619   6.225  0.4430  0.0654 -0.4910
 4164SOL    HW123711   3.405   7.592   6.298  0.0637  4.0120  0.7100
 4164SOL    HW223712   3.561   7.624   6.262  0.7177 -0.7799 -1.0401
 4165SOL     OW23713   4.120   3.784   1.626 -0.1565  0.1922  0.3023
 4165SOL    HW123714   4.061   3.733   1.688  0.2949  0.5160  1.0025
 4165SOL    HW223715   4.152   3.724   1.552  1.7252 -1.0010  2.0237
 4166SOL     OW23716   1.553   9.485   3.256 -0.1334  0.2102  0.6607
 4166SOL    HW123717   1.596   9.395   3.245  0.7659  0.6027  0.9275
 4166SOL    HW223718   1.624   9.555   3.263 -0.8317  0.9989  0.0067
 4167SOL     OW23719   0.490   4.630   2.554 -0.1198 -0.2149  0.9318
 4167SOL    HW123720   0.417   4.564   2.539 -0.7466  0.7533 -0.3451
 4167SOL    HW223721   0.453   4.723   2.549  1.5237  0.3660 -2.0517
 4168SOL     OW23722   4.085   1.438   1.474 -0.5614  0.1428  0.1026
 4168SOL    HW123723   4.070   1.534   1.451 -1.5339  0.1562  0.7543
 4168SOL    HW223724   4.174   1.428   1.518 -0.9250  0.9299  1.0424
 4169SOL     OW23725   0.942   6.592   0.773 -0.1485 -0.8570  0.2118
 4169SOL    HW123726   0.845   6.599   0.751 -0.4307 -2.1836  0.9661
 4169SOL    HW223727   0.961   6.643   0.857  0.0133  0.2848 -0.5177
 4170SOL     OW23728   2.053   0.339   0.894  0.3810  0.7559  0.3950
 4170SOL    HW123729   2.130   0.402   0.901  1.6197 -0.6219 -0.4268
 4170SOL    HW223730   1.986   0.374   0.829  0.8709  1.3945  0.2320
 4171SOL     OW23731   4.298   7.780   3.210  0.2144 -0.4419 -0.1631
 4171SOL    HW123732   4.303   7.871   3.251  0.0613 -0.7947  0.6505
 4171SOL    HW223733   4.284   7.711   3.282  1.7153 -1.2516 -0.6175
 4172SOL     OW23734   3.815   4.884   2.670 -0.1224  0.1002 -0.0744
 4172SOL    HW123735   3.882   4.815   2.641 -0.8275 -0.7416  0.2494
 4172SOL    HW223736   3.735   4.878   2.611  0.3848  1.6280 -0.9496
 4173SOL     OW23737   8.945   6.342   5.297 -0.0365 -0.0416  0.9776
 4173SOL    HW123738   8.950   6.356   5.198 -0.6447  1.2591  1.1206
 4173SOL    HW223739   8.964   6.246   5.318 -0.6621 -0.4952 -0.4612
 4174SOL     OW23740   7.230   2.025   6.530  0.1867 -0.2289 -0.0515
 4174SOL    HW123741   7.208   2.047   6.435 -0.7368  0.4251  0.3052
 4174SOL    HW223742   7.189   1.936   6.553 -0.6793  0.2062  0.1093
 4175SOL     OW23743   1.094   2.138   1.804 -0.3819  0.5243 -0.6067
 4175SOL    HW123744   1.038   2.194   1.866  0.2159  1.3025 -0.7661
 4175SOL    HW223745   1.124   2.056   1.852 -0.4556  0.8132 -0.0598
 4176SOL     OW23746   0.286   2.820   6.420  0.7998 -0.7063  0.8409
 4176SOL    HW123747   0.324   2.904   6.381 -1.2977 -0.8543 -1.6672
 4176SOL    HW223748   0.186   2.824   6.415  0.6822 -3.3940  0.5701
 4177SOL     OW23749   8.468   0.365   4.905 -0.5806  0.2608  0.1804
 4177SOL    HW123750   8.384   0.335   4.860 -0.6208 -1.4700  1.3184
 4177SOL    HW223751   8.503   0.290   4.961  1.8875  0.8747 -0.5068
 4178SOL     OW23752   0.103   1.014   3.545 -0.2249 -0.7411 -0.3332
 4178SOL    HW123753   0.024   1.000   3.604  0.5141 -0.8955  0.6369
 4178SOL    HW223754   0.082   0.984   3.452 -1.8408  0.7417 -0.4597
 4179SOL     OW23755   9.568   2.244   4.938  0.4427  0.2144  0.2351
 4179SOL    HW123756   9.471   2.255   4.915  0.6332 -2.5762 -2.2009
 4179SOL    HW223757   9.576   2.185   5.019  0.1209 -1.6686 -1.0660
 4180SOL     OW23758   3.419   6.394   6.398  0.0683  0.2462 -0.2247
 4180SOL    HW123759   3.438   6.491   6.387  0.1139  0.4216  1.3195
 4180SOL    HW223760   3.412   6.372   6.495 -3.0526 -0.7055 -0.5976
 4181SOL     OW23761   0.433   1.733   2.604 -0.0104 -0.5715 -0.1367
 4181SOL    HW123762   0.533   1.729   2.610  0.0403  0.7683  0.0268
 4181SOL    HW223763   0.406   1.756   2.510 -0.1126  0.6196  0.1816
 4182SOL     OW23764   0.514   6.798   4.934  0.5712 -0.2751 -0.0374
 4182SOL    HW123765   0.514   6.820   5.032 -0.1089  0.4308 -0.1898
 4182SOL    HW223766   0.597   6.836   4.892 -0.0432  1.0524 -0.0813
 4183SOL     OW23767   2.851   0.748   3.005 -0.1168  0.2267 -0.4413
 4183SOL    HW123768   2.806   0.754   3.094 -1.7067 -1.1521 -1.1216
 4183SOL    HW223769   2.949   0.735   3.017 -0.1360  1.4125  1.0893
 4184SOL     OW23770   7.303   8.853   4.307 -0.2808  0.1329  0.3211
 4184SOL    HW123771   7.400   8.872   4.320  0.0416 -0.1645 -1.5815
 4184SOL    HW223772   7.290   8.802   4.222 -2.2827  1.6849 -0.3315
 4185SOL     OW23773   0.914   9.292   0.107  0.1952  0.3335 -0.0593
 4185SOL    HW123774   0.866   9.335   0.031  1.1841  2.3128  0.3782
 4185SOL    HW223775   0.938   9.198   0.084 -1.9662  0.0162 -1.0899
 4186SOL     OW23776   9.656   2.803   3.076 -0.4369 -0.3250 -0.0590
 4186SOL    HW123777   9.596   2.865   3.127 -1.4568 -0.7886 -0.6917
 4186SOL    HW223778   9.646   2.710   3.112 -0.3309 -0.4573 -0.3686
 4187SOL     OW23779   8.487   7.453   6.412  0.0975  0.1960 -0.1388
 4187SOL    HW123780   8.585   7.431   6.413  0.0485 -0.4266 -3.0587
 4187SOL    HW223781   8.471   7.537   6.463  2.5164  1.5493 -1.5028
 4188SOL     OW23782   3.713   4.011   2.881 -0.3630  0.2896  0.6405
 4188SOL    HW123783   3.692   4.063   2.798  0.9882 -3.4599 -2.2423
 4188SOL    HW223784   3.628   3.981   2.924 -1.1901 -1.6581 -2.1388
 4189SOL     OW23785   4.816   4.141   2.896  0.2812  0.4028  0.2431
 4189SOL    HW123786   4.828   4.206   2.971  0.0900 -0.4596  1.0330
 4189SOL    HW223787   4.728   4.094   2.905  0.9403 -0.8439  0.3736
 4190SOL     OW23788   0.513   2.355   3.215 -0.0933  0.1102  0.1230
 4190SOL    HW123789   0.612   2.371   3.226  0.3961 -2.5928  0.0918
 4190SOL    HW223790   0.482   2.290   3.285 -1.7461  0.5141 -0.2154
 4191SOL     OW23791   5.876   7.466   4.211 -0.1435 -0.6918 -0.6273
 4191SOL    HW123792   5.962   7.439   4.253 -0.7685  0.7550  1.6798
 4191SOL    HW223793   5.893   7.514   4.125  1.3627  0.1682  0.1491
 4192SOL     OW23794   3.920   8.283   2.102  0.0900 -0.0969 -0.8040
 4192SOL    HW123795   3.919   8.369   2.051 -2.1746  0.0911 -0.5112
 4192SOL    HW223796   3.938   8.207   2.039  1.7882  0.5353 -1.1141
 4193SOL     OW23797   8.636   9.561   1.333  0.2999  0.3328  0.3069
 4193SOL    HW123798   8.638   9.613   1.418 -2.4956 -0.0374  0.6296
 4193SOL    HW223799   8.633   9.624   1.255  1.2191  0.6552  0.5284
 4194SOL     OW23800   3.343   5.383   0.957  0.2850 -0.6890 -0.0746
 4194SOL    HW123801   3.282   5.377   1.036  0.5191  1.3866  0.2818
 4194SOL    HW223802   3.425   5.329   0.975 -0.1752 -1.1707  0.6131
 4195SOL     OW23803   8.237   0.304   2.882  0.5465  0.1520 -0.1339
 4195SOL    HW123804   8.209   0.296   2.786  0.6819  0.1708 -0.1747
 4195SOL    HW223805   8.182   0.375   2.927 -0.3310 -0.6709  0.1093
 4196SOL     OW23806   9.020   3.556   1.078 -0.0588  0.1434  0.1548
 4196SOL    HW123807   9.052   3.553   0.984 -0.3967  0.4404  0.0293
 4196SOL    HW223808   9.047   3.472   1.125 -0.3807 -0.2609 -0.3702
 4197SOL     OW23809   3.679   6.900   4.792  0.8256 -0.0516  0.1581
 4197SOL    HW123810   3.649   6.968   4.726 -1.0949  0.4498  1.5033
 4197SOL    HW223811   3.713   6.819   4.744 -2.8781 -0.7497 -1.4967
 4198SOL     OW23812   2.315   6.346   1.612 -0.2722  0.1131  0.1922
 4198SOL    HW123813   2.271   6.296   1.686 -0.9638 -0.1378 -0.3797
 4198SOL    HW223814   2.396   6.392   1.646 -0.7637  0.2585  1.1794
 4199SOL     OW23815   9.296   1.999   6.064  0.1576  0.3537  0.2914
 4199SOL    HW123816   9.326   1.905   6.050 -0.1457 -0.2349  3.1682
 4199SOL    HW223817   9.373   2.054   6.098 -0.2164  0.6018  0.7440
 4200SOL     OW23818   8.330   8.407   4.142  0.6571 -0.4600  0.7082
 4200SOL    HW123819   8.281   8.344   4.203  2.3430 -0.6720  1.8907
 4200SOL    HW223820   8.327   8.499   4.181  0.6945 -0.3585  0.4726
 4201SOL     OW23821   1.448   9.536   1.880 -0.2809 -0.2716 -0.4416
 4201SOL    HW123822   1.521   9.485   1.925 -1.1674 -0.0017  1.3434
 4201SOL    HW223823   1.364   9.530   1.935 -0.9643  1.3492 -1.2834
 4202SOL     OW23824   2.575   8.216   4.069 -0.1516 -0.2787  0.2403
 4202SOL    HW123825   2.600   8.260   4.155 -1.3350 -0.7786  0.8354
 4202SOL    HW223826   2.494   8.261   4.031  0.0893 -0.3653 -0.3806
 4203SOL     OW23827   2.641   0.971   2.071  0.0304 -0.2761 -0.4439
 4203SOL    HW123828   2.601   0.911   2.140  0.2868 -0.4376 -0.4349
 4203SOL    HW223829   2.582   0.973   1.990 -0.8524  0.8065  0.2117
 4204SOL     OW23830   9.115   0.446   5.800  0.3571 -0.4030 -0.2139
 4204SOL    HW123831   9.158   0.356   5.806  1.8438  0.2721 -0.5904
 4204SOL    HW223832   9.132   0.485   5.710 -3.4991 -1.3246 -1.4235
 4205SOL     OW23833   7.767   2.601   3.183 -0.1144  0.3892  0.0926
 4205SOL    HW123834   7.799   2.565   3.271 -1.7301  0.6918  0.8366
 4205SOL    HW223835   7.799   2.543   3.109 -1.0562 -1.4823  1.1188
 4206SOL     OW23836   9.592   4.735   4.596  0.2800 -0.1084  0.1534
 4206SOL    HW123837   9.516   4.763   4.538  1.0664 -0.4088 -1.0387
 4206SOL    HW223838   9.570   4.754   4.692 -0.5964  1.3567 -0.3346
 4207SOL     OW23839   3.316   5.222   6.733 -0.0713  0.0355 -0.6144
 4207SOL    HW123840   3.348   5.142   6.682 -0.8867 -0.7653  0.1135
 4207SOL    HW223841   3.384   5.250   6.800 -0.0706 -0.4734 -0.4016
 4208SOL     OW23842   4.863   0.214   2.993  0.7329  0.0912  0.6221
 4208SOL    HW123843   4.951   0.179   3.026 -0.0848 -0.3579  2.3861
 4208SOL    HW223844   4.814   0.141   2.945  1.6602  0.5802 -1.1464
 4209SOL     OW23845   4.484   1.022   0.242 -0.2717 -0.5099 -0.0673
 4209SOL    HW123846   4.428   0.948   0.206 -0.2277 -1.0706  1.0072
 4209SOL    HW223847   4.568   0.985   0.281  0.3968  0.2336 -0.7615
 4210SOL     OW23848   9.182   0.758   4.603  0.4574 -0.3909 -0.9116
 4210SOL    HW123849   9.220   0.680   4.653  0.6864 -0.6858 -1.5472
 4210SOL    HW223850   9.150   0.727   4.513  0.2402  0.1812 -1.0290
 4211SOL     OW23851   9.133   7.970   6.324 -0.3587  0.4076  0.1387
 4211SOL    HW123852   9.051   7.985   6.378 -0.1675  1.4804  0.1329
 4211SOL    HW223853   9.190   7.901   6.369 -1.2323 -0.3072  0.1662
 4212SOL     OW23854   7.864   3.399   3.252 -0.5125  0.1694 -0.2989
 4212SOL    HW123855   7.884   3.306   3.220 -2.0521 -0.4691  0.5642
 4212SOL    HW223856   7.937   3.461   3.221  0.7796 -1.4018 -0.4749
 4213SOL     OW23857   0.063   3.919   3.640 -0.2348  0.1416 -0.2995
 4213SOL    HW123858  -0.035   3.923   3.620 -0.2381 -0.1228 -0.3296
 4213SOL    HW223859   0.093   4.008   3.675 -0.6023  0.0437  0.2624
 4214SOL     OW23860   1.682   3.155   1.041  0.6467  0.2893 -0.0226
 4214SOL    HW123861   1.734   3.153   1.127  1.1422  0.5983 -0.3114
 4214SOL    HW223862   1.588   3.182   1.059  0.5120 -0.5318  0.5439
 4215SOL     OW23863   3.538   2.529   3.915  0.5865  0.7815 -0.2765
 4215SOL    HW123864   3.449   2.489   3.896  1.0866 -1.2712  1.5162
 4215SOL    HW223865   3.584   2.551   3.829 -0.5432 -0.6186 -1.2638
 4216SOL     OW23866   3.546   6.688   2.983  0.4455 -0.2414  0.1814
 4216SOL    HW123867   3.524   6.751   2.909 -0.0464 -0.2455  0.3183
 4216SOL    HW223868   3.479   6.699   3.057  0.8006 -0.3947  0.5239
 4217SOL     OW23869   1.373   3.849   1.147 -0.2483 -0.0519  0.2512
 4217SOL    HW123870   1.282   3.876   1.178 -0.1928 -0.8206  1.0951
 4217SOL    HW223871   1.367   3.812   1.054 -0.7828 -0.0314  0.2735
 4218SOL     OW23872   4.268   0.048   4.654 -0.4683 -0.1259  0.6938
 4218SOL    HW123873   4.361   0.040   4.617 -0.2690 -2.5846  1.6348
 4218SOL    HW223874   4.207  -0.015   4.606 -1.6642  1.3916  0.1610
 4219SOL     OW23875   4.164   3.487   2.391 -0.3125 -0.0742 -0.0233
 4219SOL    HW123876   4.255   3.521   2.413  0.5175 -2.5987  0.6234
 4219SOL    HW223877   4.156   3.474   2.292  0.5772 -1.3064  0.0588
 4220SOL     OW23878   2.721   9.533   1.175  0.1945  0.2343 -0.3981
 4220SOL    HW123879   2.627   9.504   1.195  1.2425 -1.9037  1.6868
 4220SOL    HW223880   2.775   9.530   1.259  2.0948  1.6436 -1.5414
 4221SOL     OW23881   8.946   0.050   3.150  0.2408  0.2193 -0.0423
 4221SOL    HW123882   8.994   0.028   3.064 -1.0756 -0.1096 -0.7020
 4221SOL    HW223883   8.864  -0.007   3.158  0.2714  0.3519  1.3748
 4222SOL     OW23884   7.581   2.358   4.661 -0.2683 -0.0597  0.1185
 4222SOL    HW123885   7.524   2.409   4.597 -0.7683  0.8710  1.2783
 4222SOL    HW223886   7.666   2.331   4.617 -1.2318 -0.7022 -1.3695
 4223SOL     OW23887   3.732   3.649   5.886  0.3161  0.0179  0.6700
 4223SOL    HW123888   3.822   3.611   5.863 -0.7041 -0.9010 -2.0542
 4223SOL    HW223889   3.677   3.579   5.933  1.0984  0.6715  2.5882
 4224SOL     OW23890   6.073   0.896   5.025 -0.1229 -0.0518 -0.7809
 4224SOL    HW123891   6.023   0.981   5.044 -0.2293 -0.2603 -0.1151
 4224SOL    HW223892   6.032   0.851   4.945 -1.5335 -0.6256  0.2362
 4225SOL     OW23893   9.772   2.092   4.664  0.0885  0.2585 -0.1038
 4225SOL    HW123894   9.698   2.113   4.729 -0.8684 -1.4864 -0.6108
 4225SOL    HW223895   9.812   2.178   4.631 -1.2445  1.2094  0.7005
 4226SOL     OW23896   9.537   3.184   2.895  0.0393 -0.7605  0.0893
 4226SOL    HW123897   9.629   3.157   2.927  0.0820  1.0578  1.6051
 4226SOL    HW223898   9.545   3.260   2.831 -0.4646  0.6869  1.6820
 4227SOL     OW23899   4.009   1.293   4.651  0.4176 -0.7276 -0.2157
 4227SOL    HW123900   3.988   1.205   4.693 -1.0954 -0.5668 -0.6251
 4227SOL    HW223901   3.924   1.342   4.632  1.2085  0.3402 -1.0177
 4228SOL     OW23902   0.851   5.342   0.573 -0.1062  0.0847 -0.3967
 4228SOL    HW123903   0.900   5.274   0.627  0.6690  0.7122 -0.3014
 4228SOL    HW223904   0.853   5.430   0.620 -1.3962  0.0999 -0.3603
 4229SOL     OW23905   4.319   4.730   4.451 -0.4652  0.2300  0.1407
 4229SOL    HW123906   4.288   4.799   4.516 -2.4703 -0.8452  0.3849
 4229SOL    HW223907   4.341   4.645   4.500 -0.1127  0.0277 -0.3661
 4230SOL     OW23908   3.904   5.280   4.309 -0.2987  0.2575  0.2221
 4230SOL    HW123909   3.815   5.249   4.344 -1.2867 -0.1797 -2.5789
 4230SOL    HW223910   3.921   5.238   4.220  1.2051  2.9507 -0.7903
 4231SOL     OW23911   1.722   9.746   5.609 -0.4644  0.5978  0.0201
 4231SOL    HW123912   1.752   9.682   5.538  2.4722  1.5533  0.3185
 4231SOL    HW223913   1.642   9.796   5.577 -0.6031 -0.6467 -1.6589
 4232SOL     OW23914   9.978   8.808   2.678 -0.4932 -0.5438  0.4853
 4232SOL    HW123915   9.947   8.902   2.663 -0.2252 -0.3134  1.3587
 4232SOL    HW223916   9.972   8.786   2.775 -0.0358 -1.2492  0.3567
 4233SOL     OW23917   3.459   4.959   2.878 -0.8206 -0.1606 -0.2568
 4233SOL    HW123918   3.503   4.893   2.817 -0.4104  1.2065 -1.4420
 4233SOL    HW223919   3.528   5.002   2.936 -0.7990  0.8237 -1.0102
 4234SOL     OW23920   1.241   1.814   4.425 -0.0409 -0.0003 -0.5168
 4234SOL    HW123921   1.284   1.856   4.504  1.1078 -1.3121 -0.4352
 4234SOL    HW223922   1.222   1.718   4.444 -0.3557 -0.1607 -1.6034
 4235SOL     OW23923   6.529   1.431   3.162 -0.3083 -0.2320  0.1347
 4235SOL    HW123924   6.590   1.488   3.216  0.7804 -1.5500  0.3094
 4235SOL    HW223925   6.515   1.472   3.072 -0.7852  1.0968  0.8006
 4236SOL     OW23926   0.861   0.349   6.130 -0.0122 -0.0484  0.3338
 4236SOL    HW123927   0.786   0.416   6.126 -0.3491 -0.4871 -1.7507
 4236SOL    HW223928   0.946   0.392   6.100  0.2723  0.0666  1.2983
 4237SOL     OW23929   7.453   2.992   0.703 -0.6781  0.2134  0.0997
 4237SOL    HW123930   7.459   3.087   0.671 -1.7154  0.4361  0.5472
 4237SOL    HW223931   7.380   2.984   0.771 -0.3464 -0.8332  0.3412
 4238SOL     OW23932   4.598   0.217   5.349  0.3478  0.1209 -0.6523
 4238SOL    HW123933   4.686   0.203   5.393  0.7006 -0.2623 -1.4774
 4238SOL    HW223934   4.528   0.163   5.397  0.3501  1.2522  0.6533
 4239SOL     OW23935   6.543   9.854   1.618  0.0469  0.0732 -0.6418
 4239SOL    HW123936   6.486   9.837   1.699  0.3439  0.3946 -0.3662
 4239SOL    HW223937   6.490   9.908   1.552  0.2778  1.0022 -0.0770
 4240SOL     OW23938   0.118   6.120   1.617 -0.2752 -0.3463  0.4946
 4240SOL    HW123939   0.027   6.109   1.577  0.2577  0.2681 -0.9200
 4240SOL    HW223940   0.168   6.191   1.567  0.9309 -0.5802  1.3506
 4241SOL     OW23941   9.347   1.749   5.943 -0.0315  0.4147  0.2336
 4241SOL    HW123942   9.326   1.672   6.004 -1.4874  1.8670  1.6224
 4241SOL    HW223943   9.294   1.741   5.859  0.9590 -0.8826 -0.2844
 4242SOL     OW23944   3.105   1.866   0.842  0.2797 -0.1028  0.0395
 4242SOL    HW123945   3.203   1.847   0.834  0.0038 -0.8838 -1.6785
 4242SOL    HW223946   3.083   1.950   0.793 -0.1540 -0.7520 -0.8939
 4243SOL     OW23947   9.562   6.604   3.485  0.2389  0.0182 -0.4345
 4243SOL    HW123948   9.535   6.510   3.507 -0.1564  0.5319  1.3825
 4243SOL    HW223949   9.486   6.665   3.505  1.5025  1.0622  1.2336
 4244SOL     OW23950   8.711   9.202   2.294 -0.2645  0.5737 -0.4682
 4244SOL    HW123951   8.655   9.124   2.320  0.2531 -0.3534 -2.0571
 4244SOL    HW223952   8.801   9.195   2.338 -0.4994  0.7086  0.0320
 4245SOL     OW23953   5.354   8.839   5.446 -0.1184  0.0232  0.2028
 4245SOL    HW123954   5.323   8.792   5.364  0.3469  0.8463 -0.4539
 4245SOL    HW223955   5.339   8.937   5.436  2.6182  0.4482 -0.1160
 4246SOL     OW23956   4.873   9.863   3.995  0.4343 -0.3702 -0.3051
 4246SOL    HW123957   4.893   9.820   3.906 -1.0501 -1.3513 -0.1971
 4246SOL    HW223958   4.958   9.890   4.040  1.3741 -2.6339 -0.6752
 4247SOL     OW23959   8.361   5.412   5.299  0.1619  0.4102 -1.1144
 4247SOL    HW123960   8.267   5.388   5.276  0.0526 -0.6835  0.4517
 4247SOL    HW223961   8.363   5.474   5.378  0.7393  0.8674 -1.4735
 4248SOL     OW23962   6.089   0.758   2.031  0.3189 -0.0341  0.3321
 4248SOL    HW123963   6.167   0.743   2.092  0.6885  1.1495  0.1713
 4248SOL    HW223964   6.006   0.722   2.073  0.5916  0.6686  1.5022
 4249SOL     OW23965   8.549   4.806   3.989 -0.1554 -0.3353  0.2400
 4249SOL    HW123966   8.572   4.756   4.073 -1.5899 -0.4718  0.5664
 4249SOL    HW223967   8.548   4.742   3.912 -0.2186 -0.4728  0.3542
 4250SOL     OW23968   5.117   4.305   4.003  0.0369 -0.0560  0.4173
 4250SOL    HW123969   5.122   4.315   3.903 -0.1156  1.9471  0.5957
 4250SOL    HW223970   5.050   4.235   4.025 -1.8603  1.3089 -0.8407
 4251SOL     OW23971   8.906   2.021   6.747 -0.3731  0.1296  0.4955
 4251SOL    HW123972   8.807   2.025   6.730 -0.0555  0.5805 -1.2945
 4251SOL    HW223973   8.940   1.931   6.722 -0.2422  0.1353  0.6554
 4252SOL     OW23974   9.922   2.804   5.219  0.1904 -0.1849  0.3527
 4252SOL    HW123975   9.825   2.826   5.228  0.5495  1.3921  0.4119
 4252SOL    HW223976   9.955   2.833   5.130  0.9216  0.4884  0.8364
 4253SOL     OW23977   4.716   4.541   2.219  0.9262  0.5823 -0.1053
 4253SOL    HW123978   4.707   4.574   2.313  1.4344  1.4422 -0.3510
 4253SOL    HW223979   4.701   4.616   2.155 -3.3949 -0.8019 -0.8787
 4254SOL     OW23980   6.502   0.232   4.839 -0.1139 -0.0295 -0.4045
 4254SOL    HW123981   6.443   0.155   4.862 -0.9962  1.6020  3.1147
 4254SOL    HW223982   6.458   0.288   4.768 -1.0222 -0.8917 -0.5270
 4255SOL     OW23983   0.425   1.062   4.329 -0.1756  0.3761  0.0208
 4255SOL    HW123984   0.349   1.054   4.265 -2.7144 -0.4047  3.0254
 4255SOL    HW223985   0.403   1.130   4.399  1.8554  0.0907  0.9747
 4256SOL     OW23986   7.152   1.215   5.108 -0.3883  0.4401 -0.1840
 4256SOL    HW123987   7.062   1.230   5.066 -1.3263 -0.4607  1.4739
 4256SOL    HW223988   7.185   1.300   5.149 -0.2535  0.8835 -1.1749
 4257SOL     OW23989   8.485   7.623   4.888 -0.0037 -0.3987  0.5792
 4257SOL    HW123990   8.517   7.531   4.909 -0.3842 -0.3137  1.5572
 4257SOL    HW223991   8.409   7.646   4.948  0.8066  0.9753  1.0994
 4258SOL     OW23992   9.436   5.567   3.422  0.1908  0.0887  0.1462
 4258SOL    HW123993   9.381   5.535   3.499 -0.3039  0.2281 -0.1447
 4258SOL    HW223994   9.432   5.500   3.348 -0.9638  0.8711 -0.5183
 4259SOL     OW23995   0.469   8.432   4.304  0.3757  0.0505  0.1297
 4259SOL    HW123996   0.529   8.479   4.240  0.5210  0.0798  0.2865
 4259SOL    HW223997   0.450   8.340   4.271  1.1816 -0.2498  0.4997
 4260SOL     OW23998   1.046   5.943   0.525  0.3386 -0.0704  0.7495
 4260SOL    HW123999   1.057   5.870   0.591 -1.7815 -0.9365  0.1889
 4260SOL    HW224000   1.084   5.915   0.437  1.2068  0.2423  1.0198
 4261SOL     OW24001   6.469   0.440   4.264  0.7611  0.4213 -0.0919
 4261SOL    HW124002   6.552   0.384   4.267  2.2068  2.5185  0.7872
 4261SOL    HW224003   6.461   0.491   4.350 -1.7868 -0.2027  0.0781
 4262SOL     OW24004   3.728   8.475   5.662  0.1530 -0.6616  0.0237
 4262SOL    HW124005   3.744   8.421   5.579  0.6496 -1.0457  0.3627
 4262SOL    HW224006   3.697   8.415   5.735 -0.5123 -0.2851  0.0574
 4263SOL     OW24007   2.235   5.666   6.288 -0.0398  0.2891  0.1750
 4263SOL    HW124008   2.326   5.708   6.290  0.0315  0.1761 -0.6811
 4263SOL    HW224009   2.186   5.689   6.372  0.5248  0.9186  0.3324
 4264SOL     OW24010   2.506   0.654   0.656 -0.6425 -0.1505 -0.4789
 4264SOL    HW124011   2.407   0.649   0.667 -0.7869 -1.0849 -2.0682
 4264SOL    HW224012   2.543   0.562   0.643  0.1264  0.4005 -2.3241
 4265SOL     OW24013   1.669   7.022   2.205  0.0970 -0.0972 -0.6463
 4265SOL    HW124014   1.747   6.996   2.147 -0.3640 -0.1409 -1.2523
 4265SOL    HW224015   1.648   6.947   2.268  1.4718  0.4795  0.5419
 4266SOL     OW24016   8.837   6.379   3.394  0.1697  0.0463 -0.2151
 4266SOL    HW124017   8.820   6.478   3.391 -1.4039 -0.1914  0.3365
 4266SOL    HW224018   8.780   6.338   3.464  1.3649 -1.1714  0.0673
 4267SOL     OW24019   3.578   2.971   4.660 -0.8471 -0.1087 -0.5809
 4267SOL    HW124020   3.673   2.994   4.638 -0.3281 -1.3089  0.3995
 4267SOL    HW224021   3.523   2.978   4.577  0.8093 -3.0110 -2.0185
 4268SOL     OW24022   4.854   9.385   2.754 -0.0352  0.0199  0.1677
 4268SOL    HW124023   4.928   9.340   2.804 -0.6756 -0.7416  0.4329
 4268SOL    HW224024   4.859   9.484   2.769  1.4874  0.0623 -0.5630
 4269SOL     OW24025   4.936   2.033   0.860 -0.6288  0.2697 -0.2727
 4269SOL    HW124026   4.905   2.007   0.951 -2.6229 -1.4788 -1.3880
 4269SOL    HW224027   4.952   2.132   0.857  0.7495  0.1565  2.2934
 4270SOL     OW24028   0.412   7.460   4.147 -0.3929  0.0033 -0.5684
 4270SOL    HW124029   0.489   7.516   4.178 -0.6295  0.0085  0.0105
 4270SOL    HW224030   0.335   7.471   4.210 -0.3090 -1.2816 -0.2156
 4271SOL     OW24031   8.922   2.865   1.867 -0.5339 -0.1289  0.4251
 4271SOL    HW124032   8.857   2.932   1.903 -0.0192  0.0058  1.1238
 4271SOL    HW224033   8.918   2.782   1.923 -0.8222 -0.4995 -0.1406
 4272SOL     OW24034   6.575   7.446   5.246 -0.3161  0.0802  0.6225
 4272SOL    HW124035   6.647   7.488   5.192 -0.9917 -0.2431 -0.5580
 4272SOL    HW224036   6.529   7.376   5.191 -1.5576  0.3163  1.3328
 4273SOL     OW24037   7.848   5.317   4.965 -0.2167  0.2772  0.0611
 4273SOL    HW124038   7.808   5.258   4.895  0.4136 -1.6127  1.2340
 4273SOL    HW224039   7.921   5.372   4.926  2.7548 -3.5416 -0.0229
 4274SOL     OW24040   4.896   8.313   3.111 -0.1292 -0.1311 -0.3698
 4274SOL    HW124041   4.821   8.248   3.122  0.5130 -0.8671 -0.2461
 4274SOL    HW224042   4.949   8.317   3.196  0.1870  0.0971 -0.5753
 4275SOL     OW24043   2.722   4.138   2.472 -0.0052 -0.0157 -0.5204
 4275SOL    HW124044   2.693   4.043   2.485  0.0334  0.1594  0.9063
 4275SOL    HW224045   2.804   4.140   2.415 -0.2726 -0.8082 -0.9324
 4276SOL     OW24046   1.140   8.253   2.702 -0.2653 -0.3934 -0.8078
 4276SOL    HW124047   1.173   8.340   2.740  1.7268  0.0330 -3.3861
 4276SOL    HW224048   1.126   8.188   2.777  0.3939  1.4064  0.9542
 4277SOL     OW24049   1.462   6.787   2.775 -0.6965  0.5098  0.3243
 4277SOL    HW124050   1.369   6.806   2.743 -1.5138  0.2587  2.4824
 4277SOL    HW224051   1.465   6.795   2.875  2.0388  2.4169  0.1354
 4278SOL     OW24052   2.364   1.097   2.162 -0.0755 -0.3797  0.5504
 4278SOL    HW124053   2.349   1.179   2.106  1.9942  0.4395  1.1509
 4278SOL    HW224054   2.447   1.108   2.215  0.6003 -3.1844  0.1405
 4279SOL     OW24055   8.035   3.894   6.400 -0.5923 -0.4117 -0.4234
 4279SOL    HW124056   8.050   3.944   6.485  1.5000 -0.7004 -0.6118
 4279SOL    HW224057   8.016   3.798   6.420  0.5119 -0.6079 -0.3094
 4280SOL     OW24058   0.350   6.694   2.316  0.2578  0.1653 -0.0974
 4280SOL    HW124059   0.426   6.747   2.278 -0.4830  0.4938 -1.1272
 4280SOL    HW224060   0.290   6.754   2.368 -0.4443  0.2938 -1.0526
 4281SOL     OW24061   4.279   0.071   6.505 -0.1016 -0.2133 -0.3889
 4281SOL    HW124062   4.262  -0.026   6.521  1.5260 -0.1874  1.6598
 4281SOL    HW224063   4.334   0.082   6.422 -0.0497 -1.0378 -0.4678
 4282SOL     OW24064   3.191   6.489   3.706  0.1608 -0.1952  0.1820
 4282SOL    HW124065   3.099   6.465   3.676  0.2644 -0.8649  0.3865
 4282SOL    HW224066   3.198   6.588   3.717 -0.0114  0.0241 -1.5529
 4283SOL     OW24067   3.114   0.162   6.316 -0.1403  0.0723 -0.4750
 4283SOL    HW124068   3.148   0.077   6.277  0.8837  0.3527 -0.2192
 4283SOL    HW224069   3.049   0.204   6.253  0.4962 -0.1499 -1.2899
 4284SOL     OW24070   4.361   4.024   0.415  0.3772 -0.3509  0.3036
 4284SOL    HW124071   4.460   4.020   0.434  0.6140 -2.6276 -1.2987
 4284SOL    HW224072   4.317   3.942   0.452 -0.4277 -0.8270 -1.6600
 4285SOL     OW24073   5.879   4.788   0.061 -0.0383  0.2731  0.3456
 4285SOL    HW124074   5.842   4.847   0.133 -1.7563  1.0422 -1.1314
 4285SOL    HW224075   5.881   4.693   0.093 -0.7469  0.6076  1.4023
 4286SOL     OW24076   1.423   7.907   0.863  0.6904  0.1705 -0.1384
 4286SOL    HW124077   1.485   7.863   0.927  0.7354 -0.0514 -0.3314
 4286SOL    HW224078   1.329   7.896   0.895  0.7312  0.2739  0.0156
 4287SOL     OW24079   6.861   3.229   0.088  0.4763  0.1324  0.4055
 4287SOL    HW124080   6.893   3.213   0.181  2.4620  0.0021 -0.2839
 4287SOL    HW224081   6.776   3.282   0.090  0.0844 -0.5431  2.3011
 4288SOL     OW24082   5.481   9.120   4.570 -0.4199 -0.0545 -0.2195
 4288SOL    HW124083   5.507   9.157   4.659 -0.3276 -0.6773  0.0108
 4288SOL    HW224084   5.553   9.141   4.503 -0.5850  0.5889 -0.1936
 4289SOL     OW24085   5.341   9.347   4.331 -0.5224 -0.1782  0.5631
 4289SOL    HW124086   5.275   9.301   4.392 -2.0821  0.6879 -0.4256
 4289SOL    HW224087   5.299   9.360   4.241  1.0677  0.3022 -0.1224
 4290SOL     OW24088   4.561   0.254   3.783 -0.4351 -0.1343  0.3457
 4290SOL    HW124089   4.531   0.341   3.745  1.8786  0.1433 -0.9685
 4290SOL    HW224090   4.494   0.183   3.762 -1.9115  1.1577  0.6709
 4291SOL     OW24091   1.499   8.265   6.015 -0.0770 -0.4993 -0.5216
 4291SOL    HW124092   1.422   8.201   6.014 -0.9155  0.4079  2.2758
 4291SOL    HW224093   1.580   8.220   5.979 -0.3765 -3.5055  2.3455
 4292SOL     OW24094   5.203   8.551   0.219  0.1870 -0.1321  0.7925
 4292SOL    HW124095   5.126   8.498   0.184 -1.4746  2.9161 -0.2851
 4292SOL    HW224096   5.183   8.582   0.312 -0.4181  1.7213  0.0433
 4293SOL     OW24097   0.801   0.693   3.399 -0.0066  0.5224  0.3532
 4293SOL    HW124098   0.799   0.727   3.493 -0.9427  1.5905 -0.0436
 4293SOL    HW224099   0.785   0.769   3.336  0.3354 -0.2394 -0.6614
 4294SOL     OW24100   0.804   2.039   0.253  0.0076 -0.4103 -0.4519
 4294SOL    HW124101   0.786   2.083   0.165  4.1295  1.3737 -0.5063
 4294SOL    HW224102   0.878   1.972   0.241  0.8516  0.1160  1.6876
 4295SOL     OW24103   6.294   7.961   3.774  0.2423 -0.5996 -0.0310
 4295SOL    HW124104   6.246   7.874   3.764  1.1281 -0.9377 -1.4976
 4295SOL    HW224105   6.376   7.948   3.830  0.4408 -0.7399 -0.3524
 4296SOL     OW24106   2.569   5.589   5.200  0.2876 -0.3769 -0.0250
 4296SOL    HW124107   2.647   5.642   5.168 -0.3139  1.1073  0.9029
 4296SOL    HW224108   2.500   5.651   5.238 -0.9379 -1.7384  0.0210
 4297SOL     OW24109   4.626   3.496   0.053  0.0384  0.0605  0.4969
 4297SOL    HW124110   4.579   3.541  -0.023 -1.3229 -1.3637  0.4654
 4297SOL    HW224111   4.580   3.519   0.139 -0.0019 -0.3881  0.5964
 4298SOL     OW24112   3.384   8.155   0.997 -0.1470  0.2198 -0.2110
 4298SOL    HW124113   3.382   8.248   1.034  0.5514  0.4327 -0.6910
 4298SOL    HW224114   3.303   8.105   1.027 -0.7724  1.1405 -0.3567
 4299SOL     OW24115   7.477   7.110   4.567  0.0523 -0.1013  0.4580
 4299SOL    HW124116   7.570   7.094   4.600 -0.3486 -0.9300  1.1907
 4299SOL    HW224117   7.472   7.085   4.470  0.9982  1.4792 -0.0264
 4300SOL     OW24118   2.223   3.902   5.376  0.2395  0.5265  0.3573
 4300SOL    HW124119   2.193   3.820   5.327 -2.6594  1.5732  0.2706
 4300SOL    HW224120   2.313   3.886   5.416  0.7397 -1.8812 -1.6015
 4301SOL     OW24121   8.537   0.298   4.005 -0.1925  0.0663 -0.0736
 4301SOL    HW124122   8.477   0.356   3.950 -0.1122 -0.1558 -0.3949
 4301SOL    HW224123   8.623   0.283   3.956  0.0014  0.1182  0.2444
 4302SOL     OW24124   2.885   0.959   4.476  0.5039  0.9199 -0.0036
 4302SOL    HW124125   2.838   0.874   4.453  0.2831  0.6698  1.3576
 4302SOL    HW224126   2.955   0.978   4.406  0.5462 -0.3685 -0.3172
 4303SOL     OW24127   2.376   5.545   0.194 -0.6454 -0.0960  0.1998
 4303SOL    HW124128   2.305   5.613   0.210 -0.0011  0.0081  2.7354
 4303SOL    HW224129   2.354   5.462   0.246  1.3128  0.1120  1.3921
 4304SOL     OW24130   8.122   3.630   5.176 -0.3457 -1.2039  0.6235
 4304SOL    HW124131   8.105   3.545   5.227 -0.6970 -1.7458 -0.3776
 4304SOL    HW224132   8.087   3.620   5.082  2.4690 -1.1257 -0.4860
 4305SOL     OW24133   1.148   7.426   4.951 -0.2923 -0.0422  0.0811
 4305SOL    HW124134   1.198   7.512   4.944 -0.8584  0.4080  1.4854
 4305SOL    HW224135   1.212   7.349   4.941  0.4060  0.5314  0.1076
 4306SOL     OW24136   3.476   7.296   4.768  0.2951 -0.0903  0.2798
 4306SOL    HW124137   3.419   7.257   4.839  1.2217 -1.0783  0.4911
 4306SOL    HW224138   3.504   7.389   4.795  0.9415 -0.5919  1.3804
 4307SOL     OW24139   2.581   3.127   0.190 -0.2206  0.1687 -0.6183
 4307SOL    HW124140   2.556   3.168   0.278  1.8905  0.5437 -0.1829
 4307SOL    HW224141   2.680   3.130   0.178 -0.6143  2.5666 -4.2065
 4308SOL     OW24142   0.081   3.155   1.957  0.1175  0.3346 -0.2785
 4308SOL    HW124143   0.042   3.063   1.963  0.8399 -0.1773 -2.9397
 4308SOL    HW224144   0.172   3.156   1.999  0.5771 -0.4374 -1.2612
 4309SOL     OW24145   4.886   5.775   1.653 -0.4475 -0.1023  0.1959
 4309SOL    HW124146   4.919   5.772   1.558 -0.8186 -0.4161  0.0749
 4309SOL    HW224147   4.916   5.694   1.702 -0.9641 -0.3464  0.1100
 4310SOL     OW24148   4.521   6.757   2.620  0.1927 -0.9142 -0.2648
 4310SOL    HW124149   4.618   6.767   2.597  0.6034  0.8910  2.1133
 4310SOL    HW224150   4.482   6.847   2.640 -1.3256 -1.8906  1.2930
 4311SOL     OW24151   5.671   9.840   3.498 -0.1880 -0.2518  0.2216
 4311SOL    HW124152   5.748   9.880   3.448  0.8753  0.0280  2.0371
 4311SOL    HW224153   5.647   9.899   3.575 -1.4982 -0.9023  0.3258
 4312SOL     OW24154   7.612   5.553   5.845 -0.1787 -0.1142  0.5039
 4312SOL    HW124155   7.567   5.614   5.911 -0.4298 -0.2272  0.4365
 4312SOL    HW224156   7.584   5.459   5.863  0.9385 -0.3297  1.2197
 4313SOL     OW24157   1.150   8.113   3.878 -0.1300 -0.1717  0.2943
 4313SOL    HW124158   1.133   8.025   3.833 -0.5380 -0.4068  0.9068
 4313SOL    HW224159   1.162   8.184   3.808  1.2398 -0.8979 -0.2286
 4314SOL     OW24160   5.076   0.344   2.681  0.2652  0.1234 -0.5364
 4314SOL    HW124161   4.983   0.380   2.685  0.5681  1.0009 -1.3202
 4314SOL    HW224162   5.141   0.418   2.695  0.8307 -0.7003  1.2871
 4315SOL     OW24163   4.941   6.429   2.295 -0.1829  0.2520 -0.7723
 4315SOL    HW124164   5.031   6.386   2.300  0.2605  1.2723  0.2587
 4315SOL    HW224165   4.920   6.451   2.199  0.7595  0.2269 -0.9898
 4316SOL     OW24166   2.636   1.643   2.075 -0.2714  0.0726  0.5468
 4316SOL    HW124167   2.594   1.732   2.057  1.7215  0.9628  0.1834
 4316SOL    HW224168   2.655   1.597   1.988  1.7156  0.7446  0.6042
 4317SOL     OW24169   8.347   3.485   1.269 -0.6146  0.2343 -0.2565
 4317SOL    HW124170   8.290   3.404   1.274 -1.1080  0.5634 -0.5327
 4317SOL    HW224171   8.293   3.562   1.234 -0.5422  1.0376  1.3847
 4318SOL     OW24172   5.431   1.412   5.252 -0.0612  0.1308  0.0571
 4318SOL    HW124173   5.388   1.502   5.262 -1.2525 -0.4734  0.4453
 4318SOL    HW224174   5.361   1.344   5.234  0.7970 -0.8005  0.2199
 4319SOL     OW24175   0.915   0.454   3.391 -0.1161  0.1680  0.3196
 4319SOL    HW124176   0.873   0.544   3.386 -0.3415  0.1023  1.0717
 4319SOL    HW224177   1.000   0.459   3.444  0.3934  0.1297 -0.4720
 4320SOL     OW24178   0.439   6.491   5.198 -0.5287  0.0730  0.5919
 4320SOL    HW124179   0.423   6.409   5.254 -0.3134 -1.7584 -1.9247
 4320SOL    HW224180   0.537   6.496   5.175 -0.8251  0.0907 -0.6779
 4321SOL     OW24181   9.135   6.231   0.464 -0.1598 -0.0427 -0.0256
 4321SOL    HW124182   9.115   6.179   0.381  1.7436 -0.5567 -0.1929
 4321SOL    HW224183   9.214   6.190   0.510 -0.6447  0.7822  1.5595
 4322SOL     OW24184   2.241   9.899   4.957 -0.0053  0.0058  0.1249
 4322SOL    HW124185   2.284   9.852   4.880 -1.3275  0.9700 -1.2446
 4322SOL    HW224186   2.311   9.931   5.020  1.3002  1.4476 -1.9778
 4323SOL     OW24187   8.690   1.014   0.033 -0.2992  0.2698  0.2304
 4323SOL    HW124188   8.782   1.021  -0.004 -1.1132 -2.4085 -2.4731
 4323SOL    HW224189   8.684   0.934   0.093 -1.2938 -0.5920 -0.9983
 4324SOL     OW24190   3.793   5.382   5.373 -0.0062  0.2583 -0.0556
 4324SOL    HW124191   3.836   5.463   5.332  0.3377  0.4293  0.6407
 4324SOL    HW224192   3.704   5.407   5.409  0.2925  0.4367  0.5672
 4325SOL     OW24193   4.036   5.352   2.563  0.1800  0.4005 -0.0459
 4325SOL    HW124194   4.045   5.254   2.577 -2.0128  0.4582  2.1214
 4325SOL    HW224195   4.107   5.399   2.616 -0.1397  0.0560  0.7031
 4326SOL     OW24196   5.824   9.777   3.927  0.2572  0.0737  0.1627
 4326SOL    HW124197   5.849   9.703   3.989 -0.7728  0.0767  0.5930
 4326SOL    HW224198   5.853   9.755   3.834  0.8990 -0.3914  0.4745
 4327SOL     OW24199   2.202   5.080   1.144 -0.4808  0.2356 -0.3914
 4327SOL    HW124200   2.171   5.156   1.202 -0.7960 -0.3887  0.2588
 4327SOL    HW224201   2.143   5.073   1.064 -0.0892  1.0540 -0.7611
 4328SOL     OW24202   9.549   4.457   3.293 -0.4399 -1.0193  0.0115
 4328SOL    HW124203   9.472   4.393   3.306  0.5079 -1.9892  0.9418
 4328SOL    HW224204   9.565   4.469   3.195 -2.4981  0.0730 -0.2179
 4329SOL     OW24205   8.918   6.104   0.968  0.1363 -0.5313  0.2788
 4329SOL    HW124206   8.991   6.134   0.907 -0.5812 -1.4229 -1.0340
 4329SOL    HW224207   8.875   6.184   1.010  0.1326  0.1460 -0.9808
 4330SOL     OW24208   5.921   7.600   5.429 -0.2719  0.2879  0.1953
 4330SOL    HW124209   5.882   7.534   5.493 -0.1332 -1.2731 -1.2949
 4330SOL    HW224210   5.999   7.645   5.471  0.7808 -1.8437  0.5735
 4331SOL     OW24211   7.095   0.010   5.525  0.0221  0.4677  0.0330
 4331SOL    HW124212   7.042   0.030   5.443 -1.2961  3.1466  1.4940
 4331SOL    HW224213   7.190   0.040   5.512 -0.1173  0.6274 -0.6082
 4332SOL     OW24214   7.458   2.084   3.397 -0.1264 -0.4844  0.2192
 4332SOL    HW124215   7.531   2.021   3.373 -0.1438 -0.0932 -0.9385
 4332SOL    HW224216   7.373   2.055   3.351 -0.7314 -0.9917  1.6214
 4333SOL     OW24217   4.665   9.721   3.916  0.5692 -0.1206  0.5705
 4333SOL    HW124218   4.736   9.767   3.969  0.5678  1.4107 -0.7466
 4333SOL    HW224219   4.683   9.731   3.819 -0.0218 -2.0185  0.2369
 4334SOL     OW24220   2.614   9.834   3.260  0.3520 -0.2533 -0.6786
 4334SOL    HW124221   2.557   9.754   3.241  0.8407 -1.5972  3.0788
 4334SOL    HW224222   2.708   9.815   3.231  0.4423 -1.0190  0.0922
 4335SOL     OW24223   9.652   7.257   2.289 -0.6119 -0.2915  0.3388
 4335SOL    HW124224   9.596   7.333   2.321 -0.1977  1.1350 -2.1942
 4335SOL    HW224225   9.594   7.182   2.259 -1.1229  0.4260 -0.4781
 4336SOL     OW24226   8.203   4.579   0.539  0.5131 -0.5820 -0.5528
 4336SOL    HW124227   8.206   4.626   0.450 -0.6511 -0.8894 -0.7727
 4336SOL    HW224228   8.213   4.481   0.525  0.1046 -0.6519 -0.3712
 4337SOL     OW24229   3.719   0.661   2.056  0.2940  0.7138  0.6824
 4337SOL    HW124230   3.716   0.627   1.962 -0.1863  1.4404  0.4274
 4337SOL    HW224231   3.642   0.622   2.107  0.5229  0.3617  0.7589
 4338SOL     OW24232   2.732   5.668   6.400 -0.1799  0.1470 -0.3291
 4338SOL    HW124233   2.802   5.735   6.375 -1.6434  1.7769 -0.1196
 4338SOL    HW224234   2.724   5.664   6.499  0.6475 -1.1407 -0.3012
 4339SOL     OW24235   3.463   9.703   1.479 -0.0425 -0.0390 -0.2860
 4339SOL    HW124236   3.557   9.719   1.449 -0.0958 -0.2484 -0.5666
 4339SOL    HW224237   3.405   9.689   1.400 -0.0987 -1.0566 -0.0731
 4340SOL     OW24238   3.230   2.446   1.629  0.4903 -0.6540  0.2626
 4340SOL    HW124239   3.296   2.419   1.699 -0.1481 -1.8165  0.4256
 4340SOL    HW224240   3.228   2.546   1.621  2.0677 -0.5933  0.4450
 4341SOL     OW24241   9.943   0.586   6.080 -0.1945 -0.2414  0.0377
 4341SOL    HW124242  10.004   0.651   6.035  0.1635 -0.6984 -0.1401
 4341SOL    HW224243   9.916   0.515   6.015  0.5205 -1.0384  0.6054
 4342SOL     OW24244   8.245   1.564   2.560  0.4373 -0.2059  0.2185
 4342SOL    HW124245   8.303   1.520   2.629  0.6463 -1.0156 -0.4799
 4342SOL    HW224246   8.175   1.620   2.606  1.3784  0.2863  1.0714
 4343SOL     OW24247   9.703   5.678   5.085  0.0211 -0.1873 -0.7963
 4343SOL    HW124248   9.792   5.721   5.103 -0.3731  0.2069  0.1919
 4343SOL    HW224249   9.718   5.594   5.033  0.9713 -0.0854 -0.7045
 4344SOL     OW24250   3.316   5.070   2.662  0.1460  0.0374 -0.0972
 4344SOL    HW124251   3.388   5.114   2.715 -0.2318  1.4053 -0.7114
 4344SOL    HW224252   3.290   4.984   2.707 -0.8274  1.6038  2.4818
 4345SOL     OW24253   2.773   4.964   1.048 -0.1912  0.1137  0.1252
 4345SOL    HW124254   2.789   4.984   1.145 -1.2052 -1.8651  0.7311
 4345SOL    HW224255   2.722   4.879   1.040 -1.1521  0.8646 -2.1250
 4346SOL     OW24256   0.334   7.138   6.576  0.7284 -0.0845  0.0526
 4346SOL    HW124257   0.285   7.086   6.645  1.2014 -0.6490 -0.0295
 4346SOL    HW224258   0.282   7.138   6.490  1.7365 -2.2903 -0.6025
 4347SOL     OW24259   0.883   0.495   4.722 -0.4584 -0.1174 -0.5969
 4347SOL    HW124260   0.869   0.575   4.780  1.9163 -0.4877  0.5499
 4347SOL    HW224261   0.941   0.429   4.770 -0.8845 -1.7310 -2.2438
 4348SOL     OW24262   3.598   7.105   4.599  0.2025  0.2615  0.1651
 4348SOL    HW124263   3.660   7.160   4.542  0.4756  0.9938  1.1504
 4348SOL    HW224264   3.556   7.164   4.668  1.1153 -0.9235  1.7623
 4349SOL     OW24265   3.786   6.265   4.755 -0.1822 -0.0594 -0.0006
 4349SOL    HW124266   3.717   6.329   4.720  1.1908  1.9183  0.8088
 4349SOL    HW224267   3.840   6.229   4.680 -0.7720 -0.0302 -0.4396
 4350SOL     OW24268   6.071   0.900   0.396  0.0928  0.4809  0.2391
 4350SOL    HW124269   5.974   0.876   0.403 -0.2883  1.9805  0.3508
 4350SOL    HW224270   6.090   0.980   0.452  1.2020  0.7563 -0.4989
 4351SOL     OW24271   6.615   9.321   5.034 -0.2847  0.2039 -0.2425
 4351SOL    HW124272   6.670   9.405   5.028 -1.4319  1.2213  2.5837
 4351SOL    HW224273   6.630   9.265   4.953  3.4130  1.3911 -0.4680
 4352SOL     OW24274   0.048   5.802   3.543 -1.0710  0.1263 -0.4106
 4352SOL    HW124275   0.013   5.741   3.614 -0.4549 -1.9051 -1.8113
 4352SOL    HW224276  -0.028   5.833   3.486 -1.3902  0.7136  0.3232
 4353SOL     OW24277   8.527   0.901   6.379  0.2389  0.3002 -0.3705
 4353SOL    HW124278   8.588   0.897   6.458 -0.2216  0.4185 -0.0044
 4353SOL    HW224279   8.479   0.814   6.368  0.6094  0.1402 -0.7758
 4354SOL     OW24280   0.194   8.208   3.652 -0.4989 -0.3573 -0.2465
 4354SOL    HW124281   0.256   8.145   3.607 -0.3393  0.1949 -0.8053
 4354SOL    HW224282   0.245   8.289   3.682 -0.7155 -0.4534  0.3913
 4355SOL     OW24283   6.215   9.519   2.739 -0.2263  0.4728 -0.0528
 4355SOL    HW124284   6.232   9.534   2.837 -1.9677 -2.0609  0.6878
 4355SOL    HW224285   6.168   9.599   2.701  1.9111  2.1695  0.7701
 4356SOL     OW24286   9.855   6.948   1.444 -0.2747 -0.2355  0.0446
 4356SOL    HW124287   9.886   7.043   1.433 -0.1106 -0.4353 -1.3625
 4356SOL    HW224288   9.838   6.929   1.541 -2.6945  1.9754  0.0872
 4357SOL     OW24289   2.536   7.211   1.514 -0.3136 -0.0081 -0.6490
 4357SOL    HW124290   2.517   7.115   1.537  0.4056 -0.1280 -0.5494
 4357SOL    HW224291   2.588   7.215   1.429  2.3144  0.1368  0.9279
 4358SOL     OW24292   2.723   0.337   0.413 -0.0450  0.3469 -0.0861
 4358SOL    HW124293   2.771   0.283   0.344 -0.0589 -0.3660  0.4621
 4358SOL    HW224294   2.683   0.418   0.369  2.4450  1.4754 -0.3979
 4359SOL     OW24295   1.063   1.101   1.119  0.3941 -0.2667  0.3152
 4359SOL    HW124296   1.155   1.065   1.103 -0.2079 -1.9581  0.5612
 4359SOL    HW224297   1.012   1.037   1.176 -0.2049  1.7445  2.1036
 4360SOL     OW24298   3.136   2.255   1.963  0.5219 -0.2328 -0.0946
 4360SOL    HW124299   3.174   2.242   1.872 -1.3626  0.2979 -0.9765
 4360SOL    HW224300   3.036   2.246   1.959  0.1851  2.5097  1.4156
 4361SOL     OW24301   2.331   1.148   4.605 -0.4872 -0.2098 -0.4171
 4361SOL    HW124302   2.327   1.062   4.555  0.7450 -0.4380 -0.1360
 4361SOL    HW224303   2.345   1.130   4.702 -1.5240  0.2732 -0.1726
 4362SOL     OW24304   1.806   1.225   0.538  0.7841  0.2096  0.0434
 4362SOL    HW124305   1.712   1.217   0.506  1.5251  1.0304 -2.4856
 4362SOL    HW224306   1.811   1.288   0.615 -0.6603  0.6034 -0.1763
 4363SOL     OW24307   3.431   2.878   0.110 -0.2950  0.0006  0.5978
 4363SOL    HW124308   3.465   2.786   0.090 -0.4440  0.5418 -2.3012
 4363SOL    HW224309   3.362   2.905   0.042 -0.7610  1.9992  1.7947
 4364SOL     OW24310   4.262   0.108   5.821 -0.3452 -0.3538  0.2075
 4364SOL    HW124311   4.235   0.205   5.825  1.0527 -0.0153  2.5570
 4364SOL    HW224312   4.186   0.051   5.852 -1.0765 -0.0186 -0.9160
 4365SOL     OW24313   4.340   5.350   2.625 -0.4462  0.0966  0.4089
 4365SOL    HW124314   4.333   5.450   2.630  1.3195  0.2863 -0.6586
 4365SOL    HW224315   4.323   5.319   2.532  1.8449 -0.3305  0.1024
 4366SOL     OW24316   3.511   2.751   1.865  0.3031  0.0870 -0.4937
 4366SOL    HW124317   3.495   2.653   1.861 -0.2168  0.1924 -1.1407
 4366SOL    HW224318   3.609   2.770   1.864  0.3834 -0.3865 -1.2324
 4367SOL     OW24319   0.954   0.381   3.134  0.0061  0.1983 -0.1509
 4367SOL    HW124320   0.918   0.423   3.217  1.0567  0.2895  0.2565
 4367SOL    HW224321   0.927   0.285   3.131  0.1370  0.1424  0.3923
 4368SOL     OW24322   0.021   7.344   0.930 -0.1292  0.1070  0.5737
 4368SOL    HW124323   0.047   7.361   1.025 -2.5545  0.9181  1.1254
 4368SOL    HW224324  -0.016   7.252   0.922 -1.7906  0.7252  0.8632
 4369SOL     OW24325   3.908   4.898   6.387  0.5538  0.4178  0.0087
 4369SOL    HW124326   3.839   4.868   6.321 -0.2188  0.0160  0.9957
 4369SOL    HW224327   3.987   4.838   6.382 -0.3956 -0.9244  0.9673
 4370SOL     OW24328   3.158   6.639   4.657 -0.3014  0.5750 -0.0999
 4370SOL    HW124329   3.171   6.596   4.568  1.0663  1.0265 -0.1216
 4370SOL    HW224330   3.247   6.661   4.697 -0.9443  1.5673  0.7991
 4371SOL     OW24331   8.158   2.152   2.886  0.6188 -0.5853  0.0952
 4371SOL    HW124332   8.123   2.068   2.844  0.6938 -0.9463  0.7408
 4371SOL    HW224333   8.206   2.129   2.971  1.2537  0.0422 -0.0870
 4372SOL     OW24334   2.579   5.120   5.341 -0.8822 -0.5072 -0.1106
 4372SOL    HW124335   2.556   5.036   5.293  1.3098 -1.6449  0.8001
 4372SOL    HW224336   2.670   5.113   5.381 -1.5674  1.4414  1.9241
 4373SOL     OW24337   7.115   4.970   6.290  0.2049 -0.0185 -0.6976
 4373SOL    HW124338   7.144   4.964   6.194 -0.9096 -0.9651 -0.9886
 4373SOL    HW224339   7.052   4.895   6.310 -1.2072  1.3820  0.2067
 4374SOL     OW24340   5.805   4.404   0.615  0.4677  0.1055  0.3209
 4374SOL    HW124341   5.857   4.330   0.572  2.1239  0.7831  1.0923
 4374SOL    HW224342   5.762   4.371   0.699 -0.5431 -0.5186 -0.4358
 4375SOL     OW24343   8.635   7.752   2.852 -0.1396  0.6566  0.1303
 4375SOL    HW124344   8.646   7.791   2.761 -0.4613 -0.5585 -0.4422
 4375SOL    HW224345   8.594   7.821   2.913  0.9529  1.7815 -0.3806
 4376SOL     OW24346   4.688   0.779   4.464  0.1380  0.0693 -0.4619
 4376SOL    HW124347   4.749   0.700   4.467 -0.5540 -0.4558 -0.0271
 4376SOL    HW224348   4.617   0.765   4.395  0.3174  0.5438 -0.7503
 4377SOL     OW24349   3.385   7.578   0.077 -0.5939 -0.2434  0.8004
 4377SOL    HW124350   3.289   7.562   0.055 -1.1081  1.8808  1.3201
 4377SOL    HW224351   3.395   7.598   0.174 -0.1178  2.6097  0.2321
 4378SOL     OW24352   8.284   0.693   2.906  0.1066  0.1615 -0.1652
 4378SOL    HW124353   8.326   0.695   2.815 -0.8235 -0.0070 -0.6077
 4378SOL    HW224354   8.193   0.653   2.899 -0.0435  0.3237  0.8164
 4379SOL     OW24355   9.214   4.829   6.315  0.3964  0.5934 -0.3171
 4379SOL    HW124356   9.118   4.841   6.289  0.7415  0.6518 -1.5829
 4379SOL    HW224357   9.218   4.796   6.410 -0.9246 -0.7098 -0.6887
 4380SOL     OW24358   8.419   7.577   3.568 -0.4558 -0.1364 -0.0345
 4380SOL    HW124359   8.341   7.638   3.554  0.2094  1.3379  2.2688
 4380SOL    HW224360   8.388   7.482   3.565 -1.7961  0.3521 -2.0849
 4381SOL     OW24361   3.602   1.294   3.324  0.1824  0.6128  0.5328
 4381SOL    HW124362   3.602   1.195   3.341 -0.9555  0.7664  1.4990
 4381SOL    HW224363   3.647   1.313   3.237 -1.8416 -0.9956 -0.9348
 4382SOL     OW24364   9.784   8.391   6.545  0.5237 -0.3282 -0.2375
 4382SOL    HW124365   9.790   8.490   6.527  1.4109  0.2953  3.1178
 4382SOL    HW224366   9.847   8.343   6.484  1.1085  1.3135 -0.9742
 4383SOL     OW24367   9.025   4.650   3.941 -0.0602  0.1125 -0.1246
 4383SOL    HW124368   8.999   4.726   4.000  0.6281 -0.2189  0.6232
 4383SOL    HW224369   9.125   4.641   3.940 -0.0930 -0.2502 -0.8819
 4384SOL     OW24370   0.309   2.965   0.624  0.4958 -0.0325  0.1835
 4384SOL    HW124371   0.375   3.007   0.687  0.2971 -1.0458  1.0704
 4384SOL    HW224372   0.216   2.984   0.656  0.4063 -1.4367  0.7943
 4385SOL     OW24373   0.286   6.305   1.810 -0.6340  0.9297  0.8531
 4385SOL    HW124374   0.336   6.308   1.896  0.2436  0.7212  0.3643
 4385SOL    HW224375   0.216   6.234   1.814  0.7635 -0.4775  0.6835
 4386SOL     OW24376   1.444   7.615   6.640  0.3738 -0.0574 -0.4426
 4386SOL    HW124377   1.537   7.627   6.603 -0.5470 -1.6259 -3.4339
 4386SOL    HW224378   1.386   7.690   6.610  0.6262  0.9454  1.4656
 4387SOL     OW24379   0.957   2.431   0.056  0.2521  1.1594  0.4684
 4387SOL    HW124380   0.923   2.337   0.048  0.4868  0.9745  1.6058
 4387SOL    HW224381   0.945   2.478  -0.032 -0.5636  0.3058  0.1170
 4388SOL     OW24382   9.351   5.676   2.358  0.0255  0.0923  0.4130
 4388SOL    HW124383   9.394   5.714   2.440  2.8948  0.3453 -1.1195
 4388SOL    HW224384   9.336   5.578   2.370 -0.0533  0.2236  1.4299
 4389SOL     OW24385   8.534   6.455   0.977 -0.2508 -0.4776 -0.1923
 4389SOL    HW124386   8.519   6.519   0.902 -2.1624 -0.4487  0.1895
 4389SOL    HW224387   8.507   6.363   0.947 -2.2240 -0.2584  0.8299
 4390SOL     OW24388   8.991   5.107   2.561  0.5343 -0.5864  0.0910
 4390SOL    HW124389   8.902   5.066   2.541  0.2013 -0.4344  1.2562
 4390SOL    HW224390   8.979   5.189   2.616  1.2250  0.9690 -2.0175
 4391SOL     OW24391   7.206   1.911   0.624  0.2413 -0.2555 -0.5570
 4391SOL    HW124392   7.221   1.951   0.714 -0.3365  2.1950 -1.4782
 4391SOL    HW224393   7.136   1.965   0.576  1.5751 -0.6143 -2.9914
 4392SOL     OW24394   1.275   1.320   5.590  0.5477 -0.4903  0.0436
 4392SOL    HW124395   1.233   1.396   5.541 -1.3644 -1.0352  0.7968
 4392SOL    HW224396   1.375   1.326   5.582  0.3344  0.6016 -2.1065
 4393SOL     OW24397   2.230   1.088   2.677 -0.2698 -0.1215 -0.4104
 4393SOL    HW124398   2.208   1.119   2.585 -1.6294  0.8134  0.2148
 4393SOL    HW224399   2.174   1.137   2.743  2.1003  0.6805  1.0865
 4394SOL     OW24400   4.347   8.000   2.011  0.1959 -0.3704 -0.4630
 4394SOL    HW124401   4.353   7.925   2.077  0.8318 -0.1308 -0.2389
 4394SOL    HW224402   4.310   8.082   2.056 -1.2603 -0.7681 -0.9079
 4395SOL     OW24403   7.656   2.094   0.480 -0.2193  0.0649 -0.2336
 4395SOL    HW124404   7.730   2.156   0.455 -0.2480  0.2290  0.0908
 4395SOL    HW224405   7.605   2.068   0.397  0.8824 -0.9401 -0.6133
 4396SOL     OW24406   2.865   8.733   0.347 -0.3655 -0.0364  0.0153
 4396SOL    HW124407   2.878   8.634   0.353  3.0371  0.3743  0.1411
 4396SOL    HW224408   2.867   8.762   0.252  0.2238  0.0892  0.0631
 4397SOL     OW24409   8.980   7.593   3.954  0.4769 -1.0224  0.1521
 4397SOL    HW124410   9.044   7.523   3.923 -0.2062 -2.1192  1.2069
 4397SOL    HW224411   8.888   7.555   3.958  0.3756 -0.5869  2.4316
 4398SOL     OW24412   9.307   6.323   2.812  0.0109 -0.5486 -0.2863
 4398SOL    HW124413   9.398   6.355   2.783  0.9289 -2.4206  0.4322
 4398SOL    HW224414   9.317   6.262   2.891 -2.1785  1.9223  1.9833
 4399SOL     OW24415   1.669   0.789   0.078  0.4498 -0.2201 -0.2874
 4399SOL    HW124416   1.759   0.758   0.049  0.7760 -2.7442  3.1072
 4399SOL    HW224417   1.674   0.886   0.104  1.1731  0.7847 -3.9012
 4400SOL     OW24418   1.407   7.651   5.356 -0.2704 -0.5684  0.0372
 4400SOL    HW124419   1.309   7.667   5.350 -0.1875 -0.6795 -1.9618
 4400SOL    HW224420   1.432   7.632   5.451 -2.0281  0.3354  0.7057
 4401SOL     OW24421   1.819   4.978   6.647 -0.1271  0.0018  0.6038
 4401SOL    HW124422   1.801   5.074   6.668 -0.9604 -0.2069  0.8604
 4401SOL    HW224423   1.876   4.938   6.718  2.2986  0.9449 -0.7410
 4402SOL     OW24424   9.835   0.671   4.266  0.0958  0.3686  0.3347
 4402SOL    HW124425   9.851   0.608   4.189 -2.0662 -1.0406  1.0027
 4402SOL    HW224426   9.760   0.732   4.244 -0.7336 -0.2360  1.4284
 4403SOL     OW24427   0.914   8.564   1.228  0.0490 -0.4490 -0.3555
 4403SOL    HW124428   0.865   8.486   1.188 -1.5782  0.6569 -0.5692
 4403SOL    HW224429   0.959   8.535   1.313 -0.4322 -1.6376 -0.4916
 4404SOL     OW24430   1.011   4.290   1.176  0.2785 -0.3339 -0.4710
 4404SOL    HW124431   0.923   4.319   1.214 -0.1500 -1.3778 -0.6217
 4404SOL    HW224432   1.079   4.362   1.187 -0.6166  0.5002 -0.3887
 4405SOL     OW24433   4.100   1.468   6.130  0.5357  0.0687  0.7114
 4405SOL    HW124434   4.164   1.400   6.167  1.4968  0.1111 -0.8349
 4405SOL    HW224435   4.033   1.491   6.200  1.4538 -0.9172  1.9542
 4406SOL     OW24436   8.900   2.412   1.650  0.0060  0.0349 -0.5063
 4406SOL    HW124437   8.980   2.359   1.678 -1.0422 -2.0450 -1.3681
 4406SOL    HW224438   8.856   2.367   1.572 -1.9200  1.2484 -0.1383
 4407SOL     OW24439   3.869   1.067   4.348 -0.2105 -0.1343  0.0353
 4407SOL    HW124440   3.935   1.142   4.357  0.5104 -0.9943  2.0738
 4407SOL    HW224441   3.918   0.982   4.327 -1.0060 -0.1066 -2.0565
 4408SOL     OW24442   8.842   4.581   1.645 -1.0860 -0.0221 -0.6410
 4408SOL    HW124443   8.783   4.655   1.614 -0.8812  0.3214 -0.2233
 4408SOL    HW224444   8.933   4.591   1.604 -1.4917 -0.8968 -1.7625
 4409SOL     OW24445   3.919   1.672   3.822  0.0377  0.7215 -0.3949
 4409SOL    HW124446   3.922   1.577   3.852  1.3657  1.2450  1.1938
 4409SOL    HW224447   3.827   1.709   3.836  0.3409  0.6119  2.0253
 4410SOL     OW24448   2.553   7.734   6.334 -0.4272  0.0538  0.1144
 4410SOL    HW124449   2.634   7.788   6.356 -0.2154 -0.9994  1.9653
 4410SOL    HW224450   2.510   7.772   6.252  0.9101  1.7248  0.1469
 4411SOL     OW24451   0.772   7.916   3.615  0.4498 -0.6423 -0.2975
 4411SOL    HW124452   0.867   7.901   3.588  0.8475 -0.4159  0.9070
 4411SOL    HW224453   0.745   8.009   3.591  0.5645 -0.6729 -0.5523
 4412SOL     OW24454   5.014   1.047   3.910 -0.0700 -0.2733 -0.6011
 4412SOL    HW124455   4.927   1.095   3.897  0.2238  0.2820 -0.5650
 4412SOL    HW224456   5.000   0.964   3.963 -0.5270 -0.0155 -0.3219
 4413SOL     OW24457   2.624   7.702   0.132  0.7047  0.0951  0.1607
 4413SOL    HW124458   2.721   7.687   0.115  0.5064 -0.5585 -0.4213
 4413SOL    HW224459   2.570   7.639   0.076  0.0237 -2.7629  3.7811
 4414SOL     OW24460   1.765   8.696   3.360 -0.7811  0.0213 -0.1495
 4414SOL    HW124461   1.677   8.700   3.408 -0.0073 -1.3584  1.4380
 4414SOL    HW224462   1.821   8.774   3.386 -1.5846  1.0090 -1.3105
 4415SOL     OW24463   7.444   6.689   5.453 -0.1355 -0.0840  0.5677
 4415SOL    HW124464   7.391   6.704   5.537 -0.3676 -5.0694  1.4440
 4415SOL    HW224465   7.509   6.615   5.467 -0.4924 -1.3508 -3.7965
 4416SOL     OW24466   3.889   0.190   0.536 -0.7272  0.3258 -0.1452
 4416SOL    HW124467   3.872   0.279   0.579 -0.9104  0.0754  0.2959
 4416SOL    HW224468   3.938   0.131   0.600 -1.8919 -0.4023  0.0889
 4417SOL     OW24469   1.822   8.409   2.419  0.4791  0.2320  0.0346
 4417SOL    HW124470   1.774   8.496   2.431 -3.0152 -1.2857 -2.3188
 4417SOL    HW224471   1.811   8.353   2.502 -1.4165  0.0939 -0.2991
 4418SOL     OW24472   1.129   5.693   5.582  0.8894  0.0936 -0.3582
 4418SOL    HW124473   1.038   5.733   5.590  1.4665  1.6315 -1.4014
 4418SOL    HW224474   1.129   5.603   5.627 -0.8195  0.5716  0.6649
 4419SOL     OW24475   4.116   8.615   1.253  0.9471 -0.0582 -0.2165
 4419SOL    HW124476   4.157   8.694   1.206 -0.7196  0.1812 -1.3483
 4419SOL    HW224477   4.020   8.607   1.224  0.6103 -1.4356  1.2674
 4420SOL     OW24478   4.945   8.489   4.625 -0.2364  0.6072 -0.3602
 4420SOL    HW124479   4.945   8.581   4.588 -0.7082  0.2993 -1.1407
 4420SOL    HW224480   4.940   8.423   4.550 -1.6992 -0.0105  0.2532
 4421SOL     OW24481   8.335   9.082   3.868 -0.3426  0.5535  0.1135
 4421SOL    HW124482   8.266   9.080   3.795 -1.5784  1.5598  1.2326
 4421SOL    HW224483   8.352   8.988   3.899 -0.6922  0.2317 -0.6385
 4422SOL     OW24484   6.253   4.575   0.078 -0.5817 -0.1846 -0.1208
 4422SOL    HW124485   6.208   4.639   0.015 -0.3916  0.2106  0.1480
 4422SOL    HW224486   6.210   4.485   0.069 -1.6192  0.2642  0.3383
 4423SOL     OW24487   9.050   3.388   4.060  0.1214 -0.0327  0.3581
 4423SOL    HW124488   8.969   3.341   4.095 -0.0846  1.2351  1.6359
 4423SOL    HW224489   9.132   3.350   4.102  0.2729 -1.8779 -1.5579
 4424SOL     OW24490   3.727   7.707   3.264 -0.4636 -0.1384 -0.2952
 4424SOL    HW124491   3.644   7.733   3.215 -0.6315 -0.6851 -0.3043
 4424SOL    HW224492   3.705   7.638   3.333  0.1074 -0.8214 -0.7901
 4425SOL     OW24493   2.760   9.003   5.455  0.0600  0.1702 -0.9024
 4425SOL    HW124494   2.703   8.981   5.376 -0.2322  1.2475 -0.9992
 4425SOL    HW224495   2.843   8.946   5.453  0.4896  0.8221 -2.4823
 4426SOL     OW24496   1.708   7.800   6.451 -0.2643  0.3976 -0.1031
 4426SOL    HW124497   1.686   7.804   6.548  2.7778  0.0700  0.6577
 4426SOL    HW224498   1.715   7.893   6.415 -1.2303  0.5224  0.0223
 4427SOL     OW24499   3.083   3.219   3.989 -0.0033 -0.0912  0.4962
 4427SOL    HW124500   3.053   3.198   4.082  1.4929  0.5812  1.1474
 4427SOL    HW224501   3.017   3.282   3.946 -0.4381 -0.0135  1.2806
 4428SOL     OW24502   2.560   3.039   2.604 -0.6352 -0.4977  0.2611
 4428SOL    HW124503   2.552   3.132   2.569  0.3474 -0.1969  0.8004
 4428SOL    HW224504   2.579   3.043   2.703  1.5528 -1.2057 -0.1062
 4429SOL     OW24505   8.940   4.060   5.979  0.0302 -0.7248 -0.4903
 4429SOL    HW124506   8.910   4.087   5.888 -1.1119  1.2889  0.4437
 4429SOL    HW224507   8.860   4.044   6.037  0.7186  0.3413  0.7882
 4430SOL     OW24508   9.410   1.399   2.886  0.4483  0.3595  0.7170
 4430SOL    HW124509   9.503   1.386   2.851  0.4692  1.5665  0.2938
 4430SOL    HW224510   9.406   1.370   2.982  1.8074  2.2487  1.3779
 4431SOL     OW24511   2.252   4.180   3.753 -0.1654  0.2269 -0.5472
 4431SOL    HW124512   2.188   4.178   3.830  1.1451  1.3684  0.6226
 4431SOL    HW224513   2.202   4.191   3.668 -1.6458 -0.9560  0.1508
 4432SOL     OW24514   2.204   6.341   2.987  0.3760  0.0529  0.1087
 4432SOL    HW124515   2.222   6.351   3.085 -0.6233  0.4727  0.2560
 4432SOL    HW224516   2.105   6.336   2.972  0.5777 -1.7220 -0.7317
 4433SOL     OW24517   2.335   0.833   5.891 -0.1092  0.2766 -0.2774
 4433SOL    HW124518   2.257   0.878   5.848 -0.0205  1.0346  0.3532
 4433SOL    HW224519   2.311   0.738   5.911 -0.9395  0.5498  0.0759
 4434SOL     OW24520   7.927   8.257   5.464  0.0037  0.1833 -0.1515
 4434SOL    HW124521   7.912   8.213   5.376 -1.1602  3.3508 -1.6001
 4434SOL    HW224522   7.999   8.325   5.456 -0.9673  1.3773  1.0276
 4435SOL     OW24523   3.228   9.498   6.676  0.3474  0.5277  1.0007
 4435SOL    HW124524   3.272   9.538   6.596 -0.6187 -1.8731 -0.7935
 4435SOL    HW224525   3.142   9.546   6.695  0.9314  1.5619  1.0542
 4436SOL     OW24526   1.433   7.501   0.658  0.0604 -0.2055  0.4260
 4436SOL    HW124527   1.419   7.503   0.757  0.2157  0.3936  0.4397
 4436SOL    HW224528   1.379   7.575   0.616 -0.3296 -0.7144  0.0223
 4437SOL     OW24529   4.892   8.489   6.016 -0.0882  0.2982 -0.0729
 4437SOL    HW124530   4.826   8.451   6.081  0.6918 -0.9591  0.0044
 4437SOL    HW224531   4.872   8.453   5.924 -0.5017  1.1837 -0.3272
 4438SOL     OW24532   8.686   7.759   3.647  0.2600 -0.3856  0.5958
 4438SOL    HW124533   8.617   7.711   3.594  2.0247 -1.5522 -0.6667
 4438SOL    HW224534   8.772   7.762   3.596  1.4656  0.0924  2.5992
 4439SOL     OW24535   7.062   0.400   6.077  0.3930 -0.2805 -0.5195
 4439SOL    HW124536   6.985   0.445   6.122  1.1432  0.5791 -0.0830
 4439SOL    HW224537   7.130   0.375   6.146  0.3364 -1.3985 -0.8560
 4440SOL     OW24538   8.346   4.589   5.123  0.2412 -0.3233  0.3486
 4440SOL    HW124539   8.367   4.569   5.218 -0.7378 -0.0938  0.6124
 4440SOL    HW224540   8.337   4.688   5.110 -1.2521 -0.4403  0.3685
 4441SOL     OW24541   1.149   5.892   3.162 -0.0464 -0.2639  0.5909
 4441SOL    HW124542   1.068   5.843   3.194  0.1939 -0.2908  1.1576
 4441SOL    HW224543   1.231   5.841   3.189  0.1438 -0.6406 -0.6454
 4442SOL     OW24544   8.035   3.244   0.838  0.2832 -0.0961 -0.1206
 4442SOL    HW124545   7.947   3.257   0.792  0.7192 -1.5483 -1.4001
 4442SOL    HW224546   8.034   3.292   0.925 -2.0176 -0.5721  0.1555
 4443SOL     OW24547   6.464   0.350   3.281  0.0209 -0.5000 -0.2708
 4443SOL    HW124548   6.375   0.396   3.280 -0.9549 -2.3178  0.7818
 4443SOL    HW224549   6.466   0.280   3.210  0.4287 -0.7733  0.0067
 4444SOL     OW24550   5.151   8.899   3.244  0.2279  0.0871 -0.2314
 4444SOL    HW124551   5.128   8.994   3.223  0.1652 -0.0519 -0.7850
 4444SOL    HW224552   5.232   8.897   3.304 -0.5536  0.5347  0.8647
 4445SOL     OW24553   2.625   8.865   0.390 -0.0275 -0.4439 -0.4070
 4445SOL    HW124554   2.684   8.806   0.335  0.4421  0.0846 -0.4788
 4445SOL    HW224555   2.556   8.908   0.331 -0.6031 -1.1998 -0.2934
 4446SOL     OW24556   2.184   7.119   3.812  0.9760 -0.5953  0.3939
 4446SOL    HW124557   2.085   7.108   3.812  0.9225 -0.2796  2.0955
 4446SOL    HW224558   2.225   7.050   3.751 -0.2069 -1.4993  0.5991
 4447SOL     OW24559   6.103   8.209   5.293 -0.1732  0.6544  0.1712
 4447SOL    HW124560   6.139   8.125   5.251 -0.4988 -0.5870  2.2853
 4447SOL    HW224561   6.021   8.238   5.244  1.7903  1.6158 -2.6104
 4448SOL     OW24562   2.875   7.909   2.280 -0.0454  0.3391  0.3872
 4448SOL    HW124563   2.932   7.892   2.360  0.5670 -0.4194 -0.2069
 4448SOL    HW224564   2.819   7.828   2.261 -1.9354  1.3556  1.4563
 4449SOL     OW24565   1.595   2.086   3.580 -0.0079 -0.2496 -0.1134
 4449SOL    HW124566   1.582   1.988   3.566 -1.7570  0.2047 -1.8946
 4449SOL    HW224567   1.693   2.108   3.578  0.2457 -1.3001 -4.7490
 4450SOL     OW24568   1.996   7.439   2.204  0.3155 -0.1700  0.0853
 4450SOL    HW124569   2.061   7.375   2.162  1.4676  1.2619 -0.3763
 4450SOL    HW224570   2.045   7.501   2.266 -0.5198  1.2902 -0.6828
 4451SOL     OW24571   3.653   4.459   0.603  0.0412  0.3846 -0.5730
 4451SOL    HW124572   3.671   4.361   0.591 -0.0072  0.2299  0.5636
 4451SOL    HW224573   3.566   4.471   0.651  1.1570  0.9002  1.3793
 4452SOL     OW24574   8.802   7.364   5.892 -0.7187 -0.1469  0.0990
 4452SOL    HW124575   8.762   7.339   5.803  0.6313 -1.1202 -0.2604
 4452SOL    HW224576   8.841   7.283   5.934  2.0276  0.9968 -0.1747
 4453SOL     OW24577   5.095   9.220   3.403 -0.6020  0.1070 -0.3701
 4453SOL    HW124578   5.084   9.262   3.493  0.0525 -0.5504  0.0220
 4453SOL    HW224579   5.192   9.218   3.379 -0.7059 -0.4152 -0.7564
 4454SOL     OW24580   9.431   7.480   5.428 -0.4221  0.2719  0.4755
 4454SOL    HW124581   9.497   7.468   5.502  0.6815 -2.0561 -0.8145
 4454SOL    HW224582   9.471   7.537   5.357  0.3513 -1.3636 -0.4308
 4455SOL     OW24583   9.351   1.044   3.465 -0.1101  0.3037  0.0439
 4455SOL    HW124584   9.365   0.974   3.395 -1.5989 -0.7498  0.7932
 4455SOL    HW224585   9.327   1.130   3.421 -0.2110 -0.1388 -0.7800
 4456SOL     OW24586   4.891   4.757   4.860 -0.4945 -0.1138  0.3586
 4456SOL    HW124587   4.918   4.663   4.843  0.2807  0.0216  0.8564
 4456SOL    HW224588   4.867   4.801   4.773 -0.2563 -0.5795  0.0567
 4457SOL     OW24589   3.759   3.186   3.753 -0.0876  0.3037 -0.2096
 4457SOL    HW124590   3.708   3.115   3.801  0.1114 -0.5401 -1.2554
 4457SOL    HW224591   3.775   3.263   3.816  0.5976 -0.9892  1.2456
 4458SOL     OW24592   9.766   1.564   3.370 -0.1690 -0.4798  0.6123
 4458SOL    HW124593   9.834   1.635   3.354  0.1834 -0.6998  1.1280
 4458SOL    HW224594   9.752   1.553   3.468  0.7502 -2.0509  0.5754
 4459SOL     OW24595   8.717   0.947   5.972  0.6481 -0.0787 -0.5258
 4459SOL    HW124596   8.699   0.996   6.057 -0.3074 -1.7739  0.2720
 4459SOL    HW224597   8.809   0.970   5.940  0.4603  1.7157  0.1623
 4460SOL     OW24598   9.926   1.270   2.813  0.4727 -0.6034  0.8940
 4460SOL    HW124599   9.903   1.228   2.901  0.3032  0.3124  1.2860
 4460SOL    HW224600   9.927   1.369   2.822  0.2392 -0.4937 -0.1949
 4461SOL     OW24601   0.306   9.060   5.383  0.3591 -0.1307  0.5108
 4461SOL    HW124602   0.269   8.967   5.382 -1.3039  0.5040 -2.4762
 4461SOL    HW224603   0.248   9.119   5.439 -0.9063 -0.0248 -0.8879
 4462SOL     OW24604   1.261   2.179   6.713  0.0631 -0.3278 -0.3287
 4462SOL    HW124605   1.236   2.202   6.807  1.2433 -0.5836  0.0565
 4462SOL    HW224606   1.208   2.235   6.650 -1.2950 -0.6932  0.4655
 4463SOL     OW24607   3.419   0.922   1.185 -0.2318 -0.1296  0.4971
 4463SOL    HW124608   3.510   0.881   1.186 -0.6394 -1.0676  2.7041
 4463SOL    HW224609   3.350   0.851   1.200 -1.2924  0.6522 -0.6219
 4464SOL     OW24610   1.062   5.841   6.432  0.2990 -0.5413 -0.0177
 4464SOL    HW124611   1.116   5.925   6.428 -0.0815 -0.2510  0.7932
 4464SOL    HW224612   1.031   5.826   6.526  1.3229 -2.1871  0.0895
 4465SOL     OW24613   5.094   2.501   2.918  0.2387 -0.5039 -0.2449
 4465SOL    HW124614   5.065   2.596   2.902 -0.1022 -0.9456 -2.4052
 4465SOL    HW224615   5.166   2.500   2.988  0.3111  1.3579 -0.2665
 4466SOL     OW24616   9.886   6.394   3.306 -0.0298 -0.1542  0.9889
 4466SOL    HW124617   9.964   6.453   3.327 -1.0451  1.8007 -0.4928
 4466SOL    HW224618   9.818   6.447   3.256 -1.5705 -2.2820  0.7852
 4467SOL     OW24619   5.494   1.106   1.137 -0.8388  0.3908 -0.1006
 4467SOL    HW124620   5.431   1.043   1.181 -0.1832  0.4638  0.9629
 4467SOL    HW224621   5.585   1.065   1.133 -0.8899  0.3809 -1.4058
 4468SOL     OW24622   0.716   1.696   6.290  0.5319  0.1755 -0.5186
 4468SOL    HW124623   0.641   1.645   6.331  0.4414  0.0560 -0.8320
 4468SOL    HW224624   0.771   1.636   6.232 -0.6120  0.7935 -2.3090
 4469SOL     OW24625   0.849   7.082   5.580  0.6166  0.4623  0.3908
 4469SOL    HW124626   0.772   7.030   5.616 -0.2142  1.4514  0.0496
 4469SOL    HW224627   0.903   7.023   5.519 -0.2601 -0.0236  0.0766
 4470SOL     OW24628   1.746   3.473   2.961  0.2180  0.3435  0.1638
 4470SOL    HW124629   1.654   3.485   2.999 -0.3408 -0.7371 -0.8032
 4470SOL    HW224630   1.760   3.376   2.938  1.6345  0.4828  0.3935
 4471SOL     OW24631  -0.002   0.124   3.678 -0.2851 -0.4802  0.0726
 4471SOL    HW124632   0.060   0.098   3.752  1.3715 -0.0339 -1.1292
 4471SOL    HW224633  -0.025   0.043   3.624 -1.0448 -0.7073  0.7286
 4472SOL     OW24634   9.712   1.434   3.629 -0.0976  0.1252 -0.2598
 4472SOL    HW124635   9.809   1.414   3.615 -0.2151  0.1403 -1.1453
 4472SOL    HW224636   9.691   1.434   3.727  0.7652 -0.0127 -0.0745
 4473SOL     OW24637   1.632   0.143   5.623 -0.2688 -0.2914 -0.8329
 4473SOL    HW124638   1.613   0.178   5.532  0.7192 -0.4805 -1.1203
 4473SOL    HW224639   1.590   0.202   5.692  2.4739  2.2360 -1.2363
 4474SOL     OW24640   0.577   7.421   3.493  0.6393 -0.3598 -0.3165
 4474SOL    HW124641   0.624   7.508   3.483 -0.7935  0.8288  2.6804
 4474SOL    HW224642   0.494   7.421   3.438 -0.9389  1.4203  1.9509
 4475SOL     OW24643   0.705   9.739   0.446 -0.1845 -0.4303 -0.0210
 4475SOL    HW124644   0.792   9.712   0.489  1.4146  3.9121 -0.2246
 4475SOL    HW224645   0.634   9.744   0.516  1.2640  1.8724  1.3972
 4476SOL     OW24646   7.839   0.863   3.707  0.6397  0.0256  0.7510
 4476SOL    HW124647   7.743   0.836   3.720  0.8316 -1.1188 -0.1390
 4476SOL    HW224648   7.883   0.873   3.797  0.1862 -1.2965  1.1364
 4477SOL     OW24649   1.643   8.182   2.376  0.0043 -0.6049 -1.1860
 4477SOL    HW124650   1.726   8.230   2.351  0.8414 -0.9183  0.8757
 4477SOL    HW224651   1.614   8.210   2.468 -1.3366 -1.5924 -1.2813
 4478SOL     OW24652   9.321   2.637   4.120  0.8351  0.4289 -0.2654
 4478SOL    HW124653   9.385   2.713   4.136 -0.9288  1.5914  1.4948
 4478SOL    HW224654   9.282   2.607   4.207 -1.4573  0.1387 -1.3558
 4479SOL     OW24655   8.006   9.208   5.230  0.0782 -0.0576  0.4441
 4479SOL    HW124656   7.963   9.277   5.290  0.6753  0.7109  0.0009
 4479SOL    HW224657   8.105   9.206   5.248  1.0056  3.3093 -3.5038
 4480SOL     OW24658   3.130   6.593   0.329 -0.1608 -0.8840  0.6776
 4480SOL    HW124659   3.219   6.636   0.314 -1.4336  1.5512 -0.2239
 4480SOL    HW224660   3.061   6.664   0.345 -2.6457 -2.4986 -2.3929
 4481SOL     OW24661   4.684   2.631   1.520  0.0358  0.3674 -0.4139
 4481SOL    HW124662   4.675   2.717   1.568 -1.3890  0.3213 -0.5766
 4481SOL    HW224663   4.733   2.565   1.577 -0.7684  0.6206  0.5710
 4482SOL     OW24664   9.687   9.689   2.253  0.6606  0.3407 -1.1788
 4482SOL    HW124665   9.646   9.742   2.327  0.2431 -2.1629  0.4577
 4482SOL    HW224666   9.616   9.665   2.186 -0.3374 -2.4774  0.7478
 4483SOL     OW24667   0.063   3.149   1.313 -0.3011 -0.0045 -0.2664
 4483SOL    HW124668   0.125   3.076   1.340  1.4171  1.6924  0.5287
 4483SOL    HW224669   0.112   3.236   1.314 -1.7498  0.9145 -3.1318
 4484SOL     OW24670   9.527   3.424   2.734 -0.6468  0.2182 -0.0462
 4484SOL    HW124671   9.594   3.447   2.664 -1.5399 -0.1565 -1.0237
 4484SOL    HW224672   9.451   3.489   2.731 -0.8406  0.0140  0.3762
 4485SOL     OW24673   9.846   5.245   1.413  0.1036 -0.0816  0.2585
 4485SOL    HW124674   9.936   5.244   1.458  0.3390  1.2588 -0.1366
 4485SOL    HW224675   9.858   5.227   1.315 -0.2310 -1.4222  0.4644
 4486SOL     OW24676   5.874   8.697   4.331  0.1675 -0.6080 -0.1472
 4486SOL    HW124677   5.897   8.794   4.332  0.7000 -0.7320 -0.0158
 4486SOL    HW224678   5.930   8.650   4.262  0.5526 -0.9689  0.4075
 4487SOL     OW24679   8.580   9.387   1.609 -0.2657 -0.0844  0.4147
 4487SOL    HW124680   8.545   9.421   1.697  0.7552 -0.4960  0.9840
 4487SOL    HW224681   8.598   9.465   1.549 -2.9706  0.1098 -0.2238
 4488SOL     OW24682   1.249   1.789   6.337 -0.0693  0.1593  0.1196
 4488SOL    HW124683   1.155   1.822   6.340 -0.2517 -0.0277 -2.3116
 4488SOL    HW224684   1.310   1.856   6.378 -1.3936 -0.2839  2.8776
 4489SOL     OW24685   9.444   9.018   6.101 -0.6980 -0.5739  0.4370
 4489SOL    HW124686   9.471   8.969   6.018 -1.4650 -0.2998  0.0184
 4489SOL    HW224687   9.505   8.993   6.176  0.6918  0.0167 -0.4747
 4490SOL     OW24688   1.373   1.753   4.671  0.1260 -0.3508  0.1741
 4490SOL    HW124689   1.294   1.710   4.713  0.0496 -1.9515 -1.5721
 4490SOL    HW224690   1.455   1.698   4.688  0.3796 -0.1598 -0.4118
 4491SOL     OW24691   0.324   9.996   2.446 -0.8374 -0.2855 -0.2173
 4491SOL    HW124692   0.377  10.038   2.520 -1.1797 -0.2055 -0.0128
 4491SOL    HW224693   0.368  10.014   2.358  0.7436 -2.2232  0.1466
 4492SOL     OW24694   2.565   1.977   2.118  0.0448 -0.1037 -0.3480
 4492SOL    HW124695   2.518   2.063   2.097  0.9967  0.6650  0.5803
 4492SOL    HW224696   2.499   1.911   2.153 -0.3606  0.9665  0.9474
 4493SOL     OW24697   4.670   9.890   1.799  0.1056 -0.1996  0.0938
 4493SOL    HW124698   4.685   9.911   1.703  0.6376  1.5367  0.5308
 4493SOL    HW224699   4.759   9.886   1.846 -0.3231  2.7187  1.2376
 4494SOL     OW24700   2.854   4.356   2.080  0.1401 -0.1977  0.2236
 4494SOL    HW124701   2.906   4.274   2.054 -0.1157  0.2060 -1.5672
 4494SOL    HW224702   2.909   4.438   2.062 -0.4396  0.1371 -0.0193
 4495SOL     OW24703   9.373   4.633   2.830 -0.5913 -0.3848  0.0358
 4495SOL    HW124704   9.356   4.644   2.732  1.5137 -1.5694 -0.4809
 4495SOL    HW224705   9.387   4.536   2.851 -1.2839 -0.1715  1.5648
 4496SOL     OW24706   9.497   6.456   4.899 -0.4710  0.0658 -0.0288
 4496SOL    HW124707   9.560   6.407   4.960 -0.0433  0.2133 -0.3560
 4496SOL    HW224708   9.457   6.533   4.948  2.8428  2.5773 -1.0992
 4497SOL     OW24709   7.800   4.733   1.810  0.2257  0.1886  0.0720
 4497SOL    HW124710   7.875   4.713   1.747 -0.1811  1.1100 -0.7193
 4497SOL    HW224711   7.795   4.832   1.825 -1.0399  0.1721 -0.1612
 4498SOL     OW24712   9.669   3.969   2.963 -0.2780 -0.0535 -0.1068
 4498SOL    HW124713   9.667   4.039   3.035 -1.4908  1.2764 -1.3918
 4498SOL    HW224714   9.654   3.879   3.003 -0.8499  0.6617  1.3267
 4499SOL     OW24715   0.672   5.810   0.842  0.3181  0.6096  0.0655
 4499SOL    HW124716   0.679   5.839   0.747 -1.5855 -1.4083 -0.7276
 4499SOL    HW224717   0.581   5.829   0.876  0.9509  1.1937  1.4708
 4500SOL     OW24718   3.163   5.293   3.341 -0.6998  0.0660  0.3538
 4500SOL    HW124719   3.196   5.259   3.429 -1.9946  1.1927  1.2932
 4500SOL    HW224720   3.068   5.324   3.350 -0.5187  1.1380 -1.1939
 4501SOL     OW24721   9.612   4.198   3.226  0.1864 -0.6329 -0.5187
 4501SOL    HW124722   9.610   4.298   3.230  3.0602 -0.3459 -4.0835
 4501SOL    HW224723   9.693   4.163   3.273 -0.9491 -1.3694  0.9580
 4502SOL     OW24724   1.418   6.432   2.834 -0.2371  0.0743 -0.3170
 4502SOL    HW124725   1.332   6.386   2.815 -0.0222 -0.5060  0.0946
 4502SOL    HW224726   1.468   6.447   2.749  0.3922 -1.8508 -0.3161
 4503SOL     OW24727   7.530   3.992   5.736 -0.0510 -0.2280 -0.4601
 4503SOL    HW124728   7.597   4.045   5.787 -0.8944 -0.6724  1.1412
 4503SOL    HW224729   7.498   4.045   5.658 -0.9529  1.6784  1.1763
 4504SOL     OW24730   0.281   1.459   2.386 -0.2336 -0.2312  0.7527
 4504SOL    HW124731   0.366   1.477   2.436  0.3748  3.1752 -1.3699
 4504SOL    HW224732   0.203   1.473   2.447  0.5787  1.5388  1.4141
 4505SOL     OW24733   7.336   2.397   0.970  0.3480  0.0598  0.0730
 4505SOL    HW124734   7.327   2.389   0.870  1.8670 -2.4717  0.1014
 4505SOL    HW224735   7.246   2.414   1.010 -0.6516 -1.2411 -1.5470
 4506SOL     OW24736   2.065   6.561   3.331  0.4940  0.4244 -0.3596
 4506SOL    HW124737   2.058   6.605   3.241 -0.6401 -0.0025 -0.4964
 4506SOL    HW224738   1.973   6.545   3.367  0.9309 -0.1127  0.5316
 4507SOL     OW24739   1.899   9.693   4.072 -0.2161  0.4862 -0.1109
 4507SOL    HW124740   1.924   9.773   4.127  1.9151 -0.6589  0.6388
 4507SOL    HW224741   1.817   9.651   4.110 -1.3078  2.2415 -0.4631
 4508SOL     OW24742   1.467   5.306   4.701  0.4409  0.0119  0.1505
 4508SOL    HW124743   1.466   5.313   4.601 -1.0937 -1.2675  0.0425
 4508SOL    HW224744   1.399   5.369   4.739 -0.8107 -1.3460  0.2125
 4509SOL     OW24745   7.621   9.637   4.416  0.1926 -0.4139  0.0033
 4509SOL    HW124746   7.621   9.599   4.323  0.4189 -1.3410  0.3728
 4509SOL    HW224747   7.652   9.567   4.480  0.6511  0.4292  0.7032
 4510SOL     OW24748   8.359   2.325   1.631  0.4276 -0.4022 -0.2056
 4510SOL    HW124749   8.363   2.370   1.541 -0.6195 -0.6793 -0.3941
 4510SOL    HW224750   8.273   2.276   1.640  0.3907 -0.1095  1.0898
 4511SOL     OW24751   0.813   1.316   0.514  0.6043 -0.0657  0.4773
 4511SOL    HW124752   0.860   1.318   0.602 -0.1430 -0.7717  0.8956
 4511SOL    HW224753   0.717   1.342   0.526  0.2780 -1.0534  0.0159
 4512SOL     OW24754   4.318   2.444   0.017  0.4875 -0.0905 -0.3044
 4512SOL    HW124755   4.280   2.412   0.104 -2.3541  1.1523 -1.0507
 4512SOL    HW224756   4.342   2.541   0.024 -1.2361  0.4286 -1.3567
 4513SOL     OW24757   0.532   9.040   1.778 -0.1010 -0.6849  0.4214
 4513SOL    HW124758   0.453   9.100   1.788 -1.0118 -1.7898 -0.0852
 4513SOL    HW224759   0.554   8.998   1.866 -0.2980 -0.6519  0.4862
 4514SOL     OW24760   7.539   7.867   4.366  0.3702 -0.1070 -0.2735
 4514SOL    HW124761   7.504   7.886   4.458 -0.6219  1.0133 -0.8765
 4514SOL    HW224762   7.539   7.951   4.312 -3.4880 -1.5833 -2.7948
 4515SOL     OW24763   1.315   8.111   2.251  0.2013  0.1658 -0.1121
 4515SOL    HW124764   1.412   8.096   2.270 -0.1767  1.0707  2.6602
 4515SOL    HW224765   1.271   8.024   2.228  1.5649 -0.3050 -0.9694
 4516SOL     OW24766   4.048   8.587   4.959  0.5226  0.4827  0.3359
 4516SOL    HW124767   4.048   8.686   4.974  0.5074  0.5412 -0.0432
 4516SOL    HW224768   4.122   8.546   5.012  0.6266  0.7181  0.3759
 4517SOL     OW24769   3.007   8.995   0.728 -0.4727  0.1138  0.1519
 4517SOL    HW124770   2.932   9.012   0.664  0.0177  0.1216 -0.4332
 4517SOL    HW224771   3.040   9.082   0.765 -0.2210  0.1722 -0.2097
 4518SOL     OW24772   7.462   2.633   3.086  0.6555  0.2253 -0.2802
 4518SOL    HW124773   7.549   2.639   3.135  0.7642  1.4722 -0.6061
 4518SOL    HW224774   7.475   2.665   2.992 -0.5234  2.0450  0.1460
 4519SOL     OW24775   1.618   5.401   0.743 -0.3530 -0.2604 -0.6177
 4519SOL    HW124776   1.628   5.316   0.691 -1.4444  0.2598 -1.7041
 4519SOL    HW224777   1.647   5.478   0.686 -0.4205  0.1961 -0.0316
 4520SOL     OW24778   8.240   9.802   6.270  0.5419 -0.1325  0.1535
 4520SOL    HW124779   8.240   9.900   6.250  0.1093 -0.4944 -1.6822
 4520SOL    HW224780   8.151   9.776   6.309  0.5825  0.1663  0.4465
 4521SOL     OW24781   7.903   8.492   4.163 -0.0211  0.2929 -0.0372
 4521SOL    HW124782   7.981   8.478   4.224  1.1381 -2.2901 -2.0170
 4521SOL    HW224783   7.934   8.494   4.069 -2.3453 -0.8008 -0.8653
 4522SOL     OW24784   2.533   7.745   0.846  0.0915 -0.0546 -0.0705
 4522SOL    HW124785   2.568   7.797   0.768 -0.2124  0.1258 -0.0880
 4522SOL    HW224786   2.491   7.808   0.911  0.2209 -0.2202  0.1716
 4523SOL     OW24787   9.225   2.232   3.235 -0.2880  0.1080 -0.2070
 4523SOL    HW124788   9.307   2.218   3.179 -1.0596 -1.3354 -1.0002
 4523SOL    HW224789   9.146   2.244   3.176 -1.0444 -0.9984  0.5467
 4524SOL     OW24790   8.442   9.660   6.102 -0.5656  0.1099  0.0391
 4524SOL    HW124791   8.367   9.703   6.152 -1.0037 -1.3827  0.6945
 4524SOL    HW224792   8.444   9.562   6.122  1.6756  0.1447  0.1881
 4525SOL     OW24793   8.495   0.322   2.112 -0.1823 -0.2674 -0.5994
 4525SOL    HW124794   8.408   0.345   2.157  0.6928  0.4712  0.7392
 4525SOL    HW224795   8.515   0.225   2.129 -1.7448 -0.9825 -2.6488
 4526SOL     OW24796   9.932   8.468   1.075 -0.0501 -0.2502  0.4001
 4526SOL    HW124797   9.977   8.555   1.058 -1.7219  0.7979  1.2759
 4526SOL    HW224798   9.935   8.447   1.173  0.6505 -1.3591  0.1584
 4527SOL     OW24799   1.746   2.389   5.469 -0.2719 -0.2018  0.2073
 4527SOL    HW124800   1.665   2.395   5.412 -1.0813 -3.7115  0.8302
 4527SOL    HW224801   1.818   2.340   5.420 -0.3437 -1.6188  1.4663
 4528SOL     OW24802   2.493   5.362   5.602 -0.4200  0.5216  0.4024
 4528SOL    HW124803   2.420   5.415   5.646 -0.5296 -1.0433  2.1230
 4528SOL    HW224804   2.453   5.303   5.532 -0.7879 -0.1571  1.1785
 4529SOL     OW24805   2.569   2.958   3.629 -0.3120  0.1032 -0.6773
 4529SOL    HW124806   2.589   2.869   3.670 -2.8218  0.6647  1.8958
 4529SOL    HW224807   2.624   3.029   3.675 -1.6351  0.4600  0.3804
 4530SOL     OW24808   0.382   3.356   6.370 -0.0257  0.1910 -0.6963
 4530SOL    HW124809   0.388   3.455   6.378  0.4787  0.4320 -3.3815
 4530SOL    HW224810   0.331   3.333   6.286 -0.4152 -1.8103  0.0598
 4531SOL     OW24811   3.271   0.438   4.158 -0.2035 -0.4982  0.0108
 4531SOL    HW124812   3.368   0.418   4.173 -0.0869  0.5935  0.7578
 4531SOL    HW224813   3.228   0.361   4.110  1.1238 -0.8106 -0.7111
 4532SOL     OW24814   4.319   0.341   1.739  0.7820 -0.4571  0.2975
 4532SOL    HW124815   4.229   0.305   1.765  0.3038  0.7945  0.3832
 4532SOL    HW224816   4.338   0.424   1.791  0.6987  0.9298 -1.8566
 4533SOL     OW24817   9.110   4.853   4.152  0.0808  0.4355  0.0660
 4533SOL    HW124818   9.154   4.885   4.235  0.4467  1.6024 -0.5736
 4533SOL    HW224819   9.060   4.928   4.109 -0.9876 -0.4199 -0.2060
 4534SOL     OW24820   1.330   4.818   6.723  0.5949  0.4145 -0.4051
 4534SOL    HW124821   1.395   4.888   6.753  1.6583 -0.0663 -1.5233
 4534SOL    HW224822   1.297   4.842   6.631 -0.0107  0.1108 -0.2645
 4535SOL     OW24823   3.211   9.409   3.335  0.0426 -0.8683  0.1173
 4535SOL    HW124824   3.238   9.465   3.413 -1.6245 -0.5362  0.4666
 4535SOL    HW224825   3.227   9.460   3.250 -0.3495 -0.3196  0.3698
 4536SOL     OW24826   2.327   8.876   4.356  0.0141  0.0736 -0.1459
 4536SOL    HW124827   2.383   8.794   4.364  0.0448  0.1570  0.5681
 4536SOL    HW224828   2.317   8.918   4.447 -1.7594 -0.3102 -0.1493
 4537SOL     OW24829   0.922   1.961   3.304 -0.7308  0.2078  0.5045
 4537SOL    HW124830   0.962   2.001   3.222  1.5534 -2.2303  0.3604
 4537SOL    HW224831   0.838   2.010   3.328 -1.7235  0.6397 -3.5409
 4538SOL     OW24832   5.330   9.268   4.999  0.1165  0.1865 -0.6409
 4538SOL    HW124833   5.364   9.207   5.070 -1.7503 -0.3142 -0.1466
 4538SOL    HW224834   5.241   9.304   5.026 -0.4876  0.2192 -2.5920
 4539SOL     OW24835   4.675   9.579   6.017 -0.2203 -0.2458  0.0721
 4539SOL    HW124836   4.615   9.658   6.029  0.0200 -0.1025  0.3433
 4539SOL    HW224837   4.621   9.495   6.018 -0.5660 -0.0435 -0.9763
 4540SOL     OW24838   9.215   5.695   5.980 -0.3807  0.4853  0.6028
 4540SOL    HW124839   9.267   5.729   5.902 -1.1696 -0.0699 -0.1806
 4540SOL    HW224840   9.178   5.772   6.032  0.6548  0.8673  0.7813
 4541SOL     OW24841   3.758   8.818   4.227  0.4119  0.4763  0.4190
 4541SOL    HW124842   3.738   8.741   4.287  1.9141  0.4777  0.9441
 4541SOL    HW224843   3.755   8.903   4.280  2.3511  0.4228  0.6863
 4542SOL     OW24844   4.888   7.915   1.835 -0.1884  0.0216 -0.2241
 4542SOL    HW124845   4.849   7.969   1.910  0.8898  1.3543 -0.6063
 4542SOL    HW224846   4.846   7.943   1.749 -0.2893 -0.4042 -0.3155
 4543SOL     OW24847   1.008   0.572   6.339  0.4497 -0.2669  0.1774
 4543SOL    HW124848   1.070   0.650   6.327 -1.1276  0.7853 -1.4358
 4543SOL    HW224849   1.019   0.509   6.262 -1.3850  0.6144 -0.8602
 4544SOL     OW24850   9.057   1.313   3.587  0.7176 -0.0611 -0.2531
 4544SOL    HW124851   8.975   1.353   3.547  1.9006  1.5087 -1.1647
 4544SOL    HW224852   9.049   1.213   3.587 -1.5954  0.1195  0.5920
 4545SOL     OW24853   0.398   8.423   1.172 -0.4909 -0.3862 -0.2609
 4545SOL    HW124854   0.427   8.333   1.139 -1.3637 -0.7767  0.0274
 4545SOL    HW224855   0.469   8.460   1.233  0.2387 -0.5166 -1.0144
 4546SOL     OW24856   6.248   0.500   5.834 -0.0193  0.1222  0.0720
 4546SOL    HW124857   6.182   0.451   5.776 -1.9955  1.4136  1.1776
 4546SOL    HW224858   6.200   0.543   5.910  2.0796  1.4299  0.6993
 4547SOL     OW24859   0.220   7.178   0.209  0.0029 -0.5511 -0.4670
 4547SOL    HW124860   0.316   7.152   0.213 -0.1465 -0.6985  2.8997
 4547SOL    HW224861   0.210   7.275   0.232 -0.4846 -0.0078 -2.8335
 4548SOL     OW24862   2.382   1.234   1.644  0.0637 -0.1497 -0.4819
 4548SOL    HW124863   2.359   1.238   1.547  0.6796  1.0606 -0.5948
 4548SOL    HW224864   2.479   1.211   1.655  0.0884  0.1017 -0.1645
 4549SOL     OW24865   4.575   9.304   0.516 -0.0937 -0.3430 -0.0408
 4549SOL    HW124866   4.674   9.321   0.512 -0.1468  0.2887  1.2768
 4549SOL    HW224867   4.554   9.249   0.597 -1.0274  0.8928  0.5626
 4550SOL     OW24868   1.583   8.689   0.787 -0.4928  0.0169  1.1502
 4550SOL    HW124869   1.602   8.762   0.722 -0.8078  0.2854  1.3613
 4550SOL    HW224870   1.659   8.623   0.786  0.8856  1.5330  2.5875
 4551SOL     OW24871   1.665   9.346   3.850  0.0747  0.3108  0.5247
 4551SOL    HW124872   1.602   9.424   3.858  1.0824  0.9625  2.4888
 4551SOL    HW224873   1.614   9.266   3.819 -0.9729  1.7447 -1.5827
 4552SOL     OW24874   5.764   0.589   3.210 -0.2267  0.1139 -0.5430
 4552SOL    HW124875   5.701   0.589   3.288  0.7551 -1.8750  0.3085
 4552SOL    HW224876   5.713   0.596   3.125 -1.4709  0.2872  0.2101
 4553SOL     OW24877   3.189   6.130   4.996  0.0242 -0.2186  0.2545
 4553SOL    HW124878   3.247   6.059   4.957  1.7046  0.6354  1.1834
 4553SOL    HW224879   3.142   6.178   4.921  3.7636  1.8733 -0.8850
 4554SOL     OW24880   9.225   9.988   0.027 -0.5378  0.2361 -0.6437
 4554SOL    HW124881   9.272   9.997   0.115 -0.6491 -2.2886 -0.2715
 4554SOL    HW224882   9.292   9.961  -0.043 -0.7821  0.3769 -0.9301
 4555SOL     OW24883   7.448   0.016   1.705  0.2594 -0.8235 -0.0675
 4555SOL    HW124884   7.456   0.065   1.618 -0.4901  0.5356  0.6128
 4555SOL    HW224885   7.524   0.042   1.765 -0.8120  0.5025  0.7566
 4556SOL     OW24886   0.341   7.918   4.355 -0.0237 -0.2955  0.1486
 4556SOL    HW124887   0.389   7.956   4.276 -0.9795 -0.3899 -0.4735
 4556SOL    HW224888   0.276   7.848   4.325 -2.1068  1.3404  0.7754
 4557SOL     OW24889   5.490   2.039   3.569 -0.1333 -0.1595  0.4357
 4557SOL    HW124890   5.403   2.088   3.572 -0.3694 -0.6077  0.9138
 4557SOL    HW224891   5.493   1.971   3.642 -0.1869 -1.4954 -0.7901
 4558SOL     OW24892   7.624   2.319   1.082  0.3206 -0.2481 -0.6717
 4558SOL    HW124893   7.573   2.394   1.124 -3.7272 -1.8190 -2.5156
 4558SOL    HW224894   7.675   2.353   1.003 -0.9640  0.6761 -1.1049
 4559SOL     OW24895   3.143   2.271   1.453 -0.3605  0.6183  0.5011
 4559SOL    HW124896   3.120   2.192   1.510  3.0751 -1.3457 -0.6846
 4559SOL    HW224897   3.179   2.344   1.511  2.1567 -0.9873  1.0194
 4560SOL     OW24898   5.944   7.651   2.420  1.0003 -0.3283 -0.1847
 4560SOL    HW124899   5.875   7.656   2.491  1.4048 -0.2306  0.2021
 4560SOL    HW224900   5.938   7.563   2.373  1.4427 -0.8230  0.6882
 4561SOL     OW24901   3.132   2.511   4.006 -0.0862 -0.2217  0.2571
 4561SOL    HW124902   3.117   2.547   4.098 -0.2648  1.6509 -0.4790
 4561SOL    HW224903   3.103   2.416   4.002  0.3338 -0.4430  2.2523
 4562SOL     OW24904   0.990   6.592   3.782  0.5424  0.2040 -0.1405
 4562SOL    HW124905   0.894   6.595   3.807  0.5070  0.2023 -0.2745
 4562SOL    HW224906   1.000   6.549   3.692  0.9048 -2.4532  1.1269
 4563SOL     OW24907   9.853   7.771   1.998  0.2590 -0.6203 -0.5586
 4563SOL    HW124908   9.907   7.703   1.948 -0.6567 -0.0184 -2.4096
 4563SOL    HW224909   9.756   7.755   1.982 -0.1590 -1.6173  2.6586
 4564SOL     OW24910   4.814   1.504   6.536  0.1284  0.2866  0.0598
 4564SOL    HW124911   4.765   1.454   6.464 -0.0327  0.1448  0.2664
 4564SOL    HW224912   4.877   1.569   6.494 -0.1601  0.3950 -0.2112
 4565SOL     OW24913   2.385   2.163   2.756  0.7397  0.1737 -0.2139
 4565SOL    HW124914   2.452   2.108   2.804 -0.5772 -2.0977 -0.9026
 4565SOL    HW224915   2.431   2.235   2.703  2.4797 -0.3712  0.5558
 4566SOL     OW24916   2.598   4.069   6.647 -0.5248  0.0982  0.1894
 4566SOL    HW124917   2.599   3.971   6.668 -0.0388  0.2477  0.8871
 4566SOL    HW224918   2.521   4.113   6.693 -0.4128  0.1416  0.3354
 4567SOL     OW24919   0.120   8.177   2.048  0.0010  0.3477  0.0757
 4567SOL    HW124920   0.052   8.132   1.990 -0.5415  0.1395  0.8660
 4567SOL    HW224921   0.137   8.121   2.129 -0.2676  1.2910  0.7938
 4568SOL     OW24922   0.272   3.718   5.860 -0.7520  0.2692  0.1559
 4568SOL    HW124923   0.217   3.634   5.863 -0.9717  0.4669  1.9960
 4568SOL    HW224924   0.340   3.711   5.788 -0.1943 -1.8527  0.8812
 4569SOL     OW24925   5.352   2.407   2.632  0.1068 -0.1423  0.1029
 4569SOL    HW124926   5.320   2.459   2.553  0.9130 -0.7124 -0.6149
 4569SOL    HW224927   5.310   2.317   2.632 -2.6250  1.0404  2.2978
 4570SOL     OW24928   3.142   8.939   4.074 -0.4369 -0.3804  0.0267
 4570SOL    HW124929   3.053   8.983   4.087 -0.0483  0.4781 -0.2054
 4570SOL    HW224930   3.201   8.999   4.020  0.9101 -0.1337  1.7438
 4571SOL     OW24931   1.484   0.297   4.588  0.5512  0.0524  0.1785
 4571SOL    HW124932   1.413   0.230   4.607  1.6166 -1.1680 -0.0411
 4571SOL    HW224933   1.487   0.365   4.661 -0.8847  0.1688  0.1373
 4572SOL     OW24934   1.497   0.094   3.132  0.0484 -0.2882 -0.4322
 4572SOL    HW124935   1.491   0.001   3.168  0.3125  0.4363  1.5547
 4572SOL    HW224936   1.589   0.109   3.095  0.1057 -0.7225 -0.4682
 4573SOL     OW24937   3.143   6.652   5.255 -0.1008  0.0449  0.7273
 4573SOL    HW124938   3.083   6.667   5.334 -0.3860  1.8579  0.1857
 4573SOL    HW224939   3.087   6.626   5.176  0.0192 -0.0681  0.6788
 4574SOL     OW24940   8.141   3.406   2.236  0.6671 -1.0045 -0.8084
 4574SOL    HW124941   8.182   3.497   2.251 -1.8330  0.2173 -1.1246
 4574SOL    HW224942   8.163   3.347   2.314 -0.7594  1.0523  1.2436
 4575SOL     OW24943   6.727   0.753   1.314 -0.9074  0.0590  0.6348
 4575SOL    HW124944   6.715   0.831   1.376 -1.5381  0.9626 -0.6012
 4575SOL    HW224945   6.810   0.704   1.338 -0.1472  1.5125  1.0157
 4576SOL     OW24946   3.752   9.652   6.019  0.3865 -0.1807  0.1432
 4576SOL    HW124947   3.765   9.750   6.031  0.4495 -0.4025  2.0629
 4576SOL    HW224948   3.672   9.636   5.960 -1.9977  1.0274  2.9258
 4577SOL     OW24949   8.866   8.936   0.267  0.2776  0.1131 -0.1118
 4577SOL    HW124950   8.956   8.956   0.305 -0.2248  0.9396  0.6599
 4577SOL    HW224951   8.797   8.940   0.339 -0.5983  1.0466 -0.9772
 4578SOL     OW24952   0.982   0.676   2.645  0.2185 -0.0222  0.1554
 4578SOL    HW124953   0.896   0.718   2.673  0.7564  0.4006  1.2167
 4578SOL    HW224954   1.051   0.689   2.717  0.8762 -1.2430 -0.2248
 4579SOL     OW24955   1.355   7.357   1.332 -0.0927  0.0837  0.0887
 4579SOL    HW124956   1.316   7.346   1.424  1.2978  1.7220  0.9050
 4579SOL    HW224957   1.320   7.440   1.290 -0.9396 -0.8023 -1.0056
 4580SOL     OW24958   3.201   6.485   0.684 -0.0524  0.0079  0.1300
 4580SOL    HW124959   3.114   6.451   0.649  0.1952 -1.3618  0.8272
 4580SOL    HW224960   3.207   6.584   0.668 -1.1625 -0.1122 -1.1041
 4581SOL     OW24961   3.514   9.743   2.721 -0.2008  0.3138  0.2858
 4581SOL    HW124962   3.584   9.676   2.696 -1.2587  0.0590 -2.1272
 4581SOL    HW224963   3.536   9.783   2.810 -0.1033 -3.9776  2.2696
 4582SOL     OW24964   0.310   3.551   4.288  0.1952  0.0653  0.3787
 4582SOL    HW124965   0.345   3.483   4.353  0.7260  0.6132  0.6719
 4582SOL    HW224966   0.286   3.506   4.202  0.2021 -0.5482  0.6989
 4583SOL     OW24967   2.548   0.728   5.376 -0.0459 -0.3057  0.4586
 4583SOL    HW124968   2.579   0.633   5.372 -0.4956 -0.4914  1.3417
 4583SOL    HW224969   2.555   0.761   5.470  1.5787  1.0293 -0.1067
 4584SOL     OW24970   8.931   0.283   1.512  0.0442 -0.0099  0.0814
 4584SOL    HW124971   8.845   0.244   1.544  0.0854 -0.2278 -0.0725
 4584SOL    HW224972   8.966   0.347   1.581 -0.3970  0.3147  0.0039
 4585SOL     OW24973   9.894   7.612   3.703  0.3617  0.4896 -0.0094
 4585SOL    HW124974   9.881   7.710   3.692  0.3971  0.4598 -0.3158
 4585SOL    HW224975   9.830   7.578   3.772  0.0860  0.6626 -0.1788
 4586SOL     OW24976   0.721   8.608   2.880  0.6091 -0.2277 -0.3984
 4586SOL    HW124977   0.703   8.673   2.954  2.5029  1.2366 -1.2019
 4586SOL    HW224978   0.714   8.654   2.792 -0.2020 -1.6288 -1.0745
 4587SOL     OW24979   3.897   5.294   2.328 -0.1454  0.1137  0.2794
 4587SOL    HW124980   3.954   5.329   2.403  0.8320 -1.0925  0.1191
 4587SOL    HW224981   3.820   5.355   2.313  0.4937  1.1765  1.2660
 4588SOL     OW24982   3.928   7.450   3.335  0.4522  0.1229  0.1266
 4588SOL    HW124983   3.972   7.364   3.311 -0.3505 -0.1235 -0.4772
 4588SOL    HW224984   3.941   7.516   3.261  0.9897  0.4943  0.5475
 4589SOL     OW24985   3.948   1.112   2.682  0.0158 -0.3447 -0.0590
 4589SOL    HW124986   4.035   1.152   2.652  0.8265 -0.5905  1.8853
 4589SOL    HW224987   3.966   1.041   2.750 -1.6634 -1.0738 -0.3665
 4590SOL     OW24988   8.423   8.692   2.024 -0.2941  0.3495  0.5885
 4590SOL    HW124989   8.331   8.656   2.014 -0.4540  0.8311  0.3008
 4590SOL    HW224990   8.436   8.768   1.960  0.4549 -0.0240  0.2936
 4591SOL     OW24991   3.370   7.514   5.214 -0.3846 -0.1446  0.4160
 4591SOL    HW124992   3.389   7.435   5.156  0.1963 -0.4659  1.0376
 4591SOL    HW224993   3.433   7.589   5.192  2.2415 -1.4843  3.0222
 4592SOL     OW24994   0.915   8.086   0.748  0.2650  0.0624 -1.1064
 4592SOL    HW124995   0.835   8.027   0.764  0.0450  1.0212  1.5972
 4592SOL    HW224996   0.988   8.032   0.705 -1.0837 -1.3483 -1.6794
 4593SOL     OW24997   6.870   0.454   4.009  0.1653  0.1368 -0.7980
 4593SOL    HW124998   6.826   0.541   3.989  1.0943  0.6518 -0.6303
 4593SOL    HW224999   6.945   0.469   4.075 -0.1778 -0.8983 -0.1610
 4594SOL     OW25000   5.240   9.582   6.428 -0.1548  0.1439  0.2936
 4594SOL    HW125001   5.245   9.588   6.328  0.1036 -0.9077  0.2474
 4594SOL    HW225002   5.305   9.513   6.461  0.0526  0.7747  1.2216
 4595SOL     OW25003   0.591   0.570   4.909 -0.9097  0.6379  0.2431
 4595SOL    HW125004   0.549   0.490   4.952  1.2234 -0.5641  0.1712
 4595SOL    HW225005   0.553   0.653   4.948 -1.5192 -0.4189  1.9524
 4596SOL     OW25006   2.881   7.491   6.256 -0.2402 -0.1299 -0.6618
 4596SOL    HW125007   2.949   7.425   6.288 -0.2524 -0.1742 -0.7264
 4596SOL    HW225008   2.881   7.492   6.156 -1.3763 -1.2307 -0.6898
 4597SOL     OW25009   2.173   1.323   0.016 -0.0627 -0.4167  0.8645
 4597SOL    HW125010   2.251   1.300   0.074  0.9362  1.2178  0.2083
 4597SOL    HW225011   2.117   1.392   0.062 -0.9245 -1.3113  1.1695
 4598SOL     OW25012   4.855   0.783   3.123 -0.6650  0.1485 -0.8438
 4598SOL    HW125013   4.803   0.803   3.039 -1.7112 -0.6447 -0.3980
 4598SOL    HW225014   4.791   0.774   3.199  0.2337  0.1492 -0.0934
 4599SOL     OW25015   3.633   8.613   1.564  0.1158  0.0965 -0.1364
 4599SOL    HW125016   3.563   8.614   1.492 -0.9527 -1.0728  0.8655
 4599SOL    HW225017   3.653   8.518   1.589  1.9359  0.4246 -0.2791
 4600SOL     OW25018   5.222   8.063   3.647 -0.0911  0.6340 -0.1284
 4600SOL    HW125019   5.178   8.149   3.672 -1.3176 -0.1795  0.5511
 4600SOL    HW225020   5.283   8.034   3.720 -0.0510  0.6771 -0.1450
 4601SOL     OW25021   8.489   3.252   2.009  0.1899 -0.0732 -0.5777
 4601SOL    HW125022   8.564   3.279   2.070  0.3427 -1.2766 -0.2277
 4601SOL    HW225023   8.503   3.157   1.980 -0.9298 -0.1302 -0.9214
 4602SOL     OW25024   4.129   4.217   3.330 -0.8787 -0.2594 -0.3043
 4602SOL    HW125025   4.189   4.140   3.352 -1.2980 -0.4729  0.1050
 4602SOL    HW225026   4.036   4.197   3.363 -0.9583  0.4779 -0.0741
 4603SOL     OW25027   9.117   8.829   2.651 -0.1886  0.6639  0.4047
 4603SOL    HW125028   9.050   8.765   2.688 -0.4710  1.3776  1.1409
 4603SOL    HW225029   9.209   8.799   2.675 -0.2540 -0.1040 -0.2727
 4604SOL     OW25030   0.493   2.273   4.282 -0.2419 -0.0756 -0.0717
 4604SOL    HW125031   0.520   2.351   4.339 -0.5635 -0.5950  0.7929
 4604SOL    HW225032   0.420   2.301   4.221 -1.7386 -0.2153  1.6169
 4605SOL     OW25033   1.729   0.666   1.000 -0.1678  0.3331 -0.7810
 4605SOL    HW125034   1.645   0.656   0.946 -0.1627 -0.7268 -0.5831
 4605SOL    HW225035   1.717   0.741   1.066 -0.6133  0.8149 -1.4013
 4606SOL     OW25036   4.697   0.193   1.875  0.0570  0.0074 -0.2066
 4606SOL    HW125037   4.665   0.258   1.944  1.5740  0.3493  0.2094
 4606SOL    HW225038   4.651   0.105   1.886  0.1530  0.1240  1.1246
 4607SOL     OW25039   9.384   4.410   2.377 -0.3510 -0.1458 -0.4770
 4607SOL    HW125040   9.471   4.403   2.329 -0.7811  0.0203 -1.2974
 4607SOL    HW225041   9.360   4.321   2.416  0.8711  0.1507  0.9844
 4608SOL     OW25042   9.245   3.921   4.110  0.2257  0.2768 -0.1031
 4608SOL    HW125043   9.161   3.972   4.124  0.6029  1.3778 -1.7200
 4608SOL    HW225044   9.224   3.823   4.105 -0.5595  0.2812  2.4626
 4609SOL     OW25045   0.448   8.238   3.819  0.3235 -0.0960 -0.3653
 4609SOL    HW125046   0.390   8.179   3.875 -0.7534 -0.4370 -1.8114
 4609SOL    HW225047   0.409   8.330   3.817  0.4720 -0.0344 -0.3992
 4610SOL     OW25048   3.105   0.563   0.095 -0.4915 -0.5661 -0.4584
 4610SOL    HW125049   3.081   0.650   0.138 -0.2157 -0.2818 -0.8825
 4610SOL    HW225050   3.084   0.567  -0.003  0.9728 -0.4373 -0.7747
 4611SOL     OW25051   2.343   1.637   6.480 -0.5539 -0.2142  0.3774
 4611SOL    HW125052   2.297   1.551   6.457  1.4093 -1.4787  1.0917
 4611SOL    HW225053   2.291   1.713   6.442 -0.1090 -1.9247 -3.9062
 4612SOL     OW25054   7.651   3.175   1.569 -0.1770  0.0370  0.0771
 4612SOL    HW125055   7.685   3.269   1.574 -0.0972 -0.0233  0.6748
 4612SOL    HW225056   7.666   3.139   1.477 -0.6300  0.7657 -0.2853
 4613SOL     OW25057   2.193   9.166   5.984  0.0500  0.6110 -0.4678
 4613SOL    HW125058   2.176   9.068   5.980  0.8824  0.5087 -1.6188
 4613SOL    HW225059   2.278   9.188   5.938 -0.2207  1.9025 -0.3928
 4614SOL     OW25060   5.019   9.306   1.274 -0.2688 -0.9305 -1.2061
 4614SOL    HW125061   5.111   9.344   1.282 -1.4845  1.4398  2.7864
 4614SOL    HW225062   4.959   9.372   1.230 -1.3478  0.0064  1.5754
 4615SOL     OW25063   8.224   8.403   2.854  0.7284  0.3356  0.4551
 4615SOL    HW125064   8.135   8.439   2.826  0.4884 -0.6574 -0.0614
 4615SOL    HW225065   8.243   8.433   2.948 -0.7945 -0.6406  1.0895
 4616SOL     OW25066   6.902   8.223   4.848  0.1629 -0.5036 -0.1242
 4616SOL    HW125067   6.979   8.246   4.788 -0.2328  0.8749 -0.1303
 4616SOL    HW225068   6.887   8.298   4.912 -0.0832 -1.5213  1.0123
 4617SOL     OW25069   1.216   2.065   0.982 -0.2835 -0.2244 -0.3295
 4617SOL    HW125070   1.282   2.022   1.044  0.4246 -0.3200 -1.1380
 4617SOL    HW225071   1.185   2.152   1.020  0.7531  0.0977 -0.2246
 4618SOL     OW25072   1.900   9.081   0.955 -0.4509  0.1598 -0.5861
 4618SOL    HW125073   1.921   8.989   0.988 -1.7945  0.2589  0.5639
 4618SOL    HW225074   1.911   9.147   1.029  0.1778  0.8943 -1.3203
 4619SOL     OW25075   0.522   8.550   3.563  0.0980 -0.4363  0.0090
 4619SOL    HW125076   0.601   8.583   3.615 -0.2287  0.3648  0.0015
 4619SOL    HW225077   0.457   8.505   3.625  0.1967 -0.4089  0.1319
 4620SOL     OW25078   3.776   1.031   5.348 -0.0792 -0.1080 -0.1985
 4620SOL    HW125079   3.705   1.013   5.416  1.1792  3.1919  2.1394
 4620SOL    HW225080   3.836   0.951   5.340 -1.5139 -1.3225  0.9881
 4621SOL     OW25081   7.981   7.928   5.414  0.4248 -0.0640 -0.5021
 4621SOL    HW125082   7.976   8.013   5.363  0.3347 -0.1234 -0.5926
 4621SOL    HW225083   8.014   7.855   5.354 -0.5510 -0.3300 -0.7117
 4622SOL     OW25084   7.690   3.905   2.469 -0.4071 -0.5600 -0.0402
 4622SOL    HW125085   7.671   3.876   2.563  2.0142 -0.5517  0.4757
 4622SOL    HW225086   7.766   3.853   2.432  0.1702  1.0343 -1.1893
 4623SOL     OW25087   8.728   7.794   3.939 -0.0206 -0.5874  0.1071
 4623SOL    HW125088   8.738   7.766   3.843 -1.4894 -0.5524 -0.0772
 4623SOL    HW225089   8.797   7.749   3.995  1.3812  0.0409 -1.0951
 4624SOL     OW25090   2.617   8.668   3.874  0.2586 -0.2336 -0.6581
 4624SOL    HW125091   2.655   8.741   3.930  1.5303  0.2926 -2.1599
 4624SOL    HW225092   2.684   8.594   3.866 -0.8832 -1.4384  0.5656
 4625SOL     OW25093   7.225   2.244   4.326  0.0174 -0.5308  0.2335
 4625SOL    HW125094   7.184   2.188   4.398  1.3323  0.1932  1.5742
 4625SOL    HW225095   7.325   2.242   4.335  0.1831 -0.2317 -1.4248
 4626SOL     OW25096   8.669   8.659   6.669  0.0144  0.2892  0.0445
 4626SOL    HW125097   8.679   8.750   6.710  0.7045 -0.4411  1.5495
 4626SOL    HW225098   8.696   8.590   6.736 -1.5447 -1.0780 -0.7283
 4627SOL     OW25099   8.024   9.577   3.988 -0.1957  0.2508  0.0244
 4627SOL    HW125100   8.078   9.495   3.968  0.2108  0.2624  1.0556
 4627SOL    HW225101   8.074   9.658   3.957 -0.0614  0.1911  0.0829
 4628SOL     OW25102   4.577   7.495   5.353 -0.0715  0.0219  0.2731
 4628SOL    HW125103   4.633   7.454   5.425  0.7801  0.2175 -0.2825
 4628SOL    HW225104   4.635   7.543   5.288 -0.8917  0.3278 -0.2420
 4629SOL     OW25105   0.876   6.053   1.106  0.7542 -0.1930  0.4740
 4629SOL    HW125106   0.893   5.988   1.033  0.7709  0.4544 -0.1071
 4629SOL    HW225107   0.818   6.012   1.176  0.0612 -0.5415 -0.3108
 4630SOL     OW25108   0.230   7.506   2.751 -0.2905 -0.1083  1.1159
 4630SOL    HW125109   0.312   7.532   2.803 -0.3414  1.6475  0.3614
 4630SOL    HW225110   0.155   7.487   2.815  0.0793  0.5125  1.7459
 4631SOL     OW25111   9.545   4.880   0.440  0.3409  0.2630  0.3983
 4631SOL    HW125112   9.550   4.802   0.503  1.5407 -0.7400 -0.9071
 4631SOL    HW225113   9.588   4.960   0.482  0.0238 -0.0425  1.3313
 4632SOL     OW25114   3.697   1.039   6.617 -0.3476  0.2047  0.0757
 4632SOL    HW125115   3.620   1.083   6.664 -0.7976 -0.7777  0.2755
 4632SOL    HW225116   3.746   1.107   6.563 -1.3591  0.8441 -0.0566
 4633SOL     OW25117   5.045   8.672   1.377 -0.1677 -0.0948  0.1195
 4633SOL    HW125118   5.074   8.751   1.323 -2.3848  0.3436 -0.4474
 4633SOL    HW225119   5.085   8.589   1.337  3.3371  0.7944  1.5468
 4634SOL     OW25120   1.846   3.940   2.878 -0.2669 -0.0143  0.0214
 4634SOL    HW125121   1.869   4.037   2.886 -1.6039  0.2687  0.5779
 4634SOL    HW225122   1.748   3.928   2.893 -0.4202 -1.2403 -1.8500
 4635SOL     OW25123   4.910   7.498   2.522 -0.3626  0.1883 -0.4412
 4635SOL    HW125124   4.970   7.553   2.463 -0.4554  0.1680 -0.5539
 4635SOL    HW225125   4.960   7.417   2.553  0.5836  1.5513  1.6771
 4636SOL     OW25126   5.113   4.072   1.154 -1.0817 -0.7469  0.3143
 4636SOL    HW125127   5.016   4.081   1.134 -1.3384 -1.7960  1.0506
 4636SOL    HW225128   5.132   4.104   1.247 -0.9510 -1.8104  0.6586
 4637SOL     OW25129   1.710   2.227   5.712  0.5279 -0.3264 -0.0251
 4637SOL    HW125130   1.756   2.242   5.799  1.8500 -0.7582 -0.6289
 4637SOL    HW225131   1.726   2.306   5.652 -0.3664 -0.0346  0.1099
 4638SOL     OW25132   4.490   2.413   5.057 -0.0980 -0.0638  0.2161
 4638SOL    HW125133   4.549   2.457   5.125 -0.7934 -1.2333  1.5978
 4638SOL    HW225134   4.420   2.478   5.027  0.6307  0.6706  0.0843
 4639SOL     OW25135   6.492   0.777   0.545 -0.2511 -0.1817  0.2725
 4639SOL    HW125136   6.492   0.830   0.630 -1.5614 -1.1055  0.8619
 4639SOL    HW225137   6.452   0.687   0.562  1.3302 -1.1185 -0.8730
 4640SOL     OW25138   7.772   0.778   3.117  0.1450 -0.0535  0.6660
 4640SOL    HW125139   7.831   0.833   3.059  0.3772 -0.9717  0.0176
 4640SOL    HW225140   7.688   0.829   3.137  0.9119  1.0279  1.1362
 4641SOL     OW25141   8.989  -0.001   0.510  0.3501  0.0750 -0.0761
 4641SOL    HW125142   8.899  -0.045   0.511 -0.2472  1.3106  1.2028
 4641SOL    HW225143   8.985   0.082   0.453  0.6370  0.2267  0.1240
 4642SOL     OW25144   1.636   8.705   4.967 -0.2929 -0.5031  0.2388
 4642SOL    HW125145   1.601   8.746   4.883  0.6667  0.3268  0.2478
 4642SOL    HW225146   1.669   8.612   4.948  2.7091  0.7633 -0.9448
 4643SOL     OW25147   0.602   7.428   3.945 -0.3757  0.3473 -0.2573
 4643SOL    HW125148   0.558   7.374   3.873 -0.3342 -0.1075  0.0568
 4643SOL    HW225149   0.536   7.446   4.018 -1.5230  3.9537 -2.0711
 4644SOL     OW25150   2.392   3.942   3.804 -0.1499 -0.5340 -0.0904
 4644SOL    HW125151   2.335   4.019   3.775 -0.8361 -0.3821  1.6532
 4644SOL    HW225152   2.483   3.976   3.828 -0.3640 -0.3056  0.4013
 4645SOL     OW25153   3.242   6.106   2.475 -0.1162 -0.1539 -0.1170
 4645SOL    HW125154   3.341   6.122   2.473 -0.3084  1.3048  0.9348
 4645SOL    HW225155   3.198   6.161   2.404 -0.3826  0.9174  0.8668
 4646SOL     OW25156   9.938   5.306   2.373 -0.9039  0.2631  0.4956
 4646SOL    HW125157   9.944   5.311   2.473  1.6929 -1.2717  0.4745
 4646SOL    HW225158   9.954   5.396   2.334 -0.2816  0.5641  1.4262
 4647SOL     OW25159   0.026   8.777   4.656 -0.4239  0.4469  0.5757
 4647SOL    HW125160   0.063   8.870   4.645 -0.5274  0.1058 -3.0401
 4647SOL    HW225161  -0.074   8.781   4.660 -0.3725  0.6236  2.5222
 4648SOL     OW25162   3.871   2.491   2.715  0.3585  0.1032 -0.5280
 4648SOL    HW125163   3.859   2.590   2.709  0.9247  0.2139  0.1301
 4648SOL    HW225164   3.811   2.454   2.785  0.3024  0.0119 -0.6245
 4649SOL     OW25165   0.699   2.717   3.076 -0.4634 -0.2852 -0.2300
 4649SOL    HW125166   0.608   2.675   3.075 -1.1952  1.1476  2.5438
 4649SOL    HW225167   0.703   2.789   3.007 -1.4670 -0.2902 -0.3036
 4650SOL     OW25168   9.281   0.378   4.606 -0.3910  0.7579 -0.2984
 4650SOL    HW125169   9.352   0.419   4.549 -1.3677  0.0716 -2.0319
 4650SOL    HW225170   9.192   0.389   4.562 -1.1291 -0.0453  0.9555
 4651SOL     OW25171   8.821   6.482   0.204  0.9807  0.1165  0.0384
 4651SOL    HW125172   8.749   6.542   0.237  0.1098 -0.9138  0.0580
 4651SOL    HW225173   8.832   6.493   0.106  2.1601  1.6986  0.3289
 4652SOL     OW25174   5.488   1.729   4.115  0.4692 -0.6196  0.3785
 4652SOL    HW125175   5.468   1.737   4.017  1.4521 -0.5483  0.1739
 4652SOL    HW225176   5.416   1.774   4.168 -0.6195 -1.5905 -0.2666
 4653SOL     OW25177   1.444   1.023   0.751  0.0447 -0.0347  0.3542
 4653SOL    HW125178   1.429   1.022   0.652 -0.7788  2.2954  0.4160
 4653SOL    HW225179   1.372   0.971   0.796  0.0825 -0.6100 -0.2408
 4654SOL     OW25180   8.023   4.206   5.883  0.1982  0.3195 -0.6113
 4654SOL    HW125181   8.043   4.233   5.789  1.1416 -1.0463 -0.8218
 4654SOL    HW225182   7.928   4.175   5.889  0.4540 -0.6468 -1.3757
 4655SOL     OW25183   4.002   7.367   5.424 -0.6749 -0.3493  0.3581
 4655SOL    HW125184   4.076   7.339   5.363 -0.7553  0.9591 -0.3684
 4655SOL    HW225185   4.040   7.400   5.510 -0.3489  1.2913 -0.4077
 4656SOL     OW25186   6.299   8.545   4.915  0.3689 -0.1852 -0.1574
 4656SOL    HW125187   6.269   8.550   5.011  0.5887  0.5338 -0.1204
 4656SOL    HW225188   6.371   8.477   4.906  0.4977 -0.1055  0.2368
 4657SOL     OW25189   6.691   7.462   4.263 -0.1772  0.7375 -0.2328
 4657SOL    HW125190   6.660   7.473   4.357 -2.0720  0.1525 -0.7684
 4657SOL    HW225191   6.767   7.525   4.245 -0.6546  1.7704  1.2862
 4658SOL     OW25192   7.572   1.012   5.924  0.2347  0.1585  0.0519
 4658SOL    HW125193   7.487   1.063   5.907 -0.4450 -0.8319  0.4242
 4658SOL    HW225194   7.571   0.928   5.869  1.0214  0.1960 -0.0149
 4659SOL     OW25195   4.332   3.319   0.922 -0.0726 -0.6179  0.1005
 4659SOL    HW125196   4.352   3.324   0.824  1.4268  0.1697  0.4337
 4659SOL    HW225197   4.240   3.354   0.939 -0.6809 -1.5677 -1.1220
 4660SOL     OW25198   8.624   5.984   1.338 -0.1433  0.1866  0.0399
 4660SOL    HW125199   8.578   5.976   1.249 -0.4271  0.1336  0.1886
 4660SOL    HW225200   8.665   5.896   1.362  1.1250  0.5761 -0.6744
 4661SOL     OW25201   4.457   1.379   4.063 -0.0075 -0.0600 -0.1938
 4661SOL    HW125202   4.419   1.406   4.151 -0.5536  0.3807 -0.5664
 4661SOL    HW225203   4.437   1.282   4.047  2.3268 -0.8370  1.3333
 4662SOL     OW25204   2.871   3.528   5.747  0.0109 -1.0420 -0.4535
 4662SOL    HW125205   2.911   3.517   5.838  0.9879 -0.8141 -0.8452
 4662SOL    HW225206   2.833   3.441   5.716 -0.3278 -1.1183  0.1689
 4663SOL     OW25207   9.953   1.990   5.761  0.0803 -0.0287 -0.3062
 4663SOL    HW125208   9.976   2.082   5.795 -0.3269 -0.0493  0.0320
 4663SOL    HW225209  10.003   1.922   5.813  0.1087 -0.0167 -0.3179
 4664SOL     OW25210   4.634   7.733   1.551 -0.1789  0.1070 -0.0205
 4664SOL    HW125211   4.608   7.825   1.522 -0.6662 -0.4236 -1.3130
 4664SOL    HW225212   4.734   7.727   1.556 -0.0820  0.2667 -1.4551
 4665SOL     OW25213   0.166   3.966   2.012  0.3081 -0.7675 -0.5471
 4665SOL    HW125214   0.181   4.034   2.084 -0.5150 -1.1402 -0.0105
 4665SOL    HW225215   0.222   3.885   2.030  2.2939  0.2779 -1.9052
 4666SOL     OW25216   9.767   2.161   1.071  0.6070 -0.4310  0.4098
 4666SOL    HW125217   9.848   2.134   1.020  1.3513 -0.5023  1.6287
 4666SOL    HW225218   9.768   2.260   1.086 -0.7752 -0.0589 -1.7041
 4667SOL     OW25219   0.884   3.573   0.081 -0.5253  0.3390  0.0325
 4667SOL    HW125220   0.915   3.662   0.048 -0.9581  0.2546 -0.6204
 4667SOL    HW225221   0.924   3.501   0.024  1.3582 -0.0080  1.7271
 4668SOL     OW25222   2.903   0.118   1.294  0.1640 -0.1965 -0.4139
 4668SOL    HW125223   2.960   0.068   1.358 -0.5317  0.0413  0.3954
 4668SOL    HW225224   2.943   0.112   1.202 -0.3786 -2.9429 -0.5068
 4669SOL     OW25225   1.191   9.988   6.229  0.0260  0.2703  0.1126
 4669SOL    HW125226   1.198  10.027   6.138 -1.2191 -0.8849 -0.4947
 4669SOL    HW225227   1.277   9.942   6.252  0.2656  0.3696 -0.5749
 4670SOL     OW25228   2.428   1.752   6.743  0.2158 -0.1472 -0.5636
 4670SOL    HW125229   2.438   1.727   6.840 -0.5925  1.9001  0.0741
 4670SOL    HW225230   2.401   1.671   6.691 -0.0083 -1.1300  1.0311
 4671SOL     OW25231   8.431   3.799   0.387 -0.1027  0.2500  0.2989
 4671SOL    HW125232   8.389   3.809   0.477 -0.3298  2.2180 -0.0212
 4671SOL    HW225233   8.529   3.786   0.398 -0.0313  1.1817  0.8043
 4672SOL     OW25234   9.863   2.448   4.096  0.5755  0.0099  0.5965
 4672SOL    HW125235   9.856   2.545   4.120  0.7588  0.3221 -0.5583
 4672SOL    HW225236   9.956   2.429   4.065  0.0335 -0.0880 -1.0219
 4673SOL     OW25237   3.549   0.606   2.402 -0.1379 -0.4060  0.4521
 4673SOL    HW125238   3.454   0.635   2.393 -0.1596 -0.3539  0.8255
 4673SOL    HW225239   3.564   0.523   2.348  0.3034  1.1486 -1.8585
 4674SOL     OW25240   3.232   2.577   2.982 -0.4718 -0.0368  0.7262
 4674SOL    HW125241   3.312   2.564   2.923 -0.8292 -1.2558  0.4841
 4674SOL    HW225242   3.261   2.583   3.077 -0.0649 -0.1392  0.6115
 4675SOL     OW25243   8.209   6.206   4.045 -0.7507  0.1076  0.1192
 4675SOL    HW125244   8.139   6.242   4.107 -1.9996 -0.6838 -0.7988
 4675SOL    HW225245   8.169   6.133   3.989  0.4339  0.5706 -1.3589
 4676SOL     OW25246   7.486   3.462   0.582 -0.4887 -0.0425 -0.0133
 4676SOL    HW125247   7.519   3.500   0.668  1.2969  0.3489 -0.8454
 4676SOL    HW225248   7.431   3.531   0.535  0.8082  0.7157 -0.4391
 4677SOL     OW25249   8.572   7.046   3.370 -0.0756  0.2820 -0.0633
 4677SOL    HW125250   8.562   6.970   3.433  0.1712  0.4658  0.1977
 4677SOL    HW225251   8.669   7.060   3.349 -0.2145 -0.3106 -1.1340
 4678SOL     OW25252   5.299   1.749   2.918 -0.1341 -0.2986  0.1956
 4678SOL    HW125253   5.243   1.830   2.900  1.0703  0.3048 -0.9221
 4678SOL    HW225254   5.340   1.717   2.832  0.6240 -1.1790  0.8710
 4679SOL     OW25255   9.500   7.645   5.232  0.3730 -1.0018 -0.1535
 4679SOL    HW125256   9.589   7.668   5.191 -0.0257  1.5901  0.3755
 4679SOL    HW225257   9.432   7.711   5.201 -0.5866 -0.8187  2.2919
 4680SOL     OW25258   7.635   9.498   2.877  0.3347 -0.2911  0.4497
 4680SOL    HW125259   7.560   9.437   2.854  1.4934 -1.6228  0.1088
 4680SOL    HW225260   7.608   9.593   2.862 -0.8905 -0.8272 -0.7378
 4681SOL     OW25261   1.730   2.491   1.915 -0.2505  0.1248  0.1909
 4681SOL    HW125262   1.633   2.473   1.929 -0.6660  1.0447 -1.3667
 4681SOL    HW225263   1.773   2.513   2.003 -1.4639 -0.1340  0.8648
 4682SOL     OW25264   8.482   3.164   2.528 -0.1038 -0.0685  0.4102
 4682SOL    HW125265   8.469   3.066   2.538 -0.0063 -0.3357 -1.8254
 4682SOL    HW225266   8.548   3.196   2.596 -0.9082 -1.3487  1.8320
 4683SOL     OW25267   9.726   9.225   3.727  0.3265  0.2663 -0.0892
 4683SOL    HW125268   9.646   9.187   3.774 -0.3797 -0.2544 -1.6646
 4683SOL    HW225269   9.697   9.297   3.664  1.2374  0.8398  0.1374
 4684SOL     OW25270   3.223   4.470   0.845  0.1986 -0.6034  0.6519
 4684SOL    HW125271   3.124   4.467   0.828  0.2833  0.3009 -0.0244
 4684SOL    HW225272   3.270   4.411   0.780  0.0328 -1.8212  1.6128
 4685SOL     OW25273   2.286   0.652   4.475  0.0325  0.1236  0.5561
 4685SOL    HW125274   2.303   0.619   4.568 -0.2800  0.0320  0.5828
 4685SOL    HW225275   2.362   0.626   4.416 -0.4826 -1.1467  0.4481
 4686SOL     OW25276   9.526   1.753   1.036 -0.0328  0.0960  0.1294
 4686SOL    HW125277   9.471   1.688   1.089  1.3980  0.2263  1.8444
 4686SOL    HW225278   9.506   1.742   0.939 -0.0039 -2.7796  0.3903
 4687SOL     OW25279   0.418   8.470   2.870 -0.0339  0.4271  0.4445
 4687SOL    HW125280   0.511   8.492   2.844  0.3999  0.7102  2.1689
 4687SOL    HW225281   0.361   8.552   2.865 -1.2970 -0.5787 -4.9076
 4688SOL     OW25282   9.159   0.013   2.694 -0.0974 -0.0787 -0.4860
 4688SOL    HW125283   9.078   0.021   2.752 -1.0802 -1.1622 -1.7045
 4688SOL    HW225284   9.132  -0.006   2.600  1.4912  1.6669 -1.3288
 4689SOL     OW25285   2.933   4.503   2.424  0.2755 -0.2729  0.5999
 4689SOL    HW125286   2.961   4.421   2.375 -0.0834  0.0555 -0.1609
 4689SOL    HW225287   2.845   4.487   2.470 -0.6544  0.2327 -0.9780
 4690SOL     OW25288   2.175   1.890   5.235  0.8673  0.4203  0.1823
 4690SOL    HW125289   2.170   1.801   5.280  3.4034 -1.0172 -2.2641
 4690SOL    HW225290   2.087   1.911   5.192 -0.0380 -0.4284  1.5784
 4691SOL     OW25291   6.084   2.244   4.722 -0.2254  0.5954 -0.2237
 4691SOL    HW125292   6.174   2.272   4.757  0.5605 -0.9377 -0.9571
 4691SOL    HW225293   6.096   2.195   4.636 -1.6265 -1.3192  0.6401
 4692SOL     OW25294   8.052   8.561   3.921 -0.3356  0.5546 -0.8350
 4692SOL    HW125295   8.133   8.509   3.895  0.7627  1.4134  0.7905
 4692SOL    HW225296   8.003   8.590   3.839  0.5161 -0.7242 -1.8052
 4693SOL     OW25297   8.798   9.448   6.318 -0.2631 -0.0024  0.1336
 4693SOL    HW125298   8.765   9.534   6.356 -0.0215  0.1450  0.0081
 4693SOL    HW225299   8.801   9.454   6.218 -0.2863 -0.1683  0.1235
 4694SOL     OW25300   2.298   4.683   1.104  0.1326 -0.2095 -0.5736
 4694SOL    HW125301   2.270   4.745   1.031  0.8488 -0.2239 -0.8728
 4694SOL    HW225302   2.220   4.627   1.132 -0.3612  0.3931 -0.7281
 4695SOL     OW25303   2.801   8.940   2.957  0.3676  0.0041 -0.2376
 4695SOL    HW125304   2.751   8.855   2.941 -1.3906  1.0734 -0.6369
 4695SOL    HW225305   2.778   9.006   2.885 -0.0504  1.5840  1.2975
 4696SOL     OW25306   7.139   1.955   5.084 -0.3859  0.0753 -0.3853
 4696SOL    HW125307   7.216   1.892   5.081 -1.2238 -0.9001 -3.8690
 4696SOL    HW225308   7.066   1.916   5.140  0.4227 -0.4687  0.2906
 4697SOL     OW25309   0.311   0.851   3.155 -0.8451  0.3605 -0.1567
 4697SOL    HW125310   0.315   0.801   3.241 -1.0668 -1.0559 -0.9500
 4697SOL    HW225311   0.257   0.800   3.089 -0.7025  1.4400 -1.1372
 4698SOL     OW25312   8.407   4.332   6.051 -0.0448  0.0258  0.4317
 4698SOL    HW125313   8.498   4.298   6.074  0.6259  0.6560 -1.1825
 4698SOL    HW225314   8.338   4.262   6.071  0.8796 -0.7653  0.8662
 4699SOL     OW25315   7.233   7.974   4.988 -0.9089  0.3939  0.3271
 4699SOL    HW125316   7.261   8.047   5.051  1.5563 -1.2975  1.2901
 4699SOL    HW225317   7.195   7.898   5.041  1.0124 -0.9643 -0.1898
 4700SOL     OW25318   2.831   7.169   6.257  0.0129 -0.1006 -0.4981
 4700SOL    HW125319   2.920   7.208   6.280 -1.2055  1.5816  1.5026
 4700SOL    HW225320   2.789   7.224   6.185  0.4206 -0.7130 -1.2206
 4701SOL     OW25321   4.454   6.600   2.407  0.0835 -0.0992  0.2847
 4701SOL    HW125322   4.511   6.620   2.327 -1.2633  1.4678 -0.3057
 4701SOL    HW225323   4.486   6.655   2.484  1.5849 -1.8440  0.9565
 4702SOL     OW25324   9.791   3.597   3.955  0.2180 -0.1261 -0.1865
 4702SOL    HW125325   9.860   3.664   3.928 -0.1871  0.0960 -0.6824
 4702SOL    HW225326   9.760   3.618   4.048 -0.5706  0.9378 -0.6787
 4703SOL     OW25327   4.506   9.499   3.904  0.3752  0.0072  0.6269
 4703SOL    HW125328   4.543   9.418   3.858  0.9141 -0.0073  1.0862
 4703SOL    HW225329   4.567   9.576   3.887  0.7927 -0.0905  1.6561
 4704SOL     OW25330   4.676   4.844   6.305  0.5172  0.0734  0.4873
 4704SOL    HW125331   4.684   4.832   6.404  0.4704 -0.1080  0.4690
 4704SOL    HW225332   4.596   4.902   6.285  1.4346  1.4149  0.6368
 4705SOL     OW25333   2.721   6.359   1.411  0.3500  0.1828  0.1584
 4705SOL    HW125334   2.783   6.438   1.414  0.9195 -0.3222  1.9236
 4705SOL    HW225335   2.772   6.275   1.428 -0.8952 -0.1910  2.2470
 4706SOL     OW25336   9.561   5.834   3.440 -0.0963  0.6714  0.1981
 4706SOL    HW125337   9.483   5.772   3.452  2.5002 -2.5934  1.1044
 4706SOL    HW225338   9.577   5.883   3.526 -2.8867  3.5800 -0.8750
 4707SOL     OW25339   1.711   7.819   6.705  0.0748  0.2786 -0.0036
 4707SOL    HW125340   1.805   7.802   6.735 -0.1751  1.7140  1.6523
 4707SOL    HW225341   1.657   7.852   6.782 -1.6767 -0.0662 -1.0646
 4708SOL     OW25342   3.015   7.626   0.286  0.4580  0.1129  0.5343
 4708SOL    HW125343   2.976   7.718   0.275 -2.2804 -1.3439 -2.7149
 4708SOL    HW225344   2.960   7.574   0.351  0.3979 -0.1146  0.3004
 4709SOL     OW25345   3.798   2.926   3.582 -0.1155  0.1504 -0.2596
 4709SOL    HW125346   3.785   2.998   3.651  2.1361  0.3639 -0.0172
 4709SOL    HW225347   3.798   2.967   3.491 -1.1237  0.1387 -0.2677
 4710SOL     OW25348   4.057   8.342   5.820 -0.2137 -0.8115  0.0286
 4710SOL    HW125349   4.142   8.343   5.873  0.3166 -1.7108 -0.7783
 4710SOL    HW225350   4.078   8.362   5.724 -0.8538 -1.4869 -0.2516
 4711SOL     OW25351   3.336   5.414   0.315 -0.4335 -0.0842  0.0917
 4711SOL    HW125352   3.254   5.447   0.269 -0.9072 -0.9506  0.3045
 4711SOL    HW225353   3.402   5.380   0.248  0.6396  2.5477 -0.2332
 4712SOL     OW25354   3.646   8.493   0.745 -0.6734  0.0821  0.7700
 4712SOL    HW125355   3.688   8.461   0.660 -1.2562  2.1546 -0.3302
 4712SOL    HW225356   3.710   8.553   0.793 -1.3213  1.0375  0.4578
 4713SOL     OW25357   0.472   5.162   6.172  0.1431  0.3049  0.0658
 4713SOL    HW125358   0.508   5.073   6.146 -1.8161 -0.5847  0.3146
 4713SOL    HW225359   0.394   5.185   6.115 -1.7512  0.1070  2.5095
 4714SOL     OW25360   7.680   9.053   5.550 -0.4203  0.1272  1.0093
 4714SOL    HW125361   7.679   9.150   5.524  0.7113 -0.1813 -0.2642
 4714SOL    HW225362   7.767   9.031   5.593 -1.0494 -0.1237  2.1869
 4715SOL     OW25363   2.109   7.138   2.599  0.1707 -0.2037  0.1100
 4715SOL    HW125364   2.138   7.225   2.559 -0.6349  0.1714  0.3202
 4715SOL    HW225365   2.094   7.071   2.527  3.1558 -0.9216  0.0925
 4716SOL     OW25366   5.346   1.571   0.458 -0.2963 -0.2557 -0.0366
 4716SOL    HW125367   5.427   1.554   0.514 -0.8495  0.9339  1.1454
 4716SOL    HW225368   5.267   1.523   0.496 -0.6648  0.5150  0.1835
 4717SOL     OW25369   1.637   8.867   1.834 -0.1710  0.5963 -0.0277
 4717SOL    HW125370   1.547   8.823   1.835  0.2685 -0.3172 -0.0777
 4717SOL    HW225371   1.681   8.855   1.923  0.2456  0.3142 -0.2669
 4718SOL     OW25372   5.528   8.094   2.569  0.5286 -0.3833  0.0323
 4718SOL    HW125373   5.610   8.133   2.527 -0.4969  0.2971 -1.3647
 4718SOL    HW225374   5.507   8.144   2.653  1.1431 -0.1273  0.0400
 4719SOL     OW25375   0.009   6.317   4.317  0.5464  0.3164 -0.6781
 4719SOL    HW125376   0.072   6.366   4.257  1.8191 -0.5096 -0.0480
 4719SOL    HW225377   0.061   6.270   4.389 -0.8175 -0.0927  0.0676
 4720SOL     OW25378   8.727   0.633   1.919  0.3917  0.5901  0.3687
 4720SOL    HW125379   8.652   0.571   1.897  1.5310 -0.9617  0.7951
 4720SOL    HW225380   8.758   0.679   1.836 -0.6550  0.8034  0.0984
 4721SOL     OW25381   3.702   9.997   6.355 -0.5441 -0.4313  0.0531
 4721SOL    HW125382   3.762   9.997   6.435  0.6981 -0.1470 -0.8535
 4721SOL    HW225383   3.672   9.903   6.336  1.0585 -0.8596 -0.5085
 4722SOL     OW25384   3.091   6.138   0.830  0.2280  0.1612  0.4666
 4722SOL    HW125385   3.050   6.111   0.916 -1.5198  0.6700 -0.1916
 4722SOL    HW225386   3.157   6.212   0.846  0.7342 -0.5091  1.4960
 4723SOL     OW25387   0.404   8.053   0.605  0.2904  0.0925  0.1491
 4723SOL    HW125388   0.388   7.963   0.563 -1.5794 -0.0276  1.0902
 4723SOL    HW225389   0.383   8.125   0.539  2.8918 -0.1526 -0.9873
 4724SOL     OW25390   9.442   0.747   4.360  0.3403 -0.1382  0.9393
 4724SOL    HW125391   9.460   0.828   4.416  1.8990  0.1913  0.0045
 4724SOL    HW225392   9.343   0.731   4.354 -0.1508  3.1961 -0.9408
 4725SOL     OW25393   1.146   2.188   3.391  0.4640 -0.5187  0.0888
 4725SOL    HW125394   1.048   2.178   3.375  0.3759 -0.8054  0.7880
 4725SOL    HW225395   1.194   2.106   3.359  0.3637 -0.8046  0.6704
 4726SOL     OW25396   1.439   3.895   0.265  0.3225  0.5460  0.8078
 4726SOL    HW125397   1.385   3.979   0.257  0.6719  0.8308  1.3733
 4726SOL    HW225398   1.531   3.918   0.297  0.9360  0.1146 -0.6233
 4727SOL     OW25399   1.540   0.323   1.655 -0.0777  0.1475  0.7286
 4727SOL    HW125400   1.618   0.270   1.622  0.1068  1.3962 -0.8604
 4727SOL    HW225401   1.571   0.387   1.726  0.5501  1.3986 -0.6615
 4728SOL     OW25402   6.199   9.889   4.087 -0.4197 -0.3076 -0.2380
 4728SOL    HW125403   6.207   9.834   4.171  2.0898 -1.1522 -0.9660
 4728SOL    HW225404   6.256   9.971   4.095 -1.1296  0.2244 -0.6357
 4729SOL     OW25405   8.697   7.093   5.463 -0.1178 -0.3770  0.4616
 4729SOL    HW125406   8.685   7.148   5.380  1.0612 -0.2428  0.3587
 4729SOL    HW225407   8.618   7.105   5.524 -0.5711  0.2296 -0.2458
 4730SOL     OW25408   1.720   5.588   5.662  1.0597 -0.0313 -0.1907
 4730SOL    HW125409   1.678   5.505   5.625 -0.4012  1.0770 -1.0443
 4730SOL    HW225410   1.779   5.563   5.739 -0.0308 -1.7754  0.1173
 4731SOL     OW25411   2.727   9.981   0.165  0.0764  0.0301  0.1003
 4731SOL    HW125412   2.663   9.915   0.204  1.0434 -1.8839 -1.4616
 4731SOL    HW225413   2.677  10.061   0.132 -1.1728 -0.1361  1.5327
 4732SOL     OW25414   0.002   1.188   1.847 -0.1699  0.4193 -0.2107
 4732SOL    HW125415   0.019   1.263   1.784  0.9280  0.6610  0.3625
 4732SOL    HW225416   0.078   1.123   1.843  0.0198  0.5511  1.0214
 4733SOL     OW25417   1.220   3.662   0.664  0.5438 -0.0986  0.8321
 4733SOL    HW125418   1.301   3.624   0.619 -0.4187 -1.5089  0.2355
 4733SOL    HW225419   1.190   3.743   0.615  1.3928  0.2362  0.8513
 4734SOL     OW25420   8.505   1.968   0.236  0.4413  0.1268  0.6097
 4734SOL    HW125421   8.466   1.877   0.223  0.0159  0.1701  1.5372
 4734SOL    HW225422   8.433   2.037   0.228  0.6458  0.3336  0.5306
 4735SOL     OW25423   3.309   7.634   2.333  0.1945 -0.0534  0.0701
 4735SOL    HW125424   3.283   7.718   2.380  0.0541  0.5763 -1.1113
 4735SOL    HW225425   3.226   7.586   2.302  0.3071  0.0066 -0.3306
 4736SOL     OW25426   1.510   3.140   2.913 -0.4961 -0.1525  0.2474
 4736SOL    HW125427   1.531   3.054   2.867 -1.5214 -0.4743  0.3645
 4736SOL    HW225428   1.592   3.197   2.916 -0.2399 -0.4191 -1.3491
 4737SOL     OW25429   8.043   1.143   3.097 -0.2232  0.2401  0.3041
 4737SOL    HW125430   8.019   1.048   3.077 -0.4043  0.4029 -0.2721
 4737SOL    HW225431   8.118   1.146   3.164  0.4970 -0.3330 -0.4670
 4738SOL     OW25432   3.319   6.225   1.198  0.2017  0.0874  0.0321
 4738SOL    HW125433   3.357   6.273   1.277 -0.0216  0.0006  0.1957
 4738SOL    HW225434   3.236   6.271   1.167 -1.4771 -1.6149  1.8046
 4739SOL     OW25435   6.534   1.192   1.011 -0.1823 -0.1700  0.1022
 4739SOL    HW125436   6.549   1.132   1.089  0.6132  0.9446  0.8199
 4739SOL    HW225437   6.566   1.147   0.927 -0.5416 -1.1489  0.4791
 4740SOL     OW25438   3.513   5.893   2.297 -0.2768 -0.0974  0.1452
 4740SOL    HW125439   3.482   5.919   2.206 -0.7930 -1.7912 -0.1816
 4740SOL    HW225440   3.488   5.798   2.315  0.1996  0.0823  1.8875
 4741SOL     OW25441   1.720   9.129   2.145  0.3827  0.4659  0.0142
 4741SOL    HW125442   1.799   9.144   2.086 -1.2463  1.8954 -1.8896
 4741SOL    HW225443   1.699   9.031   2.151 -0.2768  0.3919 -2.9844
 4742SOL     OW25444   2.276   8.748   6.278 -0.1955  0.0505 -0.5094
 4742SOL    HW125445   2.343   8.747   6.352 -0.0239 -2.4881 -0.6775
 4742SOL    HW225446   2.323   8.753   6.190 -0.2991 -0.1481 -0.5754
 4743SOL     OW25447   8.182   9.289   2.203 -0.3734 -0.3144 -0.2136
 4743SOL    HW125448   8.121   9.211   2.186  1.1668 -1.2674 -1.5418
 4743SOL    HW225449   8.276   9.262   2.183  0.6009  0.8965  2.5969
 4744SOL     OW25450   0.912   6.244   0.527 -0.1534  0.6312  0.0637
 4744SOL    HW125451   0.953   6.272   0.614  1.8514 -0.4656 -0.4890
 4744SOL    HW225452   0.896   6.145   0.529  0.2860  0.5376 -0.9447
 4745SOL     OW25453   9.327   9.174   2.482 -0.2572  0.3760 -0.2508
 4745SOL    HW125454   9.260   9.148   2.552  1.5546 -2.4700  0.4890
 4745SOL    HW225455   9.409   9.209   2.527  0.2434  0.1872 -1.0229
 4746SOL     OW25456   8.402   1.748   4.475  0.2565 -0.0571  0.3828
 4746SOL    HW125457   8.333   1.818   4.493  0.0373 -0.6899  2.1179
 4746SOL    HW225458   8.463   1.779   4.402 -2.5126  0.0493 -1.9887
 4747SOL     OW25459   3.795   8.759   5.946 -0.2145  0.2587 -0.9270
 4747SOL    HW125460   3.839   8.684   5.995  1.6240  1.6879 -0.3449
 4747SOL    HW225461   3.695   8.748   5.952  0.0248 -1.9340 -0.5747
 4748SOL     OW25462   1.333   2.809   1.214 -0.1711  0.4574  0.0431
 4748SOL    HW125463   1.393   2.777   1.140 -0.8713 -1.0515  0.1018
 4748SOL    HW225464   1.336   2.743   1.289 -1.4742  0.6593  0.2761
 4749SOL     OW25465   5.200   3.332   3.630 -0.5428  0.2962 -0.7823
 4749SOL    HW125466   5.139   3.260   3.599 -1.3745  1.2476 -1.3933
 4749SOL    HW225467   5.263   3.357   3.557  0.9947 -1.0790  0.0274
 4750SOL     OW25468   0.874   6.999   6.008 -0.5173  0.3869 -0.3785
 4750SOL    HW125469   0.781   6.969   5.986 -1.2056  2.4677 -0.3707
 4750SOL    HW225470   0.935   6.974   5.933 -1.4456  0.7188 -1.2525
 4751SOL     OW25471   2.307   3.074   1.740  0.4103  0.3640  0.7572
 4751SOL    HW125472   2.397   3.096   1.703 -0.1030  0.8400 -0.2200
 4751SOL    HW225473   2.317   3.010   1.816  1.4890 -0.4991 -0.0929
 4752SOL     OW25474   4.740   1.663   0.897  0.1645 -1.0211 -0.0208
 4752SOL    HW125475   4.719   1.691   0.990 -1.9145  0.6725 -0.9595
 4752SOL    HW225476   4.683   1.585   0.871 -0.5553 -0.3465 -0.4782
 4753SOL     OW25477   4.568   9.721   6.501  0.1085 -0.3244 -0.3687
 4753SOL    HW125478   4.551   9.655   6.428 -2.1340 -0.6406  0.3754
 4753SOL    HW225479   4.498   9.710   6.572  1.6988  0.6010  1.3744
 4754SOL     OW25480   4.965   2.366   3.518  0.1659  0.3298 -0.0356
 4754SOL    HW125481   4.999   2.447   3.471  0.3326  0.3900  0.1887
 4754SOL    HW225482   4.940   2.390   3.612  0.1255  0.1417  0.0020
 4755SOL     OW25483   5.618   8.892   1.476 -0.2593  0.3487  0.0275
 4755SOL    HW125484   5.552   8.952   1.520  1.0873  0.2814  2.2227
 4755SOL    HW225485   5.597   8.797   1.498 -1.4888  0.0696 -2.1961
 4756SOL     OW25486   3.192   8.084   2.596  0.2211  0.3202  0.2044
 4756SOL    HW125487   3.168   8.113   2.503 -1.5875  0.4033  0.6649
 4756SOL    HW225488   3.108   8.059   2.645  1.3757 -2.1969  1.0022
 4757SOL     OW25489   4.932   8.238   4.906 -0.7947 -0.4457 -0.0821
 4757SOL    HW125490   5.019   8.209   4.946 -0.0235  0.2155 -1.2525
 4757SOL    HW225491   4.926   8.338   4.909 -2.6241 -0.5756  2.2630
 4758SOL     OW25492   3.323   7.023   1.054 -0.6017 -0.0673  0.5164
 4758SOL    HW125493   3.400   6.976   1.096  0.8440  0.6209 -1.3166
 4758SOL    HW225494   3.237   6.979   1.083  0.4876 -1.1778  2.1233
 4759SOL     OW25495   8.599   5.952   4.028 -0.5770  0.3590 -0.2232
 4759SOL    HW125496   8.573   5.962   3.931  0.1989  0.0803 -0.4604
 4759SOL    HW225497   8.611   6.042   4.069  1.8272  0.4689 -1.1267
 4760SOL     OW25498   9.074   0.361   2.042  0.3635  0.1554  0.1696
 4760SOL    HW125499   8.984   0.404   2.031 -0.2683 -1.4945 -1.3223
 4760SOL    HW225500   9.078   0.315   2.131 -0.0920  0.6448  0.4468
 4761SOL     OW25501   4.250   4.505   1.607 -0.0280  0.0848 -0.1353
 4761SOL    HW125502   4.252   4.508   1.707 -0.2553 -0.6914 -0.1053
 4761SOL    HW225503   4.177   4.566   1.574  0.0423  0.3378  0.1677
 4762SOL     OW25504   2.628   3.052   2.870 -0.1911 -0.3654 -0.3080
 4762SOL    HW125505   2.718   3.095   2.877  0.8071 -2.7296  2.5888
 4762SOL    HW225506   2.585   3.050   2.960 -1.9419 -1.7797 -1.1405
 4763SOL     OW25507   0.967   4.806   1.688  0.0186  0.5996  0.0774
 4763SOL    HW125508   1.049   4.859   1.712 -0.7847  2.1267 -0.4856
 4763SOL    HW225509   0.892   4.869   1.668 -0.9934 -0.7736 -0.4750
 4764SOL     OW25510   9.843   2.237   2.616 -0.0566  0.1081 -0.1908
 4764SOL    HW125511   9.844   2.240   2.516  0.4326  0.6279 -0.1744
 4764SOL    HW225512   9.921   2.182   2.648 -0.9262 -1.1165 -0.1199
 4765SOL     OW25513   2.135   5.575   5.123 -0.4394 -0.2496  0.1507
 4765SOL    HW125514   2.055   5.634   5.121 -1.5219 -1.6861  0.1090
 4765SOL    HW225515   2.151   5.544   5.217 -0.1826 -0.3212  0.0863
 4766SOL     OW25516   5.657   7.811   3.773 -0.3144 -0.4166  0.1548
 4766SOL    HW125517   5.732   7.751   3.748 -0.2801  0.7808 -2.7700
 4766SOL    HW225518   5.693   7.895   3.813 -0.1550 -0.3438 -0.1454
 4767SOL     OW25519   5.303   1.107   2.439 -0.4549 -0.4089 -0.3669
 4767SOL    HW125520   5.370   1.121   2.511 -0.0503 -2.1943 -0.3987
 4767SOL    HW225521   5.232   1.043   2.470 -0.5752 -0.7715 -1.3569
 4768SOL     OW25522   6.964   2.331   3.818  0.6358 -0.2033  0.0934
 4768SOL    HW125523   6.931   2.345   3.912 -0.1592 -0.9759 -0.0580
 4768SOL    HW225524   7.025   2.252   3.816  0.9180  0.0179  0.0194
 4769SOL     OW25525   2.342   3.527   2.224  0.0473 -0.0982 -0.4521
 4769SOL    HW125526   2.321   3.542   2.127 -1.8855  0.4980  0.0344
 4769SOL    HW225527   2.266   3.478   2.267  2.3264 -3.3231  0.0591
 4770SOL     OW25528   6.886   1.946   4.383  1.0273 -0.2280  0.5425
 4770SOL    HW125529   6.838   1.885   4.445  1.2975 -1.3657 -0.3532
 4770SOL    HW225530   6.868   1.919   4.289  2.7079 -0.1410  0.1791
 4771SOL     OW25531   0.420   9.637   3.325 -0.4107  0.6873  0.3028
 4771SOL    HW125532   0.510   9.674   3.350  0.5195 -0.9779 -0.5488
 4771SOL    HW225533   0.426   9.591   3.237 -2.3973  1.6232 -0.3456
 4772SOL     OW25534   7.568   4.147   1.742  0.4951 -0.3683  0.0042
 4772SOL    HW125535   7.512   4.146   1.825  0.9615 -1.1159  0.3086
 4772SOL    HW225536   7.625   4.066   1.739  0.2621 -0.5009 -1.2063
 4773SOL     OW25537   2.134   2.755   5.636 -0.3592  0.2375  0.1132
 4773SOL    HW125538   2.065   2.693   5.599 -0.5140 -0.2134  1.1300
 4773SOL    HW225539   2.215   2.703   5.663 -0.3959  0.5007  0.7545
 4774SOL     OW25540   5.077   8.605   5.771  0.1466 -0.5897  0.1791
 4774SOL    HW125541   5.101   8.667   5.696 -0.3861  0.3141  0.7470
 4774SOL    HW225542   4.978   8.608   5.786  0.3248 -0.2266  1.3675
 4775SOL     OW25543   6.742   7.488   4.912  0.2575  0.2718 -0.4788
 4775SOL    HW125544   6.808   7.415   4.934 -0.5046 -0.1275  0.5586
 4775SOL    HW225545   6.771   7.536   4.830  0.5024 -1.5578 -1.4825
 4776SOL     OW25546   4.505   3.791   5.618  0.2705 -0.1123 -0.0813
 4776SOL    HW125547   4.570   3.810   5.692 -0.7878  0.0551  0.8291
 4776SOL    HW225548   4.510   3.863   5.550 -0.5094  1.0520  1.0833
 4777SOL     OW25549   0.808   0.074   4.958  0.2643 -0.4808 -0.2154
 4777SOL    HW125550   0.753   0.141   4.906  1.2032 -0.5213 -1.2772
 4777SOL    HW225551   0.903   0.105   4.961  0.6075 -1.5233 -0.2943
 4778SOL     OW25552   0.032   3.189   4.113  0.3995 -0.0909 -0.0930
 4778SOL    HW125553   0.056   3.283   4.137  1.8700 -0.3683 -0.4426
 4778SOL    HW225554  -0.056   3.188   4.065 -0.1745  0.9755  0.9195
 4779SOL     OW25555   8.544   6.855   1.470  0.1853 -0.0026  0.2231
 4779SOL    HW125556   8.483   6.777   1.486 -0.1908  0.3458  0.4704
 4779SOL    HW225557   8.493   6.940   1.482 -0.0072  0.2839 -2.3292
 4780SOL     OW25558   1.666   3.275   2.106  0.1114  0.0915  0.2993
 4780SOL    HW125559   1.763   3.296   2.106  0.1063  0.1770 -1.3401
 4780SOL    HW225560   1.650   3.191   2.158  1.1052 -0.1194  0.2615
 4781SOL     OW25561   6.429   2.550   3.738  0.4782  0.3794 -0.7693
 4781SOL    HW125562   6.470   2.515   3.822 -1.4594 -1.5649 -0.5953
 4781SOL    HW225563   6.486   2.525   3.660  0.4862 -0.8567 -0.3720
 4782SOL     OW25564   8.168   1.577   1.778  0.6181  0.0076  0.1972
 4782SOL    HW125565   8.207   1.665   1.807  2.1986  0.1939 -2.3353
 4782SOL    HW225566   8.106   1.544   1.849  2.5301  1.5218  2.6936
 4783SOL     OW25567   0.473   5.253   1.574  0.3954  0.1405  0.3006
 4783SOL    HW125568   0.545   5.191   1.540 -0.8743 -0.7540 -0.7921
 4783SOL    HW225569   0.447   5.225   1.667  0.0029 -0.8275 -0.0914
 4784SOL     OW25570   0.462   0.803   6.122 -0.3051  0.0652 -0.5338
 4784SOL    HW125571   0.424   0.881   6.172 -2.1535 -0.4576 -1.0795
 4784SOL    HW225572   0.457   0.721   6.179  0.1019  0.0109 -0.5751
 4785SOL     OW25573   1.334   5.710   0.500  0.9113 -0.0792  0.2099
 4785SOL    HW125574   1.356   5.613   0.493  0.6145 -0.2996  2.1156
 4785SOL    HW225575   1.417   5.762   0.523  1.0807  0.1408 -0.8583
 4786SOL     OW25576   3.882   1.805   4.796 -0.2491 -0.7125 -0.0166
 4786SOL    HW125577   3.910   1.896   4.829 -0.9859 -1.1978  2.0338
 4786SOL    HW225578   3.923   1.788   4.707 -1.2175  2.2127 -1.0791
 4787SOL     OW25579   3.477   7.801   3.138 -0.0008  0.0439  0.0076
 4787SOL    HW125580   3.496   7.827   3.043  0.8234 -2.0651 -0.4473
 4787SOL    HW225581   3.410   7.727   3.140  0.3807 -0.2941  1.0281
 4788SOL     OW25582   3.109   1.031   6.496  0.2256  0.2849 -0.2298
 4788SOL    HW125583   3.164   0.984   6.564  0.3734  2.4197  1.1667
 4788SOL    HW225584   3.167   1.063   6.421  0.5437  0.5577  0.1328
 4789SOL     OW25585   0.682   0.901   1.234  0.3073  0.3963 -0.1604
 4789SOL    HW125586   0.594   0.870   1.270 -0.0296 -1.7253 -2.6595
 4789SOL    HW225587   0.694   0.866   1.141  2.9697  2.2390 -0.5613
 4790SOL     OW25588   8.248   1.496   6.401 -0.8679 -0.5093 -0.1366
 4790SOL    HW125589   8.287   1.534   6.485 -2.6040 -0.6377  0.7512
 4790SOL    HW225590   8.239   1.397   6.411 -0.1917 -0.6517 -0.8628
 4791SOL     OW25591   0.516   7.053   3.199 -0.5124 -0.2350  0.3371
 4791SOL    HW125592   0.537   7.047   3.101  0.0124  2.6539  0.2274
 4791SOL    HW225593   0.600   7.063   3.251 -0.8224 -1.3432  1.0748
 4792SOL     OW25594   6.350   0.198   5.648 -0.4524  0.2283  0.3888
 4792SOL    HW125595   6.353   0.235   5.555  1.1090 -0.9756 -0.0672
 4792SOL    HW225596   6.402   0.258   5.709  0.3216 -0.0911  0.0534
 4793SOL     OW25597   2.272   5.524   5.738 -0.1562 -0.5318  0.1224
 4793SOL    HW125598   2.211   5.603   5.741 -1.6452 -1.6663  0.2315
 4793SOL    HW225599   2.339   5.531   5.812 -0.1150  0.7439 -0.0200
 4794SOL     OW25600   7.143   4.523   6.250  0.2507  0.6033 -0.2183
 4794SOL    HW125601   7.165   4.465   6.329  0.5141 -0.8843 -1.3720
 4794SOL    HW225602   7.088   4.601   6.281 -0.2043 -0.3044  1.3415
 4795SOL     OW25603   4.046   1.069   3.800  0.4336 -0.0571  0.6137
 4795SOL    HW125604   4.054   1.088   3.898  0.2964  0.2538  0.5662
 4795SOL    HW225605   4.136   1.079   3.757  0.4569 -0.0018  0.6759
 4796SOL     OW25606   7.619   0.209   5.313 -0.2670  0.3207 -0.5369
 4796SOL    HW125607   7.570   0.178   5.394  0.2854  1.1399  0.1279
 4796SOL    HW225608   7.710   0.167   5.311 -0.2515  0.3625 -0.6766
 4797SOL     OW25609   5.130   5.262   1.101 -0.1646  0.1956  0.0432
 4797SOL    HW125610   5.145   5.354   1.065  0.9411 -0.0921 -0.2427
 4797SOL    HW225611   5.118   5.267   1.200 -1.4320  0.7874 -0.1268
 4798SOL     OW25612   4.202   0.831   6.433 -0.3535  0.0896 -0.1718
 4798SOL    HW125613   4.270   0.900   6.406 -1.4553  2.1475  2.1123
 4798SOL    HW225614   4.141   0.812   6.355 -0.5917  2.3973 -0.5955
 4799SOL     OW25615   6.087   1.142   0.527  0.3071  0.0371 -0.4755
 4799SOL    HW125616   6.146   1.183   0.457 -0.2659  1.3100 -0.2222
 4799SOL    HW225617   6.033   1.213   0.572  0.8106 -0.7353  1.4154
 4800SOL     OW25618   3.765   4.678   6.648  0.2774  0.1190 -0.0742
 4800SOL    HW125619   3.702   4.612   6.690  0.3245  0.5557  0.6981
 4800SOL    HW225620   3.830   4.630   6.589  1.4385 -0.7354  1.8641
 4801SOL     OW25621   8.692   6.563   3.760  0.1944 -0.2586  0.2046
 4801SOL    HW125622   8.700   6.492   3.689 -0.8500  0.2773 -0.4492
 4801SOL    HW225623   8.764   6.549   3.828  1.1256 -0.8636 -0.8821
 4802SOL     OW25624   1.885   8.148   6.566 -0.1950  0.5964 -0.2132
 4802SOL    HW125625   1.889   8.079   6.638  1.1421  0.3286 -0.5183
 4802SOL    HW225626   1.915   8.107   6.479 -0.2504  1.3308 -0.5834
 4803SOL     OW25627   1.890   9.958   3.249  0.0972  0.3520  0.1969
 4803SOL    HW125628   1.816  10.019   3.218 -0.6984 -0.6013  0.2012
 4803SOL    HW225629   1.960   9.952   3.177  0.1541  1.2247  0.1742
 4804SOL     OW25630   5.439   2.150   3.920  0.6004 -0.1676  0.0514
 4804SOL    HW125631   5.505   2.171   3.848  0.0635  0.0693 -0.3744
 4804SOL    HW225632   5.486   2.148   4.008  1.0455  0.7287 -0.1581
 4805SOL     OW25633   3.763   4.294   4.552 -0.4278  0.6224  0.0303
 4805SOL    HW125634   3.792   4.199   4.566 -0.6181  0.6194  0.4160
 4805SOL    HW225635   3.678   4.310   4.603 -0.6583  0.8616 -0.4276
 4806SOL     OW25636   8.441   5.890   2.707  0.0604  0.3194  0.0447
 4806SOL    HW125637   8.507   5.928   2.643  1.8908 -1.5933  0.7253
 4806SOL    HW225638   8.409   5.802   2.673 -1.9837  1.1256 -0.1602
 4807SOL     OW25639   3.536   5.817   3.229 -0.5775  0.5141 -0.0280
 4807SOL    HW125640   3.629   5.787   3.251 -0.0400  0.5929 -2.0883
 4807SOL    HW225641   3.540   5.886   3.157 -2.2896 -0.0187 -0.6530
 4808SOL     OW25642   8.211   1.015   1.433  0.2512  0.3783  0.0595
 4808SOL    HW125643   8.232   0.937   1.493 -1.8042  0.0874  0.4458
 4808SOL    HW225644   8.268   1.011   1.351  0.8415 -1.0044  0.5269
 4809SOL     OW25645   2.057   8.674   3.056  0.0964 -0.1569 -0.1468
 4809SOL    HW125646   2.113   8.624   2.989  2.3801  0.8645  0.9373
 4809SOL    HW225647   2.001   8.741   3.009  0.2778 -0.7256 -1.2081
 4810SOL     OW25648   4.864   7.647   1.889 -0.3340  0.2172 -0.5310
 4810SOL    HW125649   4.769   7.650   1.857 -0.5189 -0.0868 -0.0213
 4810SOL    HW225650   4.910   7.732   1.865 -0.8784  0.5662 -0.3525
 4811SOL     OW25651   1.866   9.794   1.890 -0.2582 -0.3008  0.2118
 4811SOL    HW125652   1.802   9.823   1.961  0.1768  0.8574  0.1438
 4811SOL    HW225653   1.814   9.775   1.806 -0.4114  2.0100 -0.2631
 4812SOL     OW25654   1.865   4.011   4.650 -0.5149  0.0514  0.4152
 4812SOL    HW125655   1.952   3.987   4.694 -0.2952 -0.7361 -0.4161
 4812SOL    HW225656   1.819   4.082   4.703  0.0202 -0.4553  1.5796
 4813SOL     OW25657   9.291   2.336   3.728  0.1753 -0.2633  0.2091
 4813SOL    HW125658   9.245   2.273   3.666  2.4335 -0.9476 -0.8214
 4813SOL    HW225659   9.312   2.421   3.680 -1.6579  0.7980  1.2165
 4814SOL     OW25660   8.323   2.920   6.242  0.1579  0.3695 -0.3495
 4814SOL    HW125661   8.336   2.914   6.143 -0.4102  0.5210 -0.4379
 4814SOL    HW225662   8.230   2.951   6.261  0.4639  0.9484  0.2256
 4815SOL     OW25663   8.029   2.591   1.407 -0.1498 -0.4325 -0.1876
 4815SOL    HW125664   7.967   2.587   1.485 -0.3019 -0.3562 -0.3060
 4815SOL    HW225665   8.120   2.562   1.436 -0.0474  0.2462  0.1722
 4816SOL     OW25666   8.759   2.101   4.171  0.1093  0.0298  0.1484
 4816SOL    HW125667   8.698   2.176   4.198 -0.2334 -0.6997  1.4624
 4816SOL    HW225668   8.844   2.139   4.135 -0.2778  1.0589  0.3005
 4817SOL     OW25669   7.648   6.047   5.997 -0.0435 -0.7748 -0.1752
 4817SOL    HW125670   7.557   6.019   6.025 -0.6329  0.0269 -1.2185
 4817SOL    HW225671   7.647   6.070   5.899  1.8843 -3.2617 -0.8149
 4818SOL     OW25672   6.095   8.525   3.401 -0.0334 -0.2527 -0.1903
 4818SOL    HW125673   6.092   8.563   3.493 -0.9666 -0.3634 -0.1732
 4818SOL    HW225674   6.122   8.429   3.406  4.1140  0.8116 -0.3682
 4819SOL     OW25675   5.229   2.717   2.683 -0.4347 -0.1150  0.0528
 4819SOL    HW125676   5.185   2.764   2.606 -0.6641 -0.4669 -0.0308
 4819SOL    HW225677   5.218   2.619   2.672  1.9355 -0.3183 -0.9548
 4820SOL     OW25678   2.507   5.132   3.512 -0.4199  0.1202 -0.4305
 4820SOL    HW125679   2.594   5.117   3.465 -1.0584  0.4770 -1.7373
 4820SOL    HW225680   2.477   5.226   3.498 -0.8057  0.1275  0.3912
 4821SOL     OW25681   9.501   1.574   0.132 -0.0205  1.0345  0.1596
 4821SOL    HW125682   9.471   1.607   0.221  0.4765 -1.5417  1.3291
 4821SOL    HW225683   9.586   1.620   0.106  0.3563  1.1071  1.4894
 4822SOL     OW25684   7.940   1.015   2.734  0.1392 -0.1838 -0.2793
 4822SOL    HW125685   7.929   1.112   2.713 -2.8805 -0.8479 -2.0842
 4822SOL    HW225686   7.987   0.969   2.658 -1.4419 -0.7057 -0.9683
 4823SOL     OW25687   4.802   8.735   5.695 -0.2660  0.0677  0.2514
 4823SOL    HW125688   4.723   8.703   5.746 -2.0819  1.4137 -1.6537
 4823SOL    HW225689   4.849   8.806   5.749 -1.5894  0.7787  0.4953
 4824SOL     OW25690   1.328   9.325   3.739 -0.5028  0.0689 -0.0555
 4824SOL    HW125691   1.371   9.337   3.650 -2.4404  0.1977 -1.0199
 4824SOL    HW225692   1.365   9.244   3.784 -0.4734 -0.8026 -1.6042
 4825SOL     OW25693   9.132   3.925   0.328  0.1525  0.1423  0.3275
 4825SOL    HW125694   9.212   3.964   0.282 -1.2410  1.4289 -1.0344
 4825SOL    HW225695   9.161   3.846   0.382  2.0861 -0.4170 -1.4487
 4826SOL     OW25696   4.073   2.881   4.809 -0.0388 -1.0580  0.2416
 4826SOL    HW125697   4.155   2.829   4.783 -0.7864 -0.9793 -2.3907
 4826SOL    HW225698   3.992   2.836   4.773 -1.0984 -0.5085  1.8647
 4827SOL     OW25699   0.680   4.455   2.303  0.4723 -0.3092 -0.2991
 4827SOL    HW125700   0.742   4.413   2.370 -1.1291 -1.5625  0.4452
 4827SOL    HW225701   0.635   4.383   2.250  0.4823  0.6259 -1.5878
 4828SOL     OW25702   5.369   9.472   4.621 -0.3534  0.3591 -0.0601
 4828SOL    HW125703   5.435   9.499   4.551 -0.8160 -0.8058 -0.9594
 4828SOL    HW225704   5.292   9.426   4.578 -1.6266  1.4362  1.0120
 4829SOL     OW25705   1.358   2.733   3.884 -0.0353 -0.4046 -0.4875
 4829SOL    HW125706   1.447   2.779   3.888  0.0921 -0.7457  0.6062
 4829SOL    HW225707   1.292   2.793   3.838  0.4953  0.2855 -0.3572
 4830SOL     OW25708   5.255   2.383   2.081  0.0519 -0.2334  0.1235
 4830SOL    HW125709   5.352   2.403   2.096  0.0389  0.4754 -0.7499
 4830SOL    HW225710   5.246   2.297   2.031  0.2868  0.4839 -1.1736
 4831SOL     OW25711   8.655   1.731   6.274 -0.4783 -0.2819 -0.1325
 4831SOL    HW125712   8.714   1.768   6.203  0.1239  1.1522  1.0712
 4831SOL    HW225713   8.696   1.748   6.364 -1.1715 -2.1362  0.5713
 4832SOL     OW25714   3.238   3.980   3.276 -0.4124 -0.0357  0.9719
 4832SOL    HW125715   3.297   3.972   3.196 -0.6205  0.5976  0.7508
 4832SOL    HW225716   3.219   3.889   3.313 -0.0432 -0.3053  0.5011
 4833SOL     OW25717   8.409   6.900   0.232 -0.5156 -0.1174 -0.0827
 4833SOL    HW125718   8.376   6.854   0.315  0.3007 -0.9210 -0.1968
 4833SOL    HW225719   8.370   6.856   0.151 -0.9624  0.3879 -0.1480
 4834SOL     OW25720   8.655   7.959   5.320  0.4191 -0.1269  0.0396
 4834SOL    HW125721   8.657   8.059   5.319  0.5664 -0.1385 -2.0959
 4834SOL    HW225722   8.738   7.923   5.278  1.2598 -1.1978  2.5111
 4835SOL     OW25723   9.498   6.851   2.860 -0.5385 -0.3065 -0.0683
 4835SOL    HW125724   9.481   6.824   2.955 -1.5908 -0.3823 -0.2721
 4835SOL    HW225725   9.552   6.780   2.815 -2.7833 -1.8465 -0.4263
 4836SOL     OW25726   2.272   9.180   6.284  0.3358  0.0152 -0.0015
 4836SOL    HW125727   2.331   9.198   6.363  0.8797 -1.4884 -0.0451
 4836SOL    HW225728   2.322   9.126   6.217 -0.5244  0.2409 -0.8341
 4837SOL     OW25729   6.699   0.509   4.846 -0.3500 -0.3736  0.0481
 4837SOL    HW125730   6.723   0.512   4.943 -0.8668  1.0996  0.1409
 4837SOL    HW225731   6.603   0.483   4.836 -0.3123 -0.4691 -0.0707
 4838SOL     OW25732   0.552   9.652   4.386  0.2077  0.1553  0.4906
 4838SOL    HW125733   0.564   9.700   4.299 -1.5054  0.9547  0.6722
 4838SOL    HW225734   0.614   9.691   4.454 -1.3522  2.3213  0.7015
 4839SOL     OW25735   9.732   3.363   4.419  0.0101 -0.0434  0.2643
 4839SOL    HW125736   9.679   3.332   4.497  0.8391 -0.3545  0.7128
 4839SOL    HW225737   9.830   3.352   4.438  0.4526  4.5065  1.1666
 4840SOL     OW25738   7.663   9.190   4.984 -0.5426  0.2997  0.2267
 4840SOL    HW125739   7.618   9.123   5.042 -0.2263  0.1935  0.3516
 4840SOL    HW225740   7.762   9.179   4.991 -0.3949  2.4971  2.2889
 4841SOL     OW25741   8.367   9.798   0.442 -0.2621 -0.4556  0.1075
 4841SOL    HW125742   8.315   9.870   0.396  0.4705 -0.1847 -0.3010
 4841SOL    HW225743   8.313   9.762   0.519 -1.5706 -1.0433 -1.0539
 4842SOL     OW25744   1.557   6.165   4.531  0.5793 -0.3385 -0.4494
 4842SOL    HW125745   1.477   6.166   4.471 -0.3744 -1.9453  0.7481
 4842SOL    HW225746   1.594   6.257   4.538  0.2259  0.0251 -2.8365
 4843SOL     OW25747   8.027   8.793   5.268  0.4914 -0.0833 -0.4144
 4843SOL    HW125748   8.025   8.704   5.314 -0.9207 -0.6014 -1.4509
 4843SOL    HW225749   8.054   8.781   5.173  0.1363  0.5739 -0.5996
 4844SOL     OW25750   7.598  -0.002   0.315  0.1217  0.1464  0.6847
 4844SOL    HW125751   7.508   0.043   0.309 -0.4501 -1.0861 -0.1089
 4844SOL    HW225752   7.664   0.048   0.258 -0.0546  1.0589  1.2760
 4845SOL     OW25753   5.703   2.023   2.123 -0.4525  0.2493  0.1812
 4845SOL    HW125754   5.684   1.984   2.214 -1.5805  2.0153  0.7174
 4845SOL    HW225755   5.712   2.122   2.130 -0.8960  0.4444 -1.7034
 4846SOL     OW25756   6.614   0.704   1.755 -0.1224 -0.2778 -0.0501
 4846SOL    HW125757   6.528   0.753   1.771  0.0086 -0.5513  1.6071
 4846SOL    HW225758   6.602   0.607   1.778  0.0927 -0.7196 -1.7045
 4847SOL     OW25759   8.446   6.877   5.545  0.7473 -0.0270  0.0471
 4847SOL    HW125760   8.527   6.820   5.550  1.0436  0.4755  1.0512
 4847SOL    HW225761   8.387   6.845   5.470  0.3701 -2.3341  1.2804
 4848SOL     OW25762   8.142   5.266   5.413 -0.0349  0.5783 -0.3742
 4848SOL    HW125763   8.199   5.310   5.482 -0.4560  1.6443 -0.6984
 4848SOL    HW225764   8.045   5.276   5.438 -0.1807  0.8351 -1.0344
 4849SOL     OW25765   9.655   5.410   0.769 -0.1179  0.6937 -0.0666
 4849SOL    HW125766   9.592   5.427   0.846  0.8982  0.4826  0.8269
 4849SOL    HW225767   9.603   5.377   0.691 -1.1210  0.4587  0.6857
 4850SOL     OW25768   2.662   8.313   0.527 -0.0091 -0.5081  0.2693
 4850SOL    HW125769   2.697   8.399   0.563  1.0067 -1.4700  1.6156
 4850SOL    HW225770   2.624   8.258   0.601  2.2675 -2.5901 -0.0247
 4851SOL     OW25771   0.452   4.457   2.020  0.0933  0.4925 -0.3034
 4851SOL    HW125772   0.393   4.537   2.032  1.0579  0.9615  1.5809
 4851SOL    HW225773   0.396   4.376   2.006 -0.9446  1.2151 -0.3961
 4852SOL     OW25774   1.731   1.538   1.266 -0.4088 -0.3902  0.6427
 4852SOL    HW125775   1.828   1.545   1.288 -0.6922 -0.6290  2.0008
 4852SOL    HW225776   1.707   1.443   1.249 -0.5866 -0.4380  1.1608
 4853SOL     OW25777   7.973   4.659   5.567  0.2644  0.3563  0.2083
 4853SOL    HW125778   8.028   4.712   5.502 -1.9368 -0.4814 -2.4508
 4853SOL    HW225779   7.982   4.562   5.546 -1.8185  0.1822  0.0251
 4854SOL     OW25780   1.066   1.198   5.363  0.9577  0.4706  0.5115
 4854SOL    HW125781   1.034   1.138   5.290 -0.0789 -0.0713  1.4079
 4854SOL    HW225782   1.049   1.293   5.339 -2.0280  0.1696  1.2807
 4855SOL     OW25783   9.810   5.935   5.197 -1.0810 -0.4837  0.0227
 4855SOL    HW125784   9.862   5.863   5.242  1.9367  1.5780 -0.0026
 4855SOL    HW225785   9.714   5.908   5.190 -0.3026 -3.8027  1.3568
 4856SOL     OW25786   1.899   2.092   1.978 -0.0715 -0.4832 -0.1879
 4856SOL    HW125787   1.941   2.011   1.936 -0.7033 -0.7197 -0.3596
 4856SOL    HW225788   1.800   2.090   1.964 -0.4369 -1.1184  2.2166
 4857SOL     OW25789   4.084   3.725   3.273  0.0880 -0.1832  0.9546
 4857SOL    HW125790   4.001   3.676   3.301 -0.6073 -0.1628 -1.0177
 4857SOL    HW225791   4.069   3.769   3.184  2.1180  0.0929  0.7163
 4858SOL     OW25792   3.093   0.281   0.056 -0.0665  0.2672  0.0619
 4858SOL    HW125793   3.141   0.292  -0.031 -0.3843  0.2921 -0.1132
 4858SOL    HW225794   3.071   0.371   0.094 -2.2150  0.2839 -1.1181
 4859SOL     OW25795   1.047   0.167   6.375  0.3078 -0.0256  1.2641
 4859SOL    HW125796   1.022   0.144   6.469  1.5947  0.5075  1.7427
 4859SOL    HW225797   1.091   0.088   6.332 -0.5405 -0.3678  0.9929
 4860SOL     OW25798   5.549   2.553   3.891  0.3689  0.3736 -0.8855
 4860SOL    HW125799   5.612   2.596   3.956 -0.6005  0.1910  0.1938
 4860SOL    HW225800   5.601   2.500   3.825  1.4168  1.0995 -0.6600
 4861SOL     OW25801   6.367   0.722   5.751  0.2420  0.4834  1.0020
 4861SOL    HW125802   6.320   0.802   5.788 -2.4141  0.4331 -2.0462
 4861SOL    HW225803   6.317   0.639   5.777  0.6408  0.1417  0.6883
 4862SOL     OW25804   3.553   4.813   4.997  0.5380  0.0953  0.2643
 4862SOL    HW125805   3.530   4.890   5.057 -0.5457  1.3519 -1.6840
 4862SOL    HW225806   3.496   4.735   5.020 -1.4555  1.2662 -0.5329
 4863SOL     OW25807   4.904   0.483   2.988 -0.0746  0.2528 -0.2936
 4863SOL    HW125808   5.003   0.484   2.979  0.0449  0.1371  1.0046
 4863SOL    HW225809   4.870   0.390   2.971 -0.0021  0.3729 -1.1120
 4864SOL     OW25810   4.707   2.033   1.960 -0.8873 -0.2672 -0.3221
 4864SOL    HW125811   4.790   2.075   1.997 -1.2518  1.7927 -1.7052
 4864SOL    HW225812   4.644   2.011   2.034  0.6310 -1.2828  0.6841
 4865SOL     OW25813   5.069   0.524   0.854 -0.5892  0.0434 -0.2932
 4865SOL    HW125814   5.051   0.615   0.892  3.3552  0.4155  0.9810
 4865SOL    HW225815   5.115   0.468   0.923  0.2254 -1.7386 -2.2180
 4866SOL     OW25816   9.193   4.396   0.893 -0.4919 -0.4784  0.7435
 4866SOL    HW125817   9.220   4.358   0.981  1.1713 -0.9391  0.0489
 4866SOL    HW225818   9.132   4.332   0.846 -0.6376 -0.6400  1.1556
 4867SOL     OW25819   1.459   4.532   4.246 -0.0664 -0.1602  0.6219
 4867SOL    HW125820   1.512   4.593   4.188 -2.0543  0.2351 -0.8407
 4867SOL    HW225821   1.520   4.482   4.307  1.7326  2.0829  0.7099
 4868SOL     OW25822   3.554   1.772   5.064 -0.2647 -0.0665 -0.4039
 4868SOL    HW125823   3.578   1.791   5.159  0.7301 -0.5635 -0.5568
 4868SOL    HW225824   3.587   1.681   5.038 -2.1994 -0.7421 -0.6487
 4869SOL     OW25825   6.964   8.758   2.956 -0.6693  0.1500  0.0231
 4869SOL    HW125826   6.943   8.661   2.967  0.3675 -0.1822 -0.8646
 4869SOL    HW225827   7.061   8.773   2.976 -0.5022  0.7696 -1.2486
 4870SOL     OW25828   0.847   8.220   6.636 -0.0404 -0.0603  0.4804
 4870SOL    HW125829   0.784   8.146   6.659  1.4909 -1.8865 -1.0287
 4870SOL    HW225830   0.941   8.186   6.637  0.5528  1.3222 -2.2211
 4871SOL     OW25831   5.556   1.226   2.244  0.3346 -0.6092  0.0292
 4871SOL    HW125832   5.554   1.197   2.340  1.7033  0.5515  0.4238
 4871SOL    HW225833   5.568   1.145   2.186 -2.5212 -1.5464  0.6869
 4872SOL     OW25834   0.848   8.635   0.242 -0.5890 -0.2702 -0.2501
 4872SOL    HW125835   0.830   8.566   0.171  1.5785 -1.8253  0.6556
 4872SOL    HW225836   0.764   8.651   0.293 -1.2089 -2.0598 -0.6535
 4873SOL     OW25837   2.137   7.613   2.469  0.1175 -0.5485  0.5427
 4873SOL    HW125838   2.221   7.661   2.492  0.9608 -1.8756  0.2975
 4873SOL    HW225839   2.143   7.518   2.501 -1.5398 -0.4801  1.0908
 4874SOL     OW25840   2.310   2.403   4.201  0.3392 -0.0858  0.7132
 4874SOL    HW125841   2.349   2.492   4.226 -1.4636  1.2096 -0.9656
 4874SOL    HW225842   2.221   2.392   4.246 -0.7769  0.2505 -1.3518
 4875SOL     OW25843   9.085   3.024   5.000  0.0755  0.2457 -0.0764
 4875SOL    HW125844   9.180   3.055   4.989  0.1484 -0.0636 -0.3092
 4875SOL    HW225845   9.031   3.098   5.041 -0.0655  1.2006 -1.9265
 4876SOL     OW25846   1.133   2.273   4.947  0.2949 -0.3780  0.0121
 4876SOL    HW125847   1.071   2.237   4.878 -0.4023 -2.5226  1.7140
 4876SOL    HW225848   1.218   2.221   4.947  1.0363  0.8015 -0.4503
 4877SOL     OW25849   8.256   1.126   3.271 -0.1194  0.0146 -0.0626
 4877SOL    HW125850   8.328   1.160   3.211  0.5528 -0.1748  0.6378
 4877SOL    HW225851   8.267   1.166   3.362 -2.3294  1.9115 -0.5792
 4878SOL     OW25852   1.607   0.253   3.519  0.9033 -0.5026 -0.0943
 4878SOL    HW125853   1.564   0.289   3.436  1.1773  0.7198  0.2729
 4878SOL    HW225854   1.601   0.154   3.520  0.9280 -0.5276 -1.5904
 4879SOL     OW25855   3.222   1.643   3.642 -0.1303  0.4876 -0.1963
 4879SOL    HW125856   3.223   1.682   3.549  0.4156  1.2405  0.1187
 4879SOL    HW225857   3.138   1.671   3.688 -0.0198  0.7953 -0.1802
 4880SOL     OW25858   8.600   3.941   2.035 -0.3219 -0.3065  0.2534
 4880SOL    HW125859   8.695   3.964   2.057 -0.6844 -0.7830  2.4863
 4880SOL    HW225860   8.599   3.870   1.965  0.9168  1.0725 -1.2093
 4881SOL     OW25861   7.386   2.789   2.754 -0.1093 -0.3339 -0.4187
 4881SOL    HW125862   7.415   2.727   2.680  1.2904  0.0581 -0.2171
 4881SOL    HW225863   7.462   2.849   2.778 -0.6907 -0.1797  1.0707
 4882SOL     OW25864   7.170   9.174   2.538 -0.5988 -0.1506 -0.3725
 4882SOL    HW125865   7.198   9.101   2.475 -1.0648 -1.8926  1.3585
 4882SOL    HW225866   7.250   9.210   2.585 -0.1800  1.5307 -2.3035
 4883SOL     OW25867   5.229   7.118   1.842  0.1156  0.0736 -0.3098
 4883SOL    HW125868   5.131   7.137   1.851 -0.1381 -0.1953 -2.3727
 4883SOL    HW225869   5.251   7.034   1.891 -1.1626 -1.1679 -1.8001
 4884SOL     OW25870   7.723   3.625   0.172  0.3080 -0.7557 -0.5967
 4884SOL    HW125871   7.739   3.600   0.077 -1.8864 -1.6734 -0.7341
 4884SOL    HW225872   7.735   3.724   0.183 -0.9160 -0.4265 -2.1398
 4885SOL     OW25873   0.209   4.972   5.964  0.0027  0.3258 -0.3460
 4885SOL    HW125874   0.271   5.042   6.000  1.2189 -1.1653  0.4719
 4885SOL    HW225875   0.115   4.993   5.993  0.5732  0.7468  1.2293
 4886SOL     OW25876   2.756   7.037   4.241  0.0891  0.3092 -0.2636
 4886SOL    HW125877   2.692   6.961   4.250  1.1560 -0.7675 -1.5735
 4886SOL    HW225878   2.791   7.041   4.147  3.6426 -0.5155  0.9487
 4887SOL     OW25879   4.309   4.319   6.392 -0.0272  0.4673  0.5545
 4887SOL    HW125880   4.351   4.408   6.412  1.0216  0.2518 -0.5873
 4887SOL    HW225881   4.234   4.332   6.327 -0.3670  0.6085  0.9752
 4888SOL     OW25882   0.780   9.791   0.018 -0.2650 -0.0929  0.0014
 4888SOL    HW125883   0.689   9.751   0.020 -0.1141 -0.5982 -2.1434
 4888SOL    HW225884   0.773   9.890   0.026 -0.9714 -0.1775  0.4130
 4889SOL     OW25885   3.323   5.832   3.476  0.6232  0.2092  0.6467
 4889SOL    HW125886   3.287   5.741   3.497  1.6287  0.3146  2.9954
 4889SOL    HW225887   3.388   5.826   3.400 -2.4423 -0.3328 -2.0556
 4890SOL     OW25888   1.438   7.699   5.879 -0.2310 -0.6444  0.5060
 4890SOL    HW125889   1.483   7.609   5.884  0.2645 -0.5321 -1.8089
 4890SOL    HW225890   1.346   7.691   5.918 -0.0469 -2.0508  0.6944
 4891SOL     OW25891   8.911   6.608   2.188 -0.2124 -0.0783 -0.6685
 4891SOL    HW125892   8.868   6.565   2.108 -1.3679  3.0211 -1.8082
 4891SOL    HW225893   8.839   6.637   2.252  0.2535  2.9235 -1.4253
 4892SOL     OW25894   2.161   3.771   3.721  0.3266 -0.4818  0.6032
 4892SOL    HW125895   2.256   3.792   3.743  0.2146 -0.2041  0.8123
 4892SOL    HW225896   2.145   3.788   3.624 -0.4275  2.8318  1.2554
 4893SOL     OW25897   2.622   8.914   4.859 -0.8662  0.8596 -0.3776
 4893SOL    HW125898   2.690   8.864   4.912 -1.5191 -0.1916 -0.5108
 4893SOL    HW225899   2.599   8.999   4.906 -1.5020 -0.1027  1.0967
 4894SOL     OW25900   6.655   1.406   5.789  0.0023  0.1367 -0.2814
 4894SOL    HW125901   6.726   1.380   5.854  1.3787  2.3300 -0.8711
 4894SOL    HW225902   6.565   1.384   5.827  0.8670 -0.3869  1.5083
 4895SOL     OW25903   2.073   2.012   3.415 -0.0792 -0.1706 -0.5505
 4895SOL    HW125904   2.106   2.100   3.383 -0.7091  0.0722 -0.5333
 4895SOL    HW225905   2.145   1.966   3.467 -0.2293  0.9780  0.6981
 4896SOL     OW25906   1.793   6.202   3.307 -0.6920  0.0220  0.6580
 4896SOL    HW125907   1.710   6.236   3.263 -1.0611 -2.0209 -0.2581
 4896SOL    HW225908   1.772   6.169   3.398 -0.8611 -0.3771  0.4736
 4897SOL     OW25909   2.706   6.327   5.552 -0.5156  0.0925 -0.0611
 4897SOL    HW125910   2.681   6.247   5.497  1.7501 -0.0953 -0.8609
 4897SOL    HW225911   2.659   6.322   5.640 -2.0241 -1.0423 -0.9050
 4898SOL     OW25912   7.438   6.888   5.210  0.1797  0.4573 -0.1710
 4898SOL    HW125913   7.516   6.868   5.151 -0.5972  0.2312 -1.1283
 4898SOL    HW225914   7.423   6.811   5.273 -0.8186 -0.6130 -1.6870
 4899SOL     OW25915   0.765   4.779   4.191  0.0857  0.2478 -0.8518
 4899SOL    HW125916   0.799   4.860   4.238  0.7605  0.1043 -1.0970
 4899SOL    HW225917   0.824   4.757   4.114  0.4649 -1.0343 -0.2132
 4900SOL     OW25918   2.760   3.632   0.621 -0.0524 -0.3100 -0.0315
 4900SOL    HW125919   2.853   3.661   0.645 -0.3692 -0.7833  1.8131
 4900SOL    HW225920   2.723   3.695   0.552  1.2417  0.5084 -0.0082
 4901SOL     OW25921   7.943   6.130   5.688 -0.2043 -0.1100  0.7361
 4901SOL    HW125922   7.991   6.086   5.612 -2.4220 -0.4652 -0.4897
 4901SOL    HW225923   8.006   6.193   5.734  1.4779 -0.6556 -0.7261
 4902SOL     OW25924   0.571   7.044   2.928 -0.1071 -0.2158  0.1040
 4902SOL    HW125925   0.568   6.945   2.917  1.4395 -0.2104 -0.5218
 4902SOL    HW225926   0.636   7.083   2.862 -0.6415  1.2028  0.3928
 4903SOL     OW25927   1.950   4.753   1.058 -0.7428  0.0172  0.1187
 4903SOL    HW125928   1.880   4.734   0.988 -2.1704 -1.2019  1.8329
 4903SOL    HW225929   1.963   4.672   1.115  0.6574  0.8901  1.0733
 4904SOL     OW25930   4.253   0.059   0.049 -0.6737  0.1255  0.1443
 4904SOL    HW125931   4.262   0.135  -0.015  0.1019 -0.7355 -0.8015
 4904SOL    HW225932   4.343   0.036   0.086 -1.2400  1.1817  2.2403
 4905SOL     OW25933   5.910   8.310   3.720  0.0981 -0.5268  0.1516
 4905SOL    HW125934   5.974   8.386   3.713  0.9214 -1.1860  0.4240
 4905SOL    HW225935   5.847   8.311   3.643  0.1579  0.3789  0.1140
 4906SOL     OW25936   9.213   6.940   6.283 -0.2235  0.6124  0.0482
 4906SOL    HW125937   9.238   6.990   6.200  2.0543 -0.3873  0.0990
 4906SOL    HW225938   9.128   6.890   6.267 -0.1414  0.9314 -1.4730
 4907SOL     OW25939   0.857   8.148   5.246 -0.4885  0.3847 -0.4231
 4907SOL    HW125940   0.794   8.219   5.215 -0.4865 -0.1726 -1.7560
 4907SOL    HW225941   0.845   8.066   5.190 -0.3637 -0.6063  0.9785
 4908SOL     OW25942   1.363   7.412   4.211 -0.3825 -0.0196 -0.0899
 4908SOL    HW125943   1.346   7.326   4.163  1.5588 -0.1331 -0.5934
 4908SOL    HW225944   1.312   7.485   4.166 -0.2631 -0.5118 -1.0430
 4909SOL     OW25945   3.555   8.332   3.604 -0.4394  0.7465 -0.1213
 4909SOL    HW125946   3.493   8.318   3.681 -1.8516 -1.1083 -1.5666
 4909SOL    HW225947   3.506   8.376   3.529  0.3000  0.3471 -0.8458
 4910SOL     OW25948   3.076   9.953   3.598  0.3102  0.0178  0.0294
 4910SOL    HW125949   3.002  10.018   3.577  0.5401  0.4085  0.4183
 4910SOL    HW225950   3.077   9.934   3.696  0.3506 -0.4446 -0.0608
 4911SOL     OW25951   8.599   8.628   6.413 -0.3154  0.3357  0.1801
 4911SOL    HW125952   8.654   8.558   6.368  2.1715  3.0474 -1.1299
 4911SOL    HW225953   8.617   8.627   6.511  0.5145 -0.1653  0.0199
 4912SOL     OW25954   4.632   3.808   4.703  0.4074 -0.2758  0.2347
 4912SOL    HW125955   4.703   3.739   4.685 -0.9226 -1.0513 -2.3025
 4912SOL    HW225956   4.552   3.763   4.742 -0.1208 -0.0067 -0.5425
 4913SOL     OW25957   7.238   4.385   1.208 -0.5979 -0.4205 -0.4557
 4913SOL    HW125958   7.234   4.341   1.119  0.2996 -1.4992  0.0235
 4913SOL    HW225959   7.217   4.482   1.199  1.3079 -0.1323 -2.1220
 4914SOL     OW25960   9.362   4.913   4.021  0.0285  0.5484  0.2481
 4914SOL    HW125961   9.435   4.897   4.087  0.7009  1.5991 -0.2277
 4914SOL    HW225962   9.275   4.884   4.061  0.7814 -1.3262  0.5542
 4915SOL     OW25963   7.472   0.878   6.357 -0.0911 -0.0814 -0.4174
 4915SOL    HW125964   7.559   0.849   6.397 -0.3571  0.3543  0.5091
 4915SOL    HW225965   7.398   0.858   6.421 -0.8562 -1.7859 -1.8089
 4916SOL     OW25966   3.062   6.229   5.232 -0.8830  0.2775  0.2057
 4916SOL    HW125967   3.118   6.192   5.158  0.1271  1.2440  0.4745
 4916SOL    HW225968   3.121   6.264   5.305 -1.8564 -1.1825  1.7438
 4917SOL     OW25969   3.816   8.234   2.753  0.1904  0.6199 -0.2922
 4917SOL    HW125970   3.797   8.253   2.849  0.6401 -2.1673  0.4086
 4917SOL    HW225971   3.795   8.138   2.734  0.7130  0.9739 -2.8337
 4918SOL     OW25972   0.785   9.799   4.992  0.1907  0.2172 -0.0851
 4918SOL    HW125973   0.696   9.763   5.019  0.1615  1.4594  1.5820
 4918SOL    HW225974   0.783   9.899   4.997  1.1430  0.3451 -1.7947
 4919SOL     OW25975   0.990   9.083   5.453 -0.6789  0.1607 -0.0755
 4919SOL    HW125976   1.027   9.015   5.390 -2.5133 -1.3995  0.4691
 4919SOL    HW225977   1.019   9.175   5.425  0.3846 -0.6938 -1.8405
 4920SOL     OW25978   9.266   1.957   0.903  0.2009  0.2233  0.5634
 4920SOL    HW125979   9.307   2.006   0.981  1.4214 -0.5121  0.3944
 4920SOL    HW225980   9.172   1.933   0.925  0.1466  1.0890  1.3404
 4921SOL     OW25981   0.878   6.336   1.804  0.3964  0.1792  0.4088
 4921SOL    HW125982   0.796   6.319   1.858  0.2918 -1.1503 -0.1458
 4921SOL    HW225983   0.879   6.275   1.725  2.1053 -0.0621  0.6089
 4922SOL     OW25984   5.784   0.511   5.057  0.1746 -0.0880 -0.2434
 4922SOL    HW125985   5.846   0.438   5.032  0.0809  0.2621 -1.5324
 4922SOL    HW225986   5.808   0.546   5.148  1.3590 -0.4863 -0.3951
 4923SOL     OW25987   1.990   2.707   0.903  0.2578 -0.5846  0.4065
 4923SOL    HW125988   1.909   2.652   0.921  0.0475 -0.1932  0.6730
 4923SOL    HW225989   2.042   2.719   0.987  0.6562 -0.9332  0.2110
 4924SOL     OW25990   3.290   3.004   1.342  0.5059 -0.9194  0.0640
 4924SOL    HW125991   3.389   3.014   1.349  0.5425 -0.3710 -1.2323
 4924SOL    HW225992   3.250   3.004   1.434  1.5863  0.0182  0.5404
 4925SOL     OW25993   2.160   5.896   3.248  0.3781 -0.6808 -0.0611
 4925SOL    HW125994   2.113   5.982   3.268  0.2683 -0.8599  0.4542
 4925SOL    HW225995   2.099   5.820   3.267  0.5927 -0.8829 -0.1882
 4926SOL     OW25996   3.575   6.454   4.712 -0.4501  0.2425  0.0351
 4926SOL    HW125997   3.535   6.545   4.722 -0.0406  0.2813  1.5571
 4926SOL    HW225998   3.586   6.432   4.615  0.4532  2.2629 -0.3505
 4927SOL     OW25999   2.652   7.007   3.067 -0.2354 -0.1376 -0.0318
 4927SOL    HW126000   2.737   6.957   3.048  0.1640  0.4152  0.2661
 4927SOL    HW226001   2.628   6.996   3.163  0.3863  1.0301  0.2690
 4928SOL     OW26002   0.495   3.252   2.574 -0.0301 -0.1702 -0.5302
 4928SOL    HW126003   0.403   3.247   2.613 -0.2008  1.2064 -0.7396
 4928SOL    HW226004   0.504   3.186   2.499 -1.0490  0.1514 -0.9339
 4929SOL     OW26005   3.955   4.735   4.689 -0.2781 -0.4545 -0.2566
 4929SOL    HW126006   3.874   4.717   4.634 -0.1678  0.7786 -0.8387
 4929SOL    HW226007   3.983   4.831   4.678  1.4732 -0.9511 -0.3630
 4930SOL     OW26008   5.460   3.874   0.027  0.3474 -0.5917 -0.1248
 4930SOL    HW126009   5.523   3.904  -0.044 -1.4156 -1.6492 -2.1943
 4930SOL    HW226010   5.366   3.882  -0.006 -0.4546 -2.2509  1.6567
 4931SOL     OW26011   5.810   0.366   2.907 -0.7631  0.0119  0.1554
 4931SOL    HW126012   5.808   0.327   2.815 -1.9752  0.2687  0.0729
 4931SOL    HW226013   5.750   0.446   2.910  0.8604  1.2356  0.6107
 4932SOL     OW26014   7.718   9.965   4.793 -0.0821  0.3507  0.0819
 4932SOL    HW126015   7.723   9.940   4.697  0.2288  0.5625  0.0419
 4932SOL    HW226016   7.762  10.053   4.807 -0.7248  0.6379  0.3100
 4933SOL     OW26017   8.331   1.269   6.631  0.5726  0.1006  0.0605
 4933SOL    HW126018   8.277   1.254   6.548  1.1526  0.2270 -0.3412
 4933SOL    HW226019   8.426   1.290   6.606  1.0049 -0.9306  0.7764
 4934SOL     OW26020   9.292   9.167   0.876 -0.1116 -0.4166  0.6827
 4934SOL    HW126021   9.383   9.146   0.914  1.6832  1.4134 -2.3793
 4934SOL    HW226022   9.245   9.081   0.855  2.3241 -1.4659 -0.7731
 4935SOL     OW26023   2.844   8.988   3.215 -0.5931  0.1041  0.5288
 4935SOL    HW126024   2.896   8.919   3.265 -1.2272 -1.0197 -0.3407
 4935SOL    HW226025   2.811   8.949   3.129 -2.6528  0.8834  0.9425
 4936SOL     OW26026   8.938   4.687   3.425 -0.0934  0.1844  0.1674
 4936SOL    HW126027   8.991   4.694   3.509  0.1338  1.5097 -0.0792
 4936SOL    HW226028   9.000   4.684   3.347 -0.3153 -0.6471  0.0196
 4937SOL     OW26029   9.786   3.956   5.419 -0.0594 -0.0837  0.0410
 4937SOL    HW126030   9.884   3.946   5.440 -0.2195 -1.3287  0.2354
 4937SOL    HW226031   9.768   3.918   5.329 -0.8942 -2.6671  1.2736
 4938SOL     OW26032   1.715   1.145   3.002  0.3966  0.1398 -0.1605
 4938SOL    HW126033   1.722   1.119   2.905  1.6123 -0.7696  0.1512
 4938SOL    HW226034   1.690   1.065   3.056  0.4029  0.4835  0.3552
 4939SOL     OW26035   8.313   3.051   2.829  0.4008  1.3648 -0.7341
 4939SOL    HW126036   8.231   3.036   2.775 -0.3783  0.6898  0.6173
 4939SOL    HW226037   8.369   2.968   2.828  0.2996  1.2934 -0.3592
 4940SOL     OW26038   0.688   8.405   1.780  0.4443  0.0576  0.2859
 4940SOL    HW126039   0.699   8.374   1.685 -0.3548  0.3931  0.0870
 4940SOL    HW226040   0.596   8.383   1.812 -0.3841  2.7880 -0.0716
 4941SOL     OW26041   3.188   8.059   0.130  0.1327  0.3284  0.3377
 4941SOL    HW126042   3.248   8.002   0.075  0.5982  0.2241  0.9486
 4941SOL    HW226043   3.149   8.132   0.074 -0.4615 -0.5877 -0.4466
 4942SOL     OW26044   0.208   7.166   6.311 -0.0774  0.1472  0.1896
 4942SOL    HW126045   0.129   7.227   6.306 -0.7869 -0.7846 -0.0250
 4942SOL    HW226046   0.264   7.176   6.229  0.8189  1.8475  0.9617
 4943SOL     OW26047   0.762   8.615   3.698 -0.2728  0.2684  0.3152
 4943SOL    HW126048   0.831   8.542   3.697  0.9362  1.3671  1.2262
 4943SOL    HW226049   0.800   8.696   3.653 -0.2737  1.4801  2.4348
 4944SOL     OW26050   5.551   0.799   1.367  0.4422  0.0851 -0.4369
 4944SOL    HW126051   5.513   0.736   1.299 -1.1163 -0.0882  0.5908
 4944SOL    HW226052   5.478   0.850   1.410  1.4208  0.1499  1.1685
 4945SOL     OW26053   2.322   4.511   4.461  0.2419 -0.0479  0.1657
 4945SOL    HW126054   2.339   4.489   4.365 -2.2686 -1.0062 -0.0836
 4945SOL    HW226055   2.375   4.592   4.486  0.4990  0.5536 -2.1746
 4946SOL     OW26056   0.998   6.912   5.438 -0.3034 -0.1309  0.3296
 4946SOL    HW126057   0.956   6.826   5.466  1.7508 -1.5339 -0.8194
 4946SOL    HW226058   1.082   6.894   5.388 -0.9262  2.4795 -1.7797
 4947SOL     OW26059   0.429   1.900   4.095 -0.6694  0.2351  0.1705
 4947SOL    HW126060   0.517   1.852   4.100  1.3535  3.8328  0.2311
 4947SOL    HW226061   0.381   1.871   4.012  1.4500 -0.3678 -0.8926
 4948SOL     OW26062   0.576   9.964   0.368  0.3817 -0.2215  0.0828
 4948SOL    HW126063   0.648   9.895   0.377 -0.2838 -1.0829 -1.0036
 4948SOL    HW226064   0.617  10.055   0.371  1.4150 -0.6782  0.3221
 4949SOL     OW26065   6.466   8.856   6.002  0.1894  0.8638  0.4782
 4949SOL    HW126066   6.505   8.816   5.920 -0.0668  3.9983 -1.2426
 4949SOL    HW226067   6.372   8.886   5.984  0.4379  2.4321  1.6022
 4950SOL     OW26068   4.870   9.294   3.801 -0.4388  0.0143  0.0958
 4950SOL    HW126069   4.863   9.315   3.704 -0.4612 -0.3958  0.0063
 4950SOL    HW226070   4.829   9.204   3.818 -0.3929  0.0660  0.4750
 4951SOL     OW26071   8.944   9.006   3.687  0.1970 -0.3179  0.1812
 4951SOL    HW126072   8.902   8.953   3.613  0.2970 -0.6188  0.3407
 4951SOL    HW226073   8.874   9.034   3.752  0.2076 -0.6120  0.3191
 4952SOL     OW26074   2.694   4.244   3.841 -0.0009  0.2696  0.2361
 4952SOL    HW126075   2.615   4.288   3.800  0.0116 -0.1534 -0.2537
 4952SOL    HW226076   2.709   4.155   3.798  0.7503  0.3494  0.3114
 4953SOL     OW26077   6.942   8.770   4.373 -0.1343  0.2489 -0.5469
 4953SOL    HW126078   6.979   8.862   4.362  0.4386  0.1158  0.1911
 4953SOL    HW226079   6.842   8.774   4.380 -0.1476  0.7559 -1.0614
 4954SOL     OW26080   5.236   0.208   1.451 -0.3028  0.0538  0.1141
 4954SOL    HW126081   5.224   0.109   1.458 -2.5035 -0.1327 -4.5915
 4954SOL    HW226082   5.312   0.228   1.389 -0.7740  1.2979 -0.0708
 4955SOL     OW26083   3.931   7.055   3.058 -0.4096 -0.2703  0.2815
 4955SOL    HW126084   3.966   7.096   2.974 -1.7640  2.8356  1.1727
 4955SOL    HW226085   4.002   7.056   3.128 -0.5791  1.0023  0.4392
 4956SOL     OW26086   8.298   6.322   4.886 -0.2359 -0.4848 -0.1299
 4956SOL    HW126087   8.276   6.418   4.900  0.1013 -0.3065 -0.8490
 4956SOL    HW226088   8.346   6.287   4.967  0.3220  0.1482 -0.1860
 4957SOL     OW26089   3.727   6.799   1.899 -0.4562  0.1723  0.0503
 4957SOL    HW126090   3.777   6.834   1.820 -1.1079 -0.2760 -0.5685
 4957SOL    HW226091   3.639   6.847   1.906 -0.8215 -0.4749 -0.0826
 4958SOL     OW26092   1.747   7.805   1.929  0.1143 -0.5150 -0.2554
 4958SOL    HW126093   1.831   7.816   1.876 -0.2391  0.5350 -0.6164
 4958SOL    HW226094   1.760   7.734   1.998  0.9820 -1.0372 -0.9378
 4959SOL     OW26095   1.200   6.745   3.852  0.0894 -0.2161  0.1347
 4959SOL    HW126096   1.111   6.705   3.829 -0.8605  0.9680  1.6227
 4959SOL    HW226097   1.208   6.753   3.952  0.7769  2.0523 -0.0739
 4960SOL     OW26098   8.861   8.685   2.776  0.0375  0.0664  0.0937
 4960SOL    HW126099   8.846   8.586   2.772  3.4704 -0.5346  0.3418
 4960SOL    HW226100   8.860   8.715   2.872  0.2697  0.0499  0.1011
 4961SOL     OW26101   0.275   3.920   1.481 -0.0644  0.1315 -0.0384
 4961SOL    HW126102   0.245   3.892   1.390  0.5785 -0.8132  0.0376
 4961SOL    HW226103   0.359   3.872   1.505 -0.8998 -0.5531  1.5721
 4962SOL     OW26104   0.683   3.929   6.050 -0.1962  0.0209 -0.3011
 4962SOL    HW126105   0.741   3.883   6.117 -0.0866  2.1477  1.1243
 4962SOL    HW226106   0.719   4.021   6.033 -0.0267 -0.6065 -3.5572
 4963SOL     OW26107   7.938   9.794   4.224  0.2641 -0.3773  0.6550
 4963SOL    HW126108   7.871   9.727   4.192 -0.2722  0.7826 -0.6582
 4963SOL    HW226109   8.019   9.745   4.258  0.4628 -1.6762 -1.5687
 4964SOL     OW26110   0.585   0.494   1.680 -0.1854 -0.4874  0.0038
 4964SOL    HW126111   0.671   0.473   1.728 -0.2502 -0.6698  0.0408
 4964SOL    HW226112   0.540   0.571   1.725 -1.1034 -1.7523  1.3061
 4965SOL     OW26113   7.449   9.260   5.513  0.2755  0.1162  0.2524
 4965SOL    HW126114   7.453   9.233   5.416  2.4367  0.6569  0.1695
 4965SOL    HW226115   7.438   9.360   5.519  0.4020  0.1093  0.5777
 4966SOL     OW26116   0.205   0.489   5.010  0.6324 -0.3893 -1.0794
 4966SOL    HW126117   0.151   0.462   5.090 -0.6863 -2.2045 -2.5440
 4966SOL    HW226118   0.299   0.459   5.022  0.8225  0.8174  0.5164
 4967SOL     OW26119   3.927   9.295   5.439 -0.4319  0.1897 -0.3807
 4967SOL    HW126120   3.993   9.304   5.514 -0.0649 -0.4530 -0.6165
 4967SOL    HW226121   3.835   9.287   5.475 -0.3446  0.7588 -0.0319
 4968SOL     OW26122   6.826   1.151   3.675  0.2007  0.7359  0.1063
 4968SOL    HW126123   6.854   1.129   3.582 -0.5772  1.6134 -0.3443
 4968SOL    HW226124   6.761   1.227   3.673  0.3382  0.8952  1.3793
 4969SOL     OW26125   4.188   0.254   3.198 -0.1658 -0.4663  0.3081
 4969SOL    HW126126   4.119   0.316   3.234 -0.1815 -0.2419 -0.1188
 4969SOL    HW226127   4.158   0.215   3.111  0.6746  0.3974 -0.3812
 4970SOL     OW26128   0.463   9.153   4.503 -0.0712 -0.0778  0.3828
 4970SOL    HW126129   0.469   9.122   4.598 -0.7933 -2.3994 -0.2716
 4970SOL    HW226130   0.377   9.121   4.464 -0.5641  2.3410 -0.5634
 4971SOL     OW26131   3.432   8.999   1.751  0.0193  0.0871  0.2697
 4971SOL    HW126132   3.489   9.068   1.794  0.3789 -0.9142  1.4214
 4971SOL    HW226133   3.477   8.910   1.755 -0.7980 -0.3738 -0.4600
 4972SOL     OW26134   6.790   9.590   5.466  0.0247  0.5228 -0.2448
 4972SOL    HW126135   6.764   9.592   5.562 -0.3592  0.6881 -0.3481
 4972SOL    HW226136   6.764   9.501   5.427 -0.2882  0.6440 -0.3184
 4973SOL     OW26137   5.901   9.717   5.581 -0.5562 -0.0875 -0.0016
 4973SOL    HW126138   5.802   9.733   5.586 -0.2146  2.1625 -0.1034
 4973SOL    HW226139   5.926   9.693   5.487 -0.9969 -0.7064  0.0342
 4974SOL     OW26140   1.390   8.593   2.524  0.5114 -0.5866  0.0311
 4974SOL    HW126141   1.484   8.621   2.503  0.7610 -0.2548  1.5982
 4974SOL    HW226142   1.365   8.516   2.464  1.5741 -0.3053 -0.7898
 4975SOL     OW26143   9.052   4.590   2.785 -0.4930  0.1120 -0.4075
 4975SOL    HW126144   8.977   4.655   2.769 -0.3007  0.5405  0.4353
 4975SOL    HW226145   9.135   4.641   2.807 -0.3820 -0.4316  0.4259
 4976SOL     OW26146   2.081   8.563   4.308  0.2587 -0.2776 -0.1258
 4976SOL    HW126147   2.014   8.496   4.342  0.9950 -0.7643  0.3756
 4976SOL    HW226148   2.096   8.633   4.378  0.2319 -0.1412 -0.2585
 4977SOL     OW26149   4.676   0.938   6.385 -0.4489  0.4134 -0.4259
 4977SOL    HW126150   4.705   0.893   6.300  1.5368  1.9017 -0.5449
 4977SOL    HW226151   4.754   0.948   6.446 -1.9229 -0.9288  1.7635
 4978SOL     OW26152   2.405   2.822   3.339  0.3611 -0.0719  0.3364
 4978SOL    HW126153   2.369   2.746   3.392  1.4834 -1.2781 -0.5983
 4978SOL    HW226154   2.397   2.907   3.392  1.2756 -1.2055  2.3309
 4979SOL     OW26155   1.927   6.935   2.119  0.2288  0.5515  0.2265
 4979SOL    HW126156   1.943   7.022   2.165  3.0844 -0.1854  0.7163
 4979SOL    HW226157   2.014   6.889   2.103 -1.1753 -1.8871 -0.6881
 4980SOL     OW26158   2.195   9.057   1.362 -0.6259  0.1510  0.0227
 4980SOL    HW126159   2.275   9.063   1.422 -1.1849  1.3772  0.6647
 4980SOL    HW226160   2.119   9.106   1.403 -1.2137  0.4512 -1.3853
 4981SOL     OW26161   0.916   8.805   4.628  0.2113  0.6856 -0.3041
 4981SOL    HW126162   0.853   8.770   4.559  0.6740  0.0570 -0.4076
 4981SOL    HW226163   0.922   8.905   4.619 -1.1544  0.8170  0.0388
 4982SOL     OW26164   5.586   4.519   0.504 -0.0825 -0.0053 -0.0493
 4982SOL    HW126165   5.674   4.494   0.544  0.8429  1.1935 -1.2950
 4982SOL    HW226166   5.525   4.555   0.576  0.7655  0.0235  0.6570
 4983SOL     OW26167   5.637   8.013   5.222  0.3873  0.2775 -0.7357
 4983SOL    HW126168   5.615   8.100   5.266  1.4940  0.1295  0.1679
 4983SOL    HW226169   5.719   7.975   5.266  0.6158 -0.6194 -1.9362
 4984SOL     OW26170   3.816   9.517   4.608 -0.1404 -0.5107  0.1991
 4984SOL    HW126171   3.757   9.595   4.590  0.9514 -0.0718 -1.5658
 4984SOL    HW226172   3.771   9.433   4.578 -1.9403 -0.7800  3.4488
 4985SOL     OW26173   4.203   2.520   0.294 -0.1400 -0.0248 -0.1824
 4985SOL    HW126174   4.288   2.573   0.304 -1.3354  1.6712  1.5736
 4985SOL    HW226175   4.131   2.579   0.257 -0.4415 -1.5882 -2.1502
 4986SOL     OW26176   2.099   2.633   0.114  0.7108  0.4544  0.4069
 4986SOL    HW126177   2.005   2.624   0.082  0.6168  2.3661  0.0534
 4986SOL    HW226178   2.110   2.583   0.200 -1.2439  2.0032  1.6010
 4987SOL     OW26179   3.758   0.288   2.754  0.4234  0.9017 -0.3583
 4987SOL    HW126180   3.849   0.303   2.793  0.0346  2.0652  0.1013
 4987SOL    HW226181   3.767   0.232   2.672  1.6052  1.3916 -0.5784
 4988SOL     OW26182   0.409   6.134   3.878  0.2281  0.0353  0.2927
 4988SOL    HW126183   0.328   6.158   3.931 -1.4220 -1.2123 -1.6010
 4988SOL    HW226184   0.451   6.052   3.916  0.8461  0.9118  1.5194
 4989SOL     OW26185   0.261   2.146   5.614  0.0791 -0.1901 -0.1623
 4989SOL    HW126186   0.178   2.200   5.630 -0.0883 -0.7285  0.8304
 4989SOL    HW226187   0.341   2.200   5.639 -0.0026  0.1053 -0.5288
 4990SOL     OW26188   3.666   1.035   3.319 -0.3238  0.2656  0.1410
 4990SOL    HW126189   3.647   1.025   3.417 -0.9902  0.8606  0.0781
 4990SOL    HW226190   3.662   0.946   3.275 -0.5811  0.0686  0.5571
 4991SOL     OW26191   2.063   7.420   4.729  0.4089 -0.3939  0.3398
 4991SOL    HW126192   2.124   7.484   4.777  2.0460 -0.8700 -1.0583
 4991SOL    HW226193   2.056   7.447   4.633 -1.9667 -0.0921  0.5656
 4992SOL     OW26194   4.464   0.700   6.128  0.5938 -0.4144  0.1356
 4992SOL    HW126195   4.385   0.641   6.110 -0.1546  0.7413 -0.4115
 4992SOL    HW226196   4.534   0.648   6.178  0.0217 -1.8056 -0.4958
 4993SOL     OW26197   2.680   6.197   3.155 -0.0242  0.2570  0.0790
 4993SOL    HW126198   2.744   6.147   3.213 -0.5128  1.1826  1.4230
 4993SOL    HW226199   2.645   6.136   3.084  3.1689  0.0112 -1.3632
 4994SOL     OW26200   5.618   0.050   4.667 -0.1175 -0.3463  0.0761
 4994SOL    HW126201   5.610   0.116   4.592  0.6798 -0.9454 -0.5352
 4994SOL    HW226202   5.644   0.098   4.751  2.1734 -0.1129 -0.7545
 4995SOL     OW26203   8.298   3.014   2.242  0.3714 -0.0794  0.0188
 4995SOL    HW126204   8.347   3.095   2.209 -0.3325  0.8628  1.2422
 4995SOL    HW226205   8.364   2.942   2.262  1.2136  0.9309  0.9498
 4996SOL     OW26206   4.336   0.770   0.174  0.3876 -0.3088 -0.0410
 4996SOL    HW126207   4.325   0.748   0.077 -3.1085 -2.6272  0.7565
 4996SOL    HW226208   4.335   0.685   0.227  2.4349  0.9303  2.0453
 4997SOL     OW26209   2.411   4.116   3.267 -0.3164 -0.2200 -0.7114
 4997SOL    HW126210   2.435   4.028   3.226 -0.4127 -0.6667  0.1662
 4997SOL    HW226211   2.366   4.174   3.199 -1.9023 -1.5435 -0.7891
 4998SOL     OW26212   0.522   8.090   3.012  0.2777 -0.2034  0.2599
 4998SOL    HW126213   0.495   8.181   3.044 -0.5697 -0.2440 -0.3318
 4998SOL    HW226214   0.574   8.100   2.927 -0.9914 -0.3462 -0.5488
 4999SOL     OW26215   3.878   8.898   1.864 -0.5550 -0.2012  0.1697
 4999SOL    HW126216   3.953   8.920   1.926  2.1016 -2.6684 -2.0384
 4999SOL    HW226217   3.880   8.960   1.785  0.0891 -1.2475 -0.6339
 5000SOL     OW26218   7.194   9.613   3.799 -0.0630  0.1549 -0.1150
 5000SOL    HW126219   7.256   9.556   3.851  0.7302  0.6261 -0.5356
 5000SOL    HW226220   7.116   9.639   3.857  0.7951  0.6591  0.8235
 5001SOL     OW26221   6.180   0.170   4.461  0.1151  0.3394 -0.1211
 5001SOL    HW126222   6.209   0.177   4.365 -0.3978  0.5981 -0.2613
 5001SOL    HW226223   6.243   0.222   4.518 -1.0605  2.4329 -0.6369
 5002SOL     OW26224   9.876   3.586   4.236 -0.0772  0.3155 -0.3828
 5002SOL    HW126225   9.857   3.677   4.274 -0.6122 -0.0714  0.2840
 5002SOL    HW226226   9.826   3.517   4.288  2.5959 -0.6746  0.9863
 5003SOL     OW26227   0.026   3.216   5.210 -0.3270  0.1016  0.2209
 5003SOL    HW126228   0.042   3.156   5.288  1.3983  0.2488 -0.0156
 5003SOL    HW226229   0.001   3.307   5.243  0.0266  0.0639  0.6004
 5004SOL     OW26230   1.681   1.454   2.855 -0.0808  0.0088  0.0116
 5004SOL    HW126231   1.662   1.544   2.894 -0.4551  0.1745 -0.5439
 5004SOL    HW226232   1.680   1.385   2.927  0.0705  0.4332  0.4187
 5005SOL     OW26233   1.744   4.780   2.941  0.5539  0.1195 -0.6937
 5005SOL    HW126234   1.779   4.865   2.902  2.2460 -0.4528 -0.4878
 5005SOL    HW226235   1.816   4.710   2.938 -1.0217 -1.4924 -1.4572
 5006SOL     OW26236   1.711   8.596   1.163 -0.8306  0.1224  0.4113
 5006SOL    HW126237   1.679   8.504   1.142  0.7527 -0.2527 -0.4580
 5006SOL    HW226238   1.787   8.591   1.228  0.2530  0.7018 -0.7899
 5007SOL     OW26239   0.387   0.627   3.804  0.0674  0.2253 -0.5266
 5007SOL    HW126240   0.360   0.646   3.899  1.4600 -1.4907  0.2372
 5007SOL    HW226241   0.308   0.640   3.744 -0.7618  1.6066  0.8140
 5008SOL     OW26242   6.549   1.265   6.269 -0.7002  0.1407 -0.1034
 5008SOL    HW126243   6.642   1.300   6.283 -0.5828  0.2247 -1.0183
 5008SOL    HW226244   6.507   1.244   6.357 -0.2289  1.1829  0.3806
 5009SOL     OW26245   0.881   9.381   4.563  0.5220 -1.2966  0.1650
 5009SOL    HW126246   0.834   9.353   4.480  1.8274 -1.2903 -0.5995
 5009SOL    HW226247   0.939   9.460   4.543  2.0066 -2.2270  0.7244
 5010SOL     OW26248   3.040   8.184   5.299 -0.2289  0.6965 -0.0135
 5010SOL    HW126249   3.015   8.281   5.306 -1.5382  0.3118  0.8366
 5010SOL    HW226250   3.053   8.146   5.390 -1.8733 -0.4624 -0.2470
 5011SOL     OW26251   7.623   8.457   2.702  0.1426  0.3965 -0.0930
 5011SOL    HW126252   7.665   8.419   2.785 -1.5228  0.0010  0.5846
 5011SOL    HW226253   7.548   8.398   2.673 -1.0458  2.0117 -0.3172
 5012SOL     OW26254   6.343   8.375   5.818  0.0653 -0.2697 -0.2744
 5012SOL    HW126255   6.332   8.320   5.900 -0.7030 -1.9570 -1.4617
 5012SOL    HW226256   6.413   8.333   5.759 -1.2375 -0.5916 -1.6472
 5013SOL     OW26257   3.457   4.913   1.248 -0.7043  0.7090 -0.5479
 5013SOL    HW126258   3.457   4.917   1.148 -0.6109  2.0995 -0.5008
 5013SOL    HW226259   3.418   4.826   1.278 -0.5748  0.2090 -1.7930
 5014SOL     OW26260   9.585   2.666   3.804 -0.6130 -0.1185  0.0628
 5014SOL    HW126261   9.519   2.642   3.733 -0.0732 -0.9667 -0.1575
 5014SOL    HW226262   9.569   2.611   3.886 -0.3091 -0.1748  0.0850
 5015SOL     OW26263   9.857   9.683   6.311  0.4094  0.5840  0.1426
 5015SOL    HW126264   9.913   9.735   6.247 -2.5285  2.1917 -1.2259
 5015SOL    HW226265   9.803   9.615   6.261 -0.2110  0.2892  1.1753
 5016SOL     OW26266   1.578   2.279   5.118  0.9013  0.1076 -0.2370
 5016SOL    HW126267   1.647   2.341   5.080  0.6592  1.3525  1.3081
 5016SOL    HW226268   1.533   2.323   5.196 -2.3031 -0.2992 -1.7679
 5017SOL     OW26269   6.956   1.608   6.405  1.0939 -0.6850  0.0641
 5017SOL    HW126270   7.002   1.659   6.332  0.2959 -0.5991 -0.3767
 5017SOL    HW226271   7.023   1.583   6.475  1.3955  1.4781  0.5831
 5018SOL     OW26272   5.522   5.448   1.737  0.0564  0.2128  0.7140
 5018SOL    HW126273   5.496   5.535   1.695  0.3876  0.1317  0.3289
 5018SOL    HW226274   5.621   5.447   1.750  0.0371 -0.0584  0.8298
 5019SOL     OW26275   4.202   8.198   5.355  0.1783  0.4033 -0.3374
 5019SOL    HW126276   4.106   8.176   5.365  1.0781 -4.2124 -0.8991
 5019SOL    HW226277   4.229   8.191   5.258  1.1336  1.5515 -0.1798
 5020SOL     OW26278   1.349   0.789   5.046 -0.2068 -0.1067 -0.0598
 5020SOL    HW126279   1.413   0.724   5.006  1.7813  2.3247 -0.9662
 5020SOL    HW226280   1.375   0.808   5.141  0.4519  0.8936 -0.4323
 5021SOL     OW26281   0.605   7.215   5.094 -0.1874  0.6698  0.1758
 5021SOL    HW126282   0.601   7.240   4.997  2.6980  1.8216  0.2851
 5021SOL    HW226283   0.588   7.295   5.150 -1.1444  0.1584  0.6205
 5022SOL     OW26284   4.181   3.025   1.692 -0.9581  0.6811  0.2838
 5022SOL    HW126285   4.102   2.994   1.639  1.2919 -3.7238 -0.8087
 5022SOL    HW226286   4.191   2.967   1.773  1.2721  0.9386  0.2178
 5023SOL     OW26287   0.452   9.287   5.321  0.1148 -0.1196  0.1754
 5023SOL    HW126288   0.399   9.311   5.403 -0.0577 -1.3903  0.4507
 5023SOL    HW226289   0.408   9.211   5.274  0.3334  0.4601 -0.9976
 5024SOL     OW26290   0.441   7.039   5.528 -0.0264 -0.2067 -0.2373
 5024SOL    HW126291   0.435   6.939   5.534  0.9749 -0.2386  0.3332
 5024SOL    HW226292   0.509   7.073   5.593 -0.1824  0.8265 -0.5981
 5025SOL     OW26293   0.795   5.524   5.846  0.1041 -0.3271  0.0169
 5025SOL    HW126294   0.707   5.516   5.799 -0.2288  2.1741  0.1478
 5025SOL    HW226295   0.802   5.453   5.916 -1.8127 -0.5825 -0.0205
 5026SOL     OW26296   0.657   1.816   2.020 -0.8819  0.1858 -0.2934
 5026SOL    HW126297   0.591   1.760   2.071 -0.1151 -0.0220  0.4782
 5026SOL    HW226298   0.643   1.803   1.922 -2.2181  0.4062 -0.1482
 5027SOL     OW26299   0.545   6.820   4.579 -0.5763 -0.1786  0.2735
 5027SOL    HW126300   0.575   6.894   4.640 -3.0485  1.0138  0.1299
 5027SOL    HW226301   0.463   6.778   4.618 -1.3569 -0.3476 -1.5371
 5028SOL     OW26302   8.166   0.206   0.813  0.4909  0.2263  0.0388
 5028SOL    HW126303   8.260   0.171   0.822  1.0806  1.3349 -1.6445
 5028SOL    HW226304   8.102   0.129   0.812  1.5268 -0.6457 -0.5804
 5029SOL     OW26305   9.947   8.021   1.925  0.5639 -0.2592  0.3099
 5029SOL    HW126306   9.897   8.039   1.840  0.2980 -1.1085  0.2816
 5029SOL    HW226307   9.946   7.923   1.944  1.0875 -0.1327  1.0123
 5030SOL     OW26308   2.644   7.419   4.683  0.0909 -0.1784  0.0084
 5030SOL    HW126309   2.738   7.423   4.647 -0.0620 -1.0935 -0.5079
 5030SOL    HW226310   2.581   7.457   4.616 -0.0718 -0.8995 -0.2517
 5031SOL     OW26311   9.825   5.089   4.845  0.3358  0.9521 -0.2737
 5031SOL    HW126312   9.885   5.101   4.766  0.1273  0.1775 -0.5536
 5031SOL    HW226313   9.736   5.129   4.826 -0.2496 -0.7054 -1.0735
 5032SOL     OW26314   9.453   3.725   1.217 -0.0052  0.6865 -0.5597
 5032SOL    HW126315   9.551   3.728   1.235 -0.0753  1.0292 -0.2267
 5032SOL    HW226316   9.417   3.818   1.210 -0.3005  0.5626 -0.7199
 5033SOL     OW26317   2.069   5.702   2.831 -0.3448  0.3521 -0.6763
 5033SOL    HW126318   2.095   5.607   2.811  0.8084  0.1868  1.3759
 5033SOL    HW226319   2.041   5.748   2.747 -0.1694 -1.5856 -1.8239
 5034SOL     OW26320   4.188   2.980   5.044 -0.6193  0.1426  0.5615
 5034SOL    HW126321   4.285   2.971   5.024 -0.8472  0.7288 -0.8782
 5034SOL    HW226322   4.135   2.972   4.959 -1.5628  3.5092  0.7291
 5035SOL     OW26323   1.042   9.736   2.543  0.3347  0.7094  0.2755
 5035SOL    HW126324   0.984   9.812   2.571  0.2301  0.2178  1.4041
 5035SOL    HW226325   1.051   9.735   2.443 -0.5938  1.5121  0.1868
 5036SOL     OW26326   7.724   2.627   4.517  0.1010 -0.1354  0.0455
 5036SOL    HW126327   7.738   2.579   4.604  1.0962 -0.2672 -0.1809
 5036SOL    HW226328   7.645   2.687   4.525 -2.0693 -2.8427 -0.1001
 5037SOL     OW26329   2.688   5.395   0.404  0.4930 -0.4289 -0.3717
 5037SOL    HW126330   2.658   5.310   0.360 -0.5090  0.2503 -1.0300
 5037SOL    HW226331   2.626   5.417   0.479  1.7877 -1.2046  0.9505
 5038SOL     OW26332   3.539   0.661   6.016 -0.4734 -0.2012 -0.4362
 5038SOL    HW126333   3.452   0.633   6.057  0.0922  1.6878  2.1728
 5038SOL    HW226334   3.536   0.759   5.994  0.8732 -0.1948 -0.6314
 5039SOL     OW26335   2.295   8.058   3.256 -0.3224 -0.4027  0.1935
 5039SOL    HW126336   2.197   8.077   3.257 -0.1338  0.6000 -0.3654
 5039SOL    HW226337   2.339   8.106   3.331 -0.2521 -0.8352  0.4299
 5040SOL     OW26338   6.188   0.707   6.025 -0.3110  0.8137  0.2973
 5040SOL    HW126339   6.215   0.750   6.112 -1.8500  3.4010 -0.4593
 5040SOL    HW226340   6.203   0.772   5.950 -1.5605 -0.4260 -1.0382
 5041SOL     OW26341   8.742   3.409   2.173 -0.1382 -0.0068 -0.2420
 5041SOL    HW126342   8.684   3.448   2.244 -1.2431 -1.1208 -0.5128
 5041SOL    HW226343   8.838   3.418   2.200 -0.4105  1.8539  0.2048
 5042SOL     OW26344   4.347   1.178   1.867  0.1373 -0.0436 -0.5141
 5042SOL    HW126345   4.358   1.241   1.944  0.0133  0.3904 -0.8521
 5042SOL    HW226346   4.252   1.144   1.866  0.4995 -1.1082  0.3354
 5043SOL     OW26347   8.850   8.022   6.332  0.0223 -0.3330 -0.4616
 5043SOL    HW126348   8.773   8.022   6.268 -0.7894  2.4204  0.4404
 5043SOL    HW226349   8.816   8.003   6.424  0.5583 -0.1772 -0.2315
 5044SOL     OW26350   3.076   7.706   6.327 -0.2578 -0.0419  0.5808
 5044SOL    HW126351   3.001   7.642   6.342 -0.3809 -0.2075 -0.7399
 5044SOL    HW226352   3.159   7.670   6.371  0.0824 -1.9120 -1.5233
 5045SOL     OW26353   0.880   8.417   6.466  0.2899 -0.6137 -0.8875
 5045SOL    HW126354   0.886   8.347   6.538 -0.2126 -0.5313 -0.7641
 5045SOL    HW226355   0.892   8.374   6.377 -1.1271 -1.0391 -0.8897
 5046SOL     OW26356   8.951   5.171   5.271  0.8052 -0.0009  0.5010
 5046SOL    HW126357   9.024   5.129   5.326  0.8028 -0.4904  0.1315
 5046SOL    HW226358   8.863   5.133   5.299  0.7815 -0.0727  0.3243
 5047SOL     OW26359   8.616   9.056   6.460  0.2157 -0.1769  0.0071
 5047SOL    HW126360   8.537   9.045   6.520 -1.1429  1.1178 -1.4925
 5047SOL    HW226361   8.615   8.985   6.390  0.5484 -0.3193  0.1443
 5048SOL     OW26362   9.455   8.883   3.720  0.1726  0.2851  0.1785
 5048SOL    HW126363   9.542   8.882   3.671  0.3876 -1.0175  0.5911
 5048SOL    HW226364   9.382   8.849   3.660 -0.0734  1.3592 -0.1617
 5049SOL     OW26365   2.627   3.700   0.405  0.4105  0.4619  0.3916
 5049SOL    HW126366   2.664   3.626   0.349  0.3737  0.6672  0.0928
 5049SOL    HW226367   2.638   3.787   0.357  0.5217  0.6605  0.7746
 5050SOL     OW26368   6.015   0.720   2.644 -0.1161 -0.2026 -0.4637
 5050SOL    HW126369   5.982   0.798   2.591  0.1798  0.4255  0.2690
 5050SOL    HW226370   6.115   0.715   2.639  0.0811  1.0246  1.6064
 5051SOL     OW26371   9.716   1.078   4.355 -0.1071  0.1239  0.2160
 5051SOL    HW126372   9.785   1.136   4.312  2.1466 -1.2457  1.9089
 5051SOL    HW226373   9.698   0.998   4.298  0.7498 -0.2345  0.4532
 5052SOL     OW26374   8.287   1.065   2.852 -0.0362 -0.0107 -0.3899
 5052SOL    HW126375   8.190   1.042   2.851 -0.2055  0.7120 -1.6688
 5052SOL    HW226376   8.321   1.060   2.945 -1.3531 -0.0723  0.1015
 5053SOL     OW26377   1.624   8.125   4.603  0.1615 -0.3796 -0.0022
 5053SOL    HW126378   1.627   8.136   4.503 -2.4901 -0.0122 -0.0692
 5053SOL    HW226379   1.550   8.181   4.640  0.6899 -1.0611  2.1151
 5054SOL     OW26380   8.882   7.954   5.530  0.0880  0.2301  0.6996
 5054SOL    HW126381   8.880   7.976   5.627 -0.4383  1.6994  0.3752
 5054SOL    HW226382   8.790   7.957   5.492  0.0971 -1.8756  0.4661
 5055SOL     OW26383   1.428   9.463   2.710  0.8378  0.1398  0.1375
 5055SOL    HW126384   1.437   9.401   2.788 -2.2907 -1.3726 -0.6091
 5055SOL    HW226385   1.442   9.557   2.741  0.4562 -0.5090  2.3766
 5056SOL     OW26386   0.706   6.193   3.187 -0.2892 -0.0022  0.0039
 5056SOL    HW126387   0.778   6.197   3.256 -1.2347 -0.1069  1.0206
 5056SOL    HW226388   0.617   6.194   3.233 -0.9346  0.4947 -1.2479
 5057SOL     OW26389   0.479   1.993   5.336  0.9351 -0.2629  0.7180
 5057SOL    HW126390   0.391   1.963   5.373  2.0684 -2.1305  1.9998
 5057SOL    HW226391   0.504   2.081   5.375  0.0398 -0.1309  1.0048
 5058SOL     OW26392   0.974   9.145   0.721  0.1226 -0.0616  0.0854
 5058SOL    HW126393   1.036   9.068   0.736  1.1841  1.2581  2.7588
 5058SOL    HW226394   0.947   9.184   0.809 -0.7720  2.3508 -1.2132
 5059SOL     OW26395   2.595   0.872   0.020  0.1636  0.2716  0.2614
 5059SOL    HW126396   2.569   0.776   0.026 -1.1462  0.4615 -1.8758
 5059SOL    HW226397   2.631   0.902   0.109 -1.5537 -1.5511  1.6245
 5060SOL     OW26398   8.585   1.174   5.592 -0.5213  0.8823 -0.3129
 5060SOL    HW126399   8.554   1.145   5.682  2.6684 -0.7203  0.3219
 5060SOL    HW226400   8.592   1.274   5.590 -1.4947  0.9860  0.8907
 5061SOL     OW26401   6.749   4.292   0.835 -0.1255 -0.4417 -0.2456
 5061SOL    HW126402   6.837   4.338   0.823  0.2061 -0.5760  1.4899
 5061SOL    HW226403   6.710   4.318   0.924 -0.9315 -1.8643 -0.1705
 5062SOL     OW26404   9.552   0.762   5.146  0.2095 -0.4986 -0.2903
 5062SOL    HW126405   9.472   0.789   5.200  1.0286 -0.2347  0.8097
 5062SOL    HW226406   9.557   0.663   5.142 -0.1324 -0.5176 -0.3054
 5063SOL     OW26407   0.254   4.144   5.746  0.1721  0.3279  0.0019
 5063SOL    HW126408   0.296   4.182   5.664  1.2236  0.2405  0.4836
 5063SOL    HW226409   0.240   4.046   5.734 -0.3819  0.4562 -0.3666
 5064SOL     OW26410   4.487   0.508   3.694 -0.3694 -0.4099  0.5107
 5064SOL    HW126411   4.505   0.596   3.652 -1.3468 -0.7106 -0.5289
 5064SOL    HW226412   4.391   0.501   3.720 -0.3934 -1.3350  0.2012
 5065SOL     OW26413   3.383   1.734   2.414 -0.1454 -0.5326 -0.4272
 5065SOL    HW126414   3.449   1.804   2.442 -0.3962 -0.2739 -0.4741
 5065SOL    HW226415   3.315   1.723   2.486  0.2292 -1.1543 -0.1662
 5066SOL     OW26416   2.131   3.872   4.214 -0.2723 -0.1211 -0.3122
 5066SOL    HW126417   2.138   3.893   4.311  1.3515 -2.4442  0.1067
 5066SOL    HW226418   2.037   3.887   4.183 -0.4984  1.9604  1.2653
 5067SOL     OW26419   0.812   1.245   3.320 -0.0889 -0.3740  0.3537
 5067SOL    HW126420   0.839   1.158   3.279 -1.3011 -0.8693  0.5971
 5067SOL    HW226421   0.803   1.234   3.419  0.1554  0.1395  0.4366
 5068SOL     OW26422   4.534   9.319   1.354 -0.2711  0.6671 -0.2685
 5068SOL    HW126423   4.435   9.329   1.352 -0.3966 -0.0849  1.3234
 5068SOL    HW226424   4.558   9.223   1.340  0.2573  0.9085 -1.0551
 5069SOL     OW26425   8.459   2.571   4.701 -0.1329  0.1958  0.1645
 5069SOL    HW126426   8.542   2.521   4.725  0.1372  1.0481  0.9958
 5069SOL    HW226427   8.436   2.553   4.605 -0.3325 -1.9341  0.5910
 5070SOL     OW26428   3.072   8.204   0.388  0.0799  0.3664 -0.4690
 5070SOL    HW126429   3.112   8.159   0.308 -0.6207 -0.4588 -0.3511
 5070SOL    HW226430   3.145   8.252   0.438  0.6719  0.1421 -1.1053
 5071SOL     OW26431   2.115   8.928   4.202  0.0729 -0.2163 -0.3641
 5071SOL    HW126432   2.183   8.903   4.271  0.5777 -0.4725 -0.9432
 5071SOL    HW226433   2.044   8.985   4.244  0.8973  0.4546  0.1382
 5072SOL     OW26434   4.263   8.297   0.093  0.2732  0.4741 -0.3294
 5072SOL    HW126435   4.247   8.226   0.161 -2.2218  0.0089 -1.3312
 5072SOL    HW226436   4.281   8.384   0.139  1.7339 -0.4682  0.9054
 5073SOL     OW26437   8.419   6.264   1.856 -0.5679 -0.3042  0.2423
 5073SOL    HW126438   8.434   6.220   1.767 -0.5652 -0.0657  0.1249
 5073SOL    HW226439   8.323   6.251   1.883 -0.4893 -0.6568  0.3567
 5074SOL     OW26440   2.700   7.053   5.391 -0.1628  0.0435  0.6310
 5074SOL    HW126441   2.699   6.956   5.367 -0.2187 -0.0291  0.9153
 5074SOL    HW226442   2.791   7.091   5.375 -0.3312  0.1144 -0.1387
 5075SOL     OW26443   2.788   9.766   1.746  0.5273  0.7055  0.2220
 5075SOL    HW126444   2.696   9.733   1.768  0.9155 -0.8616 -0.4221
 5075SOL    HW226445   2.819   9.828   1.818 -0.4761  0.1454  1.1594
 5076SOL     OW26446   0.569   1.797   5.540 -0.3640  0.7877  0.1625
 5076SOL    HW126447   0.606   1.887   5.517 -0.1259  0.6852  0.1356
 5076SOL    HW226448   0.477   1.787   5.502 -0.6755  1.2889  0.7767
 5077SOL     OW26449   9.028   4.897   1.829 -0.2961 -0.0711 -0.8782
 5077SOL    HW126450   9.125   4.888   1.850 -0.7519  0.3309  1.5004
 5077SOL    HW226451   9.014   4.979   1.773  0.5697  0.6355 -0.0782
 5078SOL     OW26452   4.515   7.890   6.091 -0.6905 -0.7889 -0.4575
 5078SOL    HW126453   4.450   7.928   6.025 -2.1690 -1.4811  0.5792
 5078SOL    HW226454   4.500   7.933   6.181 -0.0392 -1.3136 -0.0914
 5079SOL     OW26455   3.482   1.545   3.306  0.1763 -0.2490  0.0053
 5079SOL    HW126456   3.472   1.589   3.395 -3.0454  0.3924 -0.6183
 5079SOL    HW226457   3.517   1.452   3.319 -0.0471 -0.0878  1.9419
 5080SOL     OW26458   9.182   6.549   0.572 -0.3387 -0.8339  0.1083
 5080SOL    HW126459   9.112   6.504   0.517  0.5047 -1.3648 -0.5268
 5080SOL    HW226460   9.223   6.483   0.635 -0.0508 -0.6450  0.1227
 5081SOL     OW26461   4.444   9.907   0.176 -0.1635  0.3568 -0.2532
 5081SOL    HW126462   4.400   9.862   0.254 -2.3725  2.4426 -0.2412
 5081SOL    HW226463   4.438   9.848   0.096 -1.5382 -0.0794  0.1641
 5082SOL     OW26464   0.010   0.270   2.357  0.5494  0.6067  0.2483
 5082SOL    HW126465  -0.058   0.197   2.341  1.5142 -0.7657  2.2001
 5082SOL    HW226466   0.090   0.254   2.299  1.3476 -0.6945  1.6923
 5083SOL     OW26467   1.929   7.287   1.765 -0.5262  0.6816 -0.3139
 5083SOL    HW126468   2.005   7.273   1.702  0.0265  1.4510  0.1767
 5083SOL    HW226469   1.885   7.199   1.785  1.4892 -0.0624  0.9851
 5084SOL     OW26470   3.335   5.429   5.104 -0.3311 -0.2994 -0.2116
 5084SOL    HW126471   3.429   5.458   5.122 -0.5957  1.9527 -2.1609
 5084SOL    HW226472   3.276   5.455   5.180  0.4512 -0.9003  0.6077
 5085SOL     OW26473   8.763   4.839   1.903  0.7030 -0.0986  0.1823
 5085SOL    HW126474   8.720   4.751   1.925  0.0787  0.3231  0.6268
 5085SOL    HW226475   8.863   4.828   1.908  0.6323 -0.8066  0.1550
 5086SOL     OW26476   1.427   9.393   0.046 -0.4172 -0.4261  0.5457
 5086SOL    HW126477   1.381   9.463  -0.008 -0.5220 -1.0329 -0.1648
 5086SOL    HW226478   1.453   9.431   0.135 -2.2509 -0.0698  0.9381
 5087SOL     OW26479   7.395   7.015   5.633  0.1847 -0.2993  0.3863
 5087SOL    HW126480   7.415   7.076   5.710  0.9970 -1.1593  0.8849
 5087SOL    HW226481   7.439   7.050   5.550 -1.3551  1.0488  0.1374
 5088SOL     OW26482   9.224   4.982   3.442 -0.1931  0.2486 -0.2286
 5088SOL    HW126483   9.239   4.985   3.541  0.1866  0.2909 -0.2855
 5088SOL    HW226484   9.298   5.032   3.396  0.8487 -1.6445 -0.6542
 5089SOL     OW26485   1.667   6.647   6.522  1.2640 -0.3519  0.1889
 5089SOL    HW126486   1.607   6.651   6.602  1.7436 -0.4379  0.5564
 5089SOL    HW226487   1.612   6.645   6.438  0.7784  2.4084  0.4062
 5090SOL     OW26488   4.696   0.073   0.112 -0.6349 -0.1048 -0.2872
 5090SOL    HW126489   4.657  -0.017   0.091  0.6914 -0.2809 -2.1256
 5090SOL    HW226490   4.772   0.091   0.050  0.7731  1.1925  1.7514
 5091SOL     OW26491   8.964   3.186   5.946  0.2619 -0.1336  0.1319
 5091SOL    HW126492   8.953   3.157   5.851  2.3135 -0.4280 -0.0403
 5091SOL    HW226493   8.987   3.107   6.002 -0.7325  0.0763  0.8458
 5092SOL     OW26494   8.115   6.857   3.189 -0.2551 -0.3678  0.2208
 5092SOL    HW126495   8.128   6.817   3.280 -0.5853 -0.6688  0.1368
 5092SOL    HW226496   8.199   6.845   3.135  0.2390  0.5686  0.7751
 5093SOL     OW26497   4.690   1.720   5.604  0.1370 -0.1590 -0.3595
 5093SOL    HW126498   4.616   1.758   5.659 -0.9232 -1.6911 -0.6852
 5093SOL    HW226499   4.685   1.755   5.511  0.2102  0.2414 -0.2116
 5094SOL     OW26500   2.767   4.182   4.601  0.2670  0.9569 -0.0157
 5094SOL    HW126501   2.698   4.131   4.551  0.5771  0.9241 -0.4176
 5094SOL    HW226502   2.816   4.121   4.663  0.7042  0.7439 -0.5675
 5095SOL     OW26503   8.676   9.378   2.649  0.1049  0.6133  0.1715
 5095SOL    HW126504   8.744   9.305   2.642 -0.2441  0.3695 -0.8345
 5095SOL    HW226505   8.587   9.343   2.621 -0.1012  1.3717 -0.1460
 5096SOL     OW26506   8.735   7.126   2.472 -0.0112 -0.1598  0.1141
 5096SOL    HW126507   8.803   7.053   2.464 -1.3681 -1.5126  0.6619
 5096SOL    HW226508   8.756   7.198   2.406 -0.0756 -2.1893 -2.2114
 5097SOL     OW26509   4.366   8.205   3.061 -0.0134 -0.4185 -0.4226
 5097SOL    HW126510   4.270   8.209   3.035  0.1389 -1.8203 -1.2850
 5097SOL    HW226511   4.423   8.223   2.980  0.4545  0.8334  0.1745
 5098SOL     OW26512   9.026   0.381   4.166 -0.1394 -0.3711 -0.1224
 5098SOL    HW126513   8.958   0.340   4.105  0.5289  0.6047 -1.5346
 5098SOL    HW226514   9.040   0.477   4.141  1.2709 -0.3830  0.5862
 5099SOL     OW26515   2.185   8.063   4.277 -0.0957  0.1087  0.0590
 5099SOL    HW126516   2.092   8.044   4.308  1.0256 -2.3784  2.1372
 5099SOL    HW226517   2.242   8.086   4.356  1.6575 -1.1885 -0.8003
 5100SOL     OW26518   3.960   3.719   1.167 -0.5653  0.0211  0.0575
 5100SOL    HW126519   4.001   3.791   1.221 -1.7419  0.2550  0.6566
 5100SOL    HW226520   3.900   3.663   1.225  0.2462 -1.3754 -0.4121
 5101SOL     OW26521   3.395   3.356   5.442  0.6680 -0.8073 -0.0412
 5101SOL    HW126522   3.405   3.256   5.436 -0.7090 -0.9873  0.4374
 5101SOL    HW226523   3.443   3.389   5.523  0.9891 -1.1006 -0.1081
 5102SOL     OW26524   2.043   0.782   4.817 -0.0966 -0.1148 -0.1327
 5102SOL    HW126525   1.985   0.746   4.890 -0.7000  1.0560 -0.0139
 5102SOL    HW226526   2.136   0.792   4.850 -0.2605 -0.0716  0.3197
 5103SOL     OW26527   5.664   8.611   4.481  0.2401 -0.1048 -0.5645
 5103SOL    HW126528   5.757   8.633   4.451  0.1580  1.4480  0.2899
 5103SOL    HW226529   5.646   8.656   4.568 -2.0223  1.2632 -1.7008
 5104SOL     OW26530   2.010   1.856   6.372  0.1940  0.5463 -0.2355
 5104SOL    HW126531   1.997   1.759   6.392 -0.2960  0.5833 -0.3528
 5104SOL    HW226532   1.983   1.875   6.278  1.6094  0.5464 -0.6433
 5105SOL     OW26533   8.282   7.467   3.996 -0.2901  0.6070 -0.0755
 5105SOL    HW126534   8.345   7.544   3.998  0.2916  0.2284 -2.6124
 5105SOL    HW226535   8.218   7.479   3.920 -0.5811 -1.1147 -0.1105
 5106SOL     OW26536   0.259   0.369   5.701  0.0231  0.6640  0.4112
 5106SOL    HW126537   0.167   0.357   5.665  0.9528 -0.5935 -1.6602
 5106SOL    HW226538   0.267   0.459   5.744 -1.2849  2.0952 -2.2229
 5107SOL     OW26539   0.013   5.940   6.589 -0.2371  0.6954  0.1115
 5107SOL    HW126540   0.035   5.915   6.495 -0.2443 -1.5186  0.6811
 5107SOL    HW226541   0.095   5.977   6.633  0.4659 -0.7163  0.0187
 5108SOL     OW26542   8.360   2.743   0.186  0.2035 -0.2667 -0.3239
 5108SOL    HW126543   8.274   2.699   0.212  1.0157 -0.6359  1.8088
 5108SOL    HW226544   8.434   2.676   0.190  0.9537  0.5737  0.0266
 5109SOL     OW26545   0.326   8.604   2.570  0.5056 -0.2697  0.6057
 5109SOL    HW126546   0.421   8.585   2.544  0.4942  0.6890 -0.1420
 5109SOL    HW226547   0.265   8.543   2.520  0.5940  0.5109 -0.4642
 5110SOL     OW26548   7.289   3.068   3.497  0.4123 -0.8736 -0.1929
 5110SOL    HW126549   7.189   3.056   3.499  0.5556 -1.9184  1.4602
 5110SOL    HW226550   7.330   2.996   3.442  0.1776  0.3600 -2.0510
 5111SOL     OW26551   9.251   1.512   6.081  0.0436 -0.3810  0.2904
 5111SOL    HW126552   9.152   1.520   6.067 -0.0949 -0.6467  1.0982
 5111SOL    HW226553   9.282   1.422   6.052  0.1329 -0.1421 -0.3868
 5112SOL     OW26554   9.760   5.976   6.081 -0.1048 -0.3492  0.2763
 5112SOL    HW126555   9.843   5.947   6.031 -0.0686  1.0405 -0.4815
 5112SOL    HW226556   9.780   6.057   6.135 -0.7675 -0.4791  0.7192
 5113SOL     OW26557   2.239   6.057   4.635  0.1086 -0.0033  0.0953
 5113SOL    HW126558   2.316   6.102   4.681  1.5337 -1.2957 -0.9565
 5113SOL    HW226559   2.154   6.083   4.680  1.0308  2.4038  0.5524
 5114SOL     OW26560   7.589   0.383   4.800  0.2769 -0.0602  0.3078
 5114SOL    HW126561   7.635   0.322   4.736  0.6676  0.0122  0.5139
 5114SOL    HW226562   7.491   0.368   4.797  0.4585 -1.6365  1.3193
 5115SOL     OW26563   4.734   9.000   6.499 -0.4453 -0.0609  1.0118
 5115SOL    HW126564   4.784   8.921   6.463  3.1059  1.9756  1.2400
 5115SOL    HW226565   4.707   8.981   6.594  0.6048 -0.9309  1.1530
 5116SOL     OW26566   5.348   2.255   1.408 -0.3976  0.3743  0.1155
 5116SOL    HW126567   5.375   2.314   1.333  1.6009 -1.0967 -0.3648
 5116SOL    HW226568   5.258   2.284   1.443 -0.2928  2.5045 -1.2795
 5117SOL     OW26569   3.278   4.273   5.779  0.1633 -0.1427 -0.3207
 5117SOL    HW126570   3.361   4.246   5.730 -0.9029  0.7502 -2.6582
 5117SOL    HW226571   3.261   4.371   5.763 -1.8191 -0.5170 -0.5730
 5118SOL     OW26572   4.839   0.843   5.717 -0.1197 -0.5132  0.3361
 5118SOL    HW126573   4.888   0.898   5.650 -0.1199  1.0290  1.5741
 5118SOL    HW226574   4.785   0.773   5.670 -1.4828  1.6173 -1.3742
 5119SOL     OW26575   2.254   1.188   6.303  0.2875 -0.3799 -0.3043
 5119SOL    HW126576   2.259   1.209   6.205  1.7859  2.6758  0.3431
 5119SOL    HW226577   2.345   1.200   6.343 -0.2810 -1.8055  1.4324
 5120SOL     OW26578   3.230   4.751   2.789 -0.1673 -0.4127 -0.4092
 5120SOL    HW126579   3.215   4.783   2.882  0.6700  0.3480 -0.5254
 5120SOL    HW226580   3.328   4.739   2.773 -0.3606 -1.3487 -0.9264
 5121SOL     OW26581   5.084   1.157   5.684 -0.4851  0.1898 -0.3180
 5121SOL    HW126582   5.172   1.132   5.643 -1.0631 -1.0790 -0.8189
 5121SOL    HW226583   5.057   1.248   5.653  0.7155  0.6495 -0.0413
 5122SOL     OW26584   0.063   3.536   6.104 -0.0722 -0.0821 -0.2656
 5122SOL    HW126585  -0.033   3.529   6.131  0.0519 -0.0500  0.1976
 5122SOL    HW226586   0.108   3.606   6.159  0.9565 -2.2100  1.7083
 5123SOL     OW26587   9.829   7.983   5.499 -0.1580 -0.0704 -0.0405
 5123SOL    HW126588   9.880   7.941   5.423  1.5265  3.1170 -0.7363
 5123SOL    HW226589   9.731   7.970   5.484  0.1444  0.5052 -2.7757
 5124SOL     OW26590   4.337   3.495   0.492  0.9531  0.5992  0.2760
 5124SOL    HW126591   4.376   3.469   0.404  0.7566  2.4593 -0.3768
 5124SOL    HW226592   4.362   3.590   0.513 -1.9580  1.3538  0.5473
 5125SOL     OW26593   2.175   3.264   5.777  0.3976 -0.1258 -0.0449
 5125SOL    HW126594   2.214   3.179   5.739  0.9183 -0.1529  0.5485
 5125SOL    HW226595   2.115   3.241   5.854 -1.1439 -0.1188 -1.2096
 5126SOL     OW26596   9.877   2.433   3.509  0.0811  0.2687  0.7233
 5126SOL    HW126597   9.823   2.513   3.482 -0.7740 -0.6390 -0.3117
 5126SOL    HW226598   9.945   2.461   3.577  0.2342  2.0025 -0.1038
 5127SOL     OW26599   3.596   6.237   5.831 -0.3832  0.0247 -0.0841
 5127SOL    HW126600   3.563   6.153   5.789 -2.3143  0.7117  0.0049
 5127SOL    HW226601   3.527   6.273   5.893  1.6780  0.0319  2.2743
 5128SOL     OW26602   8.196   7.871   3.935  0.1804  0.1977  0.5908
 5128SOL    HW126603   8.148   7.796   3.891  0.3781  0.1545  0.4499
 5128SOL    HW226604   8.278   7.894   3.882  0.9664 -0.5258  1.4939
 5129SOL     OW26605   7.074   9.549   5.740 -0.4709 -0.0310  0.5000
 5129SOL    HW126606   7.124   9.618   5.688 -1.2133  0.3743  0.3185
 5129SOL    HW226607   7.072   9.463   5.689 -0.3591  0.0826  0.3058
 5130SOL     OW26608   8.873   8.277   0.020  0.1772  0.0481  0.3569
 5130SOL    HW126609   8.963   8.282   0.063 -0.5071 -0.4723  1.8605
 5130SOL    HW226610   8.870   8.198  -0.041  0.1835 -0.9352  1.6113
 5131SOL     OW26611   0.566   8.255   2.334 -0.2986 -0.4325 -0.4196
 5131SOL    HW126612   0.649   8.311   2.334  0.0412 -0.9143  1.8409
 5131SOL    HW226613   0.548   8.224   2.240  0.7107  1.6506 -1.3283
 5132SOL     OW26614   8.503   2.491   2.547 -0.6759  0.0936  0.1919
 5132SOL    HW126615   8.449   2.475   2.465  2.4697 -1.3902 -1.6931
 5132SOL    HW226616   8.524   2.404   2.591 -0.8341  0.7378  1.5754
 5133SOL     OW26617   1.464   4.163   3.231  0.0969  0.8256  0.3834
 5133SOL    HW126618   1.446   4.188   3.136 -0.4787  0.0881  0.2882
 5133SOL    HW226619   1.534   4.092   3.234 -1.1639 -0.4439  0.3820
 5134SOL     OW26620   1.624   9.853   3.924  0.2680  0.1890 -0.0055
 5134SOL    HW126621   1.547   9.802   3.963 -3.3046  2.0594 -4.2422
 5134SOL    HW226622   1.695   9.789   3.895 -1.5647 -1.9120  0.0081
 5135SOL     OW26623   3.817   0.695   0.127 -0.0157 -0.7109  0.2950
 5135SOL    HW126624   3.801   0.603   0.165 -1.8168 -0.1683  0.8972
 5135SOL    HW226625   3.890   0.690   0.058 -0.6632 -2.7587 -0.2907
 5136SOL     OW26626   9.040   4.714   3.665  0.2304  0.4039 -0.1235
 5136SOL    HW126627   8.995   4.682   3.748  0.8187  0.9495  0.4093
 5136SOL    HW226628   9.140   4.711   3.677  0.3402 -0.1770 -1.0608
 5137SOL     OW26629   3.218   7.634   1.434  0.2500  0.1343 -0.6548
 5137SOL    HW126630   3.199   7.729   1.406  1.0248  0.6372  0.4998
 5137SOL    HW226631   3.309   7.629   1.475 -0.1330 -0.9500  0.0645
 5138SOL     OW26632   4.083   3.900   0.476 -0.4476 -0.4456  0.1408
 5138SOL    HW126633   4.042   3.965   0.412 -1.2041  0.7614  1.8250
 5138SOL    HW226634   4.080   3.808   0.436 -2.2242  0.0551 -0.9640
 5139SOL     OW26635   3.384   2.583   2.389 -0.0860 -0.3160  0.2206
 5139SOL    HW126636   3.286   2.600   2.399  0.3469  2.0673  0.8139
 5139SOL    HW226637   3.402   2.538   2.302 -1.6658 -0.5252 -0.0157
 5140SOL     OW26638   8.177   5.251   0.710  0.1375  0.3542  0.7119
 5140SOL    HW126639   8.251   5.231   0.645  1.8339  1.7173  2.1561
 5140SOL    HW226640   8.177   5.349   0.731 -2.4483  0.4642  0.3471
 5141SOL     OW26641   0.806   0.637   0.770  0.4006 -0.4671  0.2297
 5141SOL    HW126642   0.805   0.544   0.735  0.1297 -0.8283  1.1800
 5141SOL    HW226643   0.842   0.699   0.700 -0.7588 -1.0642 -0.9239
 5142SOL     OW26644   1.855   2.868   6.595  0.1494 -0.0211  0.0892
 5142SOL    HW126645   1.952   2.875   6.618 -0.3254  1.7585  1.6831
 5142SOL    HW226646   1.815   2.790   6.643  1.1584 -1.9049 -2.0362
 5143SOL     OW26647   4.359   2.101   0.964  0.2573  0.0151  0.6399
 5143SOL    HW126648   4.369   2.197   0.989  2.3941  0.5083 -1.9022
 5143SOL    HW226649   4.419   2.045   1.021  0.2096  0.3757  1.0468
 5144SOL     OW26650   9.256   2.648   1.488  0.2942 -0.1219 -0.0204
 5144SOL    HW126651   9.242   2.551   1.468  0.7854 -0.0984 -0.4918
 5144SOL    HW226652   9.197   2.676   1.564  1.1527 -1.1390  1.0421
 5145SOL     OW26653   9.883   7.020   4.353  0.2275 -0.0210 -0.6740
 5145SOL    HW126654   9.938   7.074   4.417 -1.2984  0.0800  0.5972
 5145SOL    HW226655   9.942   6.982   4.282  1.6812  1.3487 -0.2310
 5146SOL     OW26656   8.560   9.688   0.253  0.3027  0.2652 -0.3873
 5146SOL    HW126657   8.484   9.737   0.296 -0.3644 -0.3704 -0.8198
 5146SOL    HW226658   8.639   9.749   0.245 -0.0729  0.8551  0.3049
 5147SOL     OW26659   1.795   6.318   3.865  0.2013 -0.3197  0.5336
 5147SOL    HW126660   1.829   6.364   3.782  2.2763 -0.4891  1.2526
 5147SOL    HW226661   1.696   6.329   3.871  0.4780  3.0216  0.0183
 5148SOL     OW26662   4.852   0.505   3.302  0.2507  0.4460  0.5041
 5148SOL    HW126663   4.829   0.510   3.205  1.2699 -0.7950  0.1879
 5148SOL    HW226664   4.947   0.477   3.313 -0.1756 -0.5264  1.8819
 5149SOL     OW26665   0.007   7.210   3.608 -0.1155  0.1953  0.1554
 5149SOL    HW126666  -0.038   7.219   3.520 -0.0710  0.4922  0.1626
 5149SOL    HW226667  -0.062   7.205   3.681 -0.1617 -0.4914  0.0616
 5150SOL     OW26668   5.289   7.620   2.729  0.3268  0.0172 -0.5274
 5150SOL    HW126669   5.243   7.707   2.710 -2.9647 -1.4752  0.2170
 5150SOL    HW226670   5.311   7.615   2.826 -0.8737 -0.5670 -0.2702
 5151SOL     OW26671   3.687   8.138   5.704  0.9377  0.0133  0.0346
 5151SOL    HW126672   3.739   8.113   5.623  1.2775  0.3658  0.1372
 5151SOL    HW226673   3.608   8.194   5.678  0.9307 -0.0474 -0.0715
 5152SOL     OW26674   2.559   2.445   0.201 -0.3549 -0.6247 -0.0308
 5152SOL    HW126675   2.521   2.520   0.256  0.2103 -1.3481  1.3565
 5152SOL    HW226676   2.650   2.471   0.168 -0.3680 -0.5116  0.0206
 5153SOL     OW26677   7.198   8.066   3.268 -0.5390 -0.1687 -0.1590
 5153SOL    HW126678   7.214   8.064   3.367  1.6656 -0.1671 -0.4769
 5153SOL    HW226679   7.210   7.974   3.231 -0.1564  0.0507 -0.5833
 5154SOL     OW26680   2.198   1.412   3.598 -0.4201 -0.0092  0.2097
 5154SOL    HW126681   2.275   1.456   3.552  0.8540 -1.2955  1.0480
 5154SOL    HW226682   2.146   1.358   3.532  0.0580 -0.0329 -0.1498
 5155SOL     OW26683   8.938   4.458   3.005 -0.2733  0.2733 -0.4012
 5155SOL    HW126684   8.924   4.531   2.938  1.0418  0.9251  0.0146
 5155SOL    HW226685   9.028   4.417   2.991 -0.3741 -0.2209  0.3583
 5156SOL     OW26686   4.973   8.013   4.759  0.6566  0.7121 -0.3957
 5156SOL    HW126687   4.965   7.938   4.825  0.0915 -0.1100 -1.3929
 5156SOL    HW226688   4.928   8.094   4.796 -0.7754 -0.1115 -0.3063
 5157SOL     OW26689   6.488   0.026   5.317  0.1653  0.2603 -0.2430
 5157SOL    HW126690   6.404  -0.028   5.325  0.3174  0.1294  0.6260
 5157SOL    HW226691   6.467   0.123   5.326  0.0471  0.2566 -0.4858
 5158SOL     OW26692   7.089   2.185   2.181 -0.1811 -0.0431  0.0480
 5158SOL    HW126693   7.131   2.226   2.100  0.2471  0.0635  0.3221
 5158SOL    HW226694   6.993   2.166   2.163  0.1320 -0.8613 -0.7873
 5159SOL     OW26695   8.846   9.775   2.203  0.1966 -0.0965 -0.0958
 5159SOL    HW126696   8.882   9.832   2.130 -0.7554  0.5768 -0.0381
 5159SOL    HW226697   8.912   9.702   2.223  2.7744  2.6195  1.7852
 5160SOL     OW26698   0.420   7.859   1.199 -0.0306  0.3803 -0.4407
 5160SOL    HW126699   0.462   7.845   1.288  1.4663 -0.1275 -1.2096
 5160SOL    HW226700   0.401   7.770   1.156 -0.6744  0.6210 -0.6731
 5161SOL     OW26701   9.942   1.992   2.296  0.3248 -0.3828 -0.4221
 5161SOL    HW126702   9.877   1.965   2.225 -0.6273  1.0106 -0.1006
 5161SOL    HW226703   9.902   1.973   2.386  0.0163  1.2439 -0.2104
 5162SOL     OW26704   2.563   8.015   5.963  0.5603 -0.5370 -0.7109
 5162SOL    HW126705   2.569   8.010   5.863 -0.8072  1.0446 -0.8873
 5162SOL    HW226706   2.513   8.097   5.989  0.8378 -0.9868  1.2831
 5163SOL     OW26707   8.001   4.697   1.630  0.3367  0.2628  0.3430
 5163SOL    HW126708   7.952   4.709   1.543 -1.2181 -0.0346  1.1593
 5163SOL    HW226709   8.056   4.613   1.626  0.7617  0.5764 -0.5695
 5164SOL     OW26710   2.795   8.492   1.208  0.0926 -0.2971  0.2263
 5164SOL    HW126711   2.812   8.394   1.202 -1.5839 -0.6182  0.2508
 5164SOL    HW226712   2.859   8.534   1.272 -0.9522 -1.8580  2.3677
 5165SOL     OW26713   0.771   2.583   0.169  0.3252  0.2604 -0.6342
 5165SOL    HW126714   0.847   2.523   0.145  1.3174  0.6739  1.3661
 5165SOL    HW226715   0.694   2.527   0.201  0.6013 -0.0387 -0.4872
 5166SOL     OW26716   6.578   8.324   2.927  0.1968  0.1117  0.1079
 5166SOL    HW126717   6.521   8.406   2.919  0.2217  0.2708  1.5502
 5166SOL    HW226718   6.520   8.244   2.941  0.2820  0.1416  0.6210
 5167SOL     OW26719   5.809   8.540   5.195  0.1785  0.9768  0.1387
 5167SOL    HW126720   5.809   8.549   5.294  0.5124  0.1315  0.2221
 5167SOL    HW226721   5.888   8.587   5.157 -0.3945  1.9937  0.2056
 5168SOL     OW26722   1.258   2.004   5.953 -0.2634  0.2350  0.3180
 5168SOL    HW126723   1.233   1.991   5.857  0.9586  0.3846 -0.0292
 5168SOL    HW226724   1.323   2.080   5.960 -0.4830  0.3340  1.2895
 5169SOL     OW26725   3.849   1.631   3.089 -0.1527  0.3005 -0.2812
 5169SOL    HW126726   3.920   1.630   3.019 -0.6576  0.4754 -0.8017
 5169SOL    HW226727   3.873   1.698   3.159  1.2513 -1.1687  0.6713
 5170SOL     OW26728   1.096   7.114   0.435  0.0523  0.2608 -0.1460
 5170SOL    HW126729   1.138   7.025   0.456  0.4852  0.1610 -1.3755
 5170SOL    HW226730   1.061   7.155   0.519  0.7570 -0.6112  0.5863
 5171SOL     OW26731   6.681   7.959   2.819  0.3764  0.0735  0.0766
 5171SOL    HW126732   6.607   7.902   2.855  0.0891  0.2529 -0.2230
 5171SOL    HW226733   6.749   7.976   2.890  1.1051 -1.6912 -0.1787
 5172SOL     OW26734   2.751   6.784   3.959  0.1779  0.1994 -0.0620
 5172SOL    HW126735   2.714   6.848   3.892  0.3228  1.9040  1.4366
 5172SOL    HW226736   2.850   6.774   3.945  0.1928  0.4922 -0.1669
 5173SOL     OW26737   2.772   2.029   0.696 -0.3390  0.3852  0.1275
 5173SOL    HW126738   2.683   2.073   0.682 -1.0038 -1.2426 -0.8900
 5173SOL    HW226739   2.783   2.006   0.792 -1.5291 -0.4264  0.0817
 5174SOL     OW26740   7.986   4.525   6.229  0.4908  0.8878 -0.2398
 5174SOL    HW126741   7.907   4.568   6.187  1.1644  0.4987 -1.9317
 5174SOL    HW226742   8.040   4.595   6.277 -0.0635  1.4096 -0.3749
 5175SOL     OW26743   0.097   7.874   6.277  0.2533  0.3142 -0.2582
 5175SOL    HW126744   0.050   7.905   6.194  2.1912 -1.4307 -2.0681
 5175SOL    HW226745   0.030   7.837   6.341 -0.9835 -1.3363 -2.4371
 5176SOL     OW26746   6.510   9.580   4.448  0.0770  0.0217 -0.6970
 5176SOL    HW126747   6.556   9.667   4.467 -0.1471 -0.0143  0.0234
 5176SOL    HW226748   6.515   9.560   4.350  0.4667  0.6555 -0.8066
 5177SOL     OW26749   7.860   4.996   0.469  0.0999  0.2789  0.3234
 5177SOL    HW126750   7.916   4.999   0.386  1.7792 -2.0131  1.3332
 5177SOL    HW226751   7.763   5.004   0.444  0.5056 -1.4645 -1.9426
 5178SOL     OW26752   7.386   4.521   0.289 -0.7238 -0.2121  0.4133
 5178SOL    HW126753   7.288   4.533   0.276 -0.5974  0.2225 -0.1748
 5178SOL    HW226754   7.416   4.436   0.246 -1.2379 -1.5793  2.6493
 5179SOL     OW26755   2.032   0.841   4.546 -0.1998  0.1116 -0.1869
 5179SOL    HW126756   2.028   0.800   4.636 -1.6260  0.1674 -0.2121
 5179SOL    HW226757   2.127   0.842   4.513  0.1373 -1.1170  0.7342
 5180SOL     OW26758   5.670   8.426   2.243 -0.2828 -0.2369 -0.4859
 5180SOL    HW126759   5.631   8.388   2.159  2.5194 -0.9798 -1.5015
 5180SOL    HW226760   5.747   8.485   2.220 -0.2162  0.4893  1.5154
 5181SOL     OW26761   9.663   3.665   3.017  0.6624  0.0250 -0.3926
 5181SOL    HW126762   9.652   3.594   3.086  0.6630  0.3825 -0.0261
 5181SOL    HW226763   9.723   3.631   2.944  3.5367  0.8566  1.5062
 5182SOL     OW26764   1.078   8.418   0.223 -0.1141  0.5564 -0.2090
 5182SOL    HW126765   0.990   8.461   0.204 -0.1543 -0.1871 -1.7761
 5182SOL    HW226766   1.145   8.449   0.155  0.4129 -0.1420 -0.0079
 5183SOL     OW26767   1.447   6.024   3.421 -0.4458  0.1134  0.4580
 5183SOL    HW126768   1.371   6.087   3.405 -0.0514 -0.0547 -2.4207
 5183SOL    HW226769   1.525   6.074   3.460 -1.2779  0.7058  1.3819
 5184SOL     OW26770   4.009   3.165   4.209 -0.0971  0.2730  0.2144
 5184SOL    HW126771   3.996   3.068   4.187  0.4887  0.3798 -0.6491
 5184SOL    HW226772   4.080   3.174   4.279 -0.6916  0.0367  0.8564
 5185SOL     OW26773   4.121   4.381   3.093 -0.0089  0.0244  0.2556
 5185SOL    HW126774   4.133   4.326   3.176  0.8116 -1.0740 -0.5741
 5185SOL    HW226775   4.210   4.416   3.064 -0.4855  1.5741  0.6078
 5186SOL     OW26776   2.710   7.810   4.414 -0.3790  0.1373  0.2488
 5186SOL    HW126777   2.646   7.733   4.415 -2.6263  1.9024 -1.0052
 5186SOL    HW226778   2.768   7.807   4.495 -1.5175 -1.9892  1.0081
 5187SOL     OW26779   9.040   1.886   6.461 -0.5110  0.1944  0.5758
 5187SOL    HW126780   8.995   1.962   6.413 -0.1139  0.9875  1.4503
 5187SOL    HW226781   9.038   1.805   6.403 -2.5737  0.3719  0.3538
 5188SOL     OW26782   2.791   3.275   5.702 -0.1290  0.3660  0.0352
 5188SOL    HW126783   2.876   3.241   5.741 -0.7288  0.4750  1.4490
 5188SOL    HW226784   2.750   3.203   5.645  0.6104  0.1190 -0.1928
 5189SOL     OW26785   4.095   4.984   2.043  0.2068  0.0790 -0.1247
 5189SOL    HW126786   4.122   4.920   1.971 -1.2162 -0.8188  0.1253
 5189SOL    HW226787   4.157   4.977   2.120  1.1681  0.3512 -0.8649
 5190SOL     OW26788   7.924   2.398   0.934 -0.0466  0.5687 -0.3623
 5190SOL    HW126789   7.934   2.352   1.022 -1.8134  1.3553  0.2699
 5190SOL    HW226790   7.964   2.490   0.939  2.3848 -0.4083 -1.2568
 5191SOL     OW26791   3.591   5.021   1.811  0.1622  0.5357  0.3416
 5191SOL    HW126792   3.670   5.016   1.873  0.7008  0.5405 -0.3416
 5191SOL    HW226793   3.564   4.928   1.785 -1.1468  0.4387  1.9298
 5192SOL     OW26794   7.775   1.361   4.393 -0.0901 -0.2175  0.4343
 5192SOL    HW126795   7.820   1.353   4.482 -0.7526 -0.2116  0.7720
 5192SOL    HW226796   7.793   1.451   4.354 -0.6814  0.1650  1.0444
 5193SOL     OW26797   1.924   6.369   4.092 -0.3562  0.2951 -0.1454
 5193SOL    HW126798   1.882   6.345   4.004 -0.1327 -1.1152  0.1282
 5193SOL    HW226799   2.015   6.329   4.098 -0.2554  0.6328  0.6129
 5194SOL     OW26800   2.949   0.740   2.263  0.3339  0.3842 -0.0574
 5194SOL    HW126801   3.001   0.758   2.347 -2.6067  0.6312  1.8118
 5194SOL    HW226802   3.012   0.715   2.189  3.1901  2.2575  1.6259
 5195SOL     OW26803   4.046   1.049   0.972  0.1454  0.0280  0.5693
 5195SOL    HW126804   3.961   1.035   0.921  0.1599 -1.4586  0.9354
 5195SOL    HW226805   4.024   1.091   1.061  0.1447  2.8001 -0.6938
 5196SOL     OW26806   0.463   3.967   1.829  0.1137 -0.2071 -0.1346
 5196SOL    HW126807   0.474   3.867   1.829 -2.1994 -0.5166 -1.8240
 5196SOL    HW226808   0.508   4.005   1.748 -1.2042 -0.2024 -0.8860
 5197SOL     OW26809   5.763   1.439   5.000  0.0459  0.3315  0.0775
 5197SOL    HW126810   5.691   1.468   4.937 -0.1449  0.5336  0.3851
 5197SOL    HW226811   5.852   1.445   4.955  0.3233  4.0329  0.9845
 5198SOL     OW26812   9.967   0.548   4.759 -0.3818  0.1147 -0.5841
 5198SOL    HW126813   9.962   0.540   4.660  0.3729 -0.3045 -0.5890
 5198SOL    HW226814  10.055   0.589   4.785 -1.0096  1.2330 -0.1464
 5199SOL     OW26815   9.534   8.251   3.564  0.1279  0.4836 -0.4043
 5199SOL    HW126816   9.614   8.199   3.532  1.1221  2.3033 -1.0028
 5199SOL    HW226817   9.560   8.347   3.575 -1.6474  0.8511  0.7269
 5200SOL     OW26818   4.372   8.125   4.084  0.4967 -0.7140 -0.3666
 5200SOL    HW126819   4.422   8.210   4.069 -1.4319  0.8509  1.6641
 5200SOL    HW226820   4.301   8.115   4.014 -0.2259  0.1235  0.2299
 5201SOL     OW26821   4.189   8.675   4.316 -0.3906 -0.0774 -0.7813
 5201SOL    HW126822   4.190   8.715   4.408  0.7479 -2.0655  0.1065
 5201SOL    HW226823   4.131   8.730   4.256 -0.1784  1.9271  0.8155
 5202SOL     OW26824   4.330   5.843   3.294  0.2909 -0.7958 -0.7027
 5202SOL    HW126825   4.392   5.764   3.301  1.1070 -0.1884 -1.0210
 5202SOL    HW226826   4.318   5.868   3.198 -1.3164 -1.5856 -0.7132
 5203SOL     OW26827   4.529   4.135   2.938  0.3923  0.3105  0.5575
 5203SOL    HW126828   4.480   4.216   2.906 -0.4925 -0.1639  0.6759
 5203SOL    HW226829   4.474   4.089   3.008  1.0582 -0.1822  0.7624
 5204SOL     OW26830   8.048   2.520   4.482 -0.0831 -0.4805 -0.2875
 5204SOL    HW126831   8.091   2.490   4.397 -1.2389 -1.2428 -0.6258
 5204SOL    HW226832   8.024   2.617   4.475 -1.5387 -0.9111 -1.4240
 5205SOL     OW26833   0.637   7.069   0.775 -0.1594  0.0733 -0.0865
 5205SOL    HW126834   0.655   7.125   0.856  0.4183  1.1818 -0.9706
 5205SOL    HW226835   0.555   7.013   0.791 -0.7392  1.1542  0.8102
 5206SOL     OW26836   1.048   4.616   3.303 -0.3716  0.5039  0.4571
 5206SOL    HW126837   1.125   4.592   3.243 -1.3235  0.4344 -0.7543
 5206SOL    HW226838   1.068   4.702   3.350  0.6891  0.1998  0.5828
 5207SOL     OW26839   8.982   2.831   5.381 -0.3255  0.2889 -0.6145
 5207SOL    HW126840   8.931   2.906   5.339 -0.5507 -0.2847 -1.3950
 5207SOL    HW226841   8.943   2.809   5.470 -0.7903  0.5437 -0.7558
 5208SOL     OW26842   6.735   7.714   4.511  0.0422 -0.4344 -0.5958
 5208SOL    HW126843   6.711   7.617   4.509  0.7931 -0.6230 -0.7831
 5208SOL    HW226844   6.793   7.736   4.433  1.9908 -0.4087  0.8075
 5209SOL     OW26845   9.058   7.587   4.442 -0.4255 -0.1495  0.6773
 5209SOL    HW126846   9.109   7.626   4.366 -1.7389 -1.1243 -0.7328
 5209SOL    HW226847   8.971   7.635   4.453 -2.0684 -2.5646 -1.0817
 5210SOL     OW26848   7.181   4.867   6.682  0.4264 -0.3256  0.1163
 5210SOL    HW126849   7.082   4.856   6.680  0.2710  0.6938  1.3093
 5210SOL    HW226850   7.211   4.878   6.777  1.2689  2.9770 -0.4804
 5211SOL     OW26851   4.517   1.487   6.200 -0.3270 -0.0442 -0.4330
 5211SOL    HW126852   4.573   1.449   6.274 -0.3700  0.3757 -0.1757
 5211SOL    HW226853   4.522   1.587   6.204  0.3214 -0.0271 -1.5018
 5212SOL     OW26854   9.321   0.301   5.609 -0.2347  0.1347  0.3434
 5212SOL    HW126855   9.326   0.386   5.557 -2.5320  1.1435  1.7119
 5212SOL    HW226856   9.260   0.237   5.563  1.1596 -0.6351 -0.4623
 5213SOL     OW26857   4.467   4.735   3.961 -0.0045  0.2903  0.0036
 5213SOL    HW126858   4.439   4.752   4.055  0.7601  0.2770  0.2288
 5213SOL    HW226859   4.385   4.733   3.902 -0.3535  1.8939  0.4181
 5214SOL     OW26860   7.770   0.152   5.806  0.3750  0.3767  0.1221
 5214SOL    HW126861   7.745   0.073   5.862  1.1878 -0.4041 -0.5924
 5214SOL    HW226862   7.834   0.123   5.736  1.6065  1.9131  0.5903
 5215SOL     OW26863   4.454   3.390   4.966  0.8394  0.3015 -0.0099
 5215SOL    HW126864   4.497   3.331   5.034  2.9335 -0.0370 -1.5557
 5215SOL    HW226865   4.389   3.337   4.912  0.2789  0.2145  0.7483
 5216SOL     OW26866   3.369   9.631   5.676 -0.3484 -0.2479 -0.6067
 5216SOL    HW126867   3.356   9.726   5.704  0.2178  0.2228 -1.8776
 5216SOL    HW226868   3.319   9.614   5.591  0.0116 -0.9294 -0.6864
 5217SOL     OW26869   9.648   5.093   1.543 -0.9930 -0.2241 -0.1384
 5217SOL    HW126870   9.618   5.015   1.489  2.2526 -1.5909 -0.1105
 5217SOL    HW226871   9.725   5.138   1.497 -0.5110  0.7780  1.5888
 5218SOL     OW26872   2.333   4.546   3.868  0.2241 -0.0007  0.7515
 5218SOL    HW126873   2.357   4.584   3.957 -1.3418  0.0277  1.1660
 5218SOL    HW226874   2.323   4.620   3.802  1.7180 -0.0440  0.4488
 5219SOL     OW26875   6.698   0.865   0.196 -0.0768 -0.2397  0.0909
 5219SOL    HW126876   6.751   0.788   0.160 -0.6258 -0.2350 -0.7440
 5219SOL    HW226877   6.608   0.832   0.225  0.0901 -0.1047  0.7672
 5220SOL     OW26878   6.949   1.827   2.645 -0.0697 -0.1186 -0.1511
 5220SOL    HW126879   6.865   1.786   2.681 -0.2048 -0.5107 -0.9017
 5220SOL    HW226880   7.029   1.784   2.687 -0.1905 -1.7140 -1.4975
 5221SOL     OW26881   9.762   1.900   2.082 -0.1640 -0.2606 -0.1203
 5221SOL    HW126882   9.755   1.806   2.117  2.3549 -1.8379 -3.5268
 5221SOL    HW226883   9.685   1.919   2.021 -0.1257 -0.5220 -0.2526
 5222SOL     OW26884   8.358   3.672   5.973  0.1128  0.3194 -0.8087
 5222SOL    HW126885   8.307   3.677   5.887  1.1013 -0.1595 -1.4280
 5222SOL    HW226886   8.450   3.638   5.955  0.3609  0.3278  0.4296
 5223SOL     OW26887   7.912   7.240   2.728 -0.2529  0.8110 -0.2538
 5223SOL    HW126888   7.858   7.156   2.732  0.7262  0.2391  1.5488
 5223SOL    HW226889   7.853   7.318   2.746 -0.6271  0.2548  0.9857
 5224SOL     OW26890   1.437   7.735   2.331 -0.1651  0.1268 -0.3761
 5224SOL    HW126891   1.488   7.816   2.304 -0.2499  0.0819 -0.6730
 5224SOL    HW226892   1.466   7.657   2.276  1.6642 -0.6086  1.5795
 5225SOL     OW26893   2.101   0.466   6.372 -0.3222 -0.1818 -0.9812
 5225SOL    HW126894   2.042   0.386   6.359 -3.5306  2.1398 -1.0638
 5225SOL    HW226895   2.123   0.476   6.469 -0.5097 -0.6953 -0.8833
 5226SOL     OW26896   3.226   5.240   3.598  0.2741 -0.1676  0.0449
 5226SOL    HW126897   3.163   5.203   3.666  0.0155  0.9087  0.4036
 5226SOL    HW226898   3.284   5.309   3.641  0.6224 -0.0302 -0.6479
 5227SOL     OW26899   5.002   9.637   1.778 -0.0642 -0.2896  0.0621
 5227SOL    HW126900   5.094   9.606   1.753  0.0505  0.4656 -0.4720
 5227SOL    HW226901   5.008   9.706   1.850 -0.1229  0.8390 -1.0106
 5228SOL     OW26902   0.647   3.775   3.827 -0.0270 -0.1446 -0.1029
 5228SOL    HW126903   0.564   3.719   3.819  0.0398 -0.1192 -1.0368
 5228SOL    HW226904   0.718   3.722   3.873 -0.5962 -0.1334  0.7880
 5229SOL     OW26905   0.079   1.376   3.190  0.0116 -0.0182  0.0201
 5229SOL    HW126906   0.144   1.408   3.259  2.0768 -1.0963 -1.3881
 5229SOL    HW226907   0.082   1.276   3.185 -1.3967 -0.0452 -0.4361
 5230SOL     OW26908   1.124   4.487   3.928 -0.0992 -0.8972 -0.1942
 5230SOL    HW126909   1.191   4.488   3.854  0.1991  0.4235  0.0693
 5230SOL    HW226910   1.172   4.503   4.015 -0.8846  1.3373 -0.1401
 5231SOL     OW26911   0.414   7.187   4.073  0.2131  0.1814 -0.4838
 5231SOL    HW126912   0.370   7.132   4.144 -0.9064  1.1281 -0.4314
 5231SOL    HW226913   0.412   7.283   4.100  1.9987  0.2879 -0.6537
 5232SOL     OW26914   4.185   9.284   4.258 -0.1726 -0.0366  0.2393
 5232SOL    HW126915   4.181   9.186   4.239 -1.8503 -0.6139  3.2685
 5232SOL    HW226916   4.217   9.333   4.176  1.7973 -3.1800 -0.9640
 5233SOL     OW26917   8.790   3.478   5.354  0.3940 -0.1859 -1.1024
 5233SOL    HW126918   8.700   3.508   5.386  1.2051  0.7813  0.3310
 5233SOL    HW226919   8.859   3.545   5.382  1.5192 -0.7197 -2.5285
 5234SOL     OW26920   4.559   1.844   2.391  0.7904 -0.0607  0.3586
 5234SOL    HW126921   4.547   1.892   2.477  0.3561  0.6508 -0.0876
 5234SOL    HW226922   4.533   1.748   2.402  0.1300  0.1734  0.8556
 5235SOL     OW26923   7.588   8.469   3.458 -0.1222  0.1252 -0.5749
 5235SOL    HW126924   7.537   8.539   3.508 -0.5081 -0.0975 -0.6541
 5235SOL    HW226925   7.526   8.396   3.431  0.3081 -0.3186 -0.3696
 5236SOL     OW26926   0.579   7.233   5.988 -0.3658 -0.4101 -0.0859
 5236SOL    HW126927   0.647   7.269   6.053  1.0802 -1.5699 -0.9540
 5236SOL    HW226928   0.513   7.177   6.038 -1.4121  1.6644  0.9512
 5237SOL     OW26929   8.199   1.100   5.543  0.5925  0.4228  0.0999
 5237SOL    HW126930   8.106   1.065   5.531  0.8619 -0.2869  0.0454
 5237SOL    HW226931   8.264   1.024   5.534  1.0316  0.5183  2.3669
 5238SOL     OW26932   3.955   3.731   3.599 -0.0549 -0.3567 -0.8956
 5238SOL    HW126933   4.026   3.802   3.592  0.5355 -0.9098 -0.5826
 5238SOL    HW226934   3.994   3.649   3.641 -1.0658 -0.4173 -0.0377
 5239SOL     OW26935   3.676   5.769   2.566  0.3430  0.2359 -0.0433
 5239SOL    HW126936   3.733   5.800   2.642 -0.2801  1.1480  0.0641
 5239SOL    HW226937   3.681   5.836   2.492  0.1950 -0.1733 -0.4208
 5240SOL     OW26938   3.916   3.091   0.878  0.1539 -0.6139  0.3452
 5240SOL    HW126939   3.889   3.109   0.783  0.0633  1.7567  0.7800
 5240SOL    HW226940   4.005   3.046   0.879 -0.6147 -2.2041 -0.9010
 5241SOL     OW26941   0.936   2.947   0.505 -0.4022 -0.0166  0.2220
 5241SOL    HW126942   0.868   2.987   0.566 -1.4997  0.6919 -1.4149
 5241SOL    HW226943   1.003   3.017   0.479  0.3364 -0.4352  0.9611
 5242SOL     OW26944   2.803   6.541   0.722  0.0322  0.7922  0.2166
 5242SOL    HW126945   2.705   6.546   0.703 -0.2922  2.2459  2.0803
 5242SOL    HW226946   2.832   6.445   0.719 -1.1071  0.4755 -1.8356
 5243SOL     OW26947   8.255   7.152   4.429 -0.3945  0.0916  0.2526
 5243SOL    HW126948   8.250   7.229   4.365  0.7341  0.4130  0.5386
 5243SOL    HW226949   8.350   7.120   4.435 -0.2467  0.8844  2.7159
 5244SOL     OW26950   2.100   7.784   3.856 -0.3510  0.0965  0.1163
 5244SOL    HW126951   2.155   7.781   3.772  0.2912  0.6354  0.5120
 5244SOL    HW226952   2.110   7.873   3.899 -1.3960  0.1287  0.3028
 5245SOL     OW26953   6.062   1.416   4.035  0.0013  0.6360  0.4683
 5245SOL    HW126954   6.038   1.398   3.939  0.6644  0.3060  0.3587
 5245SOL    HW226955   5.982   1.402   4.092 -0.0119 -0.7527  0.1410
 5246SOL     OW26956   4.577   4.138   3.441  0.3602 -0.5148  0.3304
 5246SOL    HW126957   4.557   4.162   3.535  1.6322  0.9819  0.2316
 5246SOL    HW226958   4.529   4.200   3.379  2.6431  1.0101  0.0602
 5247SOL     OW26959   1.679   3.437   4.473 -0.4403 -0.5478 -0.0712
 5247SOL    HW126960   1.597   3.398   4.516 -0.2411 -0.0308  0.7947
 5247SOL    HW226961   1.707   3.379   4.397 -0.9813 -1.3216  0.3047
 5248SOL     OW26962   3.303   9.647   1.273  0.3107 -0.2546  1.1475
 5248SOL    HW126963   3.270   9.564   1.319  0.2915 -1.8242 -1.5630
 5248SOL    HW226964   3.226   9.707   1.253 -0.1109 -1.0279  0.3923
 5249SOL     OW26965   2.958   3.556   0.247  0.2219 -0.2178 -0.0098
 5249SOL    HW126966   3.019   3.513   0.314 -3.1588 -1.9290  2.0775
 5249SOL    HW226967   2.924   3.487   0.184 -1.6801  0.1986  0.5392
 5250SOL     OW26968   4.717   0.724   5.925  0.1698  0.1026  0.1126
 5250SOL    HW126969   4.756   0.780   5.851  0.3529 -0.3525 -0.1333
 5250SOL    HW226970   4.617   0.720   5.913 -0.0732  1.9788  1.2292
 5251SOL     OW26971   3.320   1.301   6.494 -0.0744  0.3590  0.3105
 5251SOL    HW126972   3.327   1.401   6.494  0.8636  0.2927  0.3054
 5251SOL    HW226973   3.302   1.269   6.401 -1.2575  0.5754  0.4486
 5252SOL     OW26974   9.464   3.156   1.413  0.1108 -0.2870  1.1650
 5252SOL    HW126975   9.474   3.057   1.422 -0.0439 -0.3263  0.9140
 5252SOL    HW226976   9.545   3.201   1.451  1.3153 -0.6099 -0.9035
 5253SOL     OW26977   0.802   3.503   6.078  0.1527 -1.0635  0.5907
 5253SOL    HW126978   0.793   3.447   6.161  0.8285  0.6671  1.8448
 5253SOL    HW226979   0.733   3.575   6.079  2.7634  1.4943  1.6881
 5254SOL     OW26980   4.594   4.856   2.542  0.0361  0.1340 -0.1171
 5254SOL    HW126981   4.546   4.855   2.630  1.2194 -0.0610  0.5378
 5254SOL    HW226982   4.550   4.922   2.481 -0.5559  0.5598  0.7546
 5255SOL     OW26983   9.032   4.853   4.796 -0.1914 -0.2395 -0.2755
 5255SOL    HW126984   9.060   4.899   4.880 -0.7395  1.8559 -1.1895
 5255SOL    HW226985   9.110   4.847   4.734 -0.2664  0.0735 -0.4057
 5256SOL     OW26986   0.454   4.461   5.290  0.3990 -0.4677  0.2217
 5256SOL    HW126987   0.464   4.550   5.333  1.9220  0.1148 -1.3106
 5256SOL    HW226988   0.396   4.403   5.347 -0.1808  1.3214  1.4759
 5257SOL     OW26989   6.010   2.286   3.366  0.1738 -0.2919  0.2428
 5257SOL    HW126990   5.930   2.344   3.382  0.2590  0.6627 -2.5163
 5257SOL    HW226991   5.979   2.198   3.329  0.4595  1.1871 -3.8022
 5258SOL     OW26992   8.628   2.743   1.944  0.6973  0.0139 -0.3321
 5258SOL    HW126993   8.603   2.701   1.856 -0.5118 -2.1729  1.0070
 5258SOL    HW226994   8.707   2.694   1.983 -0.0093 -0.2932  0.7219
 5259SOL     OW26995   1.898   2.708   2.446 -0.0676 -0.0278  0.1912
 5259SOL    HW126996   1.842   2.726   2.527  1.7286  0.4505  1.3633
 5259SOL    HW226997   1.983   2.663   2.474  0.9355  0.8892 -1.3290
 5260SOL     OW26998   2.179   2.251   0.786  0.0790 -0.0313 -0.3126
 5260SOL    HW126999   2.233   2.321   0.832  0.8065  1.1907 -2.9129
 5260SOL    HW227000   2.082   2.265   0.805  0.3019  1.0110  0.0882
 5261SOL     OW27001   3.528   5.608   1.932 -0.2661 -0.5069  0.4254
 5261SOL    HW127002   3.519   5.560   2.020 -0.7111 -1.2935 -0.0437
 5261SOL    HW227003   3.439   5.614   1.888 -0.3800  1.5763  0.8862
 5262SOL     OW27004   6.327   0.761   2.141 -0.0133 -0.1061  0.8529
 5262SOL    HW127005   6.397   0.830   2.124  0.6847 -0.8883  0.4573
 5262SOL    HW227006   6.285   0.777   2.229 -0.7029  1.5307  0.2418
 5263SOL     OW27007   8.714   5.389   2.812  0.2025  1.0469  0.8699
 5263SOL    HW127008   8.710   5.412   2.715  1.2501 -1.1958  0.2532
 5263SOL    HW227009   8.630   5.419   2.857 -0.4522  1.7712 -0.8145
 5264SOL     OW27010   5.610   0.596   6.014 -0.1525  0.6455  0.2395
 5264SOL    HW127011   5.618   0.565   6.109  3.1649  0.4792 -0.0227
 5264SOL    HW227012   5.669   0.675   5.999  0.4604 -0.1709 -1.9963
 5265SOL     OW27013   3.053   7.531   2.291  0.4036 -0.5263  0.0159
 5265SOL    HW127014   3.000   7.533   2.375 -0.0156 -2.4765 -0.1819
 5265SOL    HW227015   2.992   7.544   2.213  0.3877 -1.4031 -0.1279
 5266SOL     OW27016   5.195   6.134   1.815 -0.2659 -0.2009  0.7688
 5266SOL    HW127017   5.103   6.169   1.797 -0.9039 -1.4929  1.4995
 5266SOL    HW227018   5.258   6.171   1.746 -1.3137  0.7047  0.2721
 5267SOL     OW27019   9.679   5.396   4.953  0.0142  0.1387  0.3612
 5267SOL    HW127020   9.592   5.358   4.984  0.9770 -1.4717  1.1840
 5267SOL    HW227021   9.668   5.437   4.863 -2.0283  1.7069  1.2890
 5268SOL     OW27022   5.070   9.391   0.011  0.0740 -0.6079 -0.5584
 5268SOL    HW127023   5.064   9.335  -0.072 -1.4136  1.2939 -1.7860
 5268SOL    HW227024   4.998   9.460   0.010 -0.1396 -0.7242  2.4936
 5269SOL     OW27025   4.424   3.132   6.689  0.5210 -0.0684 -0.1599
 5269SOL    HW127026   4.334   3.157   6.654  0.0172  0.5608  1.5479
 5269SOL    HW227027   4.491   3.202   6.662  0.1520  0.3813  0.0962
 5270SOL     OW27028   0.880   4.418   3.812 -0.4109  0.2574 -0.7528
 5270SOL    HW127029   0.898   4.390   3.717 -0.4198  0.1617 -0.7261
 5270SOL    HW227030   0.967   4.440   3.856 -0.1546 -1.9750 -0.0645
 5271SOL     OW27031   4.589   3.245   2.978 -0.1932  0.2740  0.1715
 5271SOL    HW127032   4.502   3.220   2.936  0.1738 -1.5200  0.4444
 5271SOL    HW227033   4.575   3.265   3.075 -0.4872  1.1053 -0.0420
 5272SOL     OW27034   8.182   3.906   5.202 -0.0706 -0.1367 -0.1219
 5272SOL    HW127035   8.154   3.811   5.192 -0.8680  0.0663  0.1388
 5272SOL    HW227036   8.111   3.966   5.165  0.0656  0.3871  0.4580
 5273SOL     OW27037   2.721   5.807   3.689 -0.7707 -0.3023  0.0686
 5273SOL    HW127038   2.704   5.886   3.630 -2.0450 -1.0509 -0.5927
 5273SOL    HW227039   2.707   5.723   3.637 -0.1035 -0.9708  0.9523
 5274SOL     OW27040   0.410   2.405   1.165  0.0911  0.1051  0.6794
 5274SOL    HW127041   0.313   2.432   1.162 -0.6416 -2.5978 -2.7535
 5274SOL    HW227042   0.438   2.371   1.076  3.9132 -0.3766  1.9816
 5275SOL     OW27043   8.003   5.122   6.627  0.0222  0.2415  0.0775
 5275SOL    HW127044   7.948   5.169   6.698 -1.7197  1.5984 -2.1029
 5275SOL    HW227045   8.050   5.190   6.571  1.8070 -0.8469  0.2165
 5276SOL     OW27046   7.615   0.757   5.798  0.1561  0.5650 -0.1626
 5276SOL    HW127047   7.715   0.762   5.807  0.2565 -2.5003  1.1287
 5276SOL    HW227048   7.589   0.774   5.703  2.1957 -1.7383 -1.1833
 5277SOL     OW27049   0.713   8.773   2.339  0.5171  0.4388 -0.0730
 5277SOL    HW127050   0.615   8.786   2.323  0.1533 -1.9377  0.1501
 5277SOL    HW227051   0.751   8.857   2.380 -1.4124  1.3649 -0.1289
 5278SOL     OW27052   3.343   1.702   4.616  0.1584  0.7045 -0.2610
 5278SOL    HW127053   3.371   1.781   4.562  1.7637  1.2531  1.3236
 5278SOL    HW227054   3.254   1.720   4.659  1.2288  2.3051  1.3409
 5279SOL     OW27055   1.097   3.440   2.232 -0.4524  0.2263  0.4251
 5279SOL    HW127056   1.172   3.376   2.247 -1.0752 -1.1083 -2.0048
 5279SOL    HW227057   1.134   3.528   2.200  0.0780 -0.4597 -0.8699
 5280SOL     OW27058   2.515   6.767   4.517 -0.4155 -0.0517 -0.2541
 5280SOL    HW127059   2.434   6.711   4.536  0.4947 -1.9788 -1.8605
 5280SOL    HW227060   2.576   6.765   4.597 -1.2345  0.1516  0.3815
 5281SOL     OW27061   5.231   2.589   4.830 -0.4984 -0.0917 -0.1128
 5281SOL    HW127062   5.145   2.607   4.879 -0.9407 -0.1603 -0.8610
 5281SOL    HW227063   5.304   2.643   4.872 -0.9574  0.1675  0.3695
 5282SOL     OW27064   0.800   5.414   2.403 -0.2418  0.0059  0.5847
 5282SOL    HW127065   0.781   5.317   2.386 -0.7353  0.4170 -1.3143
 5282SOL    HW227066   0.899   5.429   2.405 -0.1759 -0.2779 -0.6342
 5283SOL     OW27067   2.767   8.655   4.240  0.0177  0.3955  0.2412
 5283SOL    HW127068   2.734   8.570   4.200 -0.9502  0.4184  0.9910
 5283SOL    HW227069   2.820   8.705   4.171  1.0334 -1.0343 -0.0521
 5284SOL     OW27070   1.447   1.896   5.512 -0.0217 -0.6496 -0.4320
 5284SOL    HW127071   1.492   1.979   5.478 -1.4065  0.5619  0.6287
 5284SOL    HW227072   1.372   1.871   5.451 -0.8963  0.0568  0.3527
 5285SOL     OW27073   2.969   1.095   1.717  0.7146 -0.6935  0.0950
 5285SOL    HW127074   3.041   1.077   1.784 -0.0406 -1.1256  0.8013
 5285SOL    HW227075   2.934   1.188   1.730  1.1585 -0.4782 -0.2590
 5286SOL     OW27076   1.235   7.421   0.172  0.8422 -0.2370 -0.1214
 5286SOL    HW127077   1.220   7.370   0.087  0.2927  0.2056 -0.2870
 5286SOL    HW227078   1.331   7.452   0.175  0.6673  0.3897 -0.9316
 5287SOL     OW27079   1.036   0.687   1.436  0.5716 -0.3848  0.2871
 5287SOL    HW127080   1.023   0.726   1.527 -0.0660 -0.1220  0.0870
 5287SOL    HW227081   1.133   0.683   1.415  0.6173  2.5395 -0.3078
 5288SOL     OW27082   7.521   4.292   5.719  0.1422  0.0526 -0.1718
 5288SOL    HW127083   7.471   4.249   5.794  1.3589  0.6482  1.0225
 5288SOL    HW227084   7.477   4.378   5.694 -0.2477 -0.1301 -0.1073
 5289SOL     OW27085   2.588   6.423   2.891  0.0785 -0.0976 -0.2718
 5289SOL    HW127086   2.625   6.506   2.932 -0.1535  0.3020 -0.8597
 5289SOL    HW227087   2.660   6.375   2.841  0.5022 -0.8975  1.0884
 5290SOL     OW27088   9.676   5.501   6.586  0.7676  0.6235  0.2440
 5290SOL    HW127089   9.649   5.571   6.653  0.9032  2.0123 -1.1347
 5290SOL    HW227090   9.599   5.440   6.569  1.0839 -0.5003  2.5605
 5291SOL     OW27091   4.641   9.742   0.875  0.5353 -0.0065  0.2462
 5291SOL    HW127092   4.624   9.646   0.852  0.4365  0.1342 -0.2675
 5291SOL    HW227093   4.734   9.752   0.910  0.6022 -0.2671  0.1453
 5292SOL     OW27094   8.903   1.980   2.495  0.2063 -1.1577 -0.2318
 5292SOL    HW127095   8.969   2.034   2.548 -1.0428 -1.1651  1.3583
 5292SOL    HW227096   8.863   1.910   2.553 -2.1318 -0.3433 -0.8224
 5293SOL     OW27097   2.070   9.655   5.808 -0.3610  0.1684 -0.3113
 5293SOL    HW127098   2.110   9.689   5.723  0.1613 -0.0371 -0.1537
 5293SOL    HW227099   2.109   9.566   5.829 -1.8234 -0.5954 -0.7884
 5294SOL     OW27100   5.334   9.248   5.708 -0.2002  0.3096  0.3469
 5294SOL    HW127101   5.300   9.159   5.737  1.4421  0.3225  2.4085
 5294SOL    HW227102   5.262   9.296   5.658 -1.6741 -1.4652  0.7113
 5295SOL     OW27103   3.686   8.266   0.128 -0.1318 -0.0487 -0.0219
 5295SOL    HW127104   3.688   8.365   0.114 -0.1955  0.0250  0.4878
 5295SOL    HW227105   3.595   8.240   0.161 -0.6764 -0.5083 -1.8271
 5296SOL     OW27106   0.130   2.869   4.405 -0.0604  0.4335  0.2212
 5296SOL    HW127107   0.051   2.929   4.389 -0.5457 -0.0732  0.6971
 5296SOL    HW227108   0.105   2.798   4.471  1.1909  1.0465  1.3686
 5297SOL     OW27109   2.384   6.097   0.401 -0.5480 -0.2447  0.0753
 5297SOL    HW127110   2.299   6.053   0.430 -1.1928  0.5484 -0.6059
 5297SOL    HW227111   2.424   6.045   0.325 -0.0167 -1.0444  0.8791
 5298SOL     OW27112   7.818   0.155   0.664  0.3106  0.0683 -0.2060
 5298SOL    HW127113   7.736   0.098   0.677 -0.7518  1.5103 -0.5297
 5298SOL    HW227114   7.832   0.212   0.745  0.5596  0.3784 -0.4653
 5299SOL     OW27115   2.469   9.998   3.110  0.0299  0.4637  0.0948
 5299SOL    HW127116   2.455   9.963   3.017  1.0446  2.0320 -0.6657
 5299SOL    HW227117   2.536   9.941   3.157 -0.5497 -0.3867 -0.0897
 5300SOL     OW27118   1.428   1.208   1.667 -0.2239  0.2463 -0.7927
 5300SOL    HW127119   1.382   1.152   1.598 -1.2034 -0.5829  0.5053
 5300SOL    HW227120   1.401   1.304   1.655  1.8007  0.5345 -3.2925
 5301SOL     OW27121   1.076   7.882   1.234  0.1344 -0.1149 -0.0589
 5301SOL    HW127122   1.001   7.851   1.292  0.7184 -0.3527  0.5722
 5301SOL    HW227123   1.103   7.975   1.261 -1.8839  1.1433 -2.2090
 5302SOL     OW27124   4.430   4.640   3.494  0.0944 -0.2056  0.2966
 5302SOL    HW127125   4.507   4.695   3.528 -0.5687  0.9359 -0.0275
 5302SOL    HW227126   4.411   4.566   3.558  1.6942 -0.7155  0.2077
 5303SOL     OW27127   1.202   0.360   6.230 -0.0773  0.6873 -0.0244
 5303SOL    HW127128   1.134   0.294   6.262 -1.1271  1.7719  0.0361
 5303SOL    HW227129   1.234   0.415   6.307  1.0145  0.0588 -0.0237
 5304SOL     OW27130   0.359   1.809   6.218  0.4104 -0.2328 -0.2295
 5304SOL    HW127131   0.269   1.782   6.252  1.1315 -1.2325  0.8901
 5304SOL    HW227132   0.430   1.757   6.265  1.5588  0.2083 -1.4493
 5305SOL     OW27133   8.301   5.205   3.065 -0.0221  0.5763 -0.4550
 5305SOL    HW127134   8.212   5.243   3.090 -0.0936  0.1116  0.0192
 5305SOL    HW227135   8.367   5.224   3.137  0.0584  0.2156 -0.4320
 5306SOL     OW27136   8.184   5.725   5.033  0.6282 -0.0576  1.1436
 5306SOL    HW127137   8.148   5.712   5.125 -1.0272 -2.0321  0.2510
 5306SOL    HW227138   8.165   5.818   5.003  0.3500  0.3178  2.4385
 5307SOL     OW27139   6.469   0.906   4.624  0.0632 -0.3453  0.1682
 5307SOL    HW127140   6.420   0.885   4.539 -1.5106 -0.2115  1.0269
 5307SOL    HW227141   6.542   0.839   4.638 -1.2430 -1.8315 -0.0397
 5308SOL     OW27142   9.448   8.089   6.487  0.1065 -0.0417  0.7982
 5308SOL    HW127143   9.403   8.000   6.483  1.6277 -0.7635 -2.6344
 5308SOL    HW227144   9.541   8.078   6.523  1.0784 -0.2663 -1.6804
 5309SOL     OW27145   6.378   4.968   0.725  0.3027 -0.5767 -0.1198
 5309SOL    HW127146   6.401   4.993   0.631 -2.6320  1.7622 -0.2976
 5309SOL    HW227147   6.292   4.917   0.726  0.9099 -1.6066  1.2023
 5310SOL     OW27148   9.493   2.035   3.767 -0.0868  0.6275 -0.2583
 5310SOL    HW127149   9.505   2.011   3.863 -0.7094 -2.0372 -0.8224
 5310SOL    HW227150   9.581   2.056   3.726  0.1657  1.9215  0.9075
 5311SOL     OW27151   0.597   3.975   2.913  0.0662 -0.4961 -0.3107
 5311SOL    HW127152   0.520   4.037   2.924 -0.1981 -0.8236 -0.2927
 5311SOL    HW227153   0.569   3.882   2.937  0.6170 -0.5307  0.2321
 5312SOL     OW27154   5.503   9.124   3.992  0.8454 -0.2671  0.4267
 5312SOL    HW127155   5.446   9.043   4.002 -0.1024  0.2197 -0.8313
 5312SOL    HW227156   5.525   9.161   4.083 -1.3954 -0.1020  0.9499
 5313SOL     OW27157   2.182   4.835   0.909  0.0354 -0.1996 -0.1718
 5313SOL    HW127158   2.167   4.905   0.839 -0.3203 -0.1104 -0.0100
 5313SOL    HW227159   2.098   4.824   0.963  0.9588  1.2726  1.6369
 5314SOL     OW27160   4.702   6.964   2.531  0.0460  0.0089 -0.0989
 5314SOL    HW127161   4.618   7.016   2.510  0.1477  0.1112 -0.2586
 5314SOL    HW227162   4.780   7.026   2.529  0.2179 -0.2176 -0.6667
 5315SOL     OW27163   9.908   9.731   1.312 -0.4240 -0.5654  0.2352
 5315SOL    HW127164   9.808   9.725   1.305 -0.4685  0.2843  0.0969
 5315SOL    HW227165   9.948   9.707   1.223 -0.6090  1.2250 -0.3581
 5316SOL     OW27166   3.702   8.597   4.380 -0.2490 -0.0932  0.2458
 5316SOL    HW127167   3.766   8.600   4.457  0.3204 -1.6956 -0.1443
 5316SOL    HW227168   3.708   8.507   4.335 -2.5633 -0.1715  0.0282
 5317SOL     OW27169   7.273   1.929   1.126  0.3354 -0.3107  0.1201
 5317SOL    HW127170   7.370   1.915   1.108  0.6452 -1.4950  2.4855
 5317SOL    HW227171   7.247   1.880   1.210 -2.5800 -1.0526 -1.1593
 5318SOL     OW27172   3.155   9.450   5.332 -0.0086  0.0543  0.3194
 5318SOL    HW127173   3.223   9.385   5.297 -1.1316  0.4487 -2.7542
 5318SOL    HW227174   3.137   9.520   5.263 -2.0410  1.1447  1.9025
 5319SOL     OW27175   2.108   4.814   0.504 -0.3189 -0.3836  0.1242
 5319SOL    HW127176   2.054   4.815   0.420 -1.1252 -0.2713  0.6353
 5319SOL    HW227177   2.073   4.742   0.565 -0.5209  0.3340  0.8627
 5320SOL     OW27178   3.469   4.637   1.612 -0.5799  0.3540  0.3591
 5320SOL    HW127179   3.561   4.671   1.633 -0.5509  1.2832 -1.2354
 5320SOL    HW227180   3.413   4.641   1.695  0.8457 -0.3997  1.3973
 5321SOL     OW27181   4.901   9.974   1.550 -0.4812  0.5058 -0.6863
 5321SOL    HW127182   4.824   9.935   1.500 -0.4324  1.7005 -1.7129
 5321SOL    HW227183   4.912  10.070   1.526  0.6468  0.6442  0.2936
 5322SOL     OW27184   3.312   4.250   2.273 -0.3185  0.5146 -0.6507
 5322SOL    HW127185   3.293   4.229   2.177 -0.8379  1.6528 -0.8024
 5322SOL    HW227186   3.409   4.269   2.284 -0.2687  0.4459 -0.9583
 5323SOL     OW27187   3.095   2.956   3.851  0.5098  0.4792 -0.3174
 5323SOL    HW127188   3.080   3.039   3.906 -0.2698 -0.2868  0.6307
 5323SOL    HW227189   3.161   2.897   3.897 -0.1541 -0.1701 -0.1911
 5324SOL     OW27190   3.156   5.472   6.151  0.4500 -0.4414  0.3140
 5324SOL    HW127191   3.113   5.423   6.228  1.2467 -1.4581  0.1224
 5324SOL    HW227192   3.244   5.509   6.180 -0.5843  1.7863  0.7512
 5325SOL     OW27193   7.206   7.974   4.725  0.2809  0.3134  0.0778
 5325SOL    HW127194   7.206   7.964   4.824 -0.3290  2.1095  0.2747
 5325SOL    HW227195   7.113   7.963   4.691  0.4175  0.1396 -0.2403
 5326SOL     OW27196   6.396   9.348   2.049  0.3222  0.1852 -0.3396
 5326SOL    HW127197   6.380   9.376   1.954  2.3755 -0.4445 -0.8958
 5326SOL    HW227198   6.478   9.393   2.084  0.6357 -1.0109  0.5206
 5327SOL     OW27199   4.321   9.327   4.039  0.2285 -0.1492  0.2428
 5327SOL    HW127200   4.393   9.384   3.998 -0.2321  0.2976  0.0439
 5327SOL    HW227201   4.250   9.310   3.971  0.9755 -2.0414 -0.0875
 5328SOL     OW27202   2.312   5.554   1.535 -0.2309  0.4602 -0.0819
 5328SOL    HW127203   2.237   5.544   1.470 -0.2342  0.8294 -0.1355
 5328SOL    HW227204   2.293   5.499   1.616  0.4749 -1.1737 -1.0118
 5329SOL     OW27205   4.364   3.950   5.042 -0.1013  0.6641 -0.6882
 5329SOL    HW127206   4.422   3.870   5.028 -1.0798 -0.0748 -0.6067
 5329SOL    HW227207   4.402   4.006   5.115  1.0046  0.6759 -1.2573
 5330SOL     OW27208   9.752   8.510   5.903 -0.7927 -0.3022  0.0718
 5330SOL    HW127209   9.732   8.442   5.975 -0.5720  0.2188  0.6306
 5330SOL    HW227210   9.848   8.501   5.876 -0.8016 -0.3088  0.0438
 5331SOL     OW27211   3.058   1.663   4.334 -0.2210 -0.0034  0.2718
 5331SOL    HW127212   3.126   1.621   4.274  0.8557  1.4465  0.4179
 5331SOL    HW227213   3.045   1.606   4.415 -0.3913 -1.1113 -0.5382
 5332SOL     OW27214   0.906   3.019   1.105 -0.4651 -0.2917  0.9690
 5332SOL    HW127215   0.959   2.967   1.038 -0.4366  1.7918 -0.6774
 5332SOL    HW227216   0.969   3.065   1.168 -0.4080  0.2760  0.4910
 5333SOL     OW27217   8.213   2.572   2.689  0.2841  0.3686  0.3715
 5333SOL    HW127218   8.311   2.585   2.703  0.5079 -0.9195  0.0553
 5333SOL    HW227219   8.188   2.603   2.597  0.3539  0.8570  0.5130
 5334SOL     OW27220   2.784   1.709   3.495 -0.7916 -0.4706  0.0546
 5334SOL    HW127221   2.731   1.634   3.534  0.3754 -1.0883  0.4570
 5334SOL    HW227222   2.722   1.785   3.471 -1.5464 -0.1872  2.7952
 5335SOL     OW27223   0.030   0.566   2.324 -0.2720 -0.1772 -0.1356
 5335SOL    HW127224   0.024   0.477   2.369  0.1316  0.1504  0.5863
 5335SOL    HW227225  -0.060   0.592   2.290 -0.1798 -1.3400 -1.3126
 5336SOL     OW27226   8.754   1.327   0.622  0.3840  0.1250  0.9539
 5336SOL    HW127227   8.672   1.346   0.568  0.0373 -1.4903  0.8805
 5336SOL    HW227228   8.831   1.309   0.561  0.0952 -1.2619  0.9828
 5337SOL     OW27229   5.023   7.098   3.416  0.0590  0.4287  0.2850
 5337SOL    HW127230   5.114   7.115   3.377  0.8304  1.0619  2.3294
 5337SOL    HW227231   4.982   7.018   3.372  1.9057 -0.3004 -0.1204
 5338SOL     OW27232   1.940   3.341   2.071  0.4293  0.1326 -0.1148
 5338SOL    HW127233   1.952   3.434   2.037  1.2601 -0.5973 -1.8587
 5338SOL    HW227234   2.023   3.312   2.120  0.2696  0.2125  0.2055
 5339SOL     OW27235   2.084   5.052   4.196  0.4733  0.1144 -0.2403
 5339SOL    HW127236   2.142   4.976   4.227  1.9974  0.9458 -0.9833
 5339SOL    HW227237   2.081   5.053   4.096  0.4016  0.9826 -0.2322
 5340SOL     OW27238   8.387   1.781   6.229 -0.0498 -0.5209 -0.1473
 5340SOL    HW127239   8.472   1.750   6.271  1.3792  1.2583 -1.6504
 5340SOL    HW227240   8.336   1.702   6.194  1.2172 -1.5444  0.2937
 5341SOL     OW27241   2.088   3.614   4.334  0.4693 -0.0092 -0.2575
 5341SOL    HW127242   2.138   3.530   4.311  0.5725  0.2622 -1.0242
 5341SOL    HW227243   2.100   3.681   4.262  0.9929  0.9450  0.7029
 5342SOL     OW27244   0.107   3.455   0.568 -0.4656  0.1336 -0.1516
 5342SOL    HW127245   0.042   3.530   0.575  0.6180  1.1929 -1.2173
 5342SOL    HW227246   0.200   3.490   0.580  0.1400 -0.7962 -1.9161
 5343SOL     OW27247   2.748   7.706   5.584 -0.2068 -0.1529 -0.2039
 5343SOL    HW127248   2.808   7.708   5.504  0.7639 -1.1928  0.4916
 5343SOL    HW227249   2.712   7.614   5.597  0.9762 -0.4042  1.5100
 5344SOL     OW27250   1.327   6.544   1.519  0.5109 -0.3036  0.2252
 5344SOL    HW127251   1.309   6.616   1.586 -0.4860 -0.1979 -0.1515
 5344SOL    HW227252   1.414   6.500   1.541  2.4140  2.7001 -1.0420
 5345SOL     OW27253   9.263   9.136   4.496 -0.2124  0.2469  0.0194
 5345SOL    HW127254   9.327   9.114   4.569  0.8556  5.0135  0.7267
 5345SOL    HW227255   9.177   9.170   4.535 -0.0488  1.7709 -0.8844
 5346SOL     OW27256   4.098   9.233   1.226 -0.1970 -0.0245  0.4514
 5346SOL    HW127257   4.059   9.189   1.307 -1.3010 -0.1276 -0.1407
 5346SOL    HW227258   4.145   9.317   1.255  1.2265 -1.1350  1.4686
 5347SOL     OW27259   3.871   1.015   0.644  0.6999  0.3854  0.0424
 5347SOL    HW127260   3.805   1.059   0.583  0.1386 -0.4675  0.0306
 5347SOL    HW227261   3.826   0.989   0.729  0.7238 -1.2931 -0.4411
 5348SOL     OW27262   7.572   0.750   2.279 -0.3799  0.2096 -0.0788
 5348SOL    HW127263   7.613   0.746   2.188  0.8755  2.2730  0.3382
 5348SOL    HW227264   7.490   0.806   2.276 -0.1527  0.5573  0.1033
 5349SOL     OW27265   9.278   5.037   0.528  0.2902 -0.3020  0.0302
 5349SOL    HW127266   9.186   5.011   0.498  0.2915  0.5609 -0.7456
 5349SOL    HW227267   9.344   5.018   0.455  0.3897  1.2138 -0.2951
 5350SOL     OW27268   3.055   2.966   0.395 -0.0169 -0.4685 -0.4140
 5350SOL    HW127269   3.015   2.929   0.479 -0.4997 -1.1837 -0.9511
 5350SOL    HW227270   3.084   3.060   0.411 -1.2328 -0.1807  0.2049
 5351SOL     OW27271   4.008   4.853   4.182  0.3485  0.3002  0.2717
 5351SOL    HW127272   3.914   4.868   4.213  0.5792  1.6944  0.3401
 5351SOL    HW227273   4.032   4.756   4.193 -0.7728  0.1037  1.1030
 5352SOL     OW27274   3.606   1.173   4.296 -0.4024  0.3309 -0.5251
 5352SOL    HW127275   3.585   1.263   4.334 -0.5470  1.0717 -2.2902
 5352SOL    HW227276   3.691   1.139   4.335  1.3928  2.7143 -2.2271
 5353SOL     OW27277   3.316   4.753   1.420 -0.2891  0.3716  0.7814
 5353SOL    HW127278   3.361   4.701   1.492 -1.6240 -0.7819  0.8019
 5353SOL    HW227279   3.286   4.692   1.348 -2.6265  0.9667  1.1990
 5354SOL     OW27280   1.523   8.888   2.468  0.1536 -0.0012 -0.0123
 5354SOL    HW127281   1.450   8.850   2.524  1.2567 -0.4375  1.1760
 5354SOL    HW227282   1.516   8.988   2.467  0.4943  0.0467  1.4580
 5355SOL     OW27283   3.771   0.189   3.833 -0.1636  0.3115 -0.0755
 5355SOL    HW127284   3.769   0.099   3.875 -1.0994 -0.2898 -1.3929
 5355SOL    HW227285   3.786   0.180   3.735  0.9543  1.6549 -0.0469
 5356SOL     OW27286   3.939   9.446   6.022  0.7478 -0.1847  0.0858
 5356SOL    HW127287   3.878   9.525   6.011  0.7032 -0.6206 -3.3770
 5356SOL    HW227288   3.885   9.362   6.015  1.3580 -0.5457 -0.2871
 5357SOL     OW27289   4.013   9.386   5.185  0.3718  0.4535  0.8876
 5357SOL    HW127290   3.977   9.364   5.275  0.8652 -1.8802  0.5611
 5357SOL    HW227291   3.938   9.408   5.123 -0.3150 -1.5083  0.9639
 5358SOL     OW27292   9.504   5.776   1.566  0.7079  0.0675  0.1242
 5358SOL    HW127293   9.417   5.818   1.589  1.2006  1.5576 -0.6863
 5358SOL    HW227294   9.518   5.695   1.624  0.1144  1.4341  2.2465
 5359SOL     OW27295   0.013   4.429   6.557 -0.1301 -0.1951  0.0319
 5359SOL    HW127296   0.054   4.423   6.648 -0.2469 -0.9650  0.0408
 5359SOL    HW227297   0.010   4.338   6.516 -0.0995  0.1419 -0.7361
 5360SOL     OW27298   7.421   1.497   3.278  0.5266  0.8828 -0.0428
 5360SOL    HW127299   7.492   1.499   3.208 -0.9374 -1.9580 -1.6734
 5360SOL    HW227300   7.348   1.561   3.253 -0.4579 -0.8341 -1.6840
 5361SOL     OW27301   5.466   8.511   0.098  0.2656 -0.3237 -0.2011
 5361SOL    HW127302   5.420   8.488   0.184  0.3737 -2.9376 -0.7894
 5361SOL    HW227303   5.528   8.437   0.073  2.2186  1.5967 -1.2099
 5362SOL     OW27304   5.018   9.958   5.162  0.0496  0.1474  0.0385
 5362SOL    HW127305   5.101   9.931   5.210 -0.2039 -0.4556  0.1476
 5362SOL    HW227306   5.022  10.055   5.139  0.5558  0.2364  0.4997
 5363SOL     OW27307   1.406   0.022   3.466 -0.2431  0.0764 -0.7122
 5363SOL    HW127308   1.369   0.072   3.544 -1.3276  0.2907 -1.3608
 5363SOL    HW227309   1.346   0.032   3.388  0.7078 -0.3516 -1.5161
 5364SOL     OW27310   9.195   5.438   1.528 -0.1757  0.4834  0.3491
 5364SOL    HW127311   9.123   5.369   1.521  0.5807 -0.1360 -1.7174
 5364SOL    HW227312   9.251   5.420   1.609 -0.2326 -1.0970  0.0537
 5365SOL     OW27313   1.651   7.283   3.954  0.2066 -0.4869  0.2289
 5365SOL    HW127314   1.578   7.338   3.914  0.2628 -0.7333 -0.2146
 5365SOL    HW227315   1.656   7.195   3.907  0.8892 -0.4097  0.1498
 5366SOL     OW27316   3.610   3.985   3.554 -0.2236 -0.5058 -0.7361
 5366SOL    HW127317   3.688   4.015   3.499  0.0422  0.8820  0.3731
 5366SOL    HW227318   3.547   4.061   3.569  0.0194 -0.6805  1.3761
 5367SOL     OW27319   7.403   3.391   6.458 -0.0995 -0.3495 -0.1999
 5367SOL    HW127320   7.499   3.370   6.478 -0.3437 -0.5256  0.8362
 5367SOL    HW227321   7.396   3.429   6.366  0.7008 -2.2945 -1.0831
 5368SOL     OW27322   2.476   5.898   1.929  0.8587 -0.5594 -0.8376
 5368SOL    HW127323   2.480   5.846   2.014  0.5457  0.6731 -0.0682
 5368SOL    HW227324   2.569   5.922   1.900  0.8594  1.1924  0.5139
 5369SOL     OW27325   3.939   9.717   0.696 -0.3739 -0.3448 -0.0211
 5369SOL    HW127326   3.881   9.661   0.637 -0.6178 -0.4423  0.3094
 5369SOL    HW227327   4.009   9.659   0.739  0.3439 -0.1209 -0.8856
 5370SOL     OW27328   2.362   9.929   5.950  0.3656  0.0917  0.0934
 5370SOL    HW127329   2.385  10.026   5.953  0.9864 -0.0910  1.7794
 5370SOL    HW227330   2.273   9.915   5.994 -0.8718  0.1850 -2.2882
 5371SOL     OW27331   9.856   1.669   1.094  0.0081 -0.2385 -0.3723
 5371SOL    HW127332   9.894   1.692   1.184  2.4836 -0.3263 -1.3544
 5371SOL    HW227333   9.790   1.739   1.067  0.0837  0.3876  1.0094
 5372SOL     OW27334   7.661   1.322   3.207 -0.3421 -0.0134  0.0984
 5372SOL    HW127335   7.587   1.294   3.269 -0.9355 -1.1317 -1.0790
 5372SOL    HW227336   7.669   1.255   3.134  2.7857 -0.6573  0.9498
 5373SOL     OW27337   0.771   4.151   3.566 -0.1656 -0.4681  0.3951
 5373SOL    HW127338   0.721   4.202   3.636  2.3707  0.5108  1.5440
 5373SOL    HW227339   0.794   4.212   3.491  0.5968 -0.5482  0.5619
 5374SOL     OW27340   7.981   8.784   2.010  0.1628 -0.5914 -0.3990
 5374SOL    HW127341   8.069   8.739   2.021  0.7120  0.6089  0.2101
 5374SOL    HW227342   7.921   8.759   2.086 -0.3586 -2.1526 -1.3093
 5375SOL     OW27343   0.028   0.402   5.209  0.2736  0.3501  0.2006
 5375SOL    HW127344  -0.011   0.330   5.266  0.4478 -0.5279 -0.7870
 5375SOL    HW227345   0.035   0.487   5.263  1.5895 -0.7820  1.8537
 5376SOL     OW27346   9.741   0.367   2.115  0.2987 -0.2865 -0.5372
 5376SOL    HW127347   9.772   0.427   2.188  0.5718 -1.9041  0.7095
 5376SOL    HW227348   9.641   0.375   2.105  0.2419 -0.1863  0.1231
 5377SOL     OW27349   6.564   8.733   5.789 -0.1567  0.2300 -0.0880
 5377SOL    HW127350   6.558   8.641   5.749  0.3418  0.5768 -0.9607
 5377SOL    HW227351   6.550   8.802   5.718 -1.1116  0.8299  0.6733
 5378SOL     OW27352   8.762   1.273   3.592  0.4136 -0.2968 -0.2624
 5378SOL    HW127353   8.821   1.235   3.663 -0.9085 -0.9813  0.4966
 5378SOL    HW227354   8.745   1.370   3.611  0.1628 -0.4471  0.2858
 5379SOL     OW27355   3.050   6.894   0.221 -0.0217  0.0742  0.2284
 5379SOL    HW127356   3.142   6.913   0.253 -0.4307  1.8932  0.3579
 5379SOL    HW227357   2.988   6.884   0.299  0.1732 -1.8836  0.1720
 5380SOL     OW27358   4.222   0.703   2.312 -0.3103  0.5895  0.7754
 5380SOL    HW127359   4.148   0.763   2.338 -0.5640  0.4031  0.4904
 5380SOL    HW227360   4.246   0.719   2.216 -1.2942 -0.7076  0.2997
 5381SOL     OW27361   9.930   9.239   5.725 -0.3233 -1.1992  0.3237
 5381SOL    HW127362   9.853   9.221   5.787  0.9293 -0.5443  2.1356
 5381SOL    HW227363   9.913   9.325   5.677 -1.6812 -2.1141 -0.8788
 5382SOL     OW27364   4.856   3.781   2.672  0.1122 -0.4664  0.6808
 5382SOL    HW127365   4.874   3.876   2.648  0.7906 -0.2407  2.0036
 5382SOL    HW227366   4.940   3.727   2.661 -0.6166 -1.2253 -1.4253
 5383SOL     OW27367   8.227   9.753   0.679 -0.5655 -0.1981  0.4785
 5383SOL    HW127368   8.251   9.711   0.767  1.7402  0.0430 -0.0022
 5383SOL    HW227369   8.187   9.843   0.695  1.1166  0.4307  1.2645
 5384SOL     OW27370   4.507   8.376   4.885  0.6962  0.2798 -0.2206
 5384SOL    HW127371   4.580   8.399   4.821  1.4959  1.2293  0.9999
 5384SOL    HW227372   4.420   8.412   4.852  1.0745  0.6356 -0.8358
 5385SOL     OW27373   7.968   9.157   3.241  0.2284  0.0249 -0.4819
 5385SOL    HW127374   7.916   9.132   3.323 -0.8346  0.5430 -0.9861
 5385SOL    HW227375   8.044   9.217   3.267 -0.1550  0.2572  0.1226
 5386SOL     OW27376   9.610   0.492   5.156 -0.2796  0.2920  0.0868
 5386SOL    HW127377   9.632   0.440   5.239 -2.4439 -0.6549  0.1083
 5386SOL    HW227378   9.601   0.429   5.079 -2.3276  0.6790 -0.0119
 5387SOL     OW27379   2.370   8.279   5.431  0.1329  0.5266  0.2642
 5387SOL    HW127380   2.381   8.275   5.332 -0.1283  0.1771  0.2479
 5387SOL    HW227381   2.439   8.222   5.475 -2.0123 -2.3248  0.1321
 5388SOL     OW27382   2.208   5.178   3.433 -0.2297 -0.1569 -0.2695
 5388SOL    HW127383   2.267   5.256   3.453  0.0484 -0.0961 -1.2662
 5388SOL    HW227384   2.204   5.165   3.334  0.2318 -1.7909 -0.0804
 5389SOL     OW27385   0.275   3.360   3.907 -1.1148  0.1811  0.3202
 5389SOL    HW127386   0.193   3.391   3.954 -0.3846  1.7634  0.5737
 5389SOL    HW227387   0.249   3.299   3.832 -2.4455 -0.1376  1.0258
 5390SOL     OW27388   4.374   4.005   5.445  0.3208 -0.4360  0.5626
 5390SOL    HW127389   4.283   3.965   5.446 -0.2391  0.8366  1.9961
 5390SOL    HW227390   4.372   4.093   5.396  1.0787 -1.0608 -0.6233
 5391SOL     OW27391   5.746   8.974   0.051  0.6834 -0.3629  0.0694
 5391SOL    HW127392   5.714   8.880   0.034 -0.3200  0.2885 -1.7353
 5391SOL    HW227393   5.693   9.014   0.126  1.4535 -1.4031  1.1819
 5392SOL     OW27394   4.487   7.380   1.805 -0.0916 -0.4154  0.1236
 5392SOL    HW127395   4.518   7.286   1.821 -1.4297 -0.3838  3.1792
 5392SOL    HW227396   4.408   7.378   1.744 -0.7333 -1.3693  0.9679
 5393SOL     OW27397   2.039   4.541   5.565 -0.4029 -0.2061  0.3151
 5393SOL    HW127398   1.964   4.475   5.559 -1.5875  1.3189 -2.2090
 5393SOL    HW227399   2.079   4.555   5.474  1.6088  0.5662  1.2797
 5394SOL     OW27400   2.289   1.768   5.008  0.0079  0.3799 -0.2297
 5394SOL    HW127401   2.329   1.689   5.053  0.4105 -0.3342 -1.8233
 5394SOL    HW227402   2.241   1.824   5.076  2.4892  0.5228  1.4755
 5395SOL     OW27403   7.863   7.595   4.926  0.3145  0.6003 -0.2729
 5395SOL    HW127404   7.788   7.661   4.935  1.3688  1.6817  0.8479
 5395SOL    HW227405   7.892   7.565   5.017  1.5610  0.5928 -0.6633
 5396SOL     OW27406   1.803   0.415   3.066  0.0357  0.7238 -0.0689
 5396SOL    HW127407   1.709   0.449   3.076  0.7306  2.3642  0.9749
 5396SOL    HW227408   1.867   0.484   3.100  1.5015 -1.4324  1.6268
 5397SOL     OW27409   8.920   9.824   1.368 -0.0656 -0.1995  0.6000
 5397SOL    HW127410   8.990   9.883   1.411 -0.0982 -1.3286  2.2387
 5397SOL    HW227411   8.844   9.811   1.431 -1.0478 -0.2801 -0.5798
 5398SOL     OW27412   2.759   5.917   1.984  0.2443  0.0291 -0.8738
 5398SOL    HW127413   2.826   5.986   2.012 -0.0470 -0.1980  0.4204
 5398SOL    HW227414   2.765   5.838   2.046  0.3848 -0.9918 -2.1806
 5399SOL     OW27415   7.855   0.483   2.272 -0.3268  0.1802 -0.0428
 5399SOL    HW127416   7.879   0.386   2.264  0.6282  0.2323  1.9492
 5399SOL    HW227417   7.757   0.495   2.257 -0.5110 -1.1454  0.0581
 5400SOL     OW27418   3.155   7.991   1.043  0.2315 -0.2365 -0.7085
 5400SOL    HW127419   3.067   8.038   1.035  0.6891  0.4661 -1.6908
 5400SOL    HW227420   3.140   7.892   1.046 -0.6214 -0.0964 -0.4130
 5401SOL     OW27421   6.149   7.655   5.563  0.8486 -0.1158  0.1990
 5401SOL    HW127422   6.214   7.582   5.585  1.0922 -0.2410 -0.9186
 5401SOL    HW227423   6.176   7.738   5.612  1.6127 -0.2864  0.0812
 5402SOL     OW27424   1.403   4.192   3.555 -0.3518 -0.1236  0.3241
 5402SOL    HW127425   1.345   4.260   3.599 -1.7619 -1.1896  0.1467
 5402SOL    HW227426   1.429   4.225   3.464  0.7363  1.0917  1.0491
 5403SOL     OW27427   7.416   0.501   6.349  0.3296 -0.6215 -0.3592
 5403SOL    HW127428   7.477   0.543   6.416 -1.2856  1.0825  0.0704
 5403SOL    HW227429   7.447   0.525   6.256 -0.0339  0.7431 -0.1337
 5404SOL     OW27430   9.929   8.670   0.661 -0.4612 -0.4501 -0.1498
 5404SOL    HW127431   9.891   8.578   0.669 -0.4770 -0.3168  1.3577
 5404SOL    HW227432   9.985   8.690   0.741  1.4789 -0.0234 -1.5841
 5405SOL     OW27433   5.285   0.508   3.494  0.2293  0.5279  0.0134
 5405SOL    HW127434   5.211   0.479   3.555  0.6444  0.1256  0.3290
 5405SOL    HW227435   5.287   0.449   3.413  0.7955 -0.0567  0.4479
 5406SOL     OW27436   0.991   0.576   0.981 -0.2606 -0.0437 -0.1196
 5406SOL    HW127437   0.900   0.600   0.946 -0.5676 -2.0192 -0.7403
 5406SOL    HW227438   1.061   0.617   0.923 -0.7541  0.3955 -0.4135
 5407SOL     OW27439   0.268   2.431   5.521  0.5113  0.0786 -0.0528
 5407SOL    HW127440   0.331   2.467   5.590 -0.5190 -2.5402  2.3345
 5407SOL    HW227441   0.185   2.486   5.520  0.7228  0.4132  0.4795
 5408SOL     OW27442   2.307   0.607   5.216 -0.0323  0.2232 -0.7172
 5408SOL    HW127443   2.378   0.591   5.285 -0.1353  2.3433 -0.0798
 5408SOL    HW227444   2.341   0.578   5.126  1.4226  0.6964 -0.3348
 5409SOL     OW27445   6.763   1.427   6.628  0.3423 -0.3050 -0.8033
 5409SOL    HW127446   6.734   1.341   6.588 -0.9991  0.5745 -1.7581
 5409SOL    HW227447   6.730   1.433   6.723  1.2903 -1.2458 -0.3977
 5410SOL     OW27448   4.574   1.766   6.417  0.5849  0.1914  0.1097
 5410SOL    HW127449   4.571   1.699   6.491  0.4177  0.3020  0.2022
 5410SOL    HW227450   4.581   1.858   6.456 -0.5356  0.3257  0.0072
 5411SOL     OW27451   4.269   7.638   3.430  0.2627 -0.5329 -0.1472
 5411SOL    HW127452   4.214   7.581   3.491  1.5887 -0.7092  0.8897
 5411SOL    HW227453   4.363   7.603   3.427  0.5474  0.2992 -1.2129
 5412SOL     OW27454   6.548   0.993   1.212  0.0156 -0.0463 -0.4810
 5412SOL    HW127455   6.639   0.958   1.188  0.8237  1.0710  0.8514
 5412SOL    HW227456   6.513   0.942   1.291  0.3874  0.8939  0.2959
 5413SOL     OW27457   8.842   4.946   0.193  0.1547 -0.0251 -0.2153
 5413SOL    HW127458   8.900   4.918   0.270 -0.4782 -1.3543 -0.2204
 5413SOL    HW227459   8.872   5.036   0.161  0.6398  0.3974  1.3640
 5414SOL     OW27460   4.761   0.382   5.023 -0.1455  0.1077 -0.1261
 5414SOL    HW127461   4.703   0.463   5.014 -0.6096 -0.3667 -1.5108
 5414SOL    HW227462   4.712   0.311   5.073  0.8664  1.2365  2.5687
 5415SOL     OW27463   0.085   6.076   5.634  0.0971 -0.0870  0.4092
 5415SOL    HW127464  -0.007   6.038   5.627  0.9214 -1.7859 -1.7305
 5415SOL    HW227465   0.099   6.113   5.726 -2.0512 -1.5536  1.3582
 5416SOL     OW27466   5.361   0.671   5.919 -0.6378 -0.0647 -0.6164
 5416SOL    HW127467   5.309   0.586   5.923  0.2443 -0.6514 -1.3020
 5416SOL    HW227468   5.458   0.651   5.936 -0.6830  1.0667  1.1411
 5417SOL     OW27469   8.478   7.118   3.118 -0.1700 -0.3483 -0.0830
 5417SOL    HW127470   8.537   7.114   3.038  0.3939 -0.1485  0.3212
 5417SOL    HW227471   8.532   7.104   3.200 -0.6818 -0.1484  0.2917
 5418SOL     OW27472   2.750   0.463   5.853 -0.0826 -0.0235 -0.3039
 5418SOL    HW127473   2.755   0.522   5.773 -1.7912  1.8558  0.9206
 5418SOL    HW227474   2.674   0.491   5.911  0.4224 -2.0538  1.4309
 5419SOL     OW27475   4.663   9.167   2.945 -0.2418  0.1178 -0.1478
 5419SOL    HW127476   4.667   9.139   2.849  0.5899  0.1925 -0.1365
 5419SOL    HW227477   4.732   9.238   2.962 -0.1878 -0.1032  0.5707
 5420SOL     OW27478   4.209   3.167   2.484 -0.3919 -0.0760  0.4861
 5420SOL    HW127479   4.156   3.085   2.464  0.3458 -0.3922 -0.2113
 5420SOL    HW227480   4.158   3.248   2.455 -0.4830 -0.3811 -0.2284
 5421SOL     OW27481   0.838   5.528   0.142 -0.2450  0.1950 -0.2346
 5421SOL    HW127482   0.765   5.496   0.203  2.0048 -2.8380  0.9812
 5421SOL    HW227483   0.811   5.511   0.047 -2.2218  1.5469  0.0612
 5422SOL     OW27484   3.996   1.730   5.952 -0.1543 -0.3937 -0.1404
 5422SOL    HW127485   3.995   1.822   5.912  0.7902 -0.1637  0.3655
 5422SOL    HW227486   3.914   1.718   6.008  0.0530  0.3895  0.3413
 5423SOL     OW27487   1.265   9.010   6.574  0.5092  0.1148  0.3429
 5423SOL    HW127488   1.248   9.031   6.670 -0.1513 -0.1847  0.2902
 5423SOL    HW227489   1.287   9.095   6.525  0.3984  0.3280  0.6615
 5424SOL     OW27490   8.064   9.608   1.844  0.0169  0.2695 -0.2384
 5424SOL    HW127491   8.050   9.630   1.748  1.6448  3.9115  0.2729
 5424SOL    HW227492   7.980   9.626   1.895 -0.4207 -0.3261 -0.7401
 5425SOL     OW27493   7.778   9.892   5.457 -0.2876 -0.3233  0.4582
 5425SOL    HW127494   7.688   9.867   5.420 -0.5446  0.7455  0.3551
 5425SOL    HW227495   7.828   9.946   5.389 -0.5361  1.1764  1.4513
 5426SOL     OW27496   4.581   8.904   1.907 -0.1232  0.2336 -0.0020
 5426SOL    HW127497   4.597   8.916   1.809  0.5083 -0.2509  0.0363
 5426SOL    HW227498   4.667   8.882   1.953 -0.6330 -0.8956  0.4519
 5427SOL     OW27499   9.988   3.420   5.433  0.1879  0.2678  0.2407
 5427SOL    HW127500   9.917   3.491   5.439 -0.0997  0.1106 -1.0708
 5427SOL    HW227501   9.984   3.362   5.514 -1.2512  0.1931  0.1305
 5428SOL     OW27502   6.377   9.630   4.846  0.1644  0.5687  0.5116
 5428SOL    HW127503   6.389   9.546   4.792  2.1467  1.2319 -0.1063
 5428SOL    HW227504   6.459   9.646   4.901 -0.4488  1.7917  1.0826
 5429SOL     OW27505   0.261   2.397   3.762  0.7941  0.4617  0.1934
 5429SOL    HW127506   0.326   2.472   3.755  0.1502  0.8609 -1.7539
 5429SOL    HW227507   0.168   2.433   3.760  0.4497 -0.4517 -2.1121
 5430SOL     OW27508   3.089   7.276   6.298  0.1208 -0.4725 -0.4143
 5430SOL    HW127509   3.155   7.201   6.300 -0.0860 -0.6888 -1.3041
 5430SOL    HW227510   3.078   7.308   6.204  0.9606  1.3500  0.0712
 5431SOL     OW27511   6.707   4.144   0.107 -0.3406 -0.0804  0.2829
 5431SOL    HW127512   6.676   4.234   0.076 -0.9522  0.0459  1.2434
 5431SOL    HW227513   6.645   4.109   0.178  0.4868 -0.7848  0.6743
 5432SOL     OW27514   8.664   2.063   4.567  0.3063  0.2710 -0.3621
 5432SOL    HW127515   8.697   2.045   4.474  0.0240  1.0095 -0.6085
 5432SOL    HW227516   8.641   2.160   4.575 -1.8427 -0.2268 -0.2001
 5433SOL     OW27517   0.367   4.220   1.894 -0.5500 -0.2902 -0.1580
 5433SOL    HW127518   0.367   4.260   1.802 -1.8835 -0.4737 -0.2554
 5433SOL    HW227519   0.381   4.121   1.887 -0.8736 -0.3345 -0.1795
 5434SOL     OW27520   1.679   4.238   2.730 -0.0007 -0.3966 -0.6086
 5434SOL    HW127521   1.763   4.228   2.783 -0.2804 -0.1564 -0.1109
 5434SOL    HW227522   1.639   4.328   2.748 -0.5486 -0.6422 -0.5733
 5435SOL     OW27523   8.376   5.840   5.677 -0.4833 -0.7415  0.0922
 5435SOL    HW127524   8.291   5.812   5.720  0.1299 -1.1005  1.0838
 5435SOL    HW227525   8.446   5.854   5.747  0.7661 -2.1501 -0.8552
 5436SOL     OW27526   2.881   6.600   5.137 -0.7647  0.2044  0.7522
 5436SOL    HW127527   2.884   6.537   5.059  1.5623  1.3183 -0.1277
 5436SOL    HW227528   2.854   6.551   5.219  1.7738 -2.1616  0.2532
 5437SOL     OW27529   5.250   8.466   6.634 -0.2540 -0.1629  0.2054
 5437SOL    HW127530   5.304   8.518   6.700  2.5566 -1.6328 -0.8752
 5437SOL    HW227531   5.187   8.528   6.587  1.8009  1.9849  0.1589
 5438SOL     OW27532   7.812   3.553   5.300  0.5434 -0.3580 -0.3407
 5438SOL    HW127533   7.815   3.506   5.388  2.5776 -0.3694 -0.4007
 5438SOL    HW227534   7.823   3.487   5.226 -0.5216 -0.2638 -0.6018
 5439SOL     OW27535   2.804   5.582   1.864  0.2407  0.1451  0.5704
 5439SOL    HW127536   2.855   5.652   1.815  0.6949  0.9136  2.1045
 5439SOL    HW227537   2.783   5.506   1.802  1.4225  0.7652 -0.6087
 5440SOL     OW27538   9.890   4.994   5.819  0.0286 -0.3432 -0.5522
 5440SOL    HW127539   9.916   4.984   5.915 -2.0187  0.1821  0.0795
 5440SOL    HW227540   9.801   5.039   5.813 -0.0713 -0.7761 -2.6943
 5441SOL     OW27541   7.423   1.701   5.964 -0.2612  0.4592 -0.3813
 5441SOL    HW127542   7.422   1.601   5.953 -0.3007  0.3897  0.2704
 5441SOL    HW227543   7.475   1.741   5.888  0.5052 -0.1207 -0.1781
 5442SOL     OW27544   5.141   4.046   0.004  0.1764 -0.1188 -0.4303
 5442SOL    HW127545   5.056   4.083  -0.034 -0.7659 -1.2452  0.5314
 5442SOL    HW227546   5.182   4.113   0.066  0.1812  0.5557 -1.1473
 5443SOL     OW27547   3.848   9.024   6.040 -0.2293  0.5843  0.4553
 5443SOL    HW127548   3.934   9.059   6.004 -2.6542  3.9535 -2.3647
 5443SOL    HW227549   3.840   8.926   6.019  2.4400  0.4308 -0.0222
 5444SOL     OW27550   3.784   4.471   1.809 -0.0627 -0.5318  0.1832
 5444SOL    HW127551   3.712   4.409   1.841 -1.1313  0.4830 -0.2100
 5444SOL    HW227552   3.781   4.476   1.709 -1.2186  1.5974  0.3079
 5445SOL     OW27553   1.270   8.232   3.243 -0.2658  0.4474 -0.2316
 5445SOL    HW127554   1.185   8.226   3.294 -1.0239  0.2515 -1.5083
 5445SOL    HW227555   1.258   8.294   3.165  0.0508 -1.3669 -1.7670
 5446SOL     OW27556   4.618   1.055   4.450 -0.0721  0.3774 -0.2644
 5446SOL    HW127557   4.651   0.961   4.456  0.7510  0.5023 -2.5725
 5446SOL    HW227558   4.630   1.100   4.539 -0.7805 -1.7704  0.9428
 5447SOL     OW27559   8.554   5.222   5.302  0.2813 -0.1988 -0.2047
 5447SOL    HW127560   8.576   5.207   5.205  1.3228  0.9609 -0.1644
 5447SOL    HW227561   8.481   5.290   5.310  0.6045  0.1404 -0.1515
 5448SOL     OW27562   2.274   1.128   1.391 -0.3711 -0.0440  0.3431
 5448SOL    HW127563   2.180   1.096   1.392 -0.0430 -1.0402  0.2483
 5448SOL    HW227564   2.307   1.130   1.296  0.1557 -1.0856  0.4954
 5449SOL     OW27565   4.452   1.614   2.079  0.1289 -0.1697 -0.0369
 5449SOL    HW127566   4.526   1.566   2.126  0.3896  1.1220  0.8947
 5449SOL    HW227567   4.487   1.653   1.994  0.5062  0.4230  0.3930
 5450SOL     OW27568   8.200   1.555   4.340  0.0629 -0.1700 -0.3365
 5450SOL    HW127569   8.292   1.562   4.379 -1.0865 -0.8095  2.5991
 5450SOL    HW227570   8.155   1.473   4.374 -2.2562  1.0562 -0.3070
 5451SOL     OW27571   6.926   4.130   0.416 -0.3736 -0.5705  0.3010
 5451SOL    HW127572   6.882   4.208   0.372  0.9940 -0.5891 -1.1439
 5451SOL    HW227573   6.900   4.127   0.513 -3.4825 -0.5765 -0.4961
 5452SOL     OW27574   2.085   9.598   4.870  0.0533  0.5152  0.1714
 5452SOL    HW127575   2.161   9.662   4.857  0.2916  0.0245 -0.8845
 5452SOL    HW227576   2.107   9.510   4.828 -1.7752  0.8837 -1.6427
 5453SOL     OW27577   9.658   7.280   4.000  0.1927  0.2111 -0.7480
 5453SOL    HW127578   9.624   7.189   4.025  1.0676  0.1763  0.3997
 5453SOL    HW227579   9.655   7.339   4.081  0.0510  1.0774 -1.3808
 5454SOL     OW27580   4.821   4.431   4.132 -0.0409 -0.4080 -0.1359
 5454SOL    HW127581   4.730   4.473   4.137 -0.0318 -0.4156  0.1121
 5454SOL    HW227582   4.827   4.373   4.051  0.4817  1.3174 -1.3636
 5455SOL     OW27583   5.148   1.724   1.955  0.4480 -0.0119 -0.4281
 5455SOL    HW127584   5.157   1.801   1.891 -2.5126 -0.2932 -1.2356
 5455SOL    HW227585   5.216   1.654   1.933  0.7178  0.7398 -2.0365
 5456SOL     OW27586   9.953   0.962   2.177  0.3494 -0.1851  0.4606
 5456SOL    HW127587   9.969   1.060   2.181  0.0557 -0.0969 -0.5986
 5456SOL    HW227588   9.889   0.936   2.249  1.1333  0.2527  1.3346
 5457SOL     OW27589   8.459   0.293   0.048 -0.3701  0.3011 -0.7207
 5457SOL    HW127590   8.558   0.309   0.053 -0.6023  1.6455 -0.3291
 5457SOL    HW227591   8.429   0.303  -0.047 -0.2981  0.8799 -0.6817
 5458SOL     OW27592   3.462   4.298   1.532 -0.1565 -0.2707 -0.5737
 5458SOL    HW127593   3.515   4.337   1.456 -0.8013  0.2693 -0.7471
 5458SOL    HW227594   3.516   4.303   1.616  0.7689 -1.3498 -1.0962
 5459SOL     OW27595   6.099   0.837   4.494  0.0349 -0.0089  0.0265
 5459SOL    HW127596   6.048   0.923   4.503  0.3382  0.1120  0.6201
 5459SOL    HW227597   6.039   0.767   4.457 -0.8012 -0.0718  1.4326
 5460SOL     OW27598   1.964   6.946   4.469 -0.0446 -0.3283  0.5995
 5460SOL    HW127599   1.864   6.939   4.472 -0.1404  0.2865 -0.6555
 5460SOL    HW227600   2.003   6.902   4.550 -1.2185 -2.4570  0.0445
 5461SOL     OW27601   0.317   5.929   1.509 -0.1122  0.3289 -0.2474
 5461SOL    HW127602   0.273   6.005   1.557  0.3008  0.4001  0.0212
 5461SOL    HW227603   0.292   5.843   1.553  0.1044  0.3779 -0.0319
 5462SOL     OW27604   4.816   2.048   3.717  0.2253 -0.3639  0.0061
 5462SOL    HW127605   4.834   2.088   3.627  0.0573  0.9330  0.5330
 5462SOL    HW227606   4.722   2.012   3.720  0.2957 -0.5825 -0.3926
 5463SOL     OW27607   0.542   7.601   2.600  0.3621 -0.2396  0.1861
 5463SOL    HW127608   0.475   7.528   2.587 -0.5478  0.4363  0.9663
 5463SOL    HW227609   0.494   7.687   2.618  1.4328  0.1554  1.2269
 5464SOL     OW27610   3.127   0.881   2.840 -0.1485 -0.9162 -0.1008
 5464SOL    HW127611   3.105   0.836   2.927 -1.1972  0.2675  0.2551
 5464SOL    HW227612   3.042   0.902   2.791  0.2736  1.5921  0.2034
 5465SOL     OW27613   4.115   2.296   4.771  0.6538  0.2693 -0.0686
 5465SOL    HW127614   4.045   2.242   4.723 -1.9372  0.7056  3.0196
 5465SOL    HW227615   4.193   2.237   4.793  0.4989 -0.6988 -1.9576
 5466SOL     OW27616   4.911   2.380   1.221 -0.4559 -0.0823  0.2997
 5466SOL    HW127617   4.912   2.464   1.276 -2.8527  0.5710 -0.5903
 5466SOL    HW227618   4.822   2.335   1.232  0.8669 -2.6270  0.9170
 5467SOL     OW27619   2.545   0.505   1.385 -0.6121  0.5211 -0.0787
 5467SOL    HW127620   2.633   0.545   1.357 -0.2414  0.2488  0.6854
 5467SOL    HW227621   2.551   0.405   1.380 -0.0181  0.3914  2.4561
 5468SOL     OW27622   4.327   3.927   4.396 -0.6720 -0.2353  0.0826
 5468SOL    HW127623   4.341   3.845   4.341 -1.2880  1.1790 -2.2553
 5468SOL    HW227624   4.230   3.933   4.422 -0.8811  0.3239 -0.7694
 5469SOL     OW27625   9.321   3.610   2.766 -0.4584 -0.0650 -0.0761
 5469SOL    HW127626   9.232   3.593   2.808 -0.4636  0.0183 -0.0545
 5469SOL    HW227627   9.378   3.663   2.829 -1.5272  2.7257 -1.3601
 5470SOL     OW27628   4.831   9.611   4.377 -0.3149  0.2650 -0.1060
 5470SOL    HW127629   4.922   9.603   4.337 -0.7262  0.0400 -1.0015
 5470SOL    HW227630   4.827   9.557   4.461 -0.1307 -1.0527 -0.9363
 5471SOL     OW27631   9.865   0.904   3.940  0.2380  0.2113  0.2120
 5471SOL    HW127632   9.773   0.887   3.976  1.3017 -0.6056  2.6243
 5471SOL    HW227633   9.858   0.956   3.854 -2.4613 -0.0164  0.2485
 5472SOL     OW27634   8.767   0.250   2.765 -0.1617  0.0176  0.0881
 5472SOL    HW127635   8.695   0.182   2.756  0.9740 -1.0969 -0.6047
 5472SOL    HW227636   8.730   0.330   2.813 -2.0407 -0.2511 -0.8395
 5473SOL     OW27637   8.934   3.227   2.442  0.5291  0.0989 -0.4204
 5473SOL    HW127638   8.997   3.246   2.517  0.8513 -0.1738 -0.6223
 5473SOL    HW227639   8.867   3.159   2.471  0.6306  0.0200 -0.3674
 5474SOL     OW27640   3.746   1.308   1.063  0.2964 -0.3412 -0.1048
 5474SOL    HW127641   3.657   1.282   1.101  0.4660 -0.9762 -0.1251
 5474SOL    HW227642   3.745   1.294   0.964 -0.1281  1.2652 -0.3266
 5475SOL     OW27643   3.171   0.334   5.124  0.4793  0.0559 -0.1217
 5475SOL    HW127644   3.241   0.263   5.125  1.0712  0.5895 -1.6300
 5475SOL    HW227645   3.189   0.397   5.048 -2.6730 -0.8599 -1.7322
 5476SOL     OW27646   6.317   8.558   5.440  0.0344 -0.2079  0.4320
 5476SOL    HW127647   6.222   8.576   5.465 -1.2836 -3.3939 -1.8824
 5476SOL    HW227648   6.369   8.538   5.522 -1.0244  2.4846  1.8347
 5477SOL     OW27649   4.953   3.392   5.102 -0.4979 -0.2434  0.3110
 5477SOL    HW127650   5.052   3.381   5.104 -0.5153 -0.4945 -0.1908
 5477SOL    HW227651   4.924   3.420   5.010 -1.0232 -1.4269  0.1115
 5478SOL     OW27652   9.179   4.226   6.636 -0.0757 -0.0647 -0.1799
 5478SOL    HW127653   9.088   4.260   6.657 -0.3623 -1.5006  0.9994
 5478SOL    HW227654   9.218   4.278   6.559 -1.7067  0.8183 -0.4198
 5479SOL     OW27655   0.255   6.902   2.133  0.3432  0.5329 -0.2841
 5479SOL    HW127656   0.346   6.868   2.158 -0.5687  0.3261  2.9843
 5479SOL    HW227657   0.226   6.971   2.199 -1.9939  0.3695 -1.0947
 5480SOL     OW27658   1.829   5.835   0.669  0.2863 -0.1112 -0.3611
 5480SOL    HW127659   1.912   5.799   0.713 -0.1718  0.3080  0.8466
 5480SOL    HW227660   1.794   5.912   0.722  0.0693  0.7909 -1.7959
 5481SOL     OW27661   2.923   3.425   2.173  0.1507 -0.0603 -0.5067
 5481SOL    HW127662   3.003   3.372   2.201 -1.3741 -2.8725 -1.1953
 5481SOL    HW227663   2.869   3.450   2.253  0.0636 -0.9581 -0.2811
 5482SOL     OW27664   3.283   8.423   6.367  0.0101 -0.2036 -0.3329
 5482SOL    HW127665   3.370   8.446   6.411 -0.7176 -0.9634  1.5456
 5482SOL    HW227666   3.291   8.437   6.268  2.0072  0.5025 -0.0935
 5483SOL     OW27667   7.634   9.328   5.710  0.2226 -0.2434 -0.4148
 5483SOL    HW127668   7.571   9.374   5.772 -0.4363  0.2514 -1.4296
 5483SOL    HW227669   7.585   9.302   5.626  1.4416  0.4846 -1.3733
 5484SOL     OW27670   5.869   7.871   5.346  0.1619 -0.3476 -0.4976
 5484SOL    HW127671   5.867   7.804   5.420  2.5017  1.6616  1.4843
 5484SOL    HW227672   5.956   7.864   5.297 -0.2179  0.2138 -1.2597
 5485SOL     OW27673   8.206   1.946   6.342 -0.5003 -0.1254  0.3219
 5485SOL    HW127674   8.258   1.871   6.300 -0.3028 -0.6702  1.4992
 5485SOL    HW227675   8.266   1.999   6.402 -1.0503 -0.1020  0.8581
 5486SOL     OW27676   8.390   3.324   2.833  0.1888  0.1237  0.0316
 5486SOL    HW127677   8.394   3.225   2.815  0.9689 -0.3798  2.6957
 5486SOL    HW227678   8.294   3.351   2.845  0.0331 -0.5784  0.4858
 5487SOL     OW27679   9.387   5.831   5.799 -0.1836 -0.4951 -0.1779
 5487SOL    HW127680   9.330   5.908   5.768  2.5919  0.6746 -2.5632
 5487SOL    HW227681   9.447   5.863   5.872  0.3598 -0.6169 -0.5706
 5488SOL     OW27682   9.018   2.547   2.517 -0.0268  0.1145 -0.2284
 5488SOL    HW127683   9.081   2.568   2.592  0.3914 -1.9302  0.0266
 5488SOL    HW227684   8.944   2.489   2.552 -0.4696  0.1268 -1.1512
 5489SOL     OW27685   4.307   1.063   1.012 -0.2540 -0.1078  0.0338
 5489SOL    HW127686   4.208   1.056   1.012 -0.2426 -0.2318 -0.6434
 5489SOL    HW227687   4.340   1.060   1.106 -0.8753 -0.2545  0.2485
 5490SOL     OW27688   0.128   9.520   5.928  0.2877 -0.7099 -0.0550
 5490SOL    HW127689   0.093   9.486   6.016 -0.5632  0.6030  0.1251
 5490SOL    HW227690   0.114   9.619   5.923  1.5722 -0.5687 -1.1095
 5491SOL     OW27691   4.996   8.098   1.610 -0.0202  0.3370  0.0442
 5491SOL    HW127692   5.032   8.165   1.545  1.4805 -0.0536  0.4525
 5491SOL    HW227693   4.946   8.027   1.561 -1.0368  1.3926 -0.4522
 5492SOL     OW27694   2.688   9.290   2.701 -0.2583  0.5845  0.1598
 5492SOL    HW127695   2.639   9.206   2.678  0.4974  0.1951 -0.0471
 5492SOL    HW227696   2.770   9.268   2.755  1.1090  0.9699 -1.6908
 5493SOL     OW27697   1.603   9.530   6.218  0.2449 -0.6701 -0.0499
 5493SOL    HW127698   1.515   9.576   6.201  1.3826  0.5063 -3.0670
 5493SOL    HW227699   1.622   9.466   6.143  1.5590 -1.5589  1.0333
 5494SOL     OW27700   6.132   8.520   5.718 -0.1106 -0.1662  0.2899
 5494SOL    HW127701   6.210   8.470   5.757  0.2784 -0.8681 -1.3506
 5494SOL    HW227702   6.122   8.607   5.765  0.4065 -0.9364  1.8918
 5495SOL     OW27703   0.616   6.972   3.463  0.1957 -0.0734  0.0055
 5495SOL    HW127704   0.570   6.996   3.548  0.3962  1.4623 -0.3052
 5495SOL    HW227705   0.675   6.893   3.478 -0.2048 -0.1583  1.1467
 5496SOL     OW27706   1.235   6.865   0.449  0.0785 -0.2740 -0.2246
 5496SOL    HW127707   1.332   6.879   0.469  0.2753  0.2229 -1.5064
 5496SOL    HW227708   1.225   6.796   0.378 -0.5046 -0.2443 -0.1731
 5497SOL     OW27709   7.588   9.964   0.715 -0.3847  0.0701  0.3275
 5497SOL    HW127710   7.638   9.881   0.689  1.1035  1.0203  0.0534
 5497SOL    HW227711   7.517   9.984   0.648  0.2000 -0.2090 -0.3783
 5498SOL     OW27712   1.248   1.429   2.006  0.5071  0.2249  0.7571
 5498SOL    HW127713   1.322   1.369   1.975 -1.3015 -1.7938  0.2311
 5498SOL    HW227714   1.226   1.408   2.101  1.4925  1.7683  1.3484
 5499SOL     OW27715   0.316   4.184   3.902 -0.0406  0.1190 -0.3241
 5499SOL    HW127716   0.345   4.267   3.855 -1.2696  0.1773 -0.9912
 5499SOL    HW227717   0.370   4.106   3.870  0.4908  0.5061 -0.3609
 5500SOL     OW27718   3.201   1.100   1.904 -0.3082  0.3025  0.3181
 5500SOL    HW127719   3.281   1.159   1.906  0.1313 -0.3070  1.8022
 5500SOL    HW227720   3.148   1.112   1.988  0.1499 -1.8648  0.9612
 5501SOL     OW27721   1.773   7.348   2.341  0.4687  0.5681 -0.3324
 5501SOL    HW127722   1.723   7.271   2.303 -1.8017  2.2809 -0.9906
 5501SOL    HW227723   1.852   7.369   2.284  0.5067 -0.6260 -0.7177
 5502SOL     OW27724   4.405   8.397   3.438 -0.1132 -0.0737 -0.1816
 5502SOL    HW127725   4.446   8.399   3.529 -0.7204  1.0797  0.0731
 5502SOL    HW227726   4.476   8.404   3.369  0.0623  3.1205  0.2703
 5503SOL     OW27727   3.261   5.497   4.046  0.2535  0.2370  0.1830
 5503SOL    HW127728   3.275   5.596   4.053 -1.0816  0.3419  1.9726
 5503SOL    HW227729   3.340   5.449   4.083  0.7595  0.6227 -0.3788
 5504SOL     OW27730   2.561   4.841   0.817  0.2730 -0.3084  0.5041
 5504SOL    HW127731   2.551   4.794   0.730  0.5739  2.7184 -1.2137
 5504SOL    HW227732   2.658   4.856   0.836  0.1146  1.3219  0.0782
 5505SOL     OW27733   9.780   1.206   0.612 -0.2412  0.0471 -0.4358
 5505SOL    HW127734   9.726   1.147   0.552  1.5898 -1.3181 -0.7848
 5505SOL    HW227735   9.829   1.149   0.678  1.0963  1.2353 -0.4040
 5506SOL     OW27736   0.534   1.779   6.584  0.4004 -0.1011 -0.1567
 5506SOL    HW127737   0.496   1.780   6.677  0.5579  0.6650 -0.0972
 5506SOL    HW227738   0.577   1.867   6.565  3.1114 -1.2980  0.1640
 5507SOL     OW27739   6.925   3.103   3.149 -0.1431 -0.1460  0.0900
 5507SOL    HW127740   6.995   3.133   3.214 -0.6084  1.4391 -0.1313
 5507SOL    HW227741   6.947   3.010   3.117  0.7754 -0.4375  1.5213
 5508SOL     OW27742   5.404   1.946   4.441 -0.3724  0.2077  0.3010
 5508SOL    HW127743   5.482   2.009   4.434  1.0613 -1.4776  0.5260
 5508SOL    HW227744   5.376   1.917   4.350  1.5655 -1.8614  0.3129
 5509SOL     OW27745   1.316   0.673   1.479 -0.4818 -0.0299 -1.1661
 5509SOL    HW127746   1.345   0.589   1.433  0.7177  0.1104 -0.6850
 5509SOL    HW227747   1.385   0.744   1.465 -0.0498 -0.0110  0.8883
 5510SOL     OW27748   0.477   1.187   4.799 -0.0830 -0.1545  0.6840
 5510SOL    HW127749   0.434   1.276   4.807  1.3295  0.4169  2.2262
 5510SOL    HW227750   0.559   1.194   4.742 -0.4552 -0.6668  0.0698
 5511SOL     OW27751   7.015   9.919   4.449 -0.0339 -0.1803  0.9937
 5511SOL    HW127752   7.103   9.966   4.438 -0.3104  0.3238  0.9092
 5511SOL    HW227753   6.961   9.966   4.518 -1.0619  0.7480 -0.4202
 5512SOL     OW27754   0.505   7.769   1.790 -0.2610 -0.3746 -0.2127
 5512SOL    HW127755   0.540   7.815   1.871 -0.7248 -1.3346  0.5507
 5512SOL    HW227756   0.407   7.788   1.780 -0.3628 -0.8576 -0.1332
 5513SOL     OW27757   0.763   3.507   3.666 -0.3258  0.1945  0.5853
 5513SOL    HW127758   0.749   3.530   3.763 -1.3014  1.9444  0.0577
 5513SOL    HW227759   0.707   3.568   3.609  0.1833 -0.8630 -1.0839
 5514SOL     OW27760   4.004   3.426   2.685 -0.3724  0.2985  0.4839
 5514SOL    HW127761   3.933   3.369   2.645  0.3400  0.3931 -0.9412
 5514SOL    HW227762   4.019   3.507   2.628  0.0364  0.8872  1.4063
 5515SOL     OW27763   1.005   9.451   2.454  0.0814  0.9368 -0.0569
 5515SOL    HW127764   0.911   9.420   2.446  0.8102 -1.3603 -0.1487
 5515SOL    HW227765   1.008   9.540   2.500 -2.3128  2.4102 -2.6142
 5516SOL     OW27766   9.444   8.054   4.893 -0.3815  0.1004  0.0437
 5516SOL    HW127767   9.517   8.053   4.961 -0.1206 -2.4727 -0.2168
 5516SOL    HW227768   9.482   8.065   4.802 -0.4406  0.2084  0.0317
 5517SOL     OW27769   7.790   1.293   3.450 -0.0742 -0.2719 -0.4856
 5517SOL    HW127770   7.766   1.323   3.357  0.9653 -1.4393 -1.1468
 5517SOL    HW227771   7.819   1.197   3.447  1.6353  0.1882  0.7797
 5518SOL     OW27772   9.571   2.146   5.634 -0.0286  0.0167  0.5247
 5518SOL    HW127773   9.565   2.100   5.722 -0.3020  1.3223  1.2124
 5518SOL    HW227774   9.480   2.180   5.608  0.3518  1.1225  0.5802
 5519SOL     OW27775   1.056   8.779   1.962  0.5214  0.2874 -0.0237
 5519SOL    HW127776   1.094   8.868   1.938 -2.1904  1.5970  0.4776
 5519SOL    HW227777   1.070   8.715   1.886  1.8762  1.3070 -0.6398
 5520SOL     OW27778   7.476   3.521   0.009  0.0358 -0.2227 -0.0407
 5520SOL    HW127779   7.565   3.492  -0.027  0.0345 -0.1767 -0.0816
 5520SOL    HW227780   7.464   3.619  -0.007  1.4672  0.4969  3.0704
 5521SOL     OW27781   9.411   6.027   6.475 -0.0462 -0.2899 -0.6512
 5521SOL    HW127782   9.400   5.974   6.558  0.9450 -2.0922 -1.6465
 5521SOL    HW227783   9.401   5.967   6.395 -2.1673  1.6136 -1.8689
 5522SOL     OW27784   7.884   4.058   4.757  0.0705 -0.5340 -0.0783
 5522SOL    HW127785   7.909   4.152   4.784  0.5399 -0.5930 -0.3019
 5522SOL    HW227786   7.862   4.056   4.660 -0.6484 -0.5176  0.0808
 5523SOL     OW27787   0.030   2.756   0.296  0.1663 -0.0129 -0.1794
 5523SOL    HW127788   0.074   2.753   0.206 -0.2803 -0.9476 -0.3746
 5523SOL    HW227789   0.097   2.734   0.366  0.1681 -0.7891 -0.4202
 5524SOL     OW27790   6.246   9.085   3.681  0.0432  0.4930  0.4493
 5524SOL    HW127791   6.232   9.161   3.617  0.1136 -0.1235 -0.3136
 5524SOL    HW227792   6.242   9.118   3.775 -0.3601  1.3612  0.1248
 5525SOL     OW27793   3.538   6.605   2.050 -0.3759 -0.8172 -0.0757
 5525SOL    HW127794   3.471   6.665   2.093 -0.7836 -0.7323 -0.8144
 5525SOL    HW227795   3.599   6.659   1.991 -1.0164 -1.1811 -1.0811
 5526SOL     OW27796   9.687   8.945   3.579 -0.2100  0.6702 -0.0665
 5526SOL    HW127797   9.781   8.928   3.609 -0.2501 -1.3879 -0.9849
 5526SOL    HW227798   9.681   9.033   3.533  1.5536  0.2485 -1.1200
 5527SOL     OW27799   7.177   8.800   5.686  0.4270 -0.1135 -0.4363
 5527SOL    HW127800   7.100   8.845   5.733  1.2632  1.5934 -0.6783
 5527SOL    HW227801   7.253   8.790   5.749  0.7585  0.1243 -0.7994
 5528SOL     OW27802   9.344   3.126   4.958  1.1832 -0.0376 -0.1574
 5528SOL    HW127803   9.413   3.055   4.971  1.9568  0.3567 -1.9927
 5528SOL    HW227804   9.389   3.212   4.934  0.1045  0.4658 -0.4127
 5529SOL     OW27805   3.736   4.205   6.123  1.0231 -0.4263 -0.3455
 5529SOL    HW127806   3.734   4.197   6.223  2.5094  0.4644 -0.2341
 5529SOL    HW227807   3.799   4.278   6.096  1.3434 -1.2707 -1.9671
 5530SOL     OW27808   3.695   2.310   2.831 -0.1274  0.6313 -0.0204
 5530SOL    HW127809   3.651   2.260   2.756  1.2105 -0.8922  0.1718
 5530SOL    HW227810   3.739   2.244   2.893  0.3649  1.9811  1.0882
 5531SOL     OW27811   7.779   1.706   5.391  0.1108 -0.3531 -0.2423
 5531SOL    HW127812   7.744   1.800   5.392  0.9754 -0.0307  0.3768
 5531SOL    HW227813   7.879   1.708   5.390  0.1527 -1.2582  1.1348
 5532SOL     OW27814   7.660   2.174   1.600  0.3243  0.3368 -0.4571
 5532SOL    HW127815   7.570   2.169   1.557  0.7030 -0.8762 -1.1233
 5532SOL    HW227816   7.713   2.093   1.577  0.8440  0.0568  1.6383
 5533SOL     OW27817   1.908   9.722   6.116 -0.6718 -0.1627  0.0312
 5533SOL    HW127818   1.880   9.706   6.021  2.3827 -0.2440 -0.9336
 5533SOL    HW227819   1.929   9.635   6.160  1.2567  0.0586 -0.3750
 5534SOL     OW27820   8.714   6.615   6.253 -0.3145 -0.1143 -0.3841
 5534SOL    HW127821   8.765   6.634   6.169  0.7087  0.4326  0.3476
 5534SOL    HW227822   8.705   6.700   6.306 -0.6359 -0.5257  0.2260
 5535SOL     OW27823   5.554   2.448   4.401  0.2559  0.7707 -0.2849
 5535SOL    HW127824   5.653   2.439   4.398  0.0365 -2.5934  0.6085
 5535SOL    HW227825   5.516   2.438   4.308  0.5490 -1.1884 -0.2103
 5536SOL     OW27826   1.845   2.612   3.534  0.4596 -0.0386  0.0979
 5536SOL    HW127827   1.754   2.637   3.501 -0.0365 -1.9022 -0.0049
 5536SOL    HW227828   1.910   2.684   3.510 -0.6030  0.3658 -1.6390
 5537SOL     OW27829   2.642   8.252   4.715 -0.0017 -0.1600 -0.3478
 5537SOL    HW127830   2.614   8.191   4.642  0.8363  0.6717 -1.3850
 5537SOL    HW227831   2.623   8.347   4.689  2.7872  0.3639 -0.6928
 5538SOL     OW27832   9.068   0.719   4.987  0.3671 -0.3946 -0.2520
 5538SOL    HW127833   9.138   0.656   5.022 -0.3669 -0.3376  1.3647
 5538SOL    HW227834   9.108   0.811   4.979  0.2491 -0.1621  1.5604
 5539SOL     OW27835   9.171   5.105   6.535  0.4587 -0.1386  0.3477
 5539SOL    HW127836   9.194   5.169   6.607  0.1429 -1.6973  1.8807
 5539SOL    HW227837   9.117   5.030   6.573 -0.9193 -0.2838 -1.7733
 5540SOL     OW27838   4.650   5.476   1.745  0.1213  0.7614  0.6050
 5540SOL    HW127839   4.686   5.481   1.652  0.4617 -1.6199  0.5831
 5540SOL    HW227840   4.713   5.426   1.803 -1.9382 -1.3064  1.1490
 5541SOL     OW27841   1.537   8.506   4.567  0.5822 -0.0161 -0.1471
 5541SOL    HW127842   1.442   8.474   4.575 -0.1462  1.3454 -2.6703
 5541SOL    HW227843   1.598   8.428   4.562 -0.5934 -0.9469 -0.2392
 5542SOL     OW27844   1.727   0.939   5.867  0.0190  0.8409  0.1733
 5542SOL    HW127845   1.657   0.985   5.812 -1.4713 -0.4998  0.8951
 5542SOL    HW227846   1.690   0.917   5.957  1.3199 -0.0465  0.5070
 5543SOL     OW27847   8.350   1.311   5.436 -0.0060 -0.7856  0.0355
 5543SOL    HW127848   8.308   1.238   5.490 -0.5181  0.1302  0.8800
 5543SOL    HW227849   8.374   1.388   5.495 -0.2147  0.0687 -0.9667
 5544SOL     OW27850   1.090   6.659   3.511  0.0812 -0.3016  0.3698
 5544SOL    HW127851   1.167   6.720   3.532  1.4512 -1.4599 -1.1197
 5544SOL    HW227852   1.113   6.566   3.539 -0.7677 -0.6679 -0.1323
 5545SOL     OW27853   5.322   1.681   1.657  0.0078  0.2847  0.0750
 5545SOL    HW127854   5.314   1.745   1.581 -0.0813  1.3688  0.9727
 5545SOL    HW227855   5.379   1.722   1.729  1.9736 -1.6214 -0.3504
 5546SOL     OW27856   1.103   6.327   2.448  0.4418 -0.4953  0.0508
 5546SOL    HW127857   1.063   6.247   2.493  0.6594 -1.2101 -1.0309
 5546SOL    HW227858   1.180   6.299   2.392  0.2728  0.4186 -0.6434
 5547SOL     OW27859   5.803   9.208   1.509 -0.0129 -0.1461  0.3601
 5547SOL    HW127860   5.754   9.212   1.422  1.2510  2.1066 -0.2751
 5547SOL    HW227861   5.865   9.130   1.509  0.9493  0.5901 -1.2952
 5548SOL     OW27862   7.876   5.630   5.870  0.3293 -0.1314 -0.2191
 5548SOL    HW127863   7.845   5.681   5.950  2.1829 -1.0488  1.1212
 5548SOL    HW227864   7.800   5.576   5.833  0.0287 -1.5290  2.3578
 5549SOL     OW27865   2.804   8.396   2.900 -0.5150  0.3739 -0.1374
 5549SOL    HW127866   2.731   8.420   2.836  0.0104  0.2695 -0.7856
 5549SOL    HW227867   2.769   8.333   2.969 -0.6795 -0.8292 -1.3033
 5550SOL     OW27868   2.931   9.695   5.631  0.5155  0.0735  0.6681
 5550SOL    HW127869   2.928   9.741   5.720  0.5651  1.1559  0.1080
 5550SOL    HW227870   2.892   9.603   5.641  1.6968 -0.3039  2.0943
 5551SOL     OW27871   3.325   4.272   4.115  0.3101 -0.0426  0.2171
 5551SOL    HW127872   3.397   4.253   4.048 -0.9178 -2.1716 -0.5663
 5551SOL    HW227873   3.290   4.364   4.102 -0.1632 -0.5432 -2.3575
 5552SOL     OW27874   3.637   1.717   0.129 -0.0055  0.2837  0.4421
 5552SOL    HW127875   3.593   1.729   0.040  2.9761  0.3477 -1.0959
 5552SOL    HW227876   3.625   1.622   0.159 -3.2963  0.9156  1.2958
 5553SOL     OW27877   5.214   5.284   3.080 -0.2564  0.1566 -0.4131
 5553SOL    HW127878   5.170   5.194   3.086  0.1404 -0.0930 -1.1651
 5553SOL    HW227879   5.202   5.320   2.987 -0.9452  1.1580  0.0549
 5554SOL     OW27880   0.586   2.431   4.518 -0.2254 -0.1611  0.6014
 5554SOL    HW127881   0.654   2.484   4.568 -1.4054  0.6670  1.3459
 5554SOL    HW227882   0.504   2.419   4.575 -1.0723 -0.3296 -0.6272
 5555SOL     OW27883   2.569   7.537   3.898 -0.0633  0.4495  0.6272
 5555SOL    HW127884   2.575   7.616   3.958  2.0300  1.2013 -0.5335
 5555SOL    HW227885   2.475   7.529   3.863 -1.0219  0.6285  3.0786
 5556SOL     OW27886   1.068   6.171   5.631  0.0376 -0.1501  0.3977
 5556SOL    HW127887   1.078   6.106   5.706 -1.4872 -2.2962 -1.1893
 5556SOL    HW227888   1.156   6.184   5.585  0.3392 -1.1478  0.6932
 5557SOL     OW27889   9.689   3.789   0.322 -0.4679  0.1196  0.2099
 5557SOL    HW127890   9.624   3.788   0.246 -1.4139 -1.8267  1.0218
 5557SOL    HW227891   9.776   3.752   0.292 -0.6657 -0.1189 -0.0739
 5558SOL     OW27892   9.905   7.879   5.735 -0.3012  0.3417 -0.0997
 5558SOL    HW127893   9.827   7.870   5.798  0.1459  0.9633  0.5583
 5558SOL    HW227894   9.879   7.940   5.660  0.2012  2.1927  1.2038
 5559SOL     OW27895   8.678   0.204   0.324  0.0366  0.3492 -0.5742
 5559SOL    HW127896   8.655   0.146   0.245  1.5626  1.6420 -2.0101
 5559SOL    HW227897   8.777   0.218   0.327  0.0455 -0.0979  1.9002
 5560SOL     OW27898   2.844   5.579   4.329  0.3074  0.0100  0.4290
 5560SOL    HW127899   2.876   5.628   4.410 -0.1370  0.5651  0.2771
 5560SOL    HW227900   2.897   5.495   4.317 -0.8134 -1.0025  2.3240
 5561SOL     OW27901   5.148   4.462   1.216 -0.0567 -0.3551 -0.0635
 5561SOL    HW127902   5.242   4.485   1.239 -0.4160  1.2841 -0.1701
 5561SOL    HW227903   5.099   4.545   1.189 -1.5547 -1.1772  0.0652
 5562SOL     OW27904   9.989   0.305   3.457 -0.1585  0.0340  0.3945
 5562SOL    HW127905  10.071   0.362   3.458  0.8236 -1.3372 -0.7315
 5562SOL    HW227906   9.976   0.265   3.548  1.0523 -0.6032  0.3051
 5563SOL     OW27907   0.985   1.805   1.664  0.0610  0.3579  0.1981
 5563SOL    HW127908   1.074   1.844   1.639  0.7717 -0.3317  1.5921
 5563SOL    HW227909   0.974   1.809   1.763 -1.8905  1.3303 -0.0293
 5564SOL     OW27910   3.418   9.816   0.312 -0.1584 -0.2108  0.5465
 5564SOL    HW127911   3.418   9.900   0.366 -0.3771  0.3375 -0.2831
 5564SOL    HW227912   3.380   9.836   0.221  2.5750 -0.4995 -0.7130
 5565SOL     OW27913   0.230   0.307   0.518 -0.3863  0.5372  0.3318
 5565SOL    HW127914   0.160   0.251   0.474 -0.9911  1.2466  0.3864
 5565SOL    HW227915   0.302   0.248   0.555  0.1217 -0.0593 -1.5944
 5566SOL     OW27916   4.473   0.109   6.263 -0.1945  0.3129  0.7927
 5566SOL    HW127917   4.554   0.049   6.260 -0.5452 -0.1331  0.0692
 5566SOL    HW227918   4.394   0.060   6.226 -0.5115  1.1857  0.2981
 5567SOL     OW27919   0.923   6.467   4.815 -0.3324 -0.1590  0.3935
 5567SOL    HW127920   0.976   6.518   4.882  0.4828 -0.1444 -0.2603
 5567SOL    HW227921   0.859   6.530   4.769  1.6256  0.5876 -1.3810
 5568SOL     OW27922   7.442   0.350   4.341 -0.0203 -0.6202 -0.5165
 5568SOL    HW127923   7.473   0.256   4.356 -2.0208 -1.3958 -1.0248
 5568SOL    HW227924   7.436   0.367   4.242  1.6709  0.5163 -0.4397
 5569SOL     OW27925   4.154   3.823   0.112 -0.3911  0.2403  0.4895
 5569SOL    HW127926   4.083   3.885   0.077  0.2716  0.4189 -0.5626
 5569SOL    HW227927   4.111   3.741   0.149 -1.1539  0.3566 -0.1234
 5570SOL     OW27928   2.538   2.273   0.891 -0.8671 -0.0475 -0.0023
 5570SOL    HW127929   2.476   2.336   0.937  0.2961 -0.3296  2.0071
 5570SOL    HW227930   2.632   2.296   0.913 -0.3165 -0.8547 -1.4172
 5571SOL     OW27931   6.661   1.121   0.762 -1.1041  0.7833 -0.3709
 5571SOL    HW127932   6.596   1.180   0.713  0.8016  1.4293 -2.2090
 5571SOL    HW227933   6.739   1.102   0.702 -0.6512 -1.8092  1.0098
 5572SOL     OW27934   2.214   4.806   6.634  0.1085 -0.0638  0.1444
 5572SOL    HW127935   2.184   4.793   6.729  1.7456  1.0528  0.8375
 5572SOL    HW227936   2.306   4.846   6.633 -0.2804  0.8501 -1.9086
 5573SOL     OW27937   9.200   2.894   0.930 -0.2783 -0.6002  0.0673
 5573SOL    HW127938   9.253   2.847   0.860 -1.4222 -1.4848 -0.2096
 5573SOL    HW227939   9.157   2.976   0.891 -0.7749 -0.9993 -0.2245
 5574SOL     OW27940   0.601   1.793   1.751  0.5792 -0.1288  0.1233
 5574SOL    HW127941   0.677   1.749   1.703  0.1932  0.8624 -1.4586
 5574SOL    HW227942   0.516   1.747   1.727  0.4679 -0.0711  0.4123
 5575SOL     OW27943   4.821   9.607   3.000  0.2959 -0.2935  0.3031
 5575SOL    HW127944   4.825   9.537   3.071  0.3649 -0.2878  0.3057
 5575SOL    HW227945   4.844   9.696   3.040  0.2104 -0.2701  0.2998
 5576SOL     OW27946   2.070   5.526   0.448  0.9282 -0.2436  0.2329
 5576SOL    HW127947   2.045   5.451   0.387 -0.1705 -0.9627  1.5333
 5576SOL    HW227948   2.157   5.505   0.494  1.3089 -0.0990 -0.4207
 5577SOL     OW27949   5.517   7.685   3.055 -0.5990 -0.0625  0.5101
 5577SOL    HW127950   5.543   7.592   3.081  0.7324  0.5156  1.3201
 5577SOL    HW227951   5.521   7.744   3.136  3.0994  1.6818 -0.7969
 5578SOL     OW27952   0.744   4.501   1.931  0.5838  0.1656  0.4803
 5578SOL    HW127953   0.771   4.597   1.941  2.1617 -0.2139 -0.0905
 5578SOL    HW227954   0.647   4.492   1.955  0.2223  2.0233 -0.1564
 5579SOL     OW27955   3.726   1.485   6.185  0.3316  0.0871  0.3143
 5579SOL    HW127956   3.685   1.489   6.276 -0.2804  1.0310  0.0070
 5579SOL    HW227957   3.722   1.576   6.143  0.9458 -0.2617 -0.5055
 5580SOL     OW27958   3.482   2.731   4.433 -0.0252 -0.2628 -0.0007
 5580SOL    HW127959   3.405   2.691   4.484 -1.2563  0.8258 -0.9540
 5580SOL    HW227960   3.449   2.765   4.345  1.6811 -0.2744 -0.6548
 5581SOL     OW27961   8.772   7.439   3.980 -0.1254  0.2864 -0.1931
 5581SOL    HW127962   8.701   7.434   3.909  1.1931 -1.1399 -1.4396
 5581SOL    HW227963   8.731   7.472   4.065 -2.4409 -1.0886 -0.7168
 5582SOL     OW27964   7.868   2.933   1.667  0.0191 -0.0636  0.0685
 5582SOL    HW127965   7.769   2.950   1.666  0.2517  1.3905 -2.2847
 5582SOL    HW227966   7.890   2.870   1.741 -2.6192 -0.1079  0.8783
 5583SOL     OW27967   5.078   0.424   4.326 -0.0090  0.5007 -0.4099
 5583SOL    HW127968   5.077   0.464   4.418  0.4992 -1.0189  0.2783
 5583SOL    HW227969   5.027   0.338   4.327  0.1083  0.4069 -1.5350
 5584SOL     OW27970   9.670   9.129   5.361 -0.0967  0.4722  0.1233
 5584SOL    HW127971   9.764   9.104   5.387 -1.0157 -1.4412  1.7213
 5584SOL    HW227972   9.620   9.158   5.442 -0.9527  1.3487 -0.7112
 5585SOL     OW27973   9.356   5.004   1.136 -0.0716 -0.4101 -0.2273
 5585SOL    HW127974   9.338   4.925   1.195 -0.3099  0.2681  0.6060
 5585SOL    HW227975   9.454   5.011   1.120 -0.0260 -0.7186 -0.1004
 5586SOL     OW27976   8.780   2.953   2.874  0.5606  0.3384 -0.0508
 5586SOL    HW127977   8.762   2.925   2.780 -0.5813  1.6888 -0.2539
 5586SOL    HW227978   8.693   2.961   2.923  1.1004  0.3477  0.9197
 5587SOL     OW27979   5.947   7.402   5.158 -0.4354  0.3286 -0.2075
 5587SOL    HW127980   5.872   7.406   5.224  0.0656  0.3772  0.3687
 5587SOL    HW227981   6.014   7.472   5.180  0.1251 -0.1743 -0.2905
 5588SOL     OW27982   9.985   1.769   4.757  0.5003  0.0799 -0.6375
 5588SOL    HW127983  10.011   1.831   4.683 -1.7465  0.9766 -0.7253
 5588SOL    HW227984   9.893   1.735   4.740  0.2349 -0.2626  1.3815
 5589SOL     OW27985   2.258   6.520   2.737  0.0174  0.1395 -0.1288
 5589SOL    HW127986   2.255   6.466   2.821  0.1820 -0.5529 -0.5600
 5589SOL    HW227987   2.213   6.608   2.751 -0.5906 -0.2699  0.4699
 5590SOL     OW27988   2.638   1.140   1.748 -0.0822 -0.1228 -0.2309
 5590SOL    HW127989   2.577   1.124   1.826 -1.3184 -0.1996 -1.1957
 5590SOL    HW227990   2.674   1.052   1.717  1.3159  0.0185  0.9616
 5591SOL     OW27991   5.102   9.358   3.646  0.0686 -0.4995  0.3649
 5591SOL    HW127992   5.171   9.402   3.703  1.0625 -0.4109 -0.8793
 5591SOL    HW227993   5.044   9.301   3.703 -1.8738  3.1235  2.1737
 5592SOL     OW27994   2.443   5.727   1.015 -0.4327  0.0634 -0.4241
 5592SOL    HW127995   2.534   5.748   0.982 -0.9884 -0.2318 -2.1676
 5592SOL    HW227996   2.436   5.629   1.035 -0.6673 -0.0948 -1.2653
 5593SOL     OW27997   1.190   6.809   4.136  0.4721  0.3686 -0.0460
 5593SOL    HW127998   1.096   6.811   4.170  0.0076  3.2193 -1.3089
 5593SOL    HW227999   1.245   6.876   4.185  1.0663  0.8841 -1.3759
 5594SOL     OW28000   6.413   9.141   5.365  0.9646  0.4591 -0.1493
 5594SOL    HW128001   6.418   9.220   5.426  2.6930  2.3466 -2.6154
 5594SOL    HW228002   6.345   9.076   5.400 -2.5393  4.2575  0.5089
 5595SOL     OW28003   3.409   2.594   0.400  0.0380 -0.5999  0.0118
 5595SOL    HW128004   3.370   2.666   0.343 -0.8148 -1.3782 -0.3964
 5595SOL    HW228005   3.496   2.564   0.360  0.6593  0.5531  0.4692
 5596SOL     OW28006   5.795   8.016   3.906 -0.3324  0.3667 -0.1470
 5596SOL    HW128007   5.759   8.109   3.898  2.3527  1.3953 -0.9473
 5596SOL    HW228008   5.871   8.004   3.842 -0.4809 -2.3157  0.1255
 5597SOL     OW28009   8.555   6.062   3.776  0.1500 -0.4797  0.4935
 5597SOL    HW128010   8.523   6.147   3.818  0.9396  0.6107 -1.0627
 5597SOL    HW228011   8.480   6.020   3.725  0.1390  0.0482  0.0652
 5598SOL     OW28012   0.947   0.875   1.282  0.0598  0.7272  0.5055
 5598SOL    HW128013   0.953   0.825   1.368 -1.6020 -0.4636 -0.0533
 5598SOL    HW228014   0.851   0.896   1.262  0.4330  0.9860 -1.0619
 5599SOL     OW28015   4.918   9.734   0.864  0.3016 -0.2204  0.2010
 5599SOL    HW128016   4.962   9.819   0.833 -1.4859  0.3891 -0.7504
 5599SOL    HW228017   4.930   9.724   0.963  3.4667 -0.6303 -0.1710
 5600SOL     OW28018   7.842   1.560   1.662 -0.2354 -0.0503  0.0356
 5600SOL    HW128019   7.878   1.599   1.747 -0.9472  1.9508 -0.5405
 5600SOL    HW228020   7.912   1.568   1.590 -0.9185  1.6320 -0.4718
 5601SOL     OW28021   7.080   4.826   0.446  0.0420  0.2547 -0.0100
 5601SOL    HW128022   7.005   4.856   0.387 -2.2602  2.9742  3.9554
 5601SOL    HW228023   7.062   4.734   0.479 -0.0287 -0.2273 -1.3752
 5602SOL     OW28024   7.807   1.969   1.561 -0.1677 -0.4834  0.2140
 5602SOL    HW128025   7.769   1.881   1.532  0.4490 -0.6090 -0.2279
 5602SOL    HW228026   7.906   1.967   1.549 -0.2230  0.5172 -0.4482
 5603SOL     OW28027   4.350   9.856   4.161  0.4757 -0.2790 -0.1405
 5603SOL    HW128028   4.251   9.868   4.162  0.6782  1.5402 -1.4358
 5603SOL    HW228029   4.372   9.763   4.192 -1.7670 -1.6540 -2.5130
 5604SOL     OW28030   2.343   0.236   3.487  0.1379  0.0239  0.0307
 5604SOL    HW128031   2.319   0.148   3.527  0.8508 -1.1752 -2.0882
 5604SOL    HW228032   2.430   0.228   3.438  0.3674  1.9884  0.0503
 5605SOL     OW28033   9.517   8.206   0.361  0.2967  0.1990 -0.1127
 5605SOL    HW128034   9.557   8.139   0.299  0.7184 -1.9064  2.3632
 5605SOL    HW228035   9.417   8.195   0.363  0.3297 -0.0721 -0.0384
 5606SOL     OW28036   7.711   7.502   5.445 -0.2269 -0.3324  0.2166
 5606SOL    HW128037   7.684   7.461   5.532 -1.9337 -2.3032 -1.1737
 5606SOL    HW228038   7.776   7.442   5.398 -1.4417 -0.6563 -1.0839
 5607SOL     OW28039   2.269   8.749   6.728  0.4037 -0.4318 -0.0599
 5607SOL    HW128040   2.195   8.780   6.669 -0.4566 -0.0458  1.1961
 5607SOL    HW228041   2.343   8.816   6.725  0.0995 -0.0963 -0.2179
 5608SOL     OW28042   1.504   8.047   4.061 -0.3979 -0.6169  0.4162
 5608SOL    HW128043   1.462   8.138   4.067 -0.6874 -0.7855  0.9532
 5608SOL    HW228044   1.596   8.055   4.022 -1.5955 -0.4448 -2.5494
 5609SOL     OW28045   1.743   8.952   2.899 -0.1662 -0.3611 -0.1506
 5609SOL    HW128046   1.834   8.913   2.886 -0.6854 -1.2441 -1.2432
 5609SOL    HW228047   1.674   8.881   2.886 -1.0037  0.1542  1.2986
 5610SOL     OW28048   8.025   6.287   4.243 -1.1635  0.1313  0.2615
 5610SOL    HW128049   8.102   6.248   4.294  0.0357  0.0526 -1.5488
 5610SOL    HW228050   7.940   6.250   4.279 -0.2778 -0.8942  1.3737
 5611SOL     OW28051   9.702   8.339   4.051 -0.3688 -0.0685 -0.1226
 5611SOL    HW128052   9.613   8.296   4.038  1.0326 -2.8658 -1.0699
 5611SOL    HW228053   9.758   8.281   4.110  0.6064  1.9865  1.0003
 5612SOL     OW28054   4.526   6.454   1.474  0.2282  0.1681  0.4492
 5612SOL    HW128055   4.589   6.423   1.545  1.2388  0.2941 -0.3719
 5612SOL    HW228056   4.448   6.392   1.468  2.5409 -2.6911 -1.6330
 5613SOL     OW28057   2.544   0.589   5.967 -0.2536  0.5258  0.0903
 5613SOL    HW128058   2.444   0.596   5.966 -0.3543 -0.4549  1.3516
 5613SOL    HW228059   2.578   0.604   6.060  0.4476 -2.6932  0.4289
 5614SOL     OW28060   9.917   5.919   0.542  0.0315 -0.3919  0.5630
 5614SOL    HW128061   9.846   5.896   0.608  0.2216  0.0321  0.9167
 5614SOL    HW228062   9.935   5.839   0.484 -2.1132  0.0970 -0.8353
 5615SOL     OW28063   3.483   8.353   4.014 -0.3517  0.0710  0.6391
 5615SOL    HW128064   3.522   8.417   3.947 -0.4548 -0.3929  0.1357
 5615SOL    HW228065   3.391   8.383   4.039  0.0174  0.7247  1.2231
 5616SOL     OW28066   0.033   7.449   1.190 -0.1588 -0.3520  0.5058
 5616SOL    HW128067   0.082   7.453   1.277 -0.4340  1.2486  0.6084
 5616SOL    HW228068  -0.037   7.520   1.189  0.9860  0.8047 -1.6915
 5617SOL     OW28069   9.579   9.391   5.579  0.2693  0.2346 -0.0453
 5617SOL    HW128070   9.524   9.472   5.560 -0.7066 -0.2810  0.5206
 5617SOL    HW228071   9.673   9.406   5.547 -0.2111  1.0951 -1.0897
 5618SOL     OW28072   4.422   2.758   1.896  0.0848  0.3884  0.4292
 5618SOL    HW128073   4.392   2.675   1.848  0.7928  0.2550  0.2052
 5618SOL    HW228074   4.418   2.836   1.833 -0.2146  0.4529  0.5281
 5619SOL     OW28075   2.480   9.850   3.779  0.4801 -0.2258 -0.3056
 5619SOL    HW128076   2.518   9.780   3.718 -0.3142 -0.2511 -0.7840
 5619SOL    HW228077   2.454   9.808   3.866 -2.0888 -1.0197 -1.3927
 5620SOL     OW28078   8.330   5.501   0.643 -0.5690  0.4558  0.0104
 5620SOL    HW128079   8.263   5.560   0.598  0.1804  1.3995  0.1143
 5620SOL    HW228080   8.420   5.517   0.604  0.2329  1.8399  2.3144
 5621SOL     OW28081   7.974   1.906   3.727  0.2090 -0.4334 -0.4240
 5621SOL    HW128082   7.891   1.916   3.672 -0.4719 -1.2326  0.4478
 5621SOL    HW228083   8.005   1.811   3.723 -0.0544 -0.5807  0.8736
 5622SOL     OW28084   2.646   4.675   0.588  0.6020  0.1730  0.1117
 5622SOL    HW128085   2.574   4.735   0.552 -0.8472 -0.7818  1.3162
 5622SOL    HW228086   2.639   4.585   0.544  0.2094 -0.3238  1.1608
 5623SOL     OW28087   2.581   0.001   4.591 -0.2402  0.6379  0.6456
 5623SOL    HW128088   2.629   0.075   4.544 -2.9871  0.6947 -2.1976
 5623SOL    HW228089   2.483   0.009   4.575 -0.6290 -3.5673  0.3921
 5624SOL     OW28090   1.406   0.455   4.251  0.2231 -0.1193 -0.0838
 5624SOL    HW128091   1.340   0.435   4.324 -0.4234 -0.5368 -0.7758
 5624SOL    HW228092   1.498   0.460   4.290 -0.1811  0.1718  0.8419
 5625SOL     OW28093   5.352   2.081   4.706  0.0978  0.0493 -0.3797
 5625SOL    HW128094   5.361   2.051   4.611 -1.5146 -1.1029 -0.1991
 5625SOL    HW228095   5.265   2.130   4.718  1.2166  1.9762  0.0662
 5626SOL     OW28096   2.184   1.392   6.490 -0.5186  0.1160 -0.3382
 5626SOL    HW128097   2.199   1.310   6.435 -0.6011  0.0278 -0.2268
 5626SOL    HW228098   2.162   1.367   6.584 -0.4703  0.2664 -0.2860
 5627SOL     OW28099   9.221   8.882   1.834  0.7043  0.2685  0.2452
 5627SOL    HW128100   9.215   8.972   1.791  1.2346  0.0389 -0.3366
 5627SOL    HW228101   9.159   8.877   1.912 -0.8298  0.4717 -0.9282
 5628SOL     OW28102   4.999   2.054   0.467  0.0242 -0.0941  0.2149
 5628SOL    HW128103   5.069   1.991   0.434  2.4238  1.9308  1.2770
 5628SOL    HW228104   4.970   2.027   0.559  1.6288  0.7969  0.9893
 5629SOL     OW28105   9.715   5.471   1.496  0.2653 -0.1999 -0.4780
 5629SOL    HW128106   9.669   5.487   1.409 -1.8275 -2.7838  0.1192
 5629SOL    HW228107   9.759   5.381   1.495 -0.1712 -0.4473  1.3022
 5630SOL     OW28108   5.623   9.225   3.775  0.2147  0.6778 -0.0603
 5630SOL    HW128109   5.680   9.175   3.710  0.1978  1.3981 -0.6406
 5630SOL    HW228110   5.550   9.166   3.808  0.6281  0.0949 -0.1800
 5631SOL     OW28111   0.436   5.174   4.350  0.0164 -0.4607  0.2469
 5631SOL    HW128112   0.475   5.095   4.301  0.3227  0.0937 -0.4064
 5631SOL    HW228113   0.462   5.170   4.446  0.4762 -0.8733  0.1061
 5632SOL     OW28114   3.801   8.264   6.588 -0.6967  0.5580 -0.6644
 5632SOL    HW128115   3.763   8.252   6.680 -1.8529  1.4191 -1.0194
 5632SOL    HW228116   3.886   8.212   6.580 -1.1573 -0.4038  0.5406
 5633SOL     OW28117   0.837   1.347   4.843  0.6006  0.1382  0.6384
 5633SOL    HW128118   0.854   1.286   4.920 -1.4852 -0.4811  0.6345
 5633SOL    HW228119   0.812   1.437   4.877  2.4783  0.6816  0.6472
 5634SOL     OW28120   0.423   5.998   0.800  0.0888 -0.3466 -0.3656
 5634SOL    HW128121   0.366   5.916   0.793  1.0139 -0.9399 -1.1829
 5634SOL    HW228122   0.456   6.008   0.894 -0.6124 -0.5123 -0.1010
 5635SOL     OW28123   2.300   3.595   6.289 -0.1030  0.3755 -0.2960
 5635SOL    HW128124   2.215   3.602   6.341 -0.3029  3.5021 -0.9739
 5635SOL    HW228125   2.323   3.684   6.250  3.2421 -0.5281 -0.5383
 5636SOL     OW28126   0.052   2.759   5.457  0.3186 -0.0531 -0.2604
 5636SOL    HW128127   0.023   2.665   5.474  0.2531 -0.2513 -1.4312
 5636SOL    HW228128   0.021   2.787   5.366  0.6030  0.9978 -0.0361
 5637SOL     OW28129   1.032   0.869   5.595  0.3285 -0.6870  0.0566
 5637SOL    HW128130   0.976   0.822   5.526  2.0483 -1.0603 -1.1243
 5637SOL    HW228131   1.023   0.823   5.683 -2.7626  0.4404  0.3987
 5638SOL     OW28132   2.518   4.379   3.359  0.1305  0.4463 -0.4536
 5638SOL    HW128133   2.433   4.415   3.397 -1.0130 -1.3544 -1.2455
 5638SOL    HW228134   2.510   4.280   3.346  2.3142  0.2739 -0.6362
 5639SOL     OW28135   8.462   4.515   0.822  0.3261 -0.0913  0.2796
 5639SOL    HW128136   8.388   4.580   0.842  0.2300 -0.1139 -0.0134
 5639SOL    HW228137   8.549   4.556   0.847  0.0525 -0.8798  2.6962
 5640SOL     OW28138   2.641   9.753   4.657 -0.0911 -0.5609 -0.0962
 5640SOL    HW128139   2.643   9.853   4.651 -2.2593 -0.3898  1.3306
 5640SOL    HW228140   2.589   9.716   4.580  0.4375 -0.5929 -0.4457
 5641SOL     OW28141   9.677   5.843   2.695 -0.2426 -0.3193 -0.3792
 5641SOL    HW128142   9.580   5.828   2.676 -0.1950 -0.7848 -0.2327
 5641SOL    HW228143   9.694   5.835   2.793 -0.7176  3.3735  0.0907
 5642SOL     OW28144   8.130   9.832   5.539  0.3678  0.0681  0.3004
 5642SOL    HW128145   8.126   9.732   5.539 -0.3028  0.0863 -0.3854
 5642SOL    HW228146   8.117   9.866   5.632  1.2372 -0.5019  0.6328
 5643SOL     OW28147   8.598   1.396   0.404  0.0740 -0.2306  0.0490
 5643SOL    HW128148   8.652   1.469   0.362 -0.7378  0.6645  0.5423
 5643SOL    HW228149   8.616   1.310   0.356  0.6925  0.3718 -0.8288
 5644SOL     OW28150   3.099   7.540   0.657  0.2993  0.2836 -0.1601
 5644SOL    HW128151   3.007   7.568   0.630  0.0589 -1.3664 -1.1247
 5644SOL    HW228152   3.144   7.615   0.706 -1.8691  0.8091  1.0764
 5645SOL     OW28153   4.225   7.810   2.441 -0.4063 -0.6241  0.2568
 5645SOL    HW128154   4.273   7.761   2.368 -1.1294  0.1314 -0.7376
 5645SOL    HW228155   4.280   7.887   2.472  0.4877 -1.7010  1.4419
 5646SOL     OW28156   3.121   8.864   1.286 -0.1188 -0.3143 -0.5629
 5646SOL    HW128157   3.219   8.873   1.266 -0.3823 -0.9380 -2.2388
 5646SOL    HW228158   3.069   8.915   1.218 -1.0095 -1.3848 -0.6928
 5647SOL     OW28159   0.213   4.665   2.306  0.9951  0.7654 -0.3679
 5647SOL    HW128160   0.251   4.573   2.301 -0.7221  0.1155 -2.0700
 5647SOL    HW228161   0.230   4.704   2.397  1.0054 -1.5489  0.6422
 5648SOL     OW28162   1.521   4.247   1.473  0.3900 -0.2015  0.6201
 5648SOL    HW128163   1.581   4.282   1.401  0.5748 -0.3226  0.7163
 5648SOL    HW228164   1.559   4.270   1.562 -0.5794  1.2422  0.6825
 5649SOL     OW28165   1.850   5.350   5.311 -0.4001 -0.2562 -0.6470
 5649SOL    HW128166   1.874   5.289   5.236  0.4368  0.9264 -1.3693
 5649SOL    HW228167   1.823   5.439   5.274 -0.9453  0.0321  0.4180
 5650SOL     OW28168   0.903   3.421   4.196  0.3632  0.8407  0.6130
 5650SOL    HW128169   0.972   3.378   4.138 -0.0299  0.3518  0.5020
 5650SOL    HW228170   0.940   3.505   4.235  0.2957  1.7115 -1.1512
 5651SOL     OW28171   2.711   2.336   5.933 -0.0598 -0.3288 -0.2534
 5651SOL    HW128172   2.713   2.358   6.031 -0.7034  0.5865 -0.4490
 5651SOL    HW228173   2.781   2.266   5.914 -0.0501 -0.6490  0.8873
 5652SOL     OW28174   9.767   7.758   4.050 -0.2202  0.0881  0.3823
 5652SOL    HW128175   9.728   7.774   4.141 -2.3583 -2.1300 -0.1000
 5652SOL    HW228176   9.849   7.702   4.059 -0.9762 -0.9416  0.8692
 5653SOL     OW28177   9.536   6.929   5.948 -0.7685 -0.4142 -0.4242
 5653SOL    HW128178   9.586   6.881   5.876 -1.9143 -1.2969 -0.6645
 5653SOL    HW228179   9.524   6.868   6.027  1.6712  0.9996  1.0874
 5654SOL     OW28180   0.629   9.325   1.677 -0.1551 -0.1931 -0.5242
 5654SOL    HW128181   0.701   9.370   1.624  0.4626 -0.3873  0.1360
 5654SOL    HW228182   0.633   9.227   1.664 -1.2750 -0.0906 -1.6787
 5655SOL     OW28183   7.815   3.849   5.253  0.0715  0.0131 -0.2619
 5655SOL    HW128184   7.850   3.876   5.164 -1.4178  0.4370 -0.7391
 5655SOL    HW228185   7.817   3.749   5.261  0.5396 -0.0043 -0.6358
 5656SOL     OW28186   5.306   0.923   2.006 -0.3712  0.1319 -0.1959
 5656SOL    HW128187   5.250   0.877   2.076  3.4601 -0.6400  2.5500
 5656SOL    HW228188   5.265   1.011   1.984 -2.3922 -0.1745  2.0741
 5657SOL     OW28189   3.105   7.433   2.733  0.1201 -0.4491  0.3688
 5657SOL    HW128190   3.125   7.338   2.755  2.0246  0.1719  1.4342
 5657SOL    HW228191   3.191   7.482   2.717 -0.8307  1.1546  0.0873
 5658SOL     OW28192   4.296   0.294   0.694 -0.1645  0.6926 -0.0327
 5658SOL    HW128193   4.267   0.355   0.768 -1.9948  0.1682 -0.2890
 5658SOL    HW228194   4.300   0.345   0.608 -0.9587  0.6166 -0.1124
 5659SOL     OW28195   6.672   0.755   6.268  0.3322  0.0855  0.2269
 5659SOL    HW128196   6.685   0.835   6.208 -0.3894  0.9134  1.1607
 5659SOL    HW228197   6.588   0.708   6.242  0.3100  0.1266  0.2240
 5660SOL     OW28198   7.481   3.248   2.101  0.2768 -0.7708  0.1543
 5660SOL    HW128199   7.547   3.221   2.171  0.2212  2.3687  1.4922
 5660SOL    HW228200   7.518   3.323   2.047 -1.6739  0.2316  0.1444
 5661SOL     OW28201   3.192   0.284   6.557 -0.2397  0.7231 -0.1577
 5661SOL    HW128202   3.215   0.381   6.553  1.5662  0.2570 -2.3478
 5661SOL    HW228203   3.182   0.249   6.464  0.6120 -1.5298  0.5809
 5662SOL     OW28204   7.940   1.723   4.145 -0.2923 -0.6164  0.4557
 5662SOL    HW128205   7.859   1.764   4.102 -0.4097 -0.5373  0.7554
 5662SOL    HW228206   7.913   1.648   4.204 -0.2158 -0.0790  1.1754
 5663SOL     OW28207   5.163   8.473   1.206  0.1215 -0.7415  0.3841
 5663SOL    HW128208   5.113   8.518   1.132  0.0374  0.0568  0.9234
 5663SOL    HW228209   5.258   8.458   1.178  0.0419 -0.6101  0.0444
 5664SOL     OW28210   4.658   9.466   1.130  0.2649  0.2426  0.0528
 5664SOL    HW128211   4.598   9.495   1.055  0.1829 -0.2411 -0.0747
 5664SOL    HW228212   4.606   9.408   1.194  0.9381 -1.3717 -0.8207
 5665SOL     OW28213   1.016   3.765   3.219  0.0333 -0.2137  0.1462
 5665SOL    HW128214   0.980   3.853   3.249  0.4910  0.0110  0.0285
 5665SOL    HW228215   0.965   3.691   3.264 -0.2711  0.1106  0.3314
 5666SOL     OW28216   6.345   9.733   5.612 -0.2937 -0.0750  0.1861
 5666SOL    HW128217   6.374   9.653   5.665  0.9702  0.2521  0.0099
 5666SOL    HW228218   6.412   9.806   5.624  1.0228 -0.6001 -3.2940
 5667SOL     OW28219   1.017   1.613   0.987  0.3847 -0.2501  0.1077
 5667SOL    HW128220   1.089   1.544   0.979  2.1610  1.4850  0.6006
 5667SOL    HW228221   1.026   1.661   1.074  0.9664  2.4852 -1.3839
 5668SOL     OW28222   2.423   8.395   0.424  0.0232 -0.1146 -0.5567
 5668SOL    HW128223   2.510   8.356   0.454  0.3474  0.5533 -0.6306
 5668SOL    HW228224   2.409   8.485   0.466 -0.4409 -0.0391 -0.8588
 5669SOL     OW28225   4.335   3.243   3.908 -0.7671  0.0978  0.9395
 5669SOL    HW128226   4.262   3.175   3.898 -0.3759 -0.3063  0.7901
 5669SOL    HW228227   4.296   3.335   3.898 -0.8008 -0.1862 -2.0886
 5670SOL     OW28228   1.658   8.958   6.443  0.0743 -0.2269  0.0689
 5670SOL    HW128229   1.679   9.046   6.484 -1.3889  0.0416  0.2459
 5670SOL    HW228230   1.719   8.943   6.364  1.0315  0.4566  0.6714
 5671SOL     OW28231   3.796   1.438   6.729  0.2823 -0.2947  0.3223
 5671SOL    HW128232   3.762   1.475   6.642  1.0542 -0.7017 -0.1579
 5671SOL    HW228233   3.726   1.449   6.800 -0.1615  0.4975 -0.2312
 5672SOL     OW28234   6.134   1.862   2.765  0.0412  0.2915 -0.1929
 5672SOL    HW128235   6.054   1.869   2.824 -0.0841  0.4288 -0.3785
 5672SOL    HW228236   6.108   1.880   2.670  0.3169  0.4794 -0.2346
 5673SOL     OW28237   0.597   9.824   5.950 -0.2608  0.5012  0.0058
 5673SOL    HW128238   0.680   9.878   5.938  0.6863 -0.8944  0.2658
 5673SOL    HW228239   0.577   9.815   6.048 -1.1299  1.4471 -0.0769
 5674SOL     OW28240   7.375   1.799   5.127 -0.1819  0.1177 -0.2022
 5674SOL    HW128241   7.468   1.835   5.115  0.0563 -0.2227  0.6188
 5674SOL    HW228242   7.363   1.717   5.071 -0.4350  0.9375 -1.3735
 5675SOL     OW28243   9.856   3.447   1.346  0.2566  0.0593 -0.5602
 5675SOL    HW128244   9.794   3.526   1.340 -1.3931 -1.1784 -0.3344
 5675SOL    HW228245   9.839   3.386   1.269  1.7419  0.0835 -0.9029
 5676SOL     OW28246   5.290   1.701   4.519 -0.1048  0.4819 -0.2216
 5676SOL    HW128247   5.268   1.736   4.610  1.1363 -0.5971  0.5191
 5676SOL    HW228248   5.326   1.774   4.462  1.6061  0.6144  1.0090
 5677SOL     OW28249   5.268   1.807   4.772 -0.2612 -0.0096 -0.3633
 5677SOL    HW128250   5.281   1.747   4.851  0.7371 -0.4705 -0.8579
 5677SOL    HW228251   5.292   1.901   4.796 -2.6502  0.3639  0.6593
 5678SOL     OW28252   2.521   0.488   2.114  0.7105  0.0326  0.6224
 5678SOL    HW128253   2.466   0.405   2.110  0.9346 -0.0808 -0.0461
 5678SOL    HW228254   2.490   0.552   2.044  2.0056 -0.3907 -0.3679
 5679SOL     OW28255   8.217   6.246   0.899 -0.3848 -0.1401  0.4896
 5679SOL    HW128256   8.171   6.192   0.829  0.9979 -1.2112  0.4014
 5679SOL    HW228257   8.245   6.334   0.860  0.2302 -0.6626 -0.2574
 5680SOL     OW28258   7.400   2.923   3.205  0.2615 -0.1052 -0.4788
 5680SOL    HW128259   7.339   2.983   3.153 -0.3538  1.0455  1.5499
 5680SOL    HW228260   7.418   2.841   3.151 -1.5188  0.4018 -1.9131
 5681SOL     OW28261   3.977   9.373   0.951  0.9290  0.0251  0.2842
 5681SOL    HW128262   4.023   9.454   0.914 -0.2150  0.9513  0.8725
 5681SOL    HW228263   4.021   9.348   1.038 -0.8678  2.1215  1.8862
 5682SOL     OW28264   8.956   1.432   5.331 -0.2618  0.4007 -0.0530
 5682SOL    HW128265   9.019   1.408   5.257  0.2433  2.9131 -0.4972
 5682SOL    HW228266   8.876   1.477   5.293  0.8920  3.5074  1.0099
 5683SOL     OW28267   9.885   3.626   1.008  0.0484  0.2964 -0.0228
 5683SOL    HW128268   9.907   3.601   1.102  1.9697 -0.8826 -0.7536
 5683SOL    HW228269   9.969   3.645   0.957 -0.9304  0.5621 -1.6080
 5684SOL     OW28270   4.808   9.743   5.804  0.0081 -0.4296  0.0190
 5684SOL    HW128271   4.761   9.688   5.874  0.6710 -2.5361 -1.1330
 5684SOL    HW228272   4.895   9.700   5.781  1.3428  2.0534  0.2820
 5685SOL     OW28273   0.527   4.039   0.971  0.0536 -0.5465 -0.2520
 5685SOL    HW128274   0.616   4.084   0.963  0.0179 -0.3003  0.6346
 5685SOL    HW228275   0.504   3.994   0.885  1.0620 -0.6607 -0.4646
 5686SOL     OW28276   0.443   8.374   4.942 -0.3371 -0.5189 -0.3368
 5686SOL    HW128277   0.506   8.299   4.919 -2.2953 -2.2857 -0.1496
 5686SOL    HW228278   0.419   8.368   5.038 -0.6452  0.2577 -0.3686
 5687SOL     OW28279   4.514   7.456   3.737  0.7006 -0.3425  0.6383
 5687SOL    HW128280   4.594   7.451   3.798  1.1371 -0.8125  0.0267
 5687SOL    HW228281   4.474   7.365   3.726  0.3084 -0.1721  0.6352
 5688SOL     OW28282   1.213   8.008   6.329  0.3555 -0.4933  0.7722
 5688SOL    HW128283   1.271   8.049   6.400  0.5516  0.0134  0.3194
 5688SOL    HW228284   1.271   7.976   6.254 -0.0900  1.8404 -0.6089
 5689SOL     OW28285   2.463   1.591   3.721 -0.4687 -0.0833 -0.9274
 5689SOL    HW128286   2.375   1.604   3.675 -0.6395 -1.0364 -0.8830
 5689SOL    HW228287   2.505   1.680   3.739 -1.7473  0.4138 -0.3251
 5690SOL     OW28288   7.982   1.552   1.429  0.7587 -0.3804 -0.0777
 5690SOL    HW128289   7.980   1.564   1.330  0.8408 -2.0258 -0.2857
 5690SOL    HW228290   8.039   1.474   1.453  0.0679 -0.5163  1.2059
 5691SOL     OW28291   1.011   7.996   5.963  0.0586 -0.3317 -0.0231
 5691SOL    HW128292   1.021   7.898   5.949 -1.8790 -0.5167 -0.2425
 5691SOL    HW228293   0.932   8.014   6.022  1.2683  1.0299  1.2486
 5692SOL     OW28294   8.854   0.669   6.100  0.5229  0.4398 -0.5420
 5692SOL    HW128295   8.892   0.580   6.075  0.1796  0.2767 -0.4884
 5692SOL    HW228296   8.757   0.672   6.076  0.2149  0.3155  0.6602
 5693SOL     OW28297   4.207   9.344   4.992  0.7651  0.0459  0.0199
 5693SOL    HW128298   4.273   9.419   4.992  0.4325  0.3368 -0.3772
 5693SOL    HW228299   4.142   9.357   5.067  1.7566 -0.7714  1.0388
 5694SOL     OW28300   7.150   7.596   5.272 -0.0402  0.0022  0.3090
 5694SOL    HW128301   7.152   7.572   5.369 -0.1934 -0.1554  0.2748
 5694SOL    HW228302   7.235   7.642   5.247 -0.1772  0.4153  0.6100
 5695SOL     OW28303   8.639   0.484   4.729  0.2597  0.0341  0.4466
 5695SOL    HW128304   8.590   0.442   4.805  0.7807 -1.1599  0.1288
 5695SOL    HW228305   8.574   0.505   4.656 -0.0839  0.2694  0.8165
 5696SOL     OW28306   8.034   3.479   4.005 -0.0297 -0.2606  0.1786
 5696SOL    HW128307   8.051   3.384   4.031  1.7275 -0.4938 -1.7108
 5696SOL    HW228308   8.108   3.536   4.038 -0.9350  0.4158  1.0536
 5697SOL     OW28309   7.759   9.749   1.704 -0.1312  0.2589  0.3392
 5697SOL    HW128310   7.739   9.666   1.755 -1.3986  1.0188  1.1163
 5697SOL    HW228311   7.674   9.787   1.667  0.5317  0.7967 -0.6640
 5698SOL     OW28312   6.924   1.251   5.561  0.2045 -0.1655  0.0726
 5698SOL    HW128313   6.986   1.285   5.491  0.6602 -0.1819  0.4689
 5698SOL    HW228314   6.976   1.212   5.637 -0.2397  1.1007  1.0617
 5699SOL     OW28315   7.269   8.935   6.072  0.5074 -0.0283  0.4104
 5699SOL    HW128316   7.175   8.966   6.084  0.6175  0.0820  0.9876
 5699SOL    HW228317   7.332   9.006   6.102  0.8044  0.5613 -1.5309
 5700SOL     OW28318   9.655   2.967   2.501  0.3087  0.4579 -0.3657
 5700SOL    HW128319   9.734   2.958   2.563  0.3430 -0.6270 -0.5583
 5700SOL    HW228320   9.687   2.997   2.411  0.7846 -1.9844 -1.0499
 5701SOL     OW28321   9.399   0.981   2.703 -0.0440  0.8286 -0.1644
 5701SOL    HW128322   9.407   0.883   2.685 -0.7749  0.2304  2.5876
 5701SOL    HW228323   9.472   1.031   2.655  0.2132 -1.0097 -1.7310
 5702SOL     OW28324   6.333   1.477   3.790 -0.4089  0.3671  0.8866
 5702SOL    HW128325   6.269   1.411   3.750 -0.1473  0.7397 -0.1605
 5702SOL    HW228326   6.424   1.436   3.795 -0.3249  0.5140  0.5810
 5703SOL     OW28327   0.681   4.410   3.366 -0.1824  0.4475  0.3863
 5703SOL    HW128328   0.770   4.367   3.346 -0.4526 -0.2134  0.5964
 5703SOL    HW228329   0.691   4.509   3.362  0.7626  0.4007  1.1776
 5704SOL     OW28330   5.986   8.754   5.090 -0.0037 -0.4761  0.2954
 5704SOL    HW128331   5.909   8.807   5.053  0.7859  1.6231  1.5648
 5704SOL    HW228332   6.071   8.783   5.046  0.2426 -1.8844 -0.1801
 5705SOL     OW28333   3.893   2.629   4.127  0.0048 -0.0915 -0.4823
 5705SOL    HW128334   3.969   2.594   4.072 -0.1757 -1.9063  0.4030
 5705SOL    HW228335   3.891   2.582   4.215 -1.9282  0.2022 -0.3560
 5706SOL     OW28336   8.110   6.004   0.770 -0.2925  0.5924  0.1296
 5706SOL    HW128337   8.015   5.974   0.783 -0.1387 -0.2825 -0.7122
 5706SOL    HW228338   8.144   5.970   0.683  1.3218 -0.4495  1.1404
 5707SOL     OW28339   1.385   5.801   3.243  0.1664 -0.1725  0.5286
 5707SOL    HW128340   1.461   5.748   3.205 -0.8675 -0.2695 -1.4769
 5707SOL    HW228341   1.419   5.886   3.282  1.4900 -0.9494  1.0803
 5708SOL     OW28342   4.405   4.204   0.061  0.1301  0.1524  0.0945
 5708SOL    HW128343   4.461   4.283   0.088  1.0009 -0.3599 -0.1720
 5708SOL    HW228344   4.464   4.123   0.053 -1.0617 -0.9493  2.2332
 5709SOL     OW28345   6.386   0.832   1.418  0.0836  0.0862  0.3557
 5709SOL    HW128346   6.471   0.823   1.470  0.2000 -3.1150 -0.2509
 5709SOL    HW228347   6.308   0.820   1.479  0.1395  0.1219  0.4343
 5710SOL     OW28348   8.456   8.746   1.581 -0.0148  0.6872  0.1806
 5710SOL    HW128349   8.542   8.720   1.625  0.3571  0.0233 -0.8923
 5710SOL    HW228350   8.470   8.752   1.482 -1.5397 -0.9047 -0.1736
 5711SOL     OW28351   7.776   7.760   4.314 -0.3984  0.1396  0.5101
 5711SOL    HW128352   7.695   7.804   4.351 -0.3234  1.0274 -0.3602
 5711SOL    HW228353   7.850   7.763   4.382 -1.0126 -0.4640  1.2098
 5712SOL     OW28354   2.971   0.429   2.042 -0.1030 -0.5695 -0.0213
 5712SOL    HW128355   3.007   0.382   1.961  0.4518 -0.1264 -0.0384
 5712SOL    HW228356   2.874   0.409   2.052 -0.0382 -1.1085 -0.4602
 5713SOL     OW28357   3.952   1.460   2.886 -0.0308  0.1578 -0.3610
 5713SOL    HW128358   3.884   1.415   2.828  0.7652 -1.2332 -0.2401
 5713SOL    HW228359   3.990   1.538   2.838 -0.7624  0.1581 -0.9486
 5714SOL     OW28360   3.052   5.890   4.708  0.1032 -0.0163 -0.0785
 5714SOL    HW128361   3.143   5.923   4.734  0.6355 -1.3082 -0.2440
 5714SOL    HW228362   3.061   5.799   4.667 -1.4035 -0.6844  1.0725
 5715SOL     OW28363   1.751   1.667   4.620 -0.1828  0.6977 -0.8024
 5715SOL    HW128364   1.835   1.692   4.571 -0.3522  1.1670 -0.8639
 5715SOL    HW228365   1.722   1.576   4.592 -0.1533  0.8700 -1.4149
 5716SOL     OW28366   0.765   1.350   5.239  0.3829 -0.0292 -0.9476
 5716SOL    HW128367   0.749   1.251   5.237 -0.0721  0.0644 -1.9009
 5716SOL    HW228368   0.852   1.370   5.193  0.7033 -0.0243 -0.3496
 5717SOL     OW28369   5.008   9.020   1.624  0.6721  0.4005 -0.4135
 5717SOL    HW128370   4.944   9.087   1.586  0.7530  0.6259 -0.1623
 5717SOL    HW228371   4.974   8.928   1.608  0.8578  0.4774 -1.2989
 5718SOL     OW28372   1.670   2.633   6.686 -0.1153 -0.1988  0.1965
 5718SOL    HW128373   1.700   2.601   6.776  0.4366 -1.2073 -0.3429
 5718SOL    HW228374   1.570   2.631   6.682 -0.1082 -1.0570  0.4513
 5719SOL     OW28375   9.750   5.424   0.268  0.0415  0.0274 -0.6384
 5719SOL    HW128376   9.823   5.365   0.232  0.3256  0.1780 -0.3059
 5719SOL    HW228377   9.718   5.485   0.196 -0.9516 -1.2268 -1.2780
 5720SOL     OW28378   9.689   1.974   3.562 -0.7212  0.4288  0.6439
 5720SOL    HW128379   9.611   1.930   3.518  1.5188 -0.1138 -3.0374
 5720SOL    HW228380   9.688   2.072   3.542 -0.1858  0.3287  0.1017
 5721SOL     OW28381   3.883   5.867   2.725  0.0245 -0.3357  0.2586
 5721SOL    HW128382   3.892   5.945   2.787  3.3106 -0.5358  0.0823
 5721SOL    HW228383   3.939   5.882   2.644  1.1401 -3.1412  0.4687
 5722SOL     OW28384   3.125   7.574   5.837  0.1680  0.3489  0.0377
 5722SOL    HW128385   3.091   7.662   5.870  1.4389  0.5120  0.9404
 5722SOL    HW228386   3.218   7.560   5.870 -0.2968 -1.6793  0.5115
 5723SOL     OW28387   6.394   8.764   4.756 -0.2828  0.3943  0.0892
 5723SOL    HW128388   6.362   8.679   4.796  0.4443  0.0115 -0.1367
 5723SOL    HW228389   6.494   8.765   4.755 -0.2932  0.5752 -1.3298
 5724SOL     OW28390   3.089   2.626   2.080 -0.0465 -0.0294 -0.1846
 5724SOL    HW128391   3.186   2.606   2.087  0.1116  0.5314 -0.8171
 5724SOL    HW228392   3.067   2.656   1.987 -0.8288 -0.1897 -0.0577
 5725SOL     OW28393   6.288   3.962   0.332  0.2860  0.1420  0.6235
 5725SOL    HW128394   6.260   4.015   0.412 -0.3410  0.3814  0.2518
 5725SOL    HW228395   6.239   3.995   0.251 -0.0402 -0.9389  0.3725
 5726SOL     OW28396   2.276   7.624   1.696 -0.1990 -0.0135 -0.1191
 5726SOL    HW128397   2.332   7.542   1.679 -0.0989 -0.2857  1.4153
 5726SOL    HW228398   2.208   7.633   1.623  0.9067 -0.4828 -1.2382
 5727SOL     OW28399   9.704   4.395   1.950 -0.0612  0.1760 -0.3291
 5727SOL    HW128400   9.638   4.362   1.882 -0.0374 -0.5641  0.0013
 5727SOL    HW228401   9.768   4.458   1.906 -0.3967  0.1444 -0.8677
 5728SOL     OW28402   0.607   2.238   6.610 -0.1369  1.0011  0.2553
 5728SOL    HW128403   0.538   2.166   6.615  0.8208  0.0899  0.5003
 5728SOL    HW228404   0.570   2.322   6.648 -0.6915  0.1817  1.5499
 5729SOL     OW28405   3.974   6.984   3.625 -0.4468 -0.0828 -0.1752
 5729SOL    HW128406   3.968   6.917   3.551 -0.1076 -0.8915  0.5299
 5729SOL    HW228407   3.904   7.054   3.611  0.1439  0.2233 -1.7086
 5730SOL     OW28408   9.587   4.993   6.692 -0.1715 -0.3554  0.3173
 5730SOL    HW128409   9.516   4.935   6.654  0.3150 -0.5072 -0.3760
 5730SOL    HW228410   9.549   5.083   6.714 -0.2821  0.0333 -1.3637
 5731SOL     OW28411   4.268   3.799   2.616 -0.2619 -0.6053  0.1568
 5731SOL    HW128412   4.190   3.756   2.663 -1.0631  0.0993 -0.5137
 5731SOL    HW228413   4.328   3.841   2.684  1.2670 -3.9153  0.9555
 5732SOL     OW28414   7.838   6.976   2.847 -0.0207  0.6094  0.3128
 5732SOL    HW128415   7.855   6.886   2.808 -0.5123  1.0804 -1.0262
 5732SOL    HW228416   7.780   6.967   2.928  0.2821 -0.3094  0.4281
 5733SOL     OW28417   2.041   3.003   1.902 -0.4582 -0.0133 -0.0204
 5733SOL    HW128418   2.088   2.918   1.881 -1.4022 -1.3102  2.8053
 5733SOL    HW228419   2.109   3.076   1.913  0.4179 -0.5566 -1.6233
 5734SOL     OW28420   8.720   1.674   2.326 -0.9682 -0.0827  0.5255
 5734SOL    HW128421   8.682   1.582   2.342  0.4117 -0.9213 -0.8925
 5734SOL    HW228422   8.806   1.666   2.277 -0.8810  2.0070  0.3056
 5735SOL     OW28423   9.797   6.277   5.891 -0.5919  0.1172 -0.5981
 5735SOL    HW128424   9.866   6.223   5.939 -0.8257  0.9051  0.6778
 5735SOL    HW228425   9.841   6.345   5.833 -0.2880 -0.1877 -0.7217
 5736SOL     OW28426   7.038   0.237   1.973  0.1286 -0.5109  0.5462
 5736SOL    HW128427   6.987   0.307   1.923 -1.1624 -1.9215 -0.1602
 5736SOL    HW228428   7.102   0.192   1.910  1.9454  0.9319  1.3192
 5737SOL     OW28429   9.577   4.178   1.044  0.0790 -0.2054  0.5409
 5737SOL    HW128430   9.587   4.240   0.967  0.3447 -1.2604 -0.2883
 5737SOL    HW228431   9.655   4.190   1.107  0.6097 -0.3476 -0.0824
 5738SOL     OW28432   0.273   8.705   2.826  0.2754 -0.2997 -0.0827
 5738SOL    HW128433   0.283   8.707   2.726  1.4083  0.9395  0.0358
 5738SOL    HW228434   0.199   8.766   2.853 -0.0995 -0.7127 -0.1575
 5739SOL     OW28435   1.055   0.076   1.184  0.4332 -0.5600 -0.0446
 5739SOL    HW128436   1.121   0.069   1.109 -0.1770 -0.5829 -0.5856
 5739SOL    HW228437   1.103   0.098   1.269  0.8937  1.5630 -0.8385
 5740SOL     OW28438   0.301   7.925   0.851  0.5145 -0.2404 -0.0694
 5740SOL    HW128439   0.215   7.874   0.852  0.2759  0.1735  2.2692
 5740SOL    HW228440   0.290   8.008   0.795 -0.6487 -0.1066  0.3458
 5741SOL     OW28441   5.484   0.571   1.162  0.1095  0.2754 -0.2841
 5741SOL    HW128442   5.510   0.605   1.072  0.3454  1.3724  0.1881
 5741SOL    HW228443   5.550   0.503   1.193  2.0261  2.4717  0.5782
 5742SOL     OW28444   3.046   4.027   1.565  0.3198 -0.7824 -0.2965
 5742SOL    HW128445   2.986   4.096   1.604  0.5341 -1.4980  1.3248
 5742SOL    HW228446   2.991   3.949   1.533  0.3009 -1.0948  0.4772
 5743SOL     OW28447   8.025   7.498   5.533 -0.1504  0.1462 -0.5687
 5743SOL    HW128448   8.085   7.444   5.592 -0.9700 -0.1233  0.0445
 5743SOL    HW228449   8.076   7.532   5.455  0.8466  0.1060  0.0558
 5744SOL     OW28450   6.743   9.983   2.030 -0.1004 -0.1425  0.7253
 5744SOL    HW128451   6.784  10.066   2.069 -1.0806 -0.4821  2.5399
 5744SOL    HW228452   6.812   9.932   1.980  0.4692  1.8918 -0.6562
 5745SOL     OW28453   0.533   5.258   5.768  0.3956 -0.0901 -0.2095
 5745SOL    HW128454   0.586   5.253   5.683 -0.5885 -0.3323 -0.8178
 5745SOL    HW228455   0.436   5.245   5.748 -0.0301  1.4468  0.7438
 5746SOL     OW28456   1.622   6.522   1.332 -0.9554 -0.0181 -0.1575
 5746SOL    HW128457   1.553   6.592   1.312 -0.2722  0.3096 -1.4446
 5746SOL    HW228458   1.591   6.433   1.299 -0.4699  0.2583 -1.3931
 5747SOL     OW28459   3.488   7.605   1.519  0.3784  0.5697  0.6303
 5747SOL    HW128460   3.586   7.586   1.530  0.3946  0.4431  0.2593
 5747SOL    HW228461   3.469   7.698   1.552  1.1138  1.6292 -1.8281
 5748SOL     OW28462   9.143   9.000   6.575  0.0364  0.1091 -0.0039
 5748SOL    HW128463   9.214   9.027   6.510  0.2832  1.8056  0.9151
 5748SOL    HW228464   9.186   8.961   6.657 -0.0316  1.3570  0.6550
 5749SOL     OW28465   0.804   5.604   6.296  0.3017 -0.6414  0.1826
 5749SOL    HW128466   0.899   5.629   6.277 -0.2739  1.6489  0.1176
 5749SOL    HW228467   0.769   5.545   6.224  1.3787 -0.6824 -0.3101
 5750SOL     OW28468   7.123   2.053   3.773 -0.1521  0.5125  0.0004
 5750SOL    HW128469   7.148   1.986   3.703 -1.1421  0.0630  0.0633
 5750SOL    HW228470   7.173   2.034   3.858 -0.1791  0.0554 -0.0861
 5751SOL     OW28471   8.573   5.809   1.693  0.3135 -0.5253  0.0413
 5751SOL    HW128472   8.551   5.838   1.786  0.5936 -0.5524  0.1156
 5751SOL    HW228473   8.672   5.797   1.683  0.2808 -0.5867 -0.2419
 5752SOL     OW28474   1.919   9.199   5.546  0.0567 -0.0015 -0.4444
 5752SOL    HW128475   1.931   9.281   5.601  0.3261 -0.4150  0.1133
 5752SOL    HW228476   1.984   9.129   5.575 -0.0710 -0.3626 -1.0175
 5753SOL     OW28477   9.031   7.702   5.419  0.3503 -0.4461  0.0122
 5753SOL    HW128478   9.033   7.703   5.319  0.1551  0.4139  0.0141
 5753SOL    HW228479   8.974   7.777   5.452 -0.2217 -1.1918  0.7537
 5754SOL     OW28480   3.081   5.616   2.236 -0.2230  0.1030  0.5456
 5754SOL    HW128481   3.015   5.580   2.170 -0.9715  1.2461  0.6551
 5754SOL    HW228482   3.080   5.559   2.318  0.2593 -0.9575 -0.1721
 5755SOL     OW28483   9.532   6.477   3.020 -0.6016  0.2716  0.1475
 5755SOL    HW128484   9.588   6.550   2.981 -1.5055  1.0439  0.2441
 5755SOL    HW228485   9.585   6.424   3.086 -0.0916  1.2206  0.5080
 5756SOL     OW28486   9.004   0.707   6.533  0.4957  0.3573 -0.1584
 5756SOL    HW128487   9.036   0.780   6.592  1.5247  0.2801 -0.5978
 5756SOL    HW228488   9.083   0.662   6.490 -0.2484  1.0177 -2.3055
 5757SOL     OW28489   8.150   1.202   1.775 -0.4044 -0.1055  0.0905
 5757SOL    HW128490   8.120   1.206   1.679 -0.3573 -0.7793  0.0414
 5757SOL    HW228491   8.246   1.229   1.781 -0.2694 -0.5299 -0.1231
 5758SOL     OW28492   0.819   5.485   2.884 -0.0370 -0.1498 -0.0537
 5758SOL    HW128493   0.917   5.477   2.867  0.0628  0.1214  0.3790
 5758SOL    HW228494   0.776   5.395   2.877  0.2748 -0.3004 -0.0430
 5759SOL     OW28495   3.224   6.433   2.012 -0.0808 -0.1375 -0.0394
 5759SOL    HW128496   3.288   6.438   2.089 -1.0859  0.7501  0.7620
 5759SOL    HW228497   3.273   6.449   1.927  0.9452 -0.5192  0.4707
 5760SOL     OW28498   2.894   0.169   0.229  0.2187  0.0932  0.2329
 5760SOL    HW128499   2.958   0.187   0.154 -0.7583  1.6876 -0.2495
 5760SOL    HW228500   2.829   0.099   0.200  0.9713 -0.6418  0.2801
 5761SOL     OW28501   1.620   2.965   1.460  0.6470  0.2765 -0.1517
 5761SOL    HW128502   1.661   3.023   1.531 -0.2639  0.7317  0.0007
 5761SOL    HW228503   1.693   2.932   1.399  1.3611  0.3556  0.6403
 5762SOL     OW28504   9.801   7.172   3.789 -0.4923 -0.2730 -0.0157
 5762SOL    HW128505   9.735   7.103   3.761  0.5671 -0.6822 -1.5793
 5762SOL    HW228506   9.761   7.231   3.860 -2.0437 -1.3199 -0.0121
 5763SOL     OW28507   6.240   1.924   4.522  0.6387  0.3485 -0.2099
 5763SOL    HW128508   6.201   1.972   4.443 -1.7209  0.7959  1.1737
 5763SOL    HW228509   6.310   1.981   4.565 -1.7808  2.3751  1.1139
 5764SOL     OW28510   0.061   3.798   6.630 -0.0142  0.0874  0.2911
 5764SOL    HW128511   0.090   3.713   6.586 -0.5557 -0.5320  1.1170
 5764SOL    HW228512   0.019   3.777   6.718 -1.0363  1.1390  0.0602
 5765SOL     OW28513   1.796   3.046   5.250  0.5584 -0.2396  0.3685
 5765SOL    HW128514   1.791   2.983   5.172  1.9581  0.8861 -0.6680
 5765SOL    HW228515   1.881   3.029   5.300 -0.5476 -1.2592  1.9471
 5766SOL     OW28516   0.060   2.112   2.724  0.1273 -0.6256 -0.2409
 5766SOL    HW128517   0.158   2.120   2.705  0.1324 -0.7985 -0.2864
 5766SOL    HW228518   0.045   2.114   2.823  0.0694  0.6187 -0.2685
 5767SOL     OW28519   8.205   6.883   5.846  0.2375  0.2340  0.1874
 5767SOL    HW128520   8.273   6.888   5.773  0.6465 -1.5623  0.4352
 5767SOL    HW228521   8.181   6.976   5.875 -0.6854  1.0264 -2.8869
 5768SOL     OW28522   1.446   5.310   5.992  0.0270  0.3501  0.2679
 5768SOL    HW128523   1.489   5.376   6.053  1.0010 -0.6973  0.7355
 5768SOL    HW228524   1.430   5.225   6.041 -2.1137  0.5403 -0.0518
 5769SOL     OW28525   8.452   1.246   4.375 -0.1799  0.4507 -0.2097
 5769SOL    HW128526   8.376   1.188   4.403 -1.2520  1.6349 -0.5736
 5769SOL    HW228527   8.453   1.330   4.430  1.0455  0.3205 -0.0138
 5770SOL     OW28528   5.384   2.676   3.296 -0.4818  0.2681  0.9671
 5770SOL    HW128529   5.405   2.612   3.369  0.4335  0.4522  0.8751
 5770SOL    HW228530   5.458   2.674   3.228 -0.3097  1.6170  1.1063
 5771SOL     OW28531   8.173   2.615   3.784 -0.2969 -0.5783 -0.2399
 5771SOL    HW128532   8.191   2.665   3.699  0.0319  0.8772  0.6724
 5771SOL    HW228533   8.093   2.556   3.772 -1.4818  1.1355 -0.9316
 5772SOL     OW28534   0.713   5.522   0.928 -0.2631  0.1362 -0.5017
 5772SOL    HW128535   0.685   5.609   0.888 -1.9458 -0.3138 -0.3207
 5772SOL    HW228536   0.718   5.453   0.855 -0.0545  0.1073 -0.4598
 5773SOL     OW28537   9.195   7.949   2.100 -0.0059 -0.0173 -0.3885
 5773SOL    HW128538   9.117   7.903   2.059 -0.4178 -1.1163  1.5816
 5773SOL    HW228539   9.164   8.018   2.165  0.6402  0.4781 -0.5978
 5774SOL     OW28540   9.283   7.342   2.355 -0.2876  0.2274 -0.0176
 5774SOL    HW128541   9.367   7.386   2.324  1.0022 -1.4981  0.9242
 5774SOL    HW228542   9.283   7.336   2.454 -0.4026 -1.9062 -0.1241
 5775SOL     OW28543   1.557   5.834   2.483 -0.4268 -0.0785  0.1849
 5775SOL    HW128544   1.474   5.872   2.524 -0.7391 -1.0354  0.4527
 5775SOL    HW228545   1.564   5.737   2.506  0.7446 -0.0168  0.1172
 5776SOL     OW28546   4.301   0.690   6.653 -0.1630  0.2357  0.1029
 5776SOL    HW128547   4.363   0.635   6.597 -3.0726 -2.0707 -0.9421
 5776SOL    HW228548   4.261   0.762   6.597 -1.0644 -0.4411 -0.1353
 5777SOL     OW28549   1.140   3.117   0.430 -0.0875 -0.0923 -0.2322
 5777SOL    HW128550   1.235   3.087   0.443  0.3619  2.0110  1.6104
 5777SOL    HW228551   1.136   3.181   0.353 -0.2193 -1.0031 -0.9972
 5778SOL     OW28552   8.631   4.846   6.295 -0.0109 -0.4644 -0.1917
 5778SOL    HW128553   8.584   4.774   6.245 -0.6617 -0.2775  0.1525
 5778SOL    HW228554   8.609   4.838   6.392 -0.5106  0.5371 -0.2256
 5779SOL     OW28555   8.270   6.937   2.049 -0.4734  0.0823 -0.4596
 5779SOL    HW128556   8.292   6.840   2.035  2.0009  0.3835  1.0106
 5779SOL    HW228557   8.283   6.960   2.146 -1.5601  1.7641 -0.6938
 5780SOL     OW28558   2.705   4.413   3.560  0.3467 -0.3898  0.0206
 5780SOL    HW128559   2.632   4.426   3.627  1.1815 -1.4738  1.2011
 5780SOL    HW228560   2.669   4.366   3.480 -0.6043  0.6286 -0.1622
 5781SOL     OW28561   4.128   2.483   2.662  0.0333  0.1001  0.0758
 5781SOL    HW128562   4.035   2.480   2.700 -0.2552  2.4593 -0.3338
 5781SOL    HW228563   4.167   2.391   2.661 -2.9631 -1.2095 -1.3804
 5782SOL     OW28564   7.055   3.141   6.642  0.5978 -0.3791  0.0234
 5782SOL    HW128565   7.013   3.065   6.592  0.4820 -0.1775 -0.1847
 5782SOL    HW228566   6.992   3.174   6.712 -0.3743  1.2208 -1.5913
 5783SOL     OW28567   2.825   6.114   2.363 -0.1447  0.4342 -0.2137
 5783SOL    HW128568   2.858   6.143   2.453 -2.8204 -1.0739  1.3287
 5783SOL    HW228569   2.883   6.040   2.328  2.5817  2.8677 -1.0728
 5784SOL     OW28570   9.941   5.711   5.290  0.3894 -0.3288 -0.3560
 5784SOL    HW128571   9.995   5.627   5.283  0.6794 -0.2829  1.3002
 5784SOL    HW228572   9.895   5.714   5.378 -0.3887  0.8066 -0.7893
 5785SOL     OW28573   2.237   4.464   3.378 -0.2504  0.3804  0.1118
 5785SOL    HW128574   2.302   4.540   3.389  0.3031 -0.0797  0.0210
 5785SOL    HW228575   2.167   4.470   3.449  0.6861  0.0725  1.0657
 5786SOL     OW28576   9.044   6.430   5.007  0.1858 -0.0872 -0.0060
 5786SOL    HW128577   8.970   6.472   4.956  0.7656  1.6340  0.5243
 5786SOL    HW228578   9.108   6.387   4.943 -1.1492 -1.4193 -0.4704
 5787SOL     OW28579   1.555   0.607   0.456  0.4692  0.1233 -0.0047
 5787SOL    HW128580   1.514   0.600   0.364  0.6533  0.5580 -0.1221
 5787SOL    HW228581   1.652   0.626   0.447  0.7301 -1.0795  0.2786
 5788SOL     OW28582   0.297   2.733   3.577 -0.5138  0.2168  0.0776
 5788SOL    HW128583   0.325   2.828   3.567  1.8590 -0.4068  0.6139
 5788SOL    HW228584   0.296   2.688   3.487  0.8344  0.0775  0.1292
 5789SOL     OW28585   9.275   4.848   2.115 -0.4280  1.0607 -0.4360
 5789SOL    HW128586   9.343   4.872   2.184  0.5437  2.2801 -1.7959
 5789SOL    HW228587   9.273   4.749   2.102  2.0480  1.0917 -1.3250
 5790SOL     OW28588   3.748   1.413   1.750 -0.3553 -0.1145 -0.1080
 5790SOL    HW128589   3.791   1.372   1.830 -0.6010  0.7569  0.4740
 5790SOL    HW228590   3.653   1.437   1.771 -1.1049 -1.9162 -1.3500
 5791SOL     OW28591   2.242   1.524   4.705 -0.0007  0.1297 -0.1599
 5791SOL    HW128592   2.246   1.618   4.739 -2.3617 -0.7356  2.8434
 5791SOL    HW228593   2.307   1.467   4.756 -0.8004 -0.4475  0.2279
 5792SOL     OW28594   7.963   3.269   0.425 -0.2226 -0.4553 -0.1634
 5792SOL    HW128595   7.894   3.199   0.441 -0.9121  0.4356  0.7962
 5792SOL    HW228596   8.054   3.231   0.442 -0.6901 -0.6706  1.9465
 5793SOL     OW28597   2.642   3.237   0.449 -0.1930 -0.0018 -0.1449
 5793SOL    HW128598   2.624   3.275   0.540  0.6953  0.6117 -0.2232
 5793SOL    HW228599   2.708   3.162   0.457  1.4749  1.4002 -0.5177
 5794SOL     OW28600   3.322   1.377   0.081  0.1695  0.0319 -0.4224
 5794SOL    HW128601   3.255   1.362   0.008  0.8694 -1.4898 -0.7669
 5794SOL    HW228602   3.308   1.308   0.152 -0.5259  1.5203  0.9133
 5795SOL     OW28603   5.823   9.818   1.951  0.1576  0.0230  0.4559
 5795SOL    HW128604   5.827   9.872   2.035  0.1329 -0.6533  0.8987
 5795SOL    HW228605   5.809   9.878   1.873  0.9202  0.7323  0.8528
 5796SOL     OW28606   8.307   8.367   4.865  0.4195  0.0608 -0.2121
 5796SOL    HW128607   8.377   8.355   4.936 -0.4379 -2.3355  0.2792
 5796SOL    HW228608   8.336   8.318   4.782  0.9515  2.0201 -1.2032
 5797SOL     OW28609   4.088   8.014   1.509  0.2712  0.2833  0.0599
 5797SOL    HW128610   4.006   8.071   1.513  0.1805  0.0828  1.3801
 5797SOL    HW228611   4.155   8.047   1.577  1.1202  0.1910 -0.7183
 5798SOL     OW28612   3.865   0.953   6.375 -0.1069  0.0996  0.3534
 5798SOL    HW128613   3.851   0.903   6.460  0.6384  0.6861  0.8276
 5798SOL    HW228614   3.936   0.908   6.321 -0.3813 -0.1113  0.1648
 5799SOL     OW28615   4.624   9.638   2.611 -0.0786  0.1336  0.0168
 5799SOL    HW128616   4.717   9.661   2.583 -0.2816  0.4934 -0.3650
 5799SOL    HW228617   4.627   9.598   2.703  0.7006 -2.2499 -1.0278
 5800SOL     OW28618   8.449   2.293   5.353 -0.1584  0.1884  0.0503
 5800SOL    HW128619   8.472   2.367   5.290  0.0043  0.4725  0.4397
 5800SOL    HW228620   8.531   2.266   5.403  0.0253 -0.9993 -0.8677
 5801SOL     OW28621   2.768   9.292   4.706 -0.0021  0.6283 -0.4174
 5801SOL    HW128622   2.732   9.356   4.774  1.6094  1.6787 -0.5206
 5801SOL    HW228623   2.697   9.271   4.639 -1.2852  0.4180  0.9826
 5802SOL     OW28624   2.361   9.818   6.587 -0.1132 -0.1891  0.3164
 5802SOL    HW128625   2.369   9.719   6.585  1.4700 -0.0510 -0.5467
 5802SOL    HW228626   2.283   9.846   6.530 -0.4023 -0.9080  0.3473
 5803SOL     OW28627   1.896   1.661   5.078 -0.0637 -0.0762 -0.5994
 5803SOL    HW128628   1.900   1.564   5.104 -0.6924  0.3545  1.1413
 5803SOL    HW228629   1.913   1.669   4.979  1.2949 -1.8450 -0.5454
 5804SOL     OW28630   5.019   8.973   4.431 -0.1088  0.7513 -0.1189
 5804SOL    HW128631   5.114   8.996   4.409 -0.6032  0.0064 -3.2308
 5804SOL    HW228632   4.977   9.050   4.480  2.1655  0.9431  1.6001
 5805SOL     OW28633   5.277   8.935   6.610  0.3811 -0.5721  0.5479
 5805SOL    HW128634   5.275   8.873   6.688  2.7240 -0.5434  0.6456
 5805SOL    HW228635   5.295   9.028   6.642 -0.6641 -0.2241  0.1552
 5806SOL     OW28636   9.355   7.120   0.344  0.5197  0.2217  0.0752
 5806SOL    HW128637   9.454   7.124   0.361  0.7524 -0.4089 -1.0205
 5806SOL    HW228638   9.338   7.058   0.267 -0.9348 -1.6199  1.8268
 5807SOL     OW28639   1.971   6.778   3.725  0.1777  0.7771  0.6662
 5807SOL    HW128640   2.006   6.869   3.705  1.1214  0.4944  0.9932
 5807SOL    HW228641   1.993   6.754   3.819  0.3034  0.0421  0.4528
 5808SOL     OW28642   9.243   3.040   3.739  0.5571 -0.4167 -0.0532
 5808SOL    HW128643   9.335   3.000   3.733  0.3335 -0.9505  0.0362
 5808SOL    HW228644   9.176   2.975   3.702  0.1177 -0.3644  0.6480
 5809SOL     OW28645   7.800   5.822   6.051  0.1162  0.2460 -0.3451
 5809SOL    HW128646   7.788   5.921   6.042 -0.8988  0.1891  0.3328
 5809SOL    HW228647   7.897   5.802   6.062  0.1836  1.3203  1.2008
 5810SOL     OW28648   5.437   8.349   4.233  0.6169 -0.0593  0.6028
 5810SOL    HW128649   5.365   8.412   4.203  1.6690  0.7232 -0.3154
 5810SOL    HW228650   5.517   8.359   4.174  0.7210 -2.4490  0.2745
 5811SOL     OW28651   4.090   3.106   0.003 -0.5196 -0.2491 -0.1488
 5811SOL    HW128652   4.111   3.157   0.086  0.1804 -0.1606 -0.3723
 5811SOL    HW228653   4.091   3.008   0.024  1.3764 -0.3138 -0.3979
 5812SOL     OW28654   2.133   8.409   6.604  0.1594  0.6784  0.0097
 5812SOL    HW128655   2.217   8.459   6.581  0.3174  1.1531  1.5364
 5812SOL    HW228656   2.076   8.466   6.663 -0.6655 -0.1165 -0.0177
 5813SOL     OW28657   3.356   2.576   0.972 -0.5970  0.3198 -0.2681
 5813SOL    HW128658   3.371   2.675   0.974 -0.6047  0.3236 -0.4125
 5813SOL    HW228659   3.439   2.529   1.002 -0.9128  0.4001  0.7746
 5814SOL     OW28660   6.697   0.315   4.175 -0.1992 -0.3004  0.5165
 5814SOL    HW128661   6.748   0.231   4.161 -0.4648 -0.3180 -0.3930
 5814SOL    HW228662   6.755   0.394   4.156 -0.5274 -0.3223 -0.6197
 5815SOL     OW28663   9.901   0.956   0.304  0.3404 -0.0202 -0.3269
 5815SOL    HW128664   9.808   0.977   0.275  0.9136  0.4342 -1.8866
 5815SOL    HW228665   9.941   1.036   0.350  0.8669  0.7052 -2.0154
 5816SOL     OW28666   9.800   5.101   6.506 -0.0504  0.4143  0.2790
 5816SOL    HW128667   9.720   5.052   6.541  1.1747 -1.2160  0.8603
 5816SOL    HW228668   9.771   5.188   6.466 -2.0292  0.1433  1.0722
 5817SOL     OW28669   1.929   8.423   6.424 -0.3096 -0.4053  0.6503
 5817SOL    HW128670   2.011   8.393   6.471  0.0099  0.5504  0.7195
 5817SOL    HW228671   1.892   8.504   6.470  0.3767  0.9414 -1.1224
 5818SOL     OW28672   0.451   4.525   1.143 -0.8194  0.0983  0.8338
 5818SOL    HW128673   0.497   4.613   1.148 -0.3029  0.1985 -3.5992
 5818SOL    HW228674   0.364   4.536   1.096 -2.3215 -1.2642  3.1727
 5819SOL     OW28675   9.918   4.358   4.502  0.8836 -0.3436  0.3966
 5819SOL    HW128676   9.859   4.297   4.556 -0.4828  0.5514 -0.0722
 5819SOL    HW228677  10.007   4.314   4.488  0.6928 -1.2780  1.9837
 5820SOL     OW28678   1.858   1.894   4.177  0.3737 -0.6931 -0.7295
 5820SOL    HW128679   1.814   1.880   4.088 -0.4422 -0.9321 -0.2990
 5820SOL    HW228680   1.803   1.849   4.248 -0.0943  1.2306  0.1662
 5821SOL     OW28681   1.891   1.613   6.389  0.0593  0.6022 -0.5122
 5821SOL    HW128682   1.927   1.575   6.304 -2.5232 -1.6442 -0.6804
 5821SOL    HW228683   1.803   1.657   6.372  0.1322  1.2837  0.7867
 5822SOL     OW28684   4.327   2.623   5.442 -0.3551  0.0295  0.1067
 5822SOL    HW128685   4.382   2.701   5.412  0.9793 -1.0556 -0.3387
 5822SOL    HW228686   4.233   2.634   5.410 -0.0450  1.1652 -0.4439
 5823SOL     OW28687   7.438   0.813   3.596  0.2266 -0.2499 -0.2182
 5823SOL    HW128688   7.415   0.908   3.620 -0.8497 -0.1917 -1.4277
 5823SOL    HW228689   7.368   0.776   3.536  1.0682 -1.5559 -0.4156
 5824SOL     OW28690   7.176   0.893   4.448  1.0226 -0.5608 -0.2212
 5824SOL    HW128691   7.255   0.843   4.484  0.1110 -2.3608 -0.6351
 5824SOL    HW228692   7.097   0.875   4.507  0.6237  0.1991 -0.5249
 5825SOL     OW28693   3.161   7.275   5.749 -0.0352 -0.3114  0.3334
 5825SOL    HW128694   3.228   7.283   5.676  0.1876  0.2630  0.6007
 5825SOL    HW228695   3.095   7.350   5.742  1.0428  0.8172  1.7983
 5826SOL     OW28696   5.222   8.449   3.497 -0.1230 -0.2814 -0.1907
 5826SOL    HW128697   5.298   8.513   3.485 -0.6097  0.1953 -0.7189
 5826SOL    HW228698   5.236   8.369   3.439 -0.3166  0.0645 -0.7097
 5827SOL     OW28699   4.202   0.925   4.184 -0.3983  0.3612  0.6452
 5827SOL    HW128700   4.109   0.896   4.207  0.5077 -2.4263  0.8627
 5827SOL    HW228701   4.256   0.847   4.155  1.3873  2.2446 -1.3386
 5828SOL     OW28702   0.406   7.152   2.644  0.2078  0.3160 -0.0840
 5828SOL    HW128703   0.367   7.089   2.711  1.2267  1.5646  1.7189
 5828SOL    HW228704   0.502   7.170   2.665  0.7458  0.2347 -2.2743
 5829SOL     OW28705   5.376   0.277   4.879  0.2748  0.6637  0.0034
 5829SOL    HW128706   5.411   0.367   4.905 -1.6076  1.3714  0.1748
 5829SOL    HW228707   5.343   0.281   4.784  1.3009 -0.1930 -0.4028
 5830SOL     OW28708   7.522   8.770   3.335 -0.0080 -0.0333  0.2321
 5830SOL    HW128709   7.506   8.696   3.401 -1.6592 -1.5734 -1.8326
 5830SOL    HW228710   7.578   8.737   3.260  0.6915  1.3168  0.1494
 5831SOL     OW28711   8.126   2.377   5.166 -0.3273 -0.3223  0.8499
 5831SOL    HW128712   8.077   2.296   5.198 -1.2934 -0.7076 -1.4382
 5831SOL    HW228713   8.068   2.457   5.175 -1.0982 -0.6316 -0.9923
 5832SOL     OW28714   5.903   9.400   2.773 -0.4194 -0.0734 -0.6697
 5832SOL    HW128715   5.908   9.330   2.702 -2.3819 -0.5972 -0.3225
 5832SOL    HW228716   5.938   9.363   2.859 -1.5667 -0.6888 -0.4562
 5833SOL     OW28717   9.449   6.304   1.624  0.1668 -0.0677  0.0231
 5833SOL    HW128718   9.396   6.337   1.702 -0.2109 -2.2050  0.7018
 5833SOL    HW228719   9.400   6.327   1.539 -1.1604 -0.7391  0.5844
 5834SOL     OW28720   8.613   3.163   2.286  0.2597  0.3989  0.6837
 5834SOL    HW128721   8.557   3.182   2.367  2.3932  0.9696  2.0751
 5834SOL    HW228722   8.666   3.245   2.263 -0.2914  0.2232 -1.2989
 5835SOL     OW28723   1.583   4.307   6.183 -0.5594  0.7516  0.3440
 5835SOL    HW128724   1.682   4.319   6.179 -0.8145  3.4895  1.1931
 5835SOL    HW228725   1.545   4.317   6.091 -0.1544  0.9617  0.1954
 5836SOL     OW28726   4.305   5.269   1.438  0.0313  0.1842 -0.3210
 5836SOL    HW128727   4.316   5.259   1.537 -2.9476  4.2002  0.5574
 5836SOL    HW228728   4.394   5.288   1.396  1.0677  0.2904  1.8781
 5837SOL     OW28729   3.707   1.864   3.831  0.4952  0.3600  0.2132
 5837SOL    HW128730   3.722   1.932   3.902  0.5904 -0.0445  0.5794
 5837SOL    HW228731   3.716   1.907   3.741  0.8186  0.7746  0.4456
 5838SOL     OW28732   0.378   7.927   4.641 -0.2575  0.4478 -0.6812
 5838SOL    HW128733   0.353   7.899   4.549 -0.0452  1.7412 -1.1478
 5838SOL    HW228734   0.475   7.909   4.656 -0.5603 -0.8914 -0.2712
 5839SOL     OW28735   4.241   0.785   5.094  0.2247  0.1995 -0.4340
 5839SOL    HW128736   4.163   0.830   5.051 -0.3157 -0.2431  0.0745
 5839SOL    HW228737   4.324   0.838   5.076 -0.2831  0.9962 -0.4803
 5840SOL     OW28738   8.486   1.515   5.845 -0.6371 -0.5812 -0.5204
 5840SOL    HW128739   8.474   1.549   5.752 -2.7942  1.0049  0.3121
 5840SOL    HW228740   8.430   1.433   5.858 -1.2348 -0.1320 -0.2672
 5841SOL     OW28741   2.344   7.682   5.263 -0.4129  0.2202 -0.7455
 5841SOL    HW128742   2.404   7.632   5.325  1.5334  0.5121 -2.3575
 5841SOL    HW228743   2.283   7.619   5.216  0.9824 -0.5053 -1.6221
 5842SOL     OW28744   8.927   7.732   0.380  0.3322  0.6045 -0.4221
 5842SOL    HW128745   8.836   7.740   0.421 -0.6218  2.2072 -2.7544
 5842SOL    HW228746   8.961   7.639   0.393 -3.5914 -1.3858 -3.3986
 5843SOL     OW28747   4.133   2.375   0.921  0.3016 -0.3828 -0.3322
 5843SOL    HW128748   4.219   2.385   0.971  0.7495  1.3055 -1.3969
 5843SOL    HW228749   4.075   2.309   0.968  0.8365  0.9141  2.2238
 5844SOL     OW28750   2.029   6.640   4.635 -0.0643  0.2776 -0.1181
 5844SOL    HW128751   2.116   6.606   4.600 -0.6467  0.8994 -2.2620
 5844SOL    HW228752   2.045   6.706   4.708  1.1362 -2.3893  2.1200
 5845SOL     OW28753   1.924   6.993   4.110  0.1882  0.4526  0.1184
 5845SOL    HW128754   1.839   6.961   4.153 -0.4473  0.5919 -1.0252
 5845SOL    HW228755   1.965   7.064   4.167  0.4411 -0.7959  1.5492
 5846SOL     OW28756   0.780   9.170   1.425 -0.0561 -0.3477 -0.1711
 5846SOL    HW128757   0.859   9.108   1.423  0.4961  0.3709 -3.3237
 5846SOL    HW228758   0.697   9.118   1.405  0.4938 -0.0915 -3.5598
 5847SOL     OW28759   1.912   8.310   0.680  0.4074  0.2617 -0.9640
 5847SOL    HW128760   1.878   8.216   0.680  0.1837  0.3262 -2.7943
 5847SOL    HW228761   1.841   8.372   0.647 -0.0449  1.3364  1.8986
 5848SOL     OW28762   5.499   1.505   3.297  0.3742 -0.2078 -0.8613
 5848SOL    HW128763   5.433   1.565   3.252 -1.3534 -0.4643  1.2651
 5848SOL    HW228764   5.587   1.509   3.248 -0.8691  0.9939 -3.0586
 5849SOL     OW28765   3.131   3.744   4.249 -0.5213 -0.6415 -1.0389
 5849SOL    HW128766   3.166   3.818   4.193 -0.8280 -0.3462 -0.8441
 5849SOL    HW228767   3.048   3.774   4.296 -0.2479 -0.8682 -0.4002
 5850SOL     OW28768   1.392   1.500   6.041  0.1769 -0.2314  0.3578
 5850SOL    HW128769   1.351   1.590   6.030 -0.7711 -0.6896  0.0507
 5850SOL    HW228770   1.396   1.476   6.138  0.0030 -0.0525  0.4085
 5851SOL     OW28771   8.290   6.362   3.319 -0.2060  0.3291  0.0851
 5851SOL    HW128772   8.360   6.344   3.251 -0.8689  1.2127 -0.8394
 5851SOL    HW228773   8.207   6.396   3.274 -1.0556 -0.2089  1.2062
 5852SOL     OW28774   3.953   1.116   5.692 -0.4923 -0.0556  0.1548
 5852SOL    HW128775   3.989   1.152   5.778 -0.0109 -0.0176 -0.0578
 5852SOL    HW228776   4.009   1.151   5.616 -2.6367  2.2301 -0.4389
 5853SOL     OW28777   1.292   0.091   0.107  0.0115  0.0010  0.3295
 5853SOL    HW128778   1.302  -0.005   0.131  1.2942 -0.4089 -1.7670
 5853SOL    HW228779   1.203   0.105   0.063  0.7997 -0.7060 -1.5319
 5854SOL     OW28780   3.705   6.112   3.798 -0.4794  0.7399  0.4273
 5854SOL    HW128781   3.631   6.167   3.836 -1.6954 -0.6533  0.1141
 5854SOL    HW228782   3.684   6.090   3.703 -0.0532 -0.3685  0.5931
 5855SOL     OW28783   3.331   4.073   1.349  0.3921 -0.2751  0.1264
 5855SOL    HW128784   3.355   4.121   1.433 -1.3183  0.4874  0.2033
 5855SOL    HW228785   3.309   3.978   1.370  1.6513 -0.5311  0.2884
 5856SOL     OW28786   3.812   4.101   5.179 -0.3090  0.0922  0.3548
 5856SOL    HW128787   3.808   4.177   5.244 -1.8149 -0.1084  0.5272
 5856SOL    HW228788   3.724   4.095   5.130  0.5007 -0.2866 -1.0889
 5857SOL     OW28789   4.009   7.084   3.983 -0.3281 -0.1918  0.0635
 5857SOL    HW128790   4.014   6.989   3.952  1.6840 -0.1926  0.3075
 5857SOL    HW228791   3.953   7.138   3.920 -2.8470 -1.8554  0.7956
 5858SOL     OW28792   2.042   5.281   5.502 -0.2538 -0.0097  0.0374
 5858SOL    HW128793   2.122   5.340   5.494  0.0961 -0.5667 -0.5614
 5858SOL    HW228794   1.972   5.310   5.437 -1.0646  1.2860  1.4327
 5859SOL     OW28795   9.496   4.773   4.856  0.2209 -0.7484  0.2683
 5859SOL    HW128796   9.587   4.788   4.896 -1.6221  1.6907  3.9235
 5859SOL    HW228797   9.438   4.729   4.924 -1.9200 -0.3029 -1.2380
 5860SOL     OW28798   3.751   7.570   2.374  0.3429  0.2143  0.3369
 5860SOL    HW128799   3.833   7.527   2.335  0.1812  0.9615 -0.8504
 5860SOL    HW228800   3.751   7.668   2.352  0.5331  0.7808  2.7196
 5861SOL     OW28801   4.338   0.475   3.080  0.2830  0.3711 -0.1153
 5861SOL    HW128802   4.300   0.395   3.127 -1.1998  0.9093 -0.3889
 5861SOL    HW228803   4.414   0.445   3.023 -0.9606 -1.0368 -1.0816
 5862SOL     OW28804   4.020   4.376   6.614 -0.0297  0.1001  0.0692
 5862SOL    HW128805   3.953   4.419   6.554  1.9154  3.6616  0.3288
 5862SOL    HW228806   4.037   4.282   6.582 -1.4681  0.7913 -2.9345
 5863SOL     OW28807   0.902   3.314   0.566  0.0300  0.3555  0.5452
 5863SOL    HW128808   0.991   3.347   0.537  0.4376 -0.8355  0.4091
 5863SOL    HW228809   0.913   3.241   0.634 -0.7752 -1.2464 -1.0037
 5864SOL     OW28810   7.608   3.298   5.792 -0.4486 -0.3463 -0.2370
 5864SOL    HW128811   7.629   3.214   5.743 -2.7388 -0.6631 -0.7354
 5864SOL    HW228812   7.589   3.277   5.888 -0.0753 -0.2515 -0.1383
 5865SOL     OW28813   3.024   5.626   3.344  0.2260  0.4297  0.1896
 5865SOL    HW128814   3.055   5.640   3.250  1.6411  0.7008  0.6832
 5865SOL    HW228815   3.101   5.599   3.401 -0.6437  0.1612  1.2569
 5866SOL     OW28816   8.598   3.477   5.999  0.0604 -0.1925 -0.4249
 5866SOL    HW128817   8.696   3.487   5.981  0.0146  2.5430  0.5750
 5866SOL    HW228818   8.579   3.506   6.093 -1.5216 -2.0817 -0.1335
 5867SOL     OW28819   9.550   0.901   0.070 -0.1656  0.2475  0.0379
 5867SOL    HW128820   9.463   0.929   0.112  0.3295 -2.0691  2.8130
 5867SOL    HW228821   9.533   0.866  -0.022 -1.9980  0.9119  0.0907
 5868SOL     OW28822   7.547   1.908   3.134  0.0528 -0.1288 -0.4564
 5868SOL    HW128823   7.547   1.980   3.064  0.5009  0.9438  0.6316
 5868SOL    HW228824   7.641   1.877   3.150  0.2388  1.2718  1.3159
 5869SOL     OW28825   3.108   0.614   4.551  0.0642  0.4719  0.3829
 5869SOL    HW128826   3.021   0.628   4.503  0.2155 -0.8776 -0.3187
 5869SOL    HW228827   3.173   0.569   4.490  1.0168  0.7902  1.1476
 5870SOL     OW28828   3.976   8.176   2.338 -1.0277 -1.0869 -1.0231
 5870SOL    HW128829   3.975   8.221   2.249  2.1692 -1.7935 -1.4867
 5870SOL    HW228830   3.972   8.077   2.326 -0.6693 -1.1854 -0.3660
 5871SOL     OW28831   0.883   5.780   2.077 -0.1492  0.5137  0.3135
 5871SOL    HW128832   0.864   5.843   2.002  0.7359 -0.0136 -0.3707
 5871SOL    HW228833   0.797   5.755   2.122 -0.5698  1.6921  0.1871
 5872SOL     OW28834   8.012   4.955   0.249  0.0576 -0.9208  0.5839
 5872SOL    HW128835   8.047   4.874   0.201 -0.0270 -1.3111  1.1635
 5872SOL    HW228836   8.085   5.022   0.259 -0.1065 -0.5385 -0.6995
 5873SOL     OW28837   2.144   4.172   5.344 -0.3214  0.1836  0.5624
 5873SOL    HW128838   2.055   4.146   5.383 -1.2106 -0.4373 -1.8026
 5873SOL    HW228839   2.180   4.097   5.289  2.0255  0.1825  2.0318
 5874SOL     OW28840   9.371   1.754   2.144  0.3345  0.5079 -0.0498
 5874SOL    HW128841   9.392   1.795   2.233 -0.8016 -0.0647  0.4991
 5874SOL    HW228842   9.335   1.824   2.083  2.3520  1.1680 -0.4886
 5875SOL     OW28843   9.429   7.749   2.551  0.2480  0.0398  0.4290
 5875SOL    HW128844   9.444   7.842   2.586 -0.3426  0.4900 -0.4989
 5875SOL    HW228845   9.404   7.689   2.627  0.3476  0.7019  0.9918
 5876SOL     OW28846   1.023   1.875   0.283  0.0596  0.3204 -0.3728
 5876SOL    HW128847   1.030   1.898   0.381  1.0706  0.4467 -0.4729
 5876SOL    HW228848   1.055   1.781   0.269  1.7305  0.9503 -0.8539
 5877SOL     OW28849   1.621   7.652   4.042  0.4415  0.3557  0.4996
 5877SOL    HW128850   1.720   7.660   4.033  0.4013  0.7707  0.4289
 5877SOL    HW228851   1.577   7.689   3.960  0.2629 -0.7867  0.0651
 5878SOL     OW28852   4.459  10.001   3.683 -0.0813  0.1754  0.0482
 5878SOL    HW128853   4.453   9.934   3.609  0.6680 -0.7836  0.8475
 5878SOL    HW228854   4.455   9.954   3.771  0.2749  1.2048  0.6198
 5879SOL     OW28855   7.473   1.172   6.472 -0.4731 -0.4467  0.1520
 5879SOL    HW128856   7.381   1.157   6.509  0.1326 -1.8679  1.1041
 5879SOL    HW228857   7.502   1.090   6.422  0.0142  0.2580 -0.7505
 5880SOL     OW28858   2.922   2.874   4.534 -0.2633 -0.0910 -0.0931
 5880SOL    HW128859   2.845   2.836   4.484  0.2461 -1.3645  0.0658
 5880SOL    HW228860   2.891   2.910   4.622 -0.6210 -0.9441  0.1324
 5881SOL     OW28861   4.423   6.783   1.225  0.1938  0.1216 -0.5386
 5881SOL    HW128862   4.470   6.845   1.287  1.1474 -0.3799 -0.7449
 5881SOL    HW228863   4.456   6.690   1.240  0.1780 -0.0548 -1.5608
 5882SOL     OW28864   9.053   9.011   5.192 -0.5559 -0.3476  0.4409
 5882SOL    HW128865   9.036   9.094   5.246  1.1467 -0.4105  1.1109
 5882SOL    HW228866   9.096   8.942   5.250 -2.3814 -1.8916  0.0035
 5883SOL     OW28867   1.867   2.445   0.975  0.0583  0.0463  0.1686
 5883SOL    HW128868   1.893   2.365   0.921  1.0207  0.1116  0.5323
 5883SOL    HW228869   1.782   2.425   1.025  0.0154 -0.5619 -0.1440
 5884SOL     OW28870   4.219   4.061   2.836 -0.5719  0.2086  0.5776
 5884SOL    HW128871   4.256   4.009   2.913 -1.0076 -2.5868 -1.0627
 5884SOL    HW228872   4.124   4.086   2.855 -0.6989 -0.5276  0.9095
 5885SOL     OW28873   0.573   5.830   3.876 -0.1931 -0.6281  0.6659
 5885SOL    HW128874   0.534   5.739   3.886  0.0923 -0.6353  1.7624
 5885SOL    HW228875   0.642   5.830   3.804 -1.2616 -0.9260 -0.3757
 5886SOL     OW28876   9.296   9.672   0.078 -0.4138 -1.2826  0.9973
 5886SOL    HW128877   9.256   9.662   0.169  0.7106 -1.7055  1.4530
 5886SOL    HW228878   9.394   9.690   0.087 -0.9203  2.2193 -0.0307
 5887SOL     OW28879   4.327   1.088   6.711  0.2540 -0.0429 -0.4813
 5887SOL    HW128880   4.304   1.152   6.638  0.4427  0.9714  0.3357
 5887SOL    HW228881   4.248   1.076   6.771  0.2622 -0.4621 -0.5543
 5888SOL     OW28882   7.045   0.138   4.654 -0.1776 -0.3069 -0.7557
 5888SOL    HW128883   6.985   0.140   4.735 -0.1889 -0.1049 -0.7679
 5888SOL    HW228884   7.139   0.121   4.683  0.0592  1.2703 -0.5458
 5889SOL     OW28885   2.606   7.276   6.048 -0.4944  0.1693  0.2791
 5889SOL    HW128886   2.520   7.327   6.048 -0.7334 -0.2026 -1.7892
 5889SOL    HW228887   2.591   7.186   6.008  0.5096 -0.5470  1.4568
 5890SOL     OW28888   8.325   9.697   3.360  0.2442 -0.0200  0.2872
 5890SOL    HW128889   8.331   9.629   3.286 -0.5223 -0.0592  0.2593
 5890SOL    HW228890   8.344   9.652   3.448  1.6044  0.1207  0.0726
 5891SOL     OW28891   8.209   6.000   6.087  0.3341 -0.2068 -0.3949
 5891SOL    HW128892   8.304   5.982   6.109 -0.1324 -0.2797  1.6398
 5891SOL    HW228893   8.196   6.097   6.068  0.5204  0.0681  0.8672
 5892SOL     OW28894   5.069   3.798   0.668 -0.0257 -0.1846  0.2307
 5892SOL    HW128895   5.082   3.759   0.577 -0.4509  2.4423 -0.9799
 5892SOL    HW228896   5.132   3.874   0.681 -1.0645  0.4578  1.5440
 5893SOL     OW28897   8.557   0.816   3.835 -0.1679  0.1903  0.2612
 5893SOL    HW128898   8.478   0.870   3.807 -0.0399 -0.0612 -0.5887
 5893SOL    HW228899   8.640   0.871   3.826 -0.1174  0.0835  0.0865
 5894SOL     OW28900   4.013   9.846   4.580  0.1571  0.1288  0.3332
 5894SOL    HW128901   4.031   9.785   4.657  0.5252  0.6309  0.6457
 5894SOL    HW228902   4.003   9.791   4.497 -0.8406 -0.4572  0.8368
 5895SOL     OW28903   4.083   0.154   2.948 -0.2492  0.3700 -0.1488
 5895SOL    HW128904   4.122   0.138   2.857 -0.0896  1.3859 -0.2615
 5895SOL    HW228905   4.053   0.066   2.987  0.9106 -0.2421 -0.6166
 5896SOL     OW28906   8.261   2.886   1.013 -0.0495 -0.2945  0.3954
 5896SOL    HW128907   8.321   2.965   1.029 -0.9910  0.5791 -0.3266
 5896SOL    HW228908   8.167   2.910   1.035 -0.1056 -1.7921  1.9064
 5897SOL     OW28909   2.564   6.331   5.789  0.1839  0.3075  0.7854
 5897SOL    HW128910   2.494   6.398   5.814  0.3540  0.7605  0.0708
 5897SOL    HW228911   2.639   6.334   5.855 -0.8298 -0.7425  2.0151
 5898SOL     OW28912   4.726   3.546   1.232  0.4603 -0.7451 -0.0707
 5898SOL    HW128913   4.676   3.565   1.148 -0.7103  0.1854  0.8117
 5898SOL    HW228914   4.723   3.448   1.251 -0.2106 -0.8227 -0.5469
 5899SOL     OW28915   0.955   7.897   0.418  0.1801  0.2485  0.4479
 5899SOL    HW128916   0.964   7.976   0.357  0.5417 -0.3011 -0.2287
 5899SOL    HW228917   0.986   7.815   0.370 -0.1154 -0.2914  1.1726
 5900SOL     OW28918   8.690   3.684   4.005 -0.2899  0.1702  0.0740
 5900SOL    HW128919   8.726   3.677   3.912  1.4440 -0.4310  0.7659
 5900SOL    HW228920   8.607   3.628   4.013 -1.4309  1.6088 -1.5570
 5901SOL     OW28921   1.375   1.040   1.169  0.7597  0.2341  0.3237
 5901SOL    HW128922   1.342   0.965   1.227 -0.9767 -0.0689 -1.0044
 5901SOL    HW228923   1.334   1.126   1.199  1.5204  0.4155  0.8586
 5902SOL     OW28924   2.503   3.291   2.288  0.6410  0.7222  0.3737
 5902SOL    HW128925   2.468   3.384   2.284  2.9353  1.5730 -0.7067
 5902SOL    HW228926   2.460   3.236   2.216 -0.7128  0.9223  1.0113
 5903SOL     OW28927   7.204   9.506   4.966 -0.8210 -0.4505  0.2587
 5903SOL    HW128928   7.175   9.601   4.977 -0.6980 -0.2530 -1.0345
 5903SOL    HW228929   7.300   9.503   4.939 -0.8729 -0.9327  0.1082
 5904SOL     OW28930   8.168   2.989   0.257  0.2516  0.7238  0.7324
 5904SOL    HW128931   8.187   3.037   0.342  1.1273 -0.0847  0.9926
 5904SOL    HW228932   8.226   3.025   0.184 -0.4413  1.3616  0.4866
 5905SOL     OW28933   0.550   9.509   0.282  0.3568  0.1464  0.3036
 5905SOL    HW128934   0.609   9.590   0.288  0.0874  0.2574  1.4346
 5905SOL    HW228935   0.555   9.457   0.367 -0.4857 -0.3314  0.0647
 5906SOL     OW28936   1.979   8.840   2.784 -0.1653 -0.2587 -0.4146
 5906SOL    HW128937   1.973   8.753   2.735  0.6008 -0.0207 -0.9358
 5906SOL    HW228938   2.050   8.897   2.742  0.8316 -0.2451  1.2564
 5907SOL     OW28939   6.398   1.310   5.357  0.5583 -0.2900 -0.1148
 5907SOL    HW128940   6.311   1.329   5.404 -0.6499 -2.9761 -1.1539
 5907SOL    HW228941   6.433   1.221   5.386  2.0341 -0.0449 -1.0807
 5908SOL     OW28942   9.168   2.622   0.433 -0.1839  0.2538  0.7194
 5908SOL    HW128943   9.077   2.661   0.417  0.6192  1.7212 -0.5275
 5908SOL    HW228944   9.233   2.697   0.445  1.3552 -0.6956 -1.4252
 5909SOL     OW28945   1.870   0.525   2.790 -0.3338  0.4005  0.2338
 5909SOL    HW128946   1.968   0.542   2.779 -0.0921 -1.5608 -0.7367
 5909SOL    HW228947   1.857   0.446   2.850 -1.2364 -1.0959 -1.8867
 5910SOL     OW28948   1.632   1.499   2.452 -0.2183  0.9806 -0.0679
 5910SOL    HW128949   1.730   1.518   2.439 -0.0151 -0.5711 -1.0400
 5910SOL    HW228950   1.622   1.417   2.508 -0.9608  0.8891 -0.3372
 5911SOL     OW28951   9.377   8.901   5.006 -0.2513  0.3835  0.0970
 5911SOL    HW128952   9.440   8.856   4.943 -0.9723  1.3949 -1.3772
 5911SOL    HW228953   9.314   8.833   5.045  1.6458 -0.6050  1.5000
 5912SOL     OW28954   4.474   5.304   3.171 -0.4638 -0.0362 -0.1326
 5912SOL    HW128955   4.530   5.347   3.242  0.2402 -1.2210  0.0361
 5912SOL    HW228956   4.409   5.371   3.135 -2.2900  0.0248  3.1036
 5913SOL     OW28957   0.214   1.723   2.038  0.6508 -0.6045  0.6729
 5913SOL    HW128958   0.161   1.807   2.047  0.0444 -1.1350  2.2195
 5913SOL    HW228959   0.180   1.669   1.962  0.7301  0.3239 -0.0225
 5914SOL     OW28960   3.764   3.848   6.252 -0.4151  0.2875  0.6772
 5914SOL    HW128961   3.815   3.902   6.319 -0.9690 -0.1236  1.4413
 5914SOL    HW228962   3.793   3.874   6.160  0.6873  0.5232  1.0815
 5915SOL     OW28963   6.015   7.855   2.231 -0.5518 -0.3078 -0.0669
 5915SOL    HW128964   5.974   7.792   2.298 -1.7014 -1.4109 -1.7675
 5915SOL    HW228965   6.108   7.825   2.209 -1.6279 -2.3637 -2.0195
 5916SOL     OW28966   2.500   1.111   0.918  0.6950  0.0622 -0.1731
 5916SOL    HW128967   2.579   1.145   0.968  0.8560  0.6519 -0.8297
 5916SOL    HW228968   2.529   1.043   0.850  0.5457 -0.3010  0.1240
 5917SOL     OW28969   1.091   6.196   0.310 -0.6235  0.0090  0.4444
 5917SOL    HW128970   1.178   6.214   0.355  0.7195 -0.7946 -1.7822
 5917SOL    HW228971   1.016   6.225   0.371  1.2045  3.4620  1.2031
 5918SOL     OW28972   3.393   9.116   4.373  0.1380  0.3831  0.7383
 5918SOL    HW128973   3.363   9.027   4.338  0.4584  1.0993 -1.4452
 5918SOL    HW228974   3.313   9.167   4.405 -0.5921  0.9170 -1.8401
 5919SOL     OW28975   8.542   9.262   1.269 -0.3693 -0.2722  0.0022
 5919SOL    HW128976   8.458   9.260   1.214 -0.1207 -1.1163 -0.3573
 5919SOL    HW228977   8.563   9.356   1.295 -0.5825  0.1111 -1.2113
 5920SOL     OW28978   2.174   4.728   0.141 -0.1558 -0.2667  0.1251
 5920SOL    HW128979   2.170   4.639   0.187  1.3601  0.2356  1.2737
 5920SOL    HW228980   2.260   4.774   0.163 -0.8426  1.4310 -0.5766
 5921SOL     OW28981   8.730   1.340   6.179  0.0796  0.2905 -0.0147
 5921SOL    HW128982   8.672   1.387   6.246 -1.6058 -0.9035 -0.5903
 5921SOL    HW228983   8.712   1.242   6.183  3.4190 -0.3500  1.0529
 5922SOL     OW28984   0.061   8.728   2.441 -0.0932 -0.6418  0.0677
 5922SOL    HW128985   0.031   8.746   2.534 -2.0367  1.6817 -0.9707
 5922SOL    HW228986  -0.016   8.740   2.378  1.4658 -1.0561 -1.9743
 5923SOL     OW28987   2.783   5.757   5.111 -0.1683  0.0296 -0.5266
 5923SOL    HW128988   2.762   5.827   5.180 -0.8555  0.3392 -1.0407
 5923SOL    HW228989   2.776   5.798   5.020  0.4748 -0.4469 -0.7925
 5924SOL     OW28990   2.813   9.078   5.829  0.2843  0.2932  0.0812
 5924SOL    HW128991   2.736   9.063   5.767  0.2958  0.0554  0.1251
 5924SOL    HW228992   2.893   9.108   5.777 -0.0292  1.2036  0.1100
 5925SOL     OW28993   5.222   9.641   1.496  0.3644  0.5823  0.2074
 5925SOL    HW128994   5.285   9.566   1.475 -2.8566 -2.0511 -0.3769
 5925SOL    HW228995   5.215   9.652   1.595  1.1124  0.3622  0.2882
 5926SOL     OW28996   1.860   0.716   0.348 -0.7203 -0.3052 -0.4173
 5926SOL    HW128997   1.937   0.740   0.288 -0.1874 -0.5458  0.1640
 5926SOL    HW228998   1.780   0.769   0.321 -0.2537  0.2220 -0.7978
 5927SOL     OW28999   9.805   1.180   3.401 -0.1520  0.4138  0.2619
 5927SOL    HW129000   9.732   1.140   3.457 -1.1588  0.6710 -0.8483
 5927SOL    HW229001   9.765   1.230   3.324  1.1871  1.0298 -0.0535
 5928SOL     OW29002   0.388   3.951   5.549  0.3067 -0.2438 -0.0700
 5928SOL    HW129003   0.424   3.871   5.598  0.9150  0.0881  0.0247
 5928SOL    HW229004   0.377   3.928   5.452  1.3741 -0.1540 -0.2162
 5929SOL     OW29005   4.927   7.820   1.425 -0.5959 -0.0087  0.2364
 5929SOL    HW129006   4.926   7.724   1.453  0.1960 -0.3412 -0.8607
 5929SOL    HW229007   5.020   7.855   1.427 -0.5735  0.0838 -1.5394
 5930SOL     OW29008   8.621   2.013   3.837 -0.3801 -0.0875  0.0183
 5930SOL    HW129009   8.642   2.012   3.739  1.4364 -0.8639  0.4065
 5930SOL    HW229010   8.623   2.107   3.870  0.1702  0.0613 -0.4355
 5931SOL     OW29011   5.707   8.270   3.517  0.0012 -0.2620 -0.5185
 5931SOL    HW129012   5.732   8.367   3.505 -0.9536 -0.1511 -1.7667
 5931SOL    HW229013   5.633   8.248   3.455 -2.1331 -0.9197  2.1679
 5932SOL     OW29014   2.798   8.363   5.042 -0.2771 -0.4060 -0.2750
 5932SOL    HW129015   2.789   8.266   5.019  0.1480 -0.4354 -0.3227
 5932SOL    HW229016   2.836   8.413   4.964 -2.1925  0.1257 -0.9218
 5933SOL     OW29017   0.979   6.880   4.337  0.4252  0.0345 -0.2265
 5933SOL    HW129018   0.935   6.794   4.362 -0.6747  0.5239 -0.4395
 5933SOL    HW229019   1.031   6.915   4.416  0.6051 -0.6465 -0.0373
 5934SOL     OW29020   1.932   8.407   0.102  0.6201 -0.4629 -0.0970
 5934SOL    HW129021   1.908   8.467   0.178  0.3150 -1.1962  0.3943
 5934SOL    HW229022   1.855   8.345   0.083  1.0413 -0.8960 -0.4024
 5935SOL     OW29023   8.291   7.381   4.258 -0.3042 -0.4027  0.1339
 5935SOL    HW129024   8.357   7.445   4.298 -0.8160  0.6504 -0.6526
 5935SOL    HW229025   8.273   7.408   4.163 -0.6400 -1.6461 -0.1660
 5936SOL     OW29026   7.201   2.911   1.999  0.1269  0.1044  0.1848
 5936SOL    HW129027   7.259   2.908   2.080  0.9984  1.0028 -0.3918
 5936SOL    HW229028   7.106   2.926   2.026  0.5750  1.6161  0.9901
 5937SOL     OW29029   7.018   7.323   5.540  0.0085 -0.1587  0.4272
 5937SOL    HW129030   7.095   7.382   5.516 -0.9989  1.3440  0.8393
 5937SOL    HW229031   7.004   7.256   5.467 -0.1716  1.4652 -1.0618
 5938SOL     OW29032   9.179   0.231   3.799 -0.5374  0.6124  0.0854
 5938SOL    HW129033   9.158   0.222   3.701  1.3165 -0.6064 -0.2133
 5938SOL    HW229034   9.098   0.208   3.852 -0.6203 -1.9497 -1.0947
 5939SOL     OW29035   2.816   5.309   4.879 -0.2457  0.0811  0.2249
 5939SOL    HW129036   2.825   5.398   4.923 -0.3590  0.7817 -1.1654
 5939SOL    HW229037   2.903   5.283   4.837 -0.2860 -0.3546  0.4025
 5940SOL     OW29038   8.289   1.345   5.926 -0.4639  0.1651 -0.0620
 5940SOL    HW129039   8.195   1.317   5.906 -0.3172  1.5389 -2.8406
 5940SOL    HW229040   8.290   1.401   6.009 -2.3269  1.3355 -0.7967
 5941SOL     OW29041   2.553   5.121   4.338  0.6755 -0.0568 -0.3557
 5941SOL    HW129042   2.607   5.193   4.294  0.3898  0.1135 -0.4277
 5941SOL    HW229043   2.466   5.158   4.369  0.6782 -0.2890 -0.0659
 5942SOL     OW29044   5.799   0.862   1.341 -0.0747 -0.2049 -0.3114
 5942SOL    HW129045   5.839   0.862   1.433  0.1915  0.0014 -0.4255
 5942SOL    HW229046   5.702   0.836   1.347  0.1409 -0.9532 -0.0646
 5943SOL     OW29047   0.121   2.536   0.048  0.4007  0.3925  0.1366
 5943SOL    HW129048   0.032   2.527   0.004  0.8641  0.2396 -0.7696
 5943SOL    HW229049   0.156   2.628   0.033  0.3686  0.4744  0.5536
 5944SOL     OW29050   1.490   9.882   5.481 -0.3117  0.5094 -0.1173
 5944SOL    HW129051   1.416   9.944   5.504 -0.4380  0.7543 -1.1726
 5944SOL    HW229052   1.454   9.802   5.433 -0.1272 -0.2932  1.0626
 5945SOL     OW29053   1.137   6.049   1.149  0.0935 -0.4130 -0.2479
 5945SOL    HW129054   1.158   6.043   1.247 -2.1675  1.0591  0.3706
 5945SOL    HW229055   1.045   6.014   1.133 -0.8968  2.5948 -1.3126
 5946SOL     OW29056   4.727   7.289   3.467 -0.0716 -0.1274  0.3626
 5946SOL    HW129057   4.770   7.230   3.536  0.1449 -0.4557 -0.0486
 5946SOL    HW229058   4.683   7.232   3.398  0.2679  0.1921 -0.1170
 5947SOL     OW29059   9.680   2.941   6.524 -0.0219  0.0473 -0.2945
 5947SOL    HW129060   9.734   2.989   6.455 -0.5744  0.6496 -0.3136
 5947SOL    HW229061   9.739   2.878   6.575  1.2000  2.3017  1.1850
 5948SOL     OW29062   8.441   3.550   3.993 -0.3129  0.4844  0.1222
 5948SOL    HW129063   8.403   3.491   4.064 -1.5907 -0.2685 -1.1638
 5948SOL    HW229064   8.392   3.637   3.992 -0.0070  0.6589  0.4550
 5949SOL     OW29065   7.910   9.255   2.994 -0.0135 -0.5243 -0.8755
 5949SOL    HW129066   7.965   9.216   3.068  2.7358  1.7029 -1.6567
 5949SOL    HW229067   7.920   9.355   2.994 -0.6722 -0.4091 -3.7060
 5950SOL     OW29068   1.775   8.107   3.974 -0.4286 -0.2054 -0.1164
 5950SOL    HW129069   1.819   8.194   3.997 -0.1435 -0.1015 -1.0294
 5950SOL    HW229070   1.793   8.085   3.878  0.4469 -1.8496  0.4119
 5951SOL     OW29071   8.235   3.309   2.476  0.4227  0.5249  0.0707
 5951SOL    HW129072   8.179   3.298   2.558 -0.0910 -0.2651 -0.3787
 5951SOL    HW229073   8.322   3.260   2.489 -0.0670 -0.4293 -0.2383
 5952SOL     OW29074   3.456   7.789   3.957 -0.0873  0.1250 -0.0467
 5952SOL    HW129075   3.555   7.802   3.956  0.0399 -0.7582  0.5594
 5952SOL    HW229076   3.411   7.879   3.961  0.6577  0.5730 -1.5308
 5953SOL     OW29077   3.876   5.651   1.468  0.2615  0.2627 -0.4900
 5953SOL    HW129078   3.947   5.582   1.451  0.3509  0.0797  0.5914
 5953SOL    HW229079   3.832   5.633   1.556 -0.5948  0.8366 -0.7970
 5954SOL     OW29080   9.619   5.300   6.360  0.0828 -0.3457  0.2699
 5954SOL    HW129081   9.616   5.398   6.340  0.3890 -0.2776  0.5580
 5954SOL    HW229082   9.527   5.261   6.352  0.2119 -0.3521 -1.4096
 5955SOL     OW29083   5.018   3.680   1.641  0.9966  0.4617  0.1983
 5955SOL    HW129084   5.052   3.721   1.557  3.0750  1.5435  1.5139
 5955SOL    HW229085   4.949   3.611   1.620 -0.1258  2.2862 -2.2270
 5956SOL     OW29086   5.684   0.008   3.734  0.2254  0.1794  0.2806
 5956SOL    HW129087   5.622  -0.057   3.778  0.4487 -1.3306 -1.5899
 5956SOL    HW229088   5.677   0.097   3.781 -2.7633 -0.1520  0.5920
 5957SOL     OW29089   3.270   7.147   3.053 -0.1844 -0.2193  0.2096
 5957SOL    HW129090   3.314   7.062   3.082  0.7035  0.0202 -0.4216
 5957SOL    HW229091   3.301   7.222   3.112  0.6310  0.0321 -0.5179
 5958SOL     OW29092   1.514   2.479   5.352 -0.1991  0.1662 -0.0596
 5958SOL    HW129093   1.495   2.483   5.450 -0.0606  0.7522 -0.0550
 5958SOL    HW229094   1.555   2.565   5.323  2.2655 -0.9802 -0.0966
 5959SOL     OW29095   2.081   5.006   5.490 -0.6469 -0.3283  0.0758
 5959SOL    HW129096   2.132   4.999   5.404 -0.6291  0.2625  0.0361
 5959SOL    HW229097   2.061   5.102   5.510  0.0096 -0.3936  1.1147
 5960SOL     OW29098   2.494   3.693   2.921 -0.1859  0.4744 -0.3235
 5960SOL    HW129099   2.537   3.732   2.840  1.1602  1.9286  1.0683
 5960SOL    HW229100   2.416   3.636   2.893  0.6546  0.4232 -2.6580
 5961SOL     OW29101   8.651   6.915   4.220  0.2697  0.0869  0.2832
 5961SOL    HW129102   8.562   6.894   4.179  0.3949 -1.5978  0.8327
 5961SOL    HW229103   8.678   7.008   4.196 -2.5646  1.3447  1.7724
 5962SOL     OW29104   3.351   0.275   6.263 -0.4425 -0.4814  0.9145
 5962SOL    HW129105   3.341   0.373   6.246 -0.4833 -0.9325 -1.7601
 5962SOL    HW229106   3.261   0.233   6.272 -0.4920 -0.6622 -0.3339
 5963SOL     OW29107   2.858   9.485   3.767  0.3659  0.4541  0.1668
 5963SOL    HW129108   2.947   9.526   3.749  0.2109  0.0388 -1.6691
 5963SOL    HW229109   2.821   9.447   3.682 -0.7159 -1.0526  1.2729
 5964SOL     OW29110   8.147   0.463   5.425  0.4620  0.9933 -0.5944
 5964SOL    HW129111   8.086   0.468   5.504  0.9054 -0.0300 -0.1831
 5964SOL    HW229112   8.170   0.556   5.395  1.0954  1.4021  1.0972
 5965SOL     OW29113   8.773   2.723   3.483  0.4722  0.0745  0.2730
 5965SOL    HW129114   8.688   2.672   3.493 -0.2067  1.0667 -0.2807
 5965SOL    HW229115   8.829   2.681   3.412 -0.8959  1.1394 -1.4891
 5966SOL     OW29116   4.705   4.856   5.029  0.0397  0.3296  0.5393
 5966SOL    HW129117   4.657   4.898   4.952  0.8343 -0.4741 -0.4280
 5966SOL    HW229118   4.782   4.803   4.994 -0.5063 -1.3277  1.7618
 5967SOL     OW29119   2.986   5.832   5.961 -0.1883  0.1640  0.6241
 5967SOL    HW129120   2.993   5.732   5.960  1.2229  0.2736 -0.6891
 5967SOL    HW229121   2.960   5.862   6.053 -0.3629 -1.3879  1.0983
 5968SOL     OW29122   9.698   4.108   4.857  0.1308 -0.2633  0.1032
 5968SOL    HW129123   9.749   4.067   4.781  0.1964 -0.0653  0.0404
 5968SOL    HW229124   9.600   4.104   4.837  0.2109  1.0636 -0.6371
 5969SOL     OW29125   9.035   1.425   0.404  0.4289  0.2999 -0.1285
 5969SOL    HW129126   8.982   1.427   0.320 -0.2182  0.4527  0.2774
 5969SOL    HW229127   9.022   1.511   0.453  0.6303  0.1271  0.2284
 5970SOL     OW29128   4.104   5.030   0.910  0.1012 -0.7462  0.2394
 5970SOL    HW129129   4.026   5.073   0.955  0.2911  0.2038 -0.3399
 5970SOL    HW229130   4.180   5.094   0.906  1.0225 -1.7680  1.0639
 5971SOL     OW29131   7.760   2.890   3.954  0.5451 -0.1828 -0.8209
 5971SOL    HW129132   7.672   2.859   3.990  1.4561 -0.7241  0.9831
 5971SOL    HW229133   7.766   2.989   3.961  0.6928 -0.2784  0.4954
 5972SOL     OW29134   0.358   2.067   2.732 -0.3322 -0.3088 -0.5013
 5972SOL    HW129135   0.306   1.982   2.725  0.6634 -1.0002  0.5320
 5972SOL    HW229136   0.405   2.072   2.820 -1.3004  1.8427 -0.0583
 5973SOL     OW29137   1.827   4.134   1.445 -0.4554  0.1938 -0.2704
 5973SOL    HW129138   1.854   4.067   1.376  1.8098  1.0313 -0.2467
 5973SOL    HW229139   1.784   4.212   1.400 -0.7107 -0.1014 -0.5461
 5974SOL     OW29140   2.472   4.534   1.804  0.6478 -0.5010  0.0821
 5974SOL    HW129141   2.376   4.554   1.821  0.4737  1.0485 -2.5007
 5974SOL    HW229142   2.523   4.545   1.890 -1.2511 -0.0931  1.1989
 5975SOL     OW29143   1.830   2.312   5.976 -0.6085  0.4042  0.2822
 5975SOL    HW129144   1.829   2.212   5.983  1.2896  0.4069  1.0052
 5975SOL    HW229145   1.801   2.352   6.063 -1.4925  0.4780 -0.0485
 5976SOL     OW29146   4.402   3.563   2.527  0.3119  0.0592 -0.4648
 5976SOL    HW129147   4.368   3.653   2.552  1.9378  0.5840 -0.1050
 5976SOL    HW229148   4.502   3.561   2.535  0.1920 -2.1834  0.9017
 5977SOL     OW29149   3.737   4.704   4.518  0.0498  0.2888  0.3956
 5977SOL    HW129150   3.645   4.668   4.513 -0.1739  0.6244  1.8485
 5977SOL    HW229151   3.750   4.772   4.446 -1.3670  1.4074  1.1712
 5978SOL     OW29152   9.427   1.687   6.527  0.2872  0.0042 -0.0814
 5978SOL    HW129153   9.360   1.632   6.476 -1.5985  1.2125  1.0221
 5978SOL    HW229154   9.390   1.778   6.542  2.5796  0.9661 -0.1810
 5979SOL     OW29155   9.286   0.761   3.930 -0.0815 -0.0013  0.2579
 5979SOL    HW129156   9.251   0.794   3.843  0.7402  0.0264 -0.0645
 5979SOL    HW229157   9.275   0.662   3.935 -0.9015  0.0966  0.4789
 5980SOL     OW29158   4.619   1.140   1.252 -0.4492  0.3176 -0.5006
 5980SOL    HW129159   4.639   1.074   1.180  0.4811  0.1878 -0.1351
 5980SOL    HW229160   4.668   1.113   1.335  2.4854  3.1961 -1.2164
 5981SOL     OW29161   2.442   8.394   3.867 -0.3872 -0.0773 -0.4608
 5981SOL    HW129162   2.437   8.475   3.926 -1.0510 -0.0936 -0.4974
 5981SOL    HW229163   2.534   8.387   3.828 -0.6893  1.3325 -1.4245
 5982SOL     OW29164   4.986   9.062   0.043  0.3121 -0.2608  0.3664
 5982SOL    HW129165   4.985   9.111  -0.044 -1.9193  0.7351  0.9138
 5982SOL    HW229166   4.939   8.974   0.032  1.6254 -0.9341  0.1283
 5983SOL     OW29167   7.436   0.724   0.284 -0.1964  0.1006 -0.3933
 5983SOL    HW129168   7.371   0.782   0.236  1.9984  0.8537 -2.5792
 5983SOL    HW229169   7.529   0.757   0.266  0.9262 -2.4090  0.6132
 5984SOL     OW29170   9.074   4.948   5.071 -0.9327 -0.0689  0.2044
 5984SOL    HW129171   9.150   5.008   5.098 -1.0047 -0.1657  0.6344
 5984SOL    HW229172   9.069   4.870   5.134 -0.7782 -0.5805 -0.4057
 5985SOL     OW29173   4.214   8.161   5.073  0.3693  0.6380  0.3027
 5985SOL    HW129174   4.157   8.106   5.011  0.5920 -0.8815  1.4210
 5985SOL    HW229175   4.311   8.148   5.049  0.4310  0.4343  0.6685
 5986SOL     OW29176   4.620   3.991   0.065 -0.2966 -0.0055  0.1779
 5986SOL    HW129177   4.702   4.029   0.107 -0.9983  1.9635 -0.1677
 5986SOL    HW229178   4.646   3.924  -0.005  1.0527  1.1208 -0.4308
 5987SOL     OW29179   7.948   7.658   5.757 -0.0014  0.5632 -0.3406
 5987SOL    HW129180   7.932   7.609   5.671 -1.8259  1.7886 -0.7159
 5987SOL    HW229181   8.013   7.733   5.742  1.7462 -0.8556 -0.0527
 5988SOL     OW29182   9.723   5.941   3.123 -0.3747  0.4321 -0.1309
 5988SOL    HW129183   9.644   6.000   3.137 -0.4369  0.7714 -1.8102
 5988SOL    HW229184   9.765   5.920   3.211 -1.3483  1.6024  0.6273
 5989SOL     OW29185   1.498   6.646   0.001 -0.3391  0.3660  0.1796
 5989SOL    HW129186   1.446   6.731  -0.001 -0.2347  0.4294  0.1384
 5989SOL    HW229187   1.454   6.581   0.063  0.5203  1.0640  1.5603
 5990SOL     OW29188   9.723   8.006   6.565 -0.1133  0.2126 -0.6739
 5990SOL    HW129189   9.685   7.916   6.586 -2.5089  2.0201  3.4685
 5990SOL    HW229190   9.779   8.036   6.642  1.6855  1.7832 -2.5491
 5991SOL     OW29191   4.399   4.305   0.761 -0.4178  0.2172  0.1504
 5991SOL    HW129192   4.446   4.243   0.824  1.6543  0.2967 -1.2540
 5991SOL    HW229193   4.335   4.254   0.705 -1.7800  0.0407  1.8079
 5992SOL     OW29194   0.282   8.197   0.315 -0.3825 -0.1412 -0.0639
 5992SOL    HW129195   0.251   8.111   0.274 -1.5801 -0.4117  1.3544
 5992SOL    HW229196   0.353   8.238   0.258 -1.4483 -0.9046 -1.9614
 5993SOL     OW29197   5.770   1.079   3.650  0.5264  0.3522  0.5507
 5993SOL    HW129198   5.770   1.147   3.577  0.6889  0.6220  0.8050
 5993SOL    HW229199   5.690   1.020   3.640  1.4603 -0.7283 -0.8977
 5994SOL     OW29200   3.193   2.824   4.458 -0.2965 -0.1070 -0.1098
 5994SOL    HW129201   3.254   2.903   4.452 -0.4212  0.0370  0.4608
 5994SOL    HW229202   3.100   2.855   4.481 -0.2636 -0.4459  0.4995
 5995SOL     OW29203   8.605   8.074   3.540 -0.5978 -0.1745  0.3297
 5995SOL    HW129204   8.584   7.977   3.529  1.6412 -0.8327  1.5352
 5995SOL    HW229205   8.595   8.100   3.636 -0.7389  0.6588  0.0888
 5996SOL     OW29206   1.691   4.838   1.168 -0.5660 -0.0168  0.4884
 5996SOL    HW129207   1.780   4.842   1.122 -0.7573  0.9234  0.1850
 5996SOL    HW229208   1.633   4.770   1.123 -0.2799 -0.0548  0.1780
 5997SOL     OW29209   5.275   4.633   6.585 -0.1621  0.2043 -0.2356
 5997SOL    HW129210   5.330   4.568   6.532 -1.4977 -2.0058  0.9867
 5997SOL    HW229211   5.190   4.652   6.537  0.6032  1.7416 -0.9962
 5998SOL     OW29212   2.885   0.377   5.103 -0.1143 -0.1047 -0.3199
 5998SOL    HW129213   2.912   0.459   5.052 -0.0487  0.8493  1.2334
 5998SOL    HW229214   2.967   0.323   5.123  0.0623  0.3504  0.1964
 5999SOL     OW29215   4.869   3.791   1.291  0.2211 -0.1085 -0.2519
 5999SOL    HW129216   4.895   3.796   1.195  0.3008  1.5744 -0.1549
 5999SOL    HW229217   4.800   3.720   1.303  2.0945 -2.1361 -1.0978
 6000SOL     OW29218   9.234   8.806   1.106 -0.0024  0.1394 -0.4880
 6000SOL    HW129219   9.179   8.726   1.128 -0.3369  0.8007  1.1048
 6000SOL    HW229220   9.317   8.808   1.162  1.0169 -0.1370 -1.9283
 6001SOL     OW29221   8.983   6.090   4.893  0.2012  0.0655 -0.6190
 6001SOL    HW129222   8.959   5.993   4.904  1.9422 -0.4783 -1.5399
 6001SOL    HW229223   9.045   6.101   4.816  0.0291  1.9296 -0.5147
 6002SOL     OW29224   8.476   6.461   4.401  0.0587  0.3569  0.5779
 6002SOL    HW129225   8.471   6.371   4.358  0.8554  0.0042  1.2251
 6002SOL    HW229226   8.544   6.460   4.474  0.7481  1.7415 -0.0272
 6003SOL     OW29227   2.918   9.223   3.081  0.9968  0.3273  0.5252
 6003SOL    HW129228   2.872   9.291   3.137 -0.8734 -0.2627 -0.2373
 6003SOL    HW229229   2.874   9.134   3.093  2.2331 -0.3659  0.1106
 6004SOL     OW29230   1.993   9.894   4.250 -0.2355 -0.1492  0.2905
 6004SOL    HW129231   1.945   9.952   4.184 -1.0135 -2.3225 -1.0923
 6004SOL    HW229232   2.004   9.944   4.336 -0.5856  2.1560 -0.9654
 6005SOL     OW29233   1.092   7.404   2.498  0.2469 -0.3218  0.1924
 6005SOL    HW129234   1.086   7.379   2.402  0.3611 -0.8244  0.3142
 6005SOL    HW229235   1.127   7.326   2.551  2.5656  0.7287  0.2879
 6006SOL     OW29236   8.142   5.988   4.976  0.4128  0.0136 -0.3857
 6006SOL    HW129237   8.064   6.031   5.022 -0.5118 -1.6856 -0.3155
 6006SOL    HW229238   8.130   5.993   4.877  0.7296  0.6669 -0.3936
 6007SOL     OW29239   8.227   1.496   3.314  0.1185 -0.3867 -0.0911
 6007SOL    HW129240   8.260   1.510   3.220  0.1737 -0.4866 -0.0875
 6007SOL    HW229241   8.275   1.558   3.376  1.1154 -1.3079  0.0758
 6008SOL     OW29242   3.715   9.742   1.388  0.1470 -0.4123 -0.3950
 6008SOL    HW129243   3.775   9.711   1.462  0.7112  0.9992 -0.2575
 6008SOL    HW229244   3.764   9.807   1.330 -1.9587  2.6422  1.1052
 6009SOL     OW29245   9.961   9.389   0.211 -0.2892  0.1781 -0.7182
 6009SOL    HW129246   9.886   9.349   0.264 -0.3811  0.3746 -0.7006
 6009SOL    HW229247   9.930   9.409   0.118  0.4786 -2.1881 -1.5228
 6010SOL     OW29248   3.084   4.450   3.739  0.4022  0.3599 -0.5122
 6010SOL    HW129249   3.022   4.378   3.767  1.1195 -0.7620 -1.7573
 6010SOL    HW229250   3.035   4.518   3.684  0.1034 -0.0829 -0.7910
 6011SOL     OW29251   0.888   8.040   3.272 -0.0328 -0.4325  0.3866
 6011SOL    HW129252   0.796   8.015   3.242  0.3206 -1.7638  0.3416
 6011SOL    HW229253   0.897   8.139   3.277 -1.3452 -0.2938  0.0063
 6012SOL     OW29254   3.886   8.766   1.591  0.6151 -0.0582  0.2632
 6012SOL    HW129255   3.797   8.728   1.565 -0.7894  1.9088  2.0633
 6012SOL    HW229256   3.954   8.693   1.591 -0.5688 -1.2571 -2.9309
 6013SOL     OW29257   8.443   9.769   6.722  0.1279  0.4843  0.4028
 6013SOL    HW129258   8.427   9.701   6.793  2.2750  1.3464  1.7462
 6013SOL    HW229259   8.356   9.810   6.694 -0.7687 -0.1495  2.2406
 6014SOL     OW29260   1.442   4.411   5.976  0.1501 -0.4484 -0.4975
 6014SOL    HW129261   1.382   4.342   5.934 -0.7965  0.0746 -0.0395
 6014SOL    HW229262   1.517   4.433   5.914  0.0510 -1.3570 -0.9488
 6015SOL     OW29263   4.925   0.574   6.014  0.3579  0.4778  0.2772
 6015SOL    HW129264   4.989   0.645   5.984 -0.6050  1.0292 -0.5203
 6015SOL    HW229265   4.832   0.604   5.994 -0.1798 -0.1250  1.8157
 6016SOL     OW29266   7.887   1.789   3.102  0.4913  0.2194  0.6596
 6016SOL    HW129267   7.905   1.833   3.014 -0.5956 -0.6413 -0.0097
 6016SOL    HW229268   7.897   1.690   3.093 -0.5764  0.0484  1.2646
 6017SOL     OW29269   2.541   2.175   0.651  0.6447  0.4969  0.1740
 6017SOL    HW129270   2.563   2.225   0.567 -0.3390  2.3256  0.9699
 6017SOL    HW229271   2.507   2.240   0.720 -1.5141 -1.3958  0.9454
 6018SOL     OW29272   0.654   4.301   0.221  0.9775 -0.0323  0.1163
 6018SOL    HW129273   0.606   4.256   0.297 -1.1460  0.5699 -0.8389
 6018SOL    HW229274   0.726   4.359   0.257  1.1355 -1.1097  1.5838
 6019SOL     OW29275   4.530   1.837   0.112 -0.1064 -0.5521  0.1324
 6019SOL    HW129276   4.526   1.755   0.168  2.1311 -0.2030  0.8692
 6019SOL    HW229277   4.505   1.815   0.018 -0.0271 -1.9607  0.4285
 6020SOL     OW29278   4.156   5.189   6.008  0.3109 -0.0889 -0.2785
 6020SOL    HW129279   4.251   5.166   6.031  0.0565 -1.9901 -1.0741
 6020SOL    HW229280   4.096   5.167   6.085  0.3440 -0.1419 -0.2675
 6021SOL     OW29281   1.873   0.774   0.617 -0.3853 -0.0972 -0.2020
 6021SOL    HW129282   1.808   0.848   0.634 -1.6647 -1.1523 -0.5169
 6021SOL    HW229283   1.893   0.768   0.519 -2.3531 -1.8871 -0.5263
 6022SOL     OW29284   8.735   0.424   0.063  0.6143  0.2527  0.1064
 6022SOL    HW129285   8.770   0.338   0.101 -0.6894  0.1014  0.9697
 6022SOL    HW229286   8.795   0.453  -0.012  0.1712 -2.2429 -1.2816
 6023SOL     OW29287   9.587   0.062   0.745 -0.0320 -0.1104 -0.6256
 6023SOL    HW129288   9.613   0.035   0.838 -0.5275  0.2702 -0.3726
 6023SOL    HW229289   9.542  -0.015   0.699  0.8153 -0.5079 -0.7812
 6024SOL     OW29290   7.414   1.619   5.332 -0.1671 -0.1865 -0.0796
 6024SOL    HW129291   7.397   1.683   5.257  0.0464 -1.7025 -1.4606
 6024SOL    HW229292   7.497   1.566   5.312  0.3320 -0.0724  1.6132
 6025SOL     OW29293   3.428   9.915   5.969  0.0292  0.2888 -0.4172
 6025SOL    HW129294   3.398   9.823   5.995  1.6281 -0.0832  0.1247
 6025SOL    HW229295   3.484   9.954   6.041  1.8173  0.5208 -1.8938
 6026SOL     OW29296   3.442   3.566   6.401  0.0809 -0.3166  0.1451
 6026SOL    HW129297   3.378   3.490   6.388 -2.9678  2.7536 -4.2973
 6026SOL    HW229298   3.530   3.544   6.358 -0.5276 -1.6160 -0.4518
 6027SOL     OW29299   4.257   3.122   0.637 -0.0847  0.4358 -0.0879
 6027SOL    HW129300   4.357   3.129   0.631 -0.1580  2.3883  0.4857
 6027SOL    HW229301   4.222   3.074   0.557  1.3415 -0.6566 -0.0875
 6028SOL     OW29302   7.334   4.016   1.317  0.6563 -0.0588 -0.4156
 6028SOL    HW129303   7.353   4.011   1.219  0.5938 -0.2196 -0.4190
 6028SOL    HW229304   7.276   4.095   1.335  0.7335  0.0174 -0.4984
 6029SOL     OW29305   3.697   3.500   2.677 -0.5029  0.0593  0.4382
 6029SOL    HW129306   3.767   3.568   2.654  0.0756 -0.4522  0.6381
 6029SOL    HW229307   3.687   3.494   2.776  2.0052 -2.6109  0.6217
 6030SOL     OW29308   5.980   8.916   5.350 -0.6562 -0.1461  0.3625
 6030SOL    HW129309   5.918   8.892   5.425 -0.5020  1.1899  0.9174
 6030SOL    HW229310   5.971   8.848   5.277 -0.4784 -1.7269  1.7655
 6031SOL     OW29311   0.027   9.058   3.570  0.0108 -0.4109  0.5248
 6031SOL    HW129312   0.118   9.021   3.583  0.5902  0.2423 -1.4254
 6031SOL    HW229313   0.006   9.122   3.644 -0.1192 -2.8673  2.6630
 6032SOL     OW29314   2.500   4.912   3.145 -0.1036 -0.0504  0.2682
 6032SOL    HW129315   2.592   4.941   3.171  0.0214  0.4716 -0.7468
 6032SOL    HW229316   2.440   4.915   3.226  0.1958  1.9121  0.4393
 6033SOL     OW29317   3.183   6.985   5.755 -0.1878 -0.0759  0.8260
 6033SOL    HW129318   3.093   6.951   5.729  0.6808 -1.6394 -0.2755
 6033SOL    HW229319   3.186   7.085   5.744 -2.0133  0.0880  1.6709
 6034SOL     OW29320   8.528   5.039   2.979  0.0219  0.1492  0.5908
 6034SOL    HW129321   8.535   5.053   3.078 -1.5296  1.0790  0.5895
 6034SOL    HW229322   8.449   5.090   2.944  1.3153  0.8673 -1.3364
 6035SOL     OW29323   1.024   9.006   1.508  0.7445  0.7733  0.1947
 6035SOL    HW129324   0.975   9.031   1.592 -0.0178  1.5212 -0.4713
 6035SOL    HW229325   1.026   8.906   1.500 -2.1092  0.7147 -0.5696
 6036SOL     OW29326   9.165   5.995   1.898 -0.4583 -0.0081  0.2569
 6036SOL    HW129327   9.126   5.903   1.895  0.4582 -0.4120  0.4846
 6036SOL    HW229328   9.233   6.006   1.825 -1.1309  0.7520 -0.2634
 6037SOL     OW29329   3.444   7.033   4.887 -0.5354 -0.7454 -0.2213
 6037SOL    HW129330   3.355   6.988   4.891 -0.1001 -1.5245  1.1190
 6037SOL    HW229331   3.515   6.964   4.876  0.1220 -0.3726  1.6258
 6038SOL     OW29332   1.450   7.011   5.281 -0.9290  0.2819  0.0531
 6038SOL    HW129333   1.429   6.914   5.289  1.4364 -0.0614  3.3149
 6038SOL    HW229334   1.373   7.065   5.317 -1.8351 -0.3785 -0.8617
 6039SOL     OW29335   6.794   2.525   2.481  0.3919  0.6116  0.7196
 6039SOL    HW129336   6.828   2.433   2.463 -1.5075  0.0550 -0.1451
 6039SOL    HW229337   6.838   2.590   2.419  0.6866  0.0691  0.3616
 6040SOL     OW29338   3.187   8.320   0.034 -0.3183 -0.4957  0.4312
 6040SOL    HW129339   3.258   8.363  -0.023 -0.1145  0.3958  1.3434
 6040SOL    HW229340   3.101   8.368   0.022 -0.5992 -1.1387 -0.1367
 6041SOL     OW29341   4.194   4.405   5.922  0.1433 -0.4252  0.1292
 6041SOL    HW129342   4.123   4.347   5.883  0.0578 -1.0078  1.1246
 6041SOL    HW229343   4.283   4.360   5.910  0.1455 -0.4877  0.3729
 6042SOL     OW29344   8.566   2.442   3.676  0.3293  0.2004 -0.1246
 6042SOL    HW129345   8.611   2.519   3.720  0.5937 -0.8330  1.4472
 6042SOL    HW229346   8.524   2.472   3.590  1.1865  1.8807  0.0345
 6043SOL     OW29347   0.092   7.133   1.740  0.4759 -0.2605 -0.0212
 6043SOL    HW129348   0.043   7.206   1.693 -0.5452 -0.6239  0.4636
 6043SOL    HW229349   0.142   7.078   1.673  2.5948  1.8618 -0.2216
 6044SOL     OW29350   1.038   5.721   4.160 -0.1934 -0.7370 -0.2572
 6044SOL    HW129351   1.129   5.693   4.192 -0.2308 -0.9631 -0.3459
 6044SOL    HW229352   0.999   5.786   4.225  0.5107  0.2572 -0.8106
 6045SOL     OW29353   2.999   2.869   5.190  0.3866 -0.7533 -0.2297
 6045SOL    HW129354   3.005   2.776   5.227  2.4950 -0.7217 -0.4202
 6045SOL    HW229355   3.045   2.873   5.102 -1.8031 -0.0619 -1.3817
 6046SOL     OW29356   1.859   1.039   6.646 -0.3588  0.0759 -0.5186
 6046SOL    HW129357   1.868   1.020   6.549 -0.9625  2.3097 -1.0322
 6046SOL    HW229358   1.803   1.121   6.660 -1.1728 -0.8141  1.7479
 6047SOL     OW29359   3.761   0.759   1.511 -0.2769 -0.4464 -0.4412
 6047SOL    HW129360   3.797   0.852   1.507 -0.1352 -0.3937  1.4410
 6047SOL    HW229361   3.836   0.694   1.518 -0.4521 -0.4282  2.0512
 6048SOL     OW29362   6.448   8.666   3.258  0.3827 -0.2115 -0.0609
 6048SOL    HW129363   6.500   8.722   3.194 -1.3009  1.4264 -0.0187
 6048SOL    HW229364   6.511   8.610   3.311  1.9875  0.5113 -1.1554
 6049SOL     OW29365   0.706   5.128   5.931 -0.4632 -0.0692  0.2580
 6049SOL    HW129366   0.633   5.157   5.869 -2.3571  0.0680  2.4625
 6049SOL    HW229367   0.674   5.052   5.988  0.9985  0.1779  1.4531
 6050SOL     OW29368   0.517   6.218   4.941 -0.6056  0.1643  0.2125
 6050SOL    HW129369   0.477   6.309   4.931 -1.1168  0.2860  2.9246
 6050SOL    HW229370   0.616   6.226   4.945 -0.5416  0.3911 -1.3181
 6051SOL     OW29371   4.163   7.745   5.361 -0.6119  0.2342 -0.6158
 6051SOL    HW129372   4.128   7.808   5.430  0.0781  0.2053 -0.2404
 6051SOL    HW229373   4.130   7.652   5.380  0.4250  0.0413  0.2780
 6052SOL     OW29374   4.113   1.663   4.258 -0.1436  0.7229  0.8055
 6052SOL    HW129375   4.094   1.751   4.214 -0.0428  0.8548  1.0291
 6052SOL    HW229376   4.113   1.674   4.357  3.2944  1.1748  0.8125
 6053SOL     OW29377   1.911   9.270   5.270  1.1316 -0.0157 -0.0050
 6053SOL    HW129378   1.986   9.328   5.241  1.0776  0.8883  1.6032
 6053SOL    HW229379   1.905   9.270   5.370 -0.8529 -0.2659 -0.0996
 6054SOL     OW29380   7.219   3.590   6.535 -0.3012  0.0375  0.2684
 6054SOL    HW129381   7.275   3.670   6.557 -0.2096  0.1494 -0.3714
 6054SOL    HW229382   7.276   3.519   6.494 -0.5286 -0.0535  0.1055
 6055SOL     OW29383   9.847   4.869   3.086 -0.3147  0.2978 -0.6419
 6055SOL    HW129384   9.831   4.836   2.993 -0.6447 -0.0559 -0.4651
 6055SOL    HW229385   9.760   4.869   3.136  0.2739 -1.9139  0.4365
 6056SOL     OW29386   7.865   1.004   4.820  0.1927  0.6976 -0.5273
 6056SOL    HW129387   7.786   1.016   4.880 -0.3016 -1.1207 -0.7805
 6056SOL    HW229388   7.935   1.072   4.843 -0.4171  0.7150  1.3712
 6057SOL     OW29389   9.183   5.366   2.141 -0.0863  0.0893 -0.0536
 6057SOL    HW129390   9.220   5.441   2.195 -1.0595  0.1366  0.5606
 6057SOL    HW229391   9.157   5.290   2.201  1.4933 -1.0079 -0.7293
 6058SOL     OW29392   6.274   8.981   5.793 -0.0593 -0.1463 -0.2635
 6058SOL    HW129393   6.240   9.066   5.752  1.5805  1.4857  1.7060
 6058SOL    HW229394   6.370   8.968   5.769 -0.0137 -0.9063  0.3250
 6059SOL     OW29395   2.242   7.888   1.856 -0.7528 -0.2149  0.2093
 6059SOL    HW129396   2.279   7.879   1.764 -0.6366 -1.7233  0.3930
 6059SOL    HW229397   2.293   7.959   1.906  0.4434 -0.7334 -0.2614
 6060SOL     OW29398   2.391   9.945   1.272  0.3838  0.7424  0.2940
 6060SOL    HW129399   2.490   9.952   1.289  0.5752 -0.5614 -0.1688
 6060SOL    HW229400   2.376   9.910   1.180 -0.5007  0.2681  0.6153
 6061SOL     OW29401   0.621   4.921   4.635  0.4185  0.7004 -0.2726
 6061SOL    HW129402   0.710   4.922   4.590  0.8583  0.0593  0.5776
 6061SOL    HW229403   0.633   4.928   4.734 -0.3817 -0.9430 -0.0417
 6062SOL     OW29404   2.777   2.705   3.649  0.1412  0.1773 -1.2252
 6062SOL    HW129405   2.854   2.697   3.713 -1.4196  0.8534  0.8135
 6062SOL    HW229406   2.780   2.795   3.605 -0.4490  0.8994  0.1752
 6063SOL     OW29407   2.514   0.556   6.716 -0.0265 -0.1944  0.5776
 6063SOL    HW129408   2.481   0.551   6.622 -0.1586  0.3079  0.5972
 6063SOL    HW229409   2.440   0.536   6.780 -0.2075  0.5705  0.6097
 6064SOL     OW29410   7.005   2.209   1.844  0.8516 -0.0230 -0.4783
 6064SOL    HW129411   6.997   2.219   1.745  1.7226 -2.7794 -0.8714
 6064SOL    HW229412   7.101   2.206   1.870  0.6520 -1.4397  0.1672
 6065SOL     OW29413   3.589   7.924   6.561  0.5909 -0.4557  0.0474
 6065SOL    HW129414   3.541   7.874   6.633 -0.2430 -0.1743 -0.2986
 6065SOL    HW229415   3.548   7.901   6.473 -0.0029  1.0549 -0.0876
 6066SOL     OW29416   0.913   3.419   0.938  0.6550  0.4279 -0.2744
 6066SOL    HW129417   0.900   3.412   1.036 -0.0217  0.9134 -0.3275
 6066SOL    HW229418   0.995   3.474   0.919  0.4286  0.8653  0.0081
 6067SOL     OW29419   9.190   1.226   2.839 -0.4787  0.2400  0.1409
 6067SOL    HW129420   9.261   1.297   2.843 -0.6268  0.3264  1.2535
 6067SOL    HW229421   9.205   1.169   2.758  2.0176 -0.9681  1.4144
 6068SOL     OW29422   2.299   2.379   3.675 -0.3706 -0.0393  0.6416
 6068SOL    HW129423   2.381   2.367   3.618 -1.4785 -0.1898 -0.9571
 6068SOL    HW229424   2.323   2.364   3.771  1.5040  0.0464  0.2129
 6069SOL     OW29425   3.203   7.416   4.862  0.0244  0.1924  0.1318
 6069SOL    HW129426   3.205   7.384   4.767  0.1772  0.0989  0.1679
 6069SOL    HW229427   3.128   7.371   4.911  0.5410 -0.4703  0.3141
 6070SOL     OW29428   2.086   6.483   1.230  0.5402 -0.5214  0.2840
 6070SOL    HW129429   2.042   6.394   1.235  1.0021 -0.6413  2.6208
 6070SOL    HW229430   2.030   6.544   1.173 -0.0133 -2.1337 -0.9436
 6071SOL     OW29431   5.127   1.103   4.976  0.5768  0.4532  0.2336
 6071SOL    HW129432   5.151   1.008   4.955  0.7297  0.7048 -0.7449
 6071SOL    HW229433   5.098   1.149   4.893  0.6576  1.3159  0.6788
 6072SOL     OW29434   9.345   5.236   0.295 -0.0273 -0.2275 -0.3574
 6072SOL    HW129435   9.334   5.275   0.387  0.6258 -1.6275  0.3159
 6072SOL    HW229436   9.255   5.220   0.255 -0.3177  1.6377 -0.5106
 6073SOL     OW29437   1.338   8.765   4.125  0.2528  0.0438 -0.1299
 6073SOL    HW129438   1.242   8.794   4.120 -0.3842 -2.1534 -1.1637
 6073SOL    HW229439   1.358   8.730   4.216 -0.2644 -0.5588 -0.2405
 6074SOL     OW29440   0.185   9.056   4.678  0.4339 -0.2501 -0.7350
 6074SOL    HW129441   0.202   9.076   4.581 -1.5015  2.0783 -0.6516
 6074SOL    HW229442   0.258   9.097   4.733  1.7162 -1.8569 -1.2003
 6075SOL     OW29443   1.012   2.475   2.532 -0.4424 -0.0845 -0.4978
 6075SOL    HW129444   1.088   2.411   2.524 -0.5140 -0.2502  0.1478
 6075SOL    HW229445   0.992   2.492   2.628  0.7902  2.3576 -0.6290
 6076SOL     OW29446   4.456   0.820   2.431  0.0345  0.0231  0.7564
 6076SOL    HW129447   4.365   0.786   2.453 -0.5713  0.5505 -0.8276
 6076SOL    HW229448   4.523   0.746   2.442 -1.0123 -1.2233 -0.8674
 6077SOL     OW29449   4.202   5.796   5.010 -0.1898 -0.0523 -0.4204
 6077SOL    HW129450   4.202   5.881   5.061 -0.1710 -0.2975 -0.0094
 6077SOL    HW229451   4.109   5.778   4.975 -0.3134 -0.1308 -0.0559
 6078SOL     OW29452   0.221   9.109   4.401 -0.1035  0.4645  0.0085
 6078SOL    HW129453   0.185   9.203   4.398  0.5990  0.7287 -0.1017
 6078SOL    HW229454   0.149   9.045   4.372  0.0330  1.1315 -1.8649
 6079SOL     OW29455   7.865   8.493   3.037 -0.2207 -0.4390  0.0646
 6079SOL    HW129456   7.922   8.502   3.119  0.1150  1.3157 -0.3457
 6079SOL    HW229457   7.916   8.526   2.957 -1.5121  0.3927 -0.4351
 6080SOL     OW29458   2.817   5.745   2.595 -0.1786  0.0575 -0.3051
 6080SOL    HW129459   2.799   5.760   2.497 -2.5258 -1.5621 -0.1437
 6080SOL    HW229460   2.736   5.768   2.648  1.0993  0.9584  1.3159
 6081SOL     OW29461   4.925   6.095   1.677 -0.5801  0.2501 -0.3099
 6081SOL    HW129462   4.924   6.004   1.718  0.6556  0.4643  0.2015
 6081SOL    HW229463   4.943   6.087   1.579  1.7593  0.0640  0.0999
 6082SOL     OW29464   8.162   4.775   1.156 -0.3363 -0.5255 -0.2002
 6082SOL    HW129465   8.066   4.787   1.132 -0.4458  0.8111  0.8722
 6082SOL    HW229466   8.207   4.864   1.161  0.3275 -0.9504  1.8018
 6083SOL     OW29467   0.336   6.377   0.499 -0.3200 -0.2105  0.0755
 6083SOL    HW129468   0.293   6.302   0.448 -0.3848 -1.5025  2.0090
 6083SOL    HW229469   0.400   6.340   0.566  0.0323  1.4920  0.7092
 6084SOL     OW29470   8.337   4.873   6.385  0.0466 -0.1647  0.1166
 6084SOL    HW129471   8.315   4.800   6.320 -0.2429 -0.0534  0.0929
 6084SOL    HW229472   8.314   4.842   6.478  1.3821 -0.7013  0.2764
 6085SOL     OW29473   3.560   4.211   0.926  0.0721 -0.6696 -0.2115
 6085SOL    HW129474   3.574   4.219   1.025  0.0665 -0.8247 -0.1974
 6085SOL    HW229475   3.635   4.255   0.878 -0.8146  0.9544 -0.1457
 6086SOL     OW29476   6.500   0.319   5.110  0.5670 -0.1252  0.7467
 6086SOL    HW129477   6.503   0.240   5.049  1.7551  0.0307  0.5891
 6086SOL    HW229478   6.438   0.300   5.186 -1.9833  0.1844 -1.1754
 6087SOL     OW29479   2.961   8.495   6.735 -0.1868  0.2791  0.0900
 6087SOL    HW129480   2.982   8.499   6.638  2.2659  0.7784  0.6028
 6087SOL    HW229481   2.910   8.577   6.762  1.2070  1.2889 -0.3180
 6088SOL     OW29482   1.040   4.200   1.554  0.5509 -0.3118 -0.1729
 6088SOL    HW129483   1.062   4.298   1.549  0.4634 -0.3983 -2.6235
 6088SOL    HW229484   1.123   4.146   1.542  0.3869 -0.5487 -0.2531
 6089SOL     OW29485   8.971   0.991   5.886  0.5448  0.3181 -0.4305
 6089SOL    HW129486   9.020   1.076   5.903  0.6693  0.3528 -0.9695
 6089SOL    HW229487   8.940   0.988   5.791  0.1914 -0.0570 -0.3043
 6090SOL     OW29488   5.941   3.838   0.296  0.4020  0.2738  0.1219
 6090SOL    HW129489   5.912   3.820   0.390 -0.6131 -0.7053 -0.3548
 6090SOL    HW229490   5.863   3.873   0.244  1.1530  1.5183 -0.1768
 6091SOL     OW29491   8.825   9.178   3.894 -0.0228  0.2051  0.3940
 6091SOL    HW129492   8.869   9.261   3.926  1.1153  0.1016 -0.8491
 6091SOL    HW229493   8.863   9.099   3.942 -0.8885  0.3595  1.3557
 6092SOL     OW29494   7.614   1.898   3.694  0.0135 -0.3721  0.1167
 6092SOL    HW129495   7.677   1.943   3.630 -0.8838  1.2675  0.3546
 6092SOL    HW229496   7.540   1.855   3.642 -0.7884  1.0753  0.0390
 6093SOL     OW29497   8.780   3.234   5.481 -0.4652 -0.0304  0.4249
 6093SOL    HW129498   8.794   3.312   5.419  0.7964 -0.7074 -0.1682
 6093SOL    HW229499   8.708   3.256   5.547  0.5578  2.0145  0.8915
 6094SOL     OW29500   3.890   4.995   3.376  0.5386 -0.5588  0.2261
 6094SOL    HW129501   3.986   4.976   3.394  0.6971  0.3366  0.3400
 6094SOL    HW229502   3.882   5.082   3.327 -0.0183 -1.9111 -2.1915
 6095SOL     OW29503   2.978   1.357   0.336  0.0183  0.3757 -0.2585
 6095SOL    HW129504   2.910   1.421   0.371 -0.1652 -0.0014  0.0841
 6095SOL    HW229505   2.950   1.264   0.359  1.0319  0.2692  0.5268
 6096SOL     OW29506   4.721   2.231   1.747 -0.4387  0.8092  0.8390
 6096SOL    HW129507   4.744   2.167   1.820 -1.0711  1.2667  1.4463
 6096SOL    HW229508   4.763   2.200   1.661 -1.2752 -0.7969  0.9748
 6097SOL     OW29509   1.852   9.592   0.972  0.5512 -0.9108 -0.1329
 6097SOL    HW129510   1.776   9.619   0.914  1.7588  1.1083 -0.7954
 6097SOL    HW229511   1.937   9.590   0.919  1.1971 -1.9263  0.8855
 6098SOL     OW29512   3.549   5.747   6.247 -0.6044  0.2606  0.6125
 6098SOL    HW129513   3.598   5.777   6.328  1.8887 -1.8561 -0.0367
 6098SOL    HW229514   3.494   5.667   6.269  1.1955 -1.1858 -0.0833
 6099SOL     OW29515   5.170   5.055   0.886  0.7072 -0.0107  0.1060
 6099SOL    HW129516   5.199   4.981   0.946 -0.4031  0.4337  1.2153
 6099SOL    HW229517   5.162   5.140   0.939 -2.8838 -0.1721 -0.0461
 6100SOL     OW29518   7.075   7.150   4.533  0.0723 -0.3870 -0.3881
 6100SOL    HW129519   7.009   7.217   4.567 -0.7743 -0.8302 -1.1561
 6100SOL    HW229520   7.128   7.114   4.610 -0.1328  0.4497  0.1489
 6101SOL     OW29521   4.967   1.996   3.949  0.0716  0.2730 -0.7020
 6101SOL    HW129522   4.911   2.051   3.887 -0.3765  1.3237  0.6036
 6101SOL    HW229523   5.064   2.007   3.926 -0.0335  1.3988 -0.6526
 6102SOL     OW29524   9.324   2.773   5.064  0.3923  0.4114  0.2856
 6102SOL    HW129525   9.389   2.728   5.003 -0.7153 -2.0243  0.8214
 6102SOL    HW229526   9.253   2.818   5.010  0.3540 -0.2989 -0.2670
 6103SOL     OW29527   0.830   5.848   6.717 -0.3546 -0.3549 -0.1405
 6103SOL    HW129528   0.731   5.862   6.725 -0.2725 -0.2347  0.7062
 6103SOL    HW229529   0.876   5.889   6.796  0.2805 -1.3546  0.0144
 6104SOL     OW29530   4.444   4.295   5.845  0.5870  0.4544 -0.7275
 6104SOL    HW129531   4.486   4.376   5.803 -0.5283  0.2329 -2.2960
 6104SOL    HW229532   4.410   4.234   5.774 -1.0981 -0.0758  0.5013
 6105SOL     OW29533   3.569   8.294   2.537  0.8023 -0.2059 -0.0014
 6105SOL    HW129534   3.520   8.295   2.624  0.9634 -1.4040  0.1208
 6105SOL    HW229535   3.628   8.374   2.530 -0.0579  0.4736  0.5013
 6106SOL     OW29536   7.759   7.812   5.611  0.3400  0.3524  0.0398
 6106SOL    HW129537   7.787   7.794   5.705  0.6485 -0.7230 -0.2468
 6106SOL    HW229538   7.840   7.828   5.554  0.2454 -0.4632 -0.3315
 6107SOL     OW29539   1.034   8.784   0.040 -0.1645  0.0830  0.2192
 6107SOL    HW129540   1.040   8.734  -0.046  0.6109  1.8907 -0.8008
 6107SOL    HW229541   0.959   8.748   0.095  1.5972 -3.5320  0.4050
 6108SOL     OW29542   7.038   1.659   3.610  0.1195  0.2718  0.9162
 6108SOL    HW129543   6.960   1.712   3.577  0.4233 -0.3429 -0.8717
 6108SOL    HW229544   7.120   1.716   3.609  0.2297  0.1115  0.0541
 6109SOL     OW29545   1.810   8.623   6.628  0.1804  0.0148 -0.3539
 6109SOL    HW129546   1.825   8.557   6.703  1.7350  0.4126 -0.2970
 6109SOL    HW229547   1.717   8.613   6.594 -0.8416  0.3845  2.1887
 6110SOL     OW29548   2.777   1.105   2.541  0.5208 -0.3747 -0.0028
 6110SOL    HW129549   2.821   1.016   2.539  1.4926  0.0081  2.4824
 6110SOL    HW229550   2.825   1.167   2.479 -0.7656 -1.8034 -2.4991
 6111SOL     OW29551   2.662   1.462   3.588  0.5831 -0.3111 -0.1155
 6111SOL    HW129552   2.610   1.504   3.663 -2.1013 -1.0286 -1.4926
 6111SOL    HW229553   2.655   1.362   3.596  1.4123 -0.4020 -0.5561
 6112SOL     OW29554   3.911   3.422   0.091  0.0070 -0.0310  0.3854
 6112SOL    HW129555   3.888   3.509   0.047  2.3487 -0.3486 -1.5769
 6112SOL    HW229556   3.854   3.349   0.054  1.2946 -0.1250 -1.4444
 6113SOL     OW29557   4.420   1.175   0.457  0.0675 -0.7219 -0.3393
 6113SOL    HW129558   4.377   1.258   0.421 -0.3906 -1.5878 -1.8425
 6113SOL    HW229559   4.458   1.122   0.382  1.4714 -1.2761  0.7291
 6114SOL     OW29560   4.062   4.679   3.300  0.2318  0.0061 -0.4119
 6114SOL    HW129561   4.077   4.580   3.300 -1.9182 -0.3439  0.1581
 6114SOL    HW229562   4.079   4.716   3.391 -2.5025 -0.4418  0.3180
 6115SOL     OW29563   8.440   0.425   2.764  0.2626  0.1597  0.1213
 6115SOL    HW129564   8.518   0.449   2.822  0.8763  0.5574 -0.8525
 6115SOL    HW229565   8.374   0.372   2.818  1.4838 -0.7101  0.7958
 6116SOL     OW29566   1.034   7.486   2.780  0.0371 -0.7133 -0.6029
 6116SOL    HW129567   1.051   7.428   2.860 -2.6372 -0.3768  0.2459
 6116SOL    HW229568   0.958   7.449   2.728  1.1314 -0.3731 -2.4889
 6117SOL     OW29569   6.114   0.175   5.396  0.0284 -0.0472  0.4263
 6117SOL    HW129570   6.050   0.207   5.325  0.0322  0.7414  0.7824
 6117SOL    HW229571   6.063   0.124   5.465 -0.0079 -0.6334 -0.0232
 6118SOL     OW29572   5.473   9.786   2.807  0.3829 -0.2289  0.6106
 6118SOL    HW129573   5.548   9.852   2.806  0.1655  0.0293  1.3284
 6118SOL    HW229574   5.508   9.696   2.781  0.5298  0.3220 -1.1661
 6119SOL     OW29575   2.246   7.134   5.325  0.2490  0.3798  0.4220
 6119SOL    HW129576   2.247   7.183   5.238  0.6383 -0.3512  0.0153
 6119SOL    HW229577   2.152   7.106   5.347  0.4191 -1.1442 -0.7226
 6120SOL     OW29578   1.155   0.656   0.775  0.2959  0.0859 -0.1731
 6120SOL    HW129579   1.107   0.675   0.689  1.5864  2.0629 -0.4793
 6120SOL    HW229580   1.221   0.582   0.760  0.5314  0.4321 -0.8939
 6121SOL     OW29581   9.330   5.240   3.362  0.2900 -0.0327 -0.0068
 6121SOL    HW129582   9.371   5.268   3.275  0.3916  1.2357  0.4341
 6121SOL    HW229583   9.261   5.307   3.390 -0.7536 -1.1775  0.1936
 6122SOL     OW29584   4.062   0.231   1.325  0.7134 -0.1283 -0.3300
 6122SOL    HW129585   3.987   0.239   1.259  1.3770 -1.2071 -1.2585
 6122SOL    HW229586   4.054   0.143   1.373 -0.2163  1.0053  1.6173
 6123SOL     OW29587   9.210   6.569   5.167 -0.2022 -0.2268 -0.6105
 6123SOL    HW129588   9.153   6.505   5.114 -0.5202  0.8400 -1.5966
 6123SOL    HW229589   9.172   6.579   5.258  1.6032 -3.7980  0.6333
 6124SOL     OW29590   8.613   6.805   0.006 -0.1078  0.0896  0.1432
 6124SOL    HW129591   8.650   6.898  -0.003  1.0325 -0.3678 -0.0488
 6124SOL    HW229592   8.570   6.795   0.095 -0.2866  0.8179  0.1453
 6125SOL     OW29593   3.957   9.738   1.541 -0.2556  0.0269 -1.1214
 6125SOL    HW129594   4.048   9.728   1.502 -0.0531  1.2619 -0.9904
 6125SOL    HW229595   3.943   9.668   1.611  0.5512 -0.2401 -1.2210
 6126SOL     OW29596   2.422   3.728   3.619  0.1018  0.6164  0.1481
 6126SOL    HW129597   2.491   3.699   3.686  1.6417  1.2835 -1.1176
 6126SOL    HW229598   2.409   3.826   3.626  0.3396  0.7017 -0.5957
 6127SOL     OW29599   1.575   6.347   3.197 -0.2286 -0.2941  0.4338
 6127SOL    HW129600   1.610   6.406   3.124 -0.2007 -0.7380  0.0945
 6127SOL    HW229601   1.542   6.261   3.159  0.4148 -0.8030  1.0180
 6128SOL     OW29602   7.894   0.390   1.336 -0.4026  0.1159  0.1911
 6128SOL    HW129603   7.934   0.304   1.305  0.3542 -0.2535  2.1291
 6128SOL    HW229604   7.794   0.385   1.326 -0.6056 -2.0307  2.7177
 6129SOL     OW29605   2.927   3.804   1.448 -0.3148  0.1273  0.5820
 6129SOL    HW129606   2.985   3.802   1.366  0.6237  4.2186  1.0613
 6129SOL    HW229607   2.977   3.765   1.525  1.9884  3.8025  1.0379
 6130SOL     OW29608   9.138   7.812   1.411  0.3911 -0.2678  0.2546
 6130SOL    HW129609   9.120   7.909   1.397  0.6009 -0.1870  0.5393
 6130SOL    HW229610   9.169   7.771   1.325 -0.3746 -0.2404 -0.0452
 6131SOL     OW29611   4.020   2.488   0.478 -0.3505  0.5925  0.7994
 6131SOL    HW129612   4.083   2.507   0.402 -0.8122  0.4506  0.3800
 6131SOL    HW229613   4.051   2.408   0.528 -1.1785 -0.5583 -0.5007
 6132SOL     OW29614   4.013   5.912   2.010 -0.1404  0.0786  0.0178
 6132SOL    HW129615   4.042   5.990   2.066 -0.3867  1.0334 -1.1666
 6132SOL    HW229616   3.913   5.904   2.012 -0.0452 -1.0201  1.1931
 6133SOL     OW29617   3.483   5.828   5.976  0.1174 -0.0362  0.5195
 6133SOL    HW129618   3.499   5.794   6.069  0.2891 -0.3784  0.3630
 6133SOL    HW229619   3.562   5.883   5.947  0.7165 -1.1661  0.0054
 6134SOL     OW29620   6.845   1.601   2.316 -0.2368 -0.0589 -0.3337
 6134SOL    HW129621   6.854   1.578   2.413  0.2431 -0.8923 -0.5720
 6134SOL    HW229622   6.935   1.623   2.279 -0.1423 -1.5666 -1.0355
 6135SOL     OW29623   8.610   9.458   4.118  0.0611 -0.2612 -0.4142
 6135SOL    HW129624   8.601   9.397   4.038 -1.7920  0.0166 -0.4272
 6135SOL    HW229625   8.522   9.499   4.139  1.1410  1.8819  0.0549
 6136SOL     OW29626   8.817   2.613   2.072 -0.0345  0.2933 -0.5005
 6136SOL    HW129627   8.903   2.655   2.101 -0.4173  0.7704 -0.0338
 6136SOL    HW229628   8.790   2.543   2.138 -0.5916  0.9508 -0.0226
 6137SOL     OW29629   1.985   1.282   5.943  0.2342 -0.1817  0.1210
 6137SOL    HW129630   1.937   1.245   5.864 -0.3530  0.8587 -0.0180
 6137SOL    HW229631   1.984   1.382   5.939  1.5694 -0.1307  0.6196
 6138SOL     OW29632   4.794   4.712   3.235 -0.4465  0.1874 -0.2209
 6138SOL    HW129633   4.731   4.773   3.187 -0.4085 -0.1038 -0.6465
 6138SOL    HW229634   4.831   4.645   3.170 -1.9047 -1.4635  0.6236
 6139SOL     OW29635   9.901   5.872   1.751  0.0184 -0.0778 -0.0007
 6139SOL    HW129636   9.862   5.929   1.823 -1.3329 -1.0666  0.0678
 6139SOL    HW229637   9.861   5.896   1.663  0.1295 -0.2839 -0.1100
 6140SOL     OW29638   9.332   8.174   2.766 -0.1172  0.1731  0.2837
 6140SOL    HW129639   9.314   8.213   2.676 -1.8261  2.2230  1.4600
 6140SOL    HW229640   9.402   8.228   2.813  0.6142 -0.7593  0.2776
 6141SOL     OW29641   5.074   0.542   6.268 -1.0811  0.6113  0.3708
 6141SOL    HW129642   5.020   0.601   6.208  0.3308  2.3525  0.7453
 6141SOL    HW229643   5.046   0.556   6.363  0.4824  2.0941  0.6456
 6142SOL     OW29644   4.027   2.655   5.028 -0.5434 -0.3623 -0.9123
 6142SOL    HW129645   4.018   2.725   4.958  0.2816 -0.8905 -1.5556
 6142SOL    HW229646   3.943   2.600   5.031 -0.6939 -0.1583 -1.2825
 6143SOL     OW29647   9.846   7.367   3.389 -0.1544 -0.7280 -0.0769
 6143SOL    HW129648   9.797   7.312   3.321 -0.6853 -0.4255  0.0579
 6143SOL    HW229649   9.781   7.418   3.444  0.4307  2.0049 -1.8579
 6144SOL     OW29650   1.930   1.475   0.924  0.3698 -0.2597 -0.2378
 6144SOL    HW129651   2.000   1.410   0.953  0.3692  0.1683  0.7299
 6144SOL    HW229652   1.964   1.568   0.937  0.0350 -0.0596 -0.7956
 6145SOL     OW29653   7.181   8.314   5.623  0.5642 -0.1936  0.8922
 6145SOL    HW129654   7.263   8.261   5.601  1.1213  1.1972 -0.4352
 6145SOL    HW229655   7.102   8.272   5.577  0.8990 -0.2241  0.3419
 6146SOL     OW29656   4.925   0.229   3.634 -0.2913 -0.3121  0.0188
 6146SOL    HW129657   4.935   0.130   3.625 -2.5458 -0.7066  1.5965
 6146SOL    HW229658   4.843   0.259   3.585 -0.9463  0.4153  1.5152
 6147SOL     OW29659   4.349   6.535   2.129  0.2795  0.0687 -0.3572
 6147SOL    HW129660   4.374   6.534   2.226  0.1496  0.2938 -0.3217
 6147SOL    HW229661   4.430   6.515   2.074  0.4039  0.1679 -0.2130
 6148SOL     OW29662   7.252   8.909   5.415  0.6069  0.5929  0.2297
 6148SOL    HW129663   7.350   8.891   5.429  0.6313  0.7365  0.2547
 6148SOL    HW229664   7.200   8.868   5.489  0.7339  1.3374  0.7415
 6149SOL     OW29665   0.481   9.405   0.969 -0.1306 -0.0968  0.1264
 6149SOL    HW129666   0.429   9.480   1.009 -1.4880  0.0814 -1.8900
 6149SOL    HW229667   0.547   9.370   1.036 -0.0115  2.3715  1.3313
 6150SOL     OW29668   2.248   1.452   1.386 -0.1771  0.5724 -0.1042
 6150SOL    HW129669   2.297   1.455   1.299 -0.4677  0.9540 -0.2523
 6150SOL    HW229670   2.232   1.356   1.412  0.1870  0.4572 -0.3139
 6151SOL     OW29671   2.146   5.506   6.085 -0.2572 -0.0470  0.1803
 6151SOL    HW129672   2.140   5.555   6.171 -0.2116 -1.3705  0.9436
 6151SOL    HW229673   2.221   5.543   6.030 -0.7588  1.2858  0.3857
 6152SOL     OW29674   3.877   8.880   6.379 -0.0447 -0.3127 -0.5372
 6152SOL    HW129675   3.804   8.837   6.433 -0.9881 -1.3936 -2.6291
 6152SOL    HW229676   3.903   8.820   6.304  3.8442 -0.4638  0.8004
 6153SOL     OW29677   2.909   3.632   5.106  0.2046  0.0324 -0.1775
 6153SOL    HW129678   2.975   3.666   5.040  0.3544 -0.9866 -0.5520
 6153SOL    HW229679   2.948   3.556   5.158 -0.8088 -0.8808 -0.7117
 6154SOL     OW29680   9.154   2.542   2.750  0.0921  0.3484  0.8227
 6154SOL    HW129681   9.167   2.590   2.837  0.5990  1.6089  0.0723
 6154SOL    HW229682   9.161   2.444   2.764  1.7276  0.6109  1.9498
 6155SOL     OW29683   0.943   4.579   5.371 -0.8376  0.0264 -0.4478
 6155SOL    HW129684   0.889   4.496   5.368  1.9239 -1.8748  0.3142
 6155SOL    HW229685   0.943   4.617   5.463  1.0590 -1.3644  0.1610
 6156SOL     OW29686   0.999   5.134   4.990 -0.2989 -0.0373 -0.3461
 6156SOL    HW129687   1.033   5.203   5.054 -1.2333 -0.3507  0.5023
 6156SOL    HW229688   0.998   5.173   4.897 -1.6582  1.4282  0.2453
 6157SOL     OW29689   0.741   5.633   4.398 -0.2089  0.0683 -0.1077
 6157SOL    HW129690   0.701   5.544   4.377  0.0512  0.2648 -1.4500
 6157SOL    HW229691   0.825   5.620   4.451 -0.5063 -0.4533  0.2422
 6158SOL     OW29692   2.953   8.725   4.450 -0.0745  0.0094 -0.0252
 6158SOL    HW129693   2.896   8.690   4.376 -2.7697  1.6005  1.2057
 6158SOL    HW229694   2.988   8.649   4.505 -0.6316 -1.0178 -1.0926
 6159SOL     OW29695   3.633   6.035   3.049 -0.1964 -0.7331  0.4638
 6159SOL    HW129696   3.594   6.059   3.138 -0.3677 -0.4844  0.3202
 6159SOL    HW229697   3.563   6.040   2.979 -0.5144 -2.6977  0.5919
 6160SOL     OW29698   5.882   9.461   1.717  0.3168  0.2767 -0.0104
 6160SOL    HW129699   5.885   9.531   1.646  2.7686 -0.7017 -0.9138
 6160SOL    HW229700   5.886   9.370   1.675 -0.1231 -0.3596  1.2853
 6161SOL     OW29701   2.367   2.669   4.275  0.1803 -0.6170  0.0457
 6161SOL    HW129702   2.276   2.709   4.271  1.4909  2.4508 -0.4224
 6161SOL    HW229703   2.405   2.681   4.366  1.2042  0.7059 -0.5329
 6162SOL     OW29704   4.339   1.448   4.286  1.0299  0.1285 -0.0967
 6162SOL    HW129705   4.275   1.515   4.323  1.0016 -0.5309  1.0796
 6162SOL    HW229706   4.347   1.371   4.350  4.2917  0.9890  0.6086
 6163SOL     OW29707   2.838   4.903   3.218  0.0822  0.5181 -0.0798
 6163SOL    HW129708   2.890   4.836   3.166  0.6855  1.2140 -0.3872
 6163SOL    HW229709   2.867   4.900   3.314  0.4918  0.7208 -0.1993
 6164SOL     OW29710   1.807   0.136   4.772  0.3525 -0.2121 -0.0837
 6164SOL    HW129711   1.773   0.102   4.860  1.0394  1.5779  0.9106
 6164SOL    HW229712   1.730   0.167   4.716 -0.0462 -0.8092  0.1287
 6165SOL     OW29713   2.852   5.102   2.788  0.1322 -0.1055  0.8042
 6165SOL    HW129714   2.803   5.018   2.812 -0.3837  0.6089  2.2637
 6165SOL    HW229715   2.789   5.179   2.788  0.3611  0.1295 -1.6880
 6166SOL     OW29716   0.799   0.511   4.430 -0.2344 -0.3282 -0.0917
 6166SOL    HW129717   0.838   0.499   4.521 -1.0859  0.3513  0.3642
 6166SOL    HW229718   0.711   0.557   4.437  1.2488  2.8458 -1.4970
 6167SOL     OW29719   6.277   7.202   4.478 -0.0421  0.1271 -0.2172
 6167SOL    HW129720   6.314   7.121   4.433 -0.4489 -0.0640 -0.2084
 6167SOL    HW229721   6.233   7.175   4.564  0.7860  0.4981  0.3298
 6168SOL     OW29722   3.789   3.622   0.374  0.2859  0.3426  0.2316
 6168SOL    HW129723   3.721   3.648   0.442 -0.3428 -1.3319  0.2483
 6168SOL    HW229724   3.784   3.685   0.296 -1.0749  0.3858  0.3537
 6169SOL     OW29725   9.882   5.053   3.454 -0.5796 -0.0558 -0.1746
 6169SOL    HW129726   9.799   5.079   3.406 -1.7838 -2.0978  0.7411
 6169SOL    HW229727   9.914   4.964   3.420 -0.1512 -0.4244  1.1435
 6170SOL     OW29728   9.184   5.389   6.351  0.5334 -0.5244 -0.7715
 6170SOL    HW129729   9.254   5.318   6.354 -0.2543 -1.4123 -2.5129
 6170SOL    HW229730   9.227   5.479   6.344  1.5015 -1.0701 -1.9668
 6171SOL     OW29731   4.248   2.798   4.300 -0.0843  0.1614 -0.7804
 6171SOL    HW129732   4.177   2.737   4.336  0.3319 -1.8295 -3.1572
 6171SOL    HW229733   4.224   2.893   4.320 -3.7417 -0.4012 -1.9608
 6172SOL     OW29734   4.962   9.459   5.747 -0.3360  0.1976 -0.5905
 6172SOL    HW129735   4.991   9.412   5.664  2.9443 -0.1371  0.6834
 6172SOL    HW229736   5.017   9.542   5.760 -0.0361 -0.3294  1.8015
 6173SOL     OW29737   8.261   6.683   1.363 -0.0763  0.6964 -0.1262
 6173SOL    HW129738   8.292   6.609   1.304 -1.5144 -0.1432  0.1498
 6173SOL    HW229739   8.230   6.760   1.306 -0.4591  0.3041 -0.4535
 6174SOL     OW29740   3.569   0.194   3.210 -0.5801 -0.4148 -0.2177
 6174SOL    HW129741   3.539   0.288   3.192  0.7416  0.5307  2.2240
 6174SOL    HW229742   3.518   0.131   3.152 -1.5466  1.8029 -1.8575
 6175SOL     OW29743   4.257   5.796   0.532 -0.0808 -0.0399 -0.4663
 6175SOL    HW129744   4.177   5.749   0.494 -0.5492  0.1267  0.2959
 6175SOL    HW229745   4.231   5.887   0.563  0.6539  0.4313 -1.2128
 6176SOL     OW29746   8.243   8.399   5.745 -0.0770  0.1556 -0.0846
 6176SOL    HW129747   8.280   8.306   5.748  0.0686  0.1704 -1.2864
 6176SOL    HW229748   8.180   8.412   5.821  0.1393 -0.8308  0.2687
 6177SOL     OW29749   0.195   6.881   0.047  0.4345  0.0845  0.4720
 6177SOL    HW129750   0.128   6.858  -0.024  0.4630  0.2972  0.3766
 6177SOL    HW229751   0.157   6.949   0.108  0.5471  0.1721  0.4448
 6178SOL     OW29752   9.792   1.236   6.125 -0.4349 -0.4336  0.0895
 6178SOL    HW129753   9.771   1.138   6.128  1.7293 -0.9188  0.2208
 6178SOL    HW229754   9.867   1.256   6.188 -0.9442  1.3397  0.1418
 6179SOL     OW29755   5.093   4.915   1.842  0.2336  0.7588  0.5311
 6179SOL    HW129756   5.009   4.960   1.813  0.4598  1.2955  0.6864
 6179SOL    HW229757   5.077   4.863   1.926 -0.1361  0.1808  0.1048
 6180SOL     OW29758   1.930   3.175   3.273  0.2735  0.1364  0.4822
 6180SOL    HW129759   1.961   3.270   3.279 -1.2988  0.6719  0.2638
 6180SOL    HW229760   1.925   3.135   3.364  0.9891  0.2285  0.5698
 6181SOL     OW29761   8.044   4.071   1.574 -0.2541  0.3120 -0.0490
 6181SOL    HW129762   8.048   3.987   1.628 -0.6736 -0.9504 -1.9496
 6181SOL    HW229763   8.124   4.076   1.514 -0.3228  1.1793 -0.0674
 6182SOL     OW29764   9.290   1.927   3.649  0.0230 -0.2652  0.5722
 6182SOL    HW129765   9.210   1.961   3.698  0.3988 -1.7345  2.3049
 6182SOL    HW229766   9.373   1.968   3.688  0.1936  0.2598 -0.3363
 6183SOL     OW29767   3.573   4.376   2.271  0.5466 -0.2855  0.8965
 6183SOL    HW129768   3.579   4.471   2.240  1.9017 -0.5039  0.4603
 6183SOL    HW229769   3.617   4.367   2.360  1.4095 -0.7195  0.4308
 6184SOL     OW29770   9.616   7.375   4.645  0.7270  0.0071 -0.2121
 6184SOL    HW129771   9.638   7.448   4.709  0.0344 -0.0922  0.1475
 6184SOL    HW229772   9.673   7.295   4.664 -0.2095 -0.3986  0.9836
 6185SOL     OW29773   0.876   3.920   5.254  0.2686  0.3674 -1.3548
 6185SOL    HW129774   0.784   3.879   5.247  0.8872 -0.9795 -1.7683
 6185SOL    HW229775   0.890   3.984   5.178 -0.6763  1.3082 -0.7520
 6186SOL     OW29776   3.408   3.037   3.649  0.6237  0.0488  0.6207
 6186SOL    HW129777   3.387   2.946   3.684 -0.7717  0.0697 -0.1167
 6186SOL    HW229778   3.365   3.105   3.708  0.6440  0.1895  0.4726
 6187SOL     OW29779   3.687   7.394   1.165  0.2952 -0.3274  0.0130
 6187SOL    HW129780   3.773   7.427   1.204 -0.5842  1.8696  0.1621
 6187SOL    HW229781   3.630   7.355   1.238  0.2491  0.2476  0.2878
 6188SOL     OW29782   2.515   2.794   2.815 -0.0105  0.3469 -0.0647
 6188SOL    HW129783   2.437   2.797   2.877  1.1033 -1.5460  1.4734
 6188SOL    HW229784   2.563   2.881   2.818  0.2220  0.1753  1.9897
 6189SOL     OW29785   0.660   2.722   3.547  0.3982 -0.4437  0.5277
 6189SOL    HW129786   0.591   2.652   3.527 -0.2858  0.9032 -2.0666
 6189SOL    HW229787   0.749   2.678   3.556 -0.0440 -1.6792 -0.8921
 6190SOL     OW29788   7.584   8.028   5.614  0.1033  0.1713  0.0498
 6190SOL    HW129789   7.620   7.948   5.567  1.0929  1.0630 -0.7540
 6190SOL    HW229790   7.657   8.097   5.623 -0.9301  1.2925  0.0100
 6191SOL     OW29791   5.067   4.560   3.256  0.5249 -0.3402  0.0609
 6191SOL    HW129792   5.032   4.593   3.344  1.7625 -0.8330  0.7491
 6191SOL    HW229793   5.131   4.486   3.272  0.1662 -0.9504 -1.3182
 6192SOL     OW29794   3.854   9.073   5.102  0.9089  0.2012  0.3626
 6192SOL    HW129795   3.842   9.011   5.024  2.1184 -0.2652  0.5295
 6192SOL    HW229796   3.943   9.056   5.144 -0.6657 -1.1806  3.2781
 6193SOL     OW29797   2.112   7.683   4.827  0.0992 -0.1549 -0.6926
 6193SOL    HW129798   2.071   7.688   4.919  0.0080  1.1280 -0.7954
 6193SOL    HW229799   2.081   7.761   4.773 -1.2024 -1.8175 -2.3837
 6194SOL     OW29800   8.295   3.407   1.887 -0.2091  0.3859  0.1963
 6194SOL    HW129801   8.353   3.346   1.942 -1.0323 -1.4353 -0.9229
 6194SOL    HW229802   8.292   3.497   1.931  0.6154 -0.4998  2.1664
 6195SOL     OW29803   1.613   7.442   1.024  0.1911  0.5899  0.4116
 6195SOL    HW129804   1.665   7.422   0.941 -0.4567 -1.3152  0.4320
 6195SOL    HW229805   1.536   7.502   1.003 -0.6906 -0.8620 -0.6245
 6196SOL     OW29806   2.433   2.557   1.331 -0.3850  0.5619 -0.2644
 6196SOL    HW129807   2.512   2.618   1.330  0.3298 -0.3555  0.0408
 6196SOL    HW229808   2.349   2.612   1.337  0.3102  1.4830  1.3622
 6197SOL     OW29809   9.266   6.988   2.049  0.3260  0.4743  0.3524
 6197SOL    HW129810   9.191   7.031   1.998 -0.3215 -0.8566  0.1572
 6197SOL    HW229811   9.268   7.024   2.142  0.4922  1.7341 -0.1308
 6198SOL     OW29812   8.346   9.491   4.965 -0.0936  0.2329  0.3645
 6198SOL    HW129813   8.280   9.566   4.975 -0.8792 -0.1752 -1.6909
 6198SOL    HW229814   8.424   9.508   5.026 -0.5752  2.3671  0.4331
 6199SOL     OW29815   9.826   6.027   4.197 -0.2449 -0.1809  0.1506
 6199SOL    HW129816   9.885   6.083   4.256  0.5905  2.2113 -2.7873
 6199SOL    HW229817   9.840   5.931   4.217  1.4443  0.5067  2.5021
 6200SOL     OW29818   7.983   4.850   5.982 -0.5049 -0.0335  0.3171
 6200SOL    HW129819   8.045   4.790   5.931  0.2732  0.0283  1.1846
 6200SOL    HW229820   7.899   4.800   6.005  0.1932 -0.8280  1.1463
 6201SOL     OW29821   4.396   3.564   0.227 -0.0855 -0.0391  0.1842
 6201SOL    HW129822   4.333   3.504   0.178 -1.0616  0.7717  0.4429
 6201SOL    HW229823   4.396   3.654   0.184  1.1892 -0.1271 -0.0422
 6202SOL     OW29824   1.432   6.559   5.614  0.0269 -0.1325  0.3191
 6202SOL    HW129825   1.342   6.597   5.596  0.6606  0.7543 -0.9919
 6202SOL    HW229826   1.462   6.587   5.705 -0.3438  0.8748  0.1327
 6203SOL     OW29827   8.772   5.217   2.997 -0.3052  0.0190  0.0646
 6203SOL    HW129828   8.750   5.264   2.911 -1.3954  0.1642  0.4141
 6203SOL    HW229829   8.739   5.123   2.993  1.6462 -0.6564 -0.5346
 6204SOL     OW29830   1.831   6.670   4.479 -0.1128 -0.5899 -0.2550
 6204SOL    HW129831   1.862   6.678   4.384  0.3444 -1.0793 -0.1446
 6204SOL    HW229832   1.909   6.657   4.539 -0.3685  0.1176  0.2403
 6205SOL     OW29833   0.047   0.921   0.605 -0.4226 -0.5160  0.0862
 6205SOL    HW129834  -0.031   0.901   0.546  0.1228  0.3424 -0.9268
 6205SOL    HW229835   0.071   1.018   0.598  0.6485 -0.7437  0.4968
 6206SOL     OW29836   8.680   1.520   2.628  0.4819  0.1488 -0.6019
 6206SOL    HW129837   8.636   1.466   2.556  0.2232  0.9473 -1.0442
 6206SOL    HW229838   8.714   1.606   2.589  0.5412  0.4825  0.1832
 6207SOL     OW29839   1.740   1.967   4.926  0.1807  0.1887  0.3487
 6207SOL    HW129840   1.706   1.920   5.007  0.5179  0.3048  0.5612
 6207SOL    HW229841   1.805   2.038   4.954 -1.4798  1.8125  0.1519
 6208SOL     OW29842   8.326   4.986   1.212 -0.6594 -0.1270  0.3924
 6208SOL    HW129843   8.424   4.973   1.201 -0.5773  0.5233  0.3487
 6208SOL    HW229844   8.298   5.072   1.169 -1.6756 -1.5516 -1.9228
 6209SOL     OW29845   4.101   0.419   2.351  0.2869  0.0073 -0.0667
 6209SOL    HW129846   4.005   0.444   2.338 -0.7268 -2.2309  2.5717
 6209SOL    HW229847   4.157   0.502   2.358 -1.6082  1.3507 -0.5869
 6210SOL     OW29848   4.007   0.795   0.543 -0.4515  0.0281  0.7331
 6210SOL    HW129849   4.087   0.798   0.484 -0.8564 -0.2004  0.1644
 6210SOL    HW229850   3.975   0.887   0.561 -1.2137  0.0480 -0.6342
 6211SOL     OW29851   4.134   9.502   5.806 -0.1975  0.0444  0.5056
 6211SOL    HW129852   4.195   9.569   5.850 -1.2672  1.0505  0.4849
 6211SOL    HW229853   4.057   9.483   5.867 -0.6178 -0.1168 -0.0770
 6212SOL     OW29854   1.660   8.657   0.372  0.0981  0.5349 -0.0572
 6212SOL    HW129855   1.567   8.644   0.336  0.1555  0.3243 -0.1283
 6212SOL    HW229856   1.664   8.742   0.424  0.4725  1.7672 -2.0672
 6213SOL     OW29857   3.176   1.353   3.472 -0.6347  0.2966 -0.4410
 6213SOL    HW129858   3.185   1.450   3.495  0.6764 -0.2157  1.3273
 6213SOL    HW229859   3.100   1.314   3.524 -1.3403  0.4416 -1.3668
 6214SOL     OW29860   6.098   8.295   3.037 -0.5894 -0.4307 -0.3032
 6214SOL    HW129861   6.106   8.299   2.937 -0.3943  0.1046 -0.2727
 6214SOL    HW229862   6.106   8.388   3.074 -0.5090 -0.6448  0.2196
 6215SOL     OW29863   7.880   1.490   6.684 -0.1801 -0.3907 -0.0113
 6215SOL    HW129864   7.894   1.583   6.719 -0.5752  0.5285 -2.1712
 6215SOL    HW229865   7.811   1.443   6.739  0.1682  0.5352  1.2251
 6216SOL     OW29866   4.615   8.642   5.941 -0.2250 -0.4050 -0.3452
 6216SOL    HW129867   4.653   8.555   5.909 -1.6931 -1.0893 -0.2742
 6216SOL    HW229868   4.687   8.697   5.984  0.7732 -1.4494 -0.6773
 6217SOL     OW29869   9.980   0.936   4.975  0.0100 -0.0068 -0.5828
 6217SOL    HW129870   9.988   1.034   4.960  0.0790  0.4861  2.3111
 6217SOL    HW229871   9.896   0.916   5.026  0.2664 -1.3704 -0.6559
 6218SOL     OW29872   4.347   8.572   6.520 -0.2942  0.3575 -0.4754
 6218SOL    HW129873   4.321   8.610   6.432 -0.7506 -0.1868 -0.5753
 6218SOL    HW229874   4.337   8.641   6.591 -2.7588 -0.0407 -0.3804
 6219SOL     OW29875   8.942   5.754   6.633 -0.3716 -0.3489 -0.5912
 6219SOL    HW129876   8.943   5.745   6.533 -0.4563  1.1145 -0.7309
 6219SOL    HW229877   9.018   5.813   6.662 -1.9888  1.5306 -0.0408
 6220SOL     OW29878   0.314   9.962   3.070 -0.3807  0.0406 -0.5422
 6220SOL    HW129879   0.341   9.997   2.980  1.3190  0.5862  0.1606
 6220SOL    HW229880   0.323   9.862   3.071 -2.5475 -0.1982 -1.6601
 6221SOL     OW29881   0.055   9.184   1.754  0.0499  0.0076  0.0452
 6221SOL    HW129882   0.018   9.276   1.769  1.4671  0.5473  0.2212
 6221SOL    HW229883   0.004   9.140   1.680 -0.4081  1.0615 -0.2785
 6222SOL     OW29884   1.514   7.954   3.768 -0.3998  0.4694  0.2370
 6222SOL    HW129885   1.483   7.967   3.862  0.5097 -1.0470  0.7622
 6222SOL    HW229886   1.461   7.882   3.724 -0.5815  0.9220 -0.2952
 6223SOL     OW29887   4.205   5.434   5.319 -0.5430  0.5411 -0.1601
 6223SOL    HW129888   4.230   5.419   5.414  1.4363  0.1078 -0.7351
 6223SOL    HW229889   4.273   5.493   5.275 -1.4487  0.7618 -1.2934
 6224SOL     OW29890   0.937   2.558   2.791  0.2529 -0.2174 -0.8087
 6224SOL    HW129891   0.978   2.647   2.810  0.0677 -0.5107  1.0728
 6224SOL    HW229892   0.837   2.565   2.795  0.2226 -0.4253 -1.1070
 6225SOL     OW29893   3.000   3.670   0.750 -0.3427 -0.3706 -0.2258
 6225SOL    HW129894   3.091   3.665   0.791 -0.5350  0.2823  0.2925
 6225SOL    HW229895   2.932   3.686   0.822 -0.6777  0.8474 -0.8070
 6226SOL     OW29896   4.911   4.282   2.376  0.3364  0.1184  0.3334
 6226SOL    HW129897   4.844   4.263   2.304  0.1509 -0.0320  0.5415
 6226SOL    HW229898   4.879   4.359   2.432  1.2140  1.2238 -0.6630
 6227SOL     OW29899   1.080   0.123   4.941 -0.0080  0.7412 -0.2171
 6227SOL    HW129900   1.070   0.055   4.868  0.5266  0.3144  0.1010
 6227SOL    HW229901   1.152   0.094   5.004 -2.1172 -0.1479  1.8605
 6228SOL     OW29902   7.474   1.408   4.403 -0.0565  0.3205 -0.0314
 6228SOL    HW129903   7.410   1.358   4.346  0.4358  1.1479 -1.3287
 6228SOL    HW229904   7.566   1.371   4.392  0.7244  2.8758 -2.7399
 6229SOL     OW29905   8.228   2.258   6.520 -0.1874 -0.3744 -0.6796
 6229SOL    HW129906   8.304   2.308   6.562 -0.8428 -0.2438  0.3646
 6229SOL    HW229907   8.207   2.178   6.575 -2.2184  0.7562  0.2315
 6230SOL     OW29908   4.669   2.568   3.701  0.3495  0.0416 -0.4771
 6230SOL    HW129909   4.613   2.531   3.775 -0.7994  0.3997 -1.1542
 6230SOL    HW229910   4.761   2.587   3.735 -0.1578  0.1872  0.8437
 6231SOL     OW29911   5.654   0.649   1.917  0.5961  0.6595 -0.0055
 6231SOL    HW129912   5.557   0.631   1.901  0.5471  0.4227  0.5351
 6231SOL    HW229913   5.673   0.746   1.902  0.0070  0.9674  1.1430
 6232SOL     OW29914   3.505   3.021   6.022 -0.6988  0.0849 -0.0490
 6232SOL    HW129915   3.534   2.946   6.081  0.4114  0.7755  0.2991
 6232SOL    HW229916   3.409   3.043   6.040 -0.9319 -1.0424  0.0671
 6233SOL     OW29917   2.855   8.417   1.671  0.5930 -0.2018 -0.3720
 6233SOL    HW129918   2.866   8.357   1.592 -0.1800 -0.7362 -0.0711
 6233SOL    HW229919   2.895   8.506   1.650  1.0908 -0.5846 -1.0825
 6234SOL     OW29920   3.537   3.933   0.115 -0.3787 -0.2912 -0.2278
 6234SOL    HW129921   3.486   4.019   0.102  0.2357  0.0473 -0.4444
 6234SOL    HW229922   3.490   3.859   0.068 -1.3149 -0.2181  0.5892
 6235SOL     OW29923   4.647   2.061   6.193 -0.1694 -0.1125  0.3049
 6235SOL    HW129924   4.636   2.051   6.094 -0.5315  0.0067  0.3310
 6235SOL    HW229925   4.641   2.158   6.217  1.2717 -0.0101  0.2840
 6236SOL     OW29926   7.209   2.474   2.355  0.1594  0.5555  0.1439
 6236SOL    HW129927   7.191   2.379   2.383 -0.9010  0.8274  0.4123
 6236SOL    HW229928   7.124   2.526   2.359  0.8535  1.6770  0.5956
 6237SOL     OW29929   7.235   9.028   2.318  0.6402  0.5091 -0.4101
 6237SOL    HW129930   7.283   9.085   2.252  2.5926 -1.2709 -0.6017
 6237SOL    HW229931   7.208   8.942   2.275  0.1785  0.1281  0.5981
 6238SOL     OW29932   0.018   7.179   4.534 -0.3433  0.4857 -0.0367
 6238SOL    HW129933   0.086   7.234   4.582  0.7588 -1.4352  0.6268
 6238SOL    HW229934  -0.067   7.177   4.587  0.0583  0.4300  0.6048
 6239SOL     OW29935   2.278   7.001   1.842 -0.1351 -0.0014 -0.0545
 6239SOL    HW129936   2.370   7.036   1.830 -0.3242  0.7089  0.5545
 6239SOL    HW229937   2.223   7.022   1.761  0.1850 -0.2597 -0.3375
 6240SOL     OW29938   3.261   3.470   3.109  0.2513 -0.2689 -0.1947
 6240SOL    HW129939   3.286   3.379   3.140  1.4239 -0.1372 -0.7220
 6240SOL    HW229940   3.306   3.489   3.021 -3.1990 -0.7301 -2.1490
 6241SOL     OW29941   6.413   1.263   0.663 -0.4738 -0.1151  0.0838
 6241SOL    HW129942   6.407   1.204   0.582  0.3098 -0.2092  0.0933
 6241SOL    HW229943   6.345   1.233   0.730 -2.9545  1.6043 -1.5801
 6242SOL     OW29944   2.246   2.550   5.402  0.1474 -0.0542 -0.1863
 6242SOL    HW129945   2.223   2.515   5.493 -2.1172 -0.7108 -0.9842
 6242SOL    HW229946   2.227   2.480   5.333  2.2889  0.2694 -1.1534
 6243SOL     OW29947   4.890   7.138   3.637  0.2592  0.1848  0.1117
 6243SOL    HW129948   4.943   7.143   3.553  1.7734  0.0801  1.0492
 6243SOL    HW229949   4.936   7.077   3.702 -1.0331  0.0504  0.9254
 6244SOL     OW29950   7.963   8.805   2.701  0.0803  0.3321 -0.1595
 6244SOL    HW129951   8.048   8.857   2.713  0.5114 -0.3788 -0.1521
 6244SOL    HW229952   7.904   8.819   2.780  1.8174 -2.2701  1.6525
 6245SOL     OW29953   6.745   6.999   4.767 -0.0310  0.4843  0.2321
 6245SOL    HW129954   6.755   6.988   4.866 -0.1307  0.6941  0.2661
 6245SOL    HW229955   6.742   6.909   4.723 -1.0994  0.3606  0.5288
 6246SOL     OW29956   3.634   6.148   3.308 -0.0367  0.0191  0.6431
 6246SOL    HW129957   3.623   6.140   3.407  0.3831  0.1384  0.7030
 6246SOL    HW229958   3.731   6.162   3.286 -0.1113 -0.1208  0.2075
 6247SOL     OW29959   7.760   5.220   1.806 -0.3193 -0.2423 -0.0491
 6247SOL    HW129960   7.694   5.296   1.808 -0.4836 -0.3842 -0.0689
 6247SOL    HW229961   7.821   5.228   1.884 -1.6390 -1.2504  1.1095
 6248SOL     OW29962   5.517   4.851   0.792  0.2191 -0.3708 -0.3955
 6248SOL    HW129963   5.441   4.890   0.739 -0.0354  0.0174  0.2502
 6248SOL    HW229964   5.530   4.904   0.876  0.5593 -1.0369 -0.0217
 6249SOL     OW29965   3.364   6.701   3.920  0.3833 -0.7416  0.5883
 6249SOL    HW129966   3.406   6.791   3.932 -0.5337 -0.3143  0.5990
 6249SOL    HW229967   3.308   6.701   3.837 -0.0998 -1.1173  0.9142
 6250SOL     OW29968   5.312   8.757   2.605 -0.1711 -1.1066 -0.8340
 6250SOL    HW129969   5.324   8.812   2.688  0.3400 -0.3824 -1.3732
 6250SOL    HW229970   5.232   8.698   2.615 -0.0475 -1.1027  0.2141
 6251SOL     OW29971   6.896   8.927   4.658  0.4012  0.6836  0.6067
 6251SOL    HW129972   6.942   9.015   4.664  0.0524  1.0110 -1.2473
 6251SOL    HW229973   6.914   8.885   4.569 -1.8974  0.2869  0.2802
 6252SOL     OW29974   4.225   9.728   2.325  0.3748 -0.3452 -0.1207
 6252SOL    HW129975   4.306   9.677   2.354  0.7772 -0.9841 -2.2675
 6252SOL    HW229976   4.154   9.663   2.296  0.6778  0.2889 -2.3254
 6253SOL     OW29977   7.426   8.759   5.009 -0.0447  0.1096 -0.2047
 6253SOL    HW129978   7.484   8.839   5.025 -0.1445 -0.1865  1.8650
 6253SOL    HW229979   7.434   8.697   5.087 -1.2057 -1.1325 -1.0589
 6254SOL     OW29980   2.903   8.623   3.739 -0.1191 -0.0138 -0.2821
 6254SOL    HW129981   2.849   8.545   3.709  1.0998 -0.1632 -2.2312
 6254SOL    HW229982   2.869   8.706   3.694 -1.3548  0.5949  1.7105
 6255SOL     OW29983   0.107   5.593   1.008  0.0925 -0.1574 -0.1884
 6255SOL    HW129984   0.130   5.653   0.931  1.1175 -0.8308 -0.4225
 6255SOL    HW229985   0.079   5.648   1.086 -0.6235  0.5498 -0.9351
 6256SOL     OW29986   7.860   7.258   4.309 -0.5699 -0.1526  0.5615
 6256SOL    HW129987   7.773   7.226   4.272  0.0377  0.9265 -1.9607
 6256SOL    HW229988   7.848   7.348   4.351 -0.4884  0.4864 -0.7579
 6257SOL     OW29989   3.109   1.395   2.575  0.6659 -0.0175 -0.2949
 6257SOL    HW129990   3.184   1.386   2.641 -0.2081 -1.5344  0.5180
 6257SOL    HW229991   3.107   1.488   2.540  1.5656  0.6331  1.3303
 6258SOL     OW29992   4.998   1.669   1.595  0.0309 -0.6815  0.4820
 6258SOL    HW129993   5.097   1.684   1.596 -0.0476 -0.0409 -0.3444
 6258SOL    HW229994   4.977   1.583   1.641  0.8975 -0.4247  1.3683
 6259SOL     OW29995   8.678   8.229   1.607  0.3433  0.0252  0.1395
 6259SOL    HW129996   8.687   8.188   1.516 -0.0805 -0.5153  0.3356
 6259SOL    HW229997   8.692   8.327   1.601  1.4223 -0.1508 -0.3360
 6260SOL     OW29998   9.945   3.026   3.342  0.1587  0.0869 -0.2041
 6260SOL    HW129999   9.958   2.946   3.401 -0.6650  0.0643 -0.0417
 6260SOL    HW230000   9.978   3.108   3.388 -0.8659  0.1291  0.4664
 6261SOL     OW30001   9.408   9.683   1.590  0.1963 -0.1287 -0.0263
 6261SOL    HW130002   9.438   9.756   1.652 -1.1450 -0.5227  1.1012
 6261SOL    HW230003   9.453   9.597   1.616  0.0886 -0.1670  0.0344
 6262SOL     OW30004   1.970   1.369   6.281 -0.3154  0.6978  0.6398
 6262SOL    HW130005   2.042   1.384   6.349  1.7306  0.0452 -1.3512
 6262SOL    HW230006   1.948   1.272   6.276 -2.4798  1.0617  2.3451
 6263SOL     OW30007   1.797   3.196   2.996  0.0709 -0.3458 -0.0413
 6263SOL    HW130008   1.782   3.167   3.091  0.2143  0.7776  0.3418
 6263SOL    HW230009   1.818   3.117   2.939 -0.6060 -1.1002  0.7533
 6264SOL     OW30010   6.670   9.193   3.150  0.8309 -0.2456  0.0351
 6264SOL    HW130011   6.740   9.213   3.083 -0.4291  3.5024 -0.2912
 6264SOL    HW230012   6.682   9.252   3.230 -1.8051  0.3335  0.0522
 6265SOL     OW30013   1.466   5.151   0.959 -0.4480 -1.1648 -0.0085
 6265SOL    HW130014   1.518   5.232   0.984  0.1065 -1.1466 -1.1982
 6265SOL    HW230015   1.368   5.169   0.970 -0.4371  0.2991 -2.0205
 6266SOL     OW30016   6.833   8.034   3.489  0.4125 -0.3354  0.6087
 6266SOL    HW130017   6.881   8.082   3.416 -0.4391 -1.0696 -0.4516
 6266SOL    HW230018   6.736   8.061   3.489  0.4187 -0.2927  1.5076
 6267SOL     OW30019   1.006   2.683   5.128 -0.0148  0.0382 -0.0409
 6267SOL    HW130020   1.028   2.773   5.090 -0.7922  0.0881 -0.3708
 6267SOL    HW230021   1.086   2.647   5.177 -0.2153  1.5957  1.4630
 6268SOL     OW30022   9.707   7.160   2.001 -0.2291 -0.4181 -0.3919
 6268SOL    HW130023   9.688   7.098   2.078  1.2696  0.4613  0.7291
 6268SOL    HW230024   9.621   7.195   1.964 -0.9836 -0.5435  1.1749
 6269SOL     OW30025   0.470   2.269   0.940  0.1310  0.2505  0.7679
 6269SOL    HW130026   0.489   2.178   0.904 -0.5643  0.3989 -0.0060
 6269SOL    HW230027   0.524   2.336   0.889  0.1068  0.3386  0.8586
 6270SOL     OW30028   5.721   1.698   1.410  0.4303  0.6205  0.3488
 6270SOL    HW130029   5.715   1.650   1.498 -2.5396 -1.5455 -0.9389
 6270SOL    HW230030   5.799   1.662   1.358 -0.6133 -1.5460  0.2083
 6271SOL     OW30031   7.667   1.794   4.660  0.0911  0.2235  0.2334
 6271SOL    HW130032   7.652   1.888   4.691 -1.0510 -0.5494  2.1824
 6271SOL    HW230033   7.731   1.749   4.722  0.8884 -0.1972 -0.8864
 6272SOL     OW30034   7.891   0.918   6.660 -0.5111 -0.1036 -0.3266
 6272SOL    HW130035   7.839   0.968   6.590  0.9982 -0.1311 -1.4998
 6272SOL    HW230036   7.972   0.878   6.618 -2.0701 -4.2880  0.3777
 6273SOL     OW30037   9.213   5.974   2.402  0.5533 -0.2443 -0.4542
 6273SOL    HW130038   9.150   5.903   2.369 -2.1081  1.6125  0.4662
 6273SOL    HW230039   9.247   6.028   2.325  0.9286 -1.1668 -0.9419
 6274SOL     OW30040   2.687   2.120   3.516  0.3148 -0.0748 -0.2101
 6274SOL    HW130041   2.772   2.080   3.481  0.5003 -1.8260  2.1004
 6274SOL    HW230042   2.679   2.215   3.485  2.6596 -0.1601 -1.1731
 6275SOL     OW30043   7.839   2.246   4.146 -0.3390  0.5853 -0.2718
 6275SOL    HW130044   7.836   2.182   4.070 -0.2605  1.9081 -1.4185
 6275SOL    HW230045   7.841   2.196   4.232  1.2337 -0.9462 -1.1757
 6276SOL     OW30046   4.006   7.206   5.000 -0.1650  0.3070  0.0812
 6276SOL    HW130047   3.918   7.164   4.978 -0.2566  0.9568 -0.8352
 6276SOL    HW230048   4.002   7.304   4.981 -0.1623  0.8843  2.8739
 6277SOL     OW30049   2.639   3.345   1.003  0.4163 -0.3258 -0.2217
 6277SOL    HW130050   2.587   3.268   1.040  1.5911 -1.3077 -0.5735
 6277SOL    HW230051   2.620   3.427   1.057 -0.0118 -1.1046  0.8340
 6278SOL     OW30052   5.641   2.211   3.365  0.0904  0.5173  0.1234
 6278SOL    HW130053   5.582   2.130   3.365 -0.7922  1.1522 -0.4105
 6278SOL    HW230054   5.635   2.257   3.277 -0.7183  2.0970  0.9789
 6279SOL     OW30055   7.174   3.088   0.404 -0.2073  0.4033 -0.1556
 6279SOL    HW130056   7.246   3.146   0.441  0.1730  0.2344 -0.6214
 6279SOL    HW230057   7.213   3.026   0.336 -0.6179 -0.3840  0.3228
 6280SOL     OW30058   1.609   4.578   6.590 -0.5486  0.4320  0.3697
 6280SOL    HW130059   1.540   4.587   6.661 -0.0872  2.6173  0.5670
 6280SOL    HW230060   1.565   4.559   6.502 -1.4549  2.2663  0.4038
 6281SOL     OW30061   3.321   9.136   1.486 -0.3626 -0.4294  0.2606
 6281SOL    HW130062   3.317   9.069   1.560 -0.9018 -0.1964  0.4435
 6281SOL    HW230063   3.367   9.095   1.407  1.1450 -0.3360  1.0664
 6282SOL     OW30064   7.406   6.597   4.867 -0.6881 -0.7141  0.7983
 6282SOL    HW130065   7.468   6.533   4.821  0.0594 -0.9128  2.0739
 6282SOL    HW230066   7.386   6.564   4.959 -2.1142 -0.2757  0.6542
 6283SOL     OW30067   7.936   7.150   4.889 -0.1175  0.2314 -0.0057
 6283SOL    HW130068   7.897   7.165   4.980  2.5563  0.9287  1.0620
 6283SOL    HW230069   8.018   7.206   4.878  0.6550 -1.2610 -2.1628
 6284SOL     OW30070   3.124   0.039   0.451  0.5341 -0.3945  0.4022
 6284SOL    HW130071   3.187   0.074   0.382  1.6325  0.7191  1.9243
 6284SOL    HW230072   3.047   0.102   0.460  1.2031  0.3087  1.3090
 6285SOL     OW30073   8.157   8.281   3.839 -0.1201  0.1849 -0.2980
 6285SOL    HW130074   8.143   8.227   3.922  1.1846  2.8862  1.7790
 6285SOL    HW230075   8.079   8.269   3.778 -1.5491 -1.1540  1.7090
 6286SOL     OW30076   9.433   9.607   5.531 -0.1623 -0.2864  0.6277
 6286SOL    HW130077   9.334   9.624   5.529  0.0273  0.7436 -1.8691
 6286SOL    HW230078   9.480   9.694   5.546  0.3552 -0.8623  2.3716
 6287SOL     OW30079   0.473   8.006   5.345  0.2919 -0.0621 -0.0297
 6287SOL    HW130080   0.393   8.064   5.329 -0.0343 -0.1046  1.3303
 6287SOL    HW230081   0.445   7.909   5.344  0.4667 -0.1076 -0.3532
 6288SOL     OW30082   1.865   6.220   5.655 -0.0195 -0.9418 -0.5658
 6288SOL    HW130083   1.932   6.219   5.729 -1.5937 -1.3292  0.8830
 6288SOL    HW230084   1.831   6.127   5.638 -0.2695 -0.7400 -1.2053
 6289SOL     OW30085   3.733   4.954   1.254 -0.2490  0.0985  0.2070
 6289SOL    HW130086   3.775   4.998   1.174  0.7135  0.9961  1.1830
 6289SOL    HW230087   3.634   4.947   1.240 -0.0773  0.0894 -1.1282
 6290SOL     OW30088   8.359   8.738   5.686 -0.4787  0.2379  0.3366
 6290SOL    HW130089   8.268   8.740   5.728 -0.4993  1.4252  0.2540
 6290SOL    HW230090   8.426   8.777   5.749 -0.6548  2.8490 -1.0348
 6291SOL     OW30091   0.855   6.021   4.842 -0.4153 -0.3450 -0.4012
 6291SOL    HW130092   0.829   5.989   4.751 -0.8992  0.2577 -0.4753
 6291SOL    HW230093   0.811   5.964   4.912  0.5033 -1.2419 -0.5404
 6292SOL     OW30094   5.376   9.815   4.889 -0.0377  0.2078 -0.1452
 6292SOL    HW130095   5.398   9.836   4.793  1.0863  3.1902  0.6961
 6292SOL    HW230096   5.422   9.881   4.948 -1.3183 -1.1474  2.4198
 6293SOL     OW30097   9.785   4.885   4.479  0.1861 -0.0725 -0.6145
 6293SOL    HW130098   9.735   4.806   4.514 -1.0530  1.2720  0.7344
 6293SOL    HW230099   9.822   4.864   4.389 -1.5190 -1.6395 -0.9774
 6294SOL     OW30100   6.031   0.157   1.532 -0.0993 -0.3472  0.3685
 6294SOL    HW130101   6.107   0.097   1.557  1.2757  0.9262 -0.6190
 6294SOL    HW230102   6.067   0.249   1.513 -1.6812 -0.1324 -1.7258
 6295SOL     OW30103   9.504   0.407   4.058 -0.1859  0.4117 -0.6178
 6295SOL    HW130104   9.423   0.435   4.008 -0.9798 -1.1165 -0.1980
 6295SOL    HW230105   9.490   0.424   4.156 -0.1685 -0.2423 -0.4997
 6296SOL     OW30106   2.594   5.404   3.722 -0.3681  0.2211  0.5195
 6296SOL    HW130107   2.544   5.451   3.795 -0.6152  0.4346  0.2170
 6296SOL    HW230108   2.615   5.311   3.751 -0.8931  0.1472  0.6813
 6297SOL     OW30109   1.225   3.780   6.585  0.1083  0.0653 -0.3032
 6297SOL    HW130110   1.216   3.774   6.684 -0.0609 -2.1525 -0.4270
 6297SOL    HW230111   1.162   3.715   6.542 -0.4334  1.6027 -1.8964
 6298SOL     OW30112   6.370   0.340   4.592 -0.0821 -0.2165 -0.3654
 6298SOL    HW130113   6.320   0.426   4.587 -0.4976 -0.5166 -1.7228
 6298SOL    HW230114   6.453   0.346   4.537  1.3828  0.2683  1.8683
 6299SOL     OW30115   4.010   3.570   4.518 -0.4681  0.2715  0.0569
 6299SOL    HW130116   3.989   3.637   4.589 -1.9614 -0.3474  0.2180
 6299SOL    HW230117   4.107   3.544   4.525 -0.0324  1.9611  0.3524
 6300SOL     OW30118   3.113   6.998   4.602  0.1794  0.4935 -0.4656
 6300SOL    HW130119   3.059   6.964   4.525  0.2122  1.2069 -0.8101
 6300SOL    HW230120   3.205   6.958   4.600  0.0587  0.2257 -0.5812
 6301SOL     OW30121   2.262   0.782   1.270  0.3722  0.1929  0.7470
 6301SOL    HW130122   2.171   0.819   1.291 -0.2968  0.4540 -2.3773
 6301SOL    HW230123   2.269   0.689   1.307 -0.9266  0.4108  1.5749
 6302SOL     OW30124   1.596   6.829   2.405 -0.2206 -0.0540  0.0025
 6302SOL    HW130125   1.651   6.805   2.485  1.2070 -0.2018 -0.9888
 6302SOL    HW230126   1.504   6.793   2.415  0.6680 -2.2395  0.4631
 6303SOL     OW30127   2.329   4.252   1.114  0.0134  0.2351  0.3401
 6303SOL    HW130128   2.338   4.293   1.023  2.3127 -0.6365  0.1453
 6303SOL    HW230129   2.251   4.189   1.115  0.6730 -0.6415 -1.3711
 6304SOL     OW30130   8.006   7.033   4.419  0.4412  0.0308 -0.0949
 6304SOL    HW130131   8.105   7.050   4.420  0.3744  0.4074  0.1113
 6304SOL    HW230132   7.963   7.092   4.350 -0.1829  2.8953  2.6530
 6305SOL     OW30133   1.151   6.631   5.533  0.1734 -0.2808  0.5758
 6305SOL    HW130134   1.081   6.592   5.474  0.0173  1.0338 -0.1407
 6305SOL    HW230135   1.110   6.703   5.590  0.7405 -0.1555  0.8315
 6306SOL     OW30136   3.103   1.888   0.486  0.6570  0.0831 -0.2604
 6306SOL    HW130137   3.070   1.906   0.579  0.7256 -0.1077 -0.1997
 6306SOL    HW230138   3.058   1.807   0.449  2.6983 -1.5049  0.6626
 6307SOL     OW30139   8.846   1.869   0.620 -0.2472 -0.2800 -0.1902
 6307SOL    HW130140   8.780   1.923   0.568 -1.7715  1.0814  3.0379
 6307SOL    HW230141   8.797   1.809   0.683  1.5731 -1.1269  0.4583
 6308SOL     OW30142   2.380   8.667   0.221  0.1625 -0.4644  0.2912
 6308SOL    HW130143   2.341   8.682   0.130  0.1184 -0.1506  0.3620
 6308SOL    HW230144   2.474   8.635   0.212  0.1973 -0.3190  0.1365
 6309SOL     OW30145   8.793   2.564   1.438 -0.0715  0.3161  0.5541
 6309SOL    HW130146   8.821   2.550   1.533 -0.4150  0.4762  0.6786
 6309SOL    HW230147   8.697   2.538   1.427 -0.0550  0.3741  0.2677
 6310SOL     OW30148   2.964   4.763   1.802 -0.4322  0.1285  0.4867
 6310SOL    HW130149   2.995   4.687   1.745  0.6194  1.1588 -0.3511
 6310SOL    HW230150   3.040   4.826   1.818 -1.1617  0.7542  1.5904
 6311SOL     OW30151   9.802   3.279   2.251  0.2969  0.0775  0.2369
 6311SOL    HW130152   9.854   3.194   2.261  1.2319  0.6125 -0.1130
 6311SOL    HW230153   9.864   3.356   2.245 -0.4977  0.5832 -1.6074
 6312SOL     OW30154   8.501   0.288   6.174  0.0797 -0.3325 -0.3124
 6312SOL    HW130155   8.581   0.298   6.114  0.1500 -2.4945 -0.6239
 6312SOL    HW230156   8.529   0.243   6.259 -0.2770  1.5360  0.8265
 6313SOL     OW30157   3.630   1.339   5.503 -0.0831 -0.7301  0.1661
 6313SOL    HW130158   3.602   1.243   5.504  0.7610 -0.9799  0.3370
 6313SOL    HW230159   3.551   1.397   5.520 -0.5276 -1.4178  0.4564
 6314SOL     OW30160   3.817   9.066   3.005  0.0161 -0.4528  0.0640
 6314SOL    HW130161   3.912   9.059   2.973  0.7053  0.2792  1.8445
 6314SOL    HW230162   3.759   9.005   2.952  1.8321 -2.3422  0.1830
 6315SOL     OW30163   4.082   4.039   5.783  0.3222 -0.0209 -0.2812
 6315SOL    HW130164   4.060   4.100   5.859  0.5367  0.2913 -0.4715
 6315SOL    HW230165   4.005   4.039   5.718  0.0037 -0.5317  0.0907
 6316SOL     OW30166   0.188   5.586   5.081 -0.1887 -0.2019 -0.2768
 6316SOL    HW130167   0.278   5.560   5.049  0.4344  2.8815 -1.1468
 6316SOL    HW230168   0.178   5.560   5.178  2.0889  0.5893  0.1871
 6317SOL     OW30169   0.642   5.690   2.808 -0.2000  0.1616  0.3059
 6317SOL    HW130170   0.689   5.602   2.798 -2.7739 -1.0683 -1.5716
 6317SOL    HW230171   0.706   5.764   2.787  1.3425 -1.3904 -0.6391
 6318SOL     OW30172   1.970   3.057   1.131 -0.4386  0.0257  0.7909
 6318SOL    HW130173   1.988   3.140   1.183 -2.5028  0.5587  0.7173
 6318SOL    HW230174   1.974   3.076   1.034 -0.9460  0.0687  0.7735
 6319SOL     OW30175   1.170   0.585   5.513 -0.0710 -0.5549  0.3341
 6319SOL    HW130176   1.222   0.671   5.516 -1.7549  0.5604 -1.5532
 6319SOL    HW230177   1.221   0.518   5.459 -0.5826  0.5320 -1.5107
 6320SOL     OW30178   1.696   9.548   2.076 -0.3535 -0.2565  0.0022
 6320SOL    HW130179   1.657   9.471   2.126  1.6239 -0.7423  0.8550
 6320SOL    HW230180   1.648   9.632   2.101 -1.3269 -0.9425  0.4531
 6321SOL     OW30181   4.837   3.066   2.926  0.2596 -0.3184  0.6356
 6321SOL    HW130182   4.808   3.079   2.831  2.1474  1.7058  0.2904
 6321SOL    HW230183   4.775   3.117   2.987  0.1607 -0.0623  0.3247
 6322SOL     OW30184   0.932   3.973   3.885 -0.3714 -0.6291 -0.0331
 6322SOL    HW130185   0.935   4.044   3.816  0.1689  1.1724  1.7838
 6322SOL    HW230186   0.995   3.899   3.861  0.2724  0.2752 -1.1389
 6323SOL     OW30187   8.384   0.480   3.853 -0.7152 -0.2145  0.3080
 6323SOL    HW130188   8.348   0.573   3.860  2.4821  0.9575  2.3327
 6323SOL    HW230189   8.454   0.477   3.781 -3.0883 -1.9080 -2.0252
 6324SOL     OW30190   1.791   3.692   0.661 -0.2858 -0.1156  0.8148
 6324SOL    HW130191   1.834   3.656   0.578  1.1563  0.1868  1.4244
 6324SOL    HW230192   1.692   3.695   0.648 -0.0559  0.1377 -0.9710
 6325SOL     OW30193   9.175   0.043   1.761  0.2240 -0.2544 -0.6567
 6325SOL    HW130194   9.167   0.133   1.801 -2.1946 -0.2967 -1.0098
 6325SOL    HW230195   9.132  -0.025   1.820  1.2058 -1.0669 -0.8435
 6326SOL     OW30196   9.364   4.828   1.825 -0.0184  0.1429  0.2470
 6326SOL    HW130197   9.332   4.738   1.794  1.9866 -0.9311  1.1644
 6326SOL    HW230198   9.348   4.836   1.924 -0.2185  0.8119  0.1604
 6327SOL     OW30199   2.006   6.636   6.633 -0.0928 -0.4935  0.2078
 6327SOL    HW130200   1.975   6.651   6.540 -0.7617  0.3756  0.5624
 6327SOL    HW230201   1.934   6.592   6.686 -0.2827  0.4042  0.7098
 6328SOL     OW30202   2.170   5.817   2.587  0.4243  0.2909 -0.2025
 6328SOL    HW130203   2.151   5.914   2.597 -2.4575 -0.2650  0.1519
 6328SOL    HW230204   2.202   5.799   2.494  0.3637  1.4675 -0.4588
 6329SOL     OW30205   2.801   3.700   3.411  0.7176  0.0123  0.0984
 6329SOL    HW130206   2.851   3.758   3.347 -0.4625  0.8169 -0.1116
 6329SOL    HW230207   2.721   3.749   3.445  0.1123 -1.2239  0.4933
 6330SOL     OW30208   5.008   2.653   4.963 -0.0292 -0.0525 -0.1477
 6330SOL    HW130209   5.005   2.675   5.061  1.1728 -0.5149  0.0114
 6330SOL    HW230210   4.916   2.653   4.925 -0.6473 -1.2108  1.2921
 6331SOL     OW30211   3.682   7.084   1.788 -0.0566  0.1864  0.0159
 6331SOL    HW130212   3.722   7.158   1.843  1.3155 -2.1636  2.2998
 6331SOL    HW230213   3.755   7.027   1.751 -1.1613 -1.3806  0.2253
 6332SOL     OW30214   2.584   4.244   1.578  0.1856  0.4608 -0.1774
 6332SOL    HW130215   2.561   4.170   1.514 -0.8597 -0.1158  0.8462
 6332SOL    HW230216   2.519   4.243   1.655  1.1775  1.3989  0.6840
 6333SOL     OW30217   3.586   3.123   1.891  0.4078  0.1470  0.0392
 6333SOL    HW130218   3.684   3.118   1.912 -0.0678  0.0710  2.3609
 6333SOL    HW230219   3.551   3.213   1.917 -0.5856 -0.5900  1.3255
 6334SOL     OW30220   5.801   0.818   5.975  0.1081 -0.3548  0.3417
 6334SOL    HW130221   5.840   0.807   5.883 -1.6511  0.0757 -0.4951
 6334SOL    HW230222   5.780   0.915   5.990 -1.5513 -0.6927  0.3430
 6335SOL     OW30223   8.241   0.025   4.228  0.1656  0.2534  0.1272
 6335SOL    HW130224   8.165   0.018   4.162  0.2624  1.6217 -0.1589
 6335SOL    HW230225   8.326   0.001   4.183  0.0947  0.1917  0.0266
 6336SOL     OW30226   4.701   7.460   2.255 -0.4689  0.2342  0.2352
 6336SOL    HW130227   4.715   7.555   2.227  1.4007  0.0666  0.5421
 6336SOL    HW230228   4.708   7.453   2.355 -0.4019 -0.2507  0.1981
 6337SOL     OW30229   0.367   2.955   5.294 -0.1942  0.0357  0.5728
 6337SOL    HW130230   0.390   3.020   5.221  1.4834  0.1227  1.1644
 6337SOL    HW230231   0.278   2.980   5.333 -0.7085  0.4980 -0.8644
 6338SOL     OW30232   9.637   6.448   5.167 -0.1364 -0.3695 -0.0073
 6338SOL    HW130233   9.726   6.404   5.178 -0.1804 -1.3984 -3.1920
 6338SOL    HW230234   9.644   6.545   5.190  1.8337 -0.4290 -0.3081
 6339SOL     OW30235   8.206   3.917   4.070 -0.0529  0.2173 -0.4397
 6339SOL    HW130236   8.132   3.977   4.037 -1.6761 -1.5295 -0.0523
 6339SOL    HW230237   8.286   3.929   4.011 -0.4878  2.4271 -0.6408
 6340SOL     OW30238   3.713   7.335   1.915  0.3125  0.3197 -0.0805
 6340SOL    HW130239   3.703   7.427   1.878  0.1134 -0.0198 -0.8965
 6340SOL    HW230240   3.635   7.314   1.973  1.6961  1.6572  2.3195
 6341SOL     OW30241   4.964   1.358   4.562  0.1539 -0.0642  0.1356
 6341SOL    HW130242   4.886   1.407   4.603  0.6942  0.2124  0.8508
 6341SOL    HW230243   5.049   1.400   4.593  0.6351 -1.7071  1.0897
 6342SOL     OW30244   0.543   9.039   1.361  0.4127 -0.3951 -0.3672
 6342SOL    HW130245   0.484   8.965   1.392  0.2028  0.3126  0.9628
 6342SOL    HW230246   0.582   9.016   1.272 -0.6847 -1.5186 -0.5665
 6343SOL     OW30247   5.724   9.493   1.927 -0.2053  0.2441  0.0428
 6343SOL    HW130248   5.755   9.485   1.832 -0.6981  1.8257 -0.2613
 6343SOL    HW230249   5.790   9.448   1.987  0.7746  0.3477 -0.9338
 6344SOL     OW30250   9.317   6.555   5.472  0.7036  0.1372 -0.1916
 6344SOL    HW130251   9.220   6.557   5.446  0.4924 -0.4076  0.5425
 6344SOL    HW230252   9.354   6.464   5.454  0.5094 -0.3039  1.5379
 6345SOL     OW30253   7.811   7.932   4.665  0.2901 -0.2240  0.3282
 6345SOL    HW130254   7.755   7.997   4.613  0.2272 -0.7417 -0.2609
 6345SOL    HW230255   7.857   7.870   4.601  2.4922  0.9439  0.7078
 6346SOL     OW30256   0.623   3.110   5.242  0.2667 -0.1768  0.0613
 6346SOL    HW130257   0.718   3.078   5.251 -0.1153 -0.8715  1.9482
 6346SOL    HW230258   0.623   3.201   5.201  1.9355  0.7678  2.0069
 6347SOL     OW30259   2.228   2.118   1.530  0.2224 -0.8917 -0.0930
 6347SOL    HW130260   2.325   2.140   1.536  0.7026 -2.6548 -1.1520
 6347SOL    HW230261   2.210   2.068   1.446 -2.0452  1.4982 -1.1030
 6348SOL     OW30262   4.830   8.612   0.205 -0.6393  0.1399 -0.2584
 6348SOL    HW130263   4.913   8.557   0.199 -0.7498  0.1350 -1.9307
 6348SOL    HW230264   4.751   8.552   0.220 -0.0283  0.3704  4.5142
 6349SOL     OW30265   0.516   4.806   3.801  0.0330 -0.4068 -0.4573
 6349SOL    HW130266   0.509   4.898   3.840 -0.9499 -0.2991 -0.8828
 6349SOL    HW230267   0.523   4.739   3.875 -0.9110 -0.1264 -0.1125
 6350SOL     OW30268   0.193   3.126   4.658 -0.0960  0.4689  0.0459
 6350SOL    HW130269   0.243   3.050   4.616  1.3070  1.5365 -0.2540
 6350SOL    HW230270   0.184   3.110   4.757  1.9045  0.8203  0.3056
 6351SOL     OW30271   0.556   2.766   1.461  0.0912 -0.2234 -0.5730
 6351SOL    HW130272   0.520   2.757   1.368 -1.2261 -1.4376  0.0401
 6351SOL    HW230273   0.572   2.863   1.481 -0.8044  0.1584 -1.6354
 6352SOL     OW30274   9.040   6.854   2.248 -0.2037 -0.4287 -0.1280
 6352SOL    HW130275   9.094   6.863   2.165 -1.1705 -3.9671 -1.2749
 6352SOL    HW230276   8.974   6.779   2.236 -2.5988  1.1106  2.6600
 6353SOL     OW30277   7.535   3.501   4.028  0.3838  0.3933  0.7993
 6353SOL    HW130278   7.528   3.478   4.125  0.4566 -0.1470  0.6784
 6353SOL    HW230279   7.580   3.589   4.018  0.1711  0.5581  1.2669
 6354SOL     OW30280   2.732   4.875   2.909  0.1521  0.1486  0.1574
 6354SOL    HW130281   2.679   4.843   2.988 -0.0399  1.4650  0.5849
 6354SOL    HW230282   2.785   4.800   2.871 -0.4203 -0.7005  1.0191
 6355SOL     OW30283   6.827   7.602   5.197 -0.1016 -0.0108  0.2361
 6355SOL    HW130284   6.813   7.651   5.111  1.2007 -1.6194 -0.9198
 6355SOL    HW230285   6.921   7.568   5.201 -1.0161 -2.5737  0.8918
 6356SOL     OW30286   0.577   1.102   2.169 -1.3125  0.1209 -0.0449
 6356SOL    HW130287   0.491   1.062   2.201 -1.1125  1.2087  1.9647
 6356SOL    HW230288   0.643   1.029   2.151 -1.8357 -0.6055  0.9039
 6357SOL     OW30289   4.703   0.867   1.674 -0.0818  0.2228 -0.3375
 6357SOL    HW130290   4.695   0.886   1.576 -0.0068 -1.3844 -0.6743
 6357SOL    HW230291   4.758   0.785   1.688  1.3576  1.3955  1.1577
 6358SOL     OW30292   1.502   0.254   0.905 -0.2143  0.4840  0.0696
 6358SOL    HW130293   1.403   0.252   0.915 -0.3281 -1.2328 -1.1746
 6358SOL    HW230294   1.526   0.314   0.828 -0.5123 -1.6277 -1.7215
 6359SOL     OW30295   6.423   9.400   5.452 -0.1834 -0.0883  0.7105
 6359SOL    HW130296   6.359   9.441   5.387  0.1155  0.9961  1.0984
 6359SOL    HW230297   6.392   9.420   5.545 -0.1126 -0.8655  0.9041
 6360SOL     OW30298   7.777   2.350   5.100 -0.1611  0.3660 -0.3460
 6360SOL    HW130299   7.776   2.446   5.129 -0.3391  1.1659 -2.8657
 6360SOL    HW230300   7.685   2.312   5.108  0.0882  0.1045  1.5306
 6361SOL     OW30301   4.088   2.251   0.598  0.1944  0.2738  0.2911
 6361SOL    HW130302   4.122   2.174   0.652  1.3883  1.1671  0.8402
 6361SOL    HW230303   4.007   2.290   0.642  1.5658  1.4370  1.8390
 6362SOL     OW30304   9.867   6.631   1.652  0.4272  0.5625  0.2933
 6362SOL    HW130305   9.899   6.680   1.733 -2.0995  0.7515  1.2338
 6362SOL    HW230306   9.886   6.534   1.662  0.4947  0.6399  0.9347
 6363SOL     OW30307   1.712   6.796   2.638 -0.3414  0.7545 -0.3945
 6363SOL    HW130308   1.623   6.774   2.677 -0.0031  0.3761  0.1790
 6363SOL    HW230309   1.746   6.881   2.678  1.3550 -1.1768  2.4403
 6364SOL     OW30310   4.650   8.193   3.158 -0.9507 -0.0475  0.2998
 6364SOL    HW130311   4.555   8.191   3.126 -1.3530 -0.6382  1.4891
 6364SOL    HW230312   4.652   8.179   3.257  0.4581 -1.2137  0.1277
 6365SOL     OW30313   5.100   0.423   3.684  0.9051 -0.5123  0.1779
 6365SOL    HW130314   5.038   0.353   3.648  1.6536 -0.6232 -0.8845
 6365SOL    HW230315   5.048   0.506   3.703  0.6394 -0.1800 -1.9211
 6366SOL     OW30316   7.195   6.938   5.108 -0.0658 -0.1653 -0.4100
 6366SOL    HW130317   7.288   6.936   5.145 -0.0232 -0.4822 -0.5326
 6366SOL    HW230318   7.139   6.871   5.156 -0.7332  1.3523  0.9828
 6367SOL     OW30319   8.418   6.717   2.051  0.8239  0.3720 -0.1104
 6367SOL    HW130320   8.477   6.760   2.119  1.2999 -1.2153  0.5039
 6367SOL    HW230321   8.435   6.618   2.049  0.6448  0.3492 -2.3605
 6368SOL     OW30322   0.348   3.218   5.083 -0.4462  0.5590  0.1005
 6368SOL    HW130323   0.265   3.246   5.132 -0.0869  1.0791  0.4151
 6368SOL    HW230324   0.422   3.282   5.102 -0.5175  1.2294 -1.7637
 6369SOL     OW30325   5.049   0.100   1.223  0.2973  0.1168  0.1997
 6369SOL    HW130326   5.012   0.099   1.130 -0.4117  1.8087  0.4445
 6369SOL    HW230327   5.147   0.119   1.220  1.0011 -3.3959 -0.3953
 6370SOL     OW30328   8.114   0.129   3.229 -0.2482 -0.0693 -0.4481
 6370SOL    HW130329   8.182   0.111   3.158  0.5472  0.6790  0.1097
 6370SOL    HW230330   8.098   0.045   3.281 -0.2075 -0.4059 -0.9736
 6371SOL     OW30331   2.755   4.146   5.224  0.2220  0.0204  0.4014
 6371SOL    HW130332   2.660   4.173   5.210  0.9096  1.3535 -2.0620
 6371SOL    HW230333   2.797   4.205   5.292  0.5550  2.5808 -1.9406
 6372SOL     OW30334   5.829   8.538   3.484 -0.4570 -0.5213  0.1257
 6372SOL    HW130335   5.928   8.534   3.473 -0.6079  0.2854 -1.6615
 6372SOL    HW230336   5.802   8.631   3.509 -0.7940 -0.6945  0.4264
 6373SOL     OW30337   2.416   7.386   2.304  0.5138 -0.0663 -0.0245
 6373SOL    HW130338   2.452   7.310   2.251 -0.6894 -1.4582  1.1096
 6373SOL    HW230339   2.356   7.442   2.247  2.4956  0.8576 -1.2424
 6374SOL     OW30340   4.685   8.428   4.662 -0.0103  0.1285 -0.3359
 6374SOL    HW130341   4.676   8.328   4.662 -0.1514  0.1283  1.5050
 6374SOL    HW230342   4.781   8.452   4.647  0.3201 -0.3349  0.9340
 6375SOL     OW30343   1.075   6.108   4.689  0.3590 -0.5605 -0.7850
 6375SOL    HW130344   1.143   6.049   4.645  0.8867 -0.3355 -0.2811
 6375SOL    HW230345   1.034   6.058   4.766  0.8492 -0.2609 -0.3204
 6376SOL     OW30346   3.284   3.511   1.374 -0.4288  0.1576 -0.2402
 6376SOL    HW130347   3.234   3.505   1.461 -1.7782 -0.4457 -1.0339
 6376SOL    HW230348   3.273   3.426   1.324 -0.2735  0.7749 -1.3315
 6377SOL     OW30349   6.482   7.578   4.044 -0.2661  0.2151  0.8621
 6377SOL    HW130350   6.384   7.580   4.066 -0.2073  0.3145  1.1131
 6377SOL    HW230351   6.526   7.503   4.093 -0.4057 -0.4762 -0.0480
 6378SOL     OW30352   9.005   4.315   2.425 -0.2670  0.3130  0.1580
 6378SOL    HW130353   9.042   4.279   2.340  0.2250 -0.8535  0.8675
 6378SOL    HW230354   9.039   4.408   2.439 -0.3536  0.5134 -0.9147
 6379SOL     OW30355   7.068   0.473   4.183 -0.2144  0.6630 -0.6655
 6379SOL    HW130356   7.123   0.551   4.153 -0.3731  1.4482  1.0258
 6379SOL    HW230357   7.126   0.409   4.234  0.0412 -0.6256 -2.5346
 6380SOL     OW30358   7.712   1.771   3.979  0.5579  0.2382 -0.5113
 6380SOL    HW130359   7.712   1.674   3.956  1.1859 -0.1307  0.9791
 6380SOL    HW230360   7.717   1.825   3.895  0.2364 -1.0168 -1.3495
 6381SOL     OW30361   3.480   9.243   3.509  0.2383 -0.3231  0.0531
 6381SOL    HW130362   3.477   9.258   3.608  1.0562 -0.5685  0.1147
 6381SOL    HW230363   3.507   9.328   3.464  1.5432 -0.6817  0.1610
 6382SOL     OW30364   3.208   1.045   1.025 -0.2547  0.2738  0.3429
 6382SOL    HW130365   3.200   1.137   1.062 -0.0845 -0.1783  1.5362
 6382SOL    HW230366   3.242   0.983   1.096 -2.5699 -1.1582  0.2397
 6383SOL     OW30367   9.345   8.722   4.324 -0.5591  0.0302 -0.3430
 6383SOL    HW130368   9.248   8.718   4.349 -0.4831  3.2088  0.5689
 6383SOL    HW230369   9.399   8.677   4.395 -1.3065 -1.6199 -0.7793
 6384SOL     OW30370   2.961   7.888   0.294  0.1247 -0.2440 -0.4576
 6384SOL    HW130371   3.049   7.920   0.327  0.5820 -0.4969 -1.3955
 6384SOL    HW230372   2.893   7.961   0.304  0.8857  0.6268 -1.4965
 6385SOL     OW30373   0.882   4.039   2.196 -0.0058 -0.4483 -0.0580
 6385SOL    HW130374   0.825   4.039   2.279  2.0543  2.8253  1.4583
 6385SOL    HW230375   0.842   4.099   2.128  1.5644  1.8947  1.0280
 6386SOL     OW30376   8.869   2.039   1.299  0.9090 -0.2146 -0.1395
 6386SOL    HW130377   8.965   2.018   1.279  0.8911  0.7411 -1.2219
 6386SOL    HW230378   8.820   1.954   1.317  1.7344 -0.7893 -0.5798
 6387SOL     OW30379   5.131   9.658   2.725  0.0623 -0.7307 -0.0509
 6387SOL    HW130380   5.181   9.744   2.731  1.1716 -1.2753 -1.1385
 6387SOL    HW230381   5.170   9.592   2.789 -1.2464 -0.2190  1.2983
 6388SOL     OW30382   0.617   3.050   3.782 -0.1603  0.6455 -0.1359
 6388SOL    HW130383   0.640   3.127   3.722  0.0956 -0.4312 -1.4410
 6388SOL    HW230384   0.692   2.984   3.781 -1.3649 -0.7505 -0.8894
 6389SOL     OW30385   8.210   3.221   3.113  0.4487  0.2118  0.2803
 6389SOL    HW130386   8.301   3.261   3.100  0.6897 -0.5838 -0.5475
 6389SOL    HW230387   8.166   3.210   3.024  0.3615 -1.2973  0.4965
 6390SOL     OW30388   1.062   1.434   3.583  0.3438  0.1508 -0.2521
 6390SOL    HW130389   1.135   1.466   3.643  0.1871 -0.3949  0.2404
 6390SOL    HW230390   1.101   1.405   3.495  0.7285 -0.2200  0.0400
 6391SOL     OW30391   8.550   8.659   3.177  0.3252  0.0059  0.3217
 6391SOL    HW130392   8.540   8.601   3.258 -0.8642  0.3163  0.4091
 6391SOL    HW230393   8.564   8.754   3.205  0.3238  0.0540  0.1632
 6392SOL     OW30394   9.695   2.254   3.542  0.0816  0.2644  0.3587
 6392SOL    HW130395   9.646   2.275   3.627 -0.6872  0.5773 -0.1497
 6392SOL    HW230396   9.780   2.307   3.538 -0.1963  0.7362  0.6464
 6393SOL     OW30397   8.069   1.352   5.642  0.1032 -0.0589 -0.7265
 6393SOL    HW130398   7.974   1.362   5.672  0.7703  0.0595  1.4077
 6393SOL    HW230399   8.099   1.258   5.654  0.6246  0.1591 -0.3003
 6394SOL     OW30400   0.721   3.052   0.689 -0.0705 -0.9015  0.6857
 6394SOL    HW130401   0.781   3.103   0.750 -0.6703 -0.5314  0.9670
 6394SOL    HW230402   0.626   3.079   0.705 -0.2039 -0.5516 -0.6405
 6395SOL     OW30403   3.794   9.865   0.181  0.0587  0.2722 -0.5459
 6395SOL    HW130404   3.712   9.878   0.126 -0.2446  0.9202  0.0625
 6395SOL    HW230405   3.800   9.769   0.209  0.4934 -0.1752 -2.1396
 6396SOL     OW30406   0.749   7.238   4.262  0.2900 -0.1350  0.0817
 6396SOL    HW130407   0.846   7.224   4.242  0.2864 -0.3715  0.2311
 6396SOL    HW230408   0.719   7.324   4.221  0.5689 -0.0487  0.0555
 6397SOL     OW30409   2.100   5.477   3.553 -0.0965 -0.0006  0.6166
 6397SOL    HW130410   2.149   5.432   3.628 -0.4829  2.3167  2.3287
 6397SOL    HW230411   2.096   5.575   3.571 -0.0716  0.6227 -2.5511
 6398SOL     OW30412   0.451   7.029   0.285 -0.4804  0.2682 -0.0983
 6398SOL    HW130413   0.453   6.951   0.347 -0.0777  0.2699 -0.1128
 6398SOL    HW230414   0.534   7.083   0.295  0.1247 -0.3895 -1.4843
 6399SOL     OW30415   5.225   9.139   6.016  0.3787 -0.1614  0.6421
 6399SOL    HW130416   5.295   9.088   5.965  0.7798  1.1500 -0.1373
 6399SOL    HW230417   5.268   9.198   6.083  0.0389  0.7770  0.0456
 6400SOL     OW30418   3.891   5.566   4.570 -0.4336  0.1640  0.0927
 6400SOL    HW130419   3.923   5.642   4.626  1.1103 -0.5244  0.1677
 6400SOL    HW230420   3.827   5.600   4.501 -1.2591  1.2280  1.3508
 6401SOL     OW30421   8.977   5.241   1.527  0.0241 -0.1490 -0.2373
 6401SOL    HW130422   8.918   5.306   1.479 -0.1217 -0.1658 -0.0841
 6401SOL    HW230423   8.938   5.149   1.519 -0.9258  0.0855  1.3432
 6402SOL     OW30424   2.011   0.421   2.445 -0.3996  0.0991 -0.1305
 6402SOL    HW130425   2.108   0.417   2.423 -0.1722 -0.2723  0.8993
 6402SOL    HW230426   1.990   0.510   2.487 -0.6389  0.4420 -0.9824
 6403SOL     OW30427   7.903   4.398   6.479  0.4412  0.1213  0.0364
 6403SOL    HW130428   7.887   4.414   6.382 -1.7182 -1.3669  0.1016
 6403SOL    HW230429   7.871   4.478   6.531 -0.2662  0.0888 -0.3422
 6404SOL     OW30430   8.350   7.911   0.074  0.5857 -0.0396  0.1764
 6404SOL    HW130431   8.437   7.865   0.059  0.4385 -0.4984  0.7089
 6404SOL    HW230432   8.366   8.006   0.099  0.9657 -0.3441  1.1133
 6405SOL     OW30433   8.796   0.247   0.754 -0.1387  1.0860 -0.0984
 6405SOL    HW130434   8.774   0.150   0.739  2.0858  0.8277 -1.9137
 6405SOL    HW230435   8.718   0.292   0.797 -2.4098 -0.8058 -2.0860
 6406SOL     OW30436   4.555   9.015   4.812  0.9519  0.3127  0.6024
 6406SOL    HW130437   4.630   9.062   4.764  0.1414  1.3437  0.3159
 6406SOL    HW230438   4.559   8.917   4.792  2.1398  0.3768  0.4747
 6407SOL     OW30439   8.625   0.719   4.083  0.0190  0.4189  0.7765
 6407SOL    HW130440   8.725   0.720   4.081  0.0782 -2.1227 -0.4237
 6407SOL    HW230441   8.590   0.744   3.993 -0.3008 -2.4960  0.0545
 6408SOL     OW30442   0.789   6.003   0.476 -0.5533 -0.0235 -0.5414
 6408SOL    HW130443   0.888   5.989   0.484 -0.3480  1.6694  0.0067
 6408SOL    HW230444   0.744   5.914   0.465  0.9396 -0.8821  0.1105
 6409SOL     OW30445   5.014   8.126   5.544  0.6558 -0.0367 -0.1969
 6409SOL    HW130446   5.003   8.192   5.469  0.4636 -0.8153 -0.8712
 6409SOL    HW230447   5.093   8.067   5.525 -0.5196 -1.4661 -0.7411
 6410SOL     OW30448   6.365   2.049   3.962  0.1727  0.2919  0.3396
 6410SOL    HW130449   6.356   1.952   3.986  0.6448  0.1370 -0.1058
 6410SOL    HW230450   6.274   2.087   3.947  0.1210 -0.9535 -2.8440
 6411SOL     OW30451   3.772   7.452   5.124 -0.3870  0.1142 -0.1566
 6411SOL    HW130452   3.860   7.493   5.100  0.3599  0.1013  2.4000
 6411SOL    HW230453   3.765   7.362   5.082  0.8079  0.1334 -0.4076
 6412SOL     OW30454   2.815   8.751   0.993  0.2238 -0.1678 -1.0479
 6412SOL    HW130455   2.899   8.743   0.939  0.6140  0.0708 -0.4772
 6412SOL    HW230456   2.751   8.680   0.964  0.5088 -0.1726 -1.6838
 6413SOL     OW30457   4.780   8.427   1.468  0.2271  0.0858  0.2422
 6413SOL    HW130458   4.872   8.454   1.494 -0.5801  2.4782  0.7737
 6413SOL    HW230459   4.729   8.399   1.549  0.9804 -3.0035 -0.2702
 6414SOL     OW30460   3.929   2.644   1.557  0.3590 -0.2778  0.1689
 6414SOL    HW130461   3.873   2.677   1.481 -0.5138 -2.2563 -0.0660
 6414SOL    HW230462   4.014   2.604   1.521  0.8691  0.5941  0.3805
 6415SOL     OW30463   2.419   4.407   4.973 -0.3871 -0.0979  0.3794
 6415SOL    HW130464   2.343   4.378   4.914 -2.1104  0.8118  2.1111
 6415SOL    HW230465   2.488   4.452   4.917 -1.5747 -0.0215 -1.0841
 6416SOL     OW30466   8.702   8.637   2.067  0.1205  0.0968  0.8616
 6416SOL    HW130467   8.760   8.611   1.990  0.8521 -0.2050  1.5074
 6416SOL    HW230468   8.608   8.646   2.036  0.5925  1.1782 -0.3384
 6417SOL     OW30469   0.394   9.712   4.898  0.0736  0.3664  0.0891
 6417SOL    HW130470   0.301   9.679   4.912  1.3282 -3.2210  0.5569
 6417SOL    HW230471   0.440   9.720   4.987  1.2061 -1.1510 -0.3311
 6418SOL     OW30472   8.479   4.661   0.117 -0.2911 -0.1201  0.3495
 6418SOL    HW130473   8.482   4.599   0.040  0.6085 -0.2804  0.5093
 6418SOL    HW230474   8.555   4.642   0.179  0.0023  1.1263  0.3990
 6419SOL     OW30475   9.579   0.036   3.970  0.2633 -0.1774 -0.2088
 6419SOL    HW130476   9.623  -0.025   4.036  2.0710 -0.8848 -2.0247
 6419SOL    HW230477   9.616   0.128   3.980  1.0860 -0.4485 -0.7396
 6420SOL     OW30478   9.184   2.757   1.810  0.6601  0.5003 -0.2906
 6420SOL    HW130479   9.204   2.676   1.865  1.1227  0.6903 -0.1851
 6420SOL    HW230480   9.087   2.782   1.822  0.2881 -0.5549 -0.9984
 6421SOL     OW30481   2.196   9.299   3.337 -0.4953  0.3361 -0.1802
 6421SOL    HW130482   2.292   9.294   3.309 -0.5146  0.1613 -0.2137
 6421SOL    HW230483   2.176   9.224   3.400 -0.2974  1.0810  0.7766
 6422SOL     OW30484   1.289   7.249   6.042 -0.2708 -0.2907 -0.4498
 6422SOL    HW130485   1.305   7.256   5.944 -0.0212  0.9691 -0.3284
 6422SOL    HW230486   1.374   7.228   6.089 -0.0751  0.7016 -0.3539
 6423SOL     OW30487   8.145   2.490   1.119 -0.3297  0.2082 -0.0986
 6423SOL    HW130488   8.155   2.443   1.207 -0.2322  0.8249  0.2254
 6423SOL    HW230489   8.224   2.468   1.061  0.9883  1.9206  0.9810
 6424SOL     OW30490   7.806   3.576   2.154  0.1567  0.2386 -0.3519
 6424SOL    HW130491   7.754   3.631   2.089 -0.8905 -0.2351  0.0753
 6424SOL    HW230492   7.762   3.486   2.164 -0.2556  0.6614  1.7673
 6425SOL     OW30493   2.379   1.748   1.440  0.5520 -0.8338  0.0957
 6425SOL    HW130494   2.449   1.791   1.383  0.3876  0.0982  0.5841
 6425SOL    HW230495   2.387   1.649   1.433  0.0655 -0.7367 -2.1133
 6426SOL     OW30496   0.218   4.419   1.405 -0.4039  0.0165  0.2667
 6426SOL    HW130497   0.318   4.420   1.400 -0.4801 -0.5871 -2.1302
 6426SOL    HW230498   0.182   4.371   1.325 -2.6451  1.0488  0.6349
 6427SOL     OW30499   2.075   2.584   3.875  0.3041 -0.6472 -0.1106
 6427SOL    HW130500   2.007   2.579   3.948  0.9940 -0.5714  0.5413
 6427SOL    HW230501   2.128   2.499   3.872  0.1119 -0.7453 -0.6812
 6428SOL     OW30502   1.795   4.503   4.426 -0.0231  0.0112 -1.3619
 6428SOL    HW130503   1.720   4.446   4.459 -0.5429  0.4988 -1.6927
 6428SOL    HW230504   1.786   4.595   4.464  1.8907 -0.6016  0.7452
 6429SOL     OW30505   1.304   4.133   0.259 -0.3436  0.3027 -0.0213
 6429SOL    HW130506   1.208   4.129   0.286 -0.1431 -0.2277  0.6191
 6429SOL    HW230507   1.311   4.162   0.164 -1.1236  0.7003  0.0425
 6430SOL     OW30508   1.394   4.229   4.907  0.1822  0.4197  0.5602
 6430SOL    HW130509   1.434   4.309   4.952  0.3512  0.9079 -0.4560
 6430SOL    HW230510   1.295   4.230   4.921  0.2340  0.5664  0.9299
 6431SOL     OW30511   8.527   2.533   0.260 -0.1672 -0.0624  0.0638
 6431SOL    HW130512   8.614   2.528   0.309  1.0922  1.5722 -1.9074
 6431SOL    HW230513   8.470   2.455   0.284  1.6347 -0.8866  1.7767
 6432SOL     OW30514   3.629   8.275   1.587  0.6820  0.2326 -0.5444
 6432SOL    HW130515   3.677   8.292   1.500 -0.5979 -1.3190 -1.5836
 6432SOL    HW230516   3.531   8.292   1.575  0.2845 -1.5059  0.1466
 6433SOL     OW30517   3.275   1.085   3.515  0.6196  0.1850 -0.1554
 6433SOL    HW130518   3.278   1.184   3.528 -1.3536  0.1233  1.0649
 6433SOL    HW230519   3.199   1.047   3.569  1.1932 -1.9544 -0.8105
 6434SOL     OW30520   8.659   6.587   1.370  0.3613  0.4348  0.4148
 6434SOL    HW130521   8.612   6.546   1.292  1.3310 -1.7768  0.9328
 6434SOL    HW230522   8.662   6.686   1.360 -1.8523  0.3820 -1.0262
 6435SOL     OW30523   9.374   1.084   6.195  0.3856  0.6606 -0.6544
 6435SOL    HW130524   9.288   1.095   6.243  0.2690 -0.0878 -0.6856
 6435SOL    HW230525   9.375   1.141   6.114 -1.1352 -1.2883 -2.0781
 6436SOL     OW30526   4.820   9.475   1.639  0.0842  0.1557 -0.4990
 6436SOL    HW130527   4.852   9.407   1.704  1.2882  1.9769  0.8688
 6436SOL    HW230528   4.860   9.564   1.661  0.7676  0.7827 -3.9145
 6437SOL     OW30529   4.810   7.669   3.652 -0.3244 -0.5592 -0.2670
 6437SOL    HW130530   4.802   7.749   3.711 -2.4255 -0.8849 -0.0587
 6437SOL    HW230531   4.841   7.591   3.706  0.1857 -0.2724 -0.1378
 6438SOL     OW30532   0.192   8.680   0.069 -0.6795  0.5149  0.6433
 6438SOL    HW130533   0.257   8.604   0.067 -0.8588  0.3753 -0.7703
 6438SOL    HW230534   0.233   8.759   0.023 -1.3475  0.5641  0.1402
 6439SOL     OW30535   3.058   9.722   6.209  0.3608  0.6267 -0.0458
 6439SOL    HW130536   3.056   9.713   6.109 -0.8186 -0.2067  0.0346
 6439SOL    HW230537   3.057   9.631   6.251  2.9904  0.9126  0.7335
 6440SOL     OW30538   1.452   7.230   3.280 -0.0963 -0.1651  0.2207
 6440SOL    HW130539   1.475   7.169   3.203  0.4322 -1.1611  1.1588
 6440SOL    HW230540   1.378   7.190   3.333 -0.1936  0.3320  0.4565
 6441SOL     OW30541   0.041   0.802   5.660  0.5635  0.2269 -0.1429
 6441SOL    HW130542   0.001   0.792   5.751 -0.5138 -1.4108 -0.7706
 6441SOL    HW230543   0.137   0.828   5.668  0.1931  1.1803  1.4356
 6442SOL     OW30544   1.327   4.156   2.759 -0.3761  0.3767 -0.0115
 6442SOL    HW130545   1.424   4.136   2.770 -0.7012 -0.4918  1.3918
 6442SOL    HW230546   1.278   4.072   2.732 -0.9590  0.4502  0.7959
 6443SOL     OW30547   8.130   2.664   2.422 -0.0922 -0.3142  0.2553
 6443SOL    HW130548   8.134   2.757   2.457 -3.2323 -0.1663  0.3623
 6443SOL    HW230549   8.041   2.624   2.442  0.7293 -2.9065 -0.9285
 6444SOL     OW30550   1.708   6.398   1.046  0.0244  0.1870  0.7642
 6444SOL    HW130551   1.704   6.309   1.091  0.0318  1.0352  2.4567
 6444SOL    HW230552   1.624   6.449   1.065  0.2264  0.7385  0.1973
 6445SOL     OW30553   6.588   9.848   4.114 -0.0897 -0.2953 -0.4949
 6445SOL    HW130554   6.656   9.870   4.044  0.4832  0.6536  0.3352
 6445SOL    HW230555   6.590   9.750   4.133  1.1778 -0.2586 -0.3536
 6446SOL     OW30556   7.577   0.435   3.389  0.1264  0.1768  0.0384
 6446SOL    HW130557   7.655   0.431   3.452  0.0125  0.3617  0.1908
 6446SOL    HW230558   7.495   0.463   3.440  0.5786  3.0032 -0.7199
 6447SOL     OW30559   2.607   0.215   2.995 -0.0975 -0.3094  0.3427
 6447SOL    HW130560   2.573   0.303   3.028  2.7904  0.0226  2.7074
 6447SOL    HW230561   2.544   0.142   3.023 -1.1560  0.7281  0.6962
 6448SOL     OW30562   8.257   6.862   3.821 -0.2560  0.1845  0.1019
 6448SOL    HW130563   8.213   6.774   3.800  0.3516  0.3011 -1.7251
 6448SOL    HW230564   8.330   6.879   3.755  0.0791  1.7560  0.8637
 6449SOL     OW30565   4.195   4.870   1.604 -0.3420  0.1244  0.5217
 6449SOL    HW130566   4.146   4.805   1.546 -1.2739  0.5216  0.8692
 6449SOL    HW230567   4.264   4.918   1.549 -0.0811 -0.6888  0.1196
 6450SOL     OW30568   4.203   3.192   6.527 -0.2478 -0.1928 -0.2707
 6450SOL    HW130569   4.147   3.161   6.604  1.0813  0.8396  1.1381
 6450SOL    HW230570   4.171   3.148   6.443 -0.5237 -2.7778  1.1440
 6451SOL     OW30571   7.319   1.742   4.743 -0.0914 -0.4338 -0.2685
 6451SOL    HW130572   7.308   1.833   4.702 -1.8546 -1.3982 -1.9800
 6451SOL    HW230573   7.357   1.679   4.676  1.4827 -0.9096  1.0293
 6452SOL     OW30574   9.346   0.705   0.748  0.4654 -0.1159 -1.1086
 6452SOL    HW130575   9.412   0.779   0.734 -1.3329  1.3135 -2.1248
 6452SOL    HW230576   9.296   0.687   0.664  0.5332 -2.1970 -0.7535
 6453SOL     OW30577   7.484   1.263   4.076  0.4926  0.6524 -0.2691
 6453SOL    HW130578   7.557   1.239   4.141  0.3345 -0.9331 -0.6516
 6453SOL    HW230579   7.408   1.306   4.125  1.1411  1.1398  0.3192
 6454SOL     OW30580   9.449   0.673   4.822 -0.0306 -0.4515 -0.1875
 6454SOL    HW130581   9.543   0.680   4.854 -0.0965 -1.2693  0.2069
 6454SOL    HW230582   9.447   0.627   4.733 -0.1401 -1.4329  0.3122
 6455SOL     OW30583   3.349   9.989   3.732 -0.4017 -0.0666  0.4483
 6455SOL    HW130584   3.277   9.969   3.666 -0.6814  2.2240  0.0028
 6455SOL    HW230585   3.438   9.965   3.693 -0.6189  0.6580 -0.5183
 6456SOL     OW30586   9.121   6.177   6.034  0.1705 -0.0776 -0.4867
 6456SOL    HW130587   9.072   6.236   6.097  1.0786 -0.5484  0.6872
 6456SOL    HW230588   9.198   6.227   5.995  2.1989 -1.0508  2.0996
 6457SOL     OW30589   8.214   2.861   4.887  0.9172  0.3083  0.0536
 6457SOL    HW130590   8.219   2.774   4.935 -2.3775  0.2498  0.3851
 6457SOL    HW230591   8.238   2.936   4.950 -0.9747  0.0272  1.1290
 6458SOL     OW30592   2.182   7.982   3.581  0.2159 -0.7471  0.0029
 6458SOL    HW130593   2.246   7.906   3.593  0.6837  0.0124  2.4288
 6458SOL    HW230594   2.233   8.067   3.568 -0.3164 -0.5320 -0.7731
 6459SOL     OW30595   9.194   7.270   0.495  0.1318  0.0618 -0.1197
 6459SOL    HW130596   9.121   7.212   0.529  1.5160 -0.9500  1.1767
 6459SOL    HW230597   9.259   7.215   0.442 -0.4698  1.0947 -1.9691
 6460SOL     OW30598   2.348   8.126   4.479  0.2534 -0.2909 -0.4488
 6460SOL    HW130599   2.341   8.210   4.532 -1.3666 -0.4016 -0.4403
 6460SOL    HW230600   2.444   8.105   4.461  0.7272  0.8219  0.7110
 6461SOL     OW30601   0.426   2.638   1.692  0.8045 -0.0889  0.5578
 6461SOL    HW130602   0.354   2.708   1.694 -0.7436 -1.6218 -0.1855
 6461SOL    HW230603   0.486   2.654   1.613 -0.3394 -0.3474 -0.3824
 6462SOL     OW30604   2.468   6.637   2.578 -0.6893 -0.5654  0.6259
 6462SOL    HW130605   2.415   6.689   2.511 -0.8804  0.2131  1.3781
 6462SOL    HW230606   2.409   6.607   2.652 -0.3473 -0.8780  0.7765
 6463SOL     OW30607   3.152   7.042   2.258 -0.7111  0.0423  0.1369
 6463SOL    HW130608   3.092   6.972   2.296 -1.6538  0.4020 -0.6545
 6463SOL    HW230609   3.158   7.120   2.321 -0.7582 -0.1661  0.3979
 6464SOL     OW30610   1.067   0.027   3.972  0.6174  0.2090  0.0182
 6464SOL    HW130611   1.149   0.007   3.919 -1.6827 -0.9452 -3.2345
 6464SOL    HW230612   0.999   0.071   3.914 -1.7010 -0.3161  2.2187
 6465SOL     OW30613   3.144   7.740   1.095 -0.5544  0.0697 -0.2413
 6465SOL    HW130614   3.079   7.664   1.108 -0.7052  0.3934  0.9497
 6465SOL    HW230615   3.230   7.704   1.060 -0.2780 -0.8142  1.2902
 6466SOL     OW30616   4.715   8.354   6.197  0.0177 -0.1320 -0.2224
 6466SOL    HW130617   4.764   8.270   6.222 -1.7666 -0.9846  0.4753
 6466SOL    HW230618   4.675   8.395   6.279 -0.9936  0.1882 -0.8666
 6467SOL     OW30619   0.415   6.120   6.472  0.2154  0.4835 -0.0440
 6467SOL    HW130620   0.499   6.157   6.431  0.6989  0.0164  0.5198
 6467SOL    HW230621   0.375   6.052   6.411  1.6258 -1.1422  0.8113
 6468SOL     OW30622   3.130   8.335   4.033 -0.1021  0.1047 -0.2070
 6468SOL    HW130623   3.156   8.405   3.967 -0.0754  0.7118  0.4375
 6468SOL    HW230624   3.073   8.266   3.989  0.4306  0.1778 -1.0038
 6469SOL     OW30625   6.901   1.665   1.087  0.5287 -0.0611 -0.4726
 6469SOL    HW130626   6.876   1.668   0.990  0.4810  0.0899 -0.4557
 6469SOL    HW230627   6.820   1.682   1.143  0.2840 -1.5142 -0.3789
 6470SOL     OW30628   3.641   1.251   6.104 -0.0220  0.0387 -0.0244
 6470SOL    HW130629   3.689   1.328   6.146  0.0224 -0.5823  1.0625
 6470SOL    HW230630   3.694   1.167   6.117 -1.4725 -0.6916  1.3299
 6471SOL     OW30631   0.987   2.487   0.792  0.3643 -0.3003  0.0257
 6471SOL    HW130632   1.072   2.477   0.739 -0.9682  1.6283 -2.5745
 6471SOL    HW230633   0.956   2.397   0.822  2.0528 -1.2756 -1.0760
 6472SOL     OW30634   8.745   4.549   0.170  0.1016  0.3254 -0.0972
 6472SOL    HW130635   8.818   4.496   0.213  0.1947  0.6164  0.0998
 6472SOL    HW230636   8.783   4.608   0.098  0.0979  0.6897  0.2008
 6473SOL     OW30637   7.712   9.776   3.053  0.4826  0.2282  0.0443
 6473SOL    HW130638   7.670   9.841   2.990  0.6617  0.0954 -0.2099
 6473SOL    HW230639   7.641   9.733   3.108  0.3543  0.5728  0.1521
 6474SOL     OW30640   5.658   9.159   5.419 -0.7705 -0.0813  0.0191
 6474SOL    HW130641   5.630   9.151   5.515  0.3127  0.1456  0.3607
 6474SOL    HW230642   5.710   9.244   5.407 -0.1607 -0.5404 -0.5814
 6475SOL     OW30643   8.918   9.467   1.209  0.3705 -0.0333  0.4052
 6475SOL    HW130644   9.006   9.514   1.198 -0.1727  0.5754 -1.5584
 6475SOL    HW230645   8.851   9.532   1.245 -0.2156  0.5463 -1.6890
 6476SOL     OW30646   3.013   8.983   1.518 -0.4844  0.0619  0.5402
 6476SOL    HW130647   2.960   8.909   1.560  1.4985 -0.7160  1.7910
 6476SOL    HW230648   3.048   8.953   1.430 -1.0817  0.1302  0.2777
 6477SOL     OW30649   3.310   2.502   0.635  0.0861 -0.0629 -0.0175
 6477SOL    HW130650   3.358   2.527   0.551  0.3548 -0.3809  0.0384
 6477SOL    HW230651   3.237   2.567   0.652  1.0522  0.9349  0.3658
 6478SOL     OW30652   4.967   2.988   5.180  0.0863 -0.0248 -0.0020
 6478SOL    HW130653   4.937   2.893   5.168  1.5469 -0.6297  1.0296
 6478SOL    HW230654   4.901   3.036   5.239 -1.5261  0.0851 -1.8350
 6479SOL     OW30655   7.548   2.117   2.980  0.6932 -0.0266 -0.0059
 6479SOL    HW130656   7.572   2.115   2.883 -0.3412  1.3473 -0.3042
 6479SOL    HW230657   7.448   2.123   2.990  0.8132  0.2461  1.1287
 6480SOL     OW30658   4.059   6.956   0.909 -0.1008  0.3588 -0.2492
 6480SOL    HW130659   3.982   7.018   0.922  0.5899  1.0131  0.7509
 6480SOL    HW230660   4.144   7.002   0.932  0.4919 -0.7256 -0.2159
 6481SOL     OW30661   3.469   4.485   5.923  0.0548  0.2350  0.2475
 6481SOL    HW130662   3.439   4.488   5.828 -0.0491 -1.1309  0.2307
 6481SOL    HW230663   3.551   4.429   5.931 -0.1830 -0.0104  1.0286
 6482SOL     OW30664   0.389   8.860   2.506  0.6023 -1.2021  0.1672
 6482SOL    HW130665   0.343   8.914   2.435  0.1205  0.5352  1.7473
 6482SOL    HW230666   0.348   8.769   2.511  0.3738 -1.1987 -1.4951
 6483SOL     OW30667   0.559   8.470   5.460  0.0909  0.1883  0.6167
 6483SOL    HW130668   0.633   8.407   5.438 -1.0304 -0.3195 -1.7793
 6483SOL    HW230669   0.513   8.440   5.543  0.3318 -1.4712  0.1592
 6484SOL     OW30670   3.753   5.241   0.429 -0.3424 -0.2764  0.6322
 6484SOL    HW130671   3.728   5.335   0.455 -0.4413 -0.1493  0.0787
 6484SOL    HW230672   3.674   5.182   0.441  0.2814 -0.7089  2.9926
 6485SOL     OW30673   9.039   3.830   2.249 -0.8029 -0.2988  0.7805
 6485SOL    HW130674   9.101   3.842   2.172 -0.7553 -2.0939  0.5153
 6485SOL    HW230675   9.030   3.732   2.270 -2.4001  0.0305  1.7380
 6486SOL     OW30676   8.525   5.461   1.301  0.0302 -0.0918 -0.2325
 6486SOL    HW130677   8.540   5.553   1.338 -1.0474 -0.3189  0.7994
 6486SOL    HW230678   8.497   5.400   1.374 -0.3848 -0.9821 -1.1234
 6487SOL     OW30679   2.338   0.581   0.173  0.2571 -0.4261 -0.4450
 6487SOL    HW130680   2.312   0.615   0.264 -1.9999 -2.8078 -0.1311
 6487SOL    HW230681   2.291   0.635   0.103  0.6128  0.2800 -0.1493
 6488SOL     OW30682   2.426   1.013   0.388 -0.2750 -0.5906 -0.2723
 6488SOL    HW130683   2.515   1.009   0.343 -0.6125 -1.0208 -0.9098
 6488SOL    HW230684   2.358   1.049   0.324 -0.3277  0.8730  0.5873
 6489SOL     OW30685   3.198   4.718   3.817 -0.1033  0.5184 -0.5366
 6489SOL    HW130686   3.098   4.713   3.808 -0.0002  1.5315 -2.7243
 6489SOL    HW230687   3.240   4.647   3.761  0.3983 -0.6428  1.2812
 6490SOL     OW30688   8.487   3.113   4.788  0.0947 -0.4058 -0.0485
 6490SOL    HW130689   8.421   3.135   4.859  0.5044  0.0578  0.1855
 6490SOL    HW230690   8.567   3.069   4.829  0.9922  1.2066 -0.0247
 6491SOL     OW30691   3.045   7.308   4.145 -0.2555 -0.0192  0.2185
 6491SOL    HW130692   3.124   7.270   4.194 -0.4224 -2.4657 -1.3144
 6491SOL    HW230693   2.966   7.310   4.205  1.0016  2.6837  1.8466
 6492SOL     OW30694   0.122   0.974   6.620 -0.1943 -0.6010  0.2318
 6492SOL    HW130695   0.100   0.895   6.562 -0.6270 -1.1235  1.0995
 6492SOL    HW230696   0.108   0.950   6.716  0.7992  0.1716  0.5827
 6493SOL     OW30697   6.928   1.703   0.810  0.3208 -0.2036  0.2373
 6493SOL    HW130698   7.020   1.724   0.843  1.3579 -0.9775 -2.0466
 6493SOL    HW230699   6.912   1.752   0.724 -0.4291 -2.0936 -0.7268
 6494SOL     OW30700   4.308   0.696   4.032  0.0725  0.0029  0.1174
 6494SOL    HW130701   4.375   0.622   4.035  0.2437  0.1685  0.3857
 6494SOL    HW230702   4.275   0.707   3.938  0.9220  0.3560 -0.1464
 6495SOL     OW30703   7.846   2.146   4.392 -0.0615 -0.0175  0.2917
 6495SOL    HW130704   7.770   2.083   4.404 -1.0251  0.8443 -1.0912
 6495SOL    HW230705   7.862   2.197   4.477 -1.2877  0.0682  0.4730
 6496SOL     OW30706   1.450   5.457   2.110 -0.4821  0.5235 -0.2479
 6496SOL    HW130707   1.474   5.551   2.085  2.6799 -0.4916 -1.2637
 6496SOL    HW230708   1.429   5.405   2.028  1.2235 -0.5284 -0.0470
 6497SOL     OW30709   9.056   0.614   2.985  0.5470  0.3110  0.4527
 6497SOL    HW130710   9.141   0.658   3.014 -0.3879  1.9597  0.7343
 6497SOL    HW230711   9.033   0.643   2.893  0.3738 -0.2790  0.3067
 6498SOL     OW30712   1.170   5.358   6.703 -0.1647  0.3653  0.5583
 6498SOL    HW130713   1.137   5.372   6.609  0.8143 -0.6900  0.0515
 6498SOL    HW230714   1.255   5.306   6.701 -0.1604  0.3027  2.0487
 6499SOL     OW30715   3.885   2.216   0.416 -0.4300 -0.9002 -0.0641
 6499SOL    HW130716   3.876   2.259   0.326  0.6271  0.4047  0.4437
 6499SOL    HW230717   3.979   2.227   0.449 -0.4436 -2.6313  0.5710
 6500SOL     OW30718   3.627   8.599   6.299  0.0396 -0.1797  0.3676
 6500SOL    HW130719   3.697   8.600   6.228 -1.4224  2.4209 -1.0996
 6500SOL    HW230720   3.568   8.518   6.288  0.4282 -0.3110 -0.7418
 6501SOL     OW30721   2.094   1.671   1.037  0.6297 -0.2038  0.1680
 6501SOL    HW130722   2.074   1.768   1.047  0.3280 -0.1672 -0.7432
 6501SOL    HW230723   2.178   1.660   0.984 -2.0145 -0.4887 -4.1646
 6502SOL     OW30724   2.216   2.744   1.104  0.1425 -0.2208  0.3649
 6502SOL    HW130725   2.308   2.718   1.073 -0.1019 -1.8716  0.9499
 6502SOL    HW230726   2.216   2.751   1.204 -0.6189 -1.3077  0.4474
 6503SOL     OW30727   3.979   7.665   3.184 -0.4943  0.2121 -0.5346
 6503SOL    HW130728   3.996   7.721   3.102  0.4434 -2.4199 -2.1962
 6503SOL    HW230729   3.893   7.694   3.226 -2.3235 -0.0329 -3.9053
 6504SOL     OW30730   1.641   7.063   1.743 -0.1071 -0.4006 -0.3249
 6504SOL    HW130731   1.657   7.083   1.646  2.6078 -0.6355  0.0337
 6504SOL    HW230732   1.581   7.132   1.782  1.0305  1.3027 -1.5303
 6505SOL     OW30733   8.431   9.669   5.314 -0.6698  0.3332 -0.2918
 6505SOL    HW130734   8.396   9.594   5.370  1.5904 -0.3953  0.1945
 6505SOL    HW230735   8.492   9.633   5.244 -2.8837  1.3131 -2.8209
 6506SOL     OW30736   8.950   9.829   5.391 -0.1658  0.2007 -0.0354
 6506SOL    HW130737   8.953   9.887   5.310 -0.5231  0.6072  0.2394
 6506SOL    HW230738   8.865   9.776   5.391 -0.7151  1.0702  0.6653
 6507SOL     OW30739   7.385   3.110   2.303  0.2447 -0.2633 -0.1636
 6507SOL    HW130740   7.393   3.172   2.226  1.5882 -1.0818 -0.7119
 6507SOL    HW230741   7.358   3.019   2.270  2.7610 -1.1355  0.0492
 6508SOL     OW30742   0.069   4.145   3.793  0.1438 -0.1575  0.3888
 6508SOL    HW130743   0.145   4.160   3.856 -1.7045 -0.9917  2.8598
 6508SOL    HW230744   0.002   4.218   3.803  0.8838  0.9574 -2.2822
 6509SOL     OW30745   8.597   1.323   3.878  0.2867  0.1372 -0.1870
 6509SOL    HW130746   8.556   1.349   3.966  0.5896 -0.6911  0.2011
 6509SOL    HW230747   8.588   1.224   3.865  3.0283 -0.2042  0.3620
 6510SOL     OW30748   6.385   1.250   6.518 -0.5243 -0.5953 -0.5270
 6510SOL    HW130749   6.396   1.262   6.616  1.5834 -0.7259 -0.7115
 6510SOL    HW230750   6.340   1.163   6.499 -0.2629 -0.9139  0.3179
 6511SOL     OW30751   4.395   3.997   3.115 -0.1145  0.0873  0.1398
 6511SOL    HW130752   4.371   4.002   3.212 -5.5298  0.7598 -1.0642
 6511SOL    HW230753   4.422   3.904   3.091 -0.7564 -0.5695  1.8988
 6512SOL     OW30754   1.681   6.990   6.717  0.7346 -0.0629 -0.4523
 6512SOL    HW130755   1.728   6.974   6.630  0.7020  0.4478 -0.5649
 6512SOL    HW230756   1.591   7.032   6.699  0.5823 -0.2767 -0.1918
 6513SOL     OW30757   2.700   3.790   4.772  0.4837 -0.5764  0.1061
 6513SOL    HW130758   2.663   3.787   4.680  1.3956 -0.9582 -0.2579
 6513SOL    HW230759   2.781   3.849   4.773 -1.6753  2.5298  1.4662
 6514SOL     OW30760   1.267   6.164   4.070  0.3568 -0.0252  0.1959
 6514SOL    HW130761   1.171   6.189   4.061  0.5168  0.2224 -0.8979
 6514SOL    HW230762   1.274   6.068   4.097 -0.1898 -0.2485 -0.4446
 6515SOL     OW30763   1.659   5.191   0.605 -0.1094 -0.0411 -0.1574
 6515SOL    HW130764   1.759   5.195   0.605 -0.0663 -0.9022 -0.0977
 6515SOL    HW230765   1.629   5.110   0.656 -0.8834  1.0584  1.1623
 6516SOL     OW30766   3.101   0.981   4.318  0.0932 -0.6480  0.1621
 6516SOL    HW130767   3.120   1.080   4.317 -1.1425 -0.3783  1.3038
 6516SOL    HW230768   3.181   0.932   4.351  0.6538 -0.0009 -0.2290
 6517SOL     OW30769   4.035   9.615   4.425 -0.5367  0.2461 -0.0741
 6517SOL    HW130770   3.970   9.570   4.486  0.2556  1.6886  1.9198
 6517SOL    HW230771   4.120   9.562   4.421 -1.2045 -0.7430 -1.3093
 6518SOL     OW30772   6.127   7.434   5.797 -0.1372 -0.5160  0.2180
 6518SOL    HW130773   6.199   7.487   5.752 -0.4129 -0.0299  0.3405
 6518SOL    HW230774   6.166   7.352   5.839  0.5688  0.3853  1.3668
 6519SOL     OW30775   3.457   5.717   4.126 -0.3661  0.1561 -0.2808
 6519SOL    HW130776   3.370   5.764   4.138  0.3221  1.0756  1.1216
 6519SOL    HW230777   3.510   5.721   4.210  1.0616 -0.3616 -1.1293
 6520SOL     OW30778   2.593   4.125   4.205 -0.1672 -0.4070 -0.4982
 6520SOL    HW130779   2.592   4.225   4.193 -0.0583 -0.1769  1.3802
 6520SOL    HW230780   2.513   4.086   4.160 -1.1615  0.7042  0.2800
 6521SOL     OW30781   8.789   4.799   4.886 -0.0905  0.9228 -0.4652
 6521SOL    HW130782   8.869   4.803   4.827 -0.9355  0.1812 -1.6570
 6521SOL    HW230783   8.784   4.884   4.940  1.3255  1.0927 -0.5728
 6522SOL     OW30784   1.244   2.531   5.245 -0.1089  0.5061 -0.4545
 6522SOL    HW130785   1.193   2.544   5.330  0.6005 -1.2576  0.2736
 6522SOL    HW230786   1.338   2.506   5.266  0.4879  1.5724 -1.7756
 6523SOL     OW30787   9.582   0.068   5.393  0.3491 -0.0500  0.1286
 6523SOL    HW130788   9.584  -0.010   5.456  0.4031  1.2537  1.7443
 6523SOL    HW230789   9.609   0.151   5.441 -0.7936  1.1822 -1.3126
 6524SOL     OW30790   9.843   3.247   6.643 -0.2292 -0.6616  0.6622
 6524SOL    HW130791   9.749   3.281   6.654  0.6473  1.3636  2.3509
 6524SOL    HW230792   9.867   3.246   6.546 -0.7836  2.3672  0.4376
 6525SOL     OW30793   0.386   0.685   6.369  0.2301 -0.3444 -0.1362
 6525SOL    HW130794   0.480   0.707   6.395  0.3470 -0.1915 -0.6967
 6525SOL    HW230795   0.383   0.594   6.327 -0.0912 -0.9650  1.1932
 6526SOL     OW30796   9.323   5.326   1.753  0.4330 -0.6343 -0.1910
 6526SOL    HW130797   9.355   5.337   1.847 -2.5190  1.3002  0.6479
 6526SOL    HW230798   9.337   5.231   1.725  1.6422 -1.1834  2.0751
 6527SOL     OW30799   9.810   0.526   0.008  0.0109  0.0609 -0.0568
 6527SOL    HW130800   9.715   0.558   0.007 -0.7359 -2.0743 -1.5829
 6527SOL    HW230801   9.836   0.501   0.101 -1.0533  0.3073  0.3099
 6528SOL     OW30802   4.527   4.539   5.735 -0.1058  0.6868 -0.4831
 6528SOL    HW130803   4.445   4.551   5.679 -0.8910  0.1487  0.5220
 6528SOL    HW230804   4.576   4.626   5.740 -0.4232  0.9241 -1.3898
 6529SOL     OW30805   3.011   9.925   4.189 -0.4925  0.1330 -0.4031
 6529SOL    HW130806   2.981   9.987   4.261  0.2258 -0.2456  0.2362
 6529SOL    HW230807   3.111   9.923   4.187 -0.5111 -0.5003 -0.8521
 6530SOL     OW30808   9.993   2.760   3.446 -0.7438 -0.4388 -0.1078
 6530SOL    HW130809  10.042   2.674   3.433  0.5873  0.3506 -0.3702
 6530SOL    HW230810   9.895   2.745   3.433 -0.4386 -1.7465 -0.9272
 6531SOL     OW30811   1.529   4.798   4.734 -0.1040 -0.4318 -0.7318
 6531SOL    HW130812   1.620   4.768   4.763  0.2981  0.7630 -0.7408
 6531SOL    HW230813   1.462   4.729   4.761  0.6643 -0.8248  0.2236
 6532SOL     OW30814  -0.002   4.244   5.678  0.3696  1.1594  0.3182
 6532SOL    HW130815   0.088   4.200   5.683  0.2944  1.0343  0.6286
 6532SOL    HW230816  -0.003   4.325   5.737  0.4363  1.4414 -0.0716
 6533SOL     OW30817   9.984   5.233   0.265  0.3556 -0.0110 -0.3134
 6533SOL    HW130818  10.073   5.267   0.236  0.7573  0.4726  1.4030
 6533SOL    HW230819   9.990   5.203   0.360 -0.8018 -1.8933 -0.8073
 6534SOL     OW30820   2.957   8.411   5.551  0.1086  0.3762  0.4823
 6534SOL    HW130821   3.052   8.410   5.583  0.2722 -1.6759 -0.0080
 6534SOL    HW230822   2.956   8.421   5.451 -0.0706 -1.9726  0.2146
 6535SOL     OW30823   1.364   3.592   1.792  0.0502 -0.5558 -0.2707
 6535SOL    HW130824   1.331   3.554   1.706  0.4218 -0.4391 -0.4660
 6535SOL    HW230825   1.333   3.536   1.868 -1.2460 -0.0183 -0.3943
 6536SOL     OW30826   9.403   2.773   0.736  0.0161  0.3765 -0.7507
 6536SOL    HW130827   9.476   2.734   0.679  1.6298  1.4603  0.5210
 6536SOL    HW230828   9.377   2.863   0.700  0.2062  0.5476 -0.4588
 6537SOL     OW30829   3.508   3.269   0.366 -0.0317  0.4128 -0.2852
 6537SOL    HW130830   3.574   3.196   0.386  0.3091  0.7912 -0.0263
 6537SOL    HW230831   3.513   3.292   0.269 -1.5910 -1.3335 -0.7969
 6538SOL     OW30832   2.528   0.826   5.645 -0.7830 -0.0115  0.3294
 6538SOL    HW130833   2.599   0.770   5.687  0.2051  0.6878 -0.3794
 6538SOL    HW230834   2.439   0.783   5.658 -0.2598 -0.7622  1.4568
 6539SOL     OW30835   7.794   1.348   3.717  0.0198 -0.8717 -0.5629
 6539SOL    HW130836   7.811   1.326   3.621  2.4452 -2.0796  0.1046
 6539SOL    HW230837   7.728   1.284   3.755 -0.4905 -0.7662 -1.2650
 6540SOL     OW30838   2.447   4.615   1.375  0.6306  0.6027  0.0865
 6540SOL    HW130839   2.394   4.581   1.297  0.7013  0.1895  0.2182
 6540SOL    HW230840   2.527   4.557   1.389  1.6488  1.7859 -0.7171
 6541SOL     OW30841   1.140   3.938   2.890 -0.7088 -0.1513  0.0687
 6541SOL    HW130842   1.149   3.930   2.791  1.3301 -1.8816  0.3499
 6541SOL    HW230843   1.230   3.933   2.932 -1.6341 -0.4211  2.0772
 6542SOL     OW30844   0.694   1.087   0.904 -0.1002 -0.1657 -0.0716
 6542SOL    HW130845   0.609   1.084   0.956  1.0460 -2.2298  1.7559
 6542SOL    HW230846   0.760   1.147   0.950  1.2569 -2.7609  1.4927
 6543SOL     OW30847   2.023   1.412   1.664  0.1927 -0.0184  0.2371
 6543SOL    HW130848   1.999   1.347   1.591  2.3602  0.9893 -1.4467
 6543SOL    HW230849   2.079   1.365   1.733  1.3578 -0.0923 -0.7361
 6544SOL     OW30850   9.285   3.278   5.321 -0.1258 -0.2503 -0.0767
 6544SOL    HW130851   9.265   3.181   5.307  0.1014 -0.1626 -1.0248
 6544SOL    HW230852   9.231   3.333   5.257 -0.5628  0.2721  0.7382
 6545SOL     OW30853   3.091   6.717   4.185 -0.3186 -0.3005  0.3519
 6545SOL    HW130854   3.058   6.738   4.093 -1.0290  0.4137  0.7674
 6545SOL    HW230855   3.096   6.617   4.196  0.6505 -0.3911 -0.7643
 6546SOL     OW30856   2.840   2.984   5.995 -0.6285 -0.3387 -0.5157
 6546SOL    HW130857   2.916   3.021   6.049 -0.1752 -0.3897 -1.1108
 6546SOL    HW230858   2.845   2.884   5.994 -0.7472 -0.3448 -0.4894
 6547SOL     OW30859   7.292   0.311   1.422 -0.1828  0.2173 -0.2855
 6547SOL    HW130860   7.328   0.222   1.395 -0.2324  0.4396 -1.1035
 6547SOL    HW230861   7.261   0.361   1.341  3.8119  2.7063 -0.4341
 6548SOL     OW30862   8.912   8.530   5.067 -0.2012  0.0472  0.1091
 6548SOL    HW130863   8.900   8.570   4.976 -1.1844 -0.6986 -0.0930
 6548SOL    HW230864   8.915   8.430   5.059 -0.9638 -0.0470  0.9667
 6549SOL     OW30865   8.426   3.261   5.429 -0.4926  0.6073  0.5968
 6549SOL    HW130866   8.447   3.255   5.526  0.8050 -0.6356  0.2582
 6549SOL    HW230867   8.448   3.174   5.385 -2.1909  0.7533 -0.6052
 6550SOL     OW30868   7.404   1.640   1.336  0.1652  0.3428 -0.1117
 6550SOL    HW130869   7.383   1.562   1.394  2.3599 -0.6675 -0.6294
 6550SOL    HW230870   7.330   1.654   1.270 -0.7890 -0.5419  0.7582
 6551SOL     OW30871   0.315   0.734   0.787 -0.5967  0.2901 -0.0021
 6551SOL    HW130872   0.344   0.753   0.881  1.9487 -0.8676 -0.5232
 6551SOL    HW230873   0.250   0.657   0.788  1.5355 -1.5578  0.5975
 6552SOL     OW30874   0.932   3.024   5.859 -0.2854  0.4903 -0.3539
 6552SOL    HW130875   0.997   2.992   5.789 -1.1278 -2.7499  0.2276
 6552SOL    HW230876   0.945   3.121   5.875  2.9405  0.3644 -1.8155
 6553SOL     OW30877   5.726   2.147   2.417 -0.3033 -0.0140 -0.4855
 6553SOL    HW130878   5.663   2.075   2.446 -1.3447  1.2591  0.4709
 6553SOL    HW230879   5.698   2.234   2.458 -0.6736  1.4821 -3.7196
 6554SOL     OW30880   2.465   7.807   6.082 -0.1019 -0.4281  0.5544
 6554SOL    HW130881   2.487   7.893   6.037 -1.1188 -1.1398 -1.3990
 6554SOL    HW230882   2.369   7.785   6.067  0.5171 -2.6706 -0.3784
 6555SOL     OW30883   7.419   1.522   0.829  0.1008 -0.0047 -0.2665
 6555SOL    HW130884   7.419   1.538   0.928 -2.4414 -2.0380  0.1033
 6555SOL    HW230885   7.409   1.610   0.781  0.3031  0.8888  1.2790
 6556SOL     OW30886   2.772   2.222   3.813  0.0306 -0.3449  0.0960
 6556SOL    HW130887   2.690   2.185   3.768 -0.6634  0.6212  0.5297
 6556SOL    HW230888   2.745   2.269   3.897  1.6007 -4.5329  3.0589
 6557SOL     OW30889   3.781   4.316   5.375  0.3318  0.1139  0.5867
 6557SOL    HW130890   3.870   4.303   5.418  0.0681  0.1230  1.1356
 6557SOL    HW230891   3.717   4.248   5.411  0.0094  0.3698  0.4895
 6558SOL     OW30892   0.064   9.036   3.300  0.1268 -0.0406  0.1362
 6558SOL    HW130893   0.037   9.041   3.396  0.0442 -0.7033  0.1484
 6558SOL    HW230894   0.161   9.061   3.291 -0.1884  1.2725  0.2277
 6559SOL     OW30895   3.595   0.395   3.927  0.0849 -0.3539  0.3073
 6559SOL    HW130896   3.657   0.317   3.920 -0.4905 -0.7431 -0.5537
 6559SOL    HW230897   3.540   0.402   3.843 -1.0018  0.0081  1.0376
 6560SOL     OW30898   8.087   3.096   4.800  0.1860 -0.4505  0.3378
 6560SOL    HW130899   8.111   3.000   4.819  1.7719 -0.2419 -0.5418
 6560SOL    HW230900   8.019   3.098   4.726  1.4660 -0.8408 -0.8746
 6561SOL     OW30901   7.305   0.457   2.153 -0.0779  0.1394  0.1298
 6561SOL    HW130902   7.275   0.423   2.064  3.1806 -1.9689 -0.2693
 6561SOL    HW230903   7.239   0.431   2.223 -1.3996 -0.4485 -1.3079
 6562SOL     OW30904   2.289   4.308   0.540  0.0810  0.2702  0.0342
 6562SOL    HW130905   2.344   4.382   0.579  0.1806  1.3682 -2.0861
 6562SOL    HW230906   2.249   4.339   0.453 -0.5425 -1.8931 -0.4728
 6563SOL     OW30907   8.101   1.294   0.479  0.3582  0.0507  0.1815
 6563SOL    HW130908   8.158   1.270   0.558 -0.1211 -1.3319  0.1108
 6563SOL    HW230909   8.012   1.248   0.487  0.8779 -1.3764 -1.9505
 6564SOL     OW30910   5.332   8.727   6.044  0.4111  0.2615  0.0045
 6564SOL    HW130911   5.289   8.652   6.095  0.8622  0.0877  0.1389
 6564SOL    HW230912   5.338   8.702   5.947 -0.5120  0.6199 -0.1496
 6565SOL     OW30913   3.240   6.340   0.928  0.0083 -0.5156  0.5783
 6565SOL    HW130914   3.226   6.405   0.854 -0.0775 -0.7725  0.3701
 6565SOL    HW230915   3.333   6.350   0.963 -0.3755  0.5239  1.3242
 6566SOL     OW30916   1.323   3.503   5.826 -0.1552 -0.6169 -0.1999
 6566SOL    HW130917   1.417   3.471   5.836  0.2399  0.7620  0.6586
 6566SOL    HW230918   1.264   3.453   5.890  0.5287  0.6378  1.4357
 6567SOL     OW30919   3.529   3.592   3.649 -0.3869  0.3044  0.4504
 6567SOL    HW130920   3.488   3.684   3.650  1.1696  1.0531 -1.0096
 6567SOL    HW230921   3.608   3.590   3.709 -1.5504 -0.6609  1.9772
 6568SOL     OW30922   8.963   2.689   5.929 -0.3575 -0.1738  0.0697
 6568SOL    HW130923   9.021   2.637   5.867 -1.8232 -1.6083 -0.1371
 6568SOL    HW230924   8.977   2.657   6.023 -1.0211 -0.7381 -0.0183
 6569SOL     OW30925   8.182   3.398   5.671  0.1410  0.4231 -0.8069
 6569SOL    HW130926   8.150   3.433   5.583  1.5274 -2.3581 -2.5161
 6569SOL    HW230927   8.281   3.408   5.676  0.3025 -1.1408 -0.4254
 6570SOL     OW30928   8.428   3.086   1.090  0.8535  0.0115 -0.3255
 6570SOL    HW130929   8.427   3.090   1.190  0.2036  1.0111 -0.3617
 6570SOL    HW230930   8.522   3.069   1.058  0.8798 -1.4138  0.4748
 6571SOL     OW30931   6.960   0.338   2.568  0.3254  0.5161  0.0203
 6571SOL    HW130932   6.866   0.371   2.558 -0.0333 -1.1026 -2.1144
 6571SOL    HW230933   7.005   0.338   2.479  1.9066 -0.0691  0.8045
 6572SOL     OW30934   0.995   5.534   5.326 -0.4928  0.2436 -0.9424
 6572SOL    HW130935   1.067   5.572   5.268 -1.4653 -0.0308 -2.3470
 6572SOL    HW230936   1.030   5.452   5.372  0.7768  1.3334  0.0951
 6573SOL     OW30937   5.266   1.986   5.190 -0.0113  0.0334 -0.3727
 6573SOL    HW130938   5.283   1.889   5.205  0.3753  0.2133  0.3744
 6573SOL    HW230939   5.321   2.017   5.112  0.9966 -0.0258  0.2956
 6574SOL     OW30940   7.872   4.489   5.922  0.0079  0.1978 -0.2391
 6574SOL    HW130941   7.804   4.505   5.851 -1.4457  0.2494  1.1387
 6574SOL    HW230942   7.908   4.396   5.913 -0.8021 -0.0940 -0.5023
 6575SOL     OW30943   5.178   7.468   5.379  0.2876  0.3476 -0.8212
 6575SOL    HW130944   5.274   7.483   5.400  0.0909  1.2847 -0.5909
 6575SOL    HW230945   5.133   7.555   5.363 -0.6067 -0.0631 -0.5820
 6576SOL     OW30946   4.176   0.587   5.263  0.3302  0.0476 -0.0661
 6576SOL    HW130947   4.194   0.610   5.358 -2.8738  1.8534  0.1707
 6576SOL    HW230948   4.194   0.666   5.205  0.7894 -0.5744 -0.7915
 6577SOL     OW30949   1.115   4.067   4.352  0.0024 -0.2463  0.1584
 6577SOL    HW130950   1.130   4.166   4.358 -1.2095 -0.0674  0.2990
 6577SOL    HW230951   1.040   4.048   4.289  2.0016 -1.2416 -2.0041
 6578SOL     OW30952   8.487   2.746   4.931  0.3338 -0.0783  0.2266
 6578SOL    HW130953   8.423   2.710   4.999  0.8585 -0.4249  0.5475
 6578SOL    HW230954   8.474   2.698   4.844 -0.1918  0.2156  0.1396
 6579SOL     OW30955   8.061   5.288   1.515 -0.0314 -0.5414  0.0347
 6579SOL    HW130956   8.052   5.331   1.425 -0.8263  0.0833  0.4087
 6579SOL    HW230957   8.142   5.230   1.516 -0.9356 -1.8474 -1.6092
 6580SOL     OW30958   2.992   2.060   3.703  0.1597  0.2756 -0.2474
 6580SOL    HW130959   2.926   2.131   3.727 -0.4175 -0.4577  0.3429
 6580SOL    HW230960   3.085   2.097   3.713 -0.1277  0.7836  0.5964
 6581SOL     OW30961   9.654   1.865   6.569  0.0974 -0.1581 -0.1613
 6581SOL    HW130962   9.574   1.807   6.552  0.6981 -0.5039 -1.9958
 6581SOL    HW230963   9.737   1.810   6.558  0.6086  0.2875  1.3621
 6582SOL     OW30964   8.547   8.750   3.953 -0.4828  0.3995  0.0100
 6582SOL    HW130965   8.624   8.783   3.899 -0.4841 -1.2608 -1.0550
 6582SOL    HW230966   8.462   8.763   3.902 -0.7899  1.2176  0.7206
 6583SOL     OW30967   1.168   7.195   2.665 -0.2758  0.0658 -0.1335
 6583SOL    HW130968   1.268   7.196   2.662 -0.2393 -0.5262  0.6874
 6583SOL    HW230969   1.138   7.190   2.760 -1.1085  1.7601 -0.2854
 6584SOL     OW30970   1.298   9.211   3.079  0.6420  0.1550  0.2858
 6584SOL    HW130971   1.383   9.248   3.042  0.4901  0.4225  0.2039
 6584SOL    HW230972   1.221   9.268   3.051  0.5518  0.4826  1.1954
 6585SOL     OW30973   3.336   6.265   1.683 -0.1145  0.0162 -0.0962
 6585SOL    HW130974   3.367   6.349   1.729 -0.3464 -0.2982  0.6368
 6585SOL    HW230975   3.325   6.283   1.585 -0.7989  1.0271  0.1533
 6586SOL     OW30976   8.090   5.663   5.278 -0.4469  0.2187  0.1130
 6586SOL    HW130977   8.018   5.676   5.345 -0.4630  0.4222  0.0579
 6586SOL    HW230978   8.096   5.567   5.253 -0.5952  0.1795  0.2331
 6587SOL     OW30979   2.330   8.409   2.225  0.6700  0.4849 -0.3818
 6587SOL    HW130980   2.232   8.430   2.234  1.1050  2.2606  0.4388
 6587SOL    HW230981   2.377   8.431   2.311  1.4980 -2.1824 -0.1163
 6588SOL     OW30982   0.955   1.402   1.626  0.5845  0.3919  0.0013
 6588SOL    HW130983   0.916   1.324   1.675 -0.8121  1.5992  0.8515
 6588SOL    HW230984   1.018   1.451   1.686  1.2039  0.1257 -0.4243
 6589SOL     OW30985   2.901   4.447   0.959 -0.6387 -0.0211 -0.0769
 6589SOL    HW130986   2.871   4.532   0.916 -1.4378 -0.4112 -0.3102
 6589SOL    HW230987   2.921   4.379   0.889  2.0748  0.6349  0.0323
 6590SOL     OW30988   0.183   2.392   2.012 -0.2939  0.1683 -0.8317
 6590SOL    HW130989   0.272   2.432   1.989 -0.4416  0.4918 -0.8405
 6590SOL    HW230990   0.196   2.297   2.041  0.3372  0.9083  1.4335
 6591SOL     OW30991   9.992   6.596   4.380  0.3808 -0.1981 -0.7157
 6591SOL    HW130992   9.988   6.594   4.480 -1.1824  0.7926 -0.7455
 6591SOL    HW230993   9.997   6.502   4.345  0.5408 -0.5644  0.2668
 6592SOL     OW30994   9.120   4.153   5.244  0.1658  0.0018 -0.4127
 6592SOL    HW130995   9.037   4.117   5.202  0.8203  0.6090 -2.2542
 6592SOL    HW230996   9.101   4.243   5.284 -0.3746 -0.4314  0.3125
 6593SOL     OW30997   9.619   4.688   5.447 -0.0434 -0.0576 -0.1219
 6593SOL    HW130998   9.695   4.702   5.511 -0.4792 -0.3637  0.4681
 6593SOL    HW230999   9.654   4.691   5.353  0.3546  1.9616  0.0731
 6594SOL     OW31000   8.976   4.224   2.688 -0.8034 -0.0677  0.2299
 6594SOL    HW131001   8.982   4.244   2.590 -1.0682 -1.8183 -0.1652
 6594SOL    HW231002   8.886   4.252   2.722 -1.1251 -0.4592 -0.2826
 6595SOL     OW31003   9.129   7.101   6.524 -0.7810  0.4568  0.7222
 6595SOL    HW131004   9.180   7.158   6.588 -1.7835  0.6127  1.3878
 6595SOL    HW231005   9.191   7.065   6.454  0.2957  0.3620  1.7199
 6596SOL     OW31006   4.201   5.325   5.590 -0.0377  1.1466  0.8453
 6596SOL    HW131007   4.184   5.394   5.660 -1.6101  0.8818  0.7535
 6596SOL    HW231008   4.113   5.295   5.552  0.8430  2.5100 -2.4179
 6597SOL     OW31009   6.040   0.816   0.924 -0.1747 -0.2291  0.2069
 6597SOL    HW131010   6.051   0.725   0.882 -1.9870  0.1573 -1.1977
 6597SOL    HW231011   6.013   0.806   1.019  0.0302 -1.1606  0.1733
 6598SOL     OW31012   3.263   5.045   5.771 -0.1525  0.0069 -0.1602
 6598SOL    HW131013   3.357   5.046   5.806 -0.5381  1.4833  0.8740
 6598SOL    HW231014   3.256   4.978   5.697  1.3403 -1.2408  0.7899
 6599SOL     OW31015   2.401   2.213   5.847 -0.0385  0.0643 -0.3434
 6599SOL    HW131016   2.347   2.256   5.919 -0.3435 -1.9329  0.6309
 6599SOL    HW231017   2.352   2.220   5.760 -1.4536 -0.9275  0.3672
 6600SOL     OW31018   9.361   9.240   4.187 -0.7144  0.4476  0.3072
 6600SOL    HW131019   9.379   9.328   4.143  0.9304  0.9390  1.9046
 6600SOL    HW231020   9.320   9.255   4.276  0.9305 -0.3133  1.2181
 6601SOL     OW31021   8.384   9.618   6.466 -0.9148  0.3355 -0.2017
 6601SOL    HW131022   8.313   9.658   6.408 -0.7533  0.6751 -0.1677
 6601SOL    HW231023   8.349   9.608   6.559 -1.4308 -0.9112 -0.5221
 6602SOL     OW31024   5.823   1.283   1.110 -0.2194 -0.0954 -0.2678
 6602SOL    HW131025   5.788   1.258   1.020  0.8732 -0.0641 -0.7164
 6602SOL    HW231026   5.922   1.299   1.104 -0.2217  0.4041  0.8341
 6603SOL     OW31027   2.974   4.140   1.958  0.1050 -0.1943 -0.2748
 6603SOL    HW131028   2.931   4.120   1.870 -1.5436 -1.6231  0.8231
 6603SOL    HW231029   3.061   4.092   1.965  1.2152  1.4837 -1.8831
 6604SOL     OW31030   9.581   8.962   1.744 -0.7196 -0.0578 -0.2708
 6604SOL    HW131031   9.491   8.937   1.708 -0.1423 -1.6158 -0.6422
 6604SOL    HW231032   9.585   8.941   1.841 -0.6605 -0.2346 -0.3123
 6605SOL     OW31033   9.108   9.365   2.626 -0.8607  0.5534 -0.0325
 6605SOL    HW131034   9.059   9.344   2.542  1.6403  0.6043 -1.5570
 6605SOL    HW231035   9.104   9.286   2.687  0.1638 -0.7890 -1.6363
 6606SOL     OW31036   1.188   6.908   1.017 -0.2215 -0.1832 -0.5375
 6606SOL    HW131037   1.172   6.819   1.062  0.0756 -0.3494 -0.7596
 6606SOL    HW231038   1.179   6.897   0.918  1.6687 -0.3705 -0.7068
 6607SOL     OW31039   1.121   4.645   2.136 -0.3044 -0.2297 -0.1244
 6607SOL    HW131040   1.126   4.715   2.206  0.3909  0.0331 -0.4411
 6607SOL    HW231041   1.130   4.554   2.178  0.2885 -0.0653  0.1048
 6608SOL     OW31042   9.724   9.649   0.294 -0.8467  0.4333 -0.0056
 6608SOL    HW131043   9.812   9.635   0.339 -0.6561  0.0123 -0.5101
 6608SOL    HW231044   9.654   9.595   0.341 -0.8292  0.7177  0.3552
 6609SOL     OW31045   6.803   1.938   4.109  0.3988 -0.5454 -0.3010
 6609SOL    HW131046   6.841   1.923   4.017  0.4586 -2.4285  0.0009
 6609SOL    HW231047   6.720   1.992   4.102  0.9893  0.2453 -1.3625
 6610SOL     OW31048   6.845   1.618   1.448 -0.1655 -0.0120  0.0038
 6610SOL    HW131049   6.774   1.686   1.433 -1.5788 -1.1121  1.5103
 6610SOL    HW231050   6.895   1.640   1.532 -0.0431 -0.3110  0.0118
 6611SOL     OW31051   8.235   5.394   3.732 -0.1225 -0.3168 -0.0591
 6611SOL    HW131052   8.140   5.397   3.762 -0.0874  0.6487 -0.0215
 6611SOL    HW231053   8.293   5.363   3.807 -0.3171 -0.1850  0.1453
 6612SOL     OW31054   2.719   0.352   1.026 -0.5820  0.6181  0.5381
 6612SOL    HW131055   2.784   0.350   1.102  0.1537 -0.5806 -0.1071
 6612SOL    HW231056   2.729   0.438   0.976  0.3231  0.5681  0.6198
 6613SOL     OW31057   5.028   9.395   4.794 -0.0179 -0.6955 -0.1635
 6613SOL    HW131058   5.054   9.303   4.766 -0.9062 -0.4306 -1.9375
 6613SOL    HW231059   5.039   9.405   4.893 -0.3788 -2.8434  0.1017
 6614SOL     OW31060   6.521   1.372   4.732  0.4523 -0.2730 -0.6655
 6614SOL    HW131061   6.455   1.442   4.759 -0.1145 -0.1260 -2.3403
 6614SOL    HW231062   6.505   1.289   4.785  1.7946  1.1440  2.0845
 6615SOL     OW31063   5.537   9.307   4.805 -0.0484  0.4608  0.3398
 6615SOL    HW131064   5.458   9.274   4.858 -0.8447 -0.5499 -1.4356
 6615SOL    HW231065   5.504   9.369   4.733  0.7016 -0.5766 -0.8979
 6616SOL     OW31066   4.136   5.666   2.034 -0.4695  0.1301 -0.0721
 6616SOL    HW131067   4.126   5.616   1.948 -4.0767  0.7234 -0.0942
 6616SOL    HW231068   4.082   5.750   2.029  0.2024  0.7297  2.3620
 6617SOL     OW31069   9.845   0.170   2.883  0.1189 -0.3838  0.5601
 6617SOL    HW131070   9.920   0.128   2.831 -0.2758  0.4191 -0.6593
 6617SOL    HW231071   9.868   0.265   2.904  0.8273 -1.0396  2.9660
 6618SOL     OW31072   1.504   1.375   5.249  0.7675 -0.0338 -0.3686
 6618SOL    HW131073   1.587   1.409   5.205  1.4885 -0.9882  0.2319
 6618SOL    HW231074   1.427   1.434   5.226  1.3895  0.2114 -1.8615
 6619SOL     OW31075   4.431   1.621   2.462  0.5189  0.4779  0.2230
 6619SOL    HW131076   4.423   1.585   2.555 -0.1048 -0.7117 -0.2781
 6619SOL    HW231077   4.366   1.574   2.402  0.9636  1.1827 -0.8384
 6620SOL     OW31078  10.002   4.221   5.094 -0.6661 -0.2257 -0.2427
 6620SOL    HW131079   9.932   4.251   5.160 -0.6480 -1.5051  0.3826
 6620SOL    HW231080   9.994   4.122   5.081  1.5590 -0.5071  0.4433
 6621SOL     OW31081   8.784   9.115   3.079 -0.0030  0.3986 -0.2910
 6621SOL    HW131082   8.702   9.074   3.038 -1.0369  2.5036 -0.3718
 6621SOL    HW231083   8.788   9.090   3.176 -0.8775  0.4960 -0.2215
 6622SOL     OW31084   4.251   2.067   4.507 -0.2567  0.1322 -0.0758
 6622SOL    HW131085   4.300   2.118   4.437  0.1831  0.3244  0.3694
 6622SOL    HW231086   4.153   2.080   4.496 -0.0816  3.2118  1.6151
 6623SOL     OW31087   2.241   9.004   2.881  0.0790  0.9471 -0.1690
 6623SOL    HW131088   2.319   9.062   2.857  0.4782  0.4742 -0.0227
 6623SOL    HW231089   2.169   9.059   2.922  0.5462  1.3046  0.1702
 6624SOL     OW31090   7.030   1.668   1.677 -0.5877 -0.8643 -0.6522
 6624SOL    HW131091   7.010   1.591   1.737 -2.5843 -0.2095 -0.4529
 6624SOL    HW231092   7.072   1.741   1.730 -0.0883 -1.2306 -0.5401
 6625SOL     OW31093   0.847   4.754   3.511 -0.2319  0.0290  0.2022
 6625SOL    HW131094   0.849   4.853   3.507 -2.1701  0.0384 -2.6119
 6625SOL    HW231095   0.831   4.724   3.605 -0.2291  2.3790  0.9770
 6626SOL     OW31096   1.384   8.802   5.534  0.3032  0.3336 -0.1937
 6626SOL    HW131097   1.407   8.755   5.449 -0.4718 -0.5815  0.0934
 6626SOL    HW231098   1.285   8.808   5.544  0.3802 -0.0666  0.9185
 6627SOL     OW31099   1.040   2.792   2.882 -0.5787  0.1813  0.2462
 6627SOL    HW131100   1.056   2.836   2.794 -0.5002 -0.5014 -0.0913
 6627SOL    HW231101   1.101   2.830   2.951  0.3931 -0.3165 -0.3421
 6628SOL     OW31102   9.993   6.377   0.673 -0.1689  0.3942  0.3076
 6628SOL    HW131103  10.027   6.294   0.629  1.4248  0.3333  1.5787
 6628SOL    HW231104  10.036   6.457   0.632  1.0476  0.3574  1.4671
 6629SOL     OW31105   9.752   1.935   5.594  0.2264 -0.2741 -0.4711
 6629SOL    HW131106   9.693   2.016   5.588  0.1183 -0.2447  0.6849
 6629SOL    HW231107   9.827   1.954   5.658  0.3136 -1.0168 -0.3526
 6630SOL     OW31108   2.385   3.850   2.636  0.4206 -0.1397 -0.2879
 6630SOL    HW131109   2.333   3.925   2.678 -1.2243 -0.6369 -1.4207
 6630SOL    HW231110   2.377   3.855   2.537  0.7699 -1.4870 -0.3889
 6631SOL     OW31111   9.051   7.182   0.830  0.1482  0.0974  0.0894
 6631SOL    HW131112   9.039   7.223   0.920 -1.5001  1.3562 -0.6714
 6631SOL    HW231113   8.979   7.114   0.815 -0.8749  1.4003 -1.0739
 6632SOL     OW31114   9.583   0.214   6.028 -0.4938  0.1157  0.6783
 6632SOL    HW131115   9.626   0.305   6.028 -0.2725  0.0103  0.2679
 6632SOL    HW231116   9.585   0.177   5.936 -0.2773 -0.4555  0.9147
 6633SOL     OW31117   1.949   5.402   2.778  0.0619 -0.0128  0.6861
 6633SOL    HW131118   1.852   5.379   2.776 -0.4625  1.9502  1.6836
 6633SOL    HW231119   1.980   5.410   2.873  1.3686 -1.2622  0.3809
 6634SOL     OW31120   9.912   5.199   6.726  0.1620 -0.1907 -0.3038
 6634SOL    HW131121   9.907   5.165   6.821 -1.1667  1.9154  0.3925
 6634SOL    HW231122   9.888   5.125   6.664 -0.6669 -1.1308  1.0957
 6635SOL     OW31123   8.738   5.008   1.694 -0.7645 -0.2024 -0.7241
 6635SOL    HW131124   8.769   4.944   1.765  2.3671  0.0015 -1.8126
 6635SOL    HW231125   8.743   5.101   1.730  0.6221 -0.1147 -1.1094
 6636SOL     OW31126   8.501   5.334   1.552  0.0829  0.3924  0.2087
 6636SOL    HW131127   8.572   5.394   1.588  0.3681  0.2626 -0.1344
 6636SOL    HW231128   8.421   5.336   1.613 -0.2582  1.8114 -0.2579
 6637SOL     OW31129   8.144   7.696   4.717  0.4569  0.0822 -0.0400
 6637SOL    HW131130   8.100   7.611   4.687  0.6745 -0.7993  2.0817
 6637SOL    HW231131   8.212   7.723   4.649  0.0479 -1.1821 -0.9797
 6638SOL     OW31132   4.957   4.519   0.013 -0.6731 -0.4522  0.0835
 6638SOL    HW131133   5.042   4.562   0.044 -0.6569 -2.3979  2.8732
 6638SOL    HW231134   4.879   4.571   0.046 -0.6202 -0.7192  0.6241
 6639SOL     OW31135   9.295   3.987   6.566  0.0991 -0.0523  0.4590
 6639SOL    HW131136   9.253   4.071   6.599 -0.7903  0.6411 -2.3251
 6639SOL    HW231137   9.354   4.008   6.488 -0.9342 -2.1281 -0.9172
 6640SOL     OW31138   6.759   0.165   1.004  0.0885 -0.2493 -0.3000
 6640SOL    HW131139   6.660   0.180   1.005 -0.1584 -1.7612 -0.4981
 6640SOL    HW231140   6.802   0.229   0.939 -0.7697  0.2947 -0.3418
 6641SOL     OW31141   2.572   7.034   1.183 -0.0929  0.3743  0.0395
 6641SOL    HW131142   2.500   6.968   1.201  1.6003 -1.3468  0.6419
 6641SOL    HW231143   2.644   6.991   1.128  0.5475  2.0218 -0.4555
 6642SOL     OW31144   4.833   2.190   4.301 -0.4482  0.1539  0.3560
 6642SOL    HW131145   4.797   2.233   4.383 -1.3013  0.5109 -0.1962
 6642SOL    HW231146   4.760   2.179   4.234  0.2390 -0.1016 -0.3681
 6643SOL     OW31147   9.919   2.276   6.506  0.3114  0.1601 -0.7917
 6643SOL    HW131148   9.980   2.307   6.433 -0.8212  0.3968 -1.6424
 6643SOL    HW231149   9.880   2.188   6.481  0.7582 -0.2720  0.0237
 6644SOL     OW31150   0.358   9.898   5.884 -0.1120  0.4582  0.1459
 6644SOL    HW131151   0.348   9.989   5.843  0.2090  0.2257 -0.4488
 6644SOL    HW231152   0.452   9.885   5.913  0.0679 -0.0404 -0.6307
 6645SOL     OW31153   4.881   4.363   1.229  0.0836 -0.1453 -0.0340
 6645SOL    HW131154   4.809   4.432   1.225 -0.2158 -0.5049 -1.0509
 6645SOL    HW231155   4.970   4.409   1.238 -0.1704  0.3372  0.0738
 6646SOL     OW31156   8.586   0.103   6.414 -0.5626 -0.3767 -0.4806
 6646SOL    HW131157   8.637   0.023   6.384 -0.9381 -0.0746 -1.9539
 6646SOL    HW231158   8.650   0.178   6.433 -0.3017 -0.6687 -0.1935
 6647SOL     OW31159   0.621   9.443   0.729  0.6366  0.3012 -0.3896
 6647SOL    HW131160   0.553   9.382   0.769  0.7675 -0.6035 -1.5384
 6647SOL    HW231161   0.602   9.537   0.757  1.5230 -0.4239  2.9525
 6648SOL     OW31162   3.604   5.844   3.788 -0.1639  0.1444  0.0855
 6648SOL    HW131163   3.651   5.785   3.855  1.1684 -0.8742 -1.7059
 6648SOL    HW231164   3.646   5.935   3.789 -0.7820  0.4229  1.3065
 6649SOL     OW31165   8.916   8.925   1.832 -0.8101  0.3120  0.1391
 6649SOL    HW131166   8.953   8.889   1.918 -0.8433 -1.3791 -0.5346
 6649SOL    HW231167   8.990   8.933   1.765 -0.9229  0.8680  0.0848
 6650SOL     OW31168   1.364   4.159   4.638 -0.4744  0.1780  0.2446
 6650SOL    HW131169   1.272   4.142   4.675 -1.5319  0.9180 -1.8912
 6650SOL    HW231170   1.422   4.197   4.709 -2.0046  0.2793  1.4832
 6651SOL     OW31171   1.212   7.864   5.396 -0.9725 -0.6531 -0.4771
 6651SOL    HW131172   1.112   7.856   5.397 -0.9618 -0.8281 -0.6037
 6651SOL    HW231173   1.243   7.914   5.477 -1.2294  0.1804 -0.8836
 6652SOL     OW31174   0.022   2.493   2.392 -1.1002 -0.1413  0.0678
 6652SOL    HW131175   0.115   2.457   2.389 -0.7132  0.9152 -1.0448
 6652SOL    HW231176  -0.043   2.417   2.388 -0.2962 -0.7989 -0.9920
 6653SOL     OW31177   3.021   9.544   0.812 -0.1794  0.0097 -0.3987
 6653SOL    HW131178   2.981   9.634   0.799 -1.4333 -0.4806  0.0580
 6653SOL    HW231179   2.966   9.491   0.876  0.7675 -0.9439 -0.3504
 6654SOL     OW31180   9.691   1.844   6.211 -0.1685  0.4236  0.2180
 6654SOL    HW131181   9.708   1.805   6.120  0.3056  1.3364 -0.0880
 6654SOL    HW231182   9.633   1.781   6.264 -0.0340 -0.3405 -0.5357
 6655SOL     OW31183   1.937   8.023   5.487 -0.2013 -0.6485 -0.0256
 6655SOL    HW131184   2.002   8.057   5.555 -0.9934  1.2731 -0.2136
 6655SOL    HW231185   1.986   7.966   5.421  0.9645 -0.7116  0.8683
 6656SOL     OW31186   0.408   3.767   0.859 -0.0639  0.5516 -0.4430
 6656SOL    HW131187   0.499   3.726   0.855  0.2716  0.9864  2.0158
 6656SOL    HW231188   0.349   3.723   0.791  1.6434 -0.5472 -1.2573
 6657SOL     OW31189   5.439   2.486   2.882 -0.2574  0.2952 -0.3325
 6657SOL    HW131190   5.380   2.478   2.802  2.1656 -0.5340 -2.1021
 6657SOL    HW231191   5.436   2.579   2.918 -1.5391  0.6058 -1.2375
 6658SOL     OW31192   3.552   3.093   5.323  0.8135  0.3531  0.7489
 6658SOL    HW131193   3.556   3.154   5.244  1.0634  0.6624  1.0016
 6658SOL    HW231194   3.553   2.998   5.291  1.8965  0.4660  0.4171
 6659SOL     OW31195   0.275   8.603   4.303 -0.3036  0.2134 -0.2823
 6659SOL    HW131196   0.248   8.604   4.399 -0.3941  3.5368 -0.2703
 6659SOL    HW231197   0.346   8.535   4.288 -2.0031 -2.0461  1.6172
 6660SOL     OW31198   5.178   1.945   2.119  0.5266 -0.0070  0.3270
 6660SOL    HW131199   5.162   1.863   2.066 -0.5933  1.0113 -0.9457
 6660SOL    HW231200   5.273   1.975   2.107  0.1583  0.4864 -1.5315
 6661SOL     OW31201   8.832   3.124   1.947  0.7057 -0.2374 -0.6159
 6661SOL    HW131202   8.875   3.120   2.037 -0.1743  0.8550 -0.1299
 6661SOL    HW231203   8.834   3.218   1.914 -1.1562 -0.1812 -0.6389
 6662SOL     OW31204   4.161   9.744   3.080  0.0202 -0.3200  0.1843
 6662SOL    HW131205   4.197   9.800   3.005  0.1277 -1.2982 -0.5019
 6662SOL    HW231206   4.237   9.694   3.123 -0.1678 -0.4157  0.4030
 6663SOL     OW31207   5.630   0.144   3.118  1.0328  0.6983  0.0515
 6663SOL    HW131208   5.640   0.141   3.217  0.1813  0.5287  0.1318
 6663SOL    HW231209   5.627   0.240   3.088 -0.3499  0.7628  0.3622
 6664SOL     OW31210   4.550   8.806   5.302  0.6661 -0.2236  0.1584
 6664SOL    HW131211   4.563   8.894   5.258  0.0520 -0.1553  0.1138
 6664SOL    HW231212   4.626   8.789   5.365 -0.0784  1.0861  1.4268
 6665SOL     OW31213   4.842   2.465   1.703  0.7159 -0.3009  0.4218
 6665SOL    HW131214   4.932   2.460   1.659 -0.7479 -1.4171 -2.5297
 6665SOL    HW231215   4.803   2.373   1.709  0.0282  0.0946  2.3159
 6666SOL     OW31216   3.079   5.462   5.254  0.2839 -0.1680 -0.1082
 6666SOL    HW131217   3.086   5.499   5.347 -2.5668  1.3160 -0.4172
 6666SOL    HW231218   3.068   5.363   5.259  0.6502 -0.1573  1.1241
 6667SOL     OW31219   4.787   3.600   3.972 -0.0480 -0.5294  0.1750
 6667SOL    HW131220   4.778   3.699   3.955  0.8920 -0.4740 -0.0158
 6667SOL    HW231221   4.860   3.563   3.915  0.5342 -1.0748  1.2521
 6668SOL     OW31222   4.414   0.327   4.944 -0.3026  0.0295  0.0238
 6668SOL    HW131223   4.378   0.388   5.014 -0.6833  1.0332 -1.0354
 6668SOL    HW231224   4.345   0.312   4.873 -0.6954 -2.7041  0.9345
 6669SOL     OW31225   9.984   2.150   0.865 -0.1196  0.0052 -0.1496
 6669SOL    HW131226   9.982   2.211   0.786 -1.0298  0.5193  0.2636
 6669SOL    HW231227   9.922   2.073   0.849 -1.5693  0.9622  0.7290
 6670SOL     OW31228   3.416   1.027   2.467 -0.3734 -0.0372  0.0752
 6670SOL    HW131229   3.330   1.057   2.509 -0.0631 -0.8208  1.3113
 6670SOL    HW231230   3.481   1.004   2.539 -0.1572 -2.3873 -0.8399
 6671SOL     OW31231   3.142   1.448   4.955  0.3701  0.6824 -0.0849
 6671SOL    HW131232   3.220   1.509   4.970  1.1154 -0.3228  0.1930
 6671SOL    HW231233   3.105   1.419   5.042 -1.2741  2.3192 -0.1984
 6672SOL     OW31234   2.644   6.354   0.402 -0.0551 -0.9757 -0.0329
 6672SOL    HW131235   2.705   6.277   0.419 -0.3281 -0.9925  0.8881
 6672SOL    HW231236   2.577   6.361   0.476  0.4407  0.6003  0.3041
 6673SOL     OW31237   3.301   9.893   4.109  0.4100 -0.4345 -0.2009
 6673SOL    HW131238   3.283   9.834   4.030 -2.5854  2.3032 -1.6870
 6673SOL    HW231239   3.386   9.943   4.095 -0.2622  0.2720 -1.8555
 6674SOL     OW31240   7.994   0.795   4.262 -0.8231  0.0018  0.3223
 6674SOL    HW131241   8.067   0.817   4.327 -1.5669  0.4287  1.0305
 6674SOL    HW231242   8.011   0.706   4.220  0.6880  0.5915 -0.3542
 6675SOL     OW31243   2.868   7.069   2.214 -0.2593  0.4009  0.1823
 6675SOL    HW131244   2.885   7.007   2.291  0.5092 -0.3783 -0.6070
 6675SOL    HW231245   2.928   7.148   2.221  0.4077 -0.0836 -0.0779
 6676SOL     OW31246   5.316   1.514   0.823 -0.7873  0.2351 -0.3678
 6676SOL    HW131247   5.412   1.538   0.809 -1.2271  1.0985 -1.9251
 6676SOL    HW231248   5.311   1.431   0.880  0.8324  1.1131  1.1148
 6677SOL     OW31249   1.743   1.574   3.345 -0.0692  0.1415 -0.7519
 6677SOL    HW131250   1.800   1.646   3.383  0.2927 -0.2536 -0.5429
 6677SOL    HW231251   1.762   1.564   3.247  1.4069 -1.0878 -0.3581
 6678SOL     OW31252   0.728   0.568   6.175  0.2253 -0.0273 -0.2418
 6678SOL    HW131253   0.766   0.593   6.264 -1.2155  0.0380  0.3765
 6678SOL    HW231254   0.719   0.650   6.119  1.0323 -0.0516 -0.4135
 6679SOL     OW31255   3.225   4.942   3.324  0.2585 -0.4654  0.2603
 6679SOL    HW131256   3.209   4.850   3.360  0.2774 -0.5684  0.0050
 6679SOL    HW231257   3.241   4.937   3.225 -0.0768 -0.1551  0.1878
 6680SOL     OW31258   4.223   9.107   0.958 -0.2717 -0.4311 -0.1157
 6680SOL    HW131259   4.209   9.110   1.057 -1.7166 -1.0248 -0.2925
 6680SOL    HW231260   4.137   9.082   0.913  0.0996  0.9079 -1.5938
 6681SOL     OW31261   5.043   0.437   4.611  0.0974 -0.4589 -0.3103
 6681SOL    HW131262   5.088   0.485   4.687 -0.1974 -0.3664 -0.1934
 6681SOL    HW231263   4.965   0.385   4.646  0.9314 -1.7078 -0.3160
 6682SOL     OW31264   3.977   9.888   0.913  0.6093 -0.5864  0.3068
 6682SOL    HW131265   3.935   9.848   0.831  0.9332  1.3989 -0.8887
 6682SOL    HW231266   4.023   9.973   0.887  1.4772 -0.3998  2.4219
 6683SOL     OW31267   9.136   5.643   5.594 -0.2003 -0.2866  0.3996
 6683SOL    HW131268   9.207   5.646   5.524  0.2165  0.0858  0.8378
 6683SOL    HW231269   9.065   5.578   5.567 -0.7541  0.9113 -1.0585
 6684SOL     OW31270   2.393   8.517   1.641  0.4227 -0.3879 -0.5575
 6684SOL    HW131271   2.372   8.611   1.613 -0.9231 -0.8594 -1.2071
 6684SOL    HW231272   2.325   8.486   1.708  0.7322 -0.9692 -0.5117
 6685SOL     OW31273   2.456   8.145   4.900 -0.5390 -0.2262 -0.2098
 6685SOL    HW131274   2.496   8.122   4.988  0.6657  1.1000 -0.3923
 6685SOL    HW231275   2.528   8.170   4.835 -1.6102  2.2104 -0.5316
 6686SOL     OW31276   6.876   4.020   1.322  0.7115 -0.0617  0.1583
 6686SOL    HW131277   6.905   4.027   1.418  3.0741  0.3565 -0.5566
 6686SOL    HW231278   6.861   4.112   1.285 -0.0912 -0.2192  0.0708
 6687SOL     OW31279   1.931   2.182   4.530  0.4813  0.6183  0.6946
 6687SOL    HW131280   1.862   2.255   4.533  0.7271  0.8671  0.3491
 6687SOL    HW231281   2.010   2.207   4.586 -0.5412 -0.5401  2.7158
 6688SOL     OW31282   6.439   7.608   2.673  0.2393  0.2059  0.4246
 6688SOL    HW131283   6.422   7.705   2.692 -1.3258  0.3396 -1.4571
 6688SOL    HW231284   6.499   7.600   2.594  0.4842 -0.3602  0.6692
 6689SOL     OW31285   3.728   7.435   5.402  0.0809 -0.5284 -0.0166
 6689SOL    HW131286   3.820   7.415   5.433  0.1339 -0.9765 -0.4450
 6689SOL    HW231287   3.728   7.445   5.302 -0.4410 -1.1836 -0.0877
 6690SOL     OW31288   9.606   2.623   4.597 -0.2990  0.5697  0.4015
 6690SOL    HW131289   9.650   2.700   4.550 -0.7371 -0.5926 -1.9936
 6690SOL    HW231290   9.670   2.583   4.662  1.0071  1.0368 -0.5716
 6691SOL     OW31291   3.727   3.884   1.291  0.3019 -0.2706  0.2332
 6691SOL    HW131292   3.753   3.851   1.382  0.7910 -0.3623  0.0636
 6691SOL    HW231293   3.661   3.821   1.250 -1.0521  0.5582  1.1227
 6692SOL     OW31294   9.025   7.757   1.672 -0.0708 -0.4212 -0.8824
 6692SOL    HW131295   9.040   7.776   1.575 -0.3297  1.7865 -0.5015
 6692SOL    HW231296   9.113   7.757   1.720 -0.1507  0.8353 -0.7177
 6693SOL     OW31297   9.903   9.030   5.483  0.2795 -0.2275 -0.2590
 6693SOL    HW131298   9.946   9.107   5.529 -0.3999 -0.1788  0.2958
 6693SOL    HW231299   9.912   8.947   5.539 -0.1677 -0.2609 -0.2338
 6694SOL     OW31300   2.262   0.206   4.869  0.0056 -0.4813 -0.5952
 6694SOL    HW131301   2.263   0.301   4.839  2.7204 -0.2137  0.1786
 6694SOL    HW231302   2.348   0.162   4.843 -0.7355 -2.3932  0.0766
 6695SOL     OW31303   5.537   7.893   4.575  0.0758  0.1819 -0.3939
 6695SOL    HW131304   5.554   7.937   4.664 -0.0612  1.7683 -1.1302
 6695SOL    HW231305   5.498   7.960   4.512  1.2140 -0.6225 -1.9975
 6696SOL     OW31306   1.103   2.820   3.507 -0.5238 -0.4490  0.8603
 6696SOL    HW131307   1.099   2.731   3.462 -0.6422  0.7583 -1.5518
 6696SOL    HW231308   1.040   2.884   3.462 -0.0215  1.0264  2.1962
 6697SOL     OW31309   0.078   9.868   2.462  0.2387  0.0962 -0.5387
 6697SOL    HW131310   0.160   9.922   2.444 -0.0425  0.4697 -0.6916
 6697SOL    HW231311   0.004   9.928   2.493 -0.2414 -0.1232 -1.2509
 6698SOL     OW31312   8.326   5.667   2.461  0.4207 -0.8587 -0.0913
 6698SOL    HW131313   8.329   5.582   2.408  0.5107 -0.0590 -1.3739
 6698SOL    HW231314   8.393   5.732   2.424 -0.9458  0.4520 -0.2871
 6699SOL     OW31315   1.757   8.613   3.090  0.0564 -0.4704 -0.1036
 6699SOL    HW131316   1.776   8.646   3.182  1.8819 -0.2971 -0.5329
 6699SOL    HW231317   1.678   8.662   3.052 -0.5825 -0.4110  1.2781
 6700SOL     OW31318   0.668   7.484   2.884 -0.2571  1.0218 -0.1809
 6700SOL    HW131319   0.714   7.489   2.796  0.8974 -0.6064  0.3075
 6700SOL    HW231320   0.675   7.573   2.930 -1.1729  1.9831 -1.8523
 6701SOL     OW31321   9.255   8.688   6.359  0.3565  0.0529 -0.4956
 6701SOL    HW131322   9.278   8.785   6.357  1.0309 -0.0904 -0.1889
 6701SOL    HW231323   9.206   8.663   6.275 -1.5298  1.0515  0.2820
 6702SOL     OW31324   1.358   6.136   4.830 -0.3649  0.2352  0.0196
 6702SOL    HW131325   1.408   6.077   4.767 -0.6736 -0.1774  0.1627
 6702SOL    HW231326   1.325   6.216   4.780  0.8128  0.7359  0.0148
 6703SOL     OW31327   6.131   8.206   2.370  0.1733 -0.3523 -0.8637
 6703SOL    HW131328   6.134   8.130   2.434  0.6761 -1.4830 -2.2093
 6703SOL    HW231329   6.109   8.172   2.279  0.7418  1.0793 -1.5513
 6704SOL     OW31330   0.980   7.290   0.256 -0.2307 -0.2480 -0.7251
 6704SOL    HW131331   1.011   7.277   0.161  0.1356  2.8091 -1.0548
 6704SOL    HW231332   1.046   7.249   0.318  0.9576  0.1630 -1.6934
 6705SOL     OW31333   8.248   8.561   2.506  0.5280 -0.1424 -0.6382
 6705SOL    HW131334   8.313   8.530   2.436  1.4317 -2.2845  1.0977
 6705SOL    HW231335   8.296   8.580   2.591 -0.6657  1.7561 -0.3447
 6706SOL     OW31336   3.471   5.393   2.142  0.0158  0.1117  0.0478
 6706SOL    HW131337   3.471   5.302   2.182  0.5319  0.4289  0.7663
 6706SOL    HW231338   3.451   5.461   2.212  1.6941  0.7340 -0.0681
 6707SOL     OW31339   0.155   8.405   0.468  0.7486 -0.0585  0.2261
 6707SOL    HW131340   0.200   8.335   0.412  0.6037 -1.4743  1.8496
 6707SOL    HW231341   0.057   8.384   0.473  1.0142 -0.8687  2.3298
 6708SOL     OW31342   7.712   4.293   5.521  0.3824 -0.2930 -0.3926
 6708SOL    HW131343   7.643   4.311   5.591  1.5600 -0.4956  0.8354
 6708SOL    HW231344   7.692   4.207   5.474  0.7547 -1.2539  1.1652
 6709SOL     OW31345   0.907   4.740   1.947 -0.1033  0.0942  0.4152
 6709SOL    HW131346   0.988   4.702   1.991  0.6584  1.7909  0.5197
 6709SOL    HW231347   0.930   4.768   1.854 -0.8519 -0.3753  0.0806
 6710SOL     OW31348   5.003   6.549   1.830 -0.1368 -0.2385 -0.2485
 6710SOL    HW131349   5.039   6.464   1.792  0.7542 -1.0508  2.2539
 6710SOL    HW231350   5.072   6.621   1.823  0.2535 -0.5474  0.3201
 6711SOL     OW31351   2.627   9.824   2.655 -0.2568  0.3098  0.0315
 6711SOL    HW131352   2.542   9.813   2.604 -1.3581  0.7939  1.7161
 6711SOL    HW231353   2.702   9.842   2.592 -1.7250  1.6807 -1.3487
 6712SOL     OW31354   0.459   1.471   4.599 -0.7886  0.2159 -0.3225
 6712SOL    HW131355   0.454   1.472   4.699 -1.8820 -1.8372 -0.3181
 6712SOL    HW231356   0.550   1.499   4.570  0.6909 -2.4927  1.4091
 6713SOL     OW31357   6.755   7.248   3.808  0.4230  0.3398  0.0097
 6713SOL    HW131358   6.716   7.178   3.868 -1.3590 -0.3120 -1.8036
 6713SOL    HW231359   6.689   7.269   3.736  2.2232  1.5768 -1.3182
 6714SOL     OW31360   4.001   9.519   3.489  0.2233 -0.1090 -0.1055
 6714SOL    HW131361   4.018   9.576   3.409 -0.0247 -0.3742 -0.3459
 6714SOL    HW231362   4.027   9.425   3.469  0.0100 -0.2067  0.0757
 6715SOL     OW31363   4.233   4.209   0.571  0.1862 -0.2752 -0.2552
 6715SOL    HW131364   4.216   4.278   0.500  1.1841  0.5390  0.2777
 6715SOL    HW231365   4.276   4.129   0.530 -0.5732 -0.4086 -0.8089
 6716SOL     OW31366   2.318   6.872   3.822 -0.1592  0.1618  0.0998
 6716SOL    HW131367   2.399   6.851   3.877 -0.3833  1.6649  1.0125
 6716SOL    HW231368   2.236   6.868   3.880 -0.3601  2.0614 -0.0361
 6717SOL     OW31369   7.423   6.557   4.472  0.5891  0.1531  0.2983
 6717SOL    HW131370   7.460   6.483   4.528  0.1721  0.5217  1.0599
 6717SOL    HW231371   7.349   6.521   4.415  0.6735 -0.1112  0.3541
 6718SOL     OW31372   1.150   3.309   0.229  0.2783 -0.1024 -0.0438
 6718SOL    HW131373   1.143   3.392   0.283  2.4978  0.1773 -0.1221
 6718SOL    HW231374   1.216   3.322   0.155  1.3952 -2.2192  0.5271
 6719SOL     OW31375   9.196   8.653   0.153 -0.1379  0.2300  0.5144
 6719SOL    HW131376   9.219   8.565   0.110  0.8265  0.3754  0.7220
 6719SOL    HW231377   9.256   8.668   0.231  0.9925  1.9774 -0.6627
 6720SOL     OW31378   4.540   3.698   3.412 -0.0671  0.0629  0.5379
 6720SOL    HW131379   4.441   3.695   3.418  0.0010 -1.0141  1.3975
 6720SOL    HW231380   4.570   3.664   3.323 -0.4657  0.2036  0.3537
 6721SOL     OW31381   4.049   5.545   1.812  0.1376  0.5572 -0.3167
 6721SOL    HW131382   4.108   5.549   1.731 -1.0000  2.2892 -1.0751
 6721SOL    HW231383   3.953   5.552   1.785 -0.3494 -0.5382  1.0529
 6722SOL     OW31384   0.468   8.713   2.212  0.3310 -0.2336  0.3618
 6722SOL    HW131385   0.491   8.616   2.220  1.3036 -0.1178 -0.8131
 6722SOL    HW231386   0.492   8.745   2.120  0.1587  1.1549  0.7898
 6723SOL     OW31387   0.458   3.217   4.345 -0.4893 -0.4876  0.3397
 6723SOL    HW131388   0.381   3.176   4.295 -0.0904 -0.5024 -0.2719
 6723SOL    HW231389   0.537   3.224   4.284 -0.1301 -0.0932  0.8462
 6724SOL     OW31390   8.206   4.739   0.163 -0.0444  0.3463  0.4551
 6724SOL    HW131391   8.137   4.667   0.172 -1.6672  1.9983  1.5837
 6724SOL    HW231392   8.297   4.700   0.179 -0.8537 -1.4985  0.7220
 6725SOL     OW31393   9.124   6.652   6.522 -0.2650 -0.1639  0.7386
 6725SOL    HW131394   9.215   6.691   6.506 -1.0410  1.2608 -0.1828
 6725SOL    HW231395   9.055   6.724   6.521 -1.6567 -1.4838 -0.4516
 6726SOL     OW31396   2.800   0.725   0.278  0.1173 -0.4615  0.0427
 6726SOL    HW131397   2.771   0.631   0.263 -1.5832  0.2813 -1.6561
 6726SOL    HW231398   2.894   0.737   0.248  0.1186 -1.4586 -0.3550
 6727SOL     OW31399   4.476   4.895   0.860 -0.3436  0.2531  0.7746
 6727SOL    HW131400   4.475   4.796   0.872  0.6849  0.0605 -0.5592
 6727SOL    HW231401   4.423   4.919   0.779 -1.3886  0.8913  1.6310
 6728SOL     OW31402   8.363   2.512   5.485  0.5767  0.0056  0.4134
 6728SOL    HW131403   8.389   2.429   5.436 -0.6624 -1.1842  1.7530
 6728SOL    HW231404   8.412   2.516   5.572  0.1795  0.3744  0.6225
 6729SOL     OW31405   8.690   5.238   1.832 -0.4324  0.0592  0.1384
 6729SOL    HW131406   8.674   5.309   1.764  0.4169 -0.8230 -1.0129
 6729SOL    HW231407   8.755   5.271   1.901  0.9216 -0.0026 -1.0745
 6730SOL     OW31408   2.434   8.914   3.437 -0.0072 -0.4227  0.4865
 6730SOL    HW131409   2.346   8.955   3.457  0.7474  1.9100 -0.8540
 6730SOL    HW231410   2.487   8.905   3.522  0.2895  2.5426  0.6704
 6731SOL     OW31411   9.593   4.834   2.640  0.7008  0.1760 -0.0683
 6731SOL    HW131412   9.651   4.838   2.559 -0.3002  2.3699 -0.7401
 6731SOL    HW231413   9.555   4.742   2.651  1.6701 -0.4006 -1.4958
 6732SOL     OW31414   7.484   2.780   3.960 -0.2110  0.1002  0.7123
 6732SOL    HW131415   7.462   2.747   3.868  1.7881  0.9854 -0.1037
 6732SOL    HW231416   7.485   2.702   4.023  0.8413 -0.8889 -0.4872
 6733SOL     OW31417   3.864   7.576   2.823  0.1160 -0.0716 -0.0267
 6733SOL    HW131418   3.939   7.511   2.838 -1.1490 -1.0566  2.2199
 6733SOL    HW231419   3.873   7.653   2.886  0.9199  1.3552 -1.8498
 6734SOL     OW31420   9.590   6.824   5.696 -0.0323 -0.1266  0.3432
 6734SOL    HW131421   9.637   6.912   5.688  0.3394 -0.1573  2.1451
 6734SOL    HW231422   9.565   6.792   5.604 -0.0614  1.7860 -0.3332
 6735SOL     OW31423   4.904   5.319   1.887  0.5916 -0.5306  0.3717
 6735SOL    HW131424   4.913   5.330   1.788  0.9947  0.4439  0.5144
 6735SOL    HW231425   4.910   5.222   1.910 -1.1128 -0.9269 -0.7143
 6736SOL     OW31426   1.872   9.891   3.510  0.3662  0.5535  0.4269
 6736SOL    HW131427   1.773   9.903   3.522 -0.0503 -0.4812 -1.6146
 6736SOL    HW231428   1.901   9.940   3.427  1.1296 -1.0427 -0.2675
 6737SOL     OW31429   3.735   8.301   4.326 -0.0336 -0.3202  0.4464
 6737SOL    HW131430   3.814   8.330   4.380  0.1266  3.0845 -1.4715
 6737SOL    HW231431   3.766   8.258   4.241 -0.1939  0.9456 -0.2706
 6738SOL     OW31432   5.538   0.977   2.126  0.4136  0.1376 -0.0598
 6738SOL    HW131433   5.458   0.933   2.085  0.0452  0.7794 -0.0327
 6738SOL    HW231434   5.576   0.916   2.196 -0.0509 -0.1765 -0.0741
 6739SOL     OW31435   1.880   2.116   3.586  0.3635  0.2495  0.0956
 6739SOL    HW131436   1.936   2.143   3.507  0.4896  2.2702  0.8452
 6739SOL    HW231437   1.935   2.120   3.669 -0.5541  1.0746  0.6765
 6740SOL     OW31438   3.031   8.758   4.941 -0.0132 -0.0952 -0.2222
 6740SOL    HW131439   3.004   8.800   4.854 -0.2353 -2.6104 -1.4217
 6740SOL    HW231440   3.130   8.746   4.944  0.0233  0.2614  0.0011
 6741SOL     OW31441   9.363   7.758   4.355 -0.4524  0.1728 -0.5403
 6741SOL    HW131442   9.366   7.825   4.430 -0.8045 -0.3401 -0.0644
 6741SOL    HW231443   9.382   7.667   4.391  0.3451  0.0563 -1.2444
 6742SOL     OW31444   3.439   9.346   1.177  0.1140 -0.1528  0.8313
 6742SOL    HW131445   3.341   9.362   1.179  0.2565  1.0159 -0.9033
 6742SOL    HW231446   3.488   9.431   1.195  0.8170 -0.4947  0.5774
 6743SOL     OW31447   8.270   1.218   0.258 -0.2533  0.0470 -0.4713
 6743SOL    HW131448   8.206   1.211   0.182 -1.3394 -3.3294  0.6565
 6743SOL    HW231449   8.219   1.229   0.343  0.7037 -1.3493  0.3030
 6744SOL     OW31450   2.432   3.223   0.006 -0.1992  0.0998 -0.4949
 6744SOL    HW131451   2.491   3.192   0.080 -1.3915 -1.1240 -0.0390
 6744SOL    HW231452   2.394   3.313   0.029  1.8690  1.1387 -1.0308
 6745SOL     OW31453   7.100   7.335   5.196 -0.0128 -0.1208  0.0783
 6745SOL    HW131454   7.099   7.434   5.209 -0.1506  0.0498 -1.2115
 6745SOL    HW231455   7.181   7.309   5.144  0.3162 -0.7592  0.8934
 6746SOL     OW31456   1.347   6.728   0.842  0.4326 -0.1502  0.4508
 6746SOL    HW131457   1.257   6.745   0.802  0.7279  0.4194  0.0267
 6746SOL    HW231458   1.373   6.633   0.828  0.2136 -0.1307 -0.0643
 6747SOL     OW31459   6.736   0.788   2.989 -0.2931 -0.0131  0.6736
 6747SOL    HW131460   6.678   0.708   2.970  1.3181 -1.4092  1.5407
 6747SOL    HW231461   6.704   0.865   2.934 -2.0382 -1.1696  0.0013
 6748SOL     OW31462   1.693   2.895   6.373 -0.1317 -0.3680 -1.1438
 6748SOL    HW131463   1.747   2.880   6.456 -1.7156 -0.4014 -0.1013
 6748SOL    HW231464   1.750   2.877   6.292  1.7825  0.8451 -0.0974
 6749SOL     OW31465   6.781   3.167   2.934  0.0594 -0.0476  0.3478
 6749SOL    HW131466   6.836   3.159   3.017  1.1222 -1.9153 -0.5165
 6749SOL    HW231467   6.838   3.201   2.860 -0.8513  1.4580  0.3088
 6750SOL     OW31468   8.715   5.695   3.389  0.1688 -0.7102  0.1789
 6750SOL    HW131469   8.756   5.783   3.410  0.8863 -0.5006 -1.9606
 6750SOL    HW231470   8.683   5.652   3.473  0.4736  1.2539  1.3226
 6751SOL     OW31471   7.815   7.978   2.130  0.0496  0.3357  0.5229
 6751SOL    HW131472   7.845   7.950   2.039 -0.3819  0.1226  0.4411
 6751SOL    HW231473   7.843   8.072   2.148  1.2711 -0.0583  0.6901
 6752SOL     OW31474   6.963   9.683   3.973  0.4876 -0.2112 -0.2090
 6752SOL    HW131475   6.935   9.588   3.987  0.6470 -0.2610 -0.2246
 6752SOL    HW231476   6.997   9.720   4.060 -1.7224  0.5552  0.3646
 6753SOL     OW31477   8.938   2.122   2.787 -0.2813  0.0864 -0.6293
 6753SOL    HW131478   8.974   2.076   2.868  0.6026  1.0619 -0.4499
 6753SOL    HW231479   8.840   2.104   2.779 -0.3945  0.0376  0.6958
 6754SOL     OW31480   3.036   8.525   6.452  0.4497 -0.2529  0.1689
 6754SOL    HW131481   2.975   8.445   6.453  0.0737  0.0427  1.9111
 6754SOL    HW231482   3.126   8.498   6.420  0.2613 -1.3316  0.5446
 6755SOL     OW31483   0.863   3.594   3.955 -0.1985 -0.3118  0.2482
 6755SOL    HW131484   0.957   3.565   3.939  0.8867  2.2966  1.6601
 6755SOL    HW231485   0.834   3.564   4.046 -1.6524 -3.2804 -1.1221
 6756SOL     OW31486   0.117   0.245   6.048 -0.1539  0.0254 -0.7595
 6756SOL    HW131487   0.072   0.251   6.137  0.0263 -1.7386 -0.5238
 6756SOL    HW231488   0.205   0.293   6.051  0.0167 -0.3358  0.1410
 6757SOL     OW31489   1.238   5.711   6.005 -0.2244  0.1510  0.1366
 6757SOL    HW131490   1.298   5.746   6.077  1.1404  1.0356 -1.3840
 6757SOL    HW231491   1.292   5.659   5.939 -0.9522  1.6535 -1.6914
 6758SOL     OW31492   6.373   8.200   4.709  0.5237  0.1045  0.4787
 6758SOL    HW131493   6.401   8.108   4.685 -0.6552 -0.6520  1.9023
 6758SOL    HW231494   6.356   8.253   4.626  0.4955 -1.1714 -0.3402
 6759SOL     OW31495   9.106   3.733   4.257 -0.0889 -0.0691 -0.5184
 6759SOL    HW131496   9.014   3.703   4.281 -0.0143 -0.3914 -0.6295
 6759SOL    HW231497   9.138   3.801   4.322  0.2479 -1.1832  0.4999
 6760SOL     OW31498   6.316   7.834   3.286  0.6559 -0.2545 -0.3161
 6760SOL    HW131499   6.253   7.898   3.244 -1.2231 -1.9715 -0.1620
 6760SOL    HW231500   6.343   7.868   3.376 -0.4146  0.2440 -0.1808
 6761SOL     OW31501   0.095   6.157   4.518  0.0698  0.2664 -0.3221
 6761SOL    HW131502   0.191   6.146   4.543 -0.0320 -1.0638 -0.4597
 6761SOL    HW231503   0.040   6.166   4.600  0.0127 -1.6952 -0.1189
 6762SOL     OW31504   6.094   0.417   2.767 -0.0925  0.0717 -0.8205
 6762SOL    HW131505   6.100   0.347   2.838  0.9546 -0.3082 -1.2623
 6762SOL    HW231506   6.010   0.404   2.714  1.0654 -2.1790 -2.2205
 6763SOL     OW31507   6.357   9.555   3.304 -0.0219 -0.4995 -0.2794
 6763SOL    HW131508   6.449   9.549   3.266 -0.9980 -1.1095 -2.5869
 6763SOL    HW231509   6.342   9.647   3.339  2.2140 -0.9871  2.1776
 6764SOL     OW31510   5.164   2.093   1.063 -0.1835 -0.1054  0.1070
 6764SOL    HW131511   5.148   2.190   1.048  0.8605 -0.2325 -1.9231
 6764SOL    HW231512   5.202   2.051   0.980 -0.8882 -2.3074  0.8451
 6765SOL     OW31513   4.186   9.514   2.556  0.6393 -0.1949  0.3520
 6765SOL    HW131514   4.190   9.591   2.621 -1.1847  1.6308 -1.6193
 6765SOL    HW231515   4.272   9.507   2.507  1.3545 -0.3984  1.5999
 6766SOL     OW31516   7.801   9.599   6.364  0.1456  0.3363 -0.0025
 6766SOL    HW131517   7.741   9.643   6.430  0.0807 -1.5729  1.2652
 6766SOL    HW231518   7.815   9.503   6.390  1.5688  0.0226 -1.7706
 6767SOL     OW31519   3.244   9.066   6.226 -0.1594  0.3217 -0.6198
 6767SOL    HW131520   3.229   8.967   6.226  2.3354 -0.0717 -0.3696
 6767SOL    HW231521   3.253   9.099   6.132  0.2268  0.1097 -0.6589
 6768SOL     OW31522   4.135   4.091   2.582 -0.0371  0.4953 -0.1554
 6768SOL    HW131523   4.178   4.056   2.665 -0.1181  1.8699  0.4648
 6768SOL    HW231524   4.129   4.190   2.586 -0.5024  0.5365 -1.5855
 6769SOL     OW31525   0.942   3.156   0.817  0.2927  0.9201 -0.7347
 6769SOL    HW131526   1.012   3.100   0.861 -0.3932 -1.3896 -2.4837
 6769SOL    HW231527   0.935   3.244   0.864  2.0917 -0.0653  1.4597
 6770SOL     OW31528   9.459   5.830   2.123 -0.0853 -0.0630 -0.1848
 6770SOL    HW131529   9.468   5.762   2.049  1.5107  0.0582 -0.1009
 6770SOL    HW231530   9.422   5.785   2.204  0.6444 -0.7625 -0.2346
 6771SOL     OW31531   9.237   8.218   5.289 -0.1645  0.6116 -0.3976
 6771SOL    HW131532   9.220   8.193   5.385 -0.7437 -1.4109 -1.0050
 6771SOL    HW231533   9.184   8.300   5.266 -0.3679  0.8520  0.8737
 6772SOL     OW31534   0.646   9.315   2.912 -0.2962 -0.3210  0.4964
 6772SOL    HW131535   0.630   9.275   2.822 -1.5545 -0.0011  0.5634
 6772SOL    HW231536   0.734   9.363   2.912 -0.4327 -0.0421 -0.6653
 6773SOL     OW31537   0.611   2.828   5.333  0.2128 -0.1721  0.1176
 6773SOL    HW131538   0.515   2.855   5.342  0.0919 -0.2849 -0.8391
 6773SOL    HW231539   0.660   2.898   5.281  0.2827 -0.9215 -0.8276
 6774SOL     OW31540   2.459   4.540   6.445 -0.4209 -0.3702  0.1145
 6774SOL    HW131541   2.393   4.533   6.520 -2.3670 -0.8543 -1.6130
 6774SOL    HW231542   2.478   4.449   6.409  0.6889 -0.1624  0.1496
 6775SOL     OW31543   6.438   9.266   2.383  0.2521 -0.4446  0.3422
 6775SOL    HW131544   6.432   9.263   2.284  0.9544 -1.9725  0.3388
 6775SOL    HW231545   6.380   9.340   2.418 -0.0649  0.0357 -1.1868
 6776SOL     OW31546   9.965   8.022   6.076 -0.1360 -0.0553 -0.3858
 6776SOL    HW131547   9.891   7.958   6.056 -0.7828  1.1524 -1.9560
 6776SOL    HW231548   9.943   8.111   6.038  0.2412  1.4351  2.7477
 6777SOL     OW31549   1.533   2.724   3.076  0.5073  0.3812 -0.0407
 6777SOL    HW131550   1.455   2.663   3.059  0.4272  0.6016 -0.4816
 6777SOL    HW231551   1.593   2.682   3.143  0.6863 -0.4058 -0.6739
 6778SOL     OW31552   7.964   8.036   3.464  0.2268 -0.1558  0.0638
 6778SOL    HW131553   7.922   8.066   3.550  0.5716 -0.2677  0.2727
 6778SOL    HW231554   7.908   7.964   3.422 -0.8087  1.0433 -0.6335
 6779SOL     OW31555   2.388   2.783   2.537  0.0845  0.2494 -0.5927
 6779SOL    HW131556   2.426   2.818   2.623  0.5237  0.2013 -0.7681
 6779SOL    HW231557   2.459   2.780   2.467 -0.4096  0.8558 -1.1331
 6780SOL     OW31558   2.697   1.276   2.117 -0.1213  0.2619 -0.4228
 6780SOL    HW131559   2.679   1.182   2.088  1.6899  0.2335 -1.4786
 6780SOL    HW231560   2.781   1.309   2.075  0.8659  1.3285  2.2581
 6781SOL     OW31561   8.657   6.364   2.480 -0.2778  0.2294  0.1269
 6781SOL    HW131562   8.709   6.334   2.560  0.5626 -0.0799 -0.5366
 6781SOL    HW231563   8.567   6.321   2.481 -0.2102  0.0989  0.8266
 6782SOL     OW31564   1.920   0.982   6.388 -0.5917 -0.2349  0.1754
 6782SOL    HW131565   1.997   0.918   6.395  0.4585  1.0875  0.9909
 6782SOL    HW231566   1.916   1.019   6.295 -0.7451 -0.9368 -0.0950
 6783SOL     OW31567   0.608   3.378   5.130  0.2160 -0.8339 -0.1521
 6783SOL    HW131568   0.624   3.461   5.183 -0.3239 -0.4076 -0.6554
 6783SOL    HW231569   0.680   3.369   5.061 -0.1120 -0.4300 -0.5434
 6784SOL     OW31570   7.691   4.582   5.751  0.1165 -0.2011 -0.5122
 6784SOL    HW131571   7.605   4.588   5.699  0.3236 -1.6807 -1.0477
 6784SOL    HW231572   7.759   4.643   5.710 -0.7019  1.0836 -0.0035
 6785SOL     OW31573   8.211   7.542   5.350 -0.3894  0.0442  0.1068
 6785SOL    HW131574   8.290   7.540   5.411  1.3214 -2.2260 -2.0411
 6785SOL    HW231575   8.222   7.616   5.283  0.3428 -0.7454 -0.6658
 6786SOL     OW31576   3.083   6.190   4.760  0.1456  0.4946  0.8414
 6786SOL    HW131577   3.166   6.220   4.713  0.0989  1.0853  1.1318
 6786SOL    HW231578   3.024   6.142   4.695  0.0347  1.3949  0.2619
 6787SOL     OW31579   8.121   5.667   6.289 -0.2503  0.0680  0.7183
 6787SOL    HW131580   8.123   5.576   6.248 -2.9840 -0.7731  2.3020
 6787SOL    HW231581   8.080   5.731   6.225  1.0159  0.0646 -0.1228
 6788SOL     OW31582   2.124   9.350   0.458  0.2001 -0.2019 -0.5528
 6788SOL    HW131583   2.189   9.274   0.468 -0.4308 -0.9296 -1.9476
 6788SOL    HW231584   2.087   9.372   0.548  2.4711  0.3213  0.3029
 6789SOL     OW31585   8.552   3.594   6.532  0.2744  1.1826 -0.1944
 6789SOL    HW131586   8.594   3.534   6.600  1.1075 -0.9367 -2.5033
 6789SOL    HW231587   8.453   3.581   6.532  0.3029  0.9535  0.3686
 6790SOL     OW31588   3.297   1.017   6.296  0.1338  0.2029 -0.1900
 6790SOL    HW131589   3.385   0.976   6.317 -1.9219 -4.0486  0.4837
 6790SOL    HW231590   3.300   1.056   6.203  1.8370 -2.4416 -1.2865
 6791SOL     OW31591   2.483   1.382   0.313  0.2422  0.1845 -0.5733
 6791SOL    HW131592   2.563   1.431   0.348 -0.5265  1.6679 -0.8903
 6791SOL    HW231593   2.508   1.334   0.228  1.3835 -1.2258  0.5281
 6792SOL     OW31594   9.513   3.757   0.563 -0.3741 -0.1463 -0.3881
 6792SOL    HW131595   9.529   3.827   0.494 -0.5678 -0.4114 -0.7055
 6792SOL    HW231596   9.494   3.800   0.651  1.5669  0.1732 -0.1146
 6793SOL     OW31597   6.022   0.781   4.211  0.3117  0.1609  0.0170
 6793SOL    HW131598   6.101   0.722   4.225  0.2864  0.3730  1.0899
 6793SOL    HW231599   6.040   0.871   4.252 -0.2102  0.4344 -0.3439
 6794SOL     OW31600   6.727   1.368   1.068  0.1489 -0.3017 -0.3304
 6794SOL    HW131601   6.646   1.311   1.057 -0.1266 -0.3313  1.7103
 6794SOL    HW231602   6.727   1.409   1.159  2.5263 -0.4312 -0.2507
 6795SOL     OW31603   9.880   8.915   0.226 -0.0807  0.3979  0.3979
 6795SOL    HW131604   9.834   8.970   0.296  0.8283  0.6533  0.7931
 6795SOL    HW231605   9.922   8.835   0.269  0.0696  0.3023  0.0747
 6796SOL     OW31606   8.853   5.519   0.085 -0.0715  0.7426 -0.5951
 6796SOL    HW131607   8.873   5.598   0.027 -2.0516  1.0756 -0.8434
 6796SOL    HW231608   8.755   5.512   0.099  0.1400 -1.3504 -0.0870
 6797SOL     OW31609   7.202   9.576   2.904 -0.0958  0.2523  0.0613
 6797SOL    HW131610   7.174   9.627   2.985  1.0158  3.0482 -1.2264
 6797SOL    HW231611   7.122   9.552   2.850 -0.8707 -1.9018  2.0987
 6798SOL     OW31612   1.008   7.278   4.113 -0.1468 -0.3389  0.3036
 6798SOL    HW131613   1.101   7.244   4.098  0.4157  1.2961 -0.0313
 6798SOL    HW231614   0.947   7.241   4.042  0.6177  0.0063 -0.5416
 6799SOL     OW31615   0.096   9.769   3.813 -0.1781  0.0958 -0.0541
 6799SOL    HW131616   0.101   9.848   3.752 -0.2992  0.9820  1.0634
 6799SOL    HW231617   0.135   9.793   3.902  0.3844 -1.3092  0.0929
 6800SOL     OW31618   2.825   4.663   5.097 -0.2692  0.0155 -0.0352
 6800SOL    HW131619   2.845   4.737   5.162  1.4451  0.9921 -1.6200
 6800SOL    HW231620   2.872   4.580   5.124 -0.0015  0.2686  0.2711
 6801SOL     OW31621   4.116   3.294   1.945 -0.6015  0.2091  0.3516
 6801SOL    HW131622   4.202   3.343   1.929  0.4568 -0.7993  2.7627
 6801SOL    HW231623   4.070   3.334   2.024  0.6528 -3.0540  2.8503
 6802SOL     OW31624   8.528   0.239   1.244  0.3927  0.5840  0.0234
 6802SOL    HW131625   8.620   0.263   1.276  0.0586 -1.1059  2.3239
 6802SOL    HW231626   8.463   0.308   1.275  0.7384  1.3522 -0.9198
 6803SOL     OW31627   4.911   1.169   0.135  0.2041  0.0731 -0.0975
 6803SOL    HW131628   4.826   1.131   0.097 -0.1664  0.8120 -0.0156
 6803SOL    HW231629   4.977   1.095   0.149  0.1199 -0.3124 -1.5867
 6804SOL     OW31630   9.375   9.635   4.808  0.1572 -0.3620  0.4114
 6804SOL    HW131631   9.448   9.601   4.749  1.6418  0.8778  1.4906
 6804SOL    HW231632   9.361   9.570   4.883  2.2344  0.7852  1.8574
 6805SOL     OW31633   2.739   4.096   2.845 -0.4492  0.2696  0.3648
 6805SOL    HW131634   2.801   4.133   2.775 -0.0705 -1.6049 -0.3290
 6805SOL    HW231635   2.778   4.109   2.935 -0.6460  2.1570  0.1936
 6806SOL     OW31636   3.242   6.094   3.909 -0.2009  0.2292  0.0283
 6806SOL    HW131637   3.265   5.996   3.913 -2.0723 -0.1744  1.2321
 6806SOL    HW231638   3.252   6.134   4.000  1.6480  1.4359 -0.6803
 6807SOL     OW31639   4.471   7.085   2.490 -0.0288 -0.8205  0.1785
 6807SOL    HW131640   4.396   7.122   2.435  2.2185  1.1348 -1.6967
 6807SOL    HW231641   4.438   7.068   2.583 -2.7484  0.0977 -0.5491
 6808SOL     OW31642   2.912   6.918   5.671  0.3029  0.7387  0.3175
 6808SOL    HW131643   2.854   6.917   5.752  1.2469  2.9622  1.0360
 6808SOL    HW231644   2.869   6.974   5.600  0.1455 -0.0748 -0.2396
 6809SOL     OW31645   8.919   8.000   5.826  0.4810 -0.4043  0.1072
 6809SOL    HW131646   8.995   8.008   5.890 -1.5850 -1.0527  2.7233
 6809SOL    HW231647   8.846   7.946   5.868 -0.7992 -1.1710 -2.9581
 6810SOL     OW31648   4.360   2.556   0.815  0.1737 -0.0658  0.7080
 6810SOL    HW131649   4.420   2.477   0.830 -1.5758 -1.3910  0.8708
 6810SOL    HW231650   4.267   2.524   0.798 -0.0263  1.8714 -2.0135
 6811SOL     OW31651   9.822   2.090   1.435 -0.3358 -0.0826 -0.3317
 6811SOL    HW131652   9.826   2.036   1.351  0.6181  0.3599 -0.5808
 6811SOL    HW231653   9.841   2.186   1.415  0.6725 -0.0923  0.4816
 6812SOL     OW31654   3.546   3.551   4.069  0.2151  0.1865  0.1359
 6812SOL    HW131655   3.625   3.590   4.022  0.2038  0.1727  0.1055
 6812SOL    HW231656   3.565   3.546   4.167  0.7611 -1.0215 -0.0172
 6813SOL     OW31657   9.757   8.467   3.812  0.2032  0.0149  0.0809
 6813SOL    HW131658   9.770   8.446   3.909  0.2803  0.8629  0.2607
 6813SOL    HW231659   9.832   8.426   3.759  0.5493  0.1454  0.4619
 6814SOL     OW31660   1.432   2.517   4.573  0.3233  0.2868 -1.1012
 6814SOL    HW131661   1.350   2.553   4.528 -0.0160  0.9028 -0.0281
 6814SOL    HW231662   1.446   2.422   4.546 -0.5288  0.2919 -1.5933
 6815SOL     OW31663   0.810   4.557   5.958  0.2375  0.0996  0.2786
 6815SOL    HW131664   0.742   4.624   5.930 -0.2924 -0.4086  0.3472
 6815SOL    HW231665   0.811   4.481   5.893 -0.7101 -0.8916  1.3953
 6816SOL     OW31666   8.820   9.171   0.660 -0.2514 -0.1012  0.0176
 6816SOL    HW131667   8.861   9.261   0.643 -0.0299  0.0907  1.4735
 6816SOL    HW231668   8.885   9.114   0.711 -0.4255 -1.0649 -0.8086
 6817SOL     OW31669   3.756   4.237   3.726  0.4465 -0.2721  0.3248
 6817SOL    HW131670   3.701   4.290   3.662  2.1679  0.6114 -0.4759
 6817SOL    HW231671   3.853   4.251   3.705  0.9825 -1.5897  1.8465
 6818SOL     OW31672   0.897   7.836   1.448  0.4771 -0.0433  0.1654
 6818SOL    HW131673   0.822   7.779   1.479  0.3374 -0.3161 -0.6593
 6818SOL    HW231674   0.959   7.854   1.525  0.0769 -0.5974  0.6246
 6819SOL     OW31675   4.870   3.038   1.169 -0.6564  0.2152  0.4053
 6819SOL    HW131676   4.828   3.074   1.086 -0.3165  1.6585  0.8408
 6819SOL    HW231677   4.950   3.093   1.192 -0.7214 -0.2007  1.6684
 6820SOL     OW31678   7.876   9.921   0.289 -0.5371 -0.1996  0.3045
 6820SOL    HW131679   7.938   9.947   0.363 -1.3361  1.4202  0.4365
 6820SOL    HW231680   7.809   9.855   0.322 -0.3108 -0.1932  0.7693
 6821SOL     OW31681   8.067   5.527   5.715 -0.0964  0.4512 -0.4663
 6821SOL    HW131682   8.160   5.542   5.682  0.5250  1.2149  1.5641
 6821SOL    HW231683   8.026   5.615   5.741 -0.8763 -0.0302 -0.0470
 6822SOL     OW31684   0.002   3.351   4.490  0.1379 -0.1609  0.4260
 6822SOL    HW131685   0.078   3.392   4.439 -1.0229  0.8771 -0.4974
 6822SOL    HW231686  -0.005   3.393   4.580  0.0722  0.4105  0.1541
 6823SOL     OW31687   8.630   3.805   5.469  0.8669 -0.4954  0.1345
 6823SOL    HW131688   8.599   3.714   5.495 -1.4551  0.5375  1.1665
 6823SOL    HW231689   8.690   3.842   5.540 -0.6079 -0.0655  1.1845
 6824SOL     OW31690   8.094   5.534   0.482 -0.4119  0.1237 -0.0431
 6824SOL    HW131691   8.034   5.462   0.515 -1.2257  0.3102 -1.1031
 6824SOL    HW231692   8.055   5.624   0.504  0.5024  0.2556  1.1027
 6825SOL     OW31693   8.536   9.468   0.754 -0.0128 -0.5694 -0.2492
 6825SOL    HW131694   8.627   9.439   0.785  0.7472 -0.7230 -2.5165
 6825SOL    HW231695   8.487   9.390   0.717 -0.0821 -0.0397 -1.3169
 6826SOL     OW31696   2.686   4.684   6.492 -0.1561 -0.5116 -0.7133
 6826SOL    HW131697   2.722   4.641   6.575 -0.8549 -1.5073 -0.9075
 6826SOL    HW231698   2.600   4.639   6.467 -0.9836  1.1177 -0.8485
 6827SOL     OW31699   1.203   6.336   1.126  0.1256 -0.0216  0.3528
 6827SOL    HW131700   1.127   6.272   1.139  0.5296 -0.3509  1.1285
 6827SOL    HW231701   1.174   6.428   1.154 -0.5478  0.2082 -1.0393
 6828SOL     OW31702   5.598   0.662   5.517  0.2427  0.9706  0.4607
 6828SOL    HW131703   5.524   0.729   5.525 -2.5568 -1.7671 -1.6228
 6828SOL    HW231704   5.578   0.583   5.574  1.6857  0.2838  0.0257
 6829SOL     OW31705   8.628   1.736   3.271  0.3036  0.1793 -0.3483
 6829SOL    HW131706   8.552   1.800   3.286  0.8125  0.9915 -1.1635
 6829SOL    HW231707   8.597   1.663   3.210 -0.1532 -0.1242  0.2380
 6830SOL     OW31708   6.499   9.950   5.714 -0.2885 -0.2593  0.1988
 6830SOL    HW131709   6.492   9.948   5.814 -1.5485 -0.9631  0.1061
 6830SOL    HW231710   6.462  10.036   5.679 -1.4171 -0.7172  0.2367
 6831SOL     OW31711   0.517   3.275   3.421 -0.5429 -0.2111  0.2004
 6831SOL    HW131712   0.461   3.354   3.447 -1.6720 -1.2245  0.9015
 6831SOL    HW231713   0.572   3.246   3.499  0.6174  0.4820 -0.3485
 6832SOL     OW31714   2.776   0.743   0.566 -0.3233  0.4152  0.5973
 6832SOL    HW131715   2.783   0.742   0.466  0.9272  1.8962  0.6375
 6832SOL    HW231716   2.681   0.726   0.593 -0.3521 -1.7637 -0.7631
 6833SOL     OW31717   0.115   3.498   0.849  0.1166 -0.2879 -0.6204
 6833SOL    HW131718   0.065   3.417   0.881 -0.9235  0.5022 -0.1993
 6833SOL    HW231719   0.103   3.509   0.751  1.8003 -1.6901 -0.9954
 6834SOL     OW31720   9.036   5.177   0.429  0.0397 -0.2043  0.0825
 6834SOL    HW131721   9.103   5.241   0.465 -0.7630 -0.6579  2.4275
 6834SOL    HW231722   9.027   5.191   0.330  3.3687  0.0440 -0.2471
 6835SOL     OW31723   1.746   5.460   0.193 -0.0419 -0.3564 -0.2121
 6835SOL    HW131724   1.666   5.419   0.148  1.0738 -1.9752 -0.7709
 6835SOL    HW231725   1.812   5.489   0.125 -0.4887  1.7503  0.2220
 6836SOL     OW31726   3.822   3.291   3.491 -0.7046  0.1785 -0.0816
 6836SOL    HW131727   3.823   3.265   3.588 -0.9158 -0.6538 -0.2914
 6836SOL    HW231728   3.755   3.235   3.442 -0.6425  0.6340 -0.6979
 6837SOL     OW31729   7.548   0.855   1.167  0.5399 -0.4695 -0.2921
 6837SOL    HW131730   7.588   0.816   1.083 -0.1815 -2.1769  0.1352
 6837SOL    HW231731   7.480   0.792   1.203 -0.4462  1.1005  0.6019
 6838SOL     OW31732   0.386   2.975   4.487  0.0896 -0.2163 -0.4795
 6838SOL    HW131733   0.408   3.060   4.439 -0.6895  0.8523  0.9980
 6838SOL    HW231734   0.302   2.935   4.449  0.7285 -0.5900 -1.5013
 6839SOL     OW31735   4.224   4.944   2.970  0.5114  0.6179  0.1428
 6839SOL    HW131736   4.171   4.997   2.904 -0.1195  0.5760  0.6007
 6839SOL    HW231737   4.162   4.887   3.024  1.0602  0.3367  0.4820
 6840SOL     OW31738   8.979   3.369   4.680  0.0872 -0.5511 -0.5527
 6840SOL    HW131739   8.916   3.432   4.634 -1.2803 -1.3096  0.2694
 6840SOL    HW231740   9.072   3.406   4.674 -0.4725  0.7822 -1.4137
 6841SOL     OW31741   2.001   1.316   5.553 -0.2489 -0.2105 -0.0122
 6841SOL    HW131742   1.909   1.349   5.531 -1.1932 -2.2320  0.7482
 6841SOL    HW231743   1.994   1.227   5.598  2.0161  0.3330  1.4850
 6842SOL     OW31744   9.864   2.993   2.287  0.0222  0.1299 -0.2162
 6842SOL    HW131745   9.903   2.997   2.195 -0.4811  1.7442 -0.3707
 6842SOL    HW231746   9.895   2.909   2.333 -0.8048 -1.3588 -2.3253
 6843SOL     OW31747   5.088   2.384   1.513  0.1560  0.4727 -0.4741
 6843SOL    HW131748   5.003   2.357   1.469 -0.0614  0.4669 -0.0486
 6843SOL    HW231749   5.096   2.484   1.512 -0.6175  0.5513  0.9145
 6844SOL     OW31750   7.600   3.560   2.405  0.4898  0.0305 -0.1990
 6844SOL    HW131751   7.672   3.627   2.424 -1.0848  0.7055  3.7115
 6844SOL    HW231752   7.519   3.607   2.371  0.3697 -0.2197 -0.2556
 6845SOL     OW31753   1.974   7.810   6.221 -0.4510  0.5031  0.1956
 6845SOL    HW131754   2.037   7.732   6.227 -0.8580  0.2894  1.8384
 6845SOL    HW231755   1.916   7.799   6.140 -0.2616 -0.7259  0.2109
 6846SOL     OW31756   7.844   8.475   4.807  0.5898  0.0591  0.1271
 6846SOL    HW131757   7.831   8.543   4.879 -2.9479  0.7313 -1.0368
 6846SOL    HW231758   7.879   8.521   4.725  1.3770 -0.1156  0.3636
 6847SOL     OW31759   5.360   8.433   2.630 -0.4479 -0.6412  0.3419
 6847SOL    HW131760   5.447   8.459   2.587 -1.0636  1.2420  0.2079
 6847SOL    HW231761   5.376   8.357   2.693  1.1076 -1.0152 -0.4663
 6848SOL     OW31762   3.335   8.909   0.540 -0.2790 -0.1043 -0.1576
 6848SOL    HW131763   3.241   8.879   0.528 -0.3871  0.2595 -0.2142
 6848SOL    HW231764   3.338   8.984   0.607  0.0475 -0.5748  0.3624
 6849SOL     OW31765   9.997   1.814   1.718 -0.1787  0.0871  0.3222
 6849SOL    HW131766  10.073   1.830   1.655 -0.4691 -0.1006 -0.0765
 6849SOL    HW231767   9.935   1.746   1.679  1.1180 -2.1653  2.0491
 6850SOL     OW31768   4.207   2.020   6.421  0.3174 -0.3025  0.7915
 6850SOL    HW131769   4.281   1.996   6.483  0.5357  0.0444  0.6677
 6850SOL    HW231770   4.205   1.957   6.344  1.3842  0.5327  0.0569
 6851SOL     OW31771   1.504   7.487   6.194  0.5645  0.1081  0.4704
 6851SOL    HW131772   1.582   7.436   6.231  0.0415 -1.2448 -0.2511
 6851SOL    HW231773   1.419   7.450   6.232  0.2192  0.8687  0.4291
 6852SOL     OW31774   3.933   8.026   3.622 -0.1083 -0.1539  0.2756
 6852SOL    HW131775   4.007   7.968   3.656  0.3816  0.3911  0.1361
 6852SOL    HW231776   3.920   8.011   3.525  1.3923  1.4593 -0.1986
 6853SOL     OW31777   9.560   4.667   0.615  0.0326  0.1769  0.3074
 6853SOL    HW131778   9.609   4.607   0.552  0.3423 -1.0269  1.6860
 6853SOL    HW231779   9.482   4.619   0.654 -2.0823  1.9797 -1.6029
 6854SOL     OW31780   6.488   9.906   4.351  0.1990 -0.6380 -0.8683
 6854SOL    HW131781   6.548   9.964   4.406 -0.0426 -1.0158 -0.2057
 6854SOL    HW231782   6.522   9.903   4.257  2.1062 -2.1109 -0.1556
 6855SOL     OW31783   3.052   9.359   5.029  0.4452 -0.4978  0.2621
 6855SOL    HW131784   3.088   9.355   4.936 -0.8323  1.4368 -0.3454
 6855SOL    HW231785   2.971   9.418   5.031  1.0573  0.3071  2.8004
 6856SOL     OW31786   5.444   5.108   1.236  0.0955 -0.2652 -0.1877
 6856SOL    HW131787   5.536   5.071   1.245  0.4997  0.3524 -1.6443
 6856SOL    HW231788   5.448   5.195   1.187 -1.1730  0.2148  0.5271
 6857SOL     OW31789   8.870   9.807   5.113 -0.3441  0.1326  0.5301
 6857SOL    HW131790   8.931   9.733   5.141 -0.0256 -0.1763 -0.9233
 6857SOL    HW231791   8.777   9.773   5.106  0.0188 -0.5335 -1.5335
 6858SOL     OW31792   5.833   2.039   4.889 -0.3164  0.3195  0.0779
 6858SOL    HW131793   5.832   2.035   4.789  1.1935 -0.5079  0.0803
 6858SOL    HW231794   5.913   2.090   4.920  1.2286 -2.4872  0.9079
 6859SOL     OW31795   2.123   9.654   0.867 -0.0006 -0.1671  0.1449
 6859SOL    HW131796   2.081   9.693   0.785 -1.7386 -4.3636 -1.0784
 6859SOL    HW231797   2.202   9.598   0.841 -2.1692 -3.7443  0.9370
 6860SOL     OW31798   6.638   1.509   0.400 -0.5830  0.2975  0.2051
 6860SOL    HW131799   6.694   1.429   0.421  0.0665  0.4600 -0.8498
 6860SOL    HW231800   6.645   1.576   0.474 -0.8513 -0.4647  0.9278
 6861SOL     OW31801   5.138   9.655   4.115  0.3042  0.1004  0.7139
 6861SOL    HW131802   5.105   9.749   4.114  1.0192  0.3529 -1.3756
 6861SOL    HW231803   5.214   9.645   4.051 -1.4171 -2.4365 -1.0594
 6862SOL     OW31804   1.942   0.080   4.453  0.6362  0.2564  0.4337
 6862SOL    HW131805   1.848   0.109   4.469  1.2208  1.8647  1.1197
 6862SOL    HW231806   1.991   0.077   4.540  1.2046 -0.5962  0.0864
 6863SOL     OW31807   3.457   3.280   1.623 -0.0606  0.0782  0.1189
 6863SOL    HW131808   3.440   3.182   1.614  1.4092 -0.2481  0.6660
 6863SOL    HW231809   3.556   3.296   1.624 -0.2895  1.7661 -1.9554
 6864SOL     OW31810   2.308   4.440   2.848 -0.0133 -0.6711  0.2531
 6864SOL    HW131811   2.391   4.465   2.799  1.1831 -0.2895  2.3987
 6864SOL    HW231812   2.294   4.503   2.925 -0.9219 -2.2185  1.4030
 6865SOL     OW31813   4.649   9.506   4.212  0.1097  0.4022  0.0547
 6865SOL    HW131814   4.719   9.536   4.277  0.1091 -1.5591  0.9920
 6865SOL    HW231815   4.678   9.529   4.119  2.5152 -1.3433  0.3334
 6866SOL     OW31816   9.002   2.766   6.501 -0.2730 -0.4382 -0.2914
 6866SOL    HW131817   9.045   2.696   6.557  0.4336  1.2637  1.3644
 6866SOL    HW231818   9.055   2.850   6.507 -0.5854 -0.0083 -2.9783
 6867SOL     OW31819   7.899   8.561   5.610 -0.1219  0.2002 -0.0424
 6867SOL    HW131820   7.800   8.549   5.597 -0.0161 -1.0197  0.1928
 6867SOL    HW231821   7.918   8.578   5.706  0.0144 -1.0394  0.1650
 6868SOL     OW31822   2.584   3.292   6.177  0.0402 -0.0522  0.0266
 6868SOL    HW131823   2.624   3.335   6.258 -1.1623  0.4068  0.3865
 6868SOL    HW231824   2.648   3.299   6.101  0.7078  0.5393  0.6321
 6869SOL     OW31825   7.352   0.692   1.261 -0.2412 -0.5992  0.8533
 6869SOL    HW131826   7.357   0.696   1.361 -1.0664  0.4199  0.8583
 6869SOL    HW231827   7.299   0.611   1.234 -2.1049  0.4436  1.3139
 6870SOL     OW31828   8.710   6.174   0.304 -0.5270 -0.3290 -0.0611
 6870SOL    HW131829   8.673   6.149   0.394  0.3819  1.1164  0.7364
 6870SOL    HW231830   8.719   6.274   0.299  0.4442 -0.4804 -1.3545
 6871SOL     OW31831   1.914   2.057   2.357  0.7910 -0.2768 -0.2322
 6871SOL    HW131832   1.849   2.102   2.295  0.4086 -0.6267 -0.0848
 6871SOL    HW231833   1.866   2.024   2.438  1.1867 -0.3680 -0.0333
 6872SOL     OW31834   2.756   7.156   5.076  0.2033  0.4401 -0.7167
 6872SOL    HW131835   2.814   7.098   5.133  1.5536  0.0770 -2.4255
 6872SOL    HW231836   2.705   7.220   5.134  2.6806  1.1164  0.7836
 6873SOL     OW31837   9.405   2.826   2.825  0.0341  0.4489 -0.3329
 6873SOL    HW131838   9.442   2.894   2.889 -1.0607  1.3168 -0.6090
 6873SOL    HW231839   9.364   2.873   2.747  1.4659 -0.5979 -1.7643
 6874SOL     OW31840   6.674   0.693   4.649  0.3167  0.2780  0.2454
 6874SOL    HW131841   6.745   0.700   4.579  0.5543  0.7416  0.5280
 6874SOL    HW231842   6.699   0.622   4.715  0.7753  0.8035  0.6383
 6875SOL     OW31843   8.863   8.272   0.332  0.3652  0.2461 -0.2980
 6875SOL    HW131844   8.932   8.325   0.283 -0.7868  2.3052  0.2443
 6875SOL    HW231845   8.900   8.243   0.420  1.2946 -0.5939 -0.9543
 6876SOL     OW31846   8.996   7.075   1.634  0.1125  0.0449 -0.1703
 6876SOL    HW131847   8.907   7.043   1.603  0.2859 -1.0526  0.4519
 6876SOL    HW231848   9.062   7.000   1.630  1.2066  1.0456 -1.3684
 6877SOL     OW31849   0.114   4.284   6.210  0.0251 -0.2334  0.2536
 6877SOL    HW131850   0.168   4.278   6.293  1.4808 -0.6874 -0.7141
 6877SOL    HW231851   0.073   4.195   6.190  2.0112 -0.8658 -1.0591
 6878SOL     OW31852   2.484   0.923   3.351 -0.0861 -0.8387 -0.2071
 6878SOL    HW131853   2.429   0.844   3.326 -0.3280 -0.3141 -1.4128
 6878SOL    HW231854   2.460   1.000   3.292  3.0154 -1.0363 -1.8719
 6879SOL     OW31855   0.884   6.208   6.080  0.3558  0.2302  0.0242
 6879SOL    HW131856   0.902   6.273   6.007  0.8003  0.5901  0.4535
 6879SOL    HW231857   0.819   6.248   6.145 -2.2000 -1.1391 -1.6282
 6880SOL     OW31858   3.004   3.447   3.380 -0.1480 -0.2008  0.1555
 6880SOL    HW131859   2.939   3.522   3.363  0.2043  0.7831  2.8642
 6880SOL    HW231860   3.080   3.482   3.435  1.1757 -2.0509 -0.4842
 6881SOL     OW31861   3.742   0.768   3.264  0.0343 -0.0834  0.0610
 6881SOL    HW131862   3.830   0.774   3.310  0.4710 -0.3621 -0.7353
 6881SOL    HW231863   3.756   0.754   3.166 -0.8935 -1.2920  0.0933
 6882SOL     OW31864   2.066   3.899   3.107 -0.2008  0.2837 -0.0121
 6882SOL    HW131865   2.111   3.850   3.181 -1.0004  0.7849  0.8253
 6882SOL    HW231866   2.012   3.834   3.052  1.5553 -0.3189 -1.0488
 6883SOL     OW31867   2.791   5.513   5.766 -0.4890 -0.8789  0.1190
 6883SOL    HW131868   2.838   5.431   5.731 -1.7230 -1.1701 -0.8800
 6883SOL    HW231869   2.706   5.527   5.716 -0.2431  1.0901  0.2041
 6884SOL     OW31870   9.543   5.965   1.848  0.3281  0.2328 -0.0995
 6884SOL    HW131871   9.578   5.885   1.897 -0.5262  0.5101  0.9899
 6884SOL    HW231872   9.593   6.046   1.877  0.0451  0.3457  0.0795
 6885SOL     OW31873   8.018   8.184   2.218 -0.3496  0.3045  0.3423
 6885SOL    HW131874   8.057   8.228   2.138 -1.1888 -0.6383 -0.6070
 6885SOL    HW231875   8.072   8.207   2.299  0.8067  0.8496 -0.5714
 6886SOL     OW31876   9.078   5.853   5.762 -0.0522  0.1448 -0.1147
 6886SOL    HW131877   9.098   5.790   5.687  0.7401  0.7829 -0.4383
 6886SOL    HW231878   9.141   5.930   5.759  1.1643 -0.7166  2.2700
 6887SOL     OW31879   8.325   9.049   6.244 -0.6655  0.0227  0.5447
 6887SOL    HW131880   8.255   9.072   6.176  0.3856  1.5207 -0.0549
 6887SOL    HW231881   8.343   9.129   6.301  1.3532 -0.0069 -0.0239
 6888SOL     OW31882   8.512   2.873   2.461  0.5435  0.7536 -0.4618
 6888SOL    HW131883   8.530   2.795   2.521  0.4115  1.4764  0.5327
 6888SOL    HW231884   8.509   2.842   2.366  1.2337 -0.3237 -0.1386
 6889SOL     OW31885   1.142   4.439   6.227 -0.4492 -0.1005  0.2199
 6889SOL    HW131886   1.184   4.353   6.200 -0.0097 -0.4166  1.8402
 6889SOL    HW231887   1.183   4.471   6.312 -2.2525  0.4950  0.8971
 6890SOL     OW31888   2.282   0.392   2.367  0.3628 -0.5019 -0.0426
 6890SOL    HW131889   2.316   0.470   2.420  0.5836 -0.1087 -0.7512
 6890SOL    HW231890   2.287   0.309   2.422  0.7593 -0.1280  0.4881
 6891SOL     OW31891   1.817   4.391   5.483  0.5647  0.5982  0.3415
 6891SOL    HW131892   1.726   4.381   5.523 -0.2550  1.0958 -1.3606
 6891SOL    HW231893   1.860   4.301   5.474 -0.5509  0.1548 -0.6391
 6892SOL     OW31894   0.857   3.551   2.426  0.0769 -0.2947  0.0279
 6892SOL    HW131895   0.936   3.505   2.386 -0.1774  0.6652 -1.5942
 6892SOL    HW231896   0.833   3.631   2.372 -1.3145  0.0772  1.1497
 6893SOL     OW31897   8.675   7.719   0.491 -0.2765 -0.2941 -0.6052
 6893SOL    HW131898   8.611   7.795   0.503  0.4460  0.1417  0.5708
 6893SOL    HW231899   8.626   7.640   0.454 -1.1372  0.5734 -1.3563
 6894SOL     OW31900   8.605   0.230   1.761  0.0545  0.1924 -0.2537
 6894SOL    HW131901   8.685   0.248   1.818  0.7744 -1.2602 -0.7986
 6894SOL    HW231902   8.631   0.174   1.683 -1.5366 -0.4374 -0.3515
 6895SOL     OW31903   8.262   5.705   4.659  0.4550 -0.2750  0.3962
 6895SOL    HW131904   8.184   5.740   4.607  0.5812 -0.0691  0.3452
 6895SOL    HW231905   8.277   5.763   4.739  2.1971  1.2733 -1.0072
 6896SOL     OW31906   3.180   4.986   0.181 -0.0860  0.2138  0.2102
 6896SOL    HW131907   3.272   4.947   0.187  1.1583  2.7695 -1.3770
 6896SOL    HW231908   3.129   4.940   0.108  0.9482  0.7079 -0.8395
 6897SOL     OW31909   9.926   4.955   6.112 -0.2885  0.3563 -0.3569
 6897SOL    HW131910   9.982   4.953   6.195  0.3983 -1.2983 -0.8302
 6897SOL    HW231911   9.858   5.028   6.119  0.4540  0.9233  1.1994
 6898SOL     OW31912   8.410   3.157   4.509  0.0873  0.0541 -0.0815
 6898SOL    HW131913   8.437   3.140   4.603  1.7825 -0.0661 -0.5719
 6898SOL    HW231914   8.491   3.176   4.453 -0.9430  0.7862 -1.3857
 6899SOL     OW31915   9.593   4.075   6.525  0.5483 -0.4594  0.0901
 6899SOL    HW131916   9.566   3.988   6.485 -1.3472  0.6839 -1.1932
 6899SOL    HW231917   9.607   4.143   6.453  0.6779  0.6729  1.1504
 6900SOL     OW31918   4.919   7.445   3.188  0.0364  0.0049 -0.0754
 6900SOL    HW131919   4.943   7.492   3.273 -0.3408  0.5370 -0.2616
 6900SOL    HW231920   4.962   7.354   3.187  0.5756  0.2513  0.3880
 6901SOL     OW31921   0.611   3.782   5.286  0.0708 -0.3846  0.3822
 6901SOL    HW131922   0.517   3.807   5.263 -0.4177 -1.6384  0.9771
 6901SOL    HW231923   0.611   3.707   5.352  1.4750 -3.2978 -2.7838
 6902SOL     OW31924   2.587   4.910   4.495  0.1536 -0.1865  0.3197
 6902SOL    HW131925   2.576   4.959   4.582 -0.2522 -2.3253  1.4881
 6902SOL    HW231926   2.580   4.976   4.420 -1.0161  1.4756  1.8257
 6903SOL     OW31927  -0.002   3.790   3.906  0.1572 -0.3556 -0.5511
 6903SOL    HW131928   0.023   3.819   3.814  0.5127  0.0380 -0.3319
 6903SOL    HW231929   0.047   3.846   3.973  0.5998 -1.2351 -0.1265
 6904SOL     OW31930   7.924   7.711   6.024 -0.4539  0.1556 -0.1207
 6904SOL    HW131931   7.826   7.708   6.044 -0.5105 -0.4744 -0.4646
 6904SOL    HW231932   7.938   7.690   5.927  0.0653 -0.3315  0.0611
 6905SOL     OW31933   0.650   6.554   3.607 -0.6033  0.0742 -0.3073
 6905SOL    HW131934   0.592   6.483   3.569 -1.6606  0.2729  0.8925
 6905SOL    HW231935   0.655   6.543   3.707  2.7283 -0.9177 -0.5030
 6906SOL     OW31936   6.231   1.596   1.136  0.4883  0.5786 -0.3853
 6906SOL    HW131937   6.311   1.539   1.118  0.8856  1.2552 -0.7930
 6906SOL    HW231938   6.159   1.541   1.179  1.9040  0.4229  1.8181
 6907SOL     OW31939   5.745   0.240   3.351 -0.0986  0.0729  0.1878
 6907SOL    HW131940   5.808   0.198   3.417  1.4536  1.3098 -0.4863
 6907SOL    HW231941   5.672   0.286   3.401 -0.8150 -1.8422  0.9668
 6908SOL     OW31942   5.521   0.768   5.069 -0.0750 -0.3518  0.0292
 6908SOL    HW131943   5.590   0.773   5.141  0.6233 -2.3791 -0.4767
 6908SOL    HW231944   5.551   0.821   4.990  0.7459 -0.9540 -0.0634
 6909SOL     OW31945   1.539   6.836   0.233 -0.0042 -0.3502 -0.1909
 6909SOL    HW131946   1.448   6.794   0.234 -0.4198  0.5270 -0.7074
 6909SOL    HW231947   1.551   6.888   0.149  0.4104  0.7654  0.5385
 6910SOL     OW31948   8.047   2.546   6.071  0.0393 -0.3472 -0.4388
 6910SOL    HW131949   8.011   2.480   6.137 -1.6621 -0.5128 -1.4876
 6910SOL    HW231950   8.024   2.516   5.978 -1.2348  1.9744 -0.9098
 6911SOL     OW31951   6.375   7.520   3.783 -0.2724 -0.5204  0.1467
 6911SOL    HW131952   6.424   7.527   3.870  0.0494 -0.9065 -0.0025
 6911SOL    HW231953   6.402   7.596   3.724  1.7023 -1.8368 -0.7085
 6912SOL     OW31954   0.317   0.322   5.339  0.1365  0.4455 -0.3589
 6912SOL    HW131955   0.377   0.400   5.320 -0.7946  0.6651 -2.5594
 6912SOL    HW231956   0.239   0.324   5.276 -1.6679 -0.3953  1.7621
 6913SOL     OW31957   7.993   3.616   1.891  0.4852 -0.4163  0.0268
 6913SOL    HW131958   8.075   3.661   1.926 -0.1041 -2.3337  4.1852
 6913SOL    HW231959   7.989   3.522   1.926 -3.0419 -0.6395 -0.7604
 6914SOL     OW31960   5.188   0.210   3.830 -0.0365 -0.2817  0.2915
 6914SOL    HW131961   5.163   0.228   3.925  2.4460  2.7769  0.4278
 6914SOL    HW231962   5.147   0.280   3.771  1.9930  0.3749 -0.3554
 6915SOL     OW31963   3.281   2.301   0.955 -0.3942  0.1569 -0.6124
 6915SOL    HW131964   3.363   2.245   0.941 -0.0934  1.1755 -3.0113
 6915SOL    HW231965   3.308   2.395   0.975 -0.9777  0.2835 -0.4165
 6916SOL     OW31966   3.486   0.753   0.501  0.1977  0.5909 -0.0795
 6916SOL    HW131967   3.492   0.783   0.406  1.0861 -0.5666 -0.3980
 6916SOL    HW231968   3.513   0.828   0.561  2.6736  0.3731 -0.8703
 6917SOL     OW31969   9.300   3.077   6.336  0.0014 -0.2666 -0.5807
 6917SOL    HW131970   9.337   3.036   6.253  0.5742 -0.9186 -0.0047
 6917SOL    HW231971   9.325   3.174   6.339  0.7684 -0.4588 -0.7145
 6918SOL     OW31972   6.212   2.421   3.529 -0.5265 -0.1595 -0.3686
 6918SOL    HW131973   6.312   2.424   3.525 -0.4678 -0.7134  0.4780
 6918SOL    HW231974   6.176   2.382   3.444  0.0692 -1.4411 -0.0401
 6919SOL     OW31975   0.288   8.278   2.345 -0.9873  0.1412 -0.3791
 6919SOL    HW131976   0.388   8.272   2.334 -0.9999  0.3289 -0.5979
 6919SOL    HW231977   0.259   8.212   2.415 -0.7280 -0.0137 -0.4136
 6920SOL     OW31978   3.449   8.651   0.984  0.5893 -0.4899  0.2186
 6920SOL    HW131979   3.521   8.611   0.927  0.0205  0.3602 -1.1149
 6920SOL    HW231980   3.368   8.666   0.928 -0.1030  0.0065  1.3581
 6921SOL     OW31981   5.332   7.811   4.266  0.2947 -0.0638 -0.3535
 6921SOL    HW131982   5.419   7.840   4.305 -0.8665  3.4401 -0.1658
 6921SOL    HW231983   5.280   7.759   4.334  0.7846  0.8589  0.7394
 6922SOL     OW31984   3.143   1.847   1.661  0.0095 -0.1962  0.5373
 6922SOL    HW131985   3.180   1.914   1.725 -0.4922 -0.7532  1.4191
 6922SOL    HW231986   3.218   1.807   1.607  0.3746  0.6162  0.4439
 6923SOL     OW31987   1.997   0.876   3.987  0.2972  0.1788 -0.6899
 6923SOL    HW131988   2.035   0.966   4.010  1.1821 -0.1405 -0.9022
 6923SOL    HW231989   1.973   0.874   3.890 -1.7657  0.9146 -0.2353
 6924SOL     OW31990   8.302   7.481   1.129 -0.0790  0.2613 -0.2987
 6924SOL    HW131991   8.239   7.525   1.193 -0.6618  0.3061 -0.9023
 6924SOL    HW231992   8.310   7.384   1.151 -1.2835  0.0035 -0.9480
 6925SOL     OW31993   9.488   2.941   2.130 -0.1412 -0.1940  0.1474
 6925SOL    HW131994   9.496   2.883   2.049 -1.0719  1.4811 -1.1546
 6925SOL    HW231995   9.551   3.018   2.123 -1.2739  0.7634  0.3184
 6926SOL     OW31996   4.495   6.105   1.696  0.2625 -0.0235  0.2176
 6926SOL    HW131997   4.493   6.011   1.662 -1.1662  1.2529 -3.4568
 6926SOL    HW231998   4.413   6.122   1.751  1.2466 -1.3115  2.1371
 6927SOL     OW31999   3.551   8.774   4.526 -0.0740 -0.1653 -0.1938
 6927SOL    HW132000   3.480   8.772   4.596 -0.3772  1.6903 -0.4255
 6927SOL    HW232001   3.545   8.691   4.470 -1.1941 -0.6495  0.6206
 6928SOL     OW32002   9.667   6.828   0.065 -0.0592  0.3689  0.3472
 6928SOL    HW132003   9.661   6.729   0.078  0.2535  0.3358  0.2315
 6928SOL    HW232004   9.717   6.848  -0.019  1.5006  0.6472  1.3191
 6929SOL     OW32005   4.234   9.007   4.717  0.2679  0.1731 -0.4526
 6929SOL    HW132006   4.191   9.088   4.756 -0.6141 -0.2435 -0.5476
 6929SOL    HW232007   4.312   9.034   4.661  0.5861  0.8872  0.3318
 6930SOL     OW32008   3.523   3.611   1.449  0.0312 -0.1172 -0.3192
 6930SOL    HW132009   3.439   3.561   1.427 -0.7620  1.2490 -0.4524
 6930SOL    HW232010   3.566   3.642   1.365 -1.6902  2.9754 -0.1309
 6931SOL     OW32011   3.075   7.181   0.164 -0.0197 -0.6708 -0.3810
 6931SOL    HW132012   3.024   7.226   0.237  0.4427  0.1790 -0.5827
 6931SOL    HW232013   3.085   7.084   0.186 -1.9189 -0.9027 -0.4380
 6932SOL     OW32014   3.723   5.852   0.993  0.4482 -0.6484 -0.0169
 6932SOL    HW132015   3.735   5.951   1.008 -0.7414 -0.7462  1.6461
 6932SOL    HW232016   3.767   5.802   1.067 -0.7971 -1.3097  0.2700
 6933SOL     OW32017   4.250   8.301   6.071 -0.2174 -0.3983  0.3951
 6933SOL    HW132018   4.314   8.227   6.053 -0.0882 -0.0415 -0.6283
 6933SOL    HW232019   4.297   8.389   6.065 -0.6030 -0.1805  0.5421
 6934SOL     OW32020   5.190   3.800   1.829  0.4717 -0.6793 -0.3193
 6934SOL    HW132021   5.265   3.847   1.783  1.6353 -2.5342 -0.3489
 6934SOL    HW232022   5.137   3.748   1.762  0.1853 -0.7330 -0.0504
 6935SOL     OW32023   2.022   6.314   5.347 -0.1110  0.2313 -0.7172
 6935SOL    HW132024   1.979   6.325   5.257 -2.7313  0.7809  0.5780
 6935SOL    HW232025   2.013   6.220   5.377  0.0959  0.2255 -0.6713
 6936SOL     OW32026   8.227   4.399   1.890 -0.4534 -0.4903  0.2040
 6936SOL    HW132027   8.190   4.427   1.802  0.0103 -3.2727 -0.9541
 6936SOL    HW232028   8.327   4.402   1.886 -0.4321 -0.5895  0.6516
 6937SOL     OW32029   0.843   6.681   5.539 -0.2947 -0.2287  0.5189
 6937SOL    HW132030   0.756   6.679   5.588 -0.4262 -0.4228  0.2803
 6937SOL    HW232031   0.856   6.594   5.491 -0.5066  0.2180 -0.3706
 6938SOL     OW32032   9.594   8.240   6.711  0.1063 -0.1860  0.0847
 6938SOL    HW132033   9.662   8.289   6.657 -0.1077  0.3666  0.3180
 6938SOL    HW232034   9.532   8.190   6.650 -1.2636  1.9115 -0.2764
 6939SOL     OW32035   8.901   5.521   5.209  0.5841  0.1703 -0.4363
 6939SOL    HW132036   8.849   5.521   5.124 -1.4692 -1.2127  0.7573
 6939SOL    HW232037   8.996   5.548   5.191  0.0183  0.5648 -3.0182
 6940SOL     OW32038   3.222   5.139   5.014 -0.0558  0.3196 -0.2720
 6940SOL    HW132039   3.261   5.231   5.017 -0.2642  0.3919  0.3718
 6940SOL    HW232040   3.169   5.127   4.931 -0.5363  0.9890 -0.0694
 6941SOL     OW32041   3.172   2.119   1.151  0.0653 -0.1269  0.2517
 6941SOL    HW132042   3.185   2.180   1.229 -0.2435  1.8450 -1.2133
 6941SOL    HW232043   3.181   2.171   1.066 -2.7651 -1.5713 -1.0098
 6942SOL     OW32044   6.425   7.319   4.237  0.3929 -0.0573 -0.2432
 6942SOL    HW132045   6.387   7.311   4.329 -0.1067  1.8238 -0.2770
 6942SOL    HW232046   6.514   7.365   4.242 -0.2608  1.2772 -0.8417
 6943SOL     OW32047   2.530   1.144   6.388  0.4277  0.1214 -0.1326
 6943SOL    HW132048   2.621   1.183   6.400  1.1195 -1.5198  0.1190
 6943SOL    HW232049   2.499   1.103   6.474  0.1717 -0.7980 -0.6455
 6944SOL     OW32050   3.871   6.590   1.151  0.1635 -0.2052 -0.1587
 6944SOL    HW132051   3.785   6.636   1.131 -1.0482 -2.2928  0.0597
 6944SOL    HW232052   3.941   6.618   1.085 -1.7408 -1.3616 -2.7430
 6945SOL     OW32053   8.616   2.046   6.120 -0.2463  0.0725 -0.3169
 6945SOL    HW132054   8.652   2.126   6.168 -0.4325 -0.7305  1.1935
 6945SOL    HW232055   8.692   1.985   6.097 -0.1498  0.4863 -1.1429
 6946SOL     OW32056   0.303   7.846   4.920 -0.5088 -0.5438  0.1298
 6946SOL    HW132057   0.388   7.813   4.962  0.7403  2.1865 -0.1350
 6946SOL    HW232058   0.301   7.818   4.824  0.0300 -0.7508  0.1740
 6947SOL     OW32059   2.625   9.973   6.348 -0.1964 -0.1475 -0.3020
 6947SOL    HW132060   2.690  10.048   6.336  0.0295 -0.2114  0.5124
 6947SOL    HW232061   2.589   9.974   6.441 -0.8341 -0.5438 -0.5376
 6948SOL     OW32062   8.034   9.993   4.066 -0.2909  0.5503 -0.4950
 6948SOL    HW132063   7.993   9.917   4.118  0.7531  0.4936  0.2627
 6948SOL    HW232064   8.063   9.961   3.976  0.2787  0.0145 -0.1205
 6949SOL     OW32065   6.709   2.148   3.705 -0.2834  0.3037  0.8218
 6949SOL    HW132066   6.679   2.220   3.768 -1.9101  0.6546 -0.3303
 6949SOL    HW232067   6.630   2.094   3.676  0.6566 -0.7504  0.1695
 6950SOL     OW32068   2.870   2.184   2.014  0.0469  0.0320  0.1260
 6950SOL    HW132069   2.794   2.227   2.062  0.9791  0.7218  1.0024
 6950SOL    HW232070   2.875   2.087   2.039 -0.5578 -0.0204  0.0451
 6951SOL     OW32071   6.840   8.842   3.815  0.0946  0.0507 -0.4697
 6951SOL    HW132072   6.910   8.788   3.860  2.1772 -0.4177 -4.0648
 6951SOL    HW232073   6.759   8.785   3.799 -0.4932  0.1106  2.1969
 6952SOL     OW32074   1.368   6.769   5.307  0.3782  0.9049 -0.9694
 6952SOL    HW132075   1.365   6.696   5.375  1.1923  1.8517  0.0982
 6952SOL    HW232076   1.348   6.731   5.217 -1.6262 -0.2159 -0.1019
 6953SOL     OW32077   4.116   1.542   4.733  0.5335 -0.0528  0.2368
 6953SOL    HW132078   4.112   1.540   4.833 -0.6883 -0.6356  0.1837
 6953SOL    HW232079   4.088   1.453   4.697 -0.4672  0.6146 -0.6596
 6954SOL     OW32080   2.499   8.772   6.430  0.3062  0.1717 -0.7962
 6954SOL    HW132081   2.592   8.776   6.395 -0.0217 -1.1655 -1.8464
 6954SOL    HW232082   2.468   8.865   6.451  1.9327  0.6073 -0.2274
 6955SOL     OW32083   7.393   8.609   4.405 -0.3457 -0.3534  0.1920
 6955SOL    HW132084   7.336   8.690   4.418 -0.6831 -0.6207  0.3676
 6955SOL    HW232085   7.336   8.527   4.405 -0.5346 -0.3199 -3.8848
 6956SOL     OW32086   6.996   3.133   1.068  0.0931  0.1611 -0.2739
 6956SOL    HW132087   6.966   3.155   0.975 -0.4959  0.2218 -0.0778
 6956SOL    HW232088   6.976   3.037   1.088  0.3864  0.1008 -0.2755
 6957SOL     OW32089   8.702   8.911   2.659 -0.3611 -0.0291 -0.8449
 6957SOL    HW132090   8.676   8.882   2.567  1.8841 -0.2899 -1.4252
 6957SOL    HW232091   8.754   8.838   2.703 -1.0830  0.2542  0.4893
 6958SOL     OW32092   3.379   7.042   5.550  0.3154 -0.0008 -0.1887
 6958SOL    HW132093   3.311   7.017   5.619 -1.0922  2.6242 -0.5648
 6958SOL    HW232094   3.455   7.092   5.594 -1.2656  2.9322 -0.6474
 6959SOL     OW32095   0.502   9.532   2.784  0.3447  0.1685 -0.3880
 6959SOL    HW132096   0.573   9.462   2.797  0.0676 -0.2625 -1.1542
 6959SOL    HW232097   0.436   9.525   2.858  0.6785  0.0452 -0.0995
 6960SOL     OW32098   8.606   7.268   2.032  0.3255  0.2543 -0.1364
 6960SOL    HW132099   8.623   7.203   1.957  0.8701  0.4986 -0.2238
 6960SOL    HW232100   8.516   7.249   2.072  0.2938 -0.2743 -0.4483
 6961SOL     OW32101   9.543   2.344   5.377 -0.7819  0.3127 -0.1642
 6961SOL    HW132102   9.559   2.441   5.362 -0.7670  0.3924  0.3584
 6961SOL    HW232103   9.610   2.309   5.443 -1.2836  0.1174  0.2407
 6962SOL     OW32104   9.146   4.164   3.880  0.4426 -0.2360  0.4888
 6962SOL    HW132105   9.193   4.205   3.958  0.2021  0.5307  0.2278
 6962SOL    HW232106   9.209   4.105   3.830  0.8359 -0.0448  0.7621
 6963SOL     OW32107   3.777   4.070   2.392  0.5783 -1.0032 -0.1021
 6963SOL    HW132108   3.682   4.039   2.398  0.7040 -1.7488 -1.6402
 6963SOL    HW232109   3.780   4.169   2.391 -0.1166 -0.9641  0.8242
 6964SOL     OW32110   8.403   1.895   3.237  0.0710 -0.0462 -0.9771
 6964SOL    HW132111   8.311   1.856   3.239  1.1416 -2.6725  0.2182
 6964SOL    HW232112   8.408   1.974   3.299 -0.9476 -0.9711  0.3146
 6965SOL     OW32113   1.157   3.675   2.114 -0.1417 -0.2584  0.2802
 6965SOL    HW132114   1.249   3.643   2.090 -1.1603 -2.3797 -0.9061
 6965SOL    HW232115   1.138   3.760   2.064  1.1115  0.1294  0.4367
 6966SOL     OW32116   9.042   7.484   0.359 -0.3673  0.2754  0.1269
 6966SOL    HW132117   9.105   7.415   0.395 -0.9566 -0.0608  0.5197
 6966SOL    HW232118   8.954   7.441   0.338 -0.5695  0.8039 -0.1216
 6967SOL     OW32119   1.574   5.648   3.130 -0.3617 -0.1728 -0.1072
 6967SOL    HW132120   1.536   5.620   3.042 -0.5936 -0.2531  0.0165
 6967SOL    HW232121   1.645   5.716   3.115  1.3807 -2.0408 -0.5127
 6968SOL     OW32122   1.288   2.015   0.194 -0.1356 -0.4118 -0.3903
 6968SOL    HW132123   1.202   1.964   0.195 -1.5584  1.8991 -0.3256
 6968SOL    HW232124   1.307   2.046   0.101 -1.0313  1.7164  0.1010
 6969SOL     OW32125   3.937   1.291   0.213 -0.7045 -0.8081 -0.1264
 6969SOL    HW132126   3.995   1.365   0.248 -1.2900 -0.9712  1.2446
 6969SOL    HW232127   3.885   1.323   0.134  1.7128 -0.8525 -1.7830
 6970SOL     OW32128   8.340   6.033   5.495 -0.3896 -0.1680  0.4953
 6970SOL    HW132129   8.329   5.985   5.582  1.1699  0.1738  0.8926
 6970SOL    HW232130   8.311   5.973   5.421 -1.7381 -0.4641  1.2410
 6971SOL     OW32131   1.475   3.347   6.504 -0.6736  0.3756  0.7762
 6971SOL    HW132132   1.557   3.328   6.558  0.4550  2.5421 -0.1127
 6971SOL    HW232133   1.456   3.445   6.506 -2.1243  0.1419 -0.6028
 6972SOL     OW32134   4.543   0.144   5.789 -0.3378 -0.2780 -0.5014
 6972SOL    HW132135   4.458   0.137   5.842  0.0671  0.2064  0.2203
 6972SOL    HW232136   4.564   0.056   5.748 -0.2927 -0.8406  0.7201
 6973SOL     OW32137   8.052   4.697   4.430 -0.0093 -0.3247 -0.0987
 6973SOL    HW132138   8.077   4.690   4.333 -2.2444 -0.5977 -0.6736
 6973SOL    HW232139   8.025   4.791   4.451  0.1429 -0.3439  0.1933
 6974SOL     OW32140   7.851   9.672   2.058 -0.4903 -0.4206 -0.2173
 6974SOL    HW132141   7.766   9.653   2.008 -0.5421 -2.0537  0.4592
 6974SOL    HW232142   7.829   9.723   2.141 -0.6631  0.2288 -0.6547
 6975SOL     OW32143   9.801   2.997   1.342  0.1242 -0.1071  0.0508
 6975SOL    HW132144   9.895   3.032   1.337  0.4876 -1.1664 -0.7558
 6975SOL    HW232145   9.749   3.029   1.263  0.2469 -0.7660 -0.3008
 6976SOL     OW32146   5.774   4.793   0.901 -0.2527  0.6390 -0.1096
 6976SOL    HW132147   5.802   4.698   0.897 -1.0410  0.2711  1.9845
 6976SOL    HW232148   5.683   4.803   0.860 -0.1715  0.4917 -0.3240
 6977SOL     OW32149   1.042   5.518   2.251  0.0533 -0.7442  0.0677
 6977SOL    HW132150   0.984   5.483   2.177 -0.5691  0.6299 -0.1190
 6977SOL    HW232151   1.044   5.618   2.246  2.9139 -0.7859 -0.2731
 6978SOL     OW32152   3.300   1.060   5.467 -0.3011  0.3602  0.6735
 6978SOL    HW132153   3.248   0.975   5.463 -1.7269  1.2759 -0.8475
 6978SOL    HW232154   3.300   1.104   5.378  1.7479  1.2012  1.0513
 6979SOL     OW32155   7.693   9.590   6.676 -0.1297 -0.2110 -0.2574
 6979SOL    HW132156   7.670   9.672   6.624  1.9787  0.2089 -0.5926
 6979SOL    HW232157   7.627   9.518   6.657 -0.5909  0.6274 -1.8832
 6980SOL     OW32158   1.361   4.682   3.523  0.2146  0.3893 -0.1754
 6980SOL    HW132159   1.268   4.678   3.559  1.1080 -1.1844  2.0602
 6980SOL    HW232160   1.412   4.754   3.572  1.2338 -1.2960  1.3146
 6981SOL     OW32161   8.683   5.057   5.481  0.2403 -0.5590  0.2269
 6981SOL    HW132162   8.649   5.111   5.405  0.0868  0.2656  0.8683
 6981SOL    HW232163   8.730   5.117   5.546  1.4988 -1.4383  0.1484
 6982SOL     OW32164   4.206   2.961   3.503  0.1222 -0.7023 -0.1522
 6982SOL    HW132165   4.238   2.910   3.423  1.5408 -1.6828  1.0309
 6982SOL    HW232166   4.184   2.897   3.576  0.3247  0.2904  0.7829
 6983SOL     OW32167   8.943   3.801   6.291 -0.4636 -0.2215  0.0924
 6983SOL    HW132168   8.903   3.779   6.202 -1.0717 -0.2107  0.3668
 6983SOL    HW232169   8.873   3.795   6.362 -0.0160 -0.0615  0.5477
 6984SOL     OW32170   7.876   4.826   0.996 -0.1295  0.2826  0.2415
 6984SOL    HW132171   7.840   4.915   0.966  0.8755  0.8744  0.7348
 6984SOL    HW232172   7.801   4.761   1.004 -1.2733  1.7964  2.3970
 6985SOL     OW32173   1.893   0.361   4.873 -0.3084  0.4960 -0.0342
 6985SOL    HW132174   1.859   0.287   4.814  1.3787  0.2786 -0.7695
 6985SOL    HW232175   1.847   0.447   4.847 -1.9779 -0.1900  0.5533
 6986SOL     OW32176   7.601   1.237   4.719  0.4915 -0.2843 -0.4699
 6986SOL    HW132177   7.549   1.193   4.792  2.1595  0.4383  1.2193
 6986SOL    HW232178   7.572   1.332   4.710  1.2789  0.0437  0.2925
 6987SOL     OW32179   1.890   9.170   2.458  0.3783  0.1165 -0.9080
 6987SOL    HW132180   1.791   9.165   2.450  0.5196 -0.5604 -2.3946
 6987SOL    HW232181   1.921   9.262   2.436  0.0392  0.5096  0.2054
 6988SOL     OW32182   2.038   4.906   1.250 -0.1795  0.5568  0.1841
 6988SOL    HW132183   2.115   4.957   1.211  0.7624 -1.4272 -0.5751
 6988SOL    HW232184   1.991   4.856   1.178 -0.4652 -0.4819  1.0832
 6989SOL     OW32185   3.089   4.911   6.493  0.6407  0.0671 -0.1841
 6989SOL    HW132186   3.182   4.897   6.459  0.2165  0.2461 -1.4454
 6989SOL    HW232187   3.027   4.848   6.447 -0.5341  2.7917 -2.5023
 6990SOL     OW32188   3.883   3.462   3.307 -0.2034  0.5096  0.4036
 6990SOL    HW132189   3.883   3.399   3.385  1.7288 -0.4934 -0.3459
 6990SOL    HW232190   3.934   3.420   3.231 -1.2288  1.8626 -1.0603
 6991SOL     OW32191   1.088   8.295   5.275 -0.0139 -0.5376  0.0583
 6991SOL    HW132192   1.010   8.246   5.237  0.0888 -1.5634  1.1608
 6991SOL    HW232193   1.063   8.337   5.362  1.1673 -2.4254  1.3361
 6992SOL     OW32194   8.964   7.705   1.084 -0.1300 -0.0659  0.5747
 6992SOL    HW132195   8.913   7.630   1.126 -0.0607  0.4306  1.5440
 6992SOL    HW232196   9.002   7.674   0.996  2.0131 -1.9638  2.0995
 6993SOL     OW32197   1.568   4.793   4.214 -0.9965  0.1837 -0.2376
 6993SOL    HW132198   1.665   4.815   4.225 -0.7819 -1.5977  1.6753
 6993SOL    HW232199   1.543   4.798   4.118  0.8641  1.2164 -0.6759
 6994SOL     OW32200   3.697   2.727   3.739  0.0675 -0.2791  0.1801
 6994SOL    HW132201   3.755   2.805   3.715 -0.1725 -0.4636 -1.0381
 6994SOL    HW232202   3.602   2.757   3.748  0.0775 -0.3083  0.3811
 6995SOL     OW32203   1.378   3.275   0.572 -0.7497 -0.0580  0.2438
 6995SOL    HW132204   1.454   3.330   0.540 -1.6469  1.6557  0.9969
 6995SOL    HW232205   1.405   3.179   0.576  0.8490  0.3347 -1.0197
 6996SOL     OW32206   5.568   9.843   3.959 -0.4982  0.5826 -0.3771
 6996SOL    HW132207   5.560   9.918   4.025 -1.9408  0.1718 -0.0652
 6996SOL    HW232208   5.664   9.815   3.952 -0.2739  0.9026  1.2493
 6997SOL     OW32209   8.251   2.720   3.123  0.0386 -0.1739  0.2077
 6997SOL    HW132210   8.231   2.646   3.059  0.6311 -0.1187 -0.0452
 6997SOL    HW232211   8.186   2.794   3.109 -1.2188 -1.0681  1.1711
 6998SOL     OW32212   1.002   7.737   2.683  0.2703  0.0459  0.1586
 6998SOL    HW132213   0.921   7.748   2.625  0.0248 -1.5034  0.1837
 6998SOL    HW232214   1.013   7.641   2.707  2.2429  0.2129  0.0108
 6999SOL     OW32215   7.226   3.659   0.671 -0.5513 -0.6985  0.1106
 6999SOL    HW132216   7.129   3.686   0.671 -0.4188 -0.1836 -0.6417
 6999SOL    HW232217   7.251   3.627   0.579  0.1654 -0.1768  0.1174
 7000SOL     OW32218   9.441   2.063   4.562  0.3701 -0.2223  0.5436
 7000SOL    HW132219   9.428   2.004   4.641 -0.3336 -1.6297 -0.5855
 7000SOL    HW232220   9.386   2.146   4.572  1.1189  0.1242  1.9928
 7001SOL     OW32221   2.366   5.119   0.703  0.5869  0.2971  0.0250
 7001SOL    HW132222   2.453   5.147   0.662  0.7556  0.3602  0.4324
 7001SOL    HW232223   2.377   5.109   0.801  0.2883 -0.3137 -0.0065
 7002SOL     OW32224   5.713   4.833   6.327  0.0544  0.1612 -0.0507
 7002SOL    HW132225   5.769   4.828   6.410  1.6097  0.7577 -1.0555
 7002SOL    HW232226   5.723   4.923   6.285 -1.8394  0.3576 -0.1439
 7003SOL     OW32227   7.412   5.972   6.047 -0.4581 -0.4642 -0.3069
 7003SOL    HW132228   7.408   5.872   6.042  2.1747 -0.5638 -1.0697
 7003SOL    HW232229   7.346   6.011   5.983 -1.4212 -1.7150 -0.0889
 7004SOL     OW32230   3.516   0.082   4.050  0.5679 -0.2167  0.4405
 7004SOL    HW132231   3.591   0.056   3.990  0.8932 -1.3148  1.3049
 7004SOL    HW232232   3.466   0.158   4.010  0.9670 -0.7358 -1.0686
 7005SOL     OW32233   8.732   9.296   5.776  0.2772 -0.0407 -0.0057
 7005SOL    HW132234   8.807   9.352   5.740  0.4830 -0.5078 -0.3083
 7005SOL    HW232235   8.749   9.200   5.753  0.2010 -0.2928  0.9836
 7006SOL     OW32236   9.264   8.217   1.815 -0.3229 -0.0216  0.3537
 7006SOL    HW132237   9.341   8.170   1.859  0.5823 -1.3266 -2.5306
 7006SOL    HW232238   9.297   8.301   1.771 -0.9345  0.4207  0.7213
 7007SOL     OW32239   0.666   9.687   1.257 -0.3493  0.4483  0.1046
 7007SOL    HW132240   0.580   9.733   1.233 -0.2879  1.1513  1.2144
 7007SOL    HW232241   0.680   9.691   1.356  0.0312 -1.3210  0.1380
 7008SOL     OW32242   4.460   8.603   2.543 -0.8192  0.6351  0.1510
 7008SOL    HW132243   4.392   8.530   2.555 -0.6869  0.3057 -1.0318
 7008SOL    HW232244   4.547   8.573   2.582 -0.8255  0.2434 -0.1261
 7009SOL     OW32245   7.797   0.710   2.559 -0.0608  0.2881 -0.1768
 7009SOL    HW132246   7.857   0.639   2.523 -0.5008 -0.0164 -0.3271
 7009SOL    HW232247   7.841   0.799   2.550  1.0723 -0.1202  1.3340
 7010SOL     OW32248   1.149   3.518   4.729 -0.4845 -0.4407 -0.0032
 7010SOL    HW132249   1.115   3.434   4.688  2.0830 -1.2684 -0.5343
 7010SOL    HW232250   1.154   3.508   4.829  0.8444 -1.3258 -0.1515
 7011SOL     OW32251   0.754   2.495   4.243  0.2004 -0.2864  0.3579
 7011SOL    HW132252   0.850   2.469   4.240 -0.3951 -2.4475 -1.7221
 7011SOL    HW232253   0.719   2.485   4.336  1.4417 -1.5394  0.6959
 7012SOL     OW32254   0.336   6.400   6.374 -0.1671 -0.3715  0.0339
 7012SOL    HW132255   0.345   6.337   6.451  1.7529 -0.3350 -0.1461
 7012SOL    HW232256   0.301   6.488   6.407 -0.5445 -0.7479  0.6589
 7013SOL     OW32257   7.152   7.316   4.326 -0.2140  0.2581  0.1572
 7013SOL    HW132258   7.167   7.277   4.235 -0.4764  0.8974 -0.1592
 7013SOL    HW232259   7.129   7.242   4.390 -0.1907 -0.1743 -0.3279
 7014SOL     OW32260   1.100   6.031   2.422  0.4189 -0.4077 -0.0528
 7014SOL    HW132261   1.002   6.050   2.430  0.2528 -0.9762 -0.6749
 7014SOL    HW232262   1.118   5.983   2.336  1.2986  0.0377 -0.1235
 7015SOL     OW32263   6.768   7.468   2.663  0.5297  0.2302  0.2491
 7015SOL    HW132264   6.753   7.485   2.761  1.3391 -1.2198  0.6507
 7015SOL    HW232265   6.842   7.526   2.629  1.4139 -0.4903  0.9210
 7016SOL     OW32266   1.289   8.845   3.358 -0.0942  0.1897  0.2862
 7016SOL    HW132267   1.304   8.834   3.457  0.2772  0.3031  0.2436
 7016SOL    HW232268   1.370   8.813   3.309 -1.1135 -1.9473 -0.0959
 7017SOL     OW32269   1.619   2.755   2.050  0.1977 -0.3047 -0.4595
 7017SOL    HW132270   1.564   2.717   1.976  0.7486 -1.8778 -0.0732
 7017SOL    HW232271   1.678   2.827   2.013 -0.4255 -0.2209 -1.3168
 7018SOL     OW32272   6.353   1.970   2.902 -0.2564  0.2727 -0.0124
 7018SOL    HW132273   6.287   1.931   2.838  0.2614 -1.3562  0.3918
 7018SOL    HW232274   6.304   2.014   2.977 -0.9250 -1.0822  0.3836
 7019SOL     OW32275   1.321   5.341   1.823  0.2365  0.0157 -0.1261
 7019SOL    HW132276   1.364   5.358   1.735 -1.1136  1.4229 -0.5371
 7019SOL    HW232277   1.369   5.267   1.870  1.6374 -0.0099 -1.5592
 7020SOL     OW32278   3.855   8.573   6.142 -0.1179 -0.1701  0.2391
 7020SOL    HW132279   3.906   8.488   6.145  0.1912 -0.0278 -0.9052
 7020SOL    HW232280   3.913   8.648   6.173 -0.3291 -0.3361  1.0577
 7021SOL     OW32281   4.571   5.743   1.034  0.2775  0.2707 -0.0353
 7021SOL    HW132282   4.532   5.665   0.984  0.9581 -0.4683  0.5858
 7021SOL    HW232283   4.497   5.793   1.079 -0.0872 -0.5180  0.2630
 7022SOL     OW32284   5.858   9.700   3.646 -0.4962 -0.1350  0.2502
 7022SOL    HW132285   5.824   9.613   3.680  1.1211 -1.9783 -2.6693
 7022SOL    HW232286   5.786   9.748   3.597 -1.2108 -0.0860  1.3315
 7023SOL     OW32287   2.941   9.726   5.951  0.3955 -0.0666 -0.3574
 7023SOL    HW132288   2.871   9.772   6.006  0.1334 -1.0686  0.1561
 7023SOL    HW232289   2.907   9.637   5.922  1.9994 -1.1920  1.1162
 7024SOL     OW32290   8.299   1.648   5.194  0.7421  0.4182  0.0895
 7024SOL    HW132291   8.252   1.564   5.221 -0.8625  0.6467 -1.8641
 7024SOL    HW232292   8.373   1.626   5.130  0.5445  0.4495 -0.1511
 7025SOL     OW32293   2.138   6.195   6.501 -0.1088  1.2084  0.3892
 7025SOL    HW132294   2.048   6.192   6.458 -0.0572 -1.3947  0.4214
 7025SOL    HW232295   2.130   6.174   6.598  0.3445  2.6523  0.7536
 7026SOL     OW32296   1.381   2.297   6.378 -0.1376  0.1859  0.5129
 7026SOL    HW132297   1.419   2.389   6.381 -0.8822  0.4837  1.0533
 7026SOL    HW232298   1.443   2.233   6.424 -0.4378  0.7238  1.6845
 7027SOL     OW32299   0.963   5.104   5.979 -0.4335  0.1171 -0.2472
 7027SOL    HW132300   0.872   5.117   5.940 -0.6541  0.0286  0.2295
 7027SOL    HW232301   0.954   5.060   6.068  0.0302  0.7692  0.1261
 7028SOL     OW32302   2.245   4.482   2.392 -0.4775  0.2477 -0.0789
 7028SOL    HW132303   2.286   4.534   2.317 -1.5981  0.6019 -0.4616
 7028SOL    HW232304   2.221   4.390   2.359 -0.5555  0.2528 -0.0375
 7029SOL     OW32305   2.997   7.467   3.752  0.3951 -0.6819  0.3891
 7029SOL    HW132306   3.043   7.535   3.809  0.3840 -0.6328  0.3391
 7029SOL    HW232307   2.919   7.509   3.705  0.3753 -0.7345  0.3742
 7030SOL     OW32308   9.750   5.811   1.422 -0.1877  0.1345  0.0186
 7030SOL    HW132309   9.676   5.799   1.488  0.1972 -2.4214  0.0589
 7030SOL    HW232310   9.712   5.806   1.329 -0.6850  3.4164  0.0059
 7031SOL     OW32311   1.734   5.508   1.627 -0.3011  0.3711  0.0424
 7031SOL    HW132312   1.734   5.606   1.608 -1.3411  0.5856  1.0816
 7031SOL    HW232313   1.770   5.492   1.719  0.6182 -0.2885 -0.4250
 7032SOL     OW32314   4.040   9.231   3.458  0.1774 -0.0464  0.3415
 7032SOL    HW132315   3.944   9.203   3.464 -0.2534  1.4983  0.8610
 7032SOL    HW232316   4.072   9.217   3.364 -0.6174 -0.3848  0.1118
 7033SOL     OW32317   2.518   8.165   1.931 -0.4710 -0.8755 -0.0791
 7033SOL    HW132318   2.538   8.071   1.960  0.1916 -0.7746 -0.2056
 7033SOL    HW232319   2.572   8.186   1.849 -0.5029 -0.3299  0.0414
 7034SOL     OW32320   1.068   7.359   4.570  0.0971 -0.6470  0.0023
 7034SOL    HW132321   1.160   7.325   4.550  0.1412  0.2805 -1.4667
 7034SOL    HW232322   1.009   7.282   4.595  1.5011 -1.1272  1.9453
 7035SOL     OW32323   1.192   5.099   1.541 -0.3490 -0.7732 -0.6605
 7035SOL    HW132324   1.188   5.077   1.638  1.0181 -0.2325 -0.4804
 7035SOL    HW232325   1.272   5.055   1.500  0.1680  0.5956 -1.1328
 7036SOL     OW32326   5.429   0.664   4.143  0.4215  0.2848 -0.1806
 7036SOL    HW132327   5.470   0.674   4.234 -0.1907  0.3736  0.0873
 7036SOL    HW232328   5.479   0.594   4.092 -1.6056 -2.6148  1.6273
 7037SOL     OW32329   3.306   2.778   6.453 -0.1231  0.1759  0.1146
 7037SOL    HW132330   3.298   2.820   6.544  1.2291  0.5521  0.0627
 7037SOL    HW232331   3.390   2.809   6.409 -0.1093 -1.0549 -0.7405
 7038SOL     OW32332   2.348   1.756   4.488 -0.1152 -0.1781 -0.2698
 7038SOL    HW132333   2.323   1.848   4.456  0.9874  0.7460  1.4581
 7038SOL    HW232334   2.302   1.738   4.575 -0.5043 -1.3767 -0.7122
 7039SOL     OW32335   5.762   8.873   2.466 -0.0298 -0.6920  0.4214
 7039SOL    HW132336   5.707   8.814   2.525 -0.0889 -2.1296 -1.0169
 7039SOL    HW232337   5.854   8.835   2.459  0.0025 -0.4818 -0.3115
 7040SOL     OW32338   3.145   0.200   2.954  0.1105  0.7170 -0.0581
 7040SOL    HW132339   3.078   0.190   3.028  0.4027 -1.2712 -0.0453
 7040SOL    HW232340   3.132   0.289   2.910 -1.9799  0.7182  0.4947
 7041SOL     OW32341   0.671   0.786   5.237 -0.0085  0.3648  0.0964
 7041SOL    HW132342   0.617   0.851   5.291 -1.4089 -0.2069 -0.5758
 7041SOL    HW232343   0.654   0.801   5.140 -0.8647 -1.4197 -0.0457
 7042SOL     OW32344   0.853   4.254   2.042 -0.0259  0.0808  0.0320
 7042SOL    HW132345   0.846   4.332   1.980  0.1296  0.2229  0.1947
 7042SOL    HW232346   0.761   4.223   2.066 -0.0908  0.7289  0.6202
 7043SOL     OW32347   8.920   5.870   1.275  0.0430  0.3111 -0.1677
 7043SOL    HW132348   8.932   5.866   1.176 -0.1955  1.1989 -0.2350
 7043SOL    HW232349   9.009   5.861   1.320 -0.0080 -1.6124 -0.4073
 7044SOL     OW32350   8.093   3.242   6.018  0.1829  0.1732 -0.1992
 7044SOL    HW132351   8.177   3.297   6.009  0.4592 -0.3483 -0.8943
 7044SOL    HW232352   8.057   3.222   5.927 -0.6496  0.3111  0.0970
 7045SOL     OW32353   4.663   2.378   5.460 -0.1299  0.2829  0.5328
 7045SOL    HW132354   4.696   2.332   5.543  0.3474 -1.6928 -0.7050
 7045SOL    HW232355   4.567   2.356   5.447  0.6756 -2.4643 -1.3458
 7046SOL     OW32356   2.690   8.344   5.972  0.2726  0.6341  1.0271
 7046SOL    HW132357   2.737   8.418   6.020 -1.5446  1.9426  0.8844
 7046SOL    HW232358   2.696   8.359   5.873 -0.7250  1.0164  1.0172
 7047SOL     OW32359   1.393   6.452   0.806  0.0047 -0.1798 -0.6172
 7047SOL    HW132360   1.405   6.355   0.785  0.2364 -0.2736 -0.0694
 7047SOL    HW232361   1.405   6.466   0.905 -0.3019  0.3620 -0.6564
 7048SOL     OW32362   0.714   8.822   3.914 -0.7510 -0.1046 -0.2140
 7048SOL    HW132363   0.719   8.744   3.851 -1.7865  1.0174 -1.6978
 7048SOL    HW232364   0.806   8.845   3.946 -0.0629  0.1030 -2.2926
 7049SOL     OW32365   4.376   2.734   0.035  0.4162 -0.3558  0.2351
 7049SOL    HW132366   4.291   2.783   0.054 -0.0611 -1.7451  1.8193
 7049SOL    HW232367   4.454   2.791   0.060 -0.0377  0.9404 -1.2650
 7050SOL     OW32368   4.843   9.219   1.505 -1.1646 -1.0613 -0.4501
 7050SOL    HW132369   4.910   9.234   1.432  0.9832 -1.0343  1.4726
 7050SOL    HW232370   4.831   9.303   1.557 -0.9631 -1.7102  0.6459
 7051SOL     OW32371   1.235   8.202   1.041  0.2242 -0.8017  0.0928
 7051SOL    HW132372   1.255   8.174   0.947  0.6051  0.2401 -0.1466
 7051SOL    HW232373   1.313   8.251   1.078 -0.3786 -0.1602  0.5327
 7052SOL     OW32374   9.532   5.162   2.773 -0.1893  0.2665 -0.1255
 7052SOL    HW132375   9.474   5.082   2.782  0.6864 -0.3916 -0.2287
 7052SOL    HW232376   9.476   5.244   2.760 -1.0590 -0.4189 -0.6687
 7053SOL     OW32377   2.969   1.537   0.751 -0.2266 -0.1629 -0.6309
 7053SOL    HW132378   2.994   1.553   0.656 -0.8255  0.7862 -0.6375
 7053SOL    HW232379   2.915   1.614   0.785  0.5739 -0.1573  0.6846
 7054SOL     OW32380   6.926   1.321   4.963  0.0324 -0.0310  0.2349
 7054SOL    HW132381   6.997   1.354   4.901 -1.0895 -0.2430 -1.1834
 7054SOL    HW232382   6.848   1.384   4.962 -0.3731 -0.5127  0.7421
 7055SOL     OW32383   3.341   9.654   6.018  0.3072 -0.3730  0.4734
 7055SOL    HW132384   3.276   9.602   5.962 -0.7559 -0.8720  2.1329
 7055SOL    HW232385   3.419   9.597   6.040  0.1427 -0.5806  0.5248
 7056SOL     OW32386   0.282   4.612   4.295  0.0662 -0.1792 -0.0897
 7056SOL    HW132387   0.299   4.522   4.255  0.5456  0.3509 -1.0825
 7056SOL    HW232388   0.369   4.650   4.328 -0.1409 -0.0753  0.3481
 7057SOL     OW32389   7.370   7.368   5.052 -0.7333  0.3813 -0.4135
 7057SOL    HW132390   7.342   7.274   5.032  0.2176 -0.0236  0.1177
 7057SOL    HW232391   7.420   7.370   5.139  1.4386  0.9681 -1.6505
 7058SOL     OW32392   1.630   7.371   1.366  0.1898 -0.0347 -0.2970
 7058SOL    HW132393   1.687   7.389   1.285 -0.2717  1.1780 -0.3622
 7058SOL    HW232394   1.534   7.363   1.338  0.2146 -1.2270 -0.0701
 7059SOL     OW32395   5.999   9.843   1.568  0.4132 -0.4663 -1.1141
 7059SOL    HW132396   6.036   9.896   1.645 -0.2883 -1.9353  0.2769
 7059SOL    HW232397   5.947   9.903   1.508 -0.2639  0.4641  0.3707
 7060SOL     OW32398   5.862   1.620   1.980  0.5064 -0.3944 -0.0296
 7060SOL    HW132399   5.879   1.561   2.059 -2.0440  1.0100  1.6536
 7060SOL    HW232400   5.779   1.589   1.934 -0.2494  1.2105  0.2374
 7061SOL     OW32401   1.618   3.824   4.675  0.0482 -0.3751  0.1474
 7061SOL    HW132402   1.642   3.741   4.625  0.4339 -0.3415  0.2730
 7061SOL    HW232403   1.620   3.902   4.613  0.8952 -0.2770  0.2948
 7062SOL     OW32404   9.437   9.885   0.973  0.5060 -0.4999  0.2974
 7062SOL    HW132405   9.391   9.887   1.062  0.4660  0.0696  0.2631
 7062SOL    HW232406   9.380   9.836   0.907  0.3402 -0.5427  0.4723
 7063SOL     OW32407   3.980   3.599   0.782 -0.0831 -0.1853  0.4367
 7063SOL    HW132408   4.018   3.692   0.779 -0.3199 -0.0452  1.6275
 7063SOL    HW232409   4.025   3.543   0.714  0.5041  0.6457  0.1299
 7064SOL     OW32410   3.332   2.676   5.622 -0.1668  0.3953  0.3472
 7064SOL    HW132411   3.344   2.696   5.525 -0.6166 -0.2913  0.1408
 7064SOL    HW232412   3.418   2.691   5.670  0.3820 -0.3878 -0.3683
 7065SOL     OW32413   2.793   3.537   2.394  0.2764 -0.2643  0.1202
 7065SOL    HW132414   2.758   3.493   2.477 -0.7450 -1.1232 -0.7555
 7065SOL    HW232415   2.724   3.598   2.356  0.7158  0.0742 -0.1406
 7066SOL     OW32416   8.398   5.919   4.825  0.5813  0.4091  0.3447
 7066SOL    HW132417   8.380   5.963   4.912  0.9703  1.9908 -0.3661
 7066SOL    HW232418   8.497   5.912   4.810  0.5093  1.2612 -0.5298
 7067SOL     OW32419   8.284   4.102   6.278  0.0840 -0.5759  0.1677
 7067SOL    HW132420   8.307   4.013   6.237  2.0683  0.5967 -1.3275
 7067SOL    HW232421   8.199   4.135   6.237  1.0086 -0.3354 -1.6287
 7068SOL     OW32422   0.809   8.461   0.025 -0.4812  0.0987 -0.4569
 7068SOL    HW132423   0.808   8.372  -0.019  1.6263  0.9513 -2.3304
 7068SOL    HW232424   0.720   8.505   0.016 -1.3056 -1.5166 -0.1438
 7069SOL     OW32425   0.811   5.583   4.068  0.6214  0.7937 -0.0885
 7069SOL    HW132426   0.757   5.666   4.054  2.8830  2.0557 -1.9485
 7069SOL    HW232427   0.903   5.608   4.097  1.2654 -1.0739 -0.4221
 7070SOL     OW32428   6.877   1.840   3.447  0.0731 -0.2775  0.0379
 7070SOL    HW132429   6.795   1.800   3.489 -0.5074  1.3932  0.5056
 7070SOL    HW232430   6.869   1.939   3.447  1.6603 -0.1488 -0.8379
 7071SOL     OW32431   9.419   2.797   6.465 -0.2955  0.5649 -0.4228
 7071SOL    HW132432   9.488   2.864   6.440  0.0663  0.7342  0.9963
 7071SOL    HW232433   9.343   2.842   6.511 -0.0285  0.0087  0.5771
 7072SOL     OW32434   9.682   0.046   1.468 -0.1259  0.5993 -0.3029
 7072SOL    HW132435   9.687  -0.027   1.536 -1.5365  1.1120  0.3570
 7072SOL    HW232436   9.772   0.088   1.457  1.1336 -2.3192 -1.9053
 7073SOL     OW32437   4.267   0.860   2.015 -0.5754 -0.2018  0.5048
 7073SOL    HW132438   4.206   0.908   2.078  0.1609  1.5483 -0.0786
 7073SOL    HW232439   4.233   0.868   1.922 -0.0554 -0.1648  0.3145
 7074SOL     OW32440   7.381   0.979   0.985 -0.2371  0.4861  0.0383
 7074SOL    HW132441   7.333   0.896   0.956 -1.5557  1.1353  0.3345
 7074SOL    HW232442   7.450   0.955   1.054  0.7132 -0.6187 -1.2718
 7075SOL     OW32443   2.991   3.538   6.655  0.0428  0.3822 -0.1555
 7075SOL    HW132444   3.044   3.501   6.732 -0.1620 -2.4507 -1.3347
 7075SOL    HW232445   3.052   3.553   6.577  0.0025  1.9459  0.1069
 7076SOL     OW32446   8.442   1.714   0.665 -0.1369 -0.1628 -0.5151
 7076SOL    HW132447   8.386   1.752   0.739  0.5393  1.0050 -0.5852
 7076SOL    HW232448   8.382   1.674   0.595 -0.9522  2.0584 -1.1297
 7077SOL     OW32449   1.094   7.136   3.771 -0.4645  0.0822  1.2920
 7077SOL    HW132450   1.075   7.064   3.704 -0.6817  1.8507 -0.5841
 7077SOL    HW232451   1.010   7.161   3.818 -0.3347 -1.0813  2.1632
 7078SOL     OW32452   2.511   1.256   0.610  0.0071  0.0668  0.6810
 7078SOL    HW132453   2.423   1.219   0.638  0.4677 -1.6926 -0.1753
 7078SOL    HW232454   2.517   1.260   0.511  0.9916 -0.0544  0.7240
 7079SOL     OW32455   0.887   8.961   6.357  0.1000  0.2020  0.5573
 7079SOL    HW132456   0.963   8.896   6.356  0.8187  1.0366 -0.2196
 7079SOL    HW232457   0.850   8.971   6.265 -1.7545 -1.0983  1.1352
 7080SOL     OW32458   5.510   7.845   2.664  0.1741 -0.8211  0.0247
 7080SOL    HW132459   5.517   7.939   2.628  0.5686 -0.6156  0.6350
 7080SOL    HW232460   5.487   7.848   2.761 -1.6546 -1.3986 -0.3690
 7081SOL     OW32461   1.644   8.227   1.292  0.0093  0.2192  0.4062
 7081SOL    HW132462   1.639   8.285   1.373  1.8357  0.2049  0.5611
 7081SOL    HW232463   1.694   8.275   1.220 -1.2697  0.0809 -0.5890
 7082SOL     OW32464   6.831   9.733   3.297  0.1849 -0.6826  0.3837
 7082SOL    HW132465   6.896   9.675   3.248  0.5734 -1.5266  1.8672
 7082SOL    HW232466   6.816   9.696   3.388 -1.5100  0.1467  0.4642
 7083SOL     OW32467   2.991   9.704   3.447  1.0310  0.2444  0.0353
 7083SOL    HW132468   3.045   9.713   3.364  1.0189  1.0344  0.1098
 7083SOL    HW232469   3.002   9.786   3.503  0.1203  0.2166  0.2657
 7084SOL     OW32470   3.472   5.497   4.414 -0.3136  0.2881  0.3416
 7084SOL    HW132471   3.387   5.546   4.395  0.3711  0.6196 -2.0528
 7084SOL    HW232472   3.452   5.405   4.447 -1.5957  0.7700  0.9105
 7085SOL     OW32473   9.800   7.485   1.659 -1.0847  0.1807 -0.3349
 7085SOL    HW132474   9.857   7.527   1.730 -1.5639  1.3624 -0.6417
 7085SOL    HW232475   9.724   7.436   1.701 -0.4345 -0.5350  0.0307
 7086SOL     OW32476   3.261   1.325   3.210  0.7994  0.5556  0.1912
 7086SOL    HW132477   3.350   1.367   3.226  0.4095  1.8443 -0.9208
 7086SOL    HW232478   3.210   1.320   3.295  1.8812 -0.0780  0.8096
 7087SOL     OW32479   4.477   8.639   0.585  0.0108  0.4111 -0.6731
 7087SOL    HW132480   4.567   8.624   0.546 -0.4360  0.5480 -1.7851
 7087SOL    HW232481   4.434   8.550   0.605  0.2392  0.3393 -0.5098
 7088SOL     OW32482   8.610   4.106   3.921  0.7631 -0.1082 -0.1535
 7088SOL    HW132483   8.532   4.161   3.951  0.2000 -1.7727  1.5672
 7088SOL    HW232484   8.693   4.160   3.928 -0.0641  1.2380 -0.6353
 7089SOL     OW32485   8.975   6.312   5.793 -0.3407  0.0008 -0.0451
 7089SOL    HW132486   8.907   6.271   5.854 -0.1464 -1.6715 -0.9251
 7089SOL    HW232487   9.067   6.289   5.824 -0.1895  1.1554  0.3877
 7090SOL     OW32488   5.252   0.946   1.172 -0.0416 -0.4997 -0.4803
 7090SOL    HW132489   5.175   0.900   1.218  1.2477 -1.3311  0.9021
 7090SOL    HW232490   5.286   0.888   1.098  0.6407 -1.1205  0.3136
 7091SOL     OW32491   3.100   6.365   2.604 -0.4859  0.0012 -0.6604
 7091SOL    HW132492   3.074   6.320   2.518  1.1028 -0.7521 -0.7551
 7091SOL    HW232493   3.126   6.460   2.586 -2.2435  0.4962 -0.6921
 7092SOL     OW32494   3.981   7.345   2.009 -0.3458  0.2877 -0.0463
 7092SOL    HW132495   3.884   7.360   1.990  0.2662  1.1224 -2.6845
 7092SOL    HW232496   4.010   7.260   1.965  0.4812  0.8622 -0.6196
 7093SOL     OW32497   3.723   5.417   0.902  0.1964 -0.0332  0.2494
 7093SOL    HW132498   3.684   5.331   0.935 -0.1392  0.0812  0.1535
 7093SOL    HW232499   3.817   5.425   0.933  0.5757 -0.9432 -0.6564
 7094SOL     OW32500   7.100   7.835   2.520 -0.4677 -0.3368  0.3190
 7094SOL    HW132501   7.116   7.893   2.440  0.1389 -1.0477 -0.0868
 7094SOL    HW232502   7.140   7.878   2.600 -1.1921  0.4444  0.2686
 7095SOL     OW32503   8.640   1.119   3.344 -0.3970 -0.0804  0.0047
 7095SOL    HW132504   8.570   1.167   3.291  1.6432  0.3853 -2.3642
 7095SOL    HW232505   8.690   1.185   3.400 -0.9194 -0.2020  0.6159
 7096SOL     OW32506   7.048   9.261   3.137 -0.2053 -0.3452 -0.2896
 7096SOL    HW132507   6.991   9.264   3.055  0.0562 -1.9349 -0.5561
 7096SOL    HW232508   7.012   9.192   3.200 -0.3181  0.7759  0.8662
 7097SOL     OW32509   1.280   5.907   4.581 -0.3600  0.0603  0.4132
 7097SOL    HW132510   1.375   5.909   4.612  0.3475 -0.5777 -1.6211
 7097SOL    HW232511   1.231   5.834   4.630  0.6333 -0.6908  0.3073
 7098SOL     OW32512   5.748   1.706   4.771  0.2213  0.0026  0.2445
 7098SOL    HW132513   5.768   1.794   4.814  1.1279  0.0604 -0.2807
 7098SOL    HW232514   5.651   1.686   4.779  0.4189 -0.2063  2.7668
 7099SOL     OW32515   1.280   8.897   0.124 -0.2248  0.4402 -0.1935
 7099SOL    HW132516   1.208   8.865   0.063  0.6249  0.9484 -1.4777
 7099SOL    HW232517   1.259   8.989   0.155  0.2704  0.9135 -1.2348
 7100SOL     OW32518   8.103   9.472   3.527 -0.0910 -0.1211  0.4093
 7100SOL    HW132519   8.043   9.548   3.504 -1.3917 -0.6880  1.8270
 7100SOL    HW232520   8.097   9.402   3.454  0.7812  0.9130 -0.6745
 7101SOL     OW32521   8.902   8.624   0.559  0.1541  0.5107  0.6739
 7101SOL    HW132522   8.826   8.689   0.565 -1.1041 -1.0192  1.7274
 7101SOL    HW232523   8.929   8.614   0.463 -0.8127  1.2507  0.3132
 7102SOL     OW32524   0.827   5.708   1.215 -0.0757 -0.2518  0.2964
 7102SOL    HW132525   0.766   5.701   1.294 -0.1265  0.0770  0.2855
 7102SOL    HW232526   0.775   5.732   1.134 -0.1190 -1.2160  0.0294
 7103SOL     OW32527   8.551   1.163   0.237 -0.5504  0.2361 -0.8272
 7103SOL    HW132528   8.576   1.129   0.146 -0.9299 -0.2529 -0.7502
 7103SOL    HW232529   8.454   1.186   0.238 -1.0029 -1.5876 -0.0023
 7104SOL     OW32530   4.383   1.826   4.514 -0.3535 -0.0668  0.4998
 7104SOL    HW132531   4.477   1.841   4.548 -0.4986 -0.4994  1.1166
 7104SOL    HW232532   4.338   1.914   4.502 -0.2237  0.1145  1.2497
 7105SOL     OW32533   3.705   2.099   4.933 -0.0982  0.3198 -0.2645
 7105SOL    HW132534   3.776   2.075   5.000 -0.0627 -1.2995 -0.8533
 7105SOL    HW232535   3.683   2.018   4.878 -0.9594  1.3380 -1.4357
 7106SOL     OW32536   7.888   0.387   1.624  0.4784 -0.3145 -0.0839
 7106SOL    HW132537   7.926   0.391   1.531  1.8551 -0.7905  0.4383
 7106SOL    HW232538   7.960   0.410   1.690 -0.7626  0.9999  0.8083
 7107SOL     OW32539   8.697   1.718   0.816 -0.4839  0.1868 -0.2316
 7107SOL    HW132540   8.763   1.642   0.819  0.0962  0.7440  1.8868
 7107SOL    HW232541   8.623   1.695   0.753 -0.3394 -2.1637  0.4114
 7108SOL     OW32542   7.829   4.638   6.644 -0.3994  0.1303 -0.4256
 7108SOL    HW132543   7.751   4.695   6.671  0.3238  1.1646 -0.5081
 7108SOL    HW232544   7.902   4.696   6.608 -0.3025 -0.9773 -2.1108
 7109SOL     OW32545   1.068   2.113   4.660  0.6401 -0.7985  0.0512
 7109SOL    HW132546   1.134   2.040   4.675  0.3016 -0.8140  1.6130
 7109SOL    HW232547   0.981   2.074   4.630  0.7413 -0.9528 -0.0424
 7110SOL     OW32548   5.236   1.448   4.644  0.3437 -0.2850  0.5450
 7110SOL    HW132549   5.207   1.527   4.590  0.1669 -1.4738 -1.1372
 7110SOL    HW232550   5.301   1.393   4.592 -1.3457 -2.5271  0.7090
 7111SOL     OW32551   7.422   0.859   5.058  0.4731 -0.5420 -0.5580
 7111SOL    HW132552   7.395   0.903   4.972 -0.3482  1.7354  0.8013
 7111SOL    HW232553   7.352   0.794   5.086  1.7892 -2.9474 -2.6994
 7112SOL     OW32554   1.621   8.357   0.887  0.0806 -0.3675 -0.1856
 7112SOL    HW132555   1.564   8.284   0.847  0.1487 -0.3248 -0.3601
 7112SOL    HW232556   1.688   8.387   0.820  1.1007 -1.2541  0.4160
 7113SOL     OW32557   7.351   4.921   1.168  0.1489 -0.0478  0.1312
 7113SOL    HW132558   7.318   4.985   1.238  0.4987  1.4339 -1.0193
 7113SOL    HW232559   7.445   4.895   1.189  0.5764  1.1242 -0.2642
 7114SOL     OW32560   0.733   6.434   4.410  0.2947 -0.1688  0.0025
 7114SOL    HW132561   0.802   6.379   4.457 -0.7066  0.4834  2.3099
 7114SOL    HW232562   0.648   6.434   4.463 -0.2590  2.1920 -0.8168
 7115SOL     OW32563   1.392   8.352   2.397  0.0917 -0.2237  0.3518
 7115SOL    HW132564   1.443   8.309   2.471  1.3488 -1.6335 -1.2859
 7115SOL    HW232565   1.333   8.285   2.353 -0.5742  0.5772 -0.0066
 7116SOL     OW32566   3.345   2.198   0.286 -0.1651  0.5336  0.6517
 7116SOL    HW132567   3.433   2.191   0.335  0.1108 -1.4251 -0.1002
 7116SOL    HW232568   3.285   2.261   0.336  1.3806  1.2965  1.6027
 7117SOL     OW32569   2.026   8.401   2.253 -0.1404 -0.5603  0.1274
 7117SOL    HW132570   1.965   8.421   2.330  0.2698 -0.3651  0.4025
 7117SOL    HW232571   1.973   8.401   2.168 -0.6779 -1.2772  0.4651
 7118SOL     OW32572   3.172   7.698   3.348  0.1329  0.1103 -0.7698
 7118SOL    HW132573   3.183   7.703   3.249  0.8229  0.2821 -0.6883
 7118SOL    HW232574   3.089   7.647   3.370  1.4573 -2.3838 -1.4052
 7119SOL     OW32575   1.448   2.727   0.666 -0.1696  0.0154 -0.4532
 7119SOL    HW132576   1.355   2.704   0.694 -0.1836 -0.7289 -1.1075
 7119SOL    HW232577   1.495   2.645   0.633  0.1650  0.7052 -1.7082
 7120SOL     OW32578   5.213   4.478   3.705 -0.3935 -0.2746  0.0615
 7120SOL    HW132579   5.187   4.537   3.782 -0.5970  0.6644 -0.7256
 7120SOL    HW232580   5.185   4.521   3.619 -0.0609 -1.2695 -0.5455
 7121SOL     OW32581   5.767   0.363   4.255 -0.0059 -0.0080 -0.5301
 7121SOL    HW132582   5.706   0.377   4.177 -0.6601 -0.2569 -0.0681
 7121SOL    HW232583   5.852   0.413   4.240 -0.8246  1.3786 -0.6081
 7122SOL     OW32584   9.859   1.988   5.198 -0.4379  0.3286 -0.4879
 7122SOL    HW132585   9.842   1.910   5.258 -3.4015  0.4690 -1.0693
 7122SOL    HW232586   9.884   1.956   5.107 -0.6932  0.0794 -0.4696
 7123SOL     OW32587   2.937   9.824   0.735  0.3325 -0.3181  0.2045
 7123SOL    HW132588   3.022   9.867   0.703 -0.7191  1.1551 -0.6165
 7123SOL    HW232589   2.860   9.855   0.679 -0.7527 -1.7566  0.8501
 7124SOL     OW32590   7.816   5.880   0.294 -0.1596  0.2735  0.0078
 7124SOL    HW132591   7.856   5.832   0.216 -0.6408 -0.6601  0.3181
 7124SOL    HW232592   7.830   5.826   0.377 -0.7923  0.6165  0.3441
 7125SOL     OW32593   3.499   1.948   1.988 -0.2866 -0.8722  0.1489
 7125SOL    HW132594   3.481   1.870   2.048 -1.1357 -1.0377 -0.3153
 7125SOL    HW232595   3.530   2.025   2.044 -1.4491 -0.9051  0.8631
 7126SOL     OW32596   3.312   9.015   3.447 -0.0997  0.0054  0.1622
 7126SOL    HW132597   3.356   9.104   3.459 -1.1677  0.6614 -0.6937
 7126SOL    HW232598   3.234   9.024   3.384  0.6718 -1.8204 -1.0945
 7127SOL     OW32599   1.931   9.219   1.186 -0.0560  0.3598  0.2996
 7127SOL    HW132600   1.963   9.167   1.265  1.3608  1.0569  0.2169
 7127SOL    HW232601   2.008   9.272   1.149 -1.0075  0.9910 -0.7865
 7128SOL     OW32602   2.876   9.739   2.502  0.3290 -0.0661 -0.3943
 7128SOL    HW132603   2.962   9.735   2.450  0.6236  0.0949  0.0765
 7128SOL    HW232604   2.839   9.647   2.513 -0.4738  0.0342 -2.1079
 7129SOL     OW32605   1.997   3.315   2.658  0.0430 -0.3425  0.2050
 7129SOL    HW132606   1.947   3.253   2.596 -1.1149 -1.5085  2.2558
 7129SOL    HW232607   2.038   3.262   2.732  1.7911  0.9874  0.2122
 7130SOL     OW32608   9.364   6.304   6.502 -0.3926  0.0795 -0.3325
 7130SOL    HW132609   9.450   6.348   6.478 -0.2586  0.5043  0.8974
 7130SOL    HW232610   9.372   6.205   6.489 -0.2005  0.2609 -1.6338
 7131SOL     OW32611   1.025   5.395   6.456 -0.3295  0.6857 -0.0244
 7131SOL    HW132612   0.993   5.313   6.503  0.0291  1.5826  1.8413
 7131SOL    HW232613   0.947   5.444   6.418 -0.8774  1.0790  1.5485
 7132SOL     OW32614   3.952   1.066   4.760  0.0927  0.0933 -0.6527
 7132SOL    HW132615   4.046   1.033   4.750  0.4120  0.8037  0.0178
 7132SOL    HW232616   3.925   1.061   4.856 -0.1865  0.8769 -0.6886
 7133SOL     OW32617   4.388   7.859   4.160 -0.0036 -0.3568 -0.3702
 7133SOL    HW132618   4.371   7.958   4.154  0.0237 -0.2866  0.7683
 7133SOL    HW232619   4.486   7.841   4.151  0.4789  0.0487  3.3911
 7134SOL     OW32620   3.406   2.227   1.787  0.3076 -0.4810  0.0367
 7134SOL    HW132621   3.374   2.133   1.785  0.7378 -0.6060 -1.2400
 7134SOL    HW232622   3.505   2.229   1.802  0.3302 -0.2413 -0.1333
 7135SOL     OW32623   2.851   4.897   5.545  0.3356 -0.0303 -0.8058
 7135SOL    HW132624   2.908   4.927   5.622 -0.9869 -0.0341  0.1969
 7135SOL    HW232625   2.824   4.976   5.490  0.0878  0.1474 -0.4300
 7136SOL     OW32626   9.916   7.983   2.794 -0.3086  0.0337  0.3173
 7136SOL    HW132627   9.856   7.935   2.859 -0.6608  0.0672  0.0206
 7136SOL    HW232628   9.968   7.915   2.742  0.4277  0.0235  1.0575
 7137SOL     OW32629   4.233   0.719   1.734 -0.0137  0.3537 -0.0754
 7137SOL    HW132630   4.248   0.762   1.644 -0.1644  1.0227  0.2148
 7137SOL    HW232631   4.319   0.682   1.767  0.0300  0.0487 -0.5278
 7138SOL     OW32632   6.837   0.423   1.342  0.2458 -0.0646  0.5499
 7138SOL    HW132633   6.875   0.414   1.250 -0.6696 -1.8606  0.3366
 7138SOL    HW232634   6.868   0.509   1.382  0.0004  1.1399 -1.7382
 7139SOL     OW32635   3.447   2.023   6.259 -0.6673  0.1124 -0.0484
 7139SOL    HW132636   3.483   2.115   6.278 -0.4584 -0.1825  1.0621
 7139SOL    HW232637   3.367   2.030   6.201 -0.5702  0.9946 -0.0918
 7140SOL     OW32638   7.668   3.908   0.306 -0.2309  0.3608  0.0187
 7140SOL    HW132639   7.736   3.879   0.374  0.7015  0.6745 -0.7692
 7140SOL    HW232640   7.576   3.894   0.343  0.2496 -0.5541  0.9018
 7141SOL     OW32641   9.704   8.549   2.377  0.0275  0.1958 -0.6874
 7141SOL    HW132642   9.784   8.598   2.342  0.2168  1.4710  1.3840
 7141SOL    HW232643   9.717   8.451   2.365  0.9073  0.5070 -2.3882
 7142SOL     OW32644   9.944   1.243   0.876  0.4352  0.4355  0.0990
 7142SOL    HW132645   9.864   1.191   0.904  0.1926  0.6046 -0.2699
 7142SOL    HW232646   9.951   1.326   0.931  0.1588  0.5909 -0.0935
 7143SOL     OW32647   5.024   9.992   3.215  0.0106 -0.2138 -0.0457
 7143SOL    HW132648   4.929  10.023   3.208  0.2668  0.1809 -2.0985
 7143SOL    HW232649   5.027   9.893   3.206 -0.1168 -0.1262 -1.1712
 7144SOL     OW32650   5.440   6.675   2.609 -0.2145  0.0416  0.4734
 7144SOL    HW132651   5.356   6.640   2.650 -0.0277 -0.3755  0.5049
 7144SOL    HW232652   5.486   6.602   2.559  0.5177  0.0776  1.0914
 7145SOL     OW32653   8.028   9.223   2.716  0.3769 -0.1104 -0.0024
 7145SOL    HW132654   8.126   9.240   2.721  0.4096 -0.4589  0.5559
 7145SOL    HW232655   7.989   9.223   2.808  0.5737 -4.1551  0.1616
 7146SOL     OW32656   8.355   4.846   2.334 -0.2969  0.6178 -0.1223
 7146SOL    HW132657   8.408   4.761   2.331 -1.5398 -0.1396 -1.5642
 7146SOL    HW232658   8.260   4.824   2.357 -0.5367  1.6605 -0.1027
 7147SOL     OW32659   5.313   8.402   5.036  0.1312  0.2718 -0.1123
 7147SOL    HW132660   5.370   8.442   4.965 -0.5623 -0.0622 -0.8793
 7147SOL    HW232661   5.256   8.330   4.995 -2.1253  1.8090  0.2610
 7148SOL     OW32662   1.696   9.547   4.162 -0.7481 -0.1228 -0.0228
 7148SOL    HW132663   1.666   9.457   4.131  1.8135 -1.5284  1.4208
 7148SOL    HW232664   1.653   9.568   4.250 -0.4434 -0.4381  0.1995
 7149SOL     OW32665   9.404   4.634   4.403 -0.0111 -0.3567 -0.2451
 7149SOL    HW132666   9.307   4.635   4.381  0.1832 -0.6505 -1.1597
 7149SOL    HW232667   9.424   4.558   4.466 -0.7495  1.1286  1.8165
 7150SOL     OW32668   8.154   6.305   1.939 -0.8190 -0.5967  0.3912
 7150SOL    HW132669   8.127   6.297   2.035  0.8842  0.1596  0.9521
 7150SOL    HW232670   8.152   6.401   1.911  0.7656 -0.5829  0.2985
 7151SOL     OW32671   8.532   6.052   2.012 -0.2145  0.2916  0.1960
 7151SOL    HW132672   8.623   6.011   2.010 -0.2681  0.0106  2.4800
 7151SOL    HW232673   8.526   6.125   1.944  1.2056 -0.7199 -1.0380
 7152SOL     OW32674   0.468   3.316   3.111  0.1806 -0.1333  0.2310
 7152SOL    HW132675   0.558   3.279   3.088 -0.4151 -2.5963  1.6661
 7152SOL    HW232676   0.472   3.358   3.202  0.3265  1.4411 -0.4940
 7153SOL     OW32677   1.197   2.136   2.818  0.0554  0.2476  0.5674
 7153SOL    HW132678   1.169   2.210   2.757  2.0929  0.1647 -0.5192
 7153SOL    HW232679   1.281   2.162   2.866 -1.1081  0.0127  2.8035
 7154SOL     OW32680   0.369   7.278   1.678  0.6353  0.4321  0.3361
 7154SOL    HW132681   0.398   7.284   1.583  1.0652 -0.1584  0.4286
 7154SOL    HW232682   0.361   7.182   1.705 -3.3783  0.5034 -0.3076
 7155SOL     OW32683   3.756   0.493   3.488 -0.1562 -0.2148 -0.1263
 7155SOL    HW132684   3.675   0.547   3.511 -0.1123 -0.4220  0.5264
 7155SOL    HW232685   3.826   0.507   3.558  0.7369  0.7152 -1.1983
 7156SOL     OW32686   3.066   8.120   6.550 -0.1014  0.0933  0.4820
 7156SOL    HW132687   3.014   8.124   6.465  1.3475  1.2051 -0.3748
 7156SOL    HW232688   3.164   8.111   6.530  0.2238 -0.0662  2.0269
 7157SOL     OW32689   1.458   0.244   2.380  0.7446 -0.0071 -0.2508
 7157SOL    HW132690   1.448   0.285   2.290 -0.5125  1.8512  0.7112
 7157SOL    HW232691   1.555   0.234   2.402  1.0485  0.7406 -1.2484
 7158SOL     OW32692   7.244   8.720   4.013 -0.5880 -0.1570  0.0831
 7158SOL    HW132693   7.263   8.818   4.010 -0.1890 -0.2298  0.2553
 7158SOL    HW232694   7.330   8.669   4.009 -0.7488 -0.4893  0.8096
 7159SOL     OW32695   1.151   3.689   4.061 -0.0768  0.8908 -0.0903
 7159SOL    HW132696   1.109   3.752   3.995 -1.3044 -1.3480 -1.4696
 7159SOL    HW232697   1.240   3.659   4.026  0.6598  2.0508  0.7219
 7160SOL     OW32698   1.539   2.129   2.450 -0.6132  0.3162  0.3120
 7160SOL    HW132699   1.630   2.166   2.469 -0.7075 -0.2137  1.8842
 7160SOL    HW232700   1.527   2.121   2.351 -0.2158  3.4883 -0.0417
 7161SOL     OW32701   8.893   0.103   6.326  0.1918  0.5053  0.0401
 7161SOL    HW132702   8.990   0.125   6.339  0.1617  1.3972 -1.1912
 7161SOL    HW232703   8.847   0.180   6.283 -0.2487 -1.3587 -2.9391
 7162SOL     OW32704   9.191   0.313   6.616  0.0644  0.4195  0.4369
 7162SOL    HW132705   9.197   0.388   6.549 -3.2660 -0.1976 -0.6717
 7162SOL    HW232706   9.272   0.255   6.608  0.7025  1.5194 -1.6589
 7163SOL     OW32707   9.662   7.573   0.360  0.9193 -0.0397  0.1269
 7163SOL    HW132708   9.703   7.497   0.411  0.1196 -0.7194 -0.2391
 7163SOL    HW232709   9.650   7.652   0.422  1.8311 -0.1693  0.4825
 7164SOL     OW32710   1.269   1.020   0.512  0.0511  0.2327  0.6115
 7164SOL    HW132711   1.227   1.047   0.426  2.1656  3.0728  0.3965
 7164SOL    HW232712   1.206   1.038   0.588 -0.0914  2.0441  0.0707
 7165SOL     OW32713   3.083   4.913   5.113  0.3018  0.1956 -0.8016
 7165SOL    HW132714   3.143   4.991   5.095  0.6587 -0.2808 -1.7297
 7165SOL    HW232715   3.045   4.880   5.027  0.7196 -1.0935 -0.5081
 7166SOL     OW32716   9.994   4.947   6.391 -0.3055 -0.1182 -0.4307
 7166SOL    HW132717   9.923   4.999   6.438 -1.7891 -0.6982 -1.9771
 7166SOL    HW232718   9.974   4.849   6.399  0.1571 -0.2724 -1.1176
 7167SOL     OW32719   5.779   0.369   5.372  0.4861 -0.6031 -0.8759
 7167SOL    HW132720   5.777   0.337   5.467 -0.0679  0.8182 -0.3892
 7167SOL    HW232721   5.827   0.456   5.368 -1.1390  0.2842 -1.5936
 7168SOL     OW32722   8.760   6.572   6.614  0.5637  0.4362  0.1894
 7168SOL    HW132723   8.764   6.662   6.656 -1.2400  0.8110 -0.4135
 7168SOL    HW232724   8.679   6.566   6.555  1.2647 -1.1924 -0.6410
 7169SOL     OW32725   9.669   1.378   2.814 -0.6541 -0.3128 -0.6051
 7169SOL    HW132726   9.653   1.465   2.769 -1.9620 -2.4054 -4.4166
 7169SOL    HW232727   9.750   1.334   2.775 -0.5746 -1.2561  0.5849
 7170SOL     OW32728   3.598   2.486   1.012  0.0173  0.1694  0.8689
 7170SOL    HW132729   3.610   2.480   0.913 -0.7734  0.9174  0.7267
 7170SOL    HW232730   3.652   2.414   1.056  0.8415  0.2054 -0.0664
 7171SOL     OW32731   1.598   3.396   1.580 -0.3837  0.2748  0.1236
 7171SOL    HW132732   1.630   3.487   1.554  0.1369  0.1741  0.4051
 7171SOL    HW232733   1.582   3.393   1.679 -1.3751  0.3573 -0.0302
 7172SOL     OW32734   6.852   0.929   5.271  0.4203  0.6804  0.4624
 7172SOL    HW132735   6.774   0.883   5.314  0.6641  0.6435  0.8715
 7172SOL    HW232736   6.829   1.024   5.251 -0.0853  0.3844 -0.3809
 7173SOL     OW32737   4.069   1.097   1.454 -0.6199  0.4110  0.3021
 7173SOL    HW132738   4.056   1.138   1.364  0.3895  1.4286  0.6130
 7173SOL    HW232739   4.019   1.149   1.522  0.1976  0.8088  0.6096
 7174SOL     OW32740   3.740   7.789   4.291  0.1815  0.2029 -0.8586
 7174SOL    HW132741   3.827   7.800   4.244 -0.3230  2.2398 -1.3730
 7174SOL    HW232742   3.736   7.851   4.369  0.4662 -2.1915  1.1238
 7175SOL     OW32743   9.237   4.682   5.812 -0.1645 -0.0251 -0.0860
 7175SOL    HW132744   9.282   4.592   5.820  0.9997  0.5209 -0.3021
 7175SOL    HW232745   9.264   4.724   5.725 -3.6457 -1.0466 -1.7204
 7176SOL     OW32746   4.509   8.006   2.548  0.4478 -0.2636  0.3888
 7176SOL    HW132747   4.501   7.973   2.642  0.0032 -0.8912  0.1361
 7176SOL    HW232748   4.592   8.060   2.538  1.1112 -1.2031  0.8420
 7177SOL     OW32749   9.448   5.432   3.155  0.1991 -0.2178 -0.6787
 7177SOL    HW132750   9.496   5.368   3.095 -0.4039  0.0691 -1.4762
 7177SOL    HW232751   9.370   5.471   3.106 -0.9672 -0.8184  0.6712
 7178SOL     OW32752   0.032   8.731   1.015 -0.3313 -0.4778  0.4144
 7178SOL    HW132753   0.092   8.785   1.075 -0.2115 -0.3548  0.1857
 7178SOL    HW232754   0.087   8.688   0.943 -0.6878  0.6998 -0.5772
 7179SOL     OW32755   2.434   8.280   6.376 -0.3214  0.3231 -0.3172
 7179SOL    HW132756   2.448   8.205   6.440 -1.4068  0.6268  0.2801
 7179SOL    HW232757   2.436   8.367   6.426 -0.7031  0.5858 -0.7547
 7180SOL     OW32758   1.601   7.997   6.051 -0.5131 -0.1531 -0.9775
 7180SOL    HW132759   1.697   7.976   6.037 -0.7598 -0.7378 -1.8255
 7180SOL    HW232760   1.548   7.968   5.971 -1.3320  0.5518 -0.6988
 7181SOL     OW32761   8.733   4.535   4.964 -0.0839 -0.6562 -0.2290
 7181SOL    HW132762   8.637   4.506   4.966 -0.4292  0.6006  2.1029
 7181SOL    HW232763   8.738   4.633   4.949  0.7582 -0.3450  1.9908
 7182SOL     OW32764   4.501   5.499   0.899  0.0663 -0.5505  0.4353
 7182SOL    HW132765   4.449   5.519   0.816 -0.4072 -0.9881  0.6259
 7182SOL    HW232766   4.577   5.438   0.877 -0.5825 -1.3794  0.4770
 7183SOL     OW32767   8.547   1.348   5.244 -0.1312  0.0804 -0.2228
 7183SOL    HW132768   8.475   1.338   5.313 -0.4940  1.9177 -0.3300
 7183SOL    HW232769   8.506   1.359   5.154  0.3311 -0.6823 -0.5401
 7184SOL     OW32770   6.839   0.275   5.924  0.0415 -0.2405 -0.1140
 7184SOL    HW132771   6.870   0.239   5.836 -0.9611  0.2600 -0.6817
 7184SOL    HW232772   6.902   0.345   5.955  0.1430 -0.0817 -0.6740
 7185SOL     OW32773   9.825   4.093   3.363 -0.5277 -0.5004  0.8114
 7185SOL    HW132774   9.902   4.143   3.402  0.4546 -0.9386 -0.5254
 7185SOL    HW232775   9.778   4.041   3.435  0.6440 -0.5171  1.5703
 7186SOL     OW32776   5.338   8.203   5.557  0.1225  0.6281 -0.5141
 7186SOL    HW132777   5.390   8.281   5.592  0.0720  0.1642  0.6204
 7186SOL    HW232778   5.277   8.233   5.483  1.7719  1.2332 -1.6531
 7187SOL     OW32779   1.234   9.557   1.674 -0.5046 -0.4376 -1.0668
 7187SOL    HW132780   1.264   9.518   1.587  0.2442 -1.3780 -0.4067
 7187SOL    HW232781   1.303   9.539   1.744 -1.2262  0.0589 -0.2125
 7188SOL     OW32782   3.436   6.448   5.892 -0.2583 -0.2952 -0.0373
 7188SOL    HW132783   3.488   6.519   5.940  0.1201  0.1870 -1.1508
 7188SOL    HW232784   3.430   6.471   5.795 -2.0578 -0.6316 -0.0235
 7189SOL     OW32785   4.111   1.805   1.964  0.7046  0.1125  0.9586
 7189SOL    HW132786   4.012   1.799   1.953  0.9231  0.0463 -1.1847
 7189SOL    HW232787   4.154   1.731   1.912  2.0426  2.2818 -1.0802
 7190SOL     OW32788   8.933   1.635   2.163  0.3842  0.3717  0.3365
 7190SOL    HW132789   8.958   1.542   2.189  0.9201  1.0329  2.2523
 7190SOL    HW232790   8.986   1.663   2.082  1.3244 -0.4508  0.6642
 7191SOL     OW32791   9.770   7.937   0.929  0.3654  0.7145  0.4083
 7191SOL    HW132792   9.810   7.889   1.007  1.7789  0.1636 -0.6386
 7191SOL    HW232793   9.803   8.032   0.928  3.4315 -0.3063 -1.6572
 7192SOL     OW32794   9.730   6.952   3.235 -0.3289 -0.4034  0.8179
 7192SOL    HW132795   9.633   6.975   3.230 -0.1076  0.2672 -0.7856
 7192SOL    HW232796   9.740   6.855   3.257 -1.3530 -0.4160  1.2655
 7193SOL     OW32797   1.600   9.166   5.808 -0.5022  0.1153 -0.7304
 7193SOL    HW132798   1.573   9.086   5.754  2.6207 -1.0293 -0.6872
 7193SOL    HW232799   1.632   9.238   5.746 -0.7666  0.3359 -0.6133
 7194SOL     OW32800   0.415   1.985   0.344 -0.3132 -0.1143 -0.3110
 7194SOL    HW132801   0.396   2.077   0.311 -0.8971 -0.3198 -0.5448
 7194SOL    HW232802   0.368   1.970   0.431 -0.7701 -0.4273 -0.6115
 7195SOL     OW32803   4.623   3.706   0.414  0.4308 -0.5357 -0.0257
 7195SOL    HW132804   4.533   3.716   0.456 -0.2781 -1.4493 -1.2688
 7195SOL    HW232805   4.675   3.636   0.463  0.7152  0.4462  1.0872
 7196SOL     OW32806   8.491   4.154   4.829 -0.0503 -0.4858 -0.1811
 7196SOL    HW132807   8.456   4.135   4.920  0.4540 -0.0479  0.1084
 7196SOL    HW232808   8.415   4.176   4.768 -0.1268  3.0790  1.0900
 7197SOL     OW32809   2.813   8.211   6.599  0.3294 -0.3397  0.8778
 7197SOL    HW132810   2.903   8.167   6.597  0.1605 -0.6788  0.0799
 7197SOL    HW232811   2.762   8.180   6.679  0.1299 -1.8058  0.2062
 7198SOL     OW32812   5.388   9.824   1.820 -0.5680 -0.1018  0.4568
 7198SOL    HW132813   5.310   9.844   1.761 -0.2617 -2.7141 -0.8638
 7198SOL    HW232814   5.372   9.739   1.870  0.4147  0.5996  2.0152
 7199SOL     OW32815   0.274   9.896   6.315 -0.2286  0.2647 -0.4699
 7199SOL    HW132816   0.337   9.956   6.266 -0.6073  0.6032 -0.5366
 7199SOL    HW232817   0.196   9.875   6.256 -1.5579  2.0981  0.6203
 7200SOL     OW32818   1.743   8.216   5.520 -0.4313 -0.0404  0.0353
 7200SOL    HW132819   1.659   8.185   5.475 -1.2080  2.7918 -0.6140
 7200SOL    HW232820   1.821   8.164   5.485 -1.8693 -2.5831  0.4954
 7201SOL     OW32821   7.911   8.312   3.680  0.3222 -0.0635 -0.2077
 7201SOL    HW132822   7.921   8.364   3.595 -0.4056  0.5966  0.1103
 7201SOL    HW232823   7.817   8.281   3.689  0.8716 -1.9587 -0.6877
 7202SOL     OW32824   6.956   0.579   0.809  0.5134 -0.3199 -0.1151
 7202SOL    HW132825   6.919   0.643   0.741  0.7601 -0.0483  0.0063
 7202SOL    HW232826   7.037   0.619   0.852 -0.7000  0.2783  1.6423
 7203SOL     OW32827   8.068   0.578   4.119  0.0791 -0.1669  0.3192
 7203SOL    HW132828   8.149   0.636   4.112 -0.7084  0.6838 -2.4567
 7203SOL    HW232829   8.095   0.483   4.137  1.7019  0.0516 -0.9688
 7204SOL     OW32830   3.487   2.614   6.707 -0.0046  0.1408 -0.5244
 7204SOL    HW132831   3.573   2.653   6.673  0.2752 -0.1625 -0.1790
 7204SOL    HW232832   3.424   2.600   6.631 -0.2850  1.6816 -0.5794
 7205SOL     OW32833   5.550   8.340   4.484 -0.3883 -0.1600  0.2499
 7205SOL    HW132834   5.578   8.434   4.462  0.6070 -0.1476  1.5189
 7205SOL    HW232835   5.496   8.303   4.408 -3.3890  2.4772  0.9694
 7206SOL     OW32836   7.194   2.687   2.951  0.3235 -0.4166 -0.1310
 7206SOL    HW132837   7.208   2.724   2.859 -0.7593 -4.0190 -1.8260
 7206SOL    HW232838   7.281   2.650   2.985  0.6693  0.7047  0.2386
 7207SOL     OW32839   1.872   4.344   2.345  0.1102  0.5184  0.9524
 7207SOL    HW132840   1.789   4.366   2.396 -1.0537 -0.9488 -0.2691
 7207SOL    HW232841   1.938   4.300   2.406 -0.5708  0.3831  1.5941
 7208SOL     OW32842   3.921   8.581   5.305  0.2935  1.0004 -0.2366
 7208SOL    HW132843   3.858   8.595   5.229  0.5469 -0.1916 -0.6711
 7208SOL    HW232844   3.899   8.645   5.378 -2.3393 -0.3661  0.2258
 7209SOL     OW32845   1.295   4.234   5.730  0.3057 -0.5426 -0.4049
 7209SOL    HW132846   1.249   4.209   5.644 -0.1893 -1.3579  0.0919
 7209SOL    HW232847   1.249   4.313   5.770 -0.4767 -1.1615 -0.0699
 7210SOL     OW32848   2.769   3.614   6.516 -0.3410 -0.1878 -0.1128
 7210SOL    HW132849   2.850   3.586   6.568  0.0751 -1.4198 -1.3952
 7210SOL    HW232850   2.770   3.713   6.505  0.2098 -0.0377  1.1571
 7211SOL     OW32851   6.523   2.031   4.613 -0.4475  0.4821 -0.2323
 7211SOL    HW132852   6.496   2.109   4.670 -1.2814 -0.3247  0.5025
 7211SOL    HW232853   6.571   1.964   4.670 -3.3307 -1.4024  0.1069
 7212SOL     OW32854   4.057   9.270   1.630  0.3123  0.4754 -0.1426
 7212SOL    HW132855   4.129   9.223   1.681  0.3991 -0.1571 -0.8454
 7212SOL    HW232856   3.980   9.207   1.615  1.1294  0.0243 -2.5526
 7213SOL     OW32857   3.241   0.084   2.699  0.2713 -0.3063 -0.1145
 7213SOL    HW132858   3.191   0.006   2.661 -0.4263  0.6351 -1.1814
 7213SOL    HW232859   3.196   0.116   2.782 -1.0220  0.6435 -1.1660
 7214SOL     OW32860   1.910   5.750   3.260  0.3007 -0.2166 -0.2933
 7214SOL    HW132861   1.867   5.710   3.179 -0.9969  0.2714  0.1447
 7214SOL    HW232862   1.843   5.804   3.310  1.0679 -0.5839  1.1581
 7215SOL     OW32863   9.015   4.318   5.435  0.3312  0.2532  0.3213
 7215SOL    HW132864   8.926   4.327   5.388  1.4336  0.4177 -1.7959
 7215SOL    HW232865   9.002   4.329   5.533 -2.1332 -0.5921  0.1284
 7216SOL     OW32866   6.728   9.681   2.607 -0.2545  0.3778 -0.0198
 7216SOL    HW132867   6.790   9.756   2.630  0.0701  0.0653  0.1477
 7216SOL    HW232868   6.748   9.649   2.515 -0.1229  0.2335  0.0587
 7217SOL     OW32869   9.832   8.343   1.315  0.4349  0.6656 -0.4426
 7217SOL    HW132870   9.926   8.314   1.333  0.5354  0.2640 -1.5410
 7217SOL    HW232871   9.771   8.264   1.317 -0.0056  1.0240  0.9759
 7218SOL     OW32872   0.278   5.174   4.008 -0.4620  0.3865 -0.0230
 7218SOL    HW132873   0.318   5.161   3.917  0.8443  1.8255  0.3217
 7218SOL    HW232874   0.319   5.254   4.051 -1.3259 -0.0798  1.7070
 7219SOL     OW32875   1.772   7.986   2.788  0.3510 -0.4413  0.6901
 7219SOL    HW132876   1.808   7.912   2.845  2.1092  0.4895  0.8309
 7219SOL    HW232877   1.673   7.980   2.784  0.1657 -0.5855  3.8403
 7220SOL     OW32878   1.095   5.961   5.807 -0.1754  0.6286 -0.5836
 7220SOL    HW132879   1.059   5.877   5.848 -0.0206  0.1484 -1.4337
 7220SOL    HW232880   1.112   6.028   5.880  3.1641 -1.3291  0.5630
 7221SOL     OW32881   1.779   3.375   2.394 -0.6918 -0.1227 -1.0221
 7221SOL    HW132882   1.704   3.350   2.333 -1.9957 -0.8113  0.8167
 7221SOL    HW232883   1.836   3.294   2.411 -1.5225 -0.4485  0.2804
 7222SOL     OW32884   1.610   6.411   5.994 -0.1614  0.1171 -0.2181
 7222SOL    HW132885   1.667   6.376   6.069 -0.6235  0.3701  0.2470
 7222SOL    HW232886   1.609   6.343   5.920 -0.0892 -0.3380  0.1946
 7223SOL     OW32887   1.843   9.985   5.637  0.2399  0.3829  0.0173
 7223SOL    HW132888   1.774  10.057   5.640  0.5665  0.6610  1.1067
 7223SOL    HW232889   1.799   9.897   5.620 -0.2720  0.6996 -0.2933
 7224SOL     OW32890   7.211   1.465   5.464 -0.3596  0.4201 -0.2713
 7224SOL    HW132891   7.124   1.513   5.448  0.7823  2.8627  0.5320
 7224SOL    HW232892   7.286   1.522   5.429  1.1909 -0.0034  2.2953
 7225SOL     OW32893   5.035   4.029   3.352 -0.1135  0.4802  0.2773
 7225SOL    HW132894   5.080   3.963   3.291 -1.2797 -0.2470  0.1799
 7225SOL    HW232895   4.937   4.029   3.334 -0.7217 -0.9089  3.1807
 7226SOL     OW32896   7.522   0.008   3.256 -0.0552 -0.3666  0.1085
 7226SOL    HW132897   7.592   0.030   3.188  0.6762  0.0218  0.9724
 7226SOL    HW232898   7.556  -0.061   3.319 -0.8708 -1.0064 -0.1497
 7227SOL     OW32899   8.781   7.181   4.424 -0.2809 -0.4937  0.2286
 7227SOL    HW132900   8.725   7.190   4.506  0.6297 -0.7414  0.8873
 7227SOL    HW232901   8.866   7.231   4.437 -0.6600  0.4997 -1.0549
 7228SOL     OW32902   4.141   7.241   3.629  0.3417  0.2077  0.6642
 7228SOL    HW132903   4.049   7.201   3.627  0.2411  0.4306  0.8809
 7228SOL    HW232904   4.135   7.340   3.618  0.6320  0.1082 -0.4785
 7229SOL     OW32905   9.216   5.902   3.001  0.7983 -0.2494  0.5641
 7229SOL    HW132906   9.250   5.993   2.977  0.9234  0.2728  2.6199
 7229SOL    HW232907   9.294   5.840   3.010  0.9406  0.0529  1.5788
 7230SOL     OW32908   6.810   7.409   3.398 -0.1046  0.1486 -0.4288
 7230SOL    HW132909   6.836   7.348   3.473 -0.9584 -2.1974 -1.9957
 7230SOL    HW232910   6.736   7.469   3.428  0.3419  0.0395  0.9429
 7231SOL     OW32911   2.368   2.426   6.505 -0.6026 -0.9020 -0.9958
 7231SOL    HW132912   2.271   2.426   6.532 -0.4096  0.7514 -0.2452
 7231SOL    HW232913   2.378   2.476   6.419  0.0391  2.0462  0.7438
 7232SOL     OW32914   9.578   4.245   5.733 -0.3183  0.7137  0.0127
 7232SOL    HW132915   9.653   4.206   5.785  0.4946  0.6872 -1.1771
 7232SOL    HW232916   9.597   4.341   5.714 -0.5881  0.7104 -0.2810
 7233SOL     OW32917   2.926   3.390   3.872 -0.3642  0.1439 -0.1352
 7233SOL    HW132918   2.846   3.345   3.910  0.1833  0.6126  1.5875
 7233SOL    HW232919   2.910   3.489   3.869  0.2016  0.2478  0.3187
 7234SOL     OW32920   2.193   6.355   4.096  0.5538 -0.0358  0.0504
 7234SOL    HW132921   2.211   6.452   4.079 -0.0087  0.1950  0.7284
 7234SOL    HW232922   2.233   6.300   4.024 -0.4996  0.8084 -1.2017
 7235SOL     OW32923   7.617   3.027   6.273  0.1779  0.3818 -0.0202
 7235SOL    HW132924   7.587   3.074   6.190 -2.7373 -2.7815 -0.8878
 7235SOL    HW232925   7.547   3.038   6.345 -0.6835 -2.6722 -0.3205
 7236SOL     OW32926   4.772   6.031   2.240 -0.1756 -0.0576  0.1962
 7236SOL    HW132927   4.708   5.964   2.201  0.2647 -0.5270  0.2774
 7236SOL    HW232928   4.720   6.105   2.282 -0.6591  0.0302 -0.5471
 7237SOL     OW32929   1.343   4.492   0.894 -0.0972 -0.3110  0.0176
 7237SOL    HW132930   1.349   4.398   0.928 -2.8008 -0.6346 -0.3375
 7237SOL    HW232931   1.410   4.549   0.943 -0.5182 -1.7849  2.4042
 7238SOL     OW32932   0.982   8.913   0.907 -0.4388 -0.1785 -0.2565
 7238SOL    HW132933   1.078   8.883   0.909 -0.4191 -0.4440 -2.8575
 7238SOL    HW232934   0.972   8.997   0.960  1.3006 -0.0264 -0.1358
 7239SOL     OW32935   2.041   4.579   4.309 -0.0223  0.4871  0.2867
 7239SOL    HW132936   1.952   4.541   4.334  0.4407 -0.5255  0.4333
 7239SOL    HW232937   2.109   4.549   4.375  0.0783  2.8743  1.2819
 7240SOL     OW32938   3.867   8.291   1.124 -0.1939  0.3679 -0.1034
 7240SOL    HW132939   3.946   8.310   1.182  0.0279 -0.0295 -0.2708
 7240SOL    HW232940   3.895   8.296   1.028  0.1660 -1.9492 -0.1597
 7241SOL     OW32941   0.218   5.326   2.781 -0.2356  0.0517  0.2017
 7241SOL    HW132942   0.141   5.268   2.808 -0.3850  0.6101  0.9909
 7241SOL    HW232943   0.297   5.306   2.840  0.1226 -0.2767 -0.3814
 7242SOL     OW32944   1.540   2.017   1.685  0.1442  0.6528 -0.1598
 7242SOL    HW132945   1.588   2.034   1.599  1.6863  1.9775  0.9291
 7242SOL    HW232946   1.450   2.061   1.683 -1.1799 -1.9714 -2.2721
 7243SOL     OW32947   8.987   5.824   4.691 -0.1717 -0.2174 -0.5250
 7243SOL    HW132948   9.086   5.822   4.672  0.0546 -1.4589  0.6484
 7243SOL    HW232949   8.942   5.886   4.627  1.2595 -0.2512 -1.6070
 7244SOL     OW32950   3.490   7.221   2.758 -0.2095 -0.0752 -0.5545
 7244SOL    HW132951   3.516   7.245   2.664 -1.4127 -0.2152 -0.9286
 7244SOL    HW232952   3.392   7.202   2.762  0.1797 -2.0560  0.3167
 7245SOL     OW32953   7.397   3.119   1.878 -0.1054  0.4440 -0.0793
 7245SOL    HW132954   7.339   3.044   1.908 -0.9659  0.8928 -0.5951
 7245SOL    HW232955   7.435   3.166   1.958 -0.9650  0.5388  0.2822
 7246SOL     OW32956   0.800   4.873   0.111  0.0149  0.3550 -0.4302
 7246SOL    HW132957   0.887   4.837   0.079  0.4666  2.1840 -1.3412
 7246SOL    HW232958   0.800   4.876   0.211 -0.8040 -3.9109 -0.1951
 7247SOL     OW32959   4.267   0.164   2.056 -0.1128  0.3866 -0.1637
 7247SOL    HW132960   4.313   0.076   2.070  0.0857  0.7122  1.3704
 7247SOL    HW232961   4.312   0.234   2.112 -0.9508  1.2327 -0.5344
 7248SOL     OW32962   2.636   9.558   6.064 -0.1452  0.3704 -0.2527
 7248SOL    HW132963   2.699   9.494   6.020 -0.4040  0.4946 -0.8089
 7248SOL    HW232964   2.685   9.641   6.091  0.1758 -0.0281  0.4051
 7249SOL     OW32965   2.500   0.439   4.019 -0.3137  0.0248 -0.1688
 7249SOL    HW132966   2.461   0.368   4.079  0.0625  0.9098  1.1606
 7249SOL    HW232967   2.430   0.507   3.999 -0.7533 -0.8734 -1.6817
 7250SOL     OW32968   6.854   4.289   1.226  0.1521  0.4906 -0.2625
 7250SOL    HW132969   6.831   4.329   1.315  1.4585  1.4022 -0.3297
 7250SOL    HW232970   6.809   4.342   1.154 -2.4193 -1.3385 -0.0843
 7251SOL     OW32971   3.257   9.568   4.283  0.7857 -0.0730 -0.0128
 7251SOL    HW132972   3.212   9.545   4.196  3.8178 -0.7144 -1.4966
 7251SOL    HW232973   3.224   9.506   4.354 -0.1668 -0.9534 -1.1811
 7252SOL     OW32974   1.849   0.008   1.244 -0.2434  0.0331 -0.6525
 7252SOL    HW132975   1.949   0.003   1.243 -0.3666 -3.1358 -1.4706
 7252SOL    HW232976   1.818   0.065   1.167  0.8780  0.1408 -1.0375
 7253SOL     OW32977   4.884   0.632   2.481  0.2276  0.4543  0.0364
 7253SOL    HW132978   4.871   0.576   2.564 -2.8064  1.3292  0.2160
 7253SOL    HW232979   4.817   0.605   2.413 -0.2450  2.8319 -0.4516
 7254SOL     OW32980   7.998   4.882   5.124 -0.6720  0.2594 -0.2021
 7254SOL    HW132981   7.986   4.864   5.222 -3.1056  0.7864 -0.3823
 7254SOL    HW232982   8.030   4.799   5.079 -3.8997 -1.3657  0.3248
 7255SOL     OW32983   1.241   7.583   3.779  0.2672 -0.4957  0.3782
 7255SOL    HW132984   1.153   7.563   3.736 -0.7837  2.6819  0.9492
 7255SOL    HW232985   1.228   7.599   3.877  1.5440 -0.3428  0.5346
 7256SOL     OW32986   4.612   9.959   0.743  0.3450  0.3098 -0.0953
 7256SOL    HW132987   4.518   9.993   0.738 -0.2245 -1.2700 -0.5116
 7256SOL    HW232988   4.613   9.872   0.792  1.7366  0.8071  0.7729
 7257SOL     OW32989   9.460   3.654   2.113 -0.1252 -0.4086  0.2166
 7257SOL    HW132990   9.501   3.739   2.147 -0.4075 -1.0782  2.3245
 7257SOL    HW232991   9.520   3.614   2.043  0.2310  1.2694 -0.4663
 7258SOL     OW32992   8.205   8.196   4.257 -0.0458 -0.0356  0.6819
 7258SOL    HW132993   8.209   8.150   4.346 -0.7922  0.0174  0.7495
 7258SOL    HW232994   8.160   8.135   4.191  2.8376 -1.1310 -0.3293
 7259SOL     OW32995   8.332   1.114   4.654  0.3359  0.0292 -0.2326
 7259SOL    HW132996   8.343   1.213   4.657 -0.1608  0.1412 -1.6521
 7259SOL    HW232997   8.375   1.073   4.734 -1.4840  1.5731  1.5826
 7260SOL     OW32998   8.428   5.452   3.921  0.4820  0.3501  0.0150
 7260SOL    HW132999   8.464   5.461   4.013 -0.3429  1.2603  0.2513
 7260SOL    HW233000   8.418   5.542   3.879  2.6445 -0.1551 -1.6725
 7261SOL     OW33001   2.822   3.929   0.947  0.6664  0.7142  0.2006
 7261SOL    HW133002   2.896   3.929   1.014 -0.1896 -1.7581  1.2122
 7261SOL    HW233003   2.858   3.955   0.857  2.2896  1.6969  1.1015
 7262SOL     OW33004   0.366   3.809   4.990  0.2660  0.5781 -0.5514
 7262SOL    HW133005   0.464   3.789   5.002 -0.2564 -0.9414  1.4821
 7262SOL    HW233006   0.345   3.811   4.892  2.2423  0.4825 -1.0193
 7263SOL     OW33007   2.924   4.437   3.275  0.5101  0.2547  0.1058
 7263SOL    HW133008   2.960   4.344   3.283  0.1091 -0.0208 -1.1333
 7263SOL    HW233009   2.919   4.479   3.366  1.7185 -0.5408  0.5477
 7264SOL     OW33010   7.943   3.312   1.111  0.0413  0.2476  0.5763
 7264SOL    HW133011   8.038   3.296   1.138  0.1400 -2.4431 -1.2223
 7264SOL    HW233012   7.882   3.271   1.178  0.1047  1.7299  1.5798
 7265SOL     OW33013   0.517   9.499   6.396  0.2061 -0.0902 -0.0835
 7265SOL    HW133014   0.604   9.547   6.409  0.1240 -0.0323  0.2829
 7265SOL    HW233015   0.443   9.556   6.432  0.1570 -0.6932  0.7950
 7266SOL     OW33016   2.584   8.991   5.681 -0.1727  0.0421 -0.2059
 7266SOL    HW133017   2.546   8.901   5.704  0.4155 -0.2287 -0.2863
 7266SOL    HW233018   2.651   8.981   5.608  0.3434  0.4716  0.2106
 7267SOL     OW33019   2.899   9.681   4.708 -0.0047  0.5689  0.2433
 7267SOL    HW133020   2.948   9.707   4.625 -0.3618  2.0860  0.5027
 7267SOL    HW233021   2.800   9.687   4.692 -0.0881 -0.1424  0.4674
 7268SOL     OW33022   3.275   8.061   3.203 -0.0880  0.9890  0.3247
 7268SOL    HW133023   3.314   8.029   3.117 -1.3313  1.1604 -0.3069
 7268SOL    HW233024   3.233   7.984   3.251 -1.7119  1.3527 -0.4701
 7269SOL     OW33025   8.985   8.491   4.255  0.5174 -0.2174  0.1981
 7269SOL    HW133026   8.893   8.453   4.269  0.0049  0.5248 -1.0248
 7269SOL    HW233027   9.031   8.439   4.182  0.7294 -0.0148  0.1894
 7270SOL     OW33028   8.241   0.205   2.392  0.0939 -0.1113  0.0893
 7270SOL    HW133029   8.295   0.121   2.394 -0.7903 -0.6771  0.1751
 7270SOL    HW233030   8.293   0.279   2.436 -0.1173 -1.2212  2.3077
 7271SOL     OW33031   7.946   0.315   3.929 -0.2437 -0.1210 -0.0832
 7271SOL    HW133032   7.891   0.258   3.991 -1.5855 -0.0003 -1.1220
 7271SOL    HW233033   7.913   0.409   3.932  1.2749  0.3981  0.8224
 7272SOL     OW33034   8.657   4.417   4.312  0.5143 -0.1229 -0.4798
 7272SOL    HW133035   8.656   4.446   4.407 -0.1369  0.3187 -0.6165
 7272SOL    HW233036   8.639   4.318   4.307 -2.9223  0.4179 -0.3166
 7273SOL     OW33037   4.976   3.348   2.532 -0.2049 -0.0233  0.0859
 7273SOL    HW133038   5.009   3.435   2.495 -1.2963  0.5521  0.4256
 7273SOL    HW233039   4.998   3.343   2.629  1.2337 -0.8223 -0.2685
 7274SOL     OW33040   8.409   0.710   0.687  0.3464  0.7266 -0.0490
 7274SOL    HW133041   8.342   0.739   0.619  0.7348  0.1862 -0.6691
 7274SOL    HW233042   8.492   0.765   0.679  1.4731 -1.1750 -1.9008
 7275SOL     OW33043   0.267   9.304   2.470  0.0311  0.0662 -0.0212
 7275SOL    HW133044   0.350   9.259   2.502  0.8959  2.9181  1.9001
 7275SOL    HW233045   0.206   9.321   2.547 -0.6371  1.4373 -0.8372
 7276SOL     OW33046   8.436   3.138   0.573  0.7911  0.4508 -0.7659
 7276SOL    HW133047   8.443   3.076   0.495  1.8239  0.5681 -0.7663
 7276SOL    HW233048   8.498   3.109   0.645  1.6409  1.7609 -0.9631
 7277SOL     OW33049   9.842   5.655   6.407 -0.0648  0.4246 -0.5581
 7277SOL    HW133050   9.757   5.603   6.418  1.7503 -2.9649 -1.6636
 7277SOL    HW233051   9.914   5.613   6.463  1.0991  2.7119 -0.2900
 7278SOL     OW33052   0.613   5.729   5.886 -0.0073 -0.3456  0.1874
 7278SOL    HW133053   0.679   5.671   5.934  1.7653  1.1947 -0.3324
 7278SOL    HW233054   0.531   5.676   5.866  0.6808 -2.0293  1.6989
 7279SOL     OW33055   3.288   4.017   1.686  0.0921  0.3294 -0.1349
 7279SOL    HW133056   3.349   3.975   1.619 -0.2566 -0.8576  0.2780
 7279SOL    HW233057   3.200   4.036   1.643 -0.1866 -0.5868  0.0184
 7280SOL     OW33058   0.500   9.472   4.812 -0.6087  0.1328 -0.2073
 7280SOL    HW133059   0.524   9.478   4.715 -1.5140 -1.2962 -0.5312
 7280SOL    HW233060   0.466   9.561   4.843  0.7376  0.9114 -0.9023
 7281SOL     OW33061   8.681   2.163   5.479  0.2657  0.3882 -0.0534
 7281SOL    HW133062   8.721   2.119   5.400  1.9937 -0.5255  1.3055
 7281SOL    HW233063   8.663   2.095   5.550  1.3611  1.5902  1.4088
 7282SOL     OW33064   6.038   0.996   2.289  0.2028  0.2847 -0.1038
 7282SOL    HW133065   6.055   1.043   2.202  1.1737 -0.6836 -0.4523
 7282SOL    HW233066   6.117   0.938   2.312 -0.2834  0.0886  1.1380
 7283SOL     OW33067   8.621   0.280   5.677 -0.5956 -0.0418  0.0671
 7283SOL    HW133068   8.614   0.230   5.763 -1.4453  1.6488  1.0140
 7283SOL    HW233069   8.707   0.331   5.674 -0.6453  0.0394  0.0145
 7284SOL     OW33070   2.069   9.266   4.927 -0.0203  0.7363  0.1639
 7284SOL    HW133071   2.099   9.293   5.018  0.1717 -1.6492  0.8303
 7284SOL    HW233072   1.983   9.216   4.934  1.2764 -1.6862 -0.6827
 7285SOL     OW33073   9.925   1.866   3.011  0.0735  0.0918  0.5551
 7285SOL    HW133074   9.966   1.930   2.945 -2.5206  0.5073 -0.7091
 7285SOL    HW233075   9.918   1.910   3.100  0.5217  0.7081  0.2927
 7286SOL     OW33076   9.647   0.653   2.732  0.1967  0.1028 -0.1785
 7286SOL    HW133077   9.672   0.613   2.820  0.1184 -2.2338 -1.1814
 7286SOL    HW233078   9.726   0.701   2.694  0.9079 -0.7621  0.1726
 7287SOL     OW33079   3.547   5.325   4.749  0.1618 -0.3502 -0.6392
 7287SOL    HW133080   3.567   5.386   4.825 -0.0697  0.3579 -1.1422
 7287SOL    HW233081   3.628   5.270   4.728  0.0851 -0.8811  0.4091
 7288SOL     OW33082   8.847   6.462   5.605 -0.0706 -0.1102 -0.1508
 7288SOL    HW133083   8.898   6.395   5.659 -1.4039 -1.4452 -0.5029
 7288SOL    HW233084   8.806   6.530   5.665  1.6062  0.6156  0.1828
 7289SOL     OW33085   8.097   2.607   0.867  0.0736 -0.7389  0.4796
 7289SOL    HW133086   8.128   2.580   0.958  0.0766 -2.9667 -0.1485
 7289SOL    HW233087   8.159   2.567   0.798 -0.1600  0.5843 -0.5081
 7290SOL     OW33088   1.493   9.298   4.260 -0.1818 -0.1157  0.5079
 7290SOL    HW133089   1.480   9.363   4.335  0.3040  1.3779 -0.6755
 7290SOL    HW233090   1.404   9.271   4.223 -0.3430  1.5783 -0.4001
 7291SOL     OW33091   7.389   8.343   3.309  0.4683 -0.4237 -0.5008
 7291SOL    HW133092   7.296   8.353   3.274  0.5481  1.6208 -0.2151
 7291SOL    HW233093   7.454   8.360   3.235  0.6160  0.7005 -0.1239
 7292SOL     OW33094   3.182   2.990   1.612 -0.2223  0.3061  0.3922
 7292SOL    HW133095   3.117   3.065   1.600  0.6261  1.0331  0.3033
 7292SOL    HW233096   3.223   2.996   1.703  0.1328  0.1719  0.2399
 7293SOL     OW33097   4.106   1.842   0.287 -0.1251  0.2327 -0.2695
 7293SOL    HW133098   4.185   1.867   0.343  0.9628 -1.2775 -1.0734
 7293SOL    HW233099   4.119   1.875   0.193 -0.4793  0.0326 -0.3919
 7294SOL     OW33100   0.169   0.261   6.688 -0.1503 -0.0289 -0.7557
 7294SOL    HW133101   0.174   0.179   6.746 -0.2412 -0.9950 -2.1003
 7294SOL    HW233102   0.100   0.323   6.725 -0.7486 -0.9805 -0.2544
 7295SOL     OW33103   0.017   3.244   0.911  0.6043  0.0530  0.1102
 7295SOL    HW133104   0.083   3.179   0.947  1.1238  0.4194 -0.1791
 7295SOL    HW233105  -0.054   3.261   0.979  0.2936 -1.0435  0.0789
 7296SOL     OW33106   9.163   7.548   0.130  0.4756 -0.2216  0.8666
 7296SOL    HW133107   9.129   7.542   0.224  1.3354 -2.8771  1.0526
 7296SOL    HW233108   9.257   7.581   0.131  0.7758 -1.0662  1.0233
 7297SOL     OW33109   2.049   2.220   5.573  0.4557 -0.0569 -0.2537
 7297SOL    HW133110   2.136   2.264   5.550  0.2277  0.0228 -0.9579
 7297SOL    HW233111   2.000   2.196   5.489 -0.0130 -0.4800  0.1385
 7298SOL     OW33112   1.179   5.970   2.794  0.6103 -0.1347  0.2046
 7298SOL    HW133113   1.197   6.000   2.888  0.7230 -0.0262  0.1470
 7298SOL    HW233114   1.119   5.890   2.796  0.1901  0.1778  0.3524
 7299SOL     OW33115   8.333   4.616   3.936  0.6324  0.2594  0.3089
 7299SOL    HW133116   8.367   4.581   4.023  1.4212  0.3782  0.0521
 7299SOL    HW233117   8.411   4.639   3.877  0.1681  3.0021  0.6919
 7300SOL     OW33118   1.439   9.625   5.793  0.3862 -0.1293 -0.1707
 7300SOL    HW133119   1.350   9.630   5.748  0.6543 -0.0659 -0.7019
 7300SOL    HW233120   1.498   9.561   5.743  0.6149 -0.2352  0.2257
 7301SOL     OW33121   4.442   7.749   5.322  0.4485  0.0484 -0.3485
 7301SOL    HW133122   4.347   7.721   5.334  0.2433  0.9171  0.0601
 7301SOL    HW233123   4.500   7.668   5.316 -0.5962 -0.5294 -2.9781
 7302SOL     OW33124   6.989   0.811   4.709  0.1124  0.3836 -0.2992
 7302SOL    HW133125   6.912   0.875   4.709  0.0730  0.4267  2.8974
 7302SOL    HW233126   7.060   0.845   4.770  0.9076 -1.6876 -0.0531
 7303SOL     OW33127   3.723   2.325   4.604  0.4814  0.5180  0.5710
 7303SOL    HW133128   3.774   2.240   4.595  0.5459  0.7534 -1.5949
 7303SOL    HW233129   3.632   2.306   4.639  1.2222 -0.1906  2.1255
 7304SOL     OW33130   8.596   8.243   0.346 -0.2348  0.7973  0.2687
 7304SOL    HW133131   8.690   8.276   0.336 -0.0019  0.0326 -0.0890
 7304SOL    HW233132   8.579   8.219   0.442  1.0044 -2.2436 -0.2319
 7305SOL     OW33133   0.504   6.385   6.148  0.2496  0.0830 -0.0948
 7305SOL    HW133134   0.594   6.410   6.184  0.3144  0.6582 -0.6354
 7305SOL    HW233135   0.434   6.400   6.218  0.3833  1.1064 -0.1714
 7306SOL     OW33136   0.483   1.506   0.800 -0.5157  0.0100 -0.3697
 7306SOL    HW133137   0.513   1.561   0.878 -0.7050 -0.9496  0.3854
 7306SOL    HW233138   0.387   1.481   0.812  0.0889 -2.1335  0.2793
 7307SOL     OW33139   9.539   8.529   3.353  0.3349  0.0836 -0.2378
 7307SOL    HW133140   9.463   8.472   3.320  0.5125 -1.6244  2.0940
 7307SOL    HW233141   9.546   8.518   3.453  1.0621  3.4344  0.1232
 7308SOL     OW33142   7.947   9.594   5.948 -0.0091 -0.3687  0.1475
 7308SOL    HW133143   8.017   9.530   5.981 -0.6961 -1.2827 -0.1539
 7308SOL    HW233144   7.866   9.587   6.007 -0.5200 -0.6115 -0.5837
 7309SOL     OW33145   9.895   7.668   4.768 -0.1688 -0.0312  0.4424
 7309SOL    HW133146   9.815   7.629   4.812 -0.2098 -1.6986 -1.0026
 7309SOL    HW233147   9.872   7.756   4.727 -2.0134 -1.6596 -2.1828
 7310SOL     OW33148   5.826   9.916   2.689 -0.0718  0.2149 -0.2767
 7310SOL    HW133149   5.775   9.947   2.770  0.4003  0.9175 -0.2422
 7310SOL    HW233150   5.850   9.820   2.700 -1.6179 -0.2024 -0.4098
 7311SOL     OW33151   3.191   7.077   3.949 -0.0179  0.3347 -0.0622
 7311SOL    HW133152   3.276   7.078   3.896  0.7100 -0.4532  1.0718
 7311SOL    HW233153   3.192   7.153   4.014 -0.4272  0.6547 -0.4299
 7312SOL     OW33154   2.757   1.143   3.359  0.1634  0.0289 -0.0717
 7312SOL    HW133155   2.825   1.208   3.324 -0.0327  0.1638 -0.1991
 7312SOL    HW233156   2.666   1.172   3.332  0.1625 -0.8973 -1.1056
 7313SOL     OW33157   9.086   7.616   0.838 -0.3556 -0.4340  0.2746
 7313SOL    HW133158   9.066   7.535   0.783  3.1889 -1.7120  0.7482
 7313SOL    HW233159   9.094   7.696   0.777  1.1866 -1.3977 -0.8268
 7314SOL     OW33160   0.291   4.695   4.778  0.2119  0.0215 -0.2279
 7314SOL    HW133161   0.372   4.651   4.818 -0.5969 -0.3264  1.0510
 7314SOL    HW233162   0.269   4.651   4.691  0.2390 -1.1852  0.3674
 7315SOL     OW33163   9.598   3.413   0.274  0.0130  0.2652  0.8953
 7315SOL    HW133164   9.679   3.359   0.248 -0.4144 -0.6112  1.3584
 7315SOL    HW233165   9.593   3.494   0.217  0.4332 -0.4112 -0.1265
 7316SOL     OW33166   2.764   4.611   5.491  0.1252  0.4510 -0.4967
 7316SOL    HW133167   2.783   4.686   5.554 -0.2337  0.5284 -0.4796
 7316SOL    HW233168   2.682   4.632   5.438 -1.4894 -1.0515  1.3008
 7317SOL     OW33169   9.330   6.701   1.953 -0.4307  0.1725 -0.7708
 7317SOL    HW133170   9.309   6.793   1.989 -0.0641 -0.0675  0.0623
 7317SOL    HW233171   9.278   6.633   2.004 -0.7713 -0.0878 -1.4524
 7318SOL     OW33172   2.051   4.214   5.800 -0.0505  0.0269  0.1513
 7318SOL    HW133173   2.117   4.201   5.874  0.7098  1.6312 -0.2139
 7318SOL    HW233174   2.084   4.169   5.717  1.1197  1.6516 -0.3032
 7319SOL     OW33175   8.886   9.165   1.232  0.3802 -0.0759 -0.5467
 7319SOL    HW133176   8.886   9.264   1.246 -2.4258 -0.1938  0.6680
 7319SOL    HW233177   8.823   9.142   1.158  1.3414 -0.9495 -1.1126
 7320SOL     OW33178   2.122   5.210   6.397 -0.0969 -0.2895 -0.2177
 7320SOL    HW133179   2.078   5.120   6.399  1.8309 -1.2736 -1.0328
 7320SOL    HW233180   2.179   5.217   6.315  2.9649  0.1076  1.8753
 7321SOL     OW33181   0.360   0.769   0.079  0.2902  0.3520  0.1423
 7321SOL    HW133182   0.308   0.693   0.117  1.2864 -0.1579  0.5051
 7321SOL    HW233183   0.334   0.854   0.126 -1.9069  0.4951 -1.2936
 7322SOL     OW33184   3.853   4.994   5.107  0.0806  0.3680  0.6045
 7322SOL    HW133185   3.810   4.904   5.120  0.6986 -0.1327 -0.7185
 7322SOL    HW233186   3.785   5.058   5.071 -0.3881  0.4738  1.6438
 7323SOL     OW33187   3.437   7.297   5.084 -0.1809 -0.0665  0.3755
 7323SOL    HW133188   3.383   7.238   5.143 -0.3885 -0.8169 -0.5470
 7323SOL    HW233189   3.513   7.244   5.045  0.7033  0.7522  0.9746
 7324SOL     OW33190   6.106   1.315   5.747 -0.1386 -0.2844 -0.0258
 7324SOL    HW133191   6.071   1.221   5.742 -2.6212  0.6816 -1.4018
 7324SOL    HW233192   6.107   1.355   5.656  2.0919  0.6271  0.3879
 7325SOL     OW33193   4.711   4.899   6.578  0.0984 -0.3608  0.4281
 7325SOL    HW133194   4.643   4.970   6.559 -0.2648 -0.8634 -0.1312
 7325SOL    HW233195   4.775   4.933   6.648 -0.9326 -0.0255  1.2214
 7326SOL     OW33196   8.486   2.835   2.874 -0.8110 -0.4290 -0.3445
 7326SOL    HW133197   8.513   2.814   2.968 -1.4182  1.3624  0.2522
 7326SOL    HW233198   8.524   2.766   2.812 -0.2050 -1.4923  1.1769
 7327SOL     OW33199   2.864   0.813   0.809  0.1645 -0.1827 -0.0798
 7327SOL    HW133200   2.924   0.893   0.810 -1.7887  1.3312  1.7093
 7327SOL    HW233201   2.840   0.789   0.715 -0.3387  2.2244 -0.5910
 7328SOL     OW33202   1.275   7.755   6.474  0.2865 -0.7957 -0.0536
 7328SOL    HW133203   1.246   7.848   6.452  1.0854 -0.5011  0.1130
 7328SOL    HW233204   1.345   7.725   6.408 -0.1397 -1.3655 -0.2493
 7329SOL     OW33205   1.072   8.680   2.749 -0.4148  0.4359 -0.2180
 7329SOL    HW133206   1.146   8.615   2.766 -2.2405 -1.2073  1.7326
 7329SOL    HW233207   1.014   8.644   2.676 -1.8677 -0.5425  1.3916
 7330SOL     OW33208   4.117   9.720   1.920  0.3495 -0.1873  0.3242
 7330SOL    HW133209   4.207   9.677   1.915  0.6574  0.5828 -1.2833
 7330SOL    HW233210   4.125   9.818   1.901 -0.8305 -0.1398  0.0077
 7331SOL     OW33211   6.781   0.609   5.835 -0.0799 -0.1695 -0.1682
 7331SOL    HW133212   6.874   0.590   5.804  0.5752  1.6328  0.6056
 7331SOL    HW233213   6.769   0.574   5.928  0.0548  0.1968 -0.0104
 7332SOL     OW33214   8.675   2.799   5.396 -0.0593 -0.5475  0.1556
 7332SOL    HW133215   8.705   2.836   5.484 -0.6646  0.5118 -0.0799
 7332SOL    HW233216   8.725   2.715   5.377  2.4816  0.9576 -0.0377
 7333SOL     OW33217   7.075   8.690   3.627 -0.2571  0.2977 -0.0488
 7333SOL    HW133218   7.127   8.632   3.691 -0.9095  0.4407  0.6117
 7333SOL    HW233219   6.981   8.698   3.658 -0.7413 -0.1435 -1.3781
 7334SOL     OW33220   6.127   2.046   4.321 -0.2006  0.3140 -0.0586
 7334SOL    HW133221   6.176   2.128   4.293 -0.9616  0.4824 -0.9210
 7334SOL    HW233222   6.045   2.035   4.265 -0.4453 -0.6873  0.4748
 7335SOL     OW33223   6.838   1.259   4.633 -0.0783  0.3623 -0.5797
 7335SOL    HW133224   6.787   1.327   4.579  0.8190  2.6287  1.3154
 7335SOL    HW233225   6.936   1.277   4.624  0.0730  1.1030  2.1343
 7336SOL     OW33226   8.032   1.715   0.473 -0.4609 -0.7422 -0.1925
 7336SOL    HW133227   8.122   1.671   0.466  0.6036  1.4368 -0.5592
 7336SOL    HW233228   7.975   1.687   0.395  0.4973 -0.8266 -0.8702
 7337SOL     OW33229   2.104   2.721   1.780  0.3087 -0.1602  0.2552
 7337SOL    HW133230   2.173   2.649   1.778  1.6157  1.0558  0.6968
 7337SOL    HW233231   2.124   2.787   1.707 -1.0381 -0.3677 -0.3214
 7338SOL     OW33232   3.029   7.593   4.644  0.1340 -0.2900 -0.1449
 7338SOL    HW133233   3.052   7.558   4.735  1.1058 -0.6809 -0.5358
 7338SOL    HW233234   2.978   7.679   4.653  0.5881 -0.1149  0.7580
 7339SOL     OW33235   8.026   8.919   4.845  0.3245  0.2598 -0.0649
 7339SOL    HW133236   8.058   8.862   4.921 -1.2453  0.9626  1.1494
 7339SOL    HW233237   7.927   8.927   4.848  0.4161  2.0887 -0.9278
 7340SOL     OW33238   9.809   0.453   4.100 -0.2387 -0.6153 -0.2078
 7340SOL    HW133239   9.715   0.448   4.066 -1.5381 -1.3322  3.2896
 7340SOL    HW233240   9.830   0.370   4.152  2.4667 -0.5954 -1.1774
 7341SOL     OW33241   0.899   4.817   3.938  0.3151  0.0285  0.1042
 7341SOL    HW133242   0.867   4.753   3.869 -0.9469  0.1393  0.5702
 7341SOL    HW233243   0.880   4.911   3.908  0.0821  0.0900  0.4402
 7342SOL     OW33244   5.082   0.866   2.481  0.4351  0.3959  0.5366
 7342SOL    HW133245   5.003   0.804   2.479 -1.4854  2.8170 -0.4355
 7342SOL    HW233246   5.103   0.889   2.576 -0.5795  0.3900  0.7742
 7343SOL     OW33247   9.308   8.731   5.840 -0.0697  0.2155 -0.3973
 7343SOL    HW133248   9.346   8.670   5.770 -0.0871 -1.8882  1.3796
 7343SOL    HW233249   9.382   8.787   5.878  0.4241 -0.4881 -0.2941
 7344SOL     OW33250   4.135   8.672   0.003 -0.0108 -0.1520 -0.0982
 7344SOL    HW133251   4.051   8.635   0.042 -1.1937  0.3091 -2.1331
 7344SOL    HW233252   4.112   8.745  -0.061  2.0074  0.6413  0.0519
 7345SOL     OW33253   6.316   9.060   4.669 -0.0262 -0.4292 -0.1309
 7345SOL    HW133254   6.338   8.963   4.680 -2.0655 -0.6978  1.8184
 7345SOL    HW233255   6.270   9.094   4.751 -0.6843  1.8162 -1.3851
 7346SOL     OW33256   4.800   0.367   4.738 -0.3955  0.0775 -0.1425
 7346SOL    HW133257   4.723   0.343   4.680  1.0222 -3.4251 -0.6965
 7346SOL    HW233258   4.783   0.337   4.832  0.9281 -2.1638 -0.6009
 7347SOL     OW33259   6.560   7.512   3.443  0.6748 -0.6829 -0.5677
 7347SOL    HW133260   6.555   7.540   3.347  0.8116  2.5310  0.3061
 7347SOL    HW233261   6.519   7.583   3.500  0.4287 -2.6447  1.7532
 7348SOL     OW33262   7.773   8.298   2.865  0.0315 -0.4173  0.1028
 7348SOL    HW133263   7.779   8.213   2.916 -1.2772 -0.0153  0.9632
 7348SOL    HW233264   7.798   8.375   2.926 -0.5731 -0.0252 -0.1464
 7349SOL     OW33265   1.600   2.734   4.580  0.1097 -0.3033  0.1714
 7349SOL    HW133266   1.521   2.672   4.574 -2.0566  2.4047 -0.3896
 7349SOL    HW233267   1.663   2.714   4.505 -0.7047 -1.6060 -0.1991
 7350SOL     OW33268   2.196   7.626   0.759 -0.7888 -0.6089 -0.0475
 7350SOL    HW133269   2.219   7.594   0.851 -1.6990 -1.2018 -0.0226
 7350SOL    HW233270   2.099   7.651   0.756 -0.9316 -1.2729 -1.0395
 7351SOL     OW33271   6.868   2.487   0.461 -0.2015 -0.6682 -0.2582
 7351SOL    HW133272   6.795   2.536   0.508  0.1621  1.0147 -1.4290
 7351SOL    HW233273   6.955   2.534   0.476  0.1852 -1.0646 -1.2317
 7352SOL     OW33274   4.254   4.343   5.476 -0.1390  0.2570 -0.6885
 7352SOL    HW133275   4.156   4.326   5.473 -0.2882  1.1783 -1.0426
 7352SOL    HW233276   4.295   4.287   5.548 -1.1610  1.0817  0.5489
 7353SOL     OW33277   2.081   0.684   2.516 -0.0226  0.8588  0.1565
 7353SOL    HW133278   2.129   0.657   2.600 -0.4296  0.6556  0.3226
 7353SOL    HW233279   2.126   0.765   2.477  0.9816  0.1527 -0.1525
 7354SOL     OW33280   3.919   4.270   6.337 -0.7729 -0.2386  0.2765
 7354SOL    HW133281   3.846   4.338   6.337 -0.2663  0.3139 -0.0373
 7354SOL    HW233282   3.996   4.304   6.283  0.3183 -0.1600  1.8392
 7355SOL     OW33283   4.393   0.614   1.960  0.1837 -0.1066  0.5786
 7355SOL    HW133284   4.375   0.707   1.991  0.2071  0.0627  0.0918
 7355SOL    HW233285   4.490   0.605   1.937  0.1177 -0.1628  0.3229
 7356SOL     OW33286   3.667   6.690   1.501 -0.4502 -0.3125 -0.0428
 7356SOL    HW133287   3.752   6.735   1.476  1.1575 -1.9652  2.1788
 7356SOL    HW233288   3.599   6.758   1.528 -0.2520  1.0837 -2.8813
 7357SOL     OW33289  10.000   3.944   0.257 -0.1235 -0.0596  0.2091
 7357SOL    HW133290   9.995   3.852   0.218  3.5544  0.3007 -1.2866
 7357SOL    HW233291   9.965   4.010   0.190  2.3368  0.1338 -0.9412
 7358SOL     OW33292   4.960   0.517   0.446  0.1978 -0.5758 -0.0221
 7358SOL    HW133293   4.927   0.458   0.373 -1.3924 -0.2018  0.3779
 7358SOL    HW233294   4.924   0.485   0.534  1.1171 -0.3133  0.4608
 7359SOL     OW33295   3.746   8.900   3.475 -0.3273 -0.1448  0.2634
 7359SOL    HW133296   3.798   8.858   3.550 -1.5262  1.8801  2.3229
 7359SOL    HW233297   3.660   8.851   3.462 -0.9923  0.6049  1.5835
 7360SOL     OW33298   9.960   9.541   3.873 -0.0299 -0.2700  0.8304
 7360SOL    HW133299  10.021   9.621   3.874 -0.9379  0.4359  0.6108
 7360SOL    HW233300   9.865   9.571   3.884 -0.6188 -1.0800 -1.6690
 7361SOL     OW33301   7.643   9.664   3.493  0.4391 -0.3335  0.3400
 7361SOL    HW133302   7.598   9.666   3.404 -0.5219  0.4023  0.8419
 7361SOL    HW233303   7.629   9.575   3.536  0.4905 -0.5167 -0.0188
 7362SOL     OW33304   4.892   5.562   1.158 -0.2694  0.3369  0.0398
 7362SOL    HW133305   4.980   5.552   1.204  0.2462 -0.1318 -1.0308
 7362SOL    HW233306   4.880   5.657   1.129 -1.0031  0.8394  1.9254
 7363SOL     OW33307   7.553   2.351   1.980  0.9187 -0.7189 -0.1579
 7363SOL    HW133308   7.616   2.303   1.919  1.2704  0.7363 -0.9451
 7363SOL    HW233309   7.584   2.339   2.075 -0.3328 -4.0532 -0.0889
 7364SOL     OW33310   0.646   2.962   5.845  0.8988 -0.0971  0.3324
 7364SOL    HW133311   0.745   2.956   5.851  1.0568  1.4305 -0.3639
 7364SOL    HW233312   0.618   3.058   5.854 -0.4528 -0.4177 -0.2897
 7365SOL     OW33313   2.353   0.283   0.131  0.0083 -0.0727  0.6324
 7365SOL    HW133314   2.261   0.245   0.124 -0.2416  0.7489 -0.5528
 7365SOL    HW233315   2.348   0.383   0.137  0.9228  0.1627 -1.9682
 7366SOL     OW33316   2.209   0.441   1.746  0.0827  0.1987  0.3514
 7366SOL    HW133317   2.228   0.390   1.829 -0.7985 -0.5803  0.0826
 7366SOL    HW233318   2.237   0.387   1.666 -0.3806  0.3477  0.0872
 7367SOL     OW33319   2.940   8.376   2.590  0.2671  0.0894 -0.3411
 7367SOL    HW133320   3.005   8.338   2.523  0.8526 -0.3425  0.4633
 7367SOL    HW233321   2.987   8.444   2.646 -0.6455  1.6608 -1.4366
 7368SOL     OW33322   8.283   2.754   4.245 -0.2019 -0.0149  0.7338
 7368SOL    HW133323   8.260   2.831   4.305 -2.9732  0.7026 -1.1229
 7368SOL    HW233324   8.199   2.721   4.201  1.6502 -0.8696 -2.2663
 7369SOL     OW33325   0.614   6.218   0.447  0.2989  0.1946  0.1687
 7369SOL    HW133326   0.688   6.156   0.474 -1.4415 -2.1882 -0.3938
 7369SOL    HW233327   0.541   6.215   0.515 -0.4177  0.5969 -0.5789
 7370SOL     OW33328   9.355   6.849   4.035 -0.2146 -0.5117  0.3787
 7370SOL    HW133329   9.416   6.777   4.002 -1.2608 -0.3393 -1.9616
 7370SOL    HW233330   9.365   6.931   3.978 -0.5288  0.5319  1.7731
 7371SOL     OW33331   9.763   0.881   2.363 -0.2441 -0.3676 -0.1119
 7371SOL    HW133332   9.687   0.941   2.389 -0.8448 -1.0685 -0.2335
 7371SOL    HW233333   9.781   0.816   2.437  1.5091  1.0209  0.7252
 7372SOL     OW33334   5.330   0.163   1.136 -0.2967  0.1130  0.0992
 7372SOL    HW133335   5.345   0.164   1.037 -0.4049  0.0668  0.0824
 7372SOL    HW233336   5.403   0.214   1.182  0.0395 -0.3022  0.0322
 7373SOL     OW33337   9.432   1.679   1.496 -0.1805 -0.0074 -0.6527
 7373SOL    HW133338   9.510   1.730   1.460  0.9098 -0.4002  1.1535
 7373SOL    HW233339   9.389   1.731   1.570 -0.4118 -0.7000 -0.2952
 7374SOL     OW33340   7.461   4.288   0.602 -0.2064 -0.2390  0.0526
 7374SOL    HW133341   7.384   4.248   0.551 -0.2238 -2.8793  2.0108
 7374SOL    HW233342   7.538   4.302   0.540 -1.0814 -0.9046 -1.2217
 7375SOL     OW33343   1.887   7.020   1.832 -0.0249  0.4997  0.1165
 7375SOL    HW133344   1.788   7.012   1.841 -0.1341  1.2181 -0.4332
 7375SOL    HW233345   1.931   6.954   1.893 -0.7966  2.1810  2.5365
 7376SOL     OW33346   4.540   0.744   3.189 -0.5765  0.0204  0.5382
 7376SOL    HW133347   4.480   0.816   3.221  0.9918  1.2522  0.7562
 7376SOL    HW233348   4.595   0.778   3.112 -2.1092 -1.9387 -1.4900
 7377SOL     OW33349   6.569   7.992   3.143  0.2718  0.3908  0.5303
 7377SOL    HW133350   6.657   8.034   3.120  0.0570  1.3314  1.4023
 7377SOL    HW233351   6.552   7.916   3.081  1.2220  0.8442 -0.3134
 7378SOL     OW33352   7.426   9.454   4.605 -0.4787  0.1476 -0.0278
 7378SOL    HW133353   7.515   9.479   4.640 -1.1017 -0.4791  2.0561
 7378SOL    HW233354   7.360   9.528   4.622 -0.6770  0.0491 -0.3453
 7379SOL     OW33355   1.155   5.837   0.294  0.1417 -0.0888 -0.9704
 7379SOL    HW133356   1.154   5.821   0.195  0.2456 -0.3987 -0.9237
 7379SOL    HW233357   1.217   5.771   0.338 -0.9958 -0.9020 -0.5513
 7380SOL     OW33358   3.832   4.334   2.430  0.0868  0.4002 -0.3921
 7380SOL    HW133359   3.795   4.369   2.516 -0.0800  2.0726 -1.1288
 7380SOL    HW233360   3.932   4.336   2.433  0.0899 -0.7949  0.2661
 7381SOL     OW33361   6.562   8.520   4.388  0.0573  0.1292 -0.5277
 7381SOL    HW133362   6.592   8.615   4.387  0.3645  0.0392 -0.0977
 7381SOL    HW233363   6.639   8.460   4.409 -0.7512  0.0455  2.5097
 7382SOL     OW33364   7.471   1.010   1.668  0.6653 -0.3142  0.4200
 7382SOL    HW133365   7.554   0.962   1.695  1.4336  0.2225 -0.9496
 7382SOL    HW233366   7.492   1.106   1.650 -0.2031 -0.2217 -0.1390
 7383SOL     OW33367   9.749   1.831   5.908  0.0777 -0.4440 -0.4676
 7383SOL    HW133368   9.661   1.876   5.891  0.7346  0.8461 -0.5556
 7383SOL    HW233369   9.823   1.889   5.872  0.9642 -1.5040 -0.3765
 7384SOL     OW33370   7.277   2.545   3.243  0.2440  0.5613  0.3134
 7384SOL    HW133371   7.356   2.561   3.184 -0.3799  0.7364 -0.4769
 7384SOL    HW233372   7.233   2.632   3.264 -0.6261  0.3237 -0.4854
 7385SOL     OW33373   7.428   0.526   2.938  0.4540 -1.0545 -0.3349
 7385SOL    HW133374   7.357   0.525   3.009  0.9502  2.1440  0.2719
 7385SOL    HW233375   7.518   0.515   2.980  0.7414  0.7280 -0.4572
 7386SOL     OW33376   2.035   4.754   3.144 -0.0964 -0.3408  0.6376
 7386SOL    HW133377   1.957   4.693   3.158 -0.4638 -0.3282 -1.2400
 7386SOL    HW233378   2.012   4.846   3.175 -0.8409 -0.3332  0.0686
 7387SOL     OW33379   7.091   2.933   2.615  0.1473  0.2754  0.2907
 7387SOL    HW133380   7.023   2.937   2.689 -1.0895  0.5445 -0.8404
 7387SOL    HW233381   7.166   2.995   2.636 -0.4629  0.7702  1.0640
 7388SOL     OW33382   9.369   7.961   4.587  0.0383  0.4493 -0.1078
 7388SOL    HW133383   9.376   8.004   4.498  0.4410 -0.7549 -0.6676
 7388SOL    HW233384   9.453   7.974   4.638 -0.3040  1.4010  0.2199
 7389SOL     OW33385   4.607   8.722   6.269  0.4986  0.5812 -0.0273
 7389SOL    HW133386   4.531   8.756   6.325  0.2743  0.5127 -0.2942
 7389SOL    HW233387   4.609   8.622   6.271  0.2524  0.5699 -0.4665
 7390SOL     OW33388   8.481   0.221   0.508  0.8255  0.3076  0.5426
 7390SOL    HW133389   8.544   0.206   0.432 -0.8894 -0.5049 -0.7312
 7390SOL    HW233390   8.508   0.304   0.558  0.1837  2.5863 -2.7757
 7391SOL     OW33391   6.712   0.046   5.517 -0.1186  0.1091 -0.6674
 7391SOL    HW133392   6.617   0.050   5.486  0.0370  1.5865 -0.9807
 7391SOL    HW233393   6.729  -0.043   5.560 -2.1840  0.5495  1.1376
 7392SOL     OW33394   1.394   0.212   0.558 -0.3983 -0.2170 -0.4473
 7392SOL    HW133395   1.487   0.231   0.589 -0.7883 -0.4684  0.9456
 7392SOL    HW233396   1.364   0.125   0.597 -1.2072 -0.1461 -0.9112
 7393SOL     OW33397   3.286   2.437   3.812  0.0490 -0.5876  0.3538
 7393SOL    HW133398   3.222   2.484   3.874 -0.2929 -1.4280  0.6497
 7393SOL    HW233399   3.256   2.452   3.718  1.2149  1.6474  0.2942
 7394SOL     OW33400   9.904   8.237   5.888 -0.4986 -0.2634 -0.1642
 7394SOL    HW133401   9.946   8.310   5.834 -0.7233 -0.1361 -0.1675
 7394SOL    HW233402   9.839   8.187   5.830  0.4149 -1.1243 -0.4609
 7395SOL     OW33403   2.851   1.582   5.224 -0.6200 -0.5155 -0.0686
 7395SOL    HW133404   2.808   1.626   5.145  0.4183 -0.5702 -0.6867
 7395SOL    HW233405   2.870   1.650   5.294  1.6542  0.2059 -1.3238
 7396SOL     OW33406   2.288   5.404   1.227  0.0725  0.3614  0.2754
 7396SOL    HW133407   2.226   5.459   1.282 -1.2408 -0.3758 -0.4314
 7396SOL    HW233408   2.291   5.310   1.262 -0.5532 -0.0409 -0.7226
 7397SOL     OW33409   4.805   9.811   5.100 -0.0972 -0.3487 -0.2438
 7397SOL    HW133410   4.882   9.872   5.117 -0.7322 -0.0455  1.5982
 7397SOL    HW233411   4.745   9.851   5.031 -0.7591  1.3557  1.2854
 7398SOL     OW33412   9.753   5.752   5.528  0.0106  0.7285  0.7290
 7398SOL    HW133413   9.750   5.691   5.607 -1.1286  1.4597  1.2472
 7398SOL    HW233414   9.691   5.718   5.457  0.6254  0.3715  0.3583
 7399SOL     OW33415   3.061   0.302   1.805  0.1257  0.1162 -0.2458
 7399SOL    HW133416   3.125   0.226   1.813 -0.7826 -0.6014  0.4001
 7399SOL    HW233417   3.063   0.338   1.712 -0.9090 -2.0429 -1.1482
 7400SOL     OW33418   9.725   9.256   5.906  0.6203 -0.0805 -0.2088
 7400SOL    HW133419   9.753   9.185   5.970 -0.8237  0.7286  1.3423
 7400SOL    HW233420   9.646   9.223   5.853  0.0032  0.3318  0.4528
 7401SOL     OW33421   3.089   4.128   4.100  0.2685 -0.0054 -0.7122
 7401SOL    HW133422   3.021   4.154   4.168  0.4894 -0.5845 -0.2705
 7401SOL    HW233423   3.166   4.191   4.104  1.1993 -1.2079  0.9511
 7402SOL     OW33424   1.641   7.853   1.465  0.1112  0.0528  0.8043
 7402SOL    HW133425   1.707   7.917   1.504  1.0933 -0.7843  0.5386
 7402SOL    HW233426   1.675   7.759   1.475 -0.4511 -0.2970 -0.4603
 7403SOL     OW33427   7.330   3.829   6.610  0.4877  0.6603 -0.1695
 7403SOL    HW133428   7.416   3.853   6.655 -0.3818  3.9160 -0.0642
 7403SOL    HW233429   7.305   3.901   6.545 -3.2509  0.9630  1.4368
 7404SOL     OW33430   9.680   9.494   3.066  0.4321  0.1106  0.6540
 7404SOL    HW133431   9.718   9.405   3.091  0.9519  0.4675  1.1503
 7404SOL    HW233432   9.587   9.502   3.102  1.0033  0.4383  2.0899
 7405SOL     OW33433   3.322   8.277   0.476 -0.2674 -0.4900 -0.7179
 7405SOL    HW133434   3.388   8.248   0.406  1.0423  0.6643  0.0283
 7405SOL    HW233435   3.370   8.296   0.561 -1.6797 -0.4243  0.0734
 7406SOL     OW33436   3.731   7.649   3.752 -0.0886  0.3980  0.1280
 7406SOL    HW133437   3.733   7.588   3.673  0.2973  2.0070 -1.1209
 7406SOL    HW233438   3.775   7.605   3.830 -0.2054 -1.0781 -0.6310
 7407SOL     OW33439   3.215   5.630   0.541 -0.7938  0.1253  0.1693
 7407SOL    HW133440   3.148   5.559   0.517 -0.4616  0.1523 -0.8436
 7407SOL    HW233441   3.286   5.590   0.599  0.0709 -0.6769 -1.4277
 7408SOL     OW33442   8.594   9.958   5.610  0.6158  0.4634  0.2663
 7408SOL    HW133443   8.561  10.037   5.661  0.6867  0.5284  0.2112
 7408SOL    HW233444   8.540   9.948   5.526  1.1958  0.9874 -0.1730
 7409SOL     OW33445   4.457   1.751   1.827 -0.3414  0.4916 -0.7329
 7409SOL    HW133446   4.492   1.783   1.739  0.1444  0.7581 -0.4418
 7409SOL    HW233447   4.426   1.830   1.881  1.2683  0.5347  0.1689
 7410SOL     OW33448   5.090   9.678   5.820  0.5305 -0.3668  0.3237
 7410SOL    HW133449   5.177   9.677   5.771  0.5490  1.9928  0.2408
 7410SOL    HW233450   5.107   9.679   5.919  0.6393  1.4052  0.2955
 7411SOL     OW33451   2.611   1.705   6.377  0.3604  0.2266  0.2761
 7411SOL    HW133452   2.520   1.724   6.414  1.0261  2.3409  0.9098
 7411SOL    HW233453   2.606   1.626   6.315 -2.0958  0.9068 -0.4725
 7412SOL     OW33454   6.181   1.302   0.827  0.2999 -0.2799  0.7039
 7412SOL    HW133455   6.100   1.269   0.779  0.0082 -0.5176  1.3653
 7412SOL    HW233456   6.178   1.402   0.833  0.5941 -0.2083 -0.2327
 7413SOL     OW33457   9.642   5.811   6.483 -0.5897 -0.3741  0.1813
 7413SOL    HW133458   9.581   5.783   6.409 -2.5042  1.8580  0.8726
 7413SOL    HW233459   9.733   5.771   6.467 -1.4358 -1.4186 -2.3876
 7414SOL     OW33460   3.628   4.120   1.715 -0.2348  0.8725  0.0433
 7414SOL    HW133461   3.724   4.109   1.690  0.0459 -0.4619  1.5961
 7414SOL    HW233462   3.573   4.051   1.668 -0.1029  0.1755  0.9014
 7415SOL     OW33463   0.462   8.127   1.674 -0.3910  0.5271 -0.1123
 7415SOL    HW133464   0.385   8.152   1.732 -0.3001 -0.1408  0.2934
 7415SOL    HW233465   0.540   8.103   1.731  0.0800  1.0697 -0.5222
 7416SOL     OW33466   8.322   7.334   3.594  0.4511 -0.4082 -0.1611
 7416SOL    HW133467   8.303   7.285   3.508  1.2904 -1.7355  0.3878
 7416SOL    HW233468   8.283   7.283   3.671  2.0679 -0.6980  0.4976
 7417SOL     OW33469   1.403   8.160   0.798  0.4115 -0.4862 -0.3490
 7417SOL    HW133470   1.361   8.176   0.709  0.1070 -0.4865 -0.2064
 7417SOL    HW233471   1.412   8.062   0.814 -0.8203 -0.5157  0.2161
 7418SOL     OW33472   0.147   4.138   6.706 -0.2198 -0.3414  0.7487
 7418SOL    HW133473   0.178   4.222   6.751 -1.3456 -0.4015  1.6564
 7418SOL    HW233474   0.213   4.064   6.725  0.3692  0.1390  0.5972
 7419SOL     OW33475   1.076   7.370   2.206  0.2029  0.5253 -0.0863
 7419SOL    HW133476   1.090   7.354   2.108  2.2184  1.9997 -0.0644
 7419SOL    HW233477   0.981   7.350   2.230 -0.3104  0.1543 -2.3378
 7420SOL     OW33478   4.723   2.706   0.123  0.2186  0.1024 -0.1999
 7420SOL    HW133479   4.723   2.617   0.077 -1.3348 -0.5666  1.0254
 7420SOL    HW233480   4.663   2.769   0.074  1.0748  0.3794 -0.8938
 7421SOL     OW33481   6.103   9.587   4.498  0.0881  0.0881  0.8033
 7421SOL    HW133482   6.126   9.538   4.582  0.6137  0.4034  0.8471
 7421SOL    HW233483   6.004   9.589   4.487  0.1202 -3.1804 -0.5126
 7422SOL     OW33484   9.395   2.218   3.015  0.3255  0.2816 -0.1813
 7422SOL    HW133485   9.440   2.302   2.984 -0.0962  0.3092 -0.7389
 7422SOL    HW233486   9.396   2.151   2.940  3.0081 -1.1884  1.1037
 7423SOL     OW33487   4.657   2.880   1.646  0.1938 -0.3013  0.0284
 7423SOL    HW133488   4.723   2.899   1.720 -0.0367 -0.8180  0.3688
 7423SOL    HW233489   4.572   2.930   1.664 -0.0289 -0.7957  0.3614
 7424SOL     OW33490   6.811   0.537   3.462 -0.4623 -0.0382  0.4678
 7424SOL    HW133491   6.724   0.587   3.467 -1.6876 -2.1054  0.4853
 7424SOL    HW233492   6.800   0.447   3.504  0.7823 -1.5424 -2.2717
 7425SOL     OW33493   6.960   0.856   2.145  0.2559  0.6952  0.0772
 7425SOL    HW133494   6.958   0.955   2.162 -2.5449  0.5677  0.7418
 7425SOL    HW233495   7.005   0.810   2.221 -0.6813  1.2552  0.9872
 7426SOL     OW33496   4.472   7.941   2.813 -0.1694 -0.3250 -0.0130
 7426SOL    HW133497   4.536   7.995   2.867  0.7322 -1.0339 -0.3521
 7426SOL    HW233498   4.512   7.851   2.795  0.1418  0.3418 -2.9706
 7427SOL     OW33499   7.584   7.719   5.290  0.3631 -0.4128  0.1470
 7427SOL    HW133500   7.624   7.810   5.302  0.4825 -0.2537 -1.3857
 7427SOL    HW233501   7.625   7.655   5.354 -0.7413  0.9268  2.2472
 7428SOL     OW33502   2.153   8.468   1.809 -0.4563 -0.0364 -0.3273
 7428SOL    HW133503   2.212   8.424   1.877  0.9591  1.5275 -0.4809
 7428SOL    HW233504   2.074   8.411   1.790  0.8037 -2.0043  0.2225
 7429SOL     OW33505   8.423   2.282   5.945 -0.1411 -0.1785 -0.0515
 7429SOL    HW133506   8.393   2.352   6.009 -0.0150  0.1393 -0.3429
 7429SOL    HW233507   8.344   2.227   5.916  0.1366 -1.8443  2.1977
 7430SOL     OW33508   0.095   6.463   2.406 -0.4326 -0.2688  0.3287
 7430SOL    HW133509   0.138   6.453   2.495 -1.2267 -0.9487  0.6452
 7430SOL    HW233510   0.165   6.472   2.335  0.1959  1.4458  1.1404
 7431SOL     OW33511   4.799   5.570   3.152 -0.2248 -0.3943  0.1659
 7431SOL    HW133512   4.881   5.536   3.199  0.1172  1.4854  0.9895
 7431SOL    HW233513   4.827   5.639   3.084 -0.8977 -1.6556 -1.4144
 7432SOL     OW33514   4.925   3.205   2.195 -0.0606  0.1550 -0.3747
 7432SOL    HW133515   4.881   3.119   2.220 -0.6494  0.3664 -0.6657
 7432SOL    HW233516   4.929   3.266   2.274 -0.5818  0.2552 -0.4221
 7433SOL     OW33517   2.851   7.058   3.562 -0.0874 -0.1313 -0.1711
 7433SOL    HW133518   2.788   7.058   3.639  0.7502  0.9389  0.5173
 7433SOL    HW233519   2.818   7.121   3.492 -0.4988 -0.6102 -0.4164
 7434SOL     OW33520   6.506   7.097   4.677 -0.1872 -0.4155 -0.0824
 7434SOL    HW133521   6.482   7.183   4.723 -0.1219 -0.4515  0.0209
 7434SOL    HW233522   6.591   7.062   4.717  0.4311  0.0828 -0.9368
 7435SOL     OW33523   3.320   2.337   4.915  0.0115 -0.2436 -0.7582
 7435SOL    HW133524   3.249   2.408   4.910 -0.1533 -0.3412  0.0717
 7435SOL    HW233525   3.369   2.333   4.829 -1.5784 -0.7829 -1.6642
 7436SOL     OW33526   2.093   5.360   3.987 -0.0786  0.2615 -0.5400
 7436SOL    HW133527   2.139   5.442   4.022  0.7876  0.1987 -1.4815
 7436SOL    HW233528   2.010   5.343   4.040  0.6743  0.7182  0.8370
 7437SOL     OW33529   1.103   9.573   5.907  0.2140 -0.0672 -0.3936
 7437SOL    HW133530   1.031   9.634   5.875  1.1566  1.5472  0.4646
 7437SOL    HW233531   1.167   9.555   5.833  0.0049  0.1066 -0.6143
 7438SOL     OW33532   1.837   8.942   4.001 -0.1909 -0.2842  0.2354
 7438SOL    HW133533   1.873   8.882   4.072 -1.1933  0.0906  1.0814
 7438SOL    HW233534   1.899   9.019   3.987  0.9852 -1.3930 -0.6913
 7439SOL     OW33535   7.265   8.998   3.988 -0.3094 -0.0824  0.1974
 7439SOL    HW133536   7.182   9.046   3.959 -1.4038 -1.3816  1.1250
 7439SOL    HW233537   7.308   9.049   4.062 -0.2301  0.6294 -0.3259
 7440SOL     OW33538   2.271   5.303   0.280  0.1897 -0.7222  0.0059
 7440SOL    HW133539   2.305   5.216   0.316 -0.1747 -0.7414  0.3089
 7440SOL    HW233540   2.197   5.284   0.215  0.1330 -0.6413  0.0469
 7441SOL     OW33541   7.451   3.222   0.496 -0.1677 -0.3193  0.0093
 7441SOL    HW133542   7.457   3.319   0.522 -0.1051 -0.5588  0.8844
 7441SOL    HW233543   7.477   3.213   0.400 -0.0556  0.5201 -0.0486
 7442SOL     OW33544   8.171   5.260   4.415 -0.0803 -0.4259 -0.2578
 7442SOL    HW133545   8.241   5.198   4.378  0.6006  0.2809 -0.1865
 7442SOL    HW233546   8.133   5.315   4.340  0.4749  0.1950 -0.0958
 7443SOL     OW33547   2.660   0.982   4.758  0.4707  0.0966  0.9181
 7443SOL    HW133548   2.759   0.988   4.758  0.5524 -0.5165  3.8369
 7443SOL    HW233549   2.630   0.917   4.689  2.1125  0.1243  0.1655
 7444SOL     OW33550   3.488   5.969   1.318 -0.1983  0.2224  0.8723
 7444SOL    HW133551   3.533   5.880   1.323 -1.2628 -0.2620  2.1532
 7444SOL    HW233552   3.556   6.042   1.325  0.6092 -0.4889  0.4801
 7445SOL     OW33553   2.574   7.337   4.105 -0.1177  0.5705 -0.1259
 7445SOL    HW133554   2.571   7.402   4.029 -2.0418 -1.5435 -1.9089
 7445SOL    HW233555   2.493   7.348   4.162  0.6131  1.1604  0.8240
 7446SOL     OW33556   0.395   6.789   1.897 -0.1988 -0.2037 -0.4386
 7446SOL    HW133557   0.322   6.811   1.961 -0.4756  1.3273 -1.2686
 7446SOL    HW233558   0.417   6.870   1.842  0.5983 -1.2709 -1.7124
 7447SOL     OW33559   2.217   6.276   6.035 -0.3659  0.6175 -0.0834
 7447SOL    HW133560   2.181   6.300   6.125 -0.5957  0.6603 -0.1883
 7447SOL    HW233561   2.305   6.322   6.022 -0.9834  1.6985 -0.4360
 7448SOL     OW33562   8.348   9.147   1.085  0.5487 -0.0478 -0.4715
 7448SOL    HW133563   8.360   9.091   1.003 -1.0470  1.1754 -1.5390
 7448SOL    HW233564   8.319   9.088   1.161  2.2077 -1.2103 -0.6934
 7449SOL     OW33565   9.954   5.061   4.601 -0.0988  0.0645  0.2031
 7449SOL    HW133566  10.042   5.041   4.557 -1.0742 -2.0006 -0.8902
 7449SOL    HW233567   9.882   5.007   4.558 -1.8934  1.5741  1.2303
 7450SOL     OW33568   2.350   5.672   2.758 -0.2069  0.5349  0.1499
 7450SOL    HW133569   2.294   5.656   2.839  0.6978  2.8624  1.2985
 7450SOL    HW233570   2.300   5.729   2.693  0.5171  2.0029  0.8549
 7451SOL     OW33571   1.611   3.294   3.986 -0.4830 -0.3534 -0.2217
 7451SOL    HW133572   1.640   3.332   3.898 -3.2633  1.2023 -0.5371
 7451SOL    HW233573   1.542   3.223   3.970 -0.5884 -0.4524  0.6771
 7452SOL     OW33574   8.303   5.373   1.113  0.0865  0.2556  0.0079
 7452SOL    HW133575   8.362   5.390   1.192 -0.1290  0.7227  0.0756
 7452SOL    HW233576   8.359   5.361   1.031  0.3009  0.0179  0.1889
 7453SOL     OW33577   1.285   8.045   1.776 -0.3654  0.0392 -0.3890
 7453SOL    HW133578   1.310   8.004   1.688  0.3793  1.3223 -0.8006
 7453SOL    HW233579   1.335   7.999   1.849  0.6939  0.3871 -0.8739
 7454SOL     OW33580   9.536   6.034   4.311 -0.0680  0.0770 -0.2179
 7454SOL    HW133581   9.630   6.060   4.288 -0.4908  0.7913 -1.1600
 7454SOL    HW233582   9.496   6.106   4.368  0.3327 -0.7710  1.1514
 7455SOL     OW33583   8.453   5.907   0.602 -0.1066 -0.4711  0.1882
 7455SOL    HW133584   8.446   6.003   0.628 -0.9398 -0.4253 -0.1996
 7455SOL    HW233585   8.535   5.867   0.644 -0.9916 -0.2023  2.2451
 7456SOL     OW33586   8.443   3.635   5.181  0.0030  0.0062  0.3432
 7456SOL    HW133587   8.401   3.562   5.127  0.2661  0.0678  0.0506
 7456SOL    HW233588   8.406   3.634   5.273 -0.9155  0.3130 -0.0231
 7457SOL     OW33589   9.019   0.435   4.900  0.6047  0.1986  0.2089
 7457SOL    HW133590   9.116   0.458   4.910  0.8999 -1.5359  1.6437
 7457SOL    HW233591   8.963   0.516   4.916  1.7845  1.0301  0.1372
 7458SOL     OW33592   1.883   6.148   6.429  0.5830 -0.2517 -0.4620
 7458SOL    HW133593   1.831   6.120   6.510  1.1827 -2.4863 -0.7979
 7458SOL    HW233594   1.826   6.206   6.371 -0.3713  0.1130  0.8182
 7459SOL     OW33595   2.511   4.184   2.315  0.1227 -0.1417  0.4012
 7459SOL    HW133596   2.552   4.189   2.224 -0.2919 -0.0361  0.2181
 7459SOL    HW233597   2.583   4.180   2.384  0.4705  1.6701  0.1856
 7460SOL     OW33598   1.142   7.757   4.445 -0.4129 -0.7329 -0.4852
 7460SOL    HW133599   1.228   7.745   4.396  0.5474  0.1560  0.9360
 7460SOL    HW233600   1.095   7.669   4.451  1.0921 -1.5284 -0.0193
 7461SOL     OW33601   0.587   8.637   0.002 -0.0341 -0.3443 -0.6147
 7461SOL    HW133602   0.496   8.617   0.038  0.8303 -2.0222  0.7122
 7461SOL    HW233603   0.621   8.721   0.043 -0.5334 -0.3066 -0.2689
 7462SOL     OW33604   0.534   5.253   2.690  0.0663 -0.4479  0.0937
 7462SOL    HW133605   0.582   5.341   2.685 -1.7382  0.5789  0.3555
 7462SOL    HW233606   0.471   5.245   2.612 -1.6123 -0.3892  1.4167
 7463SOL     OW33607   9.711   3.889   0.032 -0.4413 -0.8577 -0.3077
 7463SOL    HW133608   9.778   3.962   0.028  0.0758 -1.2258  1.3495
 7463SOL    HW233609   9.640   3.913   0.099 -0.3968 -1.7531  0.0656
 7464SOL     OW33610   0.960   4.446   3.544 -0.6183  0.4812 -0.5022
 7464SOL    HW133611   0.963   4.375   3.474  1.6569 -0.2080  0.2544
 7464SOL    HW233612   0.972   4.536   3.502 -2.5197  0.3726 -1.3414
 7465SOL     OW33613   8.726   4.520   3.403 -0.2317  0.0684 -0.0684
 7465SOL    HW133614   8.805   4.581   3.401 -0.1581 -0.0069  0.4989
 7465SOL    HW233615   8.715   4.477   3.313 -0.1610  0.7540 -0.4114
 7466SOL     OW33616   9.254   2.708   5.706  0.0699 -0.1696 -0.0393
 7466SOL    HW133617   9.183   2.778   5.705 -0.2402 -0.4646  0.8926
 7466SOL    HW233618   9.212   2.619   5.723  0.7200 -0.2843  0.9732
 7467SOL     OW33619   8.219   4.247   3.556  0.1359 -0.0235 -0.3675
 7467SOL    HW133620   8.250   4.312   3.626 -4.4052  1.0735  0.7717
 7467SOL    HW233621   8.187   4.163   3.600 -1.3979  0.1089 -1.2047
 7468SOL     OW33622   1.971   7.834   1.767  0.4011  0.2977  0.3689
 7468SOL    HW133623   1.990   7.782   1.683  0.9241  1.3888 -0.2060
 7468SOL    HW233624   2.057   7.852   1.814  0.4067  1.9516 -0.2395
 7469SOL     OW33625   8.378   6.903   6.293  0.4557 -0.9141 -0.2452
 7469SOL    HW133626   8.321   6.823   6.275 -1.2999  0.2268  0.1282
 7469SOL    HW233627   8.436   6.921   6.213 -2.6642  0.3173 -2.3274
 7470SOL     OW33628   6.262   9.807   2.329  0.0298 -0.0690 -0.1291
 7470SOL    HW133629   6.288   9.891   2.376 -2.1703  0.4737  0.1830
 7470SOL    HW233630   6.270   9.820   2.230  1.8237 -0.2527 -0.0345
 7471SOL     OW33631   6.922   0.039   5.322 -0.3191  0.5542 -0.1188
 7471SOL    HW133632   6.896   0.006   5.231 -3.3195  1.4023  0.3530
 7471SOL    HW233633   6.841   0.043   5.380  1.3316  1.2745  2.2112
 7472SOL     OW33634   9.033   7.949   6.613  0.8866 -0.0570 -0.0893
 7472SOL    HW133635   9.080   7.935   6.700  3.3949  1.3661 -1.1744
 7472SOL    HW233636   8.938   7.974   6.631  1.3038  0.0436  2.2293
 7473SOL     OW33637   9.596   5.017   3.630  0.4550  0.4969 -0.2067
 7473SOL    HW133638   9.689   4.980   3.626  0.5281  0.8508 -2.2658
 7473SOL    HW233639   9.532   4.943   3.655  1.1281 -0.0405 -0.0513
 7474SOL     OW33640   1.774   4.155   4.366  0.4804 -0.2435 -0.3709
 7474SOL    HW133641   1.716   4.099   4.425  2.1676 -0.5459  1.0606
 7474SOL    HW233642   1.730   4.244   4.350 -0.8587 -0.8693 -0.2229
 7475SOL     OW33643   3.099   2.634   1.048  0.0579 -0.0759 -0.0963
 7475SOL    HW133644   3.188   2.608   1.011  0.5087  0.1967  0.7814
 7475SOL    HW233645   3.081   2.581   1.130 -0.1816  0.5305  0.2428
 7476SOL     OW33646   2.743   9.476   5.227 -0.2700  0.7076 -0.0902
 7476SOL    HW133647   2.767   9.571   5.242  0.7318  0.3424  0.6949
 7476SOL    HW233648   2.694   9.441   5.307 -1.4613  0.8234 -0.7615
 7477SOL     OW33649   1.522   3.410   0.796  0.3530 -0.3134 -0.2707
 7477SOL    HW133650   1.478   3.414   0.885  2.3946  0.2448  0.7433
 7477SOL    HW233651   1.509   3.497   0.748  0.4396 -0.1128  0.0689
 7478SOL     OW33652   6.075   9.032   1.823  0.1693 -0.0858 -0.2570
 7478SOL    HW133653   6.123   9.118   1.837  0.5175 -0.5324  1.4789
 7478SOL    HW233654   5.982   9.040   1.860  0.7131 -0.9237  1.3611
 7479SOL     OW33655   8.035   0.556   2.526 -0.2117  0.2920  0.1135
 7479SOL    HW133656   8.027   0.529   2.430  0.0229  1.5683 -0.2754
 7479SOL    HW233657   8.112   0.618   2.536  0.9958 -1.4072  1.4882
 7480SOL     OW33658   7.228   2.937   1.515  0.0482 -0.1479 -0.6917
 7480SOL    HW133659   7.141   2.975   1.546 -0.4564 -1.7358 -0.0919
 7480SOL    HW233660   7.287   3.010   1.481  0.4948  1.6423  3.6739
 7481SOL     OW33661   3.516   1.825   2.921  0.2056  0.2365  1.0174
 7481SOL    HW133662   3.536   1.799   3.016  0.2688 -0.1438  0.9006
 7481SOL    HW233663   3.484   1.920   2.919  0.1780  0.2390  1.4233
 7482SOL     OW33664   0.313   8.285   6.234 -0.1675 -0.0847 -0.1256
 7482SOL    HW133665   0.350   8.281   6.142 -0.1295 -0.6597 -0.0869
 7482SOL    HW233666   0.323   8.196   6.279 -0.1412  0.2004  0.4486
 7483SOL     OW33667   9.862   9.241   3.230  0.6182 -0.8279  0.4376
 7483SOL    HW133668   9.766   9.217   3.246  0.1138 -0.5035 -1.9882
 7483SOL    HW233669   9.921   9.174   3.274 -0.7298 -2.2022  0.1657
 7484SOL     OW33670   0.391   7.946   3.869 -0.1110  0.3660 -0.9583
 7484SOL    HW133671   0.382   7.998   3.784  1.2961  0.5841 -0.9947
 7484SOL    HW233672   0.440   7.860   3.850 -1.6022 -0.5560 -0.7315
 7485SOL     OW33673   9.253   4.575   0.036 -0.4216  0.2799 -0.2264
 7485SOL    HW133674   9.219   4.536   0.122 -2.0587  1.3799 -0.3488
 7485SOL    HW233675   9.334   4.525   0.007 -0.9040 -1.2843  1.0256
 7486SOL     OW33676   2.047   8.094   0.404 -0.1386 -0.8444 -0.2663
 7486SOL    HW133677   1.971   8.043   0.445 -1.3206 -0.3650 -1.8213
 7486SOL    HW233678   2.012   8.179   0.364  1.3625 -0.1948 -0.2255
 7487SOL     OW33679   0.367   0.974   6.305  0.2757  0.1740 -0.0655
 7487SOL    HW133680   0.403   0.923   6.384  1.2705  1.0584  0.0543
 7487SOL    HW233681   0.275   1.006   6.327  0.5347  0.3984  0.7341
 7488SOL     OW33682   3.511   5.275   0.178 -0.4383  0.4275  0.7213
 7488SOL    HW133683   3.515   5.201   0.246  0.8813  0.3085  0.5281
 7488SOL    HW233684   3.597   5.277   0.126 -0.1142  2.6755  1.3211
 7489SOL     OW33685   5.058   7.642   2.332  0.6492 -0.5153  0.4254
 7489SOL    HW133686   5.115   7.588   2.270  1.4885 -1.8477  2.3123
 7489SOL    HW233687   5.104   7.729   2.353  1.0728 -0.7329  0.3923
 7490SOL     OW33688   9.133   9.651   5.153  0.2053 -0.2409 -0.5723
 7490SOL    HW133689   9.228   9.664   5.180  0.0158  1.0578 -0.5105
 7490SOL    HW233690   9.089   9.586   5.215  0.5503  0.5760  0.5416
 7491SOL     OW33691   3.071   2.783   1.860 -0.8222 -0.0991  0.3062
 7491SOL    HW133692   3.086   2.881   1.879 -0.2592  0.0229 -0.7606
 7491SOL    HW233693   3.082   2.766   1.763  0.7286 -1.5306  0.7222
 7492SOL     OW33694   1.205   9.274   0.679  0.3564 -0.0680 -0.3564
 7492SOL    HW133695   1.278   9.224   0.726  1.2551  1.9998  0.5110
 7492SOL    HW233696   1.120   9.222   0.685  0.9322 -0.8142  1.7910
 7493SOL     OW33697   1.754   3.440   6.600  0.4124 -0.4766 -0.4085
 7493SOL    HW133698   1.829   3.387   6.561  1.6891  0.7766  0.2974
 7493SOL    HW233699   1.770   3.454   6.698 -0.7443 -0.2188 -0.2529
 7494SOL     OW33700   1.771   2.412   4.999 -0.0803  0.0102  0.4211
 7494SOL    HW133701   1.745   2.476   4.927  1.4033 -1.5929 -1.5898
 7494SOL    HW233702   1.816   2.463   5.073 -1.2775  1.6188  0.0776
 7495SOL     OW33703   5.195   8.159   4.979 -0.2983 -0.1992  0.6814
 7495SOL    HW133704   5.262   8.111   5.036  0.5626  0.8978  0.6169
 7495SOL    HW233705   5.221   8.152   4.883 -0.2672  0.2368  0.6568
 7496SOL     OW33706   3.153   9.844   5.481  0.3806  0.7646 -0.1409
 7496SOL    HW133707   3.185   9.898   5.559 -0.8252  2.0313 -0.5027
 7496SOL    HW233708   3.090   9.774   5.513 -1.7930  2.6386 -0.1586
 7497SOL     OW33709   1.146   8.136   1.308  0.1151 -0.3986 -0.8335
 7497SOL    HW133710   1.231   8.141   1.361  1.1045  0.2985 -2.4418
 7497SOL    HW233711   1.166   8.155   1.212 -1.4711 -2.7273 -1.6590
 7498SOL     OW33712   3.379   2.101   4.150 -0.5542 -0.2723  0.1893
 7498SOL    HW133713   3.320   2.132   4.076  0.4849  0.7210 -0.2426
 7498SOL    HW233714   3.394   2.175   4.216  0.3686 -0.4394  0.1837
 7499SOL     OW33715   7.586   4.070   1.415 -0.1621 -0.8069 -0.0851
 7499SOL    HW133716   7.498   4.052   1.371  0.2563 -0.7664 -0.9452
 7499SOL    HW233717   7.596   4.010   1.494 -0.9092 -0.9022 -0.0578
 7500SOL     OW33718   8.792   5.457   4.137  0.2504 -0.2098  0.3227
 7500SOL    HW133719   8.846   5.374   4.139 -1.3239 -1.2219  2.3894
 7500SOL    HW233720   8.841   5.530   4.185  0.1763 -0.8721  1.4123
 7501SOL     OW33721   1.036   9.820   1.847 -0.2491 -0.2026 -0.3258
 7501SOL    HW133722   1.081   9.905   1.875 -1.3550 -0.0245  0.9676
 7501SOL    HW233723   1.025   9.820   1.747  2.0335  0.0094 -0.5862
 7502SOL     OW33724   8.802   9.607   4.235 -0.1320  0.7275 -0.9144
 7502SOL    HW133725   8.891   9.562   4.234 -0.9629 -1.0374  0.9280
 7502SOL    HW233726   8.734   9.549   4.192 -1.4382 -0.3983  2.4973
 7503SOL     OW33727   1.397   3.054   1.314  0.0165  0.0498 -0.5038
 7503SOL    HW133728   1.481   3.021   1.356 -0.8617 -1.2103  0.2895
 7503SOL    HW233729   1.352   2.978   1.266 -0.7849  0.6581 -0.7235
 7504SOL     OW33730   5.568   1.342   1.283  0.4970  0.1623  0.0418
 7504SOL    HW133731   5.664   1.342   1.254  0.5584 -0.2130  0.2374
 7504SOL    HW233732   5.519   1.269   1.235  0.6433 -0.5917  1.0198
 7505SOL     OW33733   8.421   8.263   3.074  0.3050  0.1573 -0.0268
 7505SOL    HW133734   8.476   8.231   3.151  1.1051 -1.0037 -1.0492
 7505SOL    HW233735   8.387   8.355   3.093  0.6265 -0.0457  1.6313
 7506SOL     OW33736   2.692   5.938   0.682 -0.1450 -0.2210 -0.5160
 7506SOL    HW133737   2.609   5.975   0.723 -0.5282 -1.5981 -0.0226
 7506SOL    HW233738   2.697   5.840   0.699  0.3015 -0.6101 -2.7270
 7507SOL     OW33739   7.159   9.321   2.092 -1.0630  0.5962 -0.3190
 7507SOL    HW133740   7.216   9.268   2.028 -1.2035 -0.1698  0.1777
 7507SOL    HW233741   7.205   9.406   2.115 -1.1632  1.0349 -1.7101
 7508SOL     OW33742   2.503   6.410   4.434 -0.3240  0.1603  0.0921
 7508SOL    HW133743   2.567   6.478   4.468  0.3365 -0.6846  0.5418
 7508SOL    HW233744   2.410   6.446   4.441  0.1321  1.6474 -1.1907
 7509SOL     OW33745   0.332   5.237   3.502 -0.4034  0.3664 -0.1936
 7509SOL    HW133746   0.369   5.181   3.427  1.5830  1.0406  0.2528
 7509SOL    HW233747   0.232   5.230   3.502 -0.1950 -4.4470  0.8262
 7510SOL     OW33748   8.092   7.399   4.902 -0.4120  0.4637 -0.1335
 7510SOL    HW133749   8.013   7.461   4.892 -0.5852  0.2816  0.1113
 7510SOL    HW233750   8.108   7.380   4.999 -1.6010 -1.4586 -0.2754
 7511SOL     OW33751   2.971   9.317   2.826 -0.1464 -0.7821  0.7450
 7511SOL    HW133752   2.961   9.301   2.924  0.9516 -1.2263  0.7864
 7511SOL    HW233753   2.981   9.415   2.808  0.1068 -0.7427  1.1173
 7512SOL     OW33754   2.486   8.679   4.815 -0.1806 -0.0465  0.5896
 7512SOL    HW133755   2.547   8.731   4.875  0.3388  0.1789 -0.1266
 7512SOL    HW233756   2.429   8.618   4.870 -1.0803  1.5629  1.4660
 7513SOL     OW33757   8.411   6.311   3.566  0.6406 -0.1448 -0.2094
 7513SOL    HW133758   8.351   6.308   3.486  2.0036 -0.6874 -1.2289
 7513SOL    HW233759   8.361   6.279   3.646 -0.6613  0.1411 -0.8806
 7514SOL     OW33760   0.977   8.600   2.510  0.3518  0.7022  0.4607
 7514SOL    HW133761   0.921   8.628   2.432  1.7412  2.3022  0.0213
 7514SOL    HW233762   1.014   8.509   2.492 -0.6354  0.3872 -0.0299
 7515SOL     OW33763   0.831   1.988   1.537  0.5295 -0.6855  0.0849
 7515SOL    HW133764   0.876   1.903   1.565  0.7270 -0.1239  1.5405
 7515SOL    HW233765   0.810   2.042   1.619  0.2601  0.5898 -0.8198
 7516SOL     OW33766   3.733   3.774   2.354  0.4048 -0.3243 -0.0891
 7516SOL    HW133767   3.789   3.696   2.381 -0.8066 -0.2642  2.7671
 7516SOL    HW233768   3.782   3.859   2.371  0.3021 -0.3434  0.3035
 7517SOL     OW33769   4.033   2.605   1.905  0.0223  0.2023 -0.4022
 7517SOL    HW133770   4.130   2.583   1.917  0.3228  1.9999  0.6627
 7517SOL    HW233771   4.019   2.647   1.816  0.1790 -0.2678 -0.6501
 7518SOL     OW33772   2.911   0.813   1.322  0.2696  0.0726  0.2461
 7518SOL    HW133773   2.887   0.818   1.225 -0.7192  0.1200  0.4928
 7518SOL    HW233774   2.908   0.905   1.361  4.7374  0.7228 -0.6240
 7519SOL     OW33775   8.314   4.397   0.142 -0.2293  0.3743  0.2678
 7519SOL    HW133776   8.390   4.386   0.205 -1.0388  1.8668  1.5446
 7519SOL    HW233777   8.228   4.396   0.192 -1.0644 -1.1744 -1.1508
 7520SOL     OW33778   9.690   2.667   5.988 -0.1499  0.2935  0.0889
 7520SOL    HW133779   9.607   2.722   5.981 -0.8623 -0.4908  2.0774
 7520SOL    HW233780   9.751   2.708   6.056 -0.0184 -0.5087  0.4567
 7521SOL     OW33781   7.076   2.751   3.274  0.1437 -0.2276  0.1058
 7521SOL    HW133782   7.076   2.778   3.178  0.0581 -0.3850  0.0620
 7521SOL    HW233783   6.984   2.761   3.311 -0.4928 -2.9912 -0.6157
 7522SOL     OW33784   8.000   0.637   1.479  0.3499  0.2947 -0.5103
 7522SOL    HW133785   7.975   0.552   1.431 -0.8666  1.3422 -1.7694
 7522SOL    HW233786   8.017   0.709   1.412 -0.7370  1.6155  0.6209
 7523SOL     OW33787   0.330   1.632   1.180  0.4113 -0.2929 -0.1632
 7523SOL    HW133788   0.346   1.659   1.275 -0.7808 -1.4801  0.3893
 7523SOL    HW233789   0.416   1.607   1.137  1.0307  0.7592  0.4473
 7524SOL     OW33790   1.406   3.611   3.294 -0.1510  0.1475  0.0054
 7524SOL    HW133791   1.394   3.519   3.331  2.0198  0.4730  1.6042
 7524SOL    HW233792   1.352   3.620   3.211  1.3083 -3.3355 -1.4482
 7525SOL     OW33793   1.547   1.024   5.674  0.6037 -0.8708 -0.3847
 7525SOL    HW133794   1.455   0.992   5.697  0.5172 -0.5031 -0.2130
 7525SOL    HW233795   1.543   1.085   5.595  0.6522 -0.5684 -0.1573
 7526SOL     OW33796   9.272   5.051   5.865 -0.2676 -0.7449 -0.4156
 7526SOL    HW133797   9.190   4.994   5.862  1.5932 -3.4699 -0.8599
 7526SOL    HW233798   9.340   5.009   5.925  1.1425  0.9976 -0.7488
 7527SOL     OW33799   2.580   7.918   1.998  0.1173  0.3393  0.1379
 7527SOL    HW133800   2.649   7.925   1.925 -0.2549 -1.5453 -0.4138
 7527SOL    HW233801   2.532   7.831   1.990 -0.6438  0.5698  2.0256
 7528SOL     OW33802   5.200   6.307   2.303  1.0494  0.3897  0.0706
 7528SOL    HW133803   5.265   6.311   2.379  2.3755  1.6644 -1.1105
 7528SOL    HW233804   5.178   6.211   2.284  1.9622 -0.0204  1.0208
 7529SOL     OW33805   7.826   9.298   3.943 -0.2423  0.1151  0.1776
 7529SOL    HW133806   7.742   9.279   3.993  0.2666 -1.6386  0.4019
 7529SOL    HW233807   7.890   9.348   4.002 -0.7690  0.6340  0.3078
 7530SOL     OW33808   7.945   2.021   0.939  0.1963  0.3637  0.0541
 7530SOL    HW133809   8.000   2.103   0.921 -0.7837  1.0941  0.3248
 7530SOL    HW233810   7.978   1.945   0.883 -0.3421  1.5547 -1.9306
 7531SOL     OW33811   4.406   7.219   3.689  0.3693  0.0256 -0.4546
 7531SOL    HW133812   4.309   7.200   3.672  0.5653 -0.0719 -1.4695
 7531SOL    HW233813   4.450   7.137   3.725  0.1322 -0.0016 -0.2196
 7532SOL     OW33814   3.760   8.504   5.075 -0.2396  0.3250 -0.0711
 7532SOL    HW133815   3.695   8.434   5.045 -0.3410  0.4135 -0.0567
 7532SOL    HW233816   3.842   8.500   5.018 -1.3052  1.9216 -1.7724
 7533SOL     OW33817   9.589   6.555   1.962 -0.3499 -0.8121 -0.4638
 7533SOL    HW133818   9.501   6.513   1.939 -0.3988 -0.4482 -0.9384
 7533SOL    HW233819   9.632   6.504   2.036 -1.7167 -0.0238  0.8872
 7534SOL     OW33820   8.261   9.396   0.925  0.6083  0.3196 -0.3193
 7534SOL    HW133821   8.272   9.377   0.828 -1.0405  0.2033 -0.4932
 7534SOL    HW233822   8.285   9.314   0.978  1.0257  0.2291 -0.6465
 7535SOL     OW33823   1.362   6.309   6.476 -0.6161  0.2701 -0.4671
 7535SOL    HW133824   1.378   6.332   6.572 -0.7635 -0.8979 -0.1495
 7535SOL    HW233825   1.401   6.218   6.457 -0.2051  0.6781 -1.6167
 7536SOL     OW33826   9.547   2.006   5.849 -0.2888 -0.1330 -0.3534
 7536SOL    HW133827   9.601   2.056   5.917 -1.6625  1.2573 -0.2608
 7536SOL    HW233828   9.473   1.957   5.894 -0.6792  0.0872 -0.7507
 7537SOL     OW33829   4.061   3.970   5.368  0.2163 -1.0662 -0.1155
 7537SOL    HW133830   3.982   3.923   5.330  0.5185 -1.1327 -0.6658
 7537SOL    HW233831   4.105   4.024   5.297  0.9914 -1.4647  0.0553
 7538SOL     OW33832   1.472   3.362   4.879  0.9505  0.1905  0.4046
 7538SOL    HW133833   1.490   3.355   4.780  0.9147 -1.0868  0.4848
 7538SOL    HW233834   1.517   3.443   4.915  2.6381 -0.4207 -0.2866
 7539SOL     OW33835   2.049   8.770   4.920  0.2900  0.2665 -0.0246
 7539SOL    HW133836   2.125   8.776   4.855  0.8091 -0.8788  0.4619
 7539SOL    HW233837   1.988   8.696   4.893  0.4525 -0.1480  0.7365
 7540SOL     OW33838   2.980   2.390   3.242  0.3109  0.8684 -0.5419
 7540SOL    HW133839   2.996   2.463   3.309 -0.7006  0.9673 -0.4058
 7540SOL    HW233840   2.898   2.410   3.188 -0.4257 -0.5388  0.0165
 7541SOL     OW33841   3.954   1.851   3.257  0.1656  0.3204 -0.1683
 7541SOL    HW133842   3.934   1.801   3.342  2.2492  1.8968  1.3112
 7541SOL    HW233843   4.053   1.855   3.243 -0.0628  1.9158 -1.5539
 7542SOL     OW33844   0.911   9.404   3.955 -0.1784  0.2746 -0.1253
 7542SOL    HW133845   0.871   9.325   4.001  0.5147  0.5537  0.9764
 7542SOL    HW233846   0.902   9.485   4.013  1.3543  0.4819 -0.1532
 7543SOL     OW33847   9.501   8.548   5.148 -0.4762 -0.3880  0.3455
 7543SOL    HW133848   9.500   8.497   5.234  0.1204 -0.6478  0.2003
 7543SOL    HW233849   9.504   8.483   5.072 -0.3691 -0.1489  0.1450
 7544SOL     OW33850   7.960   9.022   1.889 -0.1684 -0.0935  0.1971
 7544SOL    HW133851   8.049   9.061   1.866  0.5898 -1.1129  1.3622
 7544SOL    HW233852   7.972   8.936   1.937 -1.8186 -1.0308 -1.0143
 7545SOL     OW33853   0.702   7.865   4.092 -0.0566 -0.5073  0.4046
 7545SOL    HW133854   0.662   7.827   4.008  2.0236  0.7818 -1.2125
 7545SOL    HW233855   0.801   7.852   4.090  0.3967  2.4771  1.1172
 7546SOL     OW33856   7.000   0.638   3.016  0.3059 -0.3820  0.1850
 7546SOL    HW133857   6.926   0.608   3.077 -0.2488  1.5438  0.5030
 7546SOL    HW233858   6.960   0.690   2.940  1.2719 -0.0495 -0.0942
 7547SOL     OW33859   3.022   2.742   6.717  0.4383  0.9235  0.4217
 7547SOL    HW133860   3.080   2.672   6.758 -0.4371  0.7785  1.4502
 7547SOL    HW233861   3.024   2.733   6.618  1.9775  0.7783  0.4546
 7548SOL     OW33862   2.195   7.471   5.215  0.5932 -0.2694  0.6510
 7548SOL    HW133863   2.143   7.410   5.154  1.7863 -0.4576 -0.2014
 7548SOL    HW233864   2.181   7.442   5.310 -1.9445  0.5373  0.5540
 7549SOL     OW33865   9.151   1.628   1.413  0.4374  0.2975  0.4491
 7549SOL    HW133866   9.091   1.552   1.437  1.4177 -0.5535  0.2570
 7549SOL    HW233867   9.241   1.613   1.454  1.3515  0.1362 -1.5880
 7550SOL     OW33868   7.245   1.278   2.543  0.0771  0.4022  0.2271
 7550SOL    HW133869   7.245   1.377   2.527 -1.2088  0.3299 -0.2862
 7550SOL    HW233870   7.322   1.254   2.603  0.1272  1.7671  0.7333
 7551SOL     OW33871   6.960   0.447   1.089 -0.0282  0.0508  0.0884
 7551SOL    HW133872   6.930   0.536   1.056 -0.0689  0.0573  0.1419
 7551SOL    HW233873   6.949   0.378   1.017  2.1720  0.5258 -0.7444
 7552SOL     OW33874   8.138   5.030   5.591 -0.9014  0.0541  0.5183
 7552SOL    HW133875   8.200   5.088   5.539  0.3806 -0.3256  1.6013
 7552SOL    HW233876   8.052   5.078   5.607 -0.5609  0.9146 -0.2485
 7553SOL     OW33877   5.276   0.488   1.526  0.3339  0.4031  0.4600
 7553SOL    HW133878   5.272   0.516   1.430  0.5660  0.4793  0.4745
 7553SOL    HW233879   5.249   0.392   1.533  1.3666  0.0870  0.1886
 7554SOL     OW33880   1.034   6.599   2.505  0.4262  0.3053  0.2501
 7554SOL    HW133881   1.057   6.502   2.490 -2.4730 -0.1319 -1.8572
 7554SOL    HW233882   1.089   6.655   2.443  2.7525  0.1303  2.0870
 7555SOL     OW33883   6.017   0.046   5.150 -0.3012 -0.3437  0.5046
 7555SOL    HW133884   5.946   0.005   5.207 -1.5965  0.0506 -0.7889
 7555SOL    HW233885   6.019  -0.002   5.062 -0.6834  1.2700 -0.3930
 7556SOL     OW33886   3.261   0.999   3.246  0.5691  0.2226 -0.3848
 7556SOL    HW133887   3.282   1.085   3.198 -0.9342  0.9109  0.1729
 7556SOL    HW233888   3.284   1.009   3.342 -0.1669  0.1928 -0.2090
 7557SOL     OW33889   6.709   7.525   2.951 -0.0108  0.0554 -0.2300
 7557SOL    HW133890   6.721   7.575   3.037 -1.4037  1.7774 -1.0110
 7557SOL    HW233891   6.614   7.495   2.943  0.6614 -2.2684 -0.0625
 7558SOL     OW33892   0.794   6.748   3.462 -0.0474  0.1456  0.2526
 7558SOL    HW133893   0.885   6.720   3.432  0.0111  0.6627 -0.0515
 7558SOL    HW233894   0.745   6.669   3.499 -0.0652 -0.4700 -1.0590
 7559SOL     OW33895   1.431   8.357   1.137  0.0742  0.9490  0.2394
 7559SOL    HW133896   1.504   8.375   1.071 -0.6379  0.5380 -0.6754
 7559SOL    HW233897   1.365   8.432   1.135 -0.1956  0.7098  0.1318
 7560SOL     OW33898   9.779   6.766   4.328 -0.6075 -0.2643  0.0736
 7560SOL    HW133899   9.857   6.705   4.333 -1.1212 -0.8879  0.4773
 7560SOL    HW233900   9.810   6.861   4.332  0.2777 -0.4595 -1.5626
 7561SOL     OW33901   1.073   4.756   0.089  0.3157  0.2211 -0.2556
 7561SOL    HW133902   1.162   4.754   0.045  0.7871  0.3884  0.6759
 7561SOL    HW233903   1.085   4.757   0.189 -0.7378 -1.3105 -0.0925
 7562SOL     OW33904   1.703   7.617   0.515 -0.0975 -0.2796  0.4718
 7562SOL    HW133905   1.638   7.541   0.503  0.1826 -0.4395 -0.0432
 7562SOL    HW233906   1.698   7.678   0.436  0.2199 -0.1716  0.5367
 7563SOL     OW33907   8.757   7.337   5.612 -0.1198  0.1406  0.1719
 7563SOL    HW133908   8.815   7.412   5.580  1.0489  0.0504  2.0124
 7563SOL    HW233909   8.778   7.254   5.560 -0.0032  0.6008 -0.5203
 7564SOL     OW33910   0.116   6.148   6.192 -0.2076 -0.0680 -0.6636
 7564SOL    HW133911   0.158   6.235   6.166 -0.1902 -0.4018 -1.7860
 7564SOL    HW233912   0.027   6.165   6.233  0.8362  0.6231  1.3666
 7565SOL     OW33913   8.794   7.833   1.288  0.3082  0.1126  0.5579
 7565SOL    HW133914   8.786   7.744   1.333 -0.0224 -1.0194 -1.6375
 7565SOL    HW233915   8.855   7.824   1.209 -0.7055  1.5451 -0.4032
 7566SOL     OW33916   2.935   0.938   4.725  0.2904 -0.0757 -0.0544
 7566SOL    HW133917   3.029   0.970   4.734 -0.4053  1.8214  0.5531
 7566SOL    HW233918   2.906   0.947   4.629  0.5106 -0.0911 -0.1230
 7567SOL     OW33919   1.235   9.321   1.050  0.2530  0.0825  0.6776
 7567SOL    HW133920   1.178   9.398   1.022  0.7306  0.7404  1.4864
 7567SOL    HW233921   1.219   9.301   1.147  1.5169  0.3789  0.9523
 7568SOL     OW33922   0.798   3.325   5.630 -0.2820 -0.0029  0.0392
 7568SOL    HW133923   0.800   3.407   5.573 -0.6475  0.8906  1.3069
 7568SOL    HW233924   0.750   3.252   5.581  0.2486  0.4447 -1.1884
 7569SOL     OW33925   8.429   2.020   5.200 -0.3437  0.0855  0.6904
 7569SOL    HW133926   8.409   2.063   5.112  3.2440 -0.2010 -0.3277
 7569SOL    HW233927   8.421   2.089   5.273  0.6180  1.3053 -0.3494
 7570SOL     OW33928   4.021   0.817   5.709  0.2140 -0.2534  0.1856
 7570SOL    HW133929   3.987   0.910   5.699  0.3200 -0.1121  1.0638
 7570SOL    HW233930   3.945   0.752   5.703  0.0499 -0.0651  0.2412
 7571SOL     OW33931   7.855   8.505   3.453  0.4538 -0.5644  0.1341
 7571SOL    HW133932   7.875   8.590   3.501  0.3606 -0.8674  0.7207
 7571SOL    HW233933   7.757   8.501   3.431  0.4147 -0.6287  0.3209
 7572SOL     OW33934   7.884   3.116   3.202 -0.3921  0.6681 -0.7031
 7572SOL    HW133935   7.870   3.020   3.178  0.4939  0.3068  0.1408
 7572SOL    HW233936   7.843   3.134   3.292  1.7486  0.3666  0.3761
 7573SOL     OW33937   8.810   2.415   2.633 -0.1078 -0.6024  0.6935
 7573SOL    HW133938   8.837   2.454   2.721  0.9091 -0.6471  0.4000
 7573SOL    HW233939   8.735   2.350   2.647 -0.6152  0.1227  1.3986
 7574SOL     OW33940   0.542   9.252   3.448 -0.0488  0.2122 -0.2490
 7574SOL    HW133941   0.573   9.332   3.398 -1.3993  0.5399 -0.5674
 7574SOL    HW233942   0.582   9.169   3.407  0.8344  0.6564 -0.3079
 7575SOL     OW33943   3.174   3.409   5.573 -0.3068 -0.0695 -0.1828
 7575SOL    HW133944   3.260   3.362   5.553 -0.0903  0.1655  0.2146
 7575SOL    HW233945   3.156   3.477   5.502  0.1312  0.2979  0.0598
 7576SOL     OW33946   9.947   2.273   4.527  0.0327 -0.0420 -0.0197
 7576SOL    HW133947  10.042   2.242   4.537 -0.5649 -1.7269  0.7600
 7576SOL    HW233948   9.912   2.246   4.437  0.3868  0.8365 -0.4186
 7577SOL     OW33949   6.821   1.819   1.908  0.1141  0.0065  0.3013
 7577SOL    HW133950   6.916   1.842   1.885  0.2734 -0.6619  0.2794
 7577SOL    HW233951   6.820   1.739   1.969 -0.5197 -1.5729 -1.7297
 7578SOL     OW33952   8.531   8.023   4.255 -0.0095 -0.5536 -0.4358
 7578SOL    HW133953   8.461   7.952   4.245  0.5008 -1.3299  1.2935
 7578SOL    HW233954   8.590   8.001   4.333  1.4182  0.7211 -1.1286
 7579SOL     OW33955   9.842   6.599   2.191 -0.2492 -0.3991  0.2518
 7579SOL    HW133956   9.930   6.595   2.142 -0.2168 -0.1715  0.2910
 7579SOL    HW233957   9.840   6.681   2.248 -1.3141  0.6703 -1.3075
 7580SOL     OW33958   8.860   1.319   5.819  0.3943 -0.0400  0.4969
 7580SOL    HW133959   8.842   1.390   5.887 -0.3731  0.1309  0.1265
 7580SOL    HW233960   8.802   1.335   5.739 -0.8327 -1.8861  0.9743
 7581SOL     OW33961   9.294   8.886   0.036 -0.2347 -0.6670  1.2060
 7581SOL    HW133962   9.238   8.819   0.084 -0.1503 -1.0744  0.7312
 7581SOL    HW233963   9.388   8.853   0.030 -0.5708 -1.3357 -0.6312
 7582SOL     OW33964   1.484   7.716   6.312  0.2098  0.1852 -0.1262
 7582SOL    HW133965   1.479   7.626   6.269  1.5142 -1.4315  2.9675
 7582SOL    HW233966   1.569   7.724   6.364 -0.2101  2.9552  0.2259
 7583SOL     OW33967   1.750   3.222   1.328 -0.2497  0.3825 -0.3989
 7583SOL    HW133968   1.690   3.205   1.406 -0.9017  0.0612 -0.9673
 7583SOL    HW233969   1.759   3.320   1.313 -1.1326  0.4189 -0.7007
 7584SOL     OW33970   3.842   4.636   5.592 -0.2119  0.3223  0.0526
 7584SOL    HW133971   3.762   4.652   5.650 -0.0491 -0.4692  0.5091
 7584SOL    HW233972   3.924   4.668   5.639 -0.2412  0.9312 -0.3204
 7585SOL     OW33973   9.577   2.077   0.897 -0.1923 -0.0133  0.1898
 7585SOL    HW133974   9.486   2.075   0.937  0.8498 -0.0005  2.6099
 7585SOL    HW233975   9.639   2.130   0.955  1.5474 -0.6115 -1.0526
 7586SOL     OW33976   3.257   2.608   4.646  0.1303 -0.2008 -0.2452
 7586SOL    HW133977   3.233   2.679   4.581 -0.2956 -1.0058 -0.9655
 7586SOL    HW233978   3.274   2.522   4.598  0.5746 -0.6098  0.6229
 7587SOL     OW33979   2.458   7.902   0.205  0.0652  0.6197 -0.2552
 7587SOL    HW133980   2.454   7.886   0.303  0.3173  0.2515 -0.3026
 7587SOL    HW233981   2.512   7.829   0.162 -0.8598  0.2369 -0.7844
 7588SOL     OW33982   4.678   9.802   5.389  0.0523 -0.1878  0.4691
 7588SOL    HW133983   4.732   9.829   5.309  0.1418 -0.5752  0.3965
 7588SOL    HW233984   4.630   9.882   5.425  0.8975  0.2206  0.7074
 7589SOL     OW33985   2.954   2.114   2.998 -0.1057 -0.1137  0.6632
 7589SOL    HW133986   3.016   2.191   3.013  0.8220 -0.9253  1.0632
 7589SOL    HW233987   2.875   2.121   3.059  0.1244  0.3615  0.9072
 7590SOL     OW33988   1.553   3.857   0.545 -0.0281 -0.5671 -0.4176
 7590SOL    HW133989   1.545   3.863   0.645 -1.0582 -0.0778 -0.5159
 7590SOL    HW233990   1.536   3.947   0.506  1.9433 -0.4157 -0.9488
 7591SOL     OW33991   3.642   8.255   4.581  0.0654  0.6609  0.6016
 7591SOL    HW133992   3.671   8.308   4.502 -0.0629  1.2757  0.9616
 7591SOL    HW233993   3.591   8.314   4.644 -1.0357 -0.1516  0.4798
 7592SOL     OW33994   8.235   4.410   6.398  0.0053 -0.6740  0.6241
 7592SOL    HW133995   8.182   4.328   6.376  0.8217 -1.2129  0.6477
 7592SOL    HW233996   8.185   4.465   6.466 -0.7762 -0.8916  0.2327
 7593SOL     OW33997   2.010   8.616   1.600  0.0960 -0.5485 -0.0519
 7593SOL    HW133998   1.957   8.699   1.616 -1.6578 -1.3419 -1.5516
 7593SOL    HW233999   2.074   8.603   1.675 -0.5761  1.4087  0.9036
 7594SOL     OW34000   5.321   4.552   1.448  0.1439  0.0421 -0.5039
 7594SOL    HW134001   5.331   4.479   1.516  0.1267 -1.0760 -1.6785
 7594SOL    HW234002   5.398   4.615   1.455 -0.0845  0.1829  0.8388
 7595SOL     OW34003   9.061   1.685   0.536 -0.4859  0.4479  0.5737
 7595SOL    HW134004   8.987   1.747   0.562  1.0790  1.9950  1.4168
 7595SOL    HW234005   9.107   1.719   0.454 -0.1519 -0.0485  0.5483
 7596SOL     OW34006   6.610   1.361   5.035  0.1748 -0.1019 -0.4983
 7596SOL    HW134007   6.515   1.342   5.057 -0.6101 -1.0912 -4.4918
 7596SOL    HW234008   6.657   1.276   5.011  1.5782  0.6158 -0.3768
 7597SOL     OW34009   4.736   1.932   5.433  0.0780  0.6997 -0.4199
 7597SOL    HW134010   4.833   1.924   5.409  0.0223 -1.9091  0.0387
 7597SOL    HW234011   4.725   1.992   5.512  1.8077 -2.2204  2.1457
 7598SOL     OW34012   0.743   7.220   0.995  0.4889 -0.1256  0.0636
 7598SOL    HW134013   0.790   7.143   1.038  0.4069  0.2661  0.8566
 7598SOL    HW234014   0.799   7.303   1.005 -1.3216  0.8377  2.9741
 7599SOL     OW34015   6.833   9.829   2.965 -0.4975  0.4668 -0.2283
 7599SOL    HW134016   6.773   9.750   2.955  0.1226 -0.3142  1.9106
 7599SOL    HW234017   6.801   9.885   3.042  1.5622 -0.0438  1.0387
 7600SOL     OW34018   0.582   9.722   3.564  0.2054  0.1568  0.7944
 7600SOL    HW134019   0.588   9.814   3.601  1.2647  0.5777 -0.4083
 7600SOL    HW234020   0.488   9.689   3.572 -0.4926  1.8820 -0.0752
 7601SOL     OW34021   8.179   9.310   3.287 -0.2099  0.7943 -0.2561
 7601SOL    HW134022   8.202   9.334   3.193 -0.6305 -0.5111 -0.7018
 7601SOL    HW234023   8.262   9.301   3.341  0.4384 -3.4492 -1.7458
 7602SOL     OW34024   9.715   5.808   4.767 -0.4733 -0.5605  0.0089
 7602SOL    HW134025   9.787   5.857   4.815 -1.1447  0.0793  0.3784
 7602SOL    HW234026   9.731   5.811   4.668 -0.5169  0.4115  0.0300
 7603SOL     OW34027   8.827   6.853   5.384  0.0201 -0.2377 -0.0075
 7603SOL    HW134028   8.920   6.847   5.420  0.1546  0.4816 -0.2273
 7603SOL    HW234029   8.791   6.945   5.400 -1.5084 -1.1858  2.1287
 7604SOL     OW34030   1.339   7.326   2.263 -0.1592  0.4585 -0.0322
 7604SOL    HW134031   1.388   7.403   2.224 -1.3991  0.4387 -1.6613
 7604SOL    HW234032   1.240   7.338   2.250 -0.3546 -1.6115 -0.7635
 7605SOL     OW34033   9.401   7.226   4.696  0.0568  0.0675  0.1519
 7605SOL    HW134034   9.348   7.309   4.712  1.8431  1.4127 -0.7322
 7605SOL    HW234035   9.486   7.249   4.648  1.1517 -2.1055  0.9584
 7606SOL     OW34036   8.330   0.096   3.039 -0.3791 -0.0974  0.2020
 7606SOL    HW134037   8.407   0.147   3.077 -0.4663 -0.7729  1.3113
 7606SOL    HW234038   8.272   0.158   2.987  0.3896  0.6082  0.1735
 7607SOL     OW34039   4.095   2.192   2.732  0.3979  0.5605  0.2533
 7607SOL    HW134040   4.137   2.104   2.754  1.8232  1.0179 -0.5331
 7607SOL    HW234041   4.058   2.233   2.815  1.0797 -0.0854  0.8867
 7608SOL     OW34042   1.987   7.576   1.286  0.2732 -0.0205 -0.1985
 7608SOL    HW134043   1.939   7.503   1.237  0.1965  0.3466 -0.6666
 7608SOL    HW234044   2.038   7.633   1.221 -0.4069  0.9011  0.0708
 7609SOL     OW34045   2.796   3.876   5.237  0.0413  0.2454 -0.4730
 7609SOL    HW134046   2.870   3.933   5.272  1.0238  0.3442 -2.6227
 7609SOL    HW234047   2.834   3.805   5.178 -1.5736  0.3393 -1.6591
 7610SOL     OW34048   2.207   6.686   0.118 -0.0486  0.8648 -0.1785
 7610SOL    HW134049   2.227   6.744   0.039 -1.6893 -2.1737 -2.9637
 7610SOL    HW234050   2.277   6.616   0.126 -1.0928 -0.2002 -0.3251
 7611SOL     OW34051   6.501   8.547   2.605 -0.1154  0.5076  0.3407
 7611SOL    HW134052   6.543   8.565   2.516  1.4524 -1.9921  0.5221
 7611SOL    HW234053   6.440   8.468   2.598  1.6804 -1.0935  1.8790
 7612SOL     OW34054   8.286   6.795   5.358 -0.5200  0.0366 -0.4171
 7612SOL    HW134055   8.200   6.844   5.345 -1.5040 -0.5981  3.0795
 7612SOL    HW234056   8.268   6.696   5.360  0.4213 -0.1422 -0.6036
 7613SOL     OW34057   2.267   6.106   5.629 -0.1821  0.3593 -0.2918
 7613SOL    HW134058   2.301   6.189   5.585 -0.4443  0.8704  0.4681
 7613SOL    HW234059   2.175   6.122   5.664 -0.0727 -0.1276  0.2176
 7614SOL     OW34060   9.600   1.952   1.860 -0.2868  0.1236  0.0944
 7614SOL    HW134061   9.604   1.953   1.760 -0.8940  0.9818  0.0769
 7614SOL    HW234062   9.553   2.034   1.892 -1.5430 -0.9427  1.0255
 7615SOL     OW34063   1.716   5.957   5.671 -0.0469  0.0261  0.9420
 7615SOL    HW134064   1.648   5.905   5.723 -0.5911  0.6382  0.8472
 7615SOL    HW234065   1.749   5.902   5.594 -2.6017  0.8018 -0.7535
 7616SOL     OW34066   9.440   8.662   2.400 -0.2825  0.1484  0.3447
 7616SOL    HW134067   9.456   8.601   2.478  1.0522 -1.7104 -1.3307
 7616SOL    HW234068   9.506   8.641   2.328 -3.9160 -0.8270 -2.8220
 7617SOL     OW34069   9.001   5.522   6.081 -0.2188 -0.4905 -0.6329
 7617SOL    HW134070   9.025   5.474   6.165 -0.3402 -1.1046 -0.9491
 7617SOL    HW234071   9.076   5.583   6.055  0.0826 -0.7722 -0.4258
 7618SOL     OW34072   9.633   3.749   5.250 -0.4351 -0.1768 -0.0298
 7618SOL    HW134073   9.597   3.753   5.343  1.3090 -0.9095  0.7104
 7618SOL    HW234074   9.561   3.771   5.184 -2.5711 -2.8498  1.2936
 7619SOL     OW34075   9.971   0.348   2.600 -0.7337  0.5627  0.3695
 7619SOL    HW134076   9.983   0.302   2.513  1.2914  2.2231 -0.2761
 7619SOL    HW234077   9.873   0.355   2.621 -1.2034 -0.7058 -1.2712
 7620SOL     OW34078   5.203   8.747   3.773  0.0189 -0.0436  0.0701
 7620SOL    HW134079   5.137   8.789   3.835  0.4199  0.6904  0.0042
 7620SOL    HW234080   5.193   8.647   3.776 -1.4822  0.0835 -0.3803
 7621SOL     OW34081   9.356   4.655   5.486 -0.2486 -0.0151  0.3316
 7621SOL    HW134082   9.324   4.578   5.431 -0.8160  0.0369  0.5867
 7621SOL    HW234083   9.454   4.668   5.471 -0.2341 -0.5268 -0.0260
 7622SOL     OW34084   2.655   2.576   2.835 -0.3584  0.0224 -0.2256
 7622SOL    HW134085   2.609   2.489   2.814  2.0789 -1.2507 -0.5424
 7622SOL    HW234086   2.591   2.651   2.823 -1.8404 -1.5116 -2.5267
 7623SOL     OW34087   9.235   1.181   1.792  0.0680  0.0365  0.2595
 7623SOL    HW134088   9.329   1.214   1.803 -0.0246  0.3142  0.2082
 7623SOL    HW234089   9.233   1.106   1.727  0.3661 -0.4527  0.8054
 7624SOL     OW34090   5.219   9.902   2.452 -0.0358 -0.2872  0.2306
 7624SOL    HW134091   5.201   9.807   2.426  2.8456 -0.7200 -0.3597
 7624SOL    HW234092   5.306   9.931   2.412  0.0067  2.0227  1.9350
 7625SOL     OW34093   4.485   0.712   5.758 -0.0721  0.3649 -0.7769
 7625SOL    HW134094   4.555   0.723   5.687  0.5702  0.0056 -0.1990
 7625SOL    HW234095   4.425   0.635   5.734  1.2903 -0.9619 -0.0034
 7626SOL     OW34096   8.410   5.985   4.307  0.2685  0.4102  0.0486
 7626SOL    HW134097   8.419   5.995   4.406 -0.6597  0.8810  0.0986
 7626SOL    HW234098   8.434   6.072   4.263  1.3257 -0.0007 -0.1876
 7627SOL     OW34099   9.903   6.853   2.995 -0.1931 -0.2736  0.0328
 7627SOL    HW134100   9.860   6.912   2.927 -1.1754  1.2548  1.9314
 7627SOL    HW234101  10.002   6.849   2.979 -0.6941 -1.9676 -2.9703
 7628SOL     OW34102   2.126   7.478   4.479  0.0458 -0.2239 -0.0243
 7628SOL    HW134103   2.189   7.555   4.464 -0.4346  0.0135 -0.8723
 7628SOL    HW234104   2.045   7.491   4.422 -0.3521 -1.0078  0.3657
 7629SOL     OW34105   8.083   3.579   3.276 -0.1713 -0.0769 -0.5131
 7629SOL    HW134106   8.062   3.643   3.201 -0.0918  0.8292  0.2318
 7629SOL    HW234107   8.127   3.629   3.351  0.0450 -1.0452  0.0087
 7630SOL     OW34108   4.970   7.548   3.433 -0.2678  0.4693  0.1220
 7630SOL    HW134109   5.049   7.507   3.478 -0.9859 -0.6270  0.4101
 7630SOL    HW234110   4.915   7.597   3.501  0.4740  1.7555 -0.1837
 7631SOL     OW34111   2.723   7.531   3.216  0.3432  0.3299  0.2308
 7631SOL    HW134112   2.783   7.510   3.293  1.0002  0.9686 -0.1003
 7631SOL    HW234113   2.734   7.462   3.145 -1.7788 -1.4374  1.5320
 7632SOL     OW34114   2.164   8.443   3.484 -0.0666 -0.2819  0.2061
 7632SOL    HW134115   2.105   8.462   3.405  0.6483  0.5126 -0.1435
 7632SOL    HW234116   2.132   8.496   3.562 -0.5160 -0.7415  0.3369
 7633SOL     OW34117   9.473   4.169   0.333 -0.1143  0.3516 -0.4489
 7633SOL    HW134118   9.390   4.207   0.374  0.1419 -0.5941  1.0085
 7633SOL    HW234119   9.455   4.141   0.239 -1.4396  0.1910 -0.1511
 7634SOL     OW34120   1.934   3.428   6.272 -0.4352  0.2711 -0.0136
 7634SOL    HW134121   1.872   3.505   6.260  1.7719  2.4924  2.2340
 7634SOL    HW234122   1.985   3.439   6.357  0.2911 -3.4598  0.1262
 7635SOL     OW34123   4.550   2.117   1.515 -0.5232  0.1552  0.1785
 7635SOL    HW134124   4.556   2.143   1.611  5.2257 -1.2857  0.4146
 7635SOL    HW234125   4.534   2.019   1.508 -1.7711  0.3933 -0.3646
 7636SOL     OW34126   7.297   1.932   4.350 -0.0008  0.9168  0.0622
 7636SOL    HW134127   7.211   1.965   4.389 -0.6007 -1.0273  0.3906
 7636SOL    HW234128   7.373   1.981   4.393 -0.8133  0.9737  1.4619
 7637SOL     OW34129   7.405   1.057   3.677 -0.7151  0.0234 -0.4043
 7637SOL    HW134130   7.489   1.104   3.706 -0.2910 -1.4521  0.8438
 7637SOL    HW234131   7.328   1.093   3.729 -0.1877 -1.5438  1.5314
 7638SOL     OW34132   2.517   7.238   5.306  0.0534 -0.8223 -0.2464
 7638SOL    HW134133   2.599   7.186   5.328  0.0710 -0.7826 -0.2187
 7638SOL    HW234134   2.437   7.178   5.311  0.3396 -1.4665 -2.6262
 7639SOL     OW34135   0.821   4.418   1.650  0.5736  0.1416  0.8410
 7639SOL    HW134136   0.919   4.420   1.666  0.5574 -1.2320  1.1843
 7639SOL    HW234137   0.773   4.399   1.735  0.1754 -1.6947  0.2364
 7640SOL     OW34138   0.548   4.395   6.194 -0.3614 -0.3302  0.2669
 7640SOL    HW134139   0.524   4.299   6.184 -0.6868 -0.1900 -0.3133
 7640SOL    HW234140   0.511   4.447   6.117  1.1276  0.0171 -0.2298
 7641SOL     OW34141   6.329   0.493   0.898 -0.2286 -0.1383  0.5313
 7641SOL    HW134142   6.338   0.592   0.911 -1.0013 -0.1323  1.0133
 7641SOL    HW234143   6.420   0.455   0.879  0.0234  0.7078 -0.0235
 7642SOL     OW34144   1.417   5.826   5.022 -0.2933  0.3032  0.0937
 7642SOL    HW134145   1.476   5.895   5.065 -0.4697 -0.6020  1.8230
 7642SOL    HW234146   1.343   5.872   4.974  0.9987  1.4030 -0.8917
 7643SOL     OW34147   0.412   8.798   1.022 -0.3797  0.2032  0.2038
 7643SOL    HW134148   0.473   8.770   0.948 -1.8061 -1.0893 -0.5154
 7643SOL    HW234149   0.355   8.720   1.049 -0.8360  1.0449  1.7299
 7644SOL     OW34150   3.771   5.102   4.712  0.5866 -0.0626  0.3680
 7644SOL    HW134151   3.692   5.042   4.726  0.9018 -0.3325  0.9835
 7644SOL    HW234152   3.855   5.048   4.718  0.7908  0.0452 -1.2251
 7645SOL     OW34153   9.033   9.713   2.665  0.1735  0.1556  0.6929
 7645SOL    HW134154   9.113   9.686   2.612 -0.0439  0.5727  0.1425
 7645SOL    HW234155   9.051   9.699   2.763  0.4512 -0.9297  0.4867
 7646SOL     OW34156   9.370   6.761   6.426 -0.0629  0.3447 -0.4107
 7646SOL    HW134157   9.414   6.832   6.481 -2.8122  2.1925 -0.4636
 7646SOL    HW234158   9.320   6.804   6.350 -0.9266 -1.7253 -1.0469
 7647SOL     OW34159   3.304   3.344   6.331  0.3979 -0.3083  0.2916
 7647SOL    HW134160   3.300   3.247   6.355  0.4468 -0.6998 -1.2099
 7647SOL    HW234161   3.284   3.355   6.233  1.2228  1.1066  0.2648
 7648SOL     OW34162   3.869   8.568   1.140  0.2921  0.3017 -0.2826
 7648SOL    HW134163   3.779   8.600   1.171 -0.0662 -0.3402 -0.6393
 7648SOL    HW234164   3.872   8.468   1.144  0.7532  0.2854 -0.9080
 7649SOL     OW34165   2.601   2.032   2.988 -0.2708 -0.1767 -0.0411
 7649SOL    HW134166   2.672   2.016   2.920 -0.1309 -0.7212  0.2303
 7649SOL    HW234167   2.640   2.082   3.066  0.1926 -1.8419  0.8101
 7650SOL     OW34168   9.297   7.601   0.453  0.4115  0.4360 -0.2149
 7650SOL    HW134169   9.258   7.691   0.470 -0.6825 -0.0510 -0.1383
 7650SOL    HW234170   9.349   7.602   0.367  2.3295  1.7446  0.9278
 7651SOL     OW34171   8.647   8.408   2.204 -0.1018 -0.6668 -0.4612
 7651SOL    HW134172   8.709   8.334   2.177  1.3217  0.3971 -0.1190
 7651SOL    HW234173   8.669   8.491   2.153  2.0505  1.1372  3.1708
 7652SOL     OW34174   1.630   7.846   5.013 -0.1025  0.1407 -0.7205
 7652SOL    HW134175   1.703   7.786   5.045 -1.6980 -0.7363  1.3345
 7652SOL    HW234176   1.607   7.912   5.084 -2.3158 -0.5307 -0.7845
 7653SOL     OW34177   2.895   9.547   0.144 -0.1588 -0.0596 -0.9458
 7653SOL    HW134178   2.830   9.532   0.218 -2.7700 -0.3186 -3.2177
 7653SOL    HW234179   2.899   9.645   0.122  1.2151  0.1168  0.0500
 7654SOL     OW34180   5.430   8.768   3.598 -0.4807  0.3945  0.0394
 7654SOL    HW134181   5.349   8.754   3.655 -0.2001  0.9163  0.5724
 7654SOL    HW234182   5.512   8.766   3.656 -0.0229 -1.1699 -0.6380
 7655SOL     OW34183   3.076   8.085   4.343  0.3730 -0.1874 -0.4277
 7655SOL    HW134184   3.129   8.034   4.411 -0.1160  0.7555  0.6785
 7655SOL    HW234185   3.005   8.026   4.306 -0.9822  0.0262  1.7517
 7656SOL     OW34186   0.205   4.075   0.395  0.2321  0.0751  0.1352
 7656SOL    HW134187   0.115   4.057   0.357 -0.1246 -0.2375  1.1183
 7656SOL    HW234188   0.239   3.992   0.440  0.5478  0.5097  0.7007
 7657SOL     OW34189   4.249   1.261   4.481  0.2877  0.3822 -0.6242
 7657SOL    HW134190   4.179   1.259   4.552  0.5234  1.7020 -0.3365
 7657SOL    HW234191   4.282   1.168   4.464 -0.4822 -0.0652  0.2717
 7658SOL     OW34192   8.607   6.984   2.910  0.4098  0.0616  0.1540
 7658SOL    HW134193   8.591   7.067   2.857 -0.1299  0.7883  1.4151
 7658SOL    HW234194   8.572   6.905   2.861 -2.9780  1.0844  0.8024
 7659SOL     OW34195   9.884   8.226   2.415  0.1012 -0.0657 -0.3912
 7659SOL    HW134196   9.928   8.315   2.422 -1.3023  0.5850  0.1561
 7659SOL    HW234197   9.931   8.172   2.345  0.7500  1.2034 -0.9556
 7660SOL     OW34198   1.204   4.534   4.168 -0.0587  0.0852  0.5687
 7660SOL    HW134199   1.151   4.619   4.168 -0.8824 -0.4101 -1.2264
 7660SOL    HW234200   1.298   4.554   4.198 -0.0743  1.7418 -0.3719
 7661SOL     OW34201   1.448   4.034   5.403  0.3767  0.1540  0.0165
 7661SOL    HW134202   1.512   4.108   5.381  1.5905 -0.5149  1.1828
 7661SOL    HW234203   1.361   4.073   5.431  0.8892  1.1378  0.2833
 7662SOL     OW34204   8.849   4.247   3.925  0.1848  0.4936 -0.1945
 7662SOL    HW134205   8.947   4.244   3.942  0.3958 -1.1569 -1.6724
 7662SOL    HW234206   8.825   4.335   3.884  1.4709 -0.1179 -2.3086
 7663SOL     OW34207   7.245   1.556   2.540 -0.0556  0.2543 -0.3043
 7663SOL    HW134208   7.332   1.539   2.585 -0.0406 -2.1455 -1.1845
 7663SOL    HW234209   7.258   1.621   2.465  1.1330 -0.7421 -0.9728
 7664SOL     OW34210   5.307   6.416   2.086  0.0932 -0.2818 -0.6058
 7664SOL    HW134211   5.246   6.440   2.011  0.0693  0.4900 -0.3402
 7664SOL    HW234212   5.254   6.389   2.166  0.0318  2.1734  0.2328
 7665SOL     OW34213   5.166   9.261   1.725  0.2046  0.3668 -0.5918
 7665SOL    HW134214   5.120   9.176   1.700 -1.6981  1.3287 -0.4773
 7665SOL    HW234215   5.186   9.260   1.823  0.0061  0.1277 -0.5525
 7666SOL     OW34216   6.574   9.091   3.570 -0.4204 -0.0595 -0.0490
 7666SOL    HW134217   6.566   9.189   3.588  1.2811  0.1272 -0.2425
 7666SOL    HW234218   6.486   9.056   3.538 -1.0693  1.3890  0.1108
 7667SOL     OW34219   1.414   7.300   2.612  0.2622 -0.0778  0.1596
 7667SOL    HW134220   1.449   7.253   2.530 -1.8260  1.9336 -1.9588
 7667SOL    HW234221   1.412   7.398   2.596 -2.3834  0.1749  1.7581
 7668SOL     OW34222   1.398   9.834   6.374  0.3842  0.2362  0.4392
 7668SOL    HW134223   1.385   9.762   6.305 -0.5992  1.2103 -0.4128
 7668SOL    HW234224   1.371   9.800   6.464  0.0261 -0.4874  0.0588
 7669SOL     OW34225   7.479   1.460   2.658 -0.3820  0.2575  0.2939
 7669SOL    HW134226   7.541   1.461   2.579 -1.8833 -0.7494 -0.9508
 7669SOL    HW234227   7.527   1.489   2.740  1.5625  0.0828 -0.7718
 7670SOL     OW34228   1.560   7.374   4.785 -0.1843  0.8110 -0.0001
 7670SOL    HW134229   1.586   7.349   4.692  0.6949  3.2159 -0.4388
 7670SOL    HW234230   1.628   7.436   4.824 -1.4553  1.2574  1.5868
 7671SOL     OW34231   4.381   9.336   2.891  0.0905 -0.0694  0.6387
 7671SOL    HW134232   4.346   9.247   2.918 -0.8021  0.6610  1.9682
 7671SOL    HW234233   4.387   9.341   2.791 -0.6882 -1.2931  0.5200
 7672SOL     OW34234   9.177   0.191   5.859  0.0940 -0.7549 -0.2020
 7672SOL    HW134235   9.135   0.100   5.855  0.7931 -1.1411  0.9749
 7672SOL    HW234236   9.241   0.201   5.783 -0.5629 -0.9408 -0.7906
 7673SOL     OW34237   7.031   0.077   1.597  0.2490 -0.1376 -0.2497
 7673SOL    HW134238   7.015   0.031   1.510  1.2395 -0.6840 -0.1563
 7673SOL    HW234239   7.001   0.172   1.591 -1.0347 -0.5657 -0.7189
 7674SOL     OW34240   0.722   0.380   1.143 -0.3170 -0.4704  0.3857
 7674SOL    HW134241   0.783   0.414   1.215  0.0282  1.8760 -0.9507
 7674SOL    HW234242   0.775   0.359   1.062 -0.8818 -1.7389  0.3366
 7675SOL     OW34243   6.129   7.363   4.290  0.3186  0.2511  0.0339
 7675SOL    HW134244   6.184   7.331   4.213 -0.9992  0.1024 -0.8764
 7675SOL    HW234245   6.149   7.307   4.371  0.0805 -1.0836 -0.8086
 7676SOL     OW34246   0.989   9.191   0.436 -0.1663  0.0649 -0.5599
 7676SOL    HW134247   0.970   9.167   0.531  2.3027  0.3973  0.0574
 7676SOL    HW234248   1.000   9.290   0.428  2.0818 -0.1649 -0.6769
 7677SOL     OW34249   0.255   2.371   2.360 -0.3747  0.0143 -0.1178
 7677SOL    HW134250   0.334   2.417   2.319 -1.0256  1.1742 -0.1070
 7677SOL    HW234251   0.265   2.370   2.460  0.5881 -1.6538 -0.2140
 7678SOL     OW34252   1.700   1.718   5.513 -0.1369  0.5260  0.1284
 7678SOL    HW134253   1.757   1.788   5.555 -1.1461  0.6156  1.3792
 7678SOL    HW234254   1.604   1.739   5.529 -0.4952 -0.2896 -0.8788
 7679SOL     OW34255   8.142   1.012   4.436 -0.1527  0.3036 -0.2531
 7679SOL    HW134256   8.206   1.024   4.512  0.5544 -0.6557 -0.6754
 7679SOL    HW234257   8.072   0.946   4.462  0.3400 -0.3583 -0.5673
 7680SOL     OW34258   3.054   8.579   2.770 -0.2417  0.6939  0.7356
 7680SOL    HW134259   3.098   8.667   2.752  1.6980 -0.4710 -0.5301
 7680SOL    HW234260   3.122   8.515   2.805 -1.4698 -0.4939  0.9721
 7681SOL     OW34261   6.031   2.235   3.715  0.3113 -0.2478 -0.1457
 7681SOL    HW134262   5.958   2.219   3.649  0.4898 -1.1583 -0.1242
 7681SOL    HW234263   6.108   2.281   3.670 -0.6435  1.5883  0.0445
 7682SOL     OW34264   4.615   2.878   6.442  0.3813  0.1742  0.4572
 7682SOL    HW134265   4.611   2.795   6.499  2.9790 -0.8195 -0.7200
 7682SOL    HW234266   4.679   2.943   6.483 -0.3018  0.8392  0.4514
 7683SOL     OW34267   5.203   1.507   3.836  0.3964 -0.5182  0.3079
 7683SOL    HW134268   5.137   1.479   3.767  0.2489  1.0169 -0.2015
 7683SOL    HW234269   5.295   1.484   3.806  0.3801  0.6406 -0.6802
 7684SOL     OW34270   1.520   0.707   6.584 -0.1084  0.7646  0.8747
 7684SOL    HW134271   1.551   0.698   6.678 -0.0288 -0.2396  0.7630
 7684SOL    HW234272   1.451   0.780   6.578 -0.6104  0.3766  1.8327
 7685SOL     OW34273   0.397   4.214   2.592  0.1821  0.0867 -0.2619
 7685SOL    HW134274   0.417   4.260   2.679  0.9870  0.7545 -0.7919
 7685SOL    HW234275   0.475   4.158   2.565  0.2986  0.6011 -1.0029
 7686SOL     OW34276   8.836   0.981   4.983  0.1514 -0.0175  0.0195
 7686SOL    HW134277   8.755   1.029   4.949  0.2478 -0.7091 -1.1955
 7686SOL    HW234278   8.842   0.891   4.941  2.0432  0.3755 -0.6042
 7687SOL     OW34279   0.075   0.833   6.006 -0.0228 -0.0437  0.1720
 7687SOL    HW134280   0.065   0.882   6.092 -0.6636  1.6857 -0.8693
 7687SOL    HW234281  -0.010   0.836   5.954  0.1069 -1.7635 -0.1791
 7688SOL     OW34282   4.692   0.365   5.688 -0.1794 -0.3918 -0.6864
 7688SOL    HW134283   4.755   0.310   5.633 -0.2597  1.4640 -2.7000
 7688SOL    HW234284   4.632   0.304   5.739  2.8210 -2.2020  0.8315
 7689SOL     OW34285   1.535   5.240   5.286  0.4455  0.2061 -0.3517
 7689SOL    HW134286   1.540   5.340   5.275  0.7080  0.2220 -0.0748
 7689SOL    HW234287   1.606   5.197   5.231  1.6028  0.2735  1.0527
 7690SOL     OW34288   7.461   0.489   4.086  0.2531 -0.6381  0.7869
 7690SOL    HW134289   7.431   0.418   4.022 -0.4151 -1.7600  2.3186
 7690SOL    HW234290   7.558   0.508   4.071  0.0255 -0.6206 -0.7982
 7691SOL     OW34291   4.373   7.700   3.812  0.0061 -0.0635  0.7184
 7691SOL    HW134292   4.425   7.638   3.754  0.4749  0.4869  0.5482
 7691SOL    HW234293   4.430   7.779   3.836 -1.0864  1.0627 -0.3402
 7692SOL     OW34294   0.511   3.726   5.684 -0.2262  0.4196 -0.6106
 7692SOL    HW134295   0.499   3.661   5.609  1.3533  0.1384 -0.6284
 7692SOL    HW234296   0.600   3.770   5.676 -1.0148  2.1088 -0.2195
 7693SOL     OW34297   9.273   7.718   1.157 -0.1721 -0.1789 -0.0934
 7693SOL    HW134298   9.268   7.680   1.065  0.0881 -1.3254  0.3512
 7693SOL    HW234299   9.343   7.789   1.161  3.1724 -3.3848  0.3256
 7694SOL     OW34300   3.338   8.636   3.654  0.2904 -0.1181  0.6681
 7694SOL    HW134301   3.349   8.594   3.564 -1.5398 -1.8982  1.2364
 7694SOL    HW234302   3.299   8.727   3.644  0.1221 -0.2994 -0.3592
 7695SOL     OW34303   0.792   0.304   2.506 -0.6509 -0.1821 -0.4887
 7695SOL    HW134304   0.746   0.273   2.590  0.3267  2.1145  0.9554
 7695SOL    HW234305   0.884   0.335   2.528 -1.4300  3.3697 -1.8207
 7696SOL     OW34306   9.646   4.513   5.755  0.1929 -0.8020  0.3391
 7696SOL    HW134307   9.717   4.505   5.825 -0.2726 -0.9887  0.7917
 7696SOL    HW234308   9.627   4.609   5.738  1.0938 -0.7389 -0.3319
 7697SOL     OW34309   4.030   3.108   5.215 -0.2636 -0.1572 -0.0015
 7697SOL    HW134310   4.074   3.075   5.131 -0.0194 -0.6941  0.3325
 7697SOL    HW234311   3.943   3.152   5.192  0.2261  0.5053 -0.6234
 7698SOL     OW34312   9.855   9.012   5.962  0.0653 -0.5445  1.0453
 7698SOL    HW134313   9.833   8.925   5.916  2.2320 -0.6804  0.2057
 7698SOL    HW234314   9.884   8.993   6.056  0.1491 -0.6793  0.9915
 7699SOL     OW34315   0.315   3.088   2.076 -0.0355 -0.3501 -0.0240
 7699SOL    HW134316   0.354   3.021   2.012  0.2656 -1.2780  1.1196
 7699SOL    HW234317   0.291   3.043   2.162  0.4311  1.0748  0.8719
 7700SOL     OW34318   4.856   2.805   4.080  0.1523 -0.1982  0.6601
 7700SOL    HW134319   4.922   2.864   4.125 -0.1474  0.4497  0.2590
 7700SOL    HW234320   4.798   2.859   4.019 -1.8022 -0.4722  2.2030
 7701SOL     OW34321   4.204   4.753   2.392  0.0038 -0.5307 -0.5489
 7701SOL    HW134322   4.242   4.700   2.467 -0.2969 -1.9061 -1.3469
 7701SOL    HW234323   4.240   4.846   2.395 -0.4397 -0.4012  1.6142
 7702SOL     OW34324   0.058   6.589   4.893  0.0147  0.1070 -0.8081
 7702SOL    HW134325   0.124   6.627   4.958  1.1158 -0.8346 -1.3504
 7702SOL    HW234326   0.056   6.489   4.902 -1.6958  0.1545 -0.4676
 7703SOL     OW34327   1.570   0.951   3.159 -0.2685 -0.6081  0.2859
 7703SOL    HW134328   1.620   0.895   3.224  0.4582 -0.1252  0.1448
 7703SOL    HW234329   1.501   1.005   3.207 -1.0998 -1.7495  0.4014
 7704SOL     OW34330   0.186   1.393   2.123  0.5420  1.0638  0.0462
 7704SOL    HW134331   0.235   1.455   2.184  1.0042  2.3475 -1.5783
 7704SOL    HW234332   0.245   1.369   2.046 -0.8521  1.4622 -1.1747
 7705SOL     OW34333   1.392   7.261   1.828  0.0621 -0.2318  0.3906
 7705SOL    HW134334   1.447   7.239   1.909  0.3673 -1.1694 -0.0598
 7705SOL    HW234335   1.349   7.350   1.840  2.5560  1.0338  0.3013
 7706SOL     OW34336   5.725   8.857   4.992  0.3226 -0.0857 -0.3291
 7706SOL    HW134337   5.740   8.949   4.955  1.6666 -0.2203 -0.1277
 7706SOL    HW234338   5.627   8.842   5.004  0.1769  2.0665  1.4849
 7707SOL     OW34339   9.804   4.832   3.647 -0.2216  0.1301  0.5930
 7707SOL    HW134340   9.836   4.789   3.562 -0.3720 -1.7051  1.4260
 7707SOL    HW234341   9.882   4.862   3.701 -0.1060  0.8473  0.0232
 7708SOL     OW34342   0.729   8.892   3.288  0.1265  0.2401 -0.1466
 7708SOL    HW134343   0.779   8.974   3.262  1.7266 -0.7979 -0.4040
 7708SOL    HW234344   0.748   8.870   3.383  1.8004 -1.2919 -0.8096
 7709SOL     OW34345   1.170   8.909   5.208 -0.0693 -0.0499 -0.3274
 7709SOL    HW134346   1.075   8.909   5.177  0.2267 -0.6369 -1.2466
 7709SOL    HW234347   1.227   8.863   5.141  0.6530 -0.9748  0.9099
 7710SOL     OW34348   2.254   0.730   2.210 -0.2608 -0.4114  0.1546
 7710SOL    HW134349   2.256   0.633   2.186 -1.3054 -0.1663 -1.0126
 7710SOL    HW234350   2.162   0.756   2.239  0.4423 -0.1592  2.2425
 7711SOL     OW34351   9.026   0.882   6.144 -0.3989  0.4385  0.2526
 7711SOL    HW134352   9.005   0.943   6.068  1.3691  0.2648 -0.4022
 7711SOL    HW234353   8.975   0.797   6.133 -0.5418  0.6143 -0.4734
 7712SOL     OW34354   2.281   0.624   4.007 -0.0585 -0.1142  0.0033
 7712SOL    HW134355   2.213   0.633   3.934  0.4758  0.0592 -0.4827
 7712SOL    HW234356   2.235   0.615   4.095 -0.7174 -0.7587 -0.4039
 7713SOL     OW34357   2.408   7.665   2.531  0.3440  0.2722 -0.4394
 7713SOL    HW134358   2.442   7.758   2.546 -0.2162  0.5099 -0.6147
 7713SOL    HW234359   2.485   7.605   2.508  0.5586  0.9592 -1.6073
 7714SOL     OW34360   7.762   0.379   6.349  0.3463  0.0247 -0.3131
 7714SOL    HW134361   7.731   0.388   6.444  0.2975 -0.4936 -0.2788
 7714SOL    HW234362   7.689   0.410   6.287  0.1375 -0.2464 -0.2027
 7715SOL     OW34363   4.523   7.029   3.065  0.0434  0.5383  0.0820
 7715SOL    HW134364   4.543   6.972   3.144 -0.3083  1.2726  0.7039
 7715SOL    HW234365   4.424   7.035   3.052  0.1138  0.0301 -0.6999
 7716SOL     OW34366   9.554   1.651   5.344 -0.0573 -0.0479 -0.4232
 7716SOL    HW134367   9.651   1.631   5.351  0.2082  1.1415 -0.6273
 7716SOL    HW234368   9.519   1.678   5.434  0.2948  1.6619 -0.7804
 7717SOL     OW34369   1.110   9.644   2.796 -0.4185  0.2009  0.3384
 7717SOL    HW134370   1.203   9.672   2.775 -0.6586  1.0444  0.3564
 7717SOL    HW234371   1.047   9.686   2.731 -0.8432  0.1338  0.7031
 7718SOL     OW34372   3.743   9.590   0.180 -0.4493 -0.2107  0.0567
 7718SOL    HW134373   3.647   9.616   0.178 -0.4702 -0.2479  0.5583
 7718SOL    HW234374   3.755   9.507   0.235 -0.2347 -0.6524 -0.6486
 7719SOL     OW34375   3.443   3.969   6.241 -0.2013 -0.5719  0.2197
 7719SOL    HW134376   3.349   3.984   6.272 -0.3679 -0.7765 -0.1803
 7719SOL    HW234377   3.487   3.901   6.299 -0.0665  0.0464  0.8489
 7720SOL     OW34378   4.910   1.382   2.007 -0.3842  0.2296 -0.5476
 7720SOL    HW134379   4.942   1.366   1.914  0.4739  3.9054 -0.9782
 7720SOL    HW234380   4.980   1.354   2.072  0.2027  0.3285 -1.1338
 7721SOL     OW34381   5.084   1.907   3.093 -0.0516  0.4798 -0.0214
 7721SOL    HW134382   5.144   1.870   3.164 -2.4451  0.3946  2.0049
 7721SOL    HW234383   5.030   1.982   3.131 -1.6508  0.1718 -1.6387
 7722SOL     OW34384   1.040   7.335   3.118  0.3311  0.0631  0.6437
 7722SOL    HW134385   1.111   7.402   3.138  1.7951 -1.0295 -0.7332
 7722SOL    HW234386   1.079   7.243   3.123 -1.0398 -0.5595  0.1066
 7723SOL     OW34387   2.994   7.505   1.114  0.5679  0.1264  0.0804
 7723SOL    HW134388   2.895   7.496   1.100  0.4594 -0.8736  1.3960
 7723SOL    HW234389   3.042   7.461   1.039  0.0157  0.3177 -0.3914
 7724SOL     OW34390   0.103   2.296   4.115  0.3572  0.2310  0.2166
 7724SOL    HW134391   0.198   2.317   4.091  0.8084 -1.9922 -0.0826
 7724SOL    HW234392   0.100   2.255   4.206 -0.7243  3.3972  1.6636
 7725SOL     OW34393   3.205   8.227   1.419  0.3200  0.2469 -0.0530
 7725SOL    HW134394   3.278   8.158   1.420  0.6775  0.6198  1.3309
 7725SOL    HW234395   3.152   8.220   1.505  0.2082  1.5352 -0.0129
 7726SOL     OW34396   3.661   6.511   4.389 -0.0120  0.2085  0.1269
 7726SOL    HW134397   3.664   6.414   4.414 -1.8958  0.1557  0.2170
 7726SOL    HW234398   3.658   6.520   4.290 -1.1236  0.1258  0.1504
 7727SOL     OW34399   0.026   0.688   0.370 -0.3271  0.1582  0.1918
 7727SOL    HW134400  -0.029   0.765   0.338 -1.2022  0.1224  1.6022
 7727SOL    HW234401   0.027   0.685   0.470  1.1670 -0.6175  0.1767
 7728SOL     OW34402   8.286   4.256   3.134  0.2439  0.1373  0.6215
 7728SOL    HW134403   8.355   4.284   3.202 -0.0806  2.5503  0.0066
 7728SOL    HW234404   8.195   4.275   3.171 -0.0045 -0.3687  0.2680
 7729SOL     OW34405   5.432   9.321   1.355 -0.7406 -0.4116 -0.3023
 7729SOL    HW134406   5.462   9.316   1.450  0.3595 -0.0133 -0.6229
 7729SOL    HW234407   5.491   9.263   1.299 -0.9424 -0.0888 -0.8493
 7730SOL     OW34408   0.795   4.690   3.186 -0.8791 -0.0320 -0.1818
 7730SOL    HW134409   0.714   4.680   3.244  0.2117  1.4273  1.6876
 7730SOL    HW234410   0.874   4.651   3.233 -0.0536  0.7999 -0.8512
 7731SOL     OW34411   8.734   9.472   6.060  0.4718 -0.1639  0.3665
 7731SOL    HW134412   8.737   9.374   6.040 -1.7644 -0.9012  3.1920
 7731SOL    HW234413   8.644   9.507   6.035  0.3963  0.6011  1.7099
 7732SOL     OW34414   7.723   7.667   3.557 -0.0275 -0.0458  0.7885
 7732SOL    HW134415   7.729   7.767   3.554 -0.5009 -0.0616 -1.2074
 7732SOL    HW234416   7.787   7.628   3.491 -1.9100 -0.9756 -0.5175
 7733SOL     OW34417   2.686   5.906   5.665 -0.3714 -0.2414 -0.1000
 7733SOL    HW134418   2.756   5.848   5.622  0.1211 -0.1515  0.5656
 7733SOL    HW234419   2.595   5.871   5.642 -0.1368  0.2410 -1.8186
 7734SOL     OW34420   8.570   7.459   1.615  0.4777 -0.1253  0.4772
 7734SOL    HW134421   8.613   7.483   1.701 -1.5674  1.5928  1.0428
 7734SOL    HW234422   8.572   7.359   1.604 -0.7125 -0.5094  3.3076
 7735SOL     OW34423   3.453   6.950   2.854 -0.0910  0.0231  0.5773
 7735SOL    HW134424   3.443   6.951   2.953  1.0892  1.0765  0.6996
 7735SOL    HW234425   3.484   7.040   2.823  1.6499 -0.9235 -0.5141
 7736SOL     OW34426   8.660   7.631   0.919 -0.5120 -0.0556 -0.4384
 7736SOL    HW134427   8.561   7.623   0.930 -0.4770  0.6167  0.4474
 7736SOL    HW234428   8.705   7.612   1.007  0.2511 -2.0402 -1.2333
 7737SOL     OW34429   0.570   7.830   6.476 -0.8599 -0.0913 -0.4149
 7737SOL    HW134430   0.603   7.891   6.404  1.0632 -2.3272 -1.5028
 7737SOL    HW234431   0.507   7.763   6.438  1.2468 -2.1735 -0.3792
 7738SOL     OW34432   1.745   6.132   5.394 -0.1653  0.0382  0.2597
 7738SOL    HW134433   1.769   6.148   5.298 -0.9220 -1.2250 -0.1368
 7738SOL    HW234434   1.690   6.209   5.427 -0.5442  0.1133 -0.5324
 7739SOL     OW34435   0.020   4.517   0.441 -0.9534  0.4088  0.1253
 7739SOL    HW134436   0.021   4.595   0.503 -1.3548  0.3277  0.2386
 7739SOL    HW234437  -0.016   4.545   0.352 -0.6827  0.4528  0.0302
 7740SOL     OW34438   8.680   5.048   3.752  0.0333  0.0870 -0.6144
 7740SOL    HW134439   8.755   4.995   3.712 -1.2751 -2.1008 -0.2084
 7740SOL    HW234440   8.683   5.041   3.851  0.5072  1.7291 -0.4892
 7741SOL     OW34441   2.032   0.259   2.684 -0.4397 -0.8869 -0.4315
 7741SOL    HW134442   2.062   0.170   2.647 -0.6742 -1.1431 -0.0072
 7741SOL    HW234443   2.014   0.322   2.608  0.0921 -1.0831 -0.7255
 7742SOL     OW34444   9.872   5.988   0.908  0.6495 -0.5482  0.2174
 7742SOL    HW134445   9.958   6.012   0.863  0.7517  0.9407  1.1975
 7742SOL    HW234446   9.886   5.983   1.007  0.0291 -2.1360  0.2473
 7743SOL     OW34447   1.339   9.806   4.461 -1.2235  0.2351 -0.8210
 7743SOL    HW134448   1.343   9.838   4.556 -0.1471  0.4856 -0.9408
 7743SOL    HW234449   1.291   9.718   4.458  0.0573 -0.5252  0.1736
 7744SOL     OW34450   1.558   5.656   4.852 -0.1932 -0.5584  0.0809
 7744SOL    HW134451   1.530   5.731   4.912 -1.7493  0.7845 -2.2471
 7744SOL    HW234452   1.556   5.687   4.757  1.3482 -2.9086 -0.7525
 7745SOL     OW34453   9.577   3.309   4.629 -0.2320 -0.8048 -0.3373
 7745SOL    HW134454   9.490   3.352   4.653  0.9644  0.4001  1.9775
 7745SOL    HW234455   9.570   3.210   4.640 -1.3670 -0.7346 -0.3844
 7746SOL     OW34456   1.453   3.475   4.133  0.3296  0.3640  0.0132
 7746SOL    HW134457   1.506   3.398   4.097 -0.4049  0.4186 -1.1815
 7746SOL    HW234458   1.471   3.556   4.078 -1.3054  0.2849 -0.6666
 7747SOL     OW34459   8.637   7.744   6.173  0.2082  0.4368 -0.1614
 7747SOL    HW134460   8.648   7.651   6.209  0.7382  0.4070 -0.3835
 7747SOL    HW234461   8.557   7.787   6.214 -0.0857 -0.1477 -0.1140
 7748SOL     OW34462   8.504   8.542   3.418  0.3602  0.1932 -0.0992
 7748SOL    HW134463   8.421   8.488   3.428 -1.4464  2.7945 -0.5456
 7748SOL    HW234464   8.554   8.544   3.504 -0.8148 -0.1757  0.5929
 7749SOL     OW34465   1.278   8.084   5.960 -0.5216 -0.0083 -0.0789
 7749SOL    HW134466   1.313   8.008   6.014 -0.2209 -1.4285 -2.2290
 7749SOL    HW234467   1.179   8.075   5.948 -0.3063 -0.7092 -1.3401
 7750SOL     OW34468   2.476   4.946   6.063 -0.2055  0.2545  0.0461
 7750SOL    HW134469   2.480   4.847   6.081 -0.5523  0.3105  0.4412
 7750SOL    HW234470   2.393   4.967   6.011 -0.0633  0.3176 -0.1535
 7751SOL     OW34471   5.004   8.978   6.133  0.0835  0.2189  0.1736
 7751SOL    HW134472   5.054   8.939   6.210  0.6829  1.8459  0.6359
 7751SOL    HW234473   5.066   8.993   6.056  0.0581  1.0271  0.2991
 7752SOL     OW34474   9.809   9.172   1.045  0.2012  0.0398 -0.4261
 7752SOL    HW134475   9.788   9.219   1.130  1.2945 -2.8692  1.5350
 7752SOL    HW234476   9.896   9.205   1.009 -0.1104  1.0546 -0.2698
 7753SOL     OW34477   3.453   8.179   2.061  0.4621 -0.0962  0.3946
 7753SOL    HW134478   3.543   8.222   2.055 -0.2658  1.4355  0.2599
 7753SOL    HW234479   3.428   8.170   2.158  0.3575  0.3374  0.4093
 7754SOL     OW34480   7.679   5.456   5.437 -0.0465 -0.2460 -0.3713
 7754SOL    HW134481   7.770   5.432   5.404  0.1690  0.0942 -0.0237
 7754SOL    HW234482   7.686   5.526   5.508 -0.5804 -0.1834 -0.3745
 7755SOL     OW34483   0.761   1.982   0.541  0.4655  0.1863 -0.1637
 7755SOL    HW134484   0.709   1.906   0.581  1.3326  0.4336  1.4618
 7755SOL    HW234485   0.747   1.983   0.442  1.0664 -2.6021 -0.3289
 7756SOL     OW34486   7.745   3.095   5.655 -0.4358 -0.7187 -0.4862
 7756SOL    HW134487   7.748   3.008   5.705 -0.7771 -0.7576 -0.5358
 7756SOL    HW234488   7.719   3.077   5.560 -1.3577 -0.4665 -0.2850
 7757SOL     OW34489   7.693   0.432   4.281 -0.4910  0.4475 -0.2124
 7757SOL    HW134490   7.713   0.522   4.241  0.4492  0.4941  0.3538
 7757SOL    HW234491   7.596   0.428   4.307 -0.6513  1.1146 -0.6901
 7758SOL     OW34492   6.849   8.713   3.432  0.1842  0.2228  0.4058
 7758SOL    HW134493   6.777   8.757   3.485  0.7187  2.2916 -0.5227
 7758SOL    HW234494   6.862   8.762   3.345  1.3997 -1.2635 -0.2930
 7759SOL     OW34495   9.599   7.758   1.907 -0.3398  0.7732 -0.1630
 7759SOL    HW134496   9.615   7.796   1.816  0.9695 -0.3446 -0.4159
 7759SOL    HW234497   9.536   7.680   1.900  0.2471  0.2977 -0.2049
 7760SOL     OW34498   9.163   6.096   4.692  0.3043  0.1291  0.0168
 7760SOL    HW134499   9.249   6.045   4.696 -0.3742 -0.9136  2.0955
 7760SOL    HW234500   9.161   6.152   4.609  2.9169  0.0621 -0.1350
 7761SOL     OW34501   3.047   3.656   1.656  0.0721  0.3190 -0.6611
 7761SOL    HW134502   3.073   3.714   1.733  1.3088  0.2594 -1.0284
 7761SOL    HW234503   3.105   3.575   1.653 -0.9474 -0.4164 -0.7807
 7762SOL     OW34504   9.462   4.137   4.190 -0.5696  0.0935  0.5353
 7762SOL    HW134505   9.402   4.067   4.229  0.7312 -2.0769 -1.2534
 7762SOL    HW234506   9.551   4.134   4.235  0.3547 -1.2285 -1.3088
 7763SOL     OW34507   4.995   8.251   3.409  0.3443  0.0901  0.3341
 7763SOL    HW134508   4.939   8.168   3.414  0.6804 -0.2261 -1.0136
 7763SOL    HW234509   4.955   8.322   3.467 -1.3113 -0.2241 -0.4141
 7764SOL     OW34510   4.367   1.254   5.755  0.1133 -0.7173 -0.7737
 7764SOL    HW134511   4.429   1.180   5.731  0.9714  0.5421 -2.5160
 7764SOL    HW234512   4.417   1.327   5.801 -0.6668 -1.0284  0.6161
 7765SOL     OW34513   2.572   1.544   2.519 -0.0044  0.0606 -0.3962
 7765SOL    HW134514   2.519   1.628   2.530  0.5791  0.4235 -0.3346
 7765SOL    HW234515   2.582   1.525   2.421  0.5816  0.5295 -0.4338
 7766SOL     OW34516   1.562   9.798   0.451 -0.0052  0.4333  0.0633
 7766SOL    HW134517   1.537   9.882   0.500  0.3490 -0.1592  1.2775
 7766SOL    HW234518   1.608   9.822   0.366 -1.8188  1.4970 -0.6492
 7767SOL     OW34519   1.972   2.185   6.640 -0.1213 -0.0964 -0.7144
 7767SOL    HW134520   1.888   2.205   6.690  0.0095  2.0867 -1.3197
 7767SOL    HW234521   2.045   2.248   6.671  0.8103 -0.8184 -1.4161
 7768SOL     OW34522   3.403   6.297   6.659  0.0384  0.3217 -0.6189
 7768SOL    HW134523   3.416   6.318   6.756 -1.7278 -0.7156 -0.1331
 7768SOL    HW234524   3.382   6.200   6.648 -1.8840  0.8552 -1.8335
 7769SOL     OW34525   1.177   5.111   2.627  0.0179  0.2748  0.2809
 7769SOL    HW134526   1.148   5.078   2.717 -1.4617  0.8052  0.0152
 7769SOL    HW234527   1.244   5.048   2.588 -0.5081 -0.7928  1.0757
 7770SOL     OW34528   1.794   6.196   2.295  0.0730 -0.7856  0.0249
 7770SOL    HW134529   1.880   6.150   2.271  0.1314 -0.8374  0.3339
 7770SOL    HW234530   1.766   6.170   2.387  0.7404  0.7435  0.6795
 7771SOL     OW34531   1.305   8.806   5.853  0.2180  0.0652 -0.1159
 7771SOL    HW134532   1.364   8.786   5.931 -0.1908 -0.1592  0.1357
 7771SOL    HW234533   1.210   8.789   5.877  0.1358 -0.5634 -0.8348
 7772SOL     OW34534   3.799   1.755   1.434  0.1569  0.2275 -0.2076
 7772SOL    HW134535   3.757   1.730   1.347 -0.0791  0.5009 -0.1742
 7772SOL    HW234536   3.898   1.746   1.427  0.0099 -1.6956  0.1321
 7773SOL     OW34537   9.269   7.383   5.009  0.8107 -0.1027  0.4687
 7773SOL    HW134538   9.256   7.292   4.968  2.7889  0.0697 -0.6654
 7773SOL    HW234539   9.227   7.386   5.099  0.9089 -2.2269  0.6059
 7774SOL     OW34540   2.480   5.766   6.271  0.1052  0.3756 -0.4626
 7774SOL    HW134541   2.503   5.825   6.193 -0.3955  0.0212 -0.8826
 7774SOL    HW234542   2.553   5.771   6.339  0.6657  0.5012 -1.0638
 7775SOL     OW34543   9.396   7.605   4.938 -0.0674  0.3010 -0.5742
 7775SOL    HW134544   9.382   7.680   5.003 -0.8216 -0.6358  0.3615
 7775SOL    HW234545   9.347   7.524   4.970  2.3417 -1.1939 -0.5419
 7776SOL     OW34546   9.248   7.004   0.752 -0.0433  0.5051  0.7953
 7776SOL    HW134547   9.166   7.049   0.787  0.3914  2.1022 -0.2320
 7776SOL    HW234548   9.329   7.051   0.785  0.4557 -0.5521  1.1001
 7777SOL     OW34549   4.691   6.648   1.007 -0.0008 -0.4055 -0.1530
 7777SOL    HW134550   4.605   6.662   0.959 -0.6021 -0.2139  0.9444
 7777SOL    HW234551   4.709   6.728   1.066  2.0117  0.5202 -1.9779
 7778SOL     OW34552   2.008   4.558   4.940  0.2739  0.1440 -0.3026
 7778SOL    HW134553   2.058   4.478   4.974  0.6235  1.1745  1.6656
 7778SOL    HW234554   2.064   4.640   4.949 -0.3338  0.7358 -1.6744
 7779SOL     OW34555   4.174   3.149   0.258  0.0363  0.5198 -0.1814
 7779SOL    HW134556   4.274   3.149   0.256  0.0758 -2.2318  0.3094
 7779SOL    HW234557   4.143   3.157   0.353 -0.2444  1.5453 -0.3478
 7780SOL     OW34558   3.272   1.758   2.799  0.3369  0.3887  0.0251
 7780SOL    HW134559   3.195   1.784   2.856 -1.1769 -3.9936  0.1578
 7780SOL    HW234560   3.357   1.771   2.850 -0.9245 -2.5991  3.0624
 7781SOL     OW34561   8.141   1.037   5.017 -0.1714 -0.3823 -0.2823
 7781SOL    HW134562   8.219   0.990   5.057 -0.9445 -2.1435 -0.7754
 7781SOL    HW234563   8.061   1.025   5.075 -0.0413  1.6535  0.3659
 7782SOL     OW34564   9.704   7.566   6.068 -0.2109  0.1338  0.3959
 7782SOL    HW134565   9.634   7.538   6.003 -0.6207  0.3839  0.7287
 7782SOL    HW234566   9.790   7.581   6.019 -0.4492  0.0702 -0.0499
 7783SOL     OW34567   9.294   3.354   1.518  0.4399  0.1614 -0.3069
 7783SOL    HW134568   9.270   3.307   1.603  3.3433 -0.1573  0.3840
 7783SOL    HW234569   9.357   3.297   1.465  0.5450  1.3953 -1.5497
 7784SOL     OW34570   1.879   7.660   3.968  0.1690 -0.0442 -0.6065
 7784SOL    HW134571   1.962   7.687   3.919  0.4880  1.8405  0.9313
 7784SOL    HW234572   1.892   7.568   4.006  0.7638 -0.5981 -2.0937
 7785SOL     OW34573   9.055   8.521   5.742 -0.4943  0.0099 -0.0996
 7785SOL    HW134574   8.987   8.471   5.795  0.5576 -0.5985  0.7065
 7785SOL    HW234575   9.127   8.458   5.712 -0.9396  0.3904 -2.0555
 7786SOL     OW34576   0.864   5.021   5.676 -0.0405  0.3505  0.5459
 7786SOL    HW134577   0.814   4.935   5.662  1.8663 -0.4197 -1.8163
 7786SOL    HW234578   0.890   5.028   5.772  1.3082 -2.6146  0.4771
 7787SOL     OW34579   2.689   9.571   6.612 -0.4370  0.4040  0.1636
 7787SOL    HW134580   2.783   9.537   6.612  0.3131  2.4354 -0.3324
 7787SOL    HW234581   2.663   9.599   6.520 -1.1869  0.7623  0.4791
 7788SOL     OW34582   9.315   3.040   4.396 -0.3950  0.4096 -0.1062
 7788SOL    HW134583   9.388   2.971   4.397 -0.5918  0.1877 -1.0769
 7788SOL    HW234584   9.308   3.082   4.487  1.2489  0.7670 -0.1418
 7789SOL     OW34585   8.595   3.193   6.070 -0.0459  0.3891  0.0542
 7789SOL    HW134586   8.563   3.221   6.161  0.4593  1.4849 -0.1013
 7789SOL    HW234587   8.627   3.273   6.020  1.5876 -0.4800 -0.3245
 7790SOL     OW34588   4.861   8.796   6.375  0.3899 -0.0121 -0.0289
 7790SOL    HW134589   4.898   8.728   6.438 -1.4832 -0.5196  0.5791
 7790SOL    HW234590   4.789   8.754   6.320 -0.6539  1.4198  0.2121
 7791SOL     OW34591   4.426   3.237   1.284 -0.2691  0.4025  0.0966
 7791SOL    HW134592   4.428   3.197   1.376 -2.1815 -0.8785 -0.3992
 7791SOL    HW234593   4.336   3.277   1.268 -1.0538 -2.2481 -2.4152
 7792SOL     OW34594   1.663   8.642   2.453  0.0421 -0.3187 -0.0975
 7792SOL    HW134595   1.649   8.622   2.356  1.4739  0.5596 -0.5110
 7792SOL    HW234596   1.624   8.732   2.475  1.3554  0.3152 -0.3084
 7793SOL     OW34597   4.516   4.914   3.416 -0.7063 -0.4240  0.2516
 7793SOL    HW134598   4.463   4.914   3.331  0.6457  0.1123 -0.6179
 7793SOL    HW234599   4.588   4.984   3.410  0.6815 -1.7448  1.0253
 7794SOL     OW34600   4.137   0.289   5.016 -0.4455  0.0032  0.5275
 7794SOL    HW134601   4.164   0.252   4.927  0.0099 -0.5082  0.8741
 7794SOL    HW234602   4.058   0.348   5.004  0.0763  0.5452 -0.3334
 7795SOL     OW34603   7.393   9.298   3.787  0.5657  0.1594 -0.1543
 7795SOL    HW134604   7.374   9.340   3.876  2.1194 -1.0451  0.7927
 7795SOL    HW234605   7.421   9.203   3.801 -0.2366 -0.3754 -2.0367
 7796SOL     OW34606   0.757   1.422   0.812 -0.4060 -0.1564 -0.3713
 7796SOL    HW134607   0.667   1.455   0.784 -0.4152  0.5551  0.5016
 7796SOL    HW234608   0.748   1.363   0.892  0.0531  1.0890  0.6048
 7797SOL     OW34609   4.418   2.529   4.582 -1.0456 -0.3787  0.5054
 7797SOL    HW134610   4.462   2.482   4.659  0.3394  1.1150  0.6421
 7797SOL    HW234611   4.488   2.565   4.520 -2.1021  0.5136 -0.1855
 7798SOL     OW34612   2.799   6.873   1.171  0.0587 -0.0513 -0.1628
 7798SOL    HW134613   2.789   6.837   1.079 -1.8203 -1.2685  0.4890
 7798SOL    HW234614   2.896   6.881   1.194  0.5082 -1.3272 -1.6189
 7799SOL     OW34615   3.432   2.362   2.556 -0.3056  0.4001  0.1686
 7799SOL    HW134616   3.423   2.445   2.502  0.5119  0.5592  0.2725
 7799SOL    HW234617   3.349   2.349   2.611 -1.0657  0.3332 -0.9721
 7800SOL     OW34618   2.377   8.251   1.061  0.1231 -0.6839  0.1463
 7800SOL    HW134619   2.305   8.193   1.022  0.4210 -1.3267  0.5511
 7800SOL    HW234620   2.416   8.206   1.142 -0.0617  0.3537  0.8184
 7801SOL     OW34621   9.974   4.091   1.365 -0.2633  0.2345  0.9811
 7801SOL    HW134622  10.018   4.003   1.350 -0.0103  0.6617 -0.8578
 7801SOL    HW234623   9.995   4.123   1.458  2.3024 -0.1378  0.5613
 7802SOL     OW34624   2.052   3.553   2.378 -0.1625 -0.4032 -0.5576
 7802SOL    HW134625   2.099   3.488   2.439 -0.7132 -1.1649 -0.9331
 7802SOL    HW234626   1.958   3.522   2.363  0.3924 -1.0109 -2.9560
 7803SOL     OW34627   4.446   9.145   1.975 -0.1301 -0.1595  0.3041
 7803SOL    HW134628   4.496   9.061   1.955 -1.5053 -0.7052 -0.9418
 7803SOL    HW234629   4.507   9.224   1.967  1.0145 -0.9795  0.8576
 7804SOL     OW34630   9.129   5.221   0.154  0.3169 -0.1495 -0.8759
 7804SOL    HW134631   9.178   5.266   0.079 -0.1834  2.9166  0.5709
 7804SOL    HW234632   9.044   5.182   0.119 -1.2895  3.6604 -1.4977
 7805SOL     OW34633   0.253   2.832   1.720 -0.2999  0.3006 -0.5121
 7805SOL    HW134634   0.157   2.811   1.738  0.2154 -0.0622  2.1064
 7805SOL    HW234635   0.262   2.927   1.690 -1.2687  1.1426  1.7124
 7806SOL     OW34636   8.158   6.669   2.960 -0.0572  0.8310 -0.1990
 7806SOL    HW134637   8.234   6.733   2.951 -0.2715  1.1521  0.2840
 7806SOL    HW234638   8.172   6.611   3.040 -1.1062  1.9654  0.8392
 7807SOL     OW34639   7.566   3.740   5.851 -0.5642 -0.2104  0.0159
 7807SOL    HW134640   7.550   3.812   5.783 -0.3202 -0.1616  0.0104
 7807SOL    HW234641   7.605   3.660   5.805 -1.3557 -0.5505 -0.0714
 7808SOL     OW34642   3.368   3.228   5.823  0.2903  0.0521  0.5652
 7808SOL    HW134643   3.400   3.183   5.907 -2.0831 -0.5948  1.1681
 7808SOL    HW234644   3.415   3.188   5.745  0.9654 -0.8704  1.4221
 7809SOL     OW34645   6.416   1.460   2.652  0.1856  0.1067  0.1644
 7809SOL    HW134646   6.474   1.393   2.605  0.9444  0.3270  0.7751
 7809SOL    HW234647   6.463   1.494   2.733 -1.6925 -1.3639  1.9323
 7810SOL     OW34648   9.316   8.658   2.798 -0.1383 -0.1066 -0.3483
 7810SOL    HW134649   9.272   8.611   2.874 -0.4910  1.8253  0.6793
 7810SOL    HW234650   9.391   8.714   2.833 -2.6573  3.7764 -0.8445
 7811SOL     OW34651   1.097   2.920   5.023 -0.1944  0.7768 -0.3842
 7811SOL    HW134652   1.075   3.016   5.040  0.3369  0.7093  0.7144
 7811SOL    HW234653   1.190   2.914   4.986 -0.2022  0.6779 -0.3887
 7812SOL     OW34654   1.906   8.269   4.316 -0.0086 -0.4792 -0.3048
 7812SOL    HW134655   1.909   8.173   4.340 -0.8537 -0.1783  1.0687
 7812SOL    HW234656   1.912   8.279   4.217 -2.7702 -2.1285 -0.7010
 7813SOL     OW34657   2.781   0.545   3.295 -0.5484  0.1886 -0.0359
 7813SOL    HW134658   2.873   0.584   3.296 -0.6316  0.3887 -0.0828
 7813SOL    HW234659   2.756   0.521   3.201 -0.4651 -0.0541  0.0042
 7814SOL     OW34660   8.366   5.448   0.059 -0.0478  0.4686 -0.3961
 7814SOL    HW134661   8.294   5.488   0.116  0.0683  1.2207 -0.7652
 7814SOL    HW234662   8.352   5.349   0.052 -0.7369  0.5341 -0.0274
 7815SOL     OW34663   1.270   1.017   5.431 -0.1703  0.7486 -0.2066
 7815SOL    HW134664   1.216   1.070   5.365 -2.1316 -1.0353 -0.0868
 7815SOL    HW234665   1.209   0.973   5.496  1.3567 -2.2555 -0.7253
 7816SOL     OW34666   3.555   9.531   5.833  0.0027  0.7509  0.4282
 7816SOL    HW134667   3.639   9.531   5.779  0.0666  0.4314  0.5256
 7816SOL    HW234668   3.480   9.568   5.778 -0.1362 -0.4559 -0.2115
 7817SOL     OW34669   9.658   6.301   3.179 -0.4315 -0.1736  0.0619
 7817SOL    HW134670   9.729   6.232   3.167 -0.2895 -0.1841  0.9224
 7817SOL    HW234671   9.603   6.279   3.260 -0.9614  0.2248 -0.1833
 7818SOL     OW34672   2.625   6.443   3.790  0.0798 -0.1625  0.7095
 7818SOL    HW134673   2.552   6.461   3.724  0.4644  0.5022  0.4633
 7818SOL    HW234674   2.603   6.489   3.876  0.5914  0.7088  0.3837
 7819SOL     OW34675   1.111   0.785   2.879 -0.2192 -0.0547 -0.2496
 7819SOL    HW134676   1.105   0.705   2.939 -1.8804  0.1371 -0.1540
 7819SOL    HW234677   1.041   0.851   2.904  3.0433  2.8345  1.6369
 7820SOL     OW34678   4.812   1.863   1.740 -0.1967  0.6284 -0.5235
 7820SOL    HW134679   4.863   1.783   1.773  0.5134  1.3869  0.2380
 7820SOL    HW234680   4.752   1.896   1.812 -1.1809  0.2372 -1.1472
 7821SOL     OW34681   4.311   7.479   5.368 -0.1628 -0.2139 -0.7225
 7821SOL    HW134682   4.407   7.503   5.382  0.0361 -1.2491 -0.2369
 7821SOL    HW234683   4.299   7.438   5.278 -0.4754  1.5449 -1.4920
 7822SOL     OW34684   0.636   3.055   1.038  0.3809 -0.0066  0.3912
 7822SOL    HW134685   0.598   2.968   1.005  1.5836 -0.5623  0.4656
 7822SOL    HW234686   0.726   3.039   1.078 -0.1344  0.9912  2.0067
 7823SOL     OW34687   2.799   0.914   3.994 -0.1992  0.1319  0.3762
 7823SOL    HW134688   2.704   0.889   3.980 -0.6735  0.5100  2.6539
 7823SOL    HW234689   2.857   0.861   3.932 -1.8658 -0.1870 -0.9489
 7824SOL     OW34690   1.134   8.399   0.473  0.0560  0.4034  0.4135
 7824SOL    HW134691   1.175   8.485   0.506  0.6621  0.7400 -1.1271
 7824SOL    HW234692   1.102   8.412   0.379  1.9156 -1.6121 -0.5368
 7825SOL     OW34693   9.601   5.707   6.007  0.2401  0.5670  0.0690
 7825SOL    HW134694   9.592   5.686   5.909  2.3101 -0.6745  0.1366
 7825SOL    HW234695   9.579   5.804   6.022  1.4953  1.1687 -1.8545
 7826SOL     OW34696   3.694   6.464   5.227 -0.1369  0.1195 -0.0194
 7826SOL    HW134697   3.683   6.414   5.141  0.1764 -1.6512  0.9383
 7826SOL    HW234698   3.773   6.427   5.277 -0.2303  1.2251  0.9540
 7827SOL     OW34699   8.412   2.509   4.440  0.4476 -0.3201  0.3495
 7827SOL    HW134700   8.451   2.530   4.351  0.5509  0.0656  0.4834
 7827SOL    HW234701   8.383   2.413   4.443  1.4045 -0.6172  0.2525
 7828SOL     OW34702   4.521   7.840   4.976 -0.5899  0.3787  0.0264
 7828SOL    HW134703   4.528   7.887   5.064 -0.3458  2.1144 -0.8975
 7828SOL    HW234704   4.599   7.779   4.965 -0.9904 -0.3904  1.3095
 7829SOL     OW34705   1.859   3.417   0.439  0.0443  0.0899 -0.1076
 7829SOL    HW134706   1.924   3.493   0.434  0.3949 -0.1597  0.6123
 7829SOL    HW234707   1.890   3.350   0.507 -2.3895  1.3559  2.3684
 7830SOL     OW34708   9.767   0.229   3.321 -0.5784  0.1233 -0.0841
 7830SOL    HW134709   9.832   0.278   3.378 -0.1143  0.3296 -0.7954
 7830SOL    HW234710   9.816   0.172   3.255 -1.1133  1.6160 -1.7780
 7831SOL     OW34711   6.077   1.410   1.412 -0.9938  0.6959  0.2235
 7831SOL    HW134712   6.023   1.460   1.344  0.4996  1.2113 -0.6044
 7831SOL    HW234713   6.150   1.359   1.367 -0.5088  0.3444  1.3694
 7832SOL     OW34714   4.170   0.799   3.769 -0.0339  0.2467  0.6314
 7832SOL    HW134715   4.094   0.865   3.775 -1.2443 -1.1362  0.6989
 7832SOL    HW234716   4.250   0.844   3.728 -0.7657  1.8195  0.8812
 7833SOL     OW34717   7.985   2.733   4.742 -0.8795 -0.5136  0.0415
 7833SOL    HW134718   8.067   2.680   4.759  0.5362  1.6123  0.1146
 7833SOL    HW234719   7.974   2.747   4.643  0.3653  1.4258  0.1436
 7834SOL     OW34720   2.336   7.905   4.921  0.2264  0.2015  0.5396
 7834SOL    HW134721   2.353   8.000   4.894 -2.7399  0.9063  0.9811
 7834SOL    HW234722   2.312   7.852   4.840 -2.1006  0.7872  0.8154
 7835SOL     OW34723   8.887   8.590   5.514 -0.2387 -0.2093  0.4535
 7835SOL    HW134724   8.980   8.585   5.550 -0.3612 -0.8703  0.6893
 7835SOL    HW234725   8.833   8.654   5.569 -0.0395 -0.1542  0.5853
 7836SOL     OW34726   2.364   8.683   0.496 -0.2933  0.2086 -0.3442
 7836SOL    HW134727   2.461   8.688   0.522 -0.3146 -2.6334  0.4684
 7836SOL    HW234728   2.356   8.702   0.398  1.0104  1.1393 -0.2840
 7837SOL     OW34729   3.333   9.111   0.728 -0.1517  0.0760 -0.6008
 7837SOL    HW134730   3.252   9.104   0.786 -0.2834 -0.9849 -0.9018
 7837SOL    HW234731   3.404   9.162   0.776 -0.7798  0.4887 -0.0972
 7838SOL     OW34732   3.898   2.281   3.361  0.2506  0.3168  0.7609
 7838SOL    HW134733   3.991   2.310   3.384  0.0877  0.4600  1.2476
 7838SOL    HW234734   3.856   2.237   3.440  0.1063 -0.2683  0.3590
 7839SOL     OW34735   1.185   3.538   0.913 -0.5725 -0.0321  0.3182
 7839SOL    HW134736   1.223   3.446   0.926 -0.1822  0.3219  1.7846
 7839SOL    HW234737   1.218   3.575   0.826  3.0624  0.5320  1.8533
 7840SOL     OW34738   6.051   9.670   2.413  0.5303 -0.6182  0.6133
 7840SOL    HW134739   6.111   9.734   2.365 -0.7307  0.1059 -0.0435
 7840SOL    HW234740   5.996   9.621   2.346 -0.3149 -0.5430  1.2496
 7841SOL     OW34741   9.754   5.868   4.512 -0.2590 -0.2677  0.4295
 7841SOL    HW134742   9.657   5.886   4.523  0.2776  2.1261  1.7937
 7841SOL    HW234743   9.769   5.810   4.432 -2.8500 -1.4404  0.7619
 7842SOL     OW34744   7.871   3.331   5.503 -0.2579  0.0053  0.3359
 7842SOL    HW134745   7.815   3.343   5.585 -0.7297  0.2931 -0.0242
 7842SOL    HW234746   7.898   3.236   5.494  0.6902  0.1679  1.4034
 7843SOL     OW34747   1.422   8.190   0.340 -0.5839 -0.0413 -0.7751
 7843SOL    HW134748   1.485   8.262   0.309  0.4861 -0.0944  1.2104
 7843SOL    HW234749   1.465   8.101   0.327  0.0776 -0.0401  1.2455
 7844SOL     OW34750   8.442   4.301   1.015  0.4203 -0.8092  0.2090
 7844SOL    HW134751   8.452   4.353   0.930 -1.9155 -1.5299 -0.5580
 7844SOL    HW234752   8.387   4.355   1.079  0.3442 -1.1694  0.4417
 7845SOL     OW34753   8.983   4.907   5.672 -0.3094 -0.1364  0.1028
 7845SOL    HW134754   8.993   4.935   5.768  0.1519  1.0259 -0.2733
 7845SOL    HW234755   8.891   4.872   5.657 -0.3864 -0.3227  0.9691
 7846SOL     OW34756   4.336   1.954   1.970 -0.1955 -0.2085  0.2496
 7846SOL    HW134757   4.249   1.910   1.994 -0.8152  1.6953  1.6079
 7846SOL    HW234758   4.393   1.962   2.051 -0.2639  1.8130  0.1142
 7847SOL     OW34759   7.780   4.843   5.646  0.1607  0.5309  0.2679
 7847SOL    HW134760   7.871   4.802   5.643 -0.2601 -0.4854  0.8419
 7847SOL    HW234761   7.757   4.880   5.556 -0.1361 -2.0827 -0.7863
 7848SOL     OW34762   8.810   6.644   4.584  0.7047 -0.8836 -0.7146
 7848SOL    HW134763   8.845   6.553   4.605 -1.3951 -1.3316  1.0068
 7848SOL    HW234764   8.773   6.645   4.491  1.0309 -1.6969 -0.8565
 7849SOL     OW34765   7.614   1.150   2.732 -0.0074 -0.0144 -0.3437
 7849SOL    HW134766   7.610   1.053   2.708 -1.3115  0.2476 -1.2494
 7849SOL    HW234767   7.561   1.203   2.666  0.4032  1.2763  0.3463
 7850SOL     OW34768   4.278   2.910   5.903  0.0917 -0.0251 -0.3617
 7850SOL    HW134769   4.312   2.817   5.889 -0.0172 -0.1955  0.4879
 7850SOL    HW234770   4.253   2.950   5.815 -0.2995 -0.9683 -0.6888
 7851SOL     OW34771   2.434   2.578   0.629 -0.0695 -0.4016 -0.1042
 7851SOL    HW134772   2.379   2.661   0.617 -0.2667 -0.4886  0.1809
 7851SOL    HW234773   2.405   2.510   0.562 -0.3134 -0.4483  0.0476
 7852SOL     OW34774   3.101   9.254   6.634  0.3049  0.4138  0.1786
 7852SOL    HW134775   3.160   9.333   6.652  0.6118  0.0659  0.7054
 7852SOL    HW234776   3.154   9.180   6.594  0.0445  0.4255 -0.1867
 7853SOL     OW34777   3.881   9.587   4.192  0.3490  0.2164 -0.5177
 7853SOL    HW134778   3.813   9.641   4.242 -0.2220 -0.4223 -0.5953
 7853SOL    HW234779   3.973   9.612   4.224  0.1355  1.7799 -1.1022
 7854SOL     OW34780   4.148   1.791   5.643  0.2374  0.1567 -0.1120
 7854SOL    HW134781   4.127   1.739   5.560  0.6865  1.2556 -0.9196
 7854SOL    HW234782   4.077   1.859   5.658  0.0821 -0.1377  0.4920
 7855SOL     OW34783   1.251   6.625   2.095  0.5995  0.5005 -0.0543
 7855SOL    HW134784   1.334   6.571   2.113  0.7645  0.3729 -1.1725
 7855SOL    HW234785   1.215   6.660   2.181  0.0704 -2.0347  0.7962
 7856SOL     OW34786   8.592   4.270   5.153  0.0986  0.6036  0.1490
 7856SOL    HW134787   8.513   4.216   5.183  0.0498 -0.1308 -1.2163
 7856SOL    HW234788   8.563   4.332   5.080  0.1423  2.5533  1.7658
 7857SOL     OW34789   8.473   2.092   3.421 -0.2586  0.7089  0.5009
 7857SOL    HW134790   8.423   2.169   3.460 -0.5072  0.7679  0.0652
 7857SOL    HW234791   8.571   2.111   3.425 -0.3343  1.2267  0.0409
 7858SOL     OW34792   1.692   2.854   5.071  0.2889  0.4953  0.2867
 7858SOL    HW134793   1.619   2.891   5.013 -0.8536  0.1737  1.4992
 7858SOL    HW234794   1.750   2.794   5.017 -1.5218 -0.8220 -0.2434
 7859SOL     OW34795   3.571   9.115   4.124 -0.3317  0.7284  0.6700
 7859SOL    HW134796   3.558   9.037   4.185  1.4324 -2.0342 -2.3355
 7859SOL    HW234797   3.492   9.123   4.064  0.8601 -0.7965 -1.1563
 7860SOL     OW34798   0.985   7.889   1.703  0.2178  0.3954  0.5493
 7860SOL    HW134799   1.046   7.961   1.736 -0.9068  0.7432  1.9555
 7860SOL    HW234800   1.038   7.813   1.667  1.4568  2.8608 -3.1670
 7861SOL     OW34801   6.113   8.850   3.724 -0.0934 -0.1543 -0.1188
 7861SOL    HW134802   6.156   8.933   3.687 -1.0814 -0.6628 -2.5222
 7861SOL    HW234803   6.143   8.837   3.819  3.0960  0.8309 -0.9033
 7862SOL     OW34804   1.692   9.885   2.103  0.0964 -0.1308  0.4089
 7862SOL    HW134805   1.622   9.889   2.031  1.1582 -0.6732 -0.6680
 7862SOL    HW234806   1.647   9.885   2.193 -1.4083 -2.3681 -0.2902
 7863SOL     OW34807   8.764   3.206   6.655 -0.3521  0.2151  0.3779
 7863SOL    HW134808   8.862   3.211   6.639 -0.1621  1.7914  1.8590
 7863SOL    HW234809   8.719   3.166   6.575  1.2725  1.2246 -1.0851
 7864SOL     OW34810   0.367   4.745   6.268  0.3513 -0.6186 -0.7806
 7864SOL    HW134811   0.356   4.712   6.174  1.1155 -1.5382 -0.5489
 7864SOL    HW234812   0.464   4.756   6.288  0.2193 -1.1619  0.1550
 7865SOL     OW34813   7.418   0.443   0.192 -0.1111 -0.4836  0.2162
 7865SOL    HW134814   7.486   0.409   0.257  1.1602  1.9431  0.2211
 7865SOL    HW234815   7.417   0.543   0.194 -2.6555 -0.4545 -0.8680
 7866SOL     OW34816   1.583   6.135   1.561  0.1556 -0.0669  0.2863
 7866SOL    HW134817   1.530   6.051   1.557  1.5827 -0.9005 -1.3882
 7866SOL    HW234818   1.679   6.113   1.575  0.7765  1.2047 -1.8956
 7867SOL     OW34819   4.370   6.302   0.901  0.0150 -0.0452 -0.4025
 7867SOL    HW134820   4.468   6.300   0.885  0.2708 -0.9610  1.1882
 7867SOL    HW234821   4.344   6.226   0.962 -1.7412 -0.1099 -1.1821
 7868SOL     OW34822   4.143   6.383   1.266  0.0461 -0.2811  0.2620
 7868SOL    HW134823   4.175   6.411   1.176 -3.1252 -0.1381 -0.8799
 7868SOL    HW234824   4.137   6.463   1.326 -0.3654  0.0422 -0.2099
 7869SOL     OW34825   8.156   5.843   0.102 -0.0402 -0.1620  0.4273
 7869SOL    HW134826   8.089   5.779   0.141  0.6888 -1.3251 -0.2022
 7869SOL    HW234827   8.118   5.884   0.020 -1.2837  1.7241  1.8984
 7870SOL     OW34828   8.682   5.031   4.011  0.2018 -0.5208 -0.1734
 7870SOL    HW134829   8.637   4.942   4.019  0.8104 -0.8443 -0.2953
 7870SOL    HW234830   8.627   5.101   4.057 -0.2325 -0.9765  0.0033
 7871SOL     OW34831   2.644   4.614   3.837  0.0128 -0.4604  0.4289
 7871SOL    HW134832   2.551   4.576   3.836 -0.4855  0.6508  1.6932
 7871SOL    HW234833   2.679   4.613   3.931  0.5157  0.8843  0.2758
 7872SOL     OW34834   4.021   0.745   6.699 -0.3602 -0.0768  0.9302
 7872SOL    HW134835   3.984   0.816   6.638 -1.4670 -0.2715  1.3627
 7872SOL    HW234836   4.109   0.714   6.664 -1.0834 -0.3282 -0.6881
 7873SOL     OW34837   0.886   8.133   1.496 -0.2051  0.0501 -0.2727
 7873SOL    HW134838   0.902   8.137   1.397 -1.0104  1.0558 -0.3641
 7873SOL    HW234839   0.974   8.134   1.543  0.1362  1.1325 -0.9253
 7874SOL     OW34840   0.114   5.529   5.364 -0.4102  0.1302  0.8039
 7874SOL    HW134841   0.034   5.495   5.413 -0.1403 -0.3156  0.9377
 7874SOL    HW234842   0.190   5.539   5.427  0.0171 -0.7063  0.4357
 7875SOL     OW34843   0.197   4.963   4.165  0.0287  0.6552 -0.1437
 7875SOL    HW134844   0.202   5.000   4.257  4.0217 -0.2185  0.0704
 7875SOL    HW234845   0.225   5.033   4.099  1.5746 -0.0292 -0.2527
 7876SOL     OW34846   7.105   1.075   0.722  0.0603  0.0319 -0.4277
 7876SOL    HW134847   7.020   1.080   0.669 -1.2794 -5.8126  0.7864
 7876SOL    HW234848   7.179   1.045   0.663  0.5413  1.7617 -0.7309
 7877SOL     OW34849   4.163   0.784   0.931  0.3929 -0.8553 -0.0036
 7877SOL    HW134850   4.116   0.736   1.005  0.5209  1.4882  1.6358
 7877SOL    HW234851   4.118   0.871   0.913  0.5772 -1.2257 -2.4798
 7878SOL     OW34852   5.405   9.357   6.500  0.2273 -0.0795 -0.6182
 7878SOL    HW134853   5.389   9.292   6.574 -1.2538  0.4468 -0.4532
 7878SOL    HW234854   5.503   9.363   6.481  0.3133 -3.2971 -1.5003
 7879SOL     OW34855   9.143   5.416   3.433 -0.1556 -0.1021  0.6793
 7879SOL    HW134856   9.093   5.331   3.448  0.7069 -0.9832 -1.2589
 7879SOL    HW234857   9.079   5.488   3.405 -0.6497 -0.5566  0.6344
 7880SOL     OW34858   0.152   3.033   5.409  0.0714 -0.1491 -0.0204
 7880SOL    HW134859   0.184   3.107   5.468 -0.7476 -0.2940  0.6088
 7880SOL    HW234860   0.104   2.964   5.463 -0.7682 -0.2431 -0.8576
 7881SOL     OW34861   5.452   0.600   2.309  0.0753 -0.4508  0.2937
 7881SOL    HW134862   5.489   0.547   2.234 -1.4694  3.0444 -3.1138
 7881SOL    HW234863   5.365   0.561   2.338 -0.1855 -0.8259 -0.9737
 7882SOL     OW34864   5.285   0.541   2.717  0.4830  0.5472 -0.6524
 7882SOL    HW134865   5.336   0.461   2.687 -1.6652 -0.6542 -1.1990
 7882SOL    HW234866   5.249   0.524   2.809  1.3557  1.5443 -0.1100
 7883SOL     OW34867   9.903   8.952   0.669 -1.0681 -0.2341  0.2232
 7883SOL    HW134868   9.898   8.852   0.670 -2.3587 -0.1623  1.0464
 7883SOL    HW234869   9.969   8.983   0.737 -1.1535 -0.4936  0.4239
 7884SOL     OW34870   9.689   6.566   0.112  0.0880  0.3945  0.0676
 7884SOL    HW134871   9.599   6.528   0.091 -1.1942  2.6724  1.2822
 7884SOL    HW234872   9.739   6.502   0.171 -0.6989 -0.8881 -0.6267
 7885SOL     OW34873   7.656   5.981   5.541 -0.2752 -0.0868 -0.0645
 7885SOL    HW134874   7.568   5.993   5.493 -0.3135 -0.0409  0.0162
 7885SOL    HW234875   7.646   6.012   5.636 -0.0725  0.2623 -0.1553
 7886SOL     OW34876   0.579   4.627   0.131 -0.1279 -0.2043  0.2930
 7886SOL    HW134877   0.501   4.603   0.074 -0.8515 -2.6759  2.2171
 7886SOL    HW234878   0.662   4.584   0.095 -0.1681  0.0504 -0.1095
 7887SOL     OW34879   9.468   5.825   4.526 -0.5456  0.3979 -0.5498
 7887SOL    HW134880   9.390   5.769   4.553  1.5346 -2.4215 -0.1903
 7887SOL    HW234881   9.469   5.836   4.427 -0.9002 -0.3331 -0.6337
 7888SOL     OW34882   1.332   6.254   5.221  0.2010 -0.1285  0.3165
 7888SOL    HW134883   1.352   6.293   5.311  0.1713  1.8548 -0.5035
 7888SOL    HW234884   1.251   6.196   5.227 -0.9340  1.4956  1.2067
 7889SOL     OW34885   2.702   0.199   4.426 -0.3155 -0.0799 -0.4681
 7889SOL    HW134886   2.740   0.292   4.426  3.0393 -1.3834 -2.2155
 7889SOL    HW234887   2.658   0.181   4.338  1.4604 -1.0522 -1.1791
 7890SOL     OW34888   6.560   1.023   6.127  0.0790  0.4403 -0.6560
 7890SOL    HW134889   6.580   1.118   6.152 -0.7744  0.5100 -0.2561
 7890SOL    HW234890   6.548   1.017   6.028  0.3962  0.6941 -0.7132
 7891SOL     OW34891   1.847   5.402   1.377  0.0735  0.2043 -0.2756
 7891SOL    HW134892   1.796   5.430   1.458  1.4386 -0.8675  1.0014
 7891SOL    HW234893   1.784   5.383   1.302 -1.6427 -3.2722  1.9016
 7892SOL     OW34894   9.266   4.442   5.327  0.1915 -0.4201 -0.0036
 7892SOL    HW134895   9.323   4.360   5.322  0.3735 -0.2663 -0.5516
 7892SOL    HW234896   9.170   4.417   5.336  0.2828 -0.6890  0.2090
 7893SOL     OW34897   3.536   8.034   4.921  0.0724  0.2934  0.2555
 7893SOL    HW134898   3.626   8.027   4.878 -0.0975 -1.5634  0.1747
 7893SOL    HW234899   3.470   7.979   4.870 -0.6222 -0.1387  1.5833
 7894SOL     OW34900   8.816   0.140   2.005  0.2942 -0.2796  0.5595
 7894SOL    HW134901   8.724   0.127   2.044  0.4379  1.1042  1.3801
 7894SOL    HW234902   8.847   0.233   2.024  0.8700  0.0423 -1.8296
 7895SOL     OW34903   1.016   4.065   5.960  0.1333  0.2498 -0.4726
 7895SOL    HW134904   1.012   4.023   6.051  0.9719 -1.0937 -1.0460
 7895SOL    HW234905   0.928   4.108   5.939 -0.3560 -0.2172  0.5955
 7896SOL     OW34906   9.862   2.709   3.809  0.4910 -0.7926  0.3280
 7896SOL    HW134907   9.854   2.789   3.867  0.6227 -0.0130 -0.7213
 7896SOL    HW234908   9.771   2.671   3.791  0.2516  0.2134 -0.6716
 7897SOL     OW34909   0.890   6.783   3.028 -0.5383  0.3427  0.4651
 7897SOL    HW134910   0.989   6.777   3.040 -0.7847 -0.2248  2.3243
 7897SOL    HW234911   0.855   6.856   3.086 -1.2952  0.1265  0.2770
 7898SOL     OW34912   7.547   0.709   3.832 -0.0935 -0.0468  0.0255
 7898SOL    HW134913   7.564   0.611   3.827 -2.6873 -0.6010  0.9965
 7898SOL    HW234914   7.493   0.738   3.754  0.3558  0.5456 -0.0692
 7899SOL     OW34915   4.195   4.627   6.642  0.3590 -0.3638  0.7765
 7899SOL    HW134916   4.124   4.674   6.695 -0.4803 -0.2389 -0.4236
 7899SOL    HW234917   4.179   4.528   6.646 -1.6223 -0.2175 -1.7988
 7900SOL     OW34918   1.879   9.699   0.129 -0.5886  0.3942  0.2683
 7900SOL    HW134919   1.823   9.756   0.069  1.9916  0.7363 -1.9424
 7900SOL    HW234920   1.852   9.603   0.117 -2.1368  0.7473  0.8606
 7901SOL     OW34921   6.057   0.640   3.709 -0.3849  0.1685 -0.2373
 7901SOL    HW134922   6.140   0.600   3.671 -0.5574 -2.2567  1.7510
 7901SOL    HW234923   5.979   0.618   3.650 -0.1704 -0.7932 -0.1758
 7902SOL     OW34924   7.298   0.758   1.531  0.0021 -0.4523 -0.1308
 7902SOL    HW134925   7.228   0.751   1.603 -0.6357 -1.8723 -0.8567
 7902SOL    HW234926   7.365   0.827   1.557 -0.9349 -0.0075  1.2150
 7903SOL     OW34927   4.418   3.559   5.529 -0.2414  0.1072 -0.0801
 7903SOL    HW134928   4.430   3.649   5.570 -0.5635 -0.7373  1.9473
 7903SOL    HW234929   4.507   3.513   5.522 -0.0441  0.6558 -1.3397
 7904SOL     OW34930   7.922   1.601   2.525 -0.1936  0.2960 -0.0454
 7904SOL    HW134931   7.940   1.650   2.440  2.1548 -0.2754  0.0877
 7904SOL    HW234932   7.862   1.522   2.507 -1.3532  1.3297 -0.7938
 7905SOL     OW34933   3.573   6.097   5.496 -0.5602 -0.0761  0.5337
 7905SOL    HW134934   3.516   6.138   5.425  1.1710 -0.1094 -0.9246
 7905SOL    HW234935   3.632   6.167   5.537 -0.0719 -0.4406  0.4655
 7906SOL     OW34936   4.174   2.332   3.489 -0.1461  0.5157 -0.7666
 7906SOL    HW134937   4.144   2.344   3.583  0.6235 -0.0881 -0.4450
 7906SOL    HW234938   4.247   2.397   3.468  3.3635 -2.8369  0.6890
 7907SOL     OW34939   8.929   4.358   6.694 -0.2039 -0.1536 -0.0551
 7907SOL    HW134940   8.832   4.352   6.721 -0.3068 -0.2760 -0.4444
 7907SOL    HW234941   8.945   4.445   6.647  0.1693  0.4450  1.1559
 7908SOL     OW34942   7.196   7.785   3.273 -0.0356 -0.5327 -0.6177
 7908SOL    HW134943   7.283   7.760   3.231 -0.2551  0.5816 -1.7820
 7908SOL    HW234944   7.121   7.765   3.210 -0.3871  0.9787 -0.7039
 7909SOL     OW34945   7.897  10.004   1.700 -0.1445  0.3716  0.3145
 7909SOL    HW134946   7.851   9.915   1.693 -2.4239  1.3665  1.8657
 7909SOL    HW234947   7.963  10.013   1.626 -0.1029 -2.4754 -0.0633
 7910SOL     OW34948   3.307   8.413   2.287  0.6681  0.4013 -0.1263
 7910SOL    HW134949   3.350   8.325   2.307  1.4570  1.0346  1.0395
 7910SOL    HW234950   3.253   8.405   2.203 -1.9613 -2.0973  1.7263
 7911SOL     OW34951   0.795   0.098   1.567  0.0206 -0.5966  0.0436
 7911SOL    HW134952   0.845   0.011   1.570  1.6486  0.3418  0.8373
 7911SOL    HW234953   0.728   0.096   1.493  0.7783 -2.1342 -0.6163
 7912SOL     OW34954   2.941   0.413   1.189 -0.3661  0.0299  0.1729
 7912SOL    HW134955   3.040   0.419   1.186 -0.4362  1.0512 -0.2414
 7912SOL    HW234956   2.910   0.423   1.284 -0.1321  0.8214  0.1729
 7913SOL     OW34957   0.457   2.512   1.928 -0.3762 -1.1663  0.4789
 7913SOL    HW134958   0.528   2.444   1.907  1.3194  0.2650  1.5293
 7913SOL    HW234959   0.444   2.572   1.849  0.6824 -0.4634  0.8386
 7914SOL     OW34960   8.229   6.985   2.342 -0.4272  0.0091 -0.2337
 7914SOL    HW134961   8.243   7.041   2.424  0.0313  0.3364 -0.5363
 7914SOL    HW234962   8.206   6.892   2.370 -1.9774  0.5324  0.2732
 7915SOL     OW34963   3.272   0.432   4.431 -0.2611  0.5142  0.3289
 7915SOL    HW134964   3.256   0.429   4.332  0.5715 -4.2140  0.2038
 7915SOL    HW234965   3.357   0.481   4.450 -0.4040  1.4362 -1.2675
 7916SOL     OW34966   9.716   6.348   3.513 -0.1862 -0.1785  0.0203
 7916SOL    HW134967   9.725   6.269   3.573 -1.6387 -1.4886 -1.4516
 7916SOL    HW234968   9.770   6.334   3.430 -1.1640 -0.0183 -0.6498
 7917SOL     OW34969   9.413   0.214   1.103  0.0087  0.3575 -0.2028
 7917SOL    HW134970   9.371   0.272   1.172 -1.6754 -0.7261 -0.2910
 7917SOL    HW234971   9.345   0.151   1.066  1.3609 -0.4185 -1.4379
 7918SOL     OW34972   3.058   7.272   2.378  0.3413 -0.3032 -0.5815
 7918SOL    HW134973   3.090   7.342   2.314  0.0863 -0.7697 -1.2325
 7918SOL    HW234974   3.002   7.314   2.449  1.3389  0.3365 -0.1641
 7919SOL     OW34975   0.491   9.754   1.556  0.3067 -0.1434  0.1392
 7919SOL    HW134976   0.432   9.691   1.506 -1.4204  0.9440  0.7347
 7919SOL    HW234977   0.435   9.827   1.596  1.9621  0.4194  1.4960
 7920SOL     OW34978   1.830   1.952   5.605 -0.0749  0.0784  0.4461
 7920SOL    HW134979   1.901   1.964   5.675  0.9323 -0.4198 -0.4778
 7920SOL    HW234980   1.854   2.004   5.524 -0.9833  0.2386  0.2788
 7921SOL     OW34981   3.908   8.558   2.014  0.1569  0.4165  0.2225
 7921SOL    HW134982   3.876   8.626   1.947  0.1017 -0.5174 -0.7146
 7921SOL    HW234983   3.854   8.566   2.098 -0.4172  0.9661 -0.1974
 7922SOL     OW34984   4.539   2.351   0.885  0.2323 -0.3374 -0.1527
 7922SOL    HW134985   4.551   2.392   0.975 -1.4421  0.8918 -0.4558
 7922SOL    HW234986   4.576   2.258   0.885 -2.1759 -1.3975  2.6455
 7923SOL     OW34987   0.861   5.867   3.894  0.4294  0.3989  0.3608
 7923SOL    HW134988   0.957   5.871   3.924  0.2573  0.4962  0.9056
 7923SOL    HW234989   0.802   5.852   3.974  0.0935 -1.0512 -0.1497
 7924SOL     OW34990   5.313   0.295   5.442 -0.5750  1.2519  0.2842
 7924SOL    HW134991   5.225   0.292   5.393  0.5098 -2.1003 -1.6425
 7924SOL    HW234992   5.371   0.365   5.401 -0.3247 -0.3379 -2.2386
 7925SOL     OW34993   9.045   5.244   3.087  0.3014  0.8203  0.1319
 7925SOL    HW134994   9.062   5.212   3.180  0.6640  0.2347 -0.1292
 7925SOL    HW234995   8.947   5.243   3.068  0.4350 -2.0334 -0.5286
 7926SOL     OW34996   3.143   0.116   3.365  0.3294  0.3474 -0.4578
 7926SOL    HW134997   3.074   0.144   3.298 -0.1676  0.1813 -0.0166
 7926SOL    HW234998   3.099   0.067   3.440  0.4628  3.2698  1.5833
 7927SOL     OW34999   3.811   0.146   2.516  0.5480  0.2487  0.4695
 7927SOL    HW135000   3.856   0.213   2.457  0.3917 -0.1984 -0.1580
 7927SOL    HW235001   3.721   0.124   2.478  0.0498  0.6767  1.3865
 7928SOL     OW35002   8.744   0.068   1.567  0.2586  0.1131 -0.5418
 7928SOL    HW135003   8.794  -0.003   1.617  0.0371 -0.0275 -0.5193
 7928SOL    HW235004   8.675   0.025   1.509 -0.8150  0.3680  0.5157
 7929SOL     OW35005   7.199   2.010   1.648 -0.2440 -0.3003  0.1140
 7929SOL    HW135006   7.113   2.051   1.620 -0.7991 -1.4473  0.1296
 7929SOL    HW235007   7.263   2.008   1.571 -0.3277  0.2851  0.0289
 7930SOL     OW35008   7.430   9.416   1.586  0.0347  0.2447  0.1913
 7930SOL    HW135009   7.331   9.432   1.591  0.0148  0.0288  0.5240
 7930SOL    HW235010   7.468   9.464   1.507 -0.7274 -1.6957 -1.3879
 7931SOL     OW35011   7.904   8.112   3.000 -0.4457 -0.0321  0.5049
 7931SOL    HW135012   8.001   8.102   2.978 -0.5607  0.1808 -0.1144
 7931SOL    HW235013   7.894   8.135   3.097  0.0480 -1.4078  0.9022
 7932SOL     OW35014   2.227   7.612   4.179 -0.9177 -0.6517  0.0075
 7932SOL    HW135015   2.157   7.651   4.240 -2.0233 -1.4396 -0.7430
 7932SOL    HW235016   2.287   7.685   4.147 -1.4599  0.0555  0.5717
 7933SOL     OW35017   7.114   4.486   0.268  0.0275  0.1575  0.4274
 7933SOL    HW135018   7.069   4.453   0.185  1.0314  0.0284 -0.0621
 7933SOL    HW235019   7.059   4.559   0.308 -0.8984 -0.3585  0.1207
 7934SOL     OW35020   8.270   5.602   2.986 -0.7134  0.2452  0.2399
 7934SOL    HW135021   8.233   5.585   3.078  1.0477  0.9750  1.1078
 7934SOL    HW235022   8.213   5.556   2.918 -1.4238 -1.1962  1.7866
 7935SOL     OW35023   9.224   8.679   5.404 -0.7302  0.1639  0.3080
 7935SOL    HW135024   9.280   8.667   5.486  1.0089  2.4773 -0.4920
 7935SOL    HW235025   9.167   8.761   5.414  0.3882  1.1477 -1.2728
 7936SOL     OW35026   3.316   6.586   2.582  0.0677 -0.4361  0.3616
 7936SOL    HW135027   3.413   6.572   2.563  0.1725  0.4387  0.2210
 7936SOL    HW235028   3.304   6.673   2.629 -0.8535  0.4686 -1.4922
 7937SOL     OW35029   7.399   3.113   1.307 -0.4321  0.1175 -0.3926
 7937SOL    HW135030   7.304   3.107   1.277 -0.2491  1.0675 -1.1876
 7937SOL    HW235031   7.456   3.146   1.232  0.6826 -1.3589 -0.2088
 7938SOL     OW35032   4.309   1.377   1.612  0.5155 -0.2815  0.4606
 7938SOL    HW135033   4.346   1.353   1.702  0.7845 -0.2676  0.3547
 7938SOL    HW235034   4.362   1.331   1.541  0.6037  0.0810  0.2873
 7939SOL     OW35035   1.904   9.875   6.323 -0.0455 -0.1147  0.1079
 7939SOL    HW135036   1.940   9.820   6.247  0.0076  0.0520  0.0111
 7939SOL    HW235037   1.848   9.950   6.287 -0.5017 -0.3817  0.2596
 7940SOL     OW35038   7.302   7.608   4.963  0.1282  0.1989 -0.3739
 7940SOL    HW135039   7.313   7.671   5.039 -1.0241  0.2718 -0.2636
 7940SOL    HW235040   7.315   7.514   4.996 -0.8995  0.1915  0.0320
 7941SOL     OW35041   9.504   8.802   3.112  0.4457 -0.9442 -0.4321
 7941SOL    HW135042   9.413   8.826   3.144  0.5560  2.2071 -2.2677
 7941SOL    HW235043   9.568   8.804   3.190 -0.4710  0.0360  0.3215
 7942SOL     OW35044   9.135   2.733   2.937 -0.1525 -0.3583 -0.7185
 7942SOL    HW135045   9.225   2.767   2.910  0.9740 -0.5312  2.6408
 7942SOL    HW235046   9.079   2.809   2.969  0.3229 -0.8107  1.2472
 7943SOL     OW35047   1.440   3.596   5.445  0.1887 -0.0247  0.1408
 7943SOL    HW135048   1.461   3.668   5.379  0.5643 -0.4027 -0.1548
 7943SOL    HW235049   1.525   3.556   5.480 -0.0188 -0.8380 -0.2640
 7944SOL     OW35050   4.513   1.988   3.904  0.4874 -0.1037 -0.8280
 7944SOL    HW135051   4.508   2.049   3.825 -1.2586 -0.1956 -0.8157
 7944SOL    HW235052   4.458   1.906   3.886 -1.8779  0.9312  1.3557
 7945SOL     OW35053   8.542   4.063   0.244  0.1664  0.1558  0.2459
 7945SOL    HW135054   8.601   4.068   0.324 -0.4443 -2.7357  0.9390
 7945SOL    HW235055   8.546   3.971   0.205  0.3873  1.4662 -3.0187
 7946SOL     OW35056   3.136   7.312   1.576 -0.0832  0.4126  0.0481
 7946SOL    HW135057   3.085   7.354   1.501  1.6831  1.2504 -0.7306
 7946SOL    HW235058   3.084   7.319   1.661 -1.1807  1.3802 -0.6999
 7947SOL     OW35059   3.702   1.580   1.183  0.1968  0.2932  0.0725
 7947SOL    HW135060   3.737   1.506   1.126  4.1063  0.7746  1.6683
 7947SOL    HW235061   3.659   1.542   1.266 -0.7889 -0.2418 -0.6755
 7948SOL     OW35062   6.374   1.592   0.672 -0.5915 -0.0146  0.1731
 7948SOL    HW135063   6.466   1.624   0.695 -0.2489 -0.2324 -0.8556
 7948SOL    HW235064   6.378   1.496   0.647 -0.4800  0.8186 -3.2909
 7949SOL     OW35065   9.542   6.020   1.099  0.1203 -0.9929  0.4928
 7949SOL    HW135066   9.553   6.055   1.006  1.8350 -0.5453  0.8408
 7949SOL    HW235067   9.607   5.946   1.116  0.0833 -0.8208  1.4546
 7950SOL     OW35068   7.290   2.103   4.003  0.0687  0.0563  0.6757
 7950SOL    HW135069   7.378   2.059   4.021  0.8701  1.5218  0.4259
 7950SOL    HW235070   7.222   2.072   4.070  0.8931 -0.7031  1.1679
 7951SOL     OW35071   1.282   2.002   2.510 -0.1356  0.0696 -0.3455
 7951SOL    HW135072   1.300   1.925   2.449  0.8090  1.0490 -1.3292
 7951SOL    HW235073   1.356   2.069   2.501 -1.6680  1.7514 -0.5567
 7952SOL     OW35074   5.581   4.119   0.468  0.0566 -0.7361  0.2025
 7952SOL    HW135075   5.543   4.028   0.451 -1.7699 -0.0351  0.4177
 7952SOL    HW235076   5.558   4.147   0.561 -0.0074  0.2300 -0.1004
 7953SOL     OW35077   0.055   2.689   1.422 -0.0370  0.5465  0.0210
 7953SOL    HW135078   0.081   2.625   1.494 -3.2843  2.0037  2.6273
 7953SOL    HW235079   0.133   2.745   1.396  1.7677 -1.5999  0.6747
 7954SOL     OW35080   0.122   9.340   3.197  0.4304 -0.1095  0.1353
 7954SOL    HW135081   0.033   9.335   3.244  0.4610  1.9292  0.4253
 7954SOL    HW235082   0.168   9.251   3.205 -0.8256 -0.6672  1.4769
 7955SOL     OW35083   8.698   7.960   4.462  0.2797 -0.1326 -0.0275
 7955SOL    HW135084   8.735   8.023   4.530  1.2271 -0.9441  0.2209
 7955SOL    HW235085   8.722   7.866   4.487 -0.0513 -0.4951 -1.0509
 7956SOL     OW35086   2.628   6.695   5.748 -0.4470  0.2122  0.1306
 7956SOL    HW135087   2.722   6.663   5.764 -0.4589 -0.2796 -0.7269
 7956SOL    HW235088   2.563   6.624   5.774 -0.4684 -0.5401 -1.9210
 7957SOL     OW35089   4.355   0.875   5.370 -0.2770  0.3888 -0.3472
 7957SOL    HW135090   4.281   0.924   5.323 -1.9674 -1.8600 -0.1233
 7957SOL    HW235091   4.316   0.802   5.426  2.0723 -0.2724  0.4783
 7958SOL     OW35092   2.531   0.922   6.196  0.0901 -0.7750  0.1304
 7958SOL    HW135093   2.462   0.940   6.126 -0.9330  0.0667  1.3367
 7958SOL    HW235094   2.545   1.004   6.252  1.0063 -1.3864  0.8207
 7959SOL     OW35095   8.479   9.344   5.840 -0.7269 -0.3241 -0.0614
 7959SOL    HW135096   8.453   9.440   5.829 -0.0934 -0.1907 -0.3963
 7959SOL    HW235097   8.575   9.332   5.815 -1.3804 -1.4473 -2.1120
 7960SOL     OW35098   7.892   3.396   5.098 -0.0423  0.7799  0.2784
 7960SOL    HW135099   7.968   3.342   5.063  1.4286  1.7728  1.8999
 7960SOL    HW235100   7.883   3.481   5.046  0.0587  0.7428  0.2011
 7961SOL     OW35101   1.939   1.758   4.800 -0.1740  0.3919 -0.6134
 7961SOL    HW135102   1.895   1.839   4.838  0.7693  2.1116 -3.1010
 7961SOL    HW235103   1.869   1.699   4.759 -0.9371 -0.4164  1.7717
 7962SOL     OW35104   2.563   2.254   4.422  0.1152  0.5003 -0.3412
 7962SOL    HW135105   2.652   2.251   4.467  0.6019 -1.2144 -1.3334
 7962SOL    HW235106   2.550   2.169   4.370 -1.2721  1.5606 -1.7696
 7963SOL     OW35107   4.444   7.152   4.895  0.5859  0.0790 -0.1682
 7963SOL    HW135108   4.532   7.192   4.923  0.7469 -0.0684 -0.4631
 7963SOL    HW235109   4.379   7.159   4.970  1.4083 -1.5108  0.7118
 7964SOL     OW35110   0.950   3.489   3.240 -0.0105  0.2118 -0.3809
 7964SOL    HW135111   0.892   3.408   3.229 -0.6488  0.5069  0.6942
 7964SOL    HW235112   1.044   3.461   3.258 -0.8812 -0.3789  3.6266
 7965SOL     OW35113   1.740   5.332   2.390 -0.8073  0.2556 -0.5434
 7965SOL    HW135114   1.686   5.402   2.437  0.2387 -0.3072  1.5946
 7965SOL    HW235115   1.836   5.340   2.417 -0.5354 -1.4424 -0.9187
 7966SOL     OW35116   0.785   1.653   5.745  0.2991 -0.3066 -0.1136
 7966SOL    HW135117   0.868   1.686   5.699  0.4900 -1.8533 -0.9350
 7966SOL    HW235118   0.705   1.672   5.688  0.2108  0.2078  0.1778
 7967SOL     OW35119   6.785   7.806   2.251  0.2796 -0.3329  0.3895
 7967SOL    HW135120   6.738   7.840   2.333  0.8245 -0.1666  0.6307
 7967SOL    HW235121   6.727   7.822   2.171  0.0804  0.2177  0.6421
 7968SOL     OW35122   3.416   5.525   0.723 -0.4890 -0.1784  0.4824
 7968SOL    HW135123   3.367   5.444   0.755 -0.8103 -0.3473 -0.4181
 7968SOL    HW235124   3.465   5.566   0.800 -0.4525 -1.1312  0.9858
 7969SOL     OW35125   0.186   4.022   1.020  0.2518  0.9329 -0.2083
 7969SOL    HW135126   0.240   4.100   1.052 -0.4239  0.9975  0.8087
 7969SOL    HW235127   0.245   3.943   1.009  0.8186  1.3996 -0.5681
 7970SOL     OW35128   1.153   3.334   4.107  0.1628 -0.3857  0.4592
 7970SOL    HW135129   1.227   3.399   4.089 -0.1892  0.2334  1.2233
 7970SOL    HW235130   1.186   3.241   4.090  1.0210 -0.0965  0.4888
 7971SOL     OW35131   9.863   9.897   4.409 -0.6999  0.2950  0.0839
 7971SOL    HW135132   9.848   9.861   4.316 -3.6928  2.5168 -0.3553
 7971SOL    HW235133   9.905   9.988   4.403 -0.1550  0.1065  0.9542
 7972SOL     OW35134   9.860   8.003   2.191 -0.7564 -0.6203 -0.2933
 7972SOL    HW135135   9.824   7.909   2.189  1.1118 -1.3742 -0.3370
 7972SOL    HW235136   9.892   8.028   2.100 -0.8292 -0.1078 -0.1770
 7973SOL     OW35137   8.576   0.437   3.600 -0.5235 -0.0007 -0.2713
 7973SOL    HW135138   8.584   0.348   3.555  0.4171 -0.3170  0.5090
 7973SOL    HW235139   8.527   0.500   3.539 -0.6747 -0.8707 -1.0737
 7974SOL     OW35140   3.288   4.056   5.206  0.7233  0.3006 -0.0720
 7974SOL    HW135141   3.260   3.997   5.130  0.1278 -0.8931  1.0637
 7974SOL    HW235142   3.340   4.003   5.273  1.0497  1.2977  0.4875
 7975SOL     OW35143   0.932   1.991   1.198 -0.1397 -0.3696 -0.4502
 7975SOL    HW135144   0.971   2.016   1.287  1.3543 -0.5892 -1.0287
 7975SOL    HW235145   0.973   2.047   1.126  1.0652 -2.4044 -1.3867
 7976SOL     OW35146   7.461   9.244   5.213  0.0663  0.1890 -0.4708
 7976SOL    HW135147   7.373   9.224   5.169 -1.1011 -0.1192  1.9078
 7976SOL    HW235148   7.531   9.258   5.143 -1.9020  0.6026 -2.4132
 7977SOL     OW35149   1.712   4.021   1.684 -0.1400 -0.5151 -0.0304
 7977SOL    HW135150   1.756   4.055   1.601 -0.9290 -0.7797 -0.5604
 7977SOL    HW235151   1.650   4.091   1.721  0.3067 -0.3480  0.4101
 7978SOL     OW35152   0.409   4.123   6.204 -0.1268 -0.1309  0.1796
 7978SOL    HW135153   0.457   4.117   6.291  0.8407  0.6743 -0.2781
 7978SOL    HW235154   0.394   4.031   6.167  2.6584 -0.3627 -0.4921
 7979SOL     OW35155   1.887   8.378   6.049  0.0992  0.1474  0.1744
 7979SOL    HW135156   1.857   8.328   6.130  0.1196 -1.3767 -0.7424
 7979SOL    HW235157   1.842   8.340   5.968  1.8404  0.1388 -0.8052
 7980SOL     OW35158   4.017   3.113   3.301  0.0066 -0.1228 -0.7727
 7980SOL    HW135159   3.940   3.147   3.355 -0.3932 -0.0429 -1.3824
 7980SOL    HW235160   4.087   3.075   3.362  0.0286  0.9030 -0.1354
 7981SOL     OW35161   9.031   5.371   3.968 -0.2011  0.4645 -0.0558
 7981SOL    HW135162   8.996   5.451   3.919 -1.1967 -0.1721 -0.4036
 7981SOL    HW235163   9.031   5.292   3.907 -1.2307 -0.2775  0.8771
 7982SOL     OW35164   3.110   2.465   4.837  0.1017  0.3730 -0.5120
 7982SOL    HW135165   3.059   2.389   4.797  2.0876 -1.0363 -0.4546
 7982SOL    HW235166   3.145   2.523   4.763 -0.6629  0.7234 -0.5978
 7983SOL     OW35167   6.320   8.323   4.457 -0.6624  0.0539  0.3995
 7983SOL    HW135168   6.391   8.267   4.415  0.2037 -0.1421  2.0768
 7983SOL    HW235169   6.354   8.417   4.467 -1.1811  0.2998 -0.0980
 7984SOL     OW35170   4.269   3.250   4.848 -0.0323  0.0610  0.0456
 7984SOL    HW135171   4.187   3.252   4.791  0.4489  0.8909 -0.6288
 7984SOL    HW235172   4.300   3.156   4.859 -0.3892 -0.1399 -0.6903
 7985SOL     OW35173   0.953   7.559   4.420  0.3222  0.4316 -0.1866
 7985SOL    HW135174   0.982   7.491   4.488 -0.9280  0.8697  0.8040
 7985SOL    HW235175   0.966   7.522   4.328  1.8849 -0.2326  0.2878
 7986SOL     OW35176   3.945   8.327   4.893  0.3686 -0.3455  0.0113
 7986SOL    HW135177   4.008   8.260   4.853  0.4645 -0.7396  0.8121
 7986SOL    HW235178   3.994   8.412   4.910  0.1855  0.0339 -1.2500
 7987SOL     OW35179   1.723   6.837   4.240  0.2006  0.5366  0.3873
 7987SOL    HW135180   1.772   6.758   4.203 -1.7053  0.4992 -2.1451
 7987SOL    HW235181   1.644   6.806   4.293  0.2370  0.7241  0.5543
 7988SOL     OW35182   1.489   2.193   0.337 -0.1629 -0.4383  0.2145
 7988SOL    HW135183   1.582   2.166   0.316  0.1256  1.2712 -0.8135
 7988SOL    HW235184   1.425   2.149   0.274  0.0429 -0.8807  0.3207
 7989SOL     OW35185   4.892   0.996   1.235 -0.0439 -0.2141 -0.1626
 7989SOL    HW135186   4.925   1.086   1.207  2.0282 -1.0835 -0.6462
 7989SOL    HW235187   4.841   0.955   1.159 -1.2685  0.6646  0.1707
 7990SOL     OW35188   7.123   0.010   4.986  0.0827  0.2456  0.5715
 7990SOL    HW135189   7.215   0.015   5.024  0.6145 -0.3011 -0.6166
 7990SOL    HW235190   7.099   0.097   4.943  0.5810 -0.0550 -0.3207
 7991SOL     OW35191   1.465   4.878   4.488 -0.6301  0.7474  0.1992
 7991SOL    HW135192   1.502   4.843   4.574 -0.6206  0.1349 -0.0460
 7991SOL    HW235193   1.466   4.804   4.420 -1.8362  0.8739  0.0400
 7992SOL     OW35194   8.434   6.918   1.203  0.1437 -0.8363  0.2396
 7992SOL    HW135195   8.488   6.868   1.271  0.1301 -1.6841 -0.3786
 7992SOL    HW235196   8.475   6.906   1.113 -2.4678 -3.5144 -0.6409
 7993SOL     OW35197   9.587   7.588   1.096  0.0296 -0.0245 -0.1748
 7993SOL    HW135198   9.585   7.608   0.998  1.7941  2.0326  0.1751
 7993SOL    HW235199   9.530   7.654   1.145  0.2533 -0.1859  0.3074
 7994SOL     OW35200   7.142   7.581   4.293 -0.4075  0.4925  0.6085
 7994SOL    HW135201   7.136   7.488   4.330 -2.5949  0.6874  0.8074
 7994SOL    HW235202   7.175   7.642   4.365  2.5783 -0.3531  0.0263
 7995SOL     OW35203   1.185   4.120   5.450  0.1505 -0.2208  0.2743
 7995SOL    HW135204   1.152   4.177   5.375  0.1012  1.5180  1.5885
 7995SOL    HW235205   1.109   4.069   5.489 -0.3886  1.1535  1.0609
 7996SOL     OW35206   8.112   2.099   4.740  0.0146 -0.0639  0.0396
 7996SOL    HW135207   8.013   2.087   4.742 -0.1774  1.3967  0.2452
 7996SOL    HW235208   8.143   2.134   4.828  0.5051  0.8110 -0.4680
 7997SOL     OW35209   9.004   0.117   6.686 -0.2310  0.1710  0.2649
 7997SOL    HW135210   9.021   0.194   6.624 -0.4003 -0.0213 -0.0243
 7997SOL    HW235211   9.088   0.063   6.694 -0.5739 -0.5575 -0.8564
 7998SOL     OW35212   3.783   0.798   2.315 -0.0399 -0.2653  0.7438
 7998SOL    HW135213   3.819   0.728   2.254  1.2976  0.0084  1.1966
 7998SOL    HW235214   3.686   0.813   2.295 -0.9356 -3.8008  2.1204
 7999SOL     OW35215   7.175   9.730   3.354 -0.2011 -0.7986 -0.3149
 7999SOL    HW135216   7.231   9.729   3.437 -0.2853 -2.7841 -0.2554
 7999SOL    HW235217   7.216   9.791   3.287  0.6200 -0.2438  0.6769
 8000SOL     OW35218   1.256   5.165   5.132  0.0689 -0.6168  0.0934
 8000SOL    HW135219   1.202   5.101   5.077  0.4176 -0.3784 -0.5423
 8000SOL    HW235220   1.283   5.122   5.218 -0.6392 -0.9324  0.1538
 8001SOL     OW35221   3.239   6.827   2.726  0.1946  0.5163  0.6769
 8001SOL    HW135222   3.310   6.888   2.760 -1.0774  0.4755  3.6064
 8001SOL    HW235223   3.160   6.881   2.696  0.5879  0.4643 -0.4719
 8002SOL     OW35224   3.552   5.252   5.609 -0.2308 -0.0197  0.5498
 8002SOL    HW135225   3.471   5.298   5.647  0.2758  0.8885  0.5299
 8002SOL    HW235226   3.620   5.240   5.681  0.2226  0.5631  0.2186
 8003SOL     OW35227   3.212   6.785   0.686  0.1415  0.6615  0.4386
 8003SOL    HW135228   3.293   6.845   0.688  0.0563  0.8359 -0.6454
 8003SOL    HW235229   3.139   6.825   0.741 -0.0909  1.8466 -0.6880
 8004SOL     OW35230   0.058   4.523   2.543 -0.2856 -0.0251  0.3308
 8004SOL    HW135231   0.027   4.615   2.566  0.4403 -0.0214  1.3315
 8004SOL    HW235232  -0.017   4.472   2.499 -1.2224  0.4832  1.3090
 8005SOL     OW35233   2.341   6.596   1.827  0.1380 -0.2111  0.0633
 8005SOL    HW135234   2.270   6.594   1.756 -0.8649  1.8919  0.9841
 8005SOL    HW235235   2.411   6.662   1.802 -0.2599  0.5989  1.0597
 8006SOL     OW35236   8.108   8.312   2.468 -0.0087 -0.0665 -0.1927
 8006SOL    HW135237   8.166   8.392   2.454  1.0230 -0.6490  0.7067
 8006SOL    HW235238   8.024   8.340   2.515 -0.4586  0.7689 -1.4776
 8007SOL     OW35239   0.314   3.337   4.531 -0.4224 -0.1976  0.0824
 8007SOL    HW135240   0.375   3.294   4.464 -1.4224  0.8281 -1.5128
 8007SOL    HW235241   0.275   3.267   4.591  1.9553 -0.9114  0.8366
 8008SOL     OW35242   5.385   0.139   4.419  0.6687 -0.5930  0.2255
 8008SOL    HW135243   5.362   0.214   4.481 -0.3953 -0.5612 -0.1914
 8008SOL    HW235244   5.319   0.065   4.430  1.6001 -1.3947  0.4923
 8009SOL     OW35245   1.407   4.569   0.024  0.1943  0.2622  0.2068
 8009SOL    HW135246   1.329   4.514   0.051  0.3014 -0.7112 -1.4208
 8009SOL    HW235247   1.379   4.665   0.014 -0.3557  0.2319  1.4398
 8010SOL     OW35248   4.867   9.774   2.662  0.2143  0.2195 -0.0368
 8010SOL    HW135249   4.960   9.738   2.672  0.7296  0.8807 -2.1753
 8010SOL    HW235250   4.867   9.848   2.595 -1.7672  0.5838  0.3461
 8011SOL     OW35251   5.870   7.702   3.111 -0.3645  0.1452  0.4447
 8011SOL    HW135252   5.961   7.699   3.153  0.8704  1.0626 -2.0818
 8011SOL    HW235253   5.812   7.767   3.161  1.3487  1.8950  0.2143
 8012SOL     OW35254   3.031   6.821   3.924  0.0633 -0.3971 -0.0037
 8012SOL    HW135255   3.062   6.914   3.942 -0.5260 -0.4313  1.2775
 8012SOL    HW235256   3.080   6.783   3.846  1.3745  0.4521  0.4035
 8013SOL     OW35257   8.784   8.051   6.603  0.3338  0.4946  0.5184
 8013SOL    HW135258   8.741   8.020   6.688  1.6831 -2.1978  0.2732
 8013SOL    HW235259   8.716   8.093   6.544 -1.1777 -0.1941  1.7534
 8014SOL     OW35260   1.542   8.954   4.038 -0.3209 -0.2575 -0.7579
 8014SOL    HW135261   1.520   8.953   4.135 -1.6852  2.0001 -0.9887
 8014SOL    HW235262   1.641   8.946   4.025  0.1603  2.4992  0.9688
 8015SOL     OW35263   0.798   6.516   2.915  0.1595 -0.0479 -0.3536
 8015SOL    HW135264   0.874   6.535   2.977 -0.3156  1.6908 -0.2752
 8015SOL    HW235265   0.724   6.580   2.932 -1.8661 -2.5190  0.4150
 8016SOL     OW35266   2.004   5.469   2.520  0.3537  0.2428 -0.2742
 8016SOL    HW135267   1.982   5.452   2.616 -1.3381  1.3195 -0.4519
 8016SOL    HW235268   1.954   5.550   2.488 -0.1126 -0.8579 -2.4196
 8017SOL     OW35269   6.526   9.860   3.535 -0.2181  0.3242 -1.0449
 8017SOL    HW135270   6.602   9.914   3.500  0.2137 -0.3608 -1.1851
 8017SOL    HW235271   6.558   9.766   3.553 -0.8196  0.2561 -0.3109
 8018SOL     OW35272   4.464   4.033   4.167  0.1858 -0.4376  0.2438
 8018SOL    HW135273   4.378   4.043   4.217 -0.0422 -0.3716 -0.1622
 8018SOL    HW235274   4.524   3.971   4.217  0.2848  0.2774  1.0347
 8019SOL     OW35275   3.080   5.626   4.676 -0.5728 -0.8976  0.6882
 8019SOL    HW135276   3.106   5.569   4.753  0.1782 -1.4066  0.0669
 8019SOL    HW235277   3.038   5.570   4.605 -0.9831 -0.4815  0.6000
 8020SOL     OW35278   4.190   3.468   0.061 -0.0739 -0.3671  0.1860
 8020SOL    HW135279   4.195   3.467  -0.038  1.1859 -0.2309  0.2400
 8020SOL    HW235280   4.101   3.433   0.091  0.0672 -1.7054 -0.9430
 8021SOL     OW35281   9.668   6.925   1.241  0.5150 -0.3030  0.7223
 8021SOL    HW135282   9.737   6.944   1.312  0.0554  0.9629  0.8353
 8021SOL    HW235283   9.623   6.838   1.262  1.2000 -0.5202  1.3451
 8022SOL     OW35284   7.623   4.638   1.422 -0.5580 -0.2674 -0.7049
 8022SOL    HW135285   7.619   4.733   1.391  2.1370  0.2380  0.3683
 8022SOL    HW235286   7.622   4.635   1.522 -0.2801 -1.3461 -0.7235
 8023SOL     OW35287   5.437   1.993   2.033  0.3534 -0.2209 -0.2483
 8023SOL    HW135288   5.523   2.002   2.083  0.4852  0.3523 -0.5817
 8023SOL    HW235289   5.439   1.908   1.979 -0.1670 -1.3326  1.4379
 8024SOL     OW35290   9.960   4.799   2.124 -0.2709 -0.0383  0.5251
 8024SOL    HW135291   9.869   4.760   2.117 -1.0664  1.5717  1.5889
 8024SOL    HW235292  10.006   4.761   2.205 -0.1294 -0.5674  0.1994
 8025SOL     OW35293   1.418   8.456   0.602 -0.0126  0.1354 -0.1441
 8025SOL    HW135294   1.393   8.535   0.658 -1.5278  0.3070 -1.0124
 8025SOL    HW235295   1.353   8.382   0.619  0.8373 -0.5917 -0.0365
 8026SOL     OW35296   5.685   1.479   3.560 -0.1346  0.3282  0.3932
 8026SOL    HW135297   5.725   1.396   3.520 -0.4887  1.3797 -2.3028
 8026SOL    HW235298   5.702   1.557   3.499 -3.5157  1.3995  0.6967
 8027SOL     OW35299   2.436   5.103   1.804 -0.1227  0.7720  0.1920
 8027SOL    HW135300   2.381   5.161   1.865  0.9133  1.8572  0.1075
 8027SOL    HW235301   2.532   5.110   1.829  0.1463  0.0621 -0.6294
 8028SOL     OW35302   1.386   4.793   3.997  0.0080 -0.3648 -0.4925
 8028SOL    HW135303   1.430   4.881   3.977 -0.4575  0.5109  2.1557
 8028SOL    HW235304   1.290   4.808   4.020 -0.4073 -1.7211 -1.3016
 8029SOL     OW35305   0.500   8.641   4.867 -0.2313  0.0956  0.0181
 8029SOL    HW135306   0.582   8.663   4.921  1.1307 -2.7263 -0.7565
 8029SOL    HW235307   0.484   8.542   4.872 -2.1988  0.2982 -1.8387
 8030SOL     OW35308   9.803   4.365   5.267 -0.3033  0.4623 -0.0929
 8030SOL    HW135309   9.746   4.433   5.222 -0.3138 -0.3547 -1.3365
 8030SOL    HW235310   9.771   4.351   5.360 -0.2309  2.2377  0.2164
 8031SOL     OW35311   8.670   2.286   5.857  0.2950  0.2555  0.2926
 8031SOL    HW135312   8.587   2.277   5.912  0.6291  0.0801  0.7734
 8031SOL    HW235313   8.746   2.312   5.917  0.6795 -0.0247 -0.0802
 8032SOL     OW35314   5.934   1.358   3.790 -0.3375  0.1884 -0.0596
 8032SOL    HW135315   5.979   1.270   3.772 -0.0181  0.4190 -0.3676
 8032SOL    HW235316   5.863   1.373   3.722 -0.8886 -0.1750  0.4253
 8033SOL     OW35317   0.668   8.148   2.791 -0.1447  0.2406  0.0809
 8033SOL    HW135318   0.739   8.219   2.790  0.2766 -0.1177  1.8971
 8033SOL    HW235319   0.606   8.162   2.715  1.7762  0.6677 -1.4566
 8034SOL     OW35320   8.674   4.169   0.029  0.1867  0.2542  0.0206
 8034SOL    HW135321   8.623   4.141   0.110  0.3261 -2.1679 -0.6731
 8034SOL    HW235322   8.720   4.089  -0.010  0.7953  1.5377 -1.9731
 8035SOL     OW35323   2.962   6.303   5.872 -0.0070  0.0465  0.0924
 8035SOL    HW135324   3.001   6.301   5.964  0.3891  1.0793 -0.0404
 8035SOL    HW235325   2.904   6.223   5.858 -3.5733  2.0629  2.7994
 8036SOL     OW35326   1.113   0.656   5.115 -0.6287 -0.4484 -0.3615
 8036SOL    HW135327   1.187   0.722   5.103 -2.8404  2.1302 -0.4423
 8036SOL    HW235328   1.132   0.597   5.194  0.7374  1.2517  0.6128
 8037SOL     OW35329   9.293   5.846   3.754  0.1469 -0.1999 -0.1105
 8037SOL    HW135330   9.288   5.905   3.834  1.9546  1.0042 -0.8488
 8037SOL    HW235331   9.264   5.754   3.779  0.8806  0.1039  1.9839
 8038SOL     OW35332   3.944   1.418   3.928 -0.5315  0.2407 -0.0913
 8038SOL    HW135333   3.918   1.438   4.022  0.6051  1.2885  0.0175
 8038SOL    HW235334   3.889   1.343   3.893 -0.2891 -0.8024  1.7248
 8039SOL     OW35335   3.367   3.357   0.555 -0.1397  0.0209  0.0468
 8039SOL    HW135336   3.416   3.301   0.487 -0.2348  1.4824 -1.2436
 8039SOL    HW235337   3.433   3.394   0.620  0.0077 -1.0263  0.5130
 8040SOL     OW35338   4.947   7.599   4.623 -0.0959 -0.1171  0.2250
 8040SOL    HW135339   5.024   7.626   4.566  1.4561 -3.3551  0.6990
 8040SOL    HW235340   4.864   7.647   4.592  1.8816  2.7843 -0.8021
 8041SOL     OW35341   1.737   4.231   3.578 -0.2883  0.4944 -0.1842
 8041SOL    HW135342   1.664   4.173   3.613 -0.0996  0.5525  0.2993
 8041SOL    HW235343   1.793   4.179   3.513  0.2755 -0.0580  0.7475
 8042SOL     OW35344   0.580   0.003   3.399  0.2352  0.0774  0.0752
 8042SOL    HW135345   0.601   0.096   3.368  0.7547  0.2255  0.8445
 8042SOL    HW235346   0.500   0.005   3.458  1.9353  0.4620  2.4058
 8043SOL     OW35347   0.572   9.719   5.140 -0.3109 -0.0761  0.1675
 8043SOL    HW135348   0.584   9.627   5.176  1.4953  0.7201  1.6804
 8043SOL    HW235349   0.550   9.781   5.216  1.5840  1.2859 -0.3686
 8044SOL     OW35350   9.910   0.229   1.436  0.2814  0.0139 -0.2150
 8044SOL    HW135351   9.990   0.234   1.497  0.1002 -0.8079  0.0990
 8044SOL    HW235352   9.941   0.210   1.343  0.5170  0.6208 -0.2622
 8045SOL     OW35353   8.659   6.509   5.056 -0.5881  0.0302  0.2569
 8045SOL    HW135354   8.684   6.412   5.058  2.0202  0.6286 -1.0342
 8045SOL    HW235355   8.710   6.559   5.127 -1.0126  0.6541  0.1314
 8046SOL     OW35356   1.960   2.314   1.800  0.1308 -0.3540  0.0513
 8046SOL    HW135357   1.878   2.365   1.825 -1.1830 -2.2904 -0.1715
 8046SOL    HW235358   1.983   2.249   1.872  1.5409  0.2474  0.1567
 8047SOL     OW35359   8.063   5.510   4.910  0.0256  0.1681  0.0755
 8047SOL    HW135360   8.003   5.529   4.833 -2.5875 -0.3093  1.9366
 8047SOL    HW235361   8.098   5.596   4.947 -1.4494  0.6256  0.4442
 8048SOL     OW35362   6.866   0.984   4.431  0.4367 -0.0988  0.6871
 8048SOL    HW135363   6.894   1.063   4.377  0.4512 -0.2701  0.4439
 8048SOL    HW235364   6.806   1.013   4.505 -0.8194 -0.0449 -0.3278
 8049SOL     OW35365   9.367   4.000   3.759 -0.1379 -0.0969 -0.0122
 8049SOL    HW135366   9.414   3.946   3.690 -0.9675 -0.3249 -0.3987
 8049SOL    HW235367   9.435   4.045   3.818  0.5619 -0.2418 -0.7041
 8050SOL     OW35368   3.569   3.773   3.370  0.5214 -0.1512  0.1733
 8050SOL    HW135369   3.573   3.855   3.427  1.6130 -0.5282  0.6543
 8050SOL    HW235370   3.554   3.693   3.429  0.2175 -0.3872 -0.2205
 8051SOL     OW35371   8.920   8.966   4.037  0.3154  0.0226 -0.4912
 8051SOL    HW135372   8.880   8.901   4.102  0.3310 -0.8373 -1.3282
 8051SOL    HW235373   9.011   8.992   4.068  0.8669 -1.4226 -0.8372
 8052SOL     OW35374   3.532   3.731   1.193  0.2656  0.4227 -0.1622
 8052SOL    HW135375   3.543   3.649   1.137  2.2828  1.6493 -1.6387
 8052SOL    HW235376   3.442   3.772   1.175 -0.5468 -1.1831  0.2156
 8053SOL     OW35377   6.165   9.391   4.695  0.0563  0.5799  0.3460
 8053SOL    HW135378   6.145   9.350   4.784 -0.0061 -0.5095 -0.1505
 8053SOL    HW235379   6.263   9.409   4.689  0.4956 -1.8212 -0.3440
 8054SOL     OW35380   9.632   7.160   4.372  0.2102 -0.0542 -0.0704
 8054SOL    HW135381   9.576   7.077   4.375 -0.5070  0.4627  1.1819
 8054SOL    HW235382   9.728   7.135   4.358  0.3464 -1.2616  2.6965
 8055SOL     OW35383   2.315   5.264   4.763  0.3481  0.6300  0.1133
 8055SOL    HW135384   2.404   5.225   4.785 -0.4412 -1.4789 -0.2655
 8055SOL    HW235385   2.293   5.247   4.667 -0.5439  0.9377  0.2508
 8056SOL     OW35386   2.440   2.469   4.593 -0.1555 -0.0633  0.4571
 8056SOL    HW135387   2.458   2.401   4.522 -1.4498  1.0694 -0.9928
 8056SOL    HW235388   2.469   2.560   4.561  0.9879  0.1940  2.1255
 8057SOL     OW35389   8.436   9.124   6.688  0.5819  0.0849 -0.0779
 8057SOL    HW135390   8.342   9.127   6.657  1.3540  1.8773 -2.4412
 8057SOL    HW235391   8.466   9.217   6.712  1.8269 -0.4102  0.3411
 8058SOL     OW35392   8.822   3.685   3.770 -0.3191  0.6648  0.2503
 8058SOL    HW135393   8.861   3.774   3.790  0.0838  0.2822  1.1991
 8058SOL    HW235394   8.895   3.619   3.752 -0.5833  0.3577  0.2800
 8059SOL     OW35395   8.745   7.195   4.748 -0.6033  0.5433  0.2008
 8059SOL    HW135396   8.839   7.222   4.769 -0.5121  1.1716 -0.9779
 8059SOL    HW235397   8.716   7.122   4.811  0.9523 -0.2138  0.0538
 8060SOL     OW35398   1.844   9.364   4.564  0.5579  0.0660 -0.6405
 8060SOL    HW135399   1.856   9.460   4.587  1.8828 -0.4248  0.7712
 8060SOL    HW235400   1.759   9.353   4.512 -3.2646  1.1194  4.9803
 8061SOL     OW35401   8.069   2.806   3.942  0.5098 -0.8512 -0.2807
 8061SOL    HW135402   8.012   2.873   3.894  0.7775 -0.5623 -0.1977
 8061SOL    HW235403   8.096   2.734   3.879  1.5468 -0.0348 -0.7895
 8062SOL     OW35404   3.526   0.886   4.475 -0.6207 -0.1123  0.1587
 8062SOL    HW135405   3.606   0.906   4.531 -0.4422  0.7560 -0.4024
 8062SOL    HW235406   3.452   0.948   4.499  0.0894  1.5917 -1.9096
 8063SOL     OW35407   4.274   8.437   2.684 -0.0678 -0.0892  0.2047
 8063SOL    HW135408   4.239   8.492   2.760 -0.9283 -1.4477  0.8124
 8063SOL    HW235409   4.198   8.400   2.632  0.4905 -0.9746  0.0008
 8064SOL     OW35410   3.459   1.188   6.683  0.0912  0.5248  0.0226
 8064SOL    HW135411   3.478   1.263   6.745 -1.0931  0.7442  0.1267
 8064SOL    HW235412   3.405   1.221   6.605  0.9439  0.1080 -0.7579
 8065SOL     OW35413   1.888   5.885   4.195  0.2542  0.3851  0.3832
 8065SOL    HW135414   1.874   5.824   4.117  2.1343  0.9888 -0.4607
 8065SOL    HW235415   1.986   5.903   4.206  0.0198  0.1870  3.0022
 8066SOL     OW35416   8.276   9.215   5.363  0.1270 -0.2322 -0.0566
 8066SOL    HW135417   8.317   9.186   5.276 -0.2216 -0.9598  0.0141
 8066SOL    HW235418   8.238   9.135   5.410  1.3377 -0.0367  1.3075
 8067SOL     OW35419   1.873   4.633   5.807  0.3038 -0.7259 -0.3315
 8067SOL    HW135420   1.923   4.630   5.720  1.1158 -0.9815  0.1403
 8067SOL    HW235421   1.922   4.692   5.871 -0.8709  0.3343 -0.3989
 8068SOL     OW35422   0.758   0.945   3.606 -0.5669 -0.1200  0.2031
 8068SOL    HW135423   0.665   0.978   3.592 -0.2060  1.0416  0.5290
 8068SOL    HW235424   0.763   0.896   3.694 -0.1825  2.4467  1.6585
 8069SOL     OW35425   0.663   2.052   4.800 -0.3896 -0.8600  0.7991
 8069SOL    HW135426   0.705   2.103   4.725 -2.3346  0.6982  0.7419
 8069SOL    HW235427   0.617   1.971   4.764 -0.4091 -0.6931  0.4492
 8070SOL     OW35428   4.523   1.933   2.639  0.0626  0.0753  0.0803
 8070SOL    HW135429   4.607   1.904   2.685 -1.0968  0.0087  2.2249
 8070SOL    HW235430   4.471   1.993   2.699 -1.7457 -0.4025 -0.9573
 8071SOL     OW35431   7.929   6.680   2.804  0.0918 -0.1900  0.0007
 8071SOL    HW135432   8.013   6.664   2.855  0.9899  0.2997 -1.3073
 8071SOL    HW235433   7.943   6.661   2.707 -1.5746 -1.0099 -0.1127
 8072SOL     OW35434   8.768   0.438   2.120  0.3584 -0.7836  0.2228
 8072SOL    HW135435   8.678   0.402   2.142  0.2136  1.2781  3.2768
 8072SOL    HW235436   8.759   0.517   2.060  0.1618 -0.7648  0.2770
 8073SOL     OW35437   9.157   2.641   5.253 -0.1549 -0.1164  0.2429
 8073SOL    HW135438   9.090   2.708   5.284 -0.9972 -0.3515 -1.0331
 8073SOL    HW235439   9.197   2.672   5.166  0.8740 -0.3193  0.6403
 8074SOL     OW35440   5.048   5.441   3.253  0.4216 -0.4768 -0.6267
 8074SOL    HW135441   5.105   5.403   3.180  1.3857 -1.1916  0.4845
 8074SOL    HW235442   5.098   5.440   3.339 -1.1077 -0.6864  0.2825
 8075SOL     OW35443   2.460   0.608   4.738 -0.2071  0.5987 -0.0098
 8075SOL    HW135444   2.369   0.567   4.751 -0.0034 -0.0021 -0.4734
 8075SOL    HW235445   2.530   0.537   4.744  0.0619  0.6742 -1.9904
 8076SOL     OW35446   7.506   0.143   2.370  0.1619  0.1370 -0.2861
 8076SOL    HW135447   7.482   0.062   2.316 -0.1095 -0.9717  1.4417
 8076SOL    HW235448   7.434   0.159   2.438  0.1547  1.9167 -0.7077
 8077SOL     OW35449   5.964   4.034   6.602 -0.1001 -0.8303  0.1711
 8077SOL    HW135450   5.947   4.066   6.695  0.3630  0.1253 -0.0604
 8077SOL    HW235451   6.043   3.972   6.602  0.7509  0.2300  0.2301
 8078SOL     OW35452   9.935   1.975   4.200  0.3645 -0.3644 -0.8702
 8078SOL    HW135453   9.990   1.923   4.135 -0.2308 -1.8875 -0.1800
 8078SOL    HW235454   9.962   1.950   4.293 -0.5568 -0.1073 -0.5330
 8079SOL     OW35455   0.377   6.749   3.680 -0.0171  0.2501  0.2237
 8079SOL    HW135456   0.439   6.822   3.708  0.4617  0.1679 -0.6339
 8079SOL    HW235457   0.289   6.788   3.653  0.4064  0.5493 -0.7215
 8080SOL     OW35458   5.084   0.940   3.240  0.5531  0.6127 -0.9797
 8080SOL    HW135459   4.994   0.902   3.216 -0.5145  1.9895  0.7416
 8080SOL    HW235460   5.097   0.935   3.339  3.2878 -1.4783 -1.3680
 8081SOL     OW35461   8.062   7.210   4.152 -0.3479 -0.0725 -0.0466
 8081SOL    HW135462   8.133   7.273   4.182  0.2871 -0.2090 -1.2688
 8081SOL    HW235463   7.980   7.224   4.208 -0.3580  2.1054 -0.5652
 8082SOL     OW35464   7.950   7.736   4.504  0.2107  0.0388 -0.0047
 8082SOL    HW135465   8.047   7.744   4.483  0.7662 -1.7963  1.7235
 8082SOL    HW235466   7.932   7.647   4.546 -2.3763 -0.0187 -1.1144
 8083SOL     OW35467   0.848   3.373   2.065  0.1846 -0.5826  0.0303
 8083SOL    HW135468   0.772   3.309   2.065  0.2146 -0.6181  0.1306
 8083SOL    HW235469   0.892   3.374   2.155 -0.1102 -0.0735  0.1712
 8084SOL     OW35470   1.623   0.591   5.704 -0.2434  0.0326 -0.2659
 8084SOL    HW135471   1.716   0.594   5.742 -0.5786 -0.9791  0.6642
 8084SOL    HW235472   1.627   0.603   5.605  1.0229 -1.3802 -0.4154
 8085SOL     OW35473   8.910   0.647   0.774 -0.0153  0.0017  0.5229
 8085SOL    HW135474   8.876   0.563   0.733 -1.4061  1.3813 -1.2422
 8085SOL    HW235475   8.836   0.692   0.825 -0.2329  1.8072 -1.3154
 8086SOL     OW35476   8.409   1.993   2.269 -0.1132 -0.4118  0.4514
 8086SOL    HW135477   8.491   1.965   2.219 -1.8233 -0.4352 -2.4882
 8086SOL    HW235478   8.364   1.912   2.307  1.4075 -0.3570  2.4120
 8087SOL     OW35479   3.933   1.969   2.374 -0.2834 -0.1383 -0.4329
 8087SOL    HW135480   4.006   2.034   2.395 -0.3410  0.0514 -0.8148
 8087SOL    HW235481   3.962   1.877   2.401 -1.0769  0.3423  2.1424
 8088SOL     OW35482   0.625   4.753   6.344  0.1292  0.5249  0.0403
 8088SOL    HW135483   0.659   4.666   6.310  1.5102  0.7923  0.7050
 8088SOL    HW235484   0.641   4.759   6.442  0.9971  1.9449 -0.1734
 8089SOL     OW35485   9.058   2.709   4.036  0.3966  0.1433 -0.0318
 8089SOL    HW135486   9.148   2.665   4.034  0.6835  0.7535 -1.2293
 8089SOL    HW235487   9.067   2.800   4.076 -0.0378 -0.5225  1.6070
 8090SOL     OW35488   2.602   0.541   3.515 -0.4339  0.1366 -0.1647
 8090SOL    HW135489   2.617   0.639   3.532  0.3732 -0.0992  0.5429
 8090SOL    HW235490   2.664   0.510   3.443 -0.5561  0.1139 -0.2582
 8091SOL     OW35491   1.773   2.083   1.080 -0.0355  0.1455  0.2377
 8091SOL    HW135492   1.715   2.011   1.119 -1.8012  1.5584  0.2791
 8091SOL    HW235493   1.804   2.144   1.153  0.9244 -0.1969  0.1184
 8092SOL     OW35494   2.109   1.655   5.362 -0.1188  0.2976  0.7547
 8092SOL    HW135495   2.115   1.559   5.335 -0.7185  0.9410 -1.7924
 8092SOL    HW235496   2.024   1.671   5.412 -0.8922 -0.1498 -0.4034
 8093SOL     OW35497   2.940   4.569   3.519 -0.3357  0.0934 -0.2564
 8093SOL    HW135498   2.928   4.666   3.538 -0.3289 -0.0667  0.5643
 8093SOL    HW235499   2.859   4.518   3.547 -0.2274 -0.1757 -0.4239
 8094SOL     OW35500   5.879   8.807   3.560  0.2877  0.1008 -0.0199
 8094SOL    HW135501   5.846   8.902   3.563  1.4611  0.5008  0.9560
 8094SOL    HW235502   5.972   8.804   3.598  0.2600 -1.4396 -0.0774
 8095SOL     OW35503   0.713   5.158   2.329 -0.6443 -0.1115  1.2246
 8095SOL    HW135504   0.620   5.193   2.327 -0.8854 -0.7589 -0.9902
 8095SOL    HW235505   0.711   5.062   2.358 -0.9875 -0.8331 -1.0025
 8096SOL     OW35506   9.042   9.524   4.930  0.0756  0.0308 -0.2750
 8096SOL    HW135507   9.076   9.564   5.015 -0.2872 -0.1018 -0.0727
 8096SOL    HW235508   9.037   9.595   4.860 -1.1404  0.4641  0.2511
 8097SOL     OW35509   2.812   4.789   4.643  0.2350  0.3488 -0.1795
 8097SOL    HW135510   2.759   4.766   4.724 -0.3286 -1.7949 -1.0952
 8097SOL    HW235511   2.753   4.834   4.576 -0.3134 -1.4589 -0.9437
 8098SOL     OW35512   2.056   1.237   2.023  0.4926 -0.3315  0.4213
 8098SOL    HW135513   2.098   1.319   1.984 -0.2987 -0.1671 -0.0896
 8098SOL    HW235514   2.117   1.159   2.008  1.5348  0.2712  1.4696
 8099SOL     OW35515   1.885   3.396   1.011  0.0953 -0.3312 -0.2838
 8099SOL    HW135516   1.818   3.328   0.984  0.0478  0.4554 -2.1990
 8099SOL    HW235517   1.861   3.485   0.971  1.5771  0.2324  0.0356
 8100SOL     OW35518   0.493   2.319   0.528 -0.1120  0.0757  0.4054
 8100SOL    HW135519   0.586   2.354   0.535  0.4352 -1.2286 -0.1608
 8100SOL    HW235520   0.471   2.266   0.609  0.0482 -0.5465  0.0486
 8101SOL     OW35521   8.061   0.921   1.893 -0.4347 -0.0295  0.2223
 8101SOL    HW135522   8.091   0.993   1.831  0.6339 -0.1154  0.6298
 8101SOL    HW235523   8.034   0.840   1.839  0.4702 -0.0980 -0.1245
 8102SOL     OW35524   8.278   9.724   1.630  0.3730 -0.0331  0.3060
 8102SOL    HW135525   8.179   9.732   1.634  0.2392 -0.5837 -1.3200
 8102SOL    HW235526   8.320   9.809   1.660 -0.5887  0.1447  1.1498
 8103SOL     OW35527   2.249   5.167   6.109  0.0302  0.0704 -0.1631
 8103SOL    HW135528   2.246   5.209   6.018  0.8707 -2.3357 -1.3642
 8103SOL    HW235529   2.196   5.082   6.108 -3.4158  2.0674  2.8046
 8104SOL     OW35530   0.634   7.926   0.402 -0.1430 -0.2818  0.2076
 8104SOL    HW135531   0.718   7.979   0.412 -1.1357  0.9113  2.4956
 8104SOL    HW235532   0.600   7.936   0.308  1.1179  0.9140 -0.1498
 8105SOL     OW35533   6.639   0.810   5.740 -0.2204 -0.4270  0.1263
 8105SOL    HW135534   6.686   0.723   5.760 -0.6865 -0.5773  0.6068
 8105SOL    HW235535   6.540   0.793   5.734 -0.4173  0.2552  1.3274
 8106SOL     OW35536   0.838   1.678   2.900 -0.3659 -0.3214 -0.0679
 8106SOL    HW135537   0.838   1.748   2.972 -1.7984  0.0183 -0.3946
 8106SOL    HW235538   0.786   1.599   2.931  0.6961 -0.9850  0.0381
 8107SOL     OW35539   2.300   1.984   6.645 -0.8674 -0.3332 -0.3090
 8107SOL    HW135540   2.270   1.976   6.550 -0.9130 -0.3513 -0.2933
 8107SOL    HW235541   2.338   1.897   6.676  2.4582  0.6899 -1.4158
 8108SOL     OW35542   2.091   6.011   1.516 -0.4779  0.2046 -0.0606
 8108SOL    HW135543   2.177   6.047   1.481 -1.2410  1.5068 -0.6334
 8108SOL    HW235544   2.099   5.997   1.615  0.1423  1.0719  0.0227
 8109SOL     OW35545   5.359   0.279   4.181 -0.3780  0.5205  0.1267
 8109SOL    HW135546   5.347   0.226   4.265 -1.0200 -0.1991 -0.4149
 8109SOL    HW235547   5.270   0.291   4.136  0.1861 -0.5860 -1.3401
 8110SOL     OW35548   1.537   4.890   3.659 -0.4080  0.1430 -0.4387
 8110SOL    HW135549   1.547   4.989   3.669  1.8035  0.1375 -1.9867
 8110SOL    HW235550   1.554   4.845   3.747  0.8027  1.0348 -0.1991
 8111SOL     OW35551   3.221   8.025   0.656  0.1470 -0.1625  0.8197
 8111SOL    HW135552   3.289   7.991   0.721  1.6664 -1.4454 -1.3470
 8111SOL    HW235553   3.249   8.114   0.622  1.4959 -1.2557 -1.0446
 8112SOL     OW35554   7.732   7.504   4.364 -0.2860  0.0051  0.4935
 8112SOL    HW135555   7.762   7.584   4.311 -1.0128 -0.3542 -0.4802
 8112SOL    HW235556   7.638   7.482   4.340  0.7754 -2.7861 -1.2889
 8113SOL     OW35557   4.819   8.172   5.165  0.3242  0.2477 -0.0149
 8113SOL    HW135558   4.758   8.103   5.206  0.7591  0.4723  1.0265
 8113SOL    HW235559   4.812   8.167   5.065 -0.6188 -0.4346  0.0749
 8114SOL     OW35560   1.680   4.498   0.095  0.2572 -0.0595 -0.2151
 8114SOL    HW135561   1.707   4.500  -0.001 -0.0756  0.7806 -0.3001
 8114SOL    HW235562   1.587   4.461   0.103 -0.6534  2.0604 -0.4756
 8115SOL     OW35563   9.497   7.082   6.473 -0.1203 -0.0323  0.5630
 8115SOL    HW135564   9.590   7.116   6.461  0.4647 -2.2582 -1.7480
 8115SOL    HW235565   9.432   7.146   6.431  0.7284 -0.4745 -1.4551
 8116SOL     OW35566   1.224   8.696   2.190  0.2612 -0.0282 -0.2716
 8116SOL    HW135567   1.215   8.596   2.181  1.0937 -0.2045  0.7644
 8116SOL    HW235568   1.187   8.740   2.109  1.0343 -1.2478 -1.3038
 8117SOL     OW35569   9.294   6.084   2.150  0.7978 -0.6657  0.0489
 8117SOL    HW135570   9.356   6.009   2.126  1.6125  0.2253 -0.6910
 8117SOL    HW235571   9.229   6.099   2.076  0.7914 -0.4849  0.0899
 8118SOL     OW35572   0.980   8.364   4.588  0.1234  0.0001 -0.2396
 8118SOL    HW135573   0.928   8.281   4.569  0.9690 -1.1454  2.2380
 8118SOL    HW235574   0.927   8.422   4.650 -0.4612  1.3515 -1.9555
 8119SOL     OW35575   9.229   5.513   4.124  0.1525 -0.5918 -0.3695
 8119SOL    HW135576   9.271   5.450   4.188 -0.0907  0.5950  0.9756
 8119SOL    HW235577   9.142   5.475   4.091  1.6291 -2.4895 -2.2256
 8120SOL     OW35578   2.529   2.457   1.608 -0.0969 -0.7125  0.5543
 8120SOL    HW135579   2.510   2.504   1.522  0.4989 -0.6341  0.4662
 8120SOL    HW235580   2.457   2.478   1.674  0.4573  0.8017  0.6963
 8121SOL     OW35581   2.704   4.416   6.201  0.4544  0.6331  0.1904
 8121SOL    HW135582   2.695   4.353   6.278  2.9976  0.7728  0.6543
 8121SOL    HW235583   2.614   4.449   6.174 -0.6552 -1.0097  1.7676
 8122SOL     OW35584   9.597   2.667   1.720  0.1661 -0.5521 -0.1916
 8122SOL    HW135585   9.593   2.736   1.647 -1.9869 -1.8523 -1.3300
 8122SOL    HW235586   9.689   2.629   1.724  0.8061  0.8635 -0.9666
 8123SOL     OW35587   9.435   9.111   0.192 -0.2039 -0.2497  0.1117
 8123SOL    HW135588   9.375   9.032   0.179  0.7674 -1.1302  0.8479
 8123SOL    HW235589   9.462   9.148   0.103 -2.0588  0.3425 -0.2253
 8124SOL     OW35590   7.733   8.953   4.188 -0.1663 -0.0292  0.0077
 8124SOL    HW135591   7.833   8.956   4.190 -0.0853 -2.4830  0.8246
 8124SOL    HW235592   7.702   8.923   4.098 -0.2300  1.6623 -0.5589
 8125SOL     OW35593   8.612   7.716   5.493 -0.4272 -0.2297  0.3753
 8125SOL    HW135594   8.688   7.672   5.542 -0.4180 -0.9197 -0.2585
 8125SOL    HW235595   8.645   7.801   5.451 -0.7383  1.0716  2.6427
 8126SOL     OW35596   3.544   8.560   3.853 -0.7593 -0.2139 -0.7425
 8126SOL    HW135597   3.544   8.639   3.914  2.1838 -0.5472 -0.2338
 8126SOL    HW235598   3.516   8.589   3.761 -0.2195  1.3345 -0.4360
 8127SOL     OW35599   9.834   9.258   2.247 -0.2834 -0.0265  0.1690
 8127SOL    HW135600   9.779   9.257   2.164  1.3539  4.4713 -1.0867
 8127SOL    HW235601   9.891   9.176   2.250 -2.9849 -2.0379 -1.2298
 8128SOL     OW35602   8.707   9.703   5.727 -0.1032  0.3340  0.2288
 8128SOL    HW135603   8.685   9.784   5.673 -0.2515  0.2013  0.0929
 8128SOL    HW235604   8.739   9.732   5.818 -0.3083  0.5404  0.2366
 8129SOL     OW35605   2.710   1.221   4.898 -0.0648  0.7805 -0.0563
 8129SOL    HW135606   2.685   1.187   4.988  2.2741 -1.1270 -0.0694
 8129SOL    HW235607   2.673   1.313   4.885 -1.2061  0.7058  2.4577
 8130SOL     OW35608   4.123   4.376   6.190  0.4103 -0.1053 -0.4130
 8130SOL    HW135609   4.130   4.475   6.203  2.4704 -0.5032  1.9466
 8130SOL    HW235610   4.179   4.349   6.112  0.9161  0.4527 -0.2474
 8131SOL     OW35611   6.170   9.592   5.047 -0.0821 -0.4467  0.6367
 8131SOL    HW135612   6.258   9.602   5.000  0.2378  1.4292  1.6306
 8131SOL    HW235613   6.117   9.520   5.002  2.4343 -2.4458  0.7611
 8132SOL     OW35614   0.099   3.628   1.697 -0.6511 -0.2203 -0.0166
 8132SOL    HW135615   0.005   3.629   1.734 -0.8677  2.0968 -0.5207
 8132SOL    HW235616   0.125   3.721   1.672  1.8533 -0.8204  0.2255
 8133SOL     OW35617   0.099   3.614   1.209 -0.0968 -0.3139 -0.1255
 8133SOL    HW135618   0.085   3.577   1.301  0.1190  0.6034  0.2881
 8133SOL    HW235619   0.177   3.569   1.166 -1.7847 -2.6043 -0.8836
 8134SOL     OW35620   9.894   4.106   0.055 -0.6915  0.6203  0.0240
 8134SOL    HW135621   9.976   4.127   0.001  0.3769 -0.7257  1.0888
 8134SOL    HW235622   9.852   4.191   0.086  1.8675  1.2793  1.7917
 8135SOL     OW35623   0.787   2.790   0.823  0.4552  0.4646  0.5909
 8135SOL    HW135624   0.786   2.882   0.784  0.5982 -0.0337 -0.5975
 8135SOL    HW235625   0.880   2.766   0.851  0.6545  0.1777 -0.3108
 8136SOL     OW35626   8.067   7.363   2.269 -1.1929 -0.2032  0.0510
 8136SOL    HW135627   8.071   7.360   2.369  0.8261  0.4138  0.0156
 8136SOL    HW235628   8.082   7.272   2.232  2.3228  0.2153  0.2583
 8137SOL     OW35629   8.653   4.191   1.774 -0.2385  0.4492  0.5646
 8137SOL    HW135630   8.565   4.172   1.816  0.3410 -1.8537  0.8167
 8137SOL    HW235631   8.639   4.217   1.678 -1.3416  2.6127  1.2943
 8138SOL     OW35632   0.558   4.879   3.093  0.4865 -0.6529  0.2703
 8138SOL    HW135633   0.517   4.935   3.021  1.0555  0.3403  0.7192
 8138SOL    HW235634   0.592   4.938   3.166  2.0895 -1.5002  0.2356
 8139SOL     OW35635   7.482   3.680   6.090  0.2756  0.2692  0.1714
 8139SOL    HW135636   7.496   3.718   5.999 -1.1349 -2.1836 -1.1170
 8139SOL    HW235637   7.569   3.644   6.125  0.5738  0.1732 -0.6642
 8140SOL     OW35638   0.365   1.180   2.351 -0.3722 -0.1095 -0.5892
 8140SOL    HW135639   0.316   1.253   2.304  1.0688 -0.3009 -2.4641
 8140SOL    HW235640   0.432   1.219   2.414  1.2620  0.2456 -2.4992
 8141SOL     OW35641   8.085   4.609   4.764 -0.4044  0.6384  0.1182
 8141SOL    HW135642   8.096   4.579   4.669 -2.8016 -0.0489  0.0370
 8141SOL    HW235643   8.085   4.709   4.767 -0.9924  0.6684 -0.6976
 8142SOL     OW35644   4.488   7.862   4.497 -0.1414  0.2384 -0.4101
 8142SOL    HW135645   4.457   7.866   4.592  0.0013 -0.4903 -0.3300
 8142SOL    HW235646   4.545   7.781   4.484  0.1431  0.5358 -1.0283
 8143SOL     OW35647   2.395   7.930   0.961  0.1717  0.1535 -0.2285
 8143SOL    HW135648   2.319   7.930   1.027  0.8263  0.9484  0.5412
 8143SOL    HW235649   2.377   7.997   0.889  0.7308  1.2812  0.6627
 8144SOL     OW35650   0.212   1.613   2.929  0.6615  0.6851  0.4518
 8144SOL    HW135651   0.281   1.543   2.908 -0.2279  0.1481 -0.7098
 8144SOL    HW235652   0.137   1.572   2.980 -0.2242  0.6026 -0.8813
 8145SOL     OW35653   4.296   2.724   0.998  0.1416 -0.1969 -0.2320
 8145SOL    HW135654   4.207   2.697   1.033  0.1355 -0.1776 -0.2325
 8145SOL    HW235655   4.329   2.656   0.933 -0.5729  0.5788 -1.4151
 8146SOL     OW35656   0.620   4.308   3.764 -0.0713 -0.2200 -0.3621
 8146SOL    HW135657   0.709   4.345   3.792 -0.1538 -1.7709  2.0946
 8146SOL    HW235658   0.553   4.382   3.762  1.0121  0.7838 -1.2534
 8147SOL     OW35659   1.316   8.476   2.774  0.1264  0.0893  0.0984
 8147SOL    HW135660   1.330   8.518   2.684  0.7546  1.9914  1.0667
 8147SOL    HW235661   1.404   8.449   2.813 -0.2107 -1.5021 -0.1895
 8148SOL     OW35662   2.929   3.353   5.166 -0.4121 -0.5076  0.0308
 8148SOL    HW135663   2.992   3.374   5.092  2.2773 -0.2807  2.3120
 8148SOL    HW235664   2.974   3.295   5.234 -2.6700 -0.4075  1.7036
 8149SOL     OW35665   0.162   4.982   1.626 -0.3241 -0.0990 -0.4754
 8149SOL    HW135666   0.205   4.960   1.713 -0.3520  2.9937  0.3965
 8149SOL    HW235667   0.077   4.931   1.616 -1.3906  1.0482  2.2791
 8150SOL     OW35668   3.353   0.175   0.915  0.4100 -0.0737  0.6780
 8150SOL    HW135669   3.385   0.203   0.824 -0.0658 -0.7269  0.3003
 8150SOL    HW235670   3.305   0.088   0.907 -0.3925  0.2962  1.4275
 8151SOL     OW35671   9.373   4.455   5.908  0.5719 -0.4569 -0.2104
 8151SOL    HW135672   9.459   4.426   5.867  0.0541  0.1035 -1.7387
 8151SOL    HW235673   9.392   4.522   5.980  1.4718 -1.1667  0.2252
 8152SOL     OW35674   7.975   8.494   5.876 -0.3039  0.0126 -0.2588
 8152SOL    HW135675   7.959   8.400   5.907  0.3249  0.2773  0.8610
 8152SOL    HW235676   7.893   8.549   5.894  0.1384  0.2240  1.1669
 8153SOL     OW35677   7.935   5.278   2.005 -0.1353  0.3156 -0.5230
 8153SOL    HW135678   8.003   5.221   2.052 -2.5563 -1.4001  1.0441
 8153SOL    HW235679   7.962   5.374   2.012  2.2906 -0.3515 -0.2336
 8154SOL     OW35680   9.043   7.424   0.667 -0.1470  0.3373  0.2182
 8154SOL    HW135681   9.031   7.340   0.720 -0.8474 -0.0750 -0.5734
 8154SOL    HW235682   9.115   7.411   0.599  0.4845  0.7376  0.8054
 8155SOL     OW35683   1.005   7.681   5.138  0.2591  0.0105  0.2135
 8155SOL    HW135684   1.058   7.717   5.062 -0.0552 -1.0914 -0.5497
 8155SOL    HW235685   0.982   7.755   5.201  0.3549  0.9813 -0.8646
 8156SOL     OW35686   9.635   6.741   0.512 -0.1901  0.1257  0.1202
 8156SOL    HW135687   9.565   6.685   0.470 -2.2130  1.8325  1.1323
 8156SOL    HW235688   9.692   6.783   0.441 -0.0212 -1.4663 -0.6932
 8157SOL     OW35689   1.989   9.881   2.169  0.3993 -0.2687  0.2579
 8157SOL    HW135690   1.894   9.863   2.194 -0.1634 -1.0138 -2.2883
 8157SOL    HW235691   1.993   9.934   2.085  2.2385 -0.7286  0.0196
 8158SOL     OW35692   0.343   6.295   5.892 -0.0505 -0.0124  0.0774
 8158SOL    HW135693   0.312   6.363   5.826  2.1963  0.9661 -0.0106
 8158SOL    HW235694   0.343   6.335   5.984 -1.8131 -0.9257  0.4964
 8159SOL     OW35695   3.748   7.299   0.917  0.0352  0.4834  0.1893
 8159SOL    HW135696   3.704   7.327   1.002  0.2363  2.0467 -0.2074
 8159SOL    HW235697   3.714   7.356   0.841  0.7128 -0.1179 -0.5780
 8160SOL     OW35698   7.011   4.103   1.582  0.6400 -0.8746 -0.7473
 8160SOL    HW135699   7.043   4.014   1.614  1.6282 -0.9609 -1.9439
 8160SOL    HW235700   7.084   4.148   1.530  0.7741  1.3811  1.2967
 8161SOL     OW35701   2.254   2.330   3.929 -0.0205  0.4222  0.4344
 8161SOL    HW135702   2.193   2.254   3.951  2.1394 -1.6161 -0.4914
 8161SOL    HW235703   2.283   2.375   4.014 -2.7528  1.4202  0.8919
 8162SOL     OW35704   2.583   5.508   6.178 -0.2897  0.3043  0.0334
 8162SOL    HW135705   2.508   5.459   6.224  0.9672 -1.6263  0.0811
 8162SOL    HW235706   2.623   5.573   6.242 -0.6647 -0.0510  0.6479
 8163SOL     OW35707   0.957   4.533   6.739 -0.8412  0.1083  0.2956
 8163SOL    HW135708   0.987   4.619   6.781 -1.0154 -0.2320  1.1317
 8163SOL    HW235709   0.954   4.544   6.640  0.3572  0.6854  0.3112
 8164SOL     OW35710   2.239   2.878   5.236  0.4184  0.0704  0.8187
 8164SOL    HW135711   2.268   2.970   5.264  0.6246  0.0156  0.7848
 8164SOL    HW235712   2.317   2.829   5.197 -0.0946  0.4898 -0.7688
 8165SOL     OW35713   7.861   3.752   4.456 -0.4781  0.1794 -0.2691
 8165SOL    HW135714   7.784   3.760   4.392 -0.4397  2.1821 -0.0719
 8165SOL    HW235715   7.838   3.685   4.527 -2.1289  0.8931 -0.1013
 8166SOL     OW35716   3.942   6.458   0.640 -0.2442 -0.0774 -0.6153
 8166SOL    HW135717   4.018   6.401   0.671  0.8274  0.6589 -1.8456
 8166SOL    HW235718   3.857   6.406   0.646  0.6257 -1.5953 -1.1141
 8167SOL     OW35719   1.778   0.438   1.140  0.1153  0.6738 -0.6895
 8167SOL    HW135720   1.870   0.446   1.179 -0.8298  1.6532  1.4576
 8167SOL    HW235721   1.761   0.516   1.080  0.7353  0.3889 -1.2493
 8168SOL     OW35722   9.125   1.010   4.966  0.5281  0.0121  0.0777
 8168SOL    HW135723   9.150   1.083   5.031  1.7379  0.4613 -0.8747
 8168SOL    HW235724   9.033   0.978   4.987 -1.0256  3.4884 -0.9279
 8169SOL     OW35725   3.560   4.068   2.039  0.0323 -0.0770  0.8072
 8169SOL    HW135726   3.595   4.020   1.959 -0.9767 -0.8315  0.8146
 8169SOL    HW235727   3.607   4.036   2.121 -0.1566 -0.5642  0.7273
 8170SOL     OW35728   2.339   3.779   0.169  0.0896  0.0822 -0.5646
 8170SOL    HW135729   2.427   3.761   0.126  0.2927 -0.0100 -0.1206
 8170SOL    HW235730   2.353   3.798   0.266 -0.4768 -0.9811 -0.2634
 8171SOL     OW35731   3.225   9.401   2.225 -0.1565  0.2998  0.6951
 8171SOL    HW135732   3.309   9.403   2.279  0.5367  2.1907 -0.4181
 8171SOL    HW235733   3.226   9.320   2.167  0.5751 -0.0500  1.1783
 8172SOL     OW35734   1.213   8.929   2.362  0.3094  0.5467  0.0242
 8172SOL    HW135735   1.271   8.917   2.443 -0.2339  2.6766  0.7480
 8172SOL    HW235736   1.212   8.844   2.309  2.1654 -0.2774  1.2658
 8173SOL     OW35737   8.244   7.155   1.826  0.0226 -0.7547 -0.3223
 8173SOL    HW135738   8.229   7.192   1.917  0.3684  1.4359 -1.1282
 8173SOL    HW235739   8.273   7.059   1.833 -0.0819 -0.6423  1.8454
 8174SOL     OW35740   4.436   1.716   0.590  0.5643 -0.3288 -0.2634
 8174SOL    HW135741   4.403   1.787   0.653  1.1105 -1.1202  0.9416
 8174SOL    HW235742   4.514   1.751   0.538  0.8771 -0.0517  0.3808
 8175SOL     OW35743   5.994   2.609   3.541 -0.1418 -0.2880  0.1072
 8175SOL    HW135744   6.036   2.640   3.627 -1.0499  1.6655 -0.1363
 8175SOL    HW235745   6.066   2.576   3.480  0.4727 -2.1798  1.7774
 8176SOL     OW35746   3.450   2.311   3.415  0.0586 -0.6692  0.2199
 8176SOL    HW135747   3.357   2.304   3.380 -0.9439 -1.5275  2.8583
 8176SOL    HW235748   3.515   2.285   3.344 -1.8923 -3.0588 -0.7716
 8177SOL     OW35749   0.750   5.808   5.023 -0.4598  0.3520  0.1956
 8177SOL    HW135750   0.699   5.797   5.108  1.1594 -0.8349  1.0622
 8177SOL    HW235751   0.717   5.743   4.955 -0.7156  0.2226  0.4423
 8178SOL     OW35752   5.285   1.301   3.349 -0.3228 -0.3903 -0.0652
 8178SOL    HW135753   5.372   1.344   3.323 -0.5228  0.0779  0.0300
 8178SOL    HW235754   5.284   1.286   3.448 -1.7222  2.7561  0.4539
 8179SOL     OW35755   0.109   6.302   0.918 -0.4695  0.0611 -0.2799
 8179SOL    HW135756   0.043   6.306   0.993 -0.6884  0.0870 -0.4764
 8179SOL    HW235757   0.068   6.336   0.834  0.5145  2.3182  0.1204
 8180SOL     OW35758   4.847   4.101   1.128 -0.3370  0.5197  0.6099
 8180SOL    HW135759   4.852   4.193   1.167 -0.4926  0.3815  0.9511
 8180SOL    HW235760   4.801   4.039   1.192  1.6286 -0.2800  1.3215
 8181SOL     OW35761   6.388   1.805   1.036  0.2858  0.0650  0.4409
 8181SOL    HW135762   6.346   1.718   1.060 -1.5535  0.0559 -2.4328
 8181SOL    HW235763   6.335   1.880   1.076  0.2558 -0.0664  0.6467
 8182SOL     OW35764   8.957   0.962   5.614 -0.2506 -0.0557  0.0725
 8182SOL    HW135765   8.989   0.894   5.548 -0.9461 -0.6718  0.3552
 8182SOL    HW235766   8.876   1.009   5.578 -1.4663 -1.3577  1.0313
 8183SOL     OW35767   9.097   2.205   5.313 -0.2876  0.0586 -0.2415
 8183SOL    HW135768   9.072   2.115   5.349  1.3810 -0.0573  0.6807
 8183SOL    HW235769   9.039   2.227   5.234 -0.8664 -1.7104 -0.3286
 8184SOL     OW35770   4.394   8.540   6.113 -0.0940 -0.1753 -0.7536
 8184SOL    HW135771   4.472   8.584   6.069  0.5763  0.0904  0.6777
 8184SOL    HW235772   4.359   8.598   6.186 -0.8855 -0.8195 -0.6118
 8185SOL     OW35773   3.236   7.889   2.377  0.1645 -0.0381 -0.0818
 8185SOL    HW135774   3.315   7.882   2.438  0.2508  0.6174 -0.1245
 8185SOL    HW235775   3.153   7.901   2.432  0.0598 -0.9518 -0.0256
 8186SOL     OW35776   5.273   8.182   3.396 -0.2831 -0.2139  0.0724
 8186SOL    HW135777   5.299   8.161   3.490 -1.8439  1.5282  0.9409
 8186SOL    HW235778   5.186   8.137   3.374 -1.4963  1.7999  0.5455
 8187SOL     OW35779   0.522   0.195   6.722  0.4413  0.7375  0.2828
 8187SOL    HW135780   0.480   0.244   6.798  0.4671 -2.0777  2.2140
 8187SOL    HW235781   0.451   0.156   6.664  0.4177  1.0066  0.1292
 8188SOL     OW35782   4.429   7.952   3.550  0.1545  0.2742  0.3301
 8188SOL    HW135783   4.395   7.970   3.458  0.8016 -0.0074  0.0310
 8188SOL    HW235784   4.515   7.901   3.544  0.6246  0.9631  1.0685
 8189SOL     OW35785   4.937   0.726   2.144 -0.2137 -0.2252 -0.4597
 8189SOL    HW135786   5.031   0.704   2.169 -0.4316 -0.5749  0.0508
 8189SOL    HW235787   4.930   0.824   2.125  0.5267 -0.4032 -1.7191
 8190SOL     OW35788   7.714   7.592   4.013  0.0147 -0.1234  0.0677
 8190SOL    HW135789   7.740   7.524   4.082  0.4049  0.8757  0.9293
 8190SOL    HW235790   7.641   7.650   4.049 -1.6600 -1.2840 -1.3904
 8191SOL     OW35791   8.748   7.088   6.711  0.2426 -0.1572  0.0730
 8191SOL    HW135792   8.666   7.143   6.700  1.0828  1.0457 -0.2446
 8191SOL    HW235793   8.811   7.133   6.773  1.9140  0.3976 -1.9731
 8192SOL     OW35794   8.198   0.820   0.395 -0.0863 -0.5841  0.3937
 8192SOL    HW135795   8.193   0.809   0.296  1.7085 -0.9140  0.3168
 8192SOL    HW235796   8.185   0.731   0.439  2.0191 -0.9690  0.3046
 8193SOL     OW35797   9.920   5.334   4.826  0.5028  0.9336 -0.0171
 8193SOL    HW135798   9.845   5.372   4.880  0.5174  2.7236 -1.2304
 8193SOL    HW235799   9.889   5.319   4.732  0.5990 -1.7797  0.3275
 8194SOL     OW35800   7.254   9.641   5.196  0.0294 -0.0506  0.0600
 8194SOL    HW135801   7.155   9.652   5.209 -0.0893 -0.4972 -0.4399
 8194SOL    HW235802   7.294   9.603   5.280 -0.4147 -1.0335 -0.1652
 8195SOL     OW35803   2.638   1.695   5.074  0.2188 -0.5406  0.0474
 8195SOL    HW135804   2.573   1.705   5.149  0.4097  0.6286  0.0630
 8195SOL    HW235805   2.663   1.785   5.038  1.8469 -0.9675  0.0444
 8196SOL     OW35806   9.815   2.241   4.265  0.5369  0.2559  0.6160
 8196SOL    HW135807   9.810   2.305   4.188  1.7651  0.1229  0.4171
 8196SOL    HW235808   9.837   2.150   4.230  1.1970  0.2140  1.1313
 8197SOL     OW35809   2.913   7.059   1.570  0.3142  0.3036 -0.3276
 8197SOL    HW135810   2.859   7.136   1.537 -0.9047 -0.0575  0.7466
 8197SOL    HW235811   2.852   6.981   1.585  1.2577 -0.3307  0.2422
 8198SOL     OW35812   0.129   7.585   5.031  0.0312 -0.1726  0.4299
 8198SOL    HW135813   0.170   7.505   4.988 -0.2066  1.0436 -2.1457
 8198SOL    HW235814   0.201   7.650   5.055 -0.0075 -0.0174  0.1199
 8199SOL     OW35815   3.122   5.428   2.486 -0.5350  0.0742  0.1541
 8199SOL    HW135816   3.033   5.439   2.530 -1.1405  1.1234 -1.3088
 8199SOL    HW235817   3.194   5.461   2.547 -1.0545 -1.5368  1.6732
 8200SOL     OW35818   1.973   8.384   5.344  0.9375 -0.2783  0.3178
 8200SOL    HW135819   1.963   8.416   5.438 -0.7003  0.4997 -0.1049
 8200SOL    HW235820   1.968   8.461   5.281  2.1551 -0.7781 -0.4008
 8201SOL     OW35821   4.603   4.827   5.770  0.6048 -0.1784 -0.1371
 8201SOL    HW135822   4.566   4.835   5.677  0.8398 -1.4758 -0.3592
 8201SOL    HW235823   4.665   4.904   5.788  0.2678  0.2845 -0.9128
 8202SOL     OW35824   1.194   4.282   2.032 -0.3520 -0.0145 -0.8877
 8202SOL    HW135825   1.249   4.198   2.031  1.0549  0.8850 -0.1783
 8202SOL    HW235826   1.103   4.261   2.067  0.6573 -0.8515  1.3184
 8203SOL     OW35827   3.393   1.521   5.545  0.6250 -0.1077 -0.2984
 8203SOL    HW135828   3.402   1.604   5.490  0.6076  0.0084 -0.1279
 8203SOL    HW235829   3.296   1.499   5.557  0.5793  0.7184  0.9463
 8204SOL     OW35830   0.607   8.390   3.057  0.3515  0.0247  0.2452
 8204SOL    HW135831   0.606   8.455   3.134  1.8007 -0.7614  0.9597
 8204SOL    HW235832   0.525   8.403   3.001 -0.0854  1.4915  1.1908
 8205SOL     OW35833   9.627   2.270   6.529 -0.7020 -0.5965 -0.0670
 8205SOL    HW135834   9.641   2.368   6.546  0.4645 -1.1231  2.0937
 8205SOL    HW235835   9.698   2.236   6.468 -0.0156 -0.5185  0.6967
 8206SOL     OW35836   7.338   2.357   0.656 -0.4282  0.1937  0.0353
 8206SOL    HW135837   7.390   2.441   0.640 -1.0161  0.4939 -0.3114
 8206SOL    HW235838   7.399   2.278   0.647 -0.2924  0.4658 -1.6135
 8207SOL     OW35839   2.915   3.765   0.050 -0.5549  0.8967 -0.1269
 8207SOL    HW135840   2.934   3.701  -0.025 -0.6956  0.1070  0.5133
 8207SOL    HW235841   2.932   3.721   0.137 -0.8247  1.6800  0.3269
 8208SOL     OW35842   5.082   0.058   2.048  0.0881 -0.2130  0.0047
 8208SOL    HW135843   5.001   0.091   2.096  0.8719 -0.3276  1.4366
 8208SOL    HW235844   5.145   0.134   2.033 -0.2530 -0.1390 -1.0334
 8209SOL     OW35845   3.941   6.671   2.033 -0.5774 -0.0505  0.0214
 8209SOL    HW135846   3.921   6.657   2.130 -0.8819 -0.2195 -0.0659
 8209SOL    HW235847   3.875   6.734   1.994 -1.2851 -1.0271 -0.3931
 8210SOL     OW35848   6.095   0.340   5.662  0.4174  0.4011  0.4317
 8210SOL    HW135849   6.114   0.284   5.582 -2.1693  1.3177 -0.8566
 8210SOL    HW235850   6.049   0.284   5.731  1.7030 -0.1174  0.8912
 8211SOL     OW35851   3.282   0.479   4.898  0.2640 -0.4124 -0.5115
 8211SOL    HW135852   3.260   0.564   4.850  0.1184 -0.0934  0.1151
 8211SOL    HW235853   3.379   0.458   4.885 -0.1924 -1.3811 -2.5811
 8212SOL     OW35854   5.259   3.924   0.979 -0.0959  0.1347 -0.5899
 8212SOL    HW135855   5.201   3.979   1.039  0.4777 -0.0543  0.1592
 8212SOL    HW235856   5.348   3.911   1.022 -0.0643 -0.9842 -0.9615
 8213SOL     OW35857   5.310   2.110   2.584  0.3940 -0.0379 -0.0759
 8213SOL    HW135858   5.295   2.065   2.496 -0.0770  1.4977 -0.7817
 8213SOL    HW235859   5.276   2.051   2.657 -0.2071 -0.8409 -0.9905
 8214SOL     OW35860   2.139   1.049   6.700 -0.0562 -0.5124 -0.5879
 8214SOL    HW135861   2.042   1.028   6.694  0.1813 -1.3213 -1.7641
 8214SOL    HW235862   2.153   1.148   6.693 -0.7378 -0.4559 -1.1326
 8215SOL     OW35863   4.098   3.654   0.391 -0.3411  0.2029 -0.4518
 8215SOL    HW135864   4.147   3.567   0.393 -1.0720 -0.3337 -3.3222
 8215SOL    HW235865   4.000   3.636   0.401 -0.2637  0.9664  1.8237
 8216SOL     OW35866   5.138   7.746   5.296 -0.0654 -0.1638 -0.0494
 8216SOL    HW135867   5.176   7.811   5.362 -0.8653 -0.9038  1.1514
 8216SOL    HW235868   5.213   7.699   5.249  0.5257  1.7359 -1.0762
 8217SOL     OW35869   9.238   7.452   4.641 -0.2571 -0.0756  0.0843
 8217SOL    HW135870   9.184   7.491   4.567 -1.7852 -1.2772  0.5512
 8217SOL    HW235871   9.260   7.523   4.708  0.3379  0.8135 -1.0358
 8218SOL     OW35872   4.660   9.016   2.272  0.2774  0.1639 -0.5183
 8218SOL    HW135873   4.713   8.946   2.319  1.2415  0.7354 -0.7529
 8218SOL    HW235874   4.714   9.100   2.263 -1.1259  1.2025  0.4358
 8219SOL     OW35875   1.361   5.176   6.668  0.0545 -0.5393 -0.4374
 8219SOL    HW135876   1.403   5.152   6.581 -0.1660 -0.8475 -0.4627
 8219SOL    HW235877   1.400   5.120   6.741  1.6988  1.1332  0.0021
 8220SOL     OW35878   8.395   5.253   1.982 -0.6007  0.3266  0.1294
 8220SOL    HW135879   8.301   5.245   2.015 -0.2167 -0.8246  0.9856
 8220SOL    HW235880   8.439   5.163   1.983  0.5009  0.8438 -0.2877
 8221SOL     OW35881   2.967   4.538   4.778  0.0034 -0.1512 -0.4268
 8221SOL    HW135882   2.976   4.604   4.852  3.0316 -1.3338  0.3488
 8221SOL    HW235883   2.942   4.449   4.816 -0.0279 -0.3890 -1.0030
 8222SOL     OW35884   8.614   4.782   6.578 -0.5430  0.1580  0.2232
 8222SOL    HW135885   8.554   4.706   6.604 -0.8337  0.4782  0.4988
 8222SOL    HW235886   8.701   4.775   6.627 -0.2298 -0.4861 -0.4159
 8223SOL     OW35887   8.218   0.973   4.158 -0.2663  0.0126 -0.2954
 8223SOL    HW135888   8.259   1.036   4.093  1.8768  1.3049  2.2127
 8223SOL    HW235889   8.188   1.023   4.239  0.6922 -2.0532  1.3810
 8224SOL     OW35890   8.919   8.321   2.429  0.1040  0.5460 -0.5584
 8224SOL    HW135891   8.951   8.283   2.516 -0.7911  1.2329  0.0809
 8224SOL    HW235892   8.830   8.282   2.407  0.3949  0.2685 -1.2430
 8225SOL     OW35893   9.766   6.268   1.878  0.0392  0.1578  0.2299
 8225SOL    HW135894   9.789   6.349   1.823  1.6823 -0.2761  0.2730
 8225SOL    HW235895   9.744   6.297   1.971 -1.7020  0.7842 -0.3480
 8226SOL     OW35896   5.748   7.404   3.612 -0.3124  0.0264  0.3197
 8226SOL    HW135897   5.793   7.375   3.528  1.0730 -1.0750  1.4063
 8226SOL    HW235898   5.652   7.378   3.610  0.1937 -1.8961 -0.0551
 8227SOL     OW35899   9.496   1.530   0.627 -0.2984  0.0724 -0.2175
 8227SOL    HW135900   9.442   1.590   0.686 -1.2116 -1.5861  0.6645
 8227SOL    HW235901   9.576   1.497   0.676  0.0941  0.4136 -0.6294
 8228SOL     OW35902   4.760   4.512   2.683  0.6342  0.0497 -0.1548
 8228SOL    HW135903   4.781   4.420   2.650  2.5087  0.0895  0.8637
 8228SOL    HW235904   4.772   4.578   2.609 -0.3710 -0.4688 -0.7936
 8229SOL     OW35905   8.190   1.587   5.642 -0.8091  0.9320 -0.0994
 8229SOL    HW135906   8.161   1.491   5.639 -0.3922  0.8232 -0.8621
 8229SOL    HW235907   8.177   1.623   5.734 -2.2759  0.5561 -0.1407
 8230SOL     OW35908   3.544   2.238   3.905 -0.2717  0.4485  0.6349
 8230SOL    HW135909   3.630   2.250   3.953  0.3125 -1.1626  0.0012
 8230SOL    HW235910   3.539   2.303   3.829  0.8726 -0.2075 -0.0013
 8231SOL     OW35911   1.782   5.424   1.912  0.5033 -0.3224  0.4229
 8231SOL    HW135912   1.694   5.470   1.904  0.5798 -0.1216  0.7824
 8231SOL    HW235913   1.769   5.336   1.958  0.8677  0.7750  2.6925
 8232SOL     OW35914   8.562   8.166   3.809 -0.1985 -0.2997  0.4787
 8232SOL    HW135915   8.603   8.125   3.890 -1.5107  0.7077  1.6798
 8232SOL    HW235916   8.549   8.264   3.824 -1.2672 -0.2677 -0.5936
 8233SOL     OW35917   9.164   0.185   6.321 -0.1848 -0.1667 -0.1328
 8233SOL    HW135918   9.219   0.167   6.403 -0.5143  0.4490  0.2348
 8233SOL    HW235919   9.220   0.230   6.252 -0.1026  0.0114  0.0515
 8234SOL     OW35920   8.838   1.786   0.302  0.4038 -0.6914 -0.0479
 8234SOL    HW135921   8.812   1.854   0.370 -0.6833  1.7993 -2.8566
 8234SOL    HW235922   8.930   1.806   0.267  0.7947 -1.7248  0.3506
 8235SOL     OW35923   8.399   5.459   4.805 -0.7633 -0.1749 -0.2936
 8235SOL    HW135924   8.407   5.484   4.902  1.6654 -1.5093 -0.0818
 8235SOL    HW235925   8.341   5.524   4.758  0.3568  2.1813  1.4750
 8236SOL     OW35926   3.518   7.219   2.474 -0.1704 -0.2443  0.1030
 8236SOL    HW135927   3.506   7.307   2.428  1.8765  0.1412  0.2704
 8236SOL    HW235928   3.509   7.145   2.407 -0.4001  0.1553 -0.3147
 8237SOL     OW35929   8.528   8.652   0.222 -0.4002 -0.1442 -0.5617
 8237SOL    HW135930   8.439   8.612   0.242  0.4139 -0.7312  2.0351
 8237SOL    HW235931   8.586   8.582   0.181 -0.4268 -0.3835 -0.1953
 8238SOL     OW35932   6.461   7.266   5.067  0.1714 -0.1304 -0.0165
 8238SOL    HW135933   6.361   7.263   5.076  0.1710  0.6954  0.2503
 8238SOL    HW235934   6.485   7.300   4.976  0.2069  2.0898  0.7904
 8239SOL     OW35935   7.698   0.914   6.140  0.0457  0.1176 -0.4433
 8239SOL    HW135936   7.633   0.888   6.211 -0.6632 -0.2295 -1.2067
 8239SOL    HW235937   7.648   0.954   6.063  0.8437  0.8797 -0.5690
 8240SOL     OW35938   4.116   8.954   2.001  0.1867 -0.2064 -0.0024
 8240SOL    HW135939   4.194   8.906   1.960  1.5832  0.6060  1.6551
 8240SOL    HW235940   4.101   8.920   2.093 -0.4824  0.7053  0.2289
 8241SOL     OW35941   2.601   6.962   3.339 -0.5202  0.1853  0.0401
 8241SOL    HW135942   2.511   6.964   3.382  0.6646  0.3826  2.5660
 8241SOL    HW235943   2.631   6.868   3.329 -1.9039 -0.0152 -2.8398
 8242SOL     OW35944   2.930   4.076   0.721 -0.4860 -0.4826  0.2954
 8242SOL    HW135945   2.929   4.175   0.733 -1.5020 -0.4154 -0.2886
 8242SOL    HW235946   2.886   4.052   0.634  1.9267 -1.3085 -0.7352
 8243SOL     OW35947   1.502   2.360   0.040 -0.2523 -0.3304  0.1495
 8243SOL    HW135948   1.472   2.418  -0.035  0.3157  1.3094  1.1766
 8243SOL    HW235949   1.433   2.363   0.113 -1.4541 -2.9566 -0.8023
 8244SOL     OW35950   7.146   2.529   1.831 -0.3117  0.6754  0.3622
 8244SOL    HW135951   7.182   2.614   1.793 -0.9150  0.9880  0.4793
 8244SOL    HW235952   7.106   2.474   1.758  0.4781  0.2876  0.2186
 8245SOL     OW35953   7.488   1.301   1.627 -0.3028  0.2226 -0.3523
 8245SOL    HW135954   7.529   1.307   1.718  0.3991 -1.8637 -0.5007
 8245SOL    HW235955   7.392   1.325   1.632 -0.4417 -0.5675  1.0969
 8246SOL     OW35956   1.158   3.159   3.160 -0.4835  0.5566 -0.5313
 8246SOL    HW135957   1.168   3.230   3.229  0.0807 -1.0235  1.0375
 8246SOL    HW235958   1.193   3.193   3.072  0.3914  1.9767  0.3584
 8247SOL     OW35959   0.238   9.969   1.286  0.1763 -0.2744 -0.5842
 8247SOL    HW135960   0.245  10.068   1.280  0.7009 -0.2903 -0.2885
 8247SOL    HW235961   0.218   9.942   1.380  2.3075 -0.5562 -0.1900
 8248SOL     OW35962   4.424   1.288   2.111  0.1348  0.1437 -0.3262
 8248SOL    HW135963   4.509   1.339   2.128  1.5771 -2.0495 -0.7492
 8248SOL    HW235964   4.435   1.194   2.145 -1.0617 -1.0101 -3.0466
 8249SOL     OW35965   1.664   2.065   5.269  0.1509  0.0816 -1.0333
 8249SOL    HW135966   1.634   2.141   5.212  0.6611  1.0130 -0.0697
 8249SOL    HW235967   1.631   1.979   5.230 -1.6425  0.8971 -1.3579
 8250SOL     OW35968   3.756   7.469   5.711 -0.0638  0.4068  0.4363
 8250SOL    HW135969   3.738   7.426   5.800 -0.6297 -0.0042  0.1267
 8250SOL    HW235970   3.699   7.426   5.641 -0.2450  1.3128  0.0225
 8251SOL     OW35971   9.836   7.629   4.472  0.1641 -0.0229  0.1111
 8251SOL    HW135972   9.863   7.541   4.432  0.6133  0.9484 -1.7152
 8251SOL    HW235973   9.891   7.647   4.553  0.7034 -0.9905 -0.0356
 8252SOL     OW35974   9.211   6.394   3.400  0.2216  0.0255  0.0758
 8252SOL    HW135975   9.141   6.427   3.463  1.7508  2.9571  0.3272
 8252SOL    HW235976   9.204   6.443   3.313  0.1805 -1.6805 -0.8968
 8253SOL     OW35977   3.394   7.632   5.964  0.3390 -0.0031  0.1674
 8253SOL    HW135978   3.440   7.635   6.053  0.5102 -0.4308  0.0943
 8253SOL    HW235979   3.425   7.708   5.908 -2.0789  2.0985  1.5984
 8254SOL     OW35980   8.102   4.951   4.521  0.3011  0.1461 -0.1169
 8254SOL    HW135981   8.117   5.022   4.453  0.0843 -0.8601 -1.2400
 8254SOL    HW235982   8.188   4.928   4.566  1.3426 -2.2107 -3.1164
 8255SOL     OW35983   7.857   5.589   1.201 -0.2748 -0.4878  0.3941
 8255SOL    HW135984   7.762   5.570   1.175 -1.7037  0.9679  4.2577
 8255SOL    HW235985   7.888   5.671   1.153 -2.2204  1.1027  1.7671
 8256SOL     OW35986   8.264   3.461   1.578  0.2013 -0.1873 -0.3372
 8256SOL    HW135987   8.244   3.439   1.674 -1.0022  2.6818  0.1134
 8256SOL    HW235988   8.352   3.420   1.552  0.4288 -1.1992  1.9173
 8257SOL     OW35989   3.944   0.092   0.138  0.2909 -0.2643 -0.3876
 8257SOL    HW135990   4.034   0.077   0.098  1.1195  0.5280  1.1087
 8257SOL    HW235991   3.902   0.004   0.158  0.9612 -0.6443 -0.6103
 8258SOL     OW35992   5.943   1.126   5.050 -0.2850  0.3088 -0.3841
 8258SOL    HW135993   5.994   1.206   5.081  0.0091  0.2826 -0.7969
 8258SOL    HW235994   5.845   1.148   5.048 -0.3508  0.1610  0.9976
 8259SOL     OW35995   2.971   7.549   2.547  0.2178  0.4035 -0.2461
 8259SOL    HW135996   2.888   7.593   2.582 -0.7933 -1.2241 -0.5746
 8259SOL    HW235997   3.016   7.500   2.621  0.2447  0.2918 -0.3366
 8260SOL     OW35998   1.504   5.158   3.711 -0.4818  0.5512 -0.2762
 8260SOL    HW135999   1.407   5.177   3.694 -0.4669  0.4041 -0.5220
 8260SOL    HW236000   1.560   5.231   3.672 -0.4877  0.5889 -0.2142
 8261SOL     OW36001   9.618   4.393   4.262  0.3012 -0.1034 -0.1100
 8261SOL    HW136002   9.620   4.426   4.356 -0.3714 -0.4975  0.0463
 8261SOL    HW236003   9.527   4.357   4.241  0.3522  0.2564 -1.0035
 8262SOL     OW36004   9.761   9.199   6.254  0.2845 -0.2075 -0.4381
 8262SOL    HW136005   9.733   9.111   6.216 -0.4373  0.1181 -0.6637
 8262SOL    HW236006   9.802   9.185   6.344 -1.5897 -0.5926  0.3715
 8263SOL     OW36007   8.155   5.159   2.121  0.3026 -0.6157  0.2196
 8263SOL    HW136008   8.177   5.080   2.064  1.2802  1.1872 -1.9719
 8263SOL    HW236009   8.220   5.166   2.196  1.0170 -1.1471 -0.3513
 8264SOL     OW36010   8.316   4.253   4.384 -0.4265  0.4257 -0.2714
 8264SOL    HW136011   8.337   4.168   4.336 -0.7258  1.2390 -1.8648
 8264SOL    HW236012   8.218   4.269   4.382 -0.5552 -0.0111  1.4629
 8265SOL     OW36013   1.573   5.360   5.551  0.1893  0.0387  0.1501
 8265SOL    HW136014   1.587   5.304   5.469  0.3694  0.0064  0.2035
 8265SOL    HW236015   1.482   5.402   5.548 -0.0068 -0.3793  0.1799
 8266SOL     OW36016   8.872   1.514   0.800 -0.3705 -0.1626  0.2615
 8266SOL    HW136017   8.970   1.532   0.795 -0.5973  1.0661  0.0814
 8266SOL    HW236018   8.850   1.433   0.746  0.5577 -0.4979  0.3822
 8267SOL     OW36019   1.221   2.279   2.531 -0.7524  0.2746  0.2844
 8267SOL    HW136020   1.213   2.180   2.531 -1.7934  0.3491 -0.7866
 8267SOL    HW236021   1.314   2.305   2.504 -0.4992 -0.4056  0.5028
 8268SOL     OW36022   2.568   8.183   0.749 -0.1660 -0.0404 -0.9326
 8268SOL    HW136023   2.472   8.158   0.763  0.5903 -2.2637  0.6326
 8268SOL    HW236024   2.600   8.239   0.825  0.4146 -1.3159 -0.2215
 8269SOL     OW36025   7.379   3.729   1.302  0.6876  0.4961 -0.2388
 8269SOL    HW136026   7.357   3.827   1.302  1.5904  0.7351 -1.5875
 8269SOL    HW236027   7.368   3.691   1.393 -0.8714  1.5839  0.0325
 8270SOL     OW36028   8.625   3.921   4.890 -0.1134 -0.6654  0.0409
 8270SOL    HW136029   8.576   3.908   4.976  0.0951  0.6207  0.3649
 8270SOL    HW236030   8.595   4.006   4.847 -0.5656 -1.5421 -1.4004
 8271SOL     OW36031   9.090   9.659   3.077  0.1018  0.4188 -0.5228
 8271SOL    HW136032   9.111   9.740   3.132 -0.2861 -0.7720  1.4258
 8271SOL    HW236033   9.158   9.650   3.005  1.0627  1.6050  0.2102
 8272SOL     OW36034   2.586   7.737   4.062 -0.1216 -0.5225  0.1352
 8272SOL    HW136035   2.507   7.799   4.063  2.2537  2.8696 -4.6928
 8272SOL    HW236036   2.656   7.771   4.125  0.8706  1.3479 -1.9423
 8273SOL     OW36037   0.026   5.891   4.499  0.2582  0.4196 -0.0775
 8273SOL    HW136038   0.050   5.988   4.504  1.1194  0.3141 -1.7852
 8273SOL    HW236039  -0.072   5.880   4.516  0.1248  1.5973 -0.0272
 8274SOL     OW36040   0.504   8.169   1.108 -0.2018 -0.2316 -0.5275
 8274SOL    HW136041   0.557   8.106   1.165  0.0044 -0.4494 -0.9599
 8274SOL    HW236042   0.524   8.153   1.012 -1.4218 -0.6507 -0.7268
 8275SOL     OW36043   0.713   4.396   6.715  0.2384  0.1703  0.2095
 8275SOL    HW136044   0.812   4.403   6.718  0.1934  0.6939  0.5893
 8275SOL    HW236045   0.682   4.327   6.781  0.2654  0.9291  1.0212
 8276SOL     OW36046   5.708   3.981   0.207 -0.3281 -0.1338  0.3359
 8276SOL    HW136047   5.664   4.010   0.292 -1.3750  0.5805 -0.4213
 8276SOL    HW236048   5.637   3.955   0.141  0.4446 -0.0450 -0.5333
 8277SOL     OW36049   7.566   3.877   0.033 -0.0016 -0.5383  0.2227
 8277SOL    HW136050   7.604   3.892   0.124  0.3907 -1.3505  0.2014
 8277SOL    HW236051   7.634   3.900  -0.036 -1.1724  2.6307  0.0319
 8278SOL     OW36052   2.589   9.489   1.993 -0.2807  0.7613  0.1918
 8278SOL    HW136053   2.575   9.539   1.907  2.4582  0.8275 -0.2315
 8278SOL    HW236054   2.641   9.545   2.057  0.8886 -0.7005  0.5396
 8279SOL     OW36055   4.990   2.101   4.634  0.1098  0.2371 -0.6528
 8279SOL    HW136056   4.909   2.128   4.686  0.0052 -0.5166 -0.4246
 8279SOL    HW236057   5.056   2.176   4.634 -0.3790  0.6677 -0.4187
 8280SOL     OW36058   9.042   3.638   5.796 -0.6177  0.1844  0.0113
 8280SOL    HW136059   9.005   3.676   5.882 -0.3104 -0.4436  0.4231
 8280SOL    HW236060   9.094   3.709   5.749 -1.6755  0.8473 -0.1828
 8281SOL     OW36061   1.408   7.429   5.204 -0.1231 -0.2406 -0.1003
 8281SOL    HW136062   1.403   7.506   5.268 -0.7451 -0.0217 -0.4128
 8281SOL    HW236063   1.351   7.354   5.238 -0.6115 -0.0508 -0.4969
 8282SOL     OW36064   2.079   9.613   2.195  0.0369  0.5992 -0.4131
 8282SOL    HW136065   2.056   9.702   2.155 -1.4600 -0.3546 -1.7340
 8282SOL    HW236066   2.140   9.564   2.132 -0.4879  0.0166 -0.4675
 8283SOL     OW36067   8.505   7.298   5.662  0.2330  0.0651  0.3849
 8283SOL    HW136068   8.479   7.288   5.758 -0.6373  1.7113  0.3487
 8283SOL    HW236069   8.603   7.315   5.655  0.6050 -1.7683  0.8422
 8284SOL     OW36070   1.410   0.096   4.081  0.3867 -0.6785 -0.2253
 8284SOL    HW136071   1.376   0.178   4.034 -2.2277 -1.3706  0.3624
 8284SOL    HW236072   1.392   0.016   4.024  0.6708 -1.1168  0.2964
 8285SOL     OW36073   4.000   2.990   2.394  0.6333 -0.0317  0.0498
 8285SOL    HW136074   4.009   2.901   2.440  1.0335 -0.7986 -1.4829
 8285SOL    HW236075   3.934   2.982   2.319 -0.8185  1.4854  1.1282
 8286SOL     OW36076   2.840   8.660   5.919 -0.0626  0.6242  0.0744
 8286SOL    HW136077   2.875   8.608   5.997  1.4554  0.9724 -0.3545
 8286SOL    HW236078   2.794   8.742   5.953  1.1405  1.0986  0.6032
 8287SOL     OW36079   3.906   1.279   1.582  0.0555  0.1328 -0.0317
 8287SOL    HW136080   3.962   1.348   1.536 -1.0270  1.2466  0.2877
 8287SOL    HW236081   3.858   1.321   1.659 -0.5895 -0.9937  0.2009
 8288SOL     OW36082   0.424   3.383   0.637  0.5924 -0.9736  0.0567
 8288SOL    HW136083   0.502   3.409   0.580  0.3480  0.1003  0.1908
 8288SOL    HW236084   0.412   3.451   0.710 -0.0142 -1.5303  0.4825
 8289SOL     OW36085   5.183   0.854   2.741 -0.4027  0.4362  0.0277
 8289SOL    HW136086   5.093   0.813   2.759 -0.6105  1.1908  0.7626
 8289SOL    HW236087   5.238   0.791   2.687 -1.2250 -0.2143 -0.0668
 8290SOL     OW36088   1.518   4.994   0.080 -0.6624  0.2115  0.3677
 8290SOL    HW136089   1.515   4.977   0.178 -0.7231  0.6807  0.4485
 8290SOL    HW236090   1.612   4.981   0.047 -0.8265 -0.9021  0.3091
 8291SOL     OW36091   1.741   1.056   5.009  0.4032 -0.0142  0.1926
 8291SOL    HW136092   1.839   1.068   4.992  0.2675  2.2431  0.8737
 8291SOL    HW236093   1.724   1.052   5.107 -0.3046  0.6064  0.0972
 8292SOL     OW36094   4.584   5.553   2.101 -0.3726 -0.3076 -0.3172
 8292SOL    HW136095   4.675   5.523   2.131  0.6117  1.3612 -1.5363
 8292SOL    HW236096   4.531   5.473   2.073  1.0342 -1.2326 -0.4117
 8293SOL     OW36097   2.859   3.077   0.223  0.0407  0.0755  0.4874
 8293SOL    HW136098   2.929   3.041   0.284  1.7756 -0.5456 -1.7956
 8293SOL    HW236099   2.835   3.007   0.155 -0.9622  1.1606 -0.2990
 8294SOL     OW36100   2.871   1.759   6.713  0.0613  0.0566 -0.2874
 8294SOL    HW136101   2.839   1.756   6.807  0.9872  1.6374  0.1009
 8294SOL    HW236102   2.793   1.775   6.652 -0.4750 -0.5156  0.2378
 8295SOL     OW36103   9.263   1.990   5.451  0.2241 -0.3863  0.0534
 8295SOL    HW136104   9.310   2.028   5.371 -0.9383 -1.1358 -1.0032
 8295SOL    HW236105   9.244   2.063   5.516 -0.8080  0.6254 -1.3519
 8296SOL     OW36106   0.720   5.767   2.445 -0.0432 -0.8800 -0.2266
 8296SOL    HW136107   0.681   5.773   2.354 -1.7109 -0.9662  0.4702
 8296SOL    HW236108   0.661   5.814   2.510  2.6376  1.8180  0.3662
 8297SOL     OW36109   9.513   7.485   2.315 -0.1213 -0.0767  0.3695
 8297SOL    HW136110   9.610   7.507   2.303 -0.0248 -0.2408  0.8288
 8297SOL    HW236111   9.460   7.570   2.321 -0.1381  0.0122 -0.8750
 8298SOL     OW36112   5.448   0.364   3.015  0.4062 -0.1737 -0.0287
 8298SOL    HW136113   5.472   0.351   3.111 -1.1614  1.4036  0.6064
 8298SOL    HW236114   5.430   0.275   2.973 -0.2335 -0.7855  1.5079
 8299SOL     OW36115   3.018   8.699   4.066 -0.0461 -0.5497 -0.6155
 8299SOL    HW136116   3.020   8.658   3.974  0.9711 -0.0242 -0.8368
 8299SOL    HW236117   3.067   8.786   4.064 -0.0696 -0.5128  0.4208
 8300SOL     OW36118   4.212   8.646   0.826 -0.2061  0.7646  0.3180
 8300SOL    HW136119   4.275   8.723   0.837  0.2408  0.3625  0.6174
 8300SOL    HW236120   4.135   8.657   0.889  1.3159 -0.4811  2.5134
 8301SOL     OW36121   3.699   3.076   3.345  0.1810  0.1210  0.0920
 8301SOL    HW136122   3.622   3.045   3.401  0.3671  0.7493  0.6871
 8301SOL    HW236123   3.708   3.015   3.265  0.4288 -1.2773  1.1571
 8302SOL     OW36124   1.811   8.222   5.193 -0.2771  0.3619 -0.0043
 8302SOL    HW136125   1.774   8.282   5.123 -0.1303  1.8727  1.1886
 8302SOL    HW236126   1.881   8.271   5.246  1.2068 -1.4518 -0.2306
 8303SOL     OW36127   4.448   1.336   1.374 -0.2749  0.1578  0.0803
 8303SOL    HW136128   4.496   1.279   1.307 -1.7792  0.0468 -0.9327
 8303SOL    HW236129   4.515   1.382   1.432  1.0487 -0.3154 -1.0241
 8304SOL     OW36130   0.507   1.933   1.495  0.4034  0.0191  0.3949
 8304SOL    HW136131   0.513   1.976   1.406 -0.0162  0.2690  0.4890
 8304SOL    HW236132   0.598   1.928   1.536  0.5928 -0.0874 -0.0412
 8305SOL     OW36133   2.429   4.706   4.103 -0.2001  0.5931  0.4098
 8305SOL    HW136134   2.430   4.625   4.162  0.5587 -0.4904 -1.0580
 8305SOL    HW236135   2.505   4.766   4.129  0.2472  0.0305  0.4158
 8306SOL     OW36136   3.084   4.012   6.398 -0.3815  0.6729  0.1165
 8306SOL    HW136137   3.084   4.044   6.492  0.5576  1.1451 -0.0411
 8306SOL    HW236138   3.007   4.053   6.349 -1.2578 -0.0824  0.8414
 8307SOL     OW36139   8.215   3.893   1.879 -0.4428  0.3639  0.5873
 8307SOL    HW136140   8.182   3.983   1.907 -1.4616  1.0117 -2.5176
 8307SOL    HW236141   8.282   3.904   1.805  0.4690 -1.3849  1.1207
 8308SOL     OW36142   6.439   5.283   0.767 -0.4206 -0.0519 -0.4019
 8308SOL    HW136143   6.513   5.331   0.720 -0.5415  1.6031  1.0628
 8308SOL    HW236144   6.457   5.185   0.764  0.9207  0.2058 -1.6107
 8309SOL     OW36145   8.738   3.414   3.497 -0.7375  0.6742  0.1644
 8309SOL    HW136146   8.746   3.453   3.406  1.8794  0.0022  0.0757
 8309SOL    HW236147   8.774   3.321   3.497  0.3188  1.0524  2.1251
 8310SOL     OW36148   7.573   1.265   1.305 -0.5507  0.1455 -0.0627
 8310SOL    HW136149   7.476   1.271   1.282 -0.6778 -1.8376 -0.0866
 8310SOL    HW236150   7.592   1.325   1.384 -1.9459 -0.0698  0.4562
 8311SOL     OW36151   9.913   9.039   2.058  0.1731 -0.5779  0.4253
 8311SOL    HW136152   9.993   9.032   1.999 -1.0126 -0.4874 -1.2307
 8311SOL    HW236153   9.935   9.006   2.149  1.7065 -1.8631 -0.3999
 8312SOL     OW36154   6.916   1.571   1.999 -0.4705  0.5427 -0.5412
 8312SOL    HW136155   6.991   1.590   2.061  0.1051 -1.4375 -0.6039
 8312SOL    HW236156   6.856   1.501   2.038 -0.4994 -0.2097 -1.8944
 8313SOL     OW36157   8.752   2.210   3.161  0.4930 -0.7428  0.1949
 8313SOL    HW136158   8.849   2.220   3.139  0.3851  1.0854  0.4914
 8313SOL    HW236159   8.742   2.144   3.236  1.3365 -2.4104 -1.1325
 8314SOL     OW36160   4.163   5.012   3.400 -0.0389  0.0111 -0.2176
 8314SOL    HW136161   4.200   5.014   3.307 -0.1322 -0.4149 -0.2669
 8314SOL    HW236162   4.191   5.094   3.449  0.4081  0.0126 -0.4732
 8315SOL     OW36163   5.497   1.735   3.455 -0.6127 -0.2926  0.3066
 8315SOL    HW136164   5.454   1.648   3.432 -0.2691 -0.3415 -0.1710
 8315SOL    HW236165   5.589   1.738   3.414 -0.1065 -0.2506  1.4204
 8316SOL     OW36166   9.181   5.850   1.395 -0.7357  1.0686  0.1586
 8316SOL    HW136167   9.254   5.915   1.372  0.9064 -1.0121 -0.6803
 8316SOL    HW236168   9.160   5.857   1.493  1.1136  1.2089  0.5683
 8317SOL     OW36169   4.454   0.384   5.953 -0.4617  0.0994  0.3417
 8317SOL    HW136170   4.534   0.326   5.936  1.1184  1.8814  1.4208
 8317SOL    HW236171   4.413   0.358   6.040 -1.0871 -0.8502 -0.2339
 8318SOL     OW36172   2.094   5.927   4.980 -0.2693 -0.8327  0.0252
 8318SOL    HW136173   2.047   5.984   4.913  0.0597 -1.0927 -0.4316
 8318SOL    HW236174   2.106   5.978   5.065 -1.3957 -0.7750  0.1538
 8319SOL     OW36175   9.799   8.907   4.802  0.0493  0.1345 -0.2801
 8319SOL    HW136176   9.841   8.991   4.768  0.7450  0.1332  0.5725
 8319SOL    HW236177   9.814   8.899   4.901 -0.7896 -0.5398 -0.1952
 8320SOL     OW36178   8.388   0.176   5.557 -0.2661 -0.3622  0.4935
 8320SOL    HW136179   8.351   0.128   5.636 -0.6078  1.7101  1.6354
 8320SOL    HW236180   8.476   0.216   5.580 -0.3957  0.3082 -0.1444
 8321SOL     OW36181   2.622   3.915   2.128 -0.0842  0.0295 -0.4124
 8321SOL    HW136182   2.606   4.002   2.081 -1.7270 -0.8348 -1.5142
 8321SOL    HW236183   2.715   3.883   2.109  0.1833  1.0452 -0.8329
 8322SOL     OW36184   3.109   2.569   2.450  0.4131  0.1172  0.2480
 8322SOL    HW136185   3.028   2.570   2.392  1.4772  2.5977 -1.3047
 8322SOL    HW236186   3.115   2.656   2.501  0.6771 -1.1310  2.4115
 8323SOL     OW36187   2.386   0.298   4.260  0.2449 -0.0569 -0.9080
 8323SOL    HW136188   2.432   0.228   4.206  0.9697 -0.9607  0.8551
 8323SOL    HW236189   2.292   0.268   4.280  0.0598  0.1640 -1.4354
 8324SOL     OW36190   7.476   2.549   0.512 -0.1894  0.0841 -0.1916
 8324SOL    HW136191   7.452   2.646   0.511 -1.5349 -0.2360  0.4820
 8324SOL    HW236192   7.547   2.532   0.443  1.8746  2.0118  1.3424
 8325SOL     OW36193   2.698   2.337   4.065 -0.7135  0.1324 -0.2765
 8325SOL    HW136194   2.653   2.277   4.132  0.6142 -0.2247  0.3077
 8325SOL    HW236195   2.661   2.429   4.074  0.1053  0.2941  1.6001
 8326SOL     OW36196   7.716   0.021   3.966 -0.3569  0.0023  0.1592
 8326SOL    HW136197   7.777   0.045   4.041  0.4364  2.0229 -1.0960
 8326SOL    HW236198   7.754  -0.057   3.915  0.7258  0.6724 -0.0662
 8327SOL     OW36199   9.583   9.876   3.650 -0.2409 -0.5025 -0.6954
 8327SOL    HW136200   9.498   9.876   3.703  1.4526  1.2552  2.1455
 8327SOL    HW236201   9.620   9.969   3.647  2.4052 -1.5160 -0.5152
 8328SOL     OW36202   7.960   6.820   3.641  0.3788 -0.4226  0.9326
 8328SOL    HW136203   7.999   6.739   3.597 -0.2040 -0.4245  0.4069
 8328SOL    HW236204   8.018   6.899   3.623 -0.9082 -0.0266 -1.5396
 8329SOL     OW36205   9.393   6.703   5.000  0.2117 -0.0009  0.6449
 8329SOL    HW136206   9.348   6.762   4.932  0.2113 -0.6916  0.0360
 8329SOL    HW236207   9.325   6.669   5.065 -0.1466 -0.9596 -0.2109
 8330SOL     OW36208   1.204   3.491   2.533 -0.1968 -0.2149 -0.7033
 8330SOL    HW136209   1.209   3.549   2.614  1.2969  0.8811 -1.5489
 8330SOL    HW236210   1.279   3.424   2.535 -1.4815 -1.6717 -0.0905
 8331SOL     OW36211   8.988   1.700   2.890 -0.2624 -0.9226 -0.0200
 8331SOL    HW136212   8.928   1.620   2.889  0.1649 -1.2377 -0.2305
 8331SOL    HW236213   9.083   1.671   2.885 -0.1214 -0.3797 -0.5201
 8332SOL     OW36214   5.293   8.329   3.011  0.8270  0.1848 -0.2320
 8332SOL    HW136215   5.204   8.318   2.966  0.5473 -0.4550  0.4592
 8332SOL    HW236216   5.293   8.414   3.064  0.9400  0.6278 -0.9321
 8333SOL     OW36217   3.761   0.134   6.703  0.0073  0.7296 -0.2565
 8333SOL    HW136218   3.802   0.065   6.644 -1.7478 -0.6654  0.1208
 8333SOL    HW236219   3.813   0.141   6.788 -0.4846 -0.9546  0.1890
 8334SOL     OW36220   2.908   1.533   6.242  0.0976 -0.2882  0.3132
 8334SOL    HW136221   2.948   1.539   6.333  0.0788 -0.6858  0.3513
 8334SOL    HW236222   2.878   1.623   6.212 -0.0705 -0.1871  0.7805
 8335SOL     OW36223   0.825   6.674   4.435 -0.2351 -0.5635  0.3848
 8335SOL    HW136224   0.804   6.708   4.526 -0.3662  0.0231  0.1390
 8335SOL    HW236225   0.802   6.576   4.429 -0.4816 -0.5361  0.8919
 8336SOL     OW36226   8.011   3.121   1.538  0.1281  0.0155  0.3010
 8336SOL    HW136227   8.085   3.149   1.599 -0.5086 -0.0005  1.0836
 8336SOL    HW236228   7.958   3.048   1.581  0.3465 -0.7672 -0.7367
 8337SOL     OW36229   4.891   5.616   2.209 -0.0167 -0.1199  0.5318
 8337SOL    HW136230   4.982   5.618   2.169 -0.1589 -1.6605  0.1030
 8337SOL    HW236231   4.871   5.704   2.252  1.2882  0.5433 -0.2128
 8338SOL     OW36232   4.971   3.360   0.568 -0.3284  0.1989  0.4127
 8338SOL    HW136233   4.941   3.265   0.559  0.6826 -0.2061  1.1895
 8338SOL    HW236234   4.993   3.379   0.664  0.5067  0.8980  0.0945
 8339SOL     OW36235   9.016   3.849   0.085 -0.0230  0.2822  0.0290
 8339SOL    HW136236   9.050   3.886   0.171  0.6252 -0.0255 -0.0972
 8339SOL    HW236237   9.092   3.811   0.032 -0.6394 -0.9714  0.0211
 8340SOL     OW36238   8.079   7.426   2.575  0.0560  0.1704  0.1216
 8340SOL    HW136239   8.041   7.518   2.580  0.8262  0.4824  0.3222
 8340SOL    HW236240   8.048   7.373   2.654 -0.2473  0.3141  0.0973
 8341SOL     OW36241   2.171   3.547   3.884 -0.0845  0.3727 -0.4744
 8341SOL    HW136242   2.268   3.543   3.910  0.2596  0.9484 -1.6492
 8341SOL    HW236243   2.155   3.630   3.831 -0.9949 -0.3070 -1.2523
 8342SOL     OW36244   7.269   0.649   0.486 -0.3585 -0.2897 -0.3930
 8342SOL    HW136245   7.180   0.660   0.441  0.0799  2.5879 -0.6450
 8342SOL    HW236246   7.341   0.650   0.416 -0.0207 -1.0646 -0.0549
 8343SOL     OW36247   2.916   5.157   4.413  0.0438  0.1198  0.8613
 8343SOL    HW136248   2.960   5.227   4.357  0.1211 -0.5524  0.0685
 8343SOL    HW236249   2.983   5.115   4.473  0.0439  0.5556  1.1726
 8344SOL     OW36250   2.340   9.424   1.791 -0.2225 -0.0739 -0.0587
 8344SOL    HW136251   2.330   9.325   1.778  2.9439 -0.4801  0.1894
 8344SOL    HW236252   2.326   9.446   1.888  0.6327 -0.4870  0.1567
 8345SOL     OW36253   3.083   0.668   1.705  0.0137  0.5861 -0.1338
 8345SOL    HW136254   2.983   0.671   1.710  0.0735  0.3519  1.8812
 8345SOL    HW236255   3.116   0.748   1.657 -1.1060  1.3360  0.3121
 8346SOL     OW36256   8.999   4.583   1.019 -0.0467 -0.1795 -0.2170
 8346SOL    HW136257   9.008   4.683   1.018  0.7430 -0.2281  0.8728
 8346SOL    HW236258   9.056   4.543   0.948  0.7902  0.0729  0.3030
 8347SOL     OW36259   2.531   7.126   2.609 -0.7823 -0.8061  0.2650
 8347SOL    HW136260   2.467   7.180   2.664 -0.6263  0.1321 -0.4506
 8347SOL    HW236261   2.624   7.143   2.641 -0.6937 -0.2817 -0.2504
 8348SOL     OW36262   2.275   5.377   0.680  0.1423 -0.4133 -0.7885
 8348SOL    HW136263   2.318   5.297   0.722  0.9117  0.3687 -0.0385
 8348SOL    HW236264   2.188   5.396   0.725 -0.1346 -0.9504 -1.1028
 8349SOL     OW36265   2.254   9.893   4.137 -0.2958 -0.3529  1.0297
 8349SOL    HW136266   2.216   9.859   4.050  0.0538  2.0339 -0.0798
 8349SOL    HW236267   2.182   9.937   4.190 -0.1802 -0.4406  1.2619
 8350SOL     OW36268   2.563   9.754   3.524  0.1591  0.4481  0.4448
 8350SOL    HW136269   2.544   9.656   3.518 -1.3844  0.7639 -0.0738
 8350SOL    HW236270   2.570   9.792   3.432 -0.2146  0.9954  0.6391
 8351SOL     OW36271   0.861   0.081   0.292 -0.1848  0.1317  0.2449
 8351SOL    HW136272   0.947   0.053   0.335  0.8906  2.1964 -0.5262
 8351SOL    HW236273   0.858   0.180   0.285 -1.0046 -0.0885 -3.1052
 8352SOL     OW36274   1.379   6.905   1.420  0.0454  0.1473  0.5711
 8352SOL    HW136275   1.315   6.904   1.496  0.9896  0.0585  1.3738
 8352SOL    HW236276   1.465   6.948   1.449  0.0006  1.2129 -0.7815
 8353SOL     OW36277   5.247   7.482   3.081  0.0587 -0.1694 -0.2332
 8353SOL    HW136278   5.202   7.445   3.000 -1.0826 -0.5922  0.5771
 8353SOL    HW236279   5.197   7.563   3.113  0.4354 -0.0739  0.1147
 8354SOL     OW36280   5.574   8.072   4.787 -0.3322  0.4012  0.8855
 8354SOL    HW136281   5.559   8.038   4.880  1.7344  1.2872  1.5758
 8354SOL    HW236282   5.585   8.172   4.790  3.3511  0.0803  0.2047
 8355SOL     OW36283   6.910   0.999   6.099 -0.4960  0.3082 -0.1909
 8355SOL    HW136284   6.907   1.041   6.190  0.1910 -0.6233  0.2677
 8355SOL    HW236285   6.827   1.022   6.049  0.0939  2.6717 -0.1536
 8356SOL     OW36286   4.787   2.625   1.259  0.4413  0.4064 -0.1291
 8356SOL    HW136287   4.750   2.612   1.350  0.5155  2.1638  0.1603
 8356SOL    HW236288   4.745   2.705   1.216  0.5322 -0.2934 -1.5739
 8357SOL     OW36289   0.798   7.820   1.929 -0.4260  0.2429 -0.0863
 8357SOL    HW136290   0.870   7.876   1.969  0.4594 -1.1880  0.3780
 8357SOL    HW236291   0.830   7.782   1.841 -1.2159  0.8984 -0.6633
 8358SOL     OW36292   4.087   8.069   2.607 -0.1197 -0.3096  0.2082
 8358SOL    HW136293   4.033   8.148   2.635 -0.8977 -0.7051 -0.1859
 8358SOL    HW236294   4.036   8.014   2.541  0.1464 -1.5144  0.9800
 8359SOL     OW36295   2.978   8.484   4.597 -0.5877 -0.2852 -0.5383
 8359SOL    HW136296   2.987   8.499   4.695 -0.9685 -1.4715 -0.3134
 8359SOL    HW236297   3.064   8.449   4.561 -0.3672  0.3913 -0.6830
 8360SOL     OW36298   5.269   0.958   4.660 -0.1039  0.2017  0.9288
 8360SOL    HW136299   5.219   1.044   4.674  0.6987  0.6090  1.2852
 8360SOL    HW236300   5.334   0.969   4.585 -0.6091 -0.3587  0.4058
 8361SOL     OW36301   1.421   6.476   1.089 -0.0935 -0.8110  0.3203
 8361SOL    HW136302   1.415   6.558   1.146 -1.3896 -0.4880 -0.2654
 8361SOL    HW236303   1.348   6.412   1.115 -1.1697 -0.3377 -1.4706
 8362SOL     OW36304   9.485   5.260   1.943 -0.4057 -0.1004 -0.3160
 8362SOL    HW136305   9.561   5.215   1.896  0.7427  1.3310  0.1062
 8362SOL    HW236306   9.468   5.214   2.030  0.8283  0.3084  0.1595
 8363SOL     OW36307   1.869   6.201   1.917 -0.0541 -0.0867 -0.1219
 8363SOL    HW136308   1.919   6.226   1.834 -0.1677  0.8181  0.0744
 8363SOL    HW236309   1.926   6.222   1.997 -0.9582  1.4420  0.1215
 8364SOL     OW36310   2.108   0.897   5.754 -0.7671  0.4764  0.0487
 8364SOL    HW136311   2.068   0.850   5.833  0.8202 -2.2339 -0.7034
 8364SOL    HW236312   2.101   0.839   5.673  1.7638  1.2699 -0.7905
 8365SOL     OW36313   4.351   5.927   2.737 -0.0070 -0.0247 -0.4415
 8365SOL    HW136314   4.311   5.855   2.680 -0.3920 -1.5465  1.6572
 8365SOL    HW236315   4.293   6.008   2.734 -1.1356 -0.8242 -0.5547
 8366SOL     OW36316   4.577   9.269   3.771  0.5463 -0.3450 -0.4260
 8366SOL    HW136317   4.631   9.193   3.806  0.2181 -0.0875  0.6518
 8366SOL    HW236318   4.482   9.241   3.762  0.4381 -0.0753 -0.0976
 8367SOL     OW36319   4.510   8.372   3.714 -0.7104 -0.6597 -0.2357
 8367SOL    HW136320   4.587   8.407   3.767 -0.5162 -0.3049 -0.7459
 8367SOL    HW236321   4.482   8.283   3.750  1.5088 -1.9355 -1.5190
 8368SOL     OW36322   5.342   5.096   0.100  0.1344  0.2296  0.9080
 8368SOL    HW136323   5.426   5.042   0.091  0.3910  0.6160  0.9852
 8368SOL    HW236324   5.363   5.181   0.147 -0.0923  0.8203 -0.0454
 8369SOL     OW36325   9.749   3.983   3.876 -0.4448 -0.1642  0.2658
 8369SOL    HW136326   9.682   4.054   3.896  0.0877  0.6376 -0.7223
 8369SOL    HW236327   9.832   3.998   3.930 -0.6023 -0.4573  0.5920
 8370SOL     OW36328   3.932   4.125   4.839 -0.4243 -0.2952 -0.8034
 8370SOL    HW136329   3.907   4.184   4.916  0.0482 -1.0839 -0.0480
 8370SOL    HW236330   4.026   4.094   4.850 -0.3807 -0.4757 -1.6651
 8371SOL     OW36331   1.593   4.855   3.143  0.1100 -0.0162 -0.1770
 8371SOL    HW136332   1.656   4.812   3.077 -0.3976 -1.1844  0.0927
 8371SOL    HW236333   1.516   4.794   3.161 -0.9654  1.2807 -0.2680
 8372SOL     OW36334   1.969   4.567   2.873  0.2658  0.1556  0.1059
 8372SOL    HW136335   1.944   4.500   2.943 -0.2825  0.4817  0.2272
 8372SOL    HW236336   2.066   4.559   2.852  0.1909 -0.7121  0.0827
 8373SOL     OW36337   3.824   0.592   0.448  0.2184  0.4661 -0.0598
 8373SOL    HW136338   3.892   0.637   0.506  1.1601 -1.1770  0.1722
 8373SOL    HW236339   3.841   0.615   0.353  0.4515  0.9130  0.0905
 8374SOL     OW36340   4.212   8.869   4.957 -0.2064 -0.6544 -0.3002
 8374SOL    HW136341   4.259   8.944   5.002  0.4060 -2.5307  2.2665
 8374SOL    HW236342   4.160   8.904   4.879  0.2062  2.3868  0.7498
 8375SOL     OW36343   4.140   3.493   1.538 -0.1465 -0.1224  0.3583
 8375SOL    HW136344   4.094   3.423   1.592 -0.4463  0.6762  1.1526
 8375SOL    HW236345   4.237   3.472   1.532 -0.0093  0.0510  1.6775
 8376SOL     OW36346   9.602   1.995   3.168 -0.0883 -0.4139  0.3911
 8376SOL    HW136347   9.555   1.981   3.255 -0.0244 -1.7239  0.2337
 8376SOL    HW236348   9.635   1.907   3.134 -0.0102  0.1000 -0.8996
 8377SOL     OW36349   8.672   9.057   1.880  0.0309  0.2622 -0.1109
 8377SOL    HW136350   8.760   9.024   1.914  1.0513  1.3583 -1.6266
 8377SOL    HW236351   8.687   9.112   1.798 -2.4709 -3.5412 -3.3182
 8378SOL     OW36352   1.264   1.876   2.913 -0.3751  0.4949 -0.4801
 8378SOL    HW136353   1.320   1.926   2.980 -0.0631 -0.4304 -0.0422
 8378SOL    HW236354   1.230   1.940   2.844  0.2794  1.2613 -0.1065
 8379SOL     OW36355   3.098   3.858   2.339 -0.7963  0.0720 -0.4434
 8379SOL    HW136356   3.088   3.765   2.375  2.4151 -0.0246  0.4047
 8379SOL    HW236357   3.174   3.859   2.273  0.3233  2.4167  0.8152
 8380SOL     OW36358   6.640   0.278   2.521  0.2809  0.5880  0.0470
 8380SOL    HW136359   6.572   0.331   2.470 -0.6961 -1.6930 -1.1018
 8380SOL    HW236360   6.611   0.269   2.616 -0.8861 -0.1138 -0.3651
 8381SOL     OW36361   8.408   2.734   5.316  0.2037  0.4780 -0.3070
 8381SOL    HW136362   8.372   2.658   5.370 -1.0509  0.5404 -1.0467
 8381SOL    HW236363   8.493   2.766   5.357  1.2381 -1.9195 -0.4930
 8382SOL     OW36364   6.128   1.598   0.824  0.4193  0.2496  0.5272
 8382SOL    HW136365   6.147   1.642   0.912  1.0814 -0.4469  0.7357
 8382SOL    HW236366   6.209   1.604   0.765 -0.1275  0.9922 -0.1528
 8383SOL     OW36367   7.819   6.677   4.987 -0.1597  0.1605 -0.0083
 8383SOL    HW136368   7.896   6.688   4.925  0.1873  1.2282  0.5988
 8383SOL    HW236369   7.817   6.583   5.022  0.9936  0.1822  0.1305
 8384SOL     OW36370   1.515   6.688   3.596  0.0483 -0.0340  0.2306
 8384SOL    HW136371   1.587   6.719   3.659  0.7752 -2.0886  0.4487
 8384SOL    HW236372   1.557   6.647   3.515 -0.8380 -1.7779  0.6250
 8385SOL     OW36373   2.774   4.116   5.730 -0.5442  0.2226  0.0091
 8385SOL    HW136374   2.685   4.157   5.713 -1.7824 -2.1435  0.5710
 8385SOL    HW236375   2.799   4.057   5.654  0.7051  1.0919 -0.2763
 8386SOL     OW36376   3.472   8.328   4.348  0.0401 -0.4426 -0.5047
 8386SOL    HW136377   3.567   8.297   4.346  0.7199  1.5055  0.3317
 8386SOL    HW236378   3.418   8.275   4.283  1.8204 -1.1790 -1.4038
 8387SOL     OW36379   5.179   2.581   1.835  0.5203 -0.2785  0.3131
 8387SOL    HW136380   5.267   2.558   1.877  0.6466 -1.2777 -0.5110
 8387SOL    HW236381   5.125   2.498   1.821 -0.9570  0.4122  1.6701
 8388SOL     OW36382   8.104   8.832   3.158  0.7041  0.6253  0.2086
 8388SOL    HW136383   8.027   8.844   3.095  1.4693  3.2522 -0.3218
 8388SOL    HW236384   8.185   8.802   3.107  0.2755 -1.3204  0.6358
 8389SOL     OW36385   5.096   1.019   1.476 -0.4549  0.7717  0.1394
 8389SOL    HW136386   5.055   0.988   1.390 -2.4750  0.7869  1.0837
 8389SOL    HW236387   5.060   1.109   1.501 -0.8760  0.1969  1.6646
 8390SOL     OW36388   3.381   1.280   0.822  0.8124  0.8307  0.2408
 8390SOL    HW136389   3.399   1.378   0.817 -0.2542  1.0110 -0.0729
 8390SOL    HW236390   3.344   1.248   0.735  1.1366  0.1466  0.3497
 8391SOL     OW36391   2.008   1.078   5.325  0.1717  0.5696 -0.1339
 8391SOL    HW136392   1.910   1.088   5.345  0.6953  1.2788  2.3123
 8391SOL    HW236393   2.059   1.147   5.377  2.1128 -0.9455  0.0093
 8392SOL     OW36394   9.351   3.553   6.165  0.2954  0.3540 -0.4075
 8392SOL    HW136395   9.301   3.616   6.223  0.0976  1.1978 -1.4900
 8392SOL    HW236396   9.289   3.512   6.098  0.1560 -1.9339  1.0676
 8393SOL     OW36397   4.812   1.904   0.308 -0.0445 -0.4669  0.0002
 8393SOL    HW136398   4.881   1.954   0.361 -2.1762  1.0172  1.4257
 8393SOL    HW236399   4.791   1.955   0.225  0.0568 -0.5702 -0.0891
 8394SOL     OW36400   2.832   2.044   5.031 -0.2929  0.0860 -0.0518
 8394SOL    HW136401   2.808   2.128   5.080  0.3056  0.3957 -0.2912
 8394SOL    HW236402   2.837   1.968   5.096  0.3557  0.4660  0.3513
 8395SOL     OW36403   9.882   8.413   5.500  0.2114 -0.1430 -0.0063
 8395SOL    HW136404   9.789   8.411   5.537 -0.3157 -1.7312 -1.4068
 8395SOL    HW236405   9.898   8.502   5.457 -0.4222  0.3810  0.8088
 8396SOL     OW36406   1.787   0.194   1.610  0.1558  0.2541 -0.4234
 8396SOL    HW136407   1.801   0.102   1.574  4.1353  0.2422  0.9142
 8396SOL    HW236408   1.851   0.257   1.566 -0.7451  1.8931  0.5482
 8397SOL     OW36409   8.589   9.366   3.148 -0.0317  0.9141  0.0156
 8397SOL    HW136410   8.579   9.363   3.248 -1.4612  1.0362 -0.1040
 8397SOL    HW236411   8.563   9.278   3.109 -1.7748  1.5768 -0.4001
 8398SOL     OW36412   3.352   9.755   1.020  0.2370  0.6901  0.2922
 8398SOL    HW136413   3.334   9.712   1.108  0.3756 -1.4039 -0.6535
 8398SOL    HW236414   3.440   9.723   0.985 -0.0877  1.0234 -0.8618
 8399SOL     OW36415   7.256   3.878   1.869  0.5130  0.2017 -0.6092
 8399SOL    HW136416   7.220   3.894   1.777 -0.0226  2.2818 -0.0547
 8399SOL    HW236417   7.297   3.962   1.904  0.5131 -0.5087  1.1477
 8400SOL     OW36418   4.152   8.515   2.917 -0.2282 -0.1999  0.0223
 8400SOL    HW136419   4.075   8.459   2.948 -0.4306 -0.4965 -1.0002
 8400SOL    HW236420   4.126   8.612   2.923 -1.0200 -0.3309 -1.2010
 8401SOL     OW36421   1.023   4.357   2.254 -0.0678 -0.0667 -0.4363
 8401SOL    HW136422   0.949   4.340   2.190 -0.5520 -1.9608  0.5974
 8401SOL    HW236423   0.985   4.371   2.346  0.7033  1.3673 -0.3167
 8402SOL     OW36424   1.482   4.635   1.875  0.2677  0.0954  0.1011
 8402SOL    HW136425   1.400   4.584   1.902 -1.0114  1.1413 -1.7050
 8402SOL    HW236426   1.551   4.570   1.843 -0.6785 -0.6658 -0.4678
 8403SOL     OW36427   1.747   2.566   6.411  0.4108  0.1797 -0.0642
 8403SOL    HW136428   1.778   2.652   6.370  1.0872 -0.6460 -1.3121
 8403SOL    HW236429   1.751   2.573   6.511  3.0467  0.6730 -0.1672
 8404SOL     OW36430   4.690   0.846   2.647  0.1295 -0.8003  0.1850
 8404SOL    HW136431   4.660   0.939   2.667 -0.4861 -0.8599 -0.4081
 8404SOL    HW236432   4.612   0.784   2.652  0.5957 -1.3434  0.8906
 8405SOL     OW36433   1.207   6.392   4.848 -0.1869  0.7262  0.2451
 8405SOL    HW136434   1.115   6.369   4.881 -0.1543  0.9946  0.5264
 8405SOL    HW236435   1.208   6.389   4.748 -0.3826  0.2720  0.2532
 8406SOL     OW36436   4.628   1.049   0.847  0.1697  0.2598 -0.4083
 8406SOL    HW136437   4.584   1.003   0.770  0.3402  0.7320 -0.7908
 8406SOL    HW236438   4.646   0.983   0.920  1.4916 -0.5175 -1.4128
 8407SOL     OW36439   9.524   1.721   5.597  0.3059 -0.0397 -0.0411
 8407SOL    HW136440   9.424   1.732   5.591  0.4052  0.1356 -1.4294
 8407SOL    HW236441   9.566   1.807   5.623  0.2752  0.4589 -1.6096
 8408SOL     OW36442   8.592   1.827   3.579 -0.6186  0.2809  0.5453
 8408SOL    HW136443   8.541   1.908   3.550 -0.2557 -0.5340 -2.5061
 8408SOL    HW236444   8.689   1.839   3.556 -0.6236 -1.1570 -0.2730
 8409SOL     OW36445   6.948   0.059   3.749  0.4578 -0.1032  0.4419
 8409SOL    HW136446   6.944   0.159   3.742  2.6457 -0.0718 -0.6710
 8409SOL    HW236447   6.998   0.022   3.671 -0.1473 -2.0744  0.9568
 8410SOL     OW36448   0.078   2.821   4.756  0.3517  0.2386 -0.1664
 8410SOL    HW136449   0.119   2.875   4.830 -1.4831 -0.6143  1.4926
 8410SOL    HW236450   0.095   2.724   4.773 -0.8885 -0.0134 -0.3621
 8411SOL     OW36451   0.707   4.097   2.675 -0.0139 -0.2198  0.7070
 8411SOL    HW136452   0.745   4.187   2.696  0.9674 -0.7922  1.4428
 8411SOL    HW236453   0.684   4.050   2.761  0.3769 -1.0433  0.3661
 8412SOL     OW36454   2.039   9.555   6.522 -0.3985 -0.0289  0.1028
 8412SOL    HW136455   1.946   9.585   6.541 -0.0694  0.2297  1.3604
 8412SOL    HW236456   2.078   9.610   6.448 -0.7904  0.7502  0.4714
 8413SOL     OW36457   2.026   0.218   3.999 -0.0031  0.0140 -0.1334
 8413SOL    HW136458   1.957   0.150   4.022 -1.0465  1.1696  0.2284
 8413SOL    HW236459   2.055   0.206   3.904  0.8925 -1.8388  0.3506
 8414SOL     OW36460   9.839   2.765   6.202 -0.1959  0.2395  0.3544
 8414SOL    HW136461   9.818   2.853   6.244  1.2039  0.2436  1.0714
 8414SOL    HW236462   9.819   2.692   6.267 -1.0406  0.0394 -0.1223
 8415SOL     OW36463   3.565   0.153   2.375 -0.0194 -0.1634 -0.1443
 8415SOL    HW136464   3.573   0.199   2.287  1.9115 -1.2656 -0.5707
 8415SOL    HW236465   3.482   0.097   2.376  0.6072 -1.1384 -1.7348
 8416SOL     OW36466   2.144   0.327   4.511 -0.5665  0.0404 -0.3756
 8416SOL    HW136467   2.120   0.345   4.416 -1.6118  1.0295  0.0643
 8416SOL    HW236468   2.173   0.232   4.521 -0.2128  0.0010 -1.7233
 8417SOL     OW36469   2.617   4.418   2.850 -0.2157  0.0918 -0.2592
 8417SOL    HW136470   2.541   4.354   2.845 -1.2893  1.3722 -0.4891
 8417SOL    HW236471   2.672   4.412   2.766  0.5398 -1.5541  0.3355
 8418SOL     OW36472   8.687   5.958   0.894  0.3672 -0.4266  0.4117
 8418SOL    HW136473   8.771   6.010   0.912  0.2802 -0.9274  2.3458
 8418SOL    HW236474   8.656   5.914   0.978 -1.0703 -1.4030 -0.6034
 8419SOL     OW36475   0.141   6.856   1.582  0.0536 -0.1022  0.2283
 8419SOL    HW136476   0.130   6.778   1.521  1.2843  0.7832 -1.1634
 8419SOL    HW236477   0.116   6.829   1.675  0.6920 -2.2160 -0.1789
 8420SOL     OW36478   9.478   4.823   6.321 -0.4009 -0.3359 -0.3266
 8420SOL    HW136479   9.511   4.898   6.264 -1.7400 -1.2296 -2.3271
 8420SOL    HW236480   9.378   4.822   6.320 -0.4705 -0.0995  2.4385
 8421SOL     OW36481   9.671   8.379   1.998  0.5543  0.1637 -0.2903
 8421SOL    HW136482   9.659   8.281   2.007  1.2156  0.0346 -0.7824
 8421SOL    HW236483   9.730   8.399   1.920  0.7763  0.9328  0.0653
 8422SOL     OW36484   8.014   9.792   4.685 -0.5278  0.1319 -0.3999
 8422SOL    HW136485   7.925   9.824   4.716 -0.6125 -1.0086  0.6000
 8422SOL    HW236486   8.084   9.816   4.754 -0.5002 -1.2547  0.0742
 8423SOL     OW36487   9.278   1.065   4.379 -0.5709  0.2516  0.4051
 8423SOL    HW136488   9.331   1.035   4.458  0.8006  0.7686 -0.2984
 8423SOL    HW236489   9.249   0.986   4.326 -1.0109 -0.0645  1.1094
 8424SOL     OW36490   2.235   6.824   4.340 -0.1842 -0.0729  0.0200
 8424SOL    HW136491   2.305   6.896   4.337  1.1266 -1.2278  1.6338
 8424SOL    HW236492   2.150   6.862   4.376  0.3117  0.8144  0.2742
 8425SOL     OW36493   8.879   2.752   0.989  0.0942 -0.5331  0.0585
 8425SOL    HW136494   8.809   2.683   1.007  0.5981 -0.9686  0.3542
 8425SOL    HW236495   8.968   2.718   1.019  0.5462 -0.2476 -0.9194
 8426SOL     OW36496   7.101   1.826   4.041  0.1539  0.3008 -0.6176
 8426SOL    HW136497   7.042   1.831   3.960  0.2558 -0.4571 -0.7372
 8426SOL    HW236498   7.072   1.895   4.107  1.4568  2.4562 -2.2241
 8427SOL     OW36499   8.577   1.399   2.415  0.0023  0.0746 -0.1399
 8427SOL    HW136500   8.585   1.306   2.450 -1.5223  0.4717  1.3200
 8427SOL    HW236501   8.490   1.409   2.367 -0.6846  1.2641  1.3376
 8428SOL     OW36502   2.410   6.230   1.854 -0.0326  0.3177  0.3846
 8428SOL    HW136503   2.486   6.230   1.790 -0.1549  0.7878  0.2401
 8428SOL    HW236504   2.345   6.159   1.828  0.9638 -0.9284  1.2366
 8429SOL     OW36505   1.045   5.292   4.756  0.9993  0.2807  0.6880
 8429SOL    HW136506   1.127   5.314   4.703 -0.8244  3.5960 -0.9235
 8429SOL    HW236507   0.967   5.280   4.694 -0.1088 -1.0175  2.2967
 8430SOL     OW36508   7.539   2.666   4.857  0.4137  0.4110  0.0040
 8430SOL    HW136509   7.464   2.610   4.819 -0.3112  1.5039 -0.2012
 8430SOL    HW236510   7.531   2.759   4.823  2.0791  0.4655 -0.2729
 8431SOL     OW36511   3.878   4.543   6.437 -0.1634  0.4522  0.1575
 8431SOL    HW136512   3.935   4.577   6.362  1.2364 -2.0523  0.0373
 8431SOL    HW236513   3.796   4.499   6.399  0.2996 -0.3730  0.1028
 8432SOL     OW36514   0.775   3.003   1.405  0.9471 -0.1012  0.1008
 8432SOL    HW136515   0.815   2.936   1.343 -0.2242 -0.5055 -0.2334
 8432SOL    HW236516   0.681   3.022   1.378  0.7080  0.3918  1.2179
 8433SOL     OW36517   4.294   2.198   5.070 -0.4893 -0.3089  0.0053
 8433SOL    HW136518   4.359   2.273   5.054  1.4383 -1.9518  0.0374
 8433SOL    HW236519   4.302   2.131   4.996 -1.3032 -1.1161  0.6527
 8434SOL     OW36520   2.694   2.780   4.382  0.2434 -0.1370  0.2872
 8434SOL    HW136521   2.746   2.695   4.375  1.8433  0.7752  0.9049
 8434SOL    HW236522   2.659   2.806   4.292  0.0024 -1.2719  0.0430
 8435SOL     OW36523   8.968   2.026   1.774 -0.1637  0.2752  0.1273
 8435SOL    HW136524   8.934   1.963   1.704  0.9630 -1.0762  0.7703
 8435SOL    HW236525   9.054   1.990   1.812  0.9670  2.6358 -0.1077
 8436SOL     OW36526   8.340   1.983   1.390 -0.4589  0.5083  0.1535
 8436SOL    HW136527   8.270   1.917   1.418 -1.7019  2.1499  1.0158
 8436SOL    HW236528   8.395   1.945   1.316 -1.0600 -1.5437  0.7419
 8437SOL     OW36529   0.650   6.297   0.919 -0.3235 -0.5671  0.7256
 8437SOL    HW136530   0.651   6.397   0.915 -0.9690 -0.5272  1.5287
 8437SOL    HW236531   0.736   6.264   0.959 -0.6545 -0.2812  1.6629
 8438SOL     OW36532   3.855   1.990   6.227 -0.1383  0.3533 -0.0079
 8438SOL    HW136533   3.947   1.960   6.204  0.1700  0.0676  1.5634
 8438SOL    HW236534   3.858   2.047   6.308 -1.4965 -0.7367  0.8254
 8439SOL     OW36535   1.925   3.661   3.026 -0.0572 -0.0258  0.3875
 8439SOL    HW136536   1.840   3.622   2.991 -0.9321  1.2013  1.0992
 8439SOL    HW236537   1.941   3.628   3.119 -1.5050  2.2865  1.5069
 8440SOL     OW36538   5.785   1.350   2.911  0.1826  0.1199  0.5255
 8440SOL    HW136539   5.737   1.369   2.826  0.8958  0.1403  0.1260
 8440SOL    HW236540   5.880   1.327   2.892  0.4597  0.5556  1.3424
 8441SOL     OW36541   4.492   5.236   1.692  0.4143 -0.2075 -0.7458
 8441SOL    HW136542   4.584   5.273   1.701  0.8316 -1.5178  0.4126
 8441SOL    HW236543   4.426   5.302   1.730  1.1081 -0.4058  0.8131
 8442SOL     OW36544   4.648   1.015   4.103  0.3446 -0.0490  0.0361
 8442SOL    HW136545   4.643   0.931   4.048  0.8782  0.0035 -0.0885
 8442SOL    HW236546   4.720   1.007   4.171 -0.3104 -0.1074  0.7343
 8443SOL     OW36547   8.323   3.138   6.533  0.2977  0.4051  0.0393
 8443SOL    HW136548   8.347   3.155   6.628 -0.6962 -0.5156  0.4546
 8443SOL    HW236549   8.225   3.150   6.520  0.3829  0.2307 -0.8029
 8444SOL     OW36550   1.340   8.646   4.375 -0.4964 -0.1324 -0.1301
 8444SOL    HW136551   1.283   8.619   4.452  0.3857  0.8059  0.8699
 8444SOL    HW236552   1.413   8.579   4.363  0.7496  0.9355  1.3415
 8445SOL     OW36553   7.176   0.204   2.939 -0.3156  0.2498  0.2056
 8445SOL    HW136554   7.156   0.287   2.992 -0.7907 -0.5673  1.3129
 8445SOL    HW236555   7.274   0.202   2.917 -0.4616  1.5906 -0.6828
 8446SOL     OW36556   2.981   2.505   5.543  0.0239  0.2845  0.8701
 8446SOL    HW136557   2.898   2.482   5.594 -0.7231  3.0590  1.0209
 8446SOL    HW236558   3.043   2.557   5.602  0.5378  0.7949 -0.1025
 8447SOL     OW36559   2.471   6.636   2.188 -0.5147 -0.1168 -0.0845
 8447SOL    HW136560   2.435   6.637   2.281  0.9588 -0.7940  0.5177
 8447SOL    HW236561   2.420   6.570   2.133  0.4662 -1.8838  1.0550
 8448SOL     OW36562   5.344   8.587   5.800  0.3813 -0.1966  0.4706
 8448SOL    HW136563   5.245   8.592   5.808  0.2441 -1.8177  0.0465
 8448SOL    HW236564   5.368   8.517   5.732  1.7641  1.8653 -1.2552
 8449SOL     OW36565   9.072   9.411   6.388 -0.3054  0.3176  0.0148
 8449SOL    HW136566   8.976   9.385   6.390 -1.3825  3.9612 -0.6992
 8449SOL    HW236567   9.109   9.413   6.481 -1.2433  0.0549  0.3938
 8450SOL     OW36568   9.414   6.925   0.138  0.2342 -0.1417  0.0572
 8450SOL    HW136569   9.416   6.998   0.070 -0.3018 -0.5584 -0.4088
 8450SOL    HW236570   9.502   6.877   0.137  1.1279  1.3974  1.3746
 8451SOL     OW36571   2.088   1.324   1.134 -0.4452 -0.3575 -1.0846
 8451SOL    HW136572   2.050   1.399   1.188  0.7795  1.3570 -2.5269
 8451SOL    HW236573   2.176   1.296   1.173 -0.0276  0.2209 -1.5930
 8452SOL     OW36574   8.957   4.971   4.503 -0.3276 -0.5161  0.1122
 8452SOL    HW136575   9.052   4.985   4.474 -0.5583  1.9496  0.4293
 8452SOL    HW236576   8.939   4.873   4.512  0.4626 -1.3930 -5.7973
 8453SOL     OW36577   1.729   4.634   4.925  0.0591 -0.1950  0.0521
 8453SOL    HW136578   1.654   4.581   4.884  1.3344  0.1456 -2.8360
 8453SOL    HW236579   1.815   4.585   4.911  0.5875  0.1637  1.9937
 8454SOL     OW36580   3.131   6.418   6.423  0.9067 -0.4171 -0.1046
 8454SOL    HW136581   3.153   6.459   6.512  1.4910 -0.8178 -0.0607
 8454SOL    HW236582   3.209   6.426   6.362  0.6834 -0.6003 -0.4177
 8455SOL     OW36583   2.782   2.962   1.582 -0.1221 -0.0986  0.0810
 8455SOL    HW136584   2.811   3.001   1.494  0.4790  0.4901  0.5374
 8455SOL    HW236585   2.779   2.862   1.574  0.0808 -0.0600 -0.5632
 8456SOL     OW36586   9.299   0.551   5.009 -0.1622  0.6976  0.6178
 8456SOL    HW136587   9.325   0.456   4.993  0.2178  0.9508 -0.2962
 8456SOL    HW236588   9.349   0.611   4.947  0.5998  1.6322  2.1047
 8457SOL     OW36589   8.958   5.581   3.303 -0.1270 -0.2310 -0.3461
 8457SOL    HW136590   8.870   5.613   3.338  1.3265  0.3555  2.9779
 8457SOL    HW236591   9.004   5.655   3.256 -0.2083  0.2619  0.3438
 8458SOL     OW36592   9.876   0.603   3.014 -0.4610 -0.2212  1.1112
 8458SOL    HW136593   9.877   0.554   3.101  1.5995 -0.6912  0.8429
 8458SOL    HW236594   9.893   0.539   2.939 -1.3796  0.3214  0.4172
 8459SOL     OW36595   7.011   8.489   4.949 -0.2942 -0.4666 -0.1660
 8459SOL    HW136596   7.042   8.419   5.015 -1.2788  0.8000  1.7032
 8459SOL    HW236597   7.088   8.520   4.894  0.6194 -1.3760  0.5764
 8460SOL     OW36598   1.821   1.900   3.105 -0.3637 -0.1184 -0.0907
 8460SOL    HW136599   1.760   1.901   3.185 -0.2980 -1.9292 -0.0060
 8460SOL    HW236600   1.906   1.852   3.129 -0.8473 -1.7508 -1.6030
 8461SOL     OW36601   2.529   5.512   0.609 -0.1629  0.0064  0.6869
 8461SOL    HW136602   2.500   5.569   0.532 -2.0497  0.0909  1.4342
 8461SOL    HW236603   2.448   5.470   0.652  1.0519 -1.9456  1.1474
 8462SOL     OW36604   9.108   6.985   3.769  0.6638  0.3146  0.7873
 8462SOL    HW136605   9.024   6.976   3.822  0.4646  1.7353  0.7439
 8462SOL    HW236606   9.163   6.902   3.779 -1.2481 -1.0957 -0.1052
 8463SOL     OW36607   3.552   0.680   5.213 -0.6881  0.4141  0.7946
 8463SOL    HW136608   3.575   0.732   5.131  1.6367  1.3888  2.0002
 8463SOL    HW236609   3.524   0.588   5.187 -0.5343  0.8851 -1.1297
 8464SOL     OW36610   9.965   8.296   3.212  0.0627  0.4371  0.6082
 8464SOL    HW136611   9.956   8.262   3.118 -2.1607  1.5796  0.3722
 8464SOL    HW236612   9.932   8.227   3.276 -0.0878  0.3475  0.4346
 8465SOL     OW36613   3.012   6.027   1.615 -0.4202 -0.0438 -0.0297
 8465SOL    HW136614   3.090   6.012   1.554 -0.6065 -0.8022 -0.0866
 8465SOL    HW236615   2.944   6.083   1.569 -0.0025  0.4400 -0.0609
 8466SOL     OW36616   9.632   1.140   1.535 -0.0805 -0.1071 -0.3653
 8466SOL    HW136617   9.666   1.171   1.624 -2.6774 -1.3741  1.1273
 8466SOL    HW236618   9.688   1.064   1.503  0.1038 -0.5005  0.8389
 8467SOL     OW36619   4.030   2.053   5.626 -0.1369 -0.3934  1.0193
 8467SOL    HW136620   3.973   2.135   5.632 -0.7186 -0.9418  4.1242
 8467SOL    HW236621   4.126   2.080   5.623 -0.3616  0.4329  1.0376
 8468SOL     OW36622   8.982   9.796   0.204 -0.5143  0.1616 -0.2330
 8468SOL    HW136623   8.996   9.735   0.126 -0.8137 -0.5800  0.2767
 8468SOL    HW236624   9.069   9.833   0.234  0.0036 -1.9663  0.9915
 8469SOL     OW36625   0.588   8.859   0.602  0.3018  0.1267 -0.3689
 8469SOL    HW136626   0.556   8.805   0.679  1.8342  0.9777  0.8894
 8469SOL    HW236627   0.527   8.937   0.588 -0.1767 -0.2268 -0.2581
 8470SOL     OW36628   2.317   7.459   3.769  0.5912 -0.5643 -0.1426
 8470SOL    HW136629   2.257   7.469   3.849 -0.7416  1.0715 -1.3090
 8470SOL    HW236630   2.268   7.410   3.697  2.1478 -2.9581  0.3814
 8471SOL     OW36631   0.015   9.908   5.137  0.5032 -0.0332 -0.4761
 8471SOL    HW136632  -0.039   9.835   5.180 -0.3595  0.4227 -0.7749
 8471SOL    HW236633  -0.043   9.987   5.120  1.8790  1.4454  1.5552
 8472SOL     OW36634   5.478   9.395   5.884  0.2765 -0.4159  0.0194
 8472SOL    HW136635   5.550   9.441   5.832 -1.2556  0.9637 -0.9063
 8472SOL    HW236636   5.413   9.353   5.821 -0.6583 -0.2133  0.8412
 8473SOL     OW36637   4.843   8.029   3.455 -0.6092 -0.7579  0.1057
 8473SOL    HW136638   4.802   7.944   3.423 -1.6836 -0.1084 -0.2739
 8473SOL    HW236639   4.774   8.101   3.456  0.3618  0.1870  0.1298
 8474SOL     OW36640   2.737   7.285   0.950 -0.4158 -0.3559  0.4329
 8474SOL    HW136641   2.693   7.213   0.896  1.7731 -1.0674 -0.4905
 8474SOL    HW236642   2.762   7.361   0.890  1.7723 -1.0211  0.4560
 8475SOL     OW36643   1.375   9.715   5.292  0.3527  0.5343 -0.0483
 8475SOL    HW136644   1.285   9.672   5.302 -0.9477  2.8662 -1.4227
 8475SOL    HW236645   1.444   9.644   5.275 -1.2181 -1.2611  0.9277
 8476SOL     OW36646   9.502   2.853   4.135 -0.0542 -0.0801  0.2727
 8476SOL    HW136647   9.435   2.919   4.099  0.4059  1.2295  1.7281
 8476SOL    HW236648   9.592   2.872   4.097  0.0612  0.0756  0.6237
 8477SOL     OW36649   1.721   6.903   4.609 -0.3534 -0.5689  0.4798
 8477SOL    HW136650   1.725   6.903   4.709  1.9387 -1.8310  0.4400
 8477SOL    HW236651   1.760   6.817   4.575  0.0354  0.3830 -1.5354
 8478SOL     OW36652   7.095   5.156   0.147  0.2118  0.2874 -0.2260
 8478SOL    HW136653   7.058   5.189   0.234  1.1252  0.0807  0.2375
 8478SOL    HW236654   7.177   5.101   0.164  1.3605  1.6347 -1.3283
 8479SOL     OW36655   0.259   4.541   3.150  0.8405 -0.2568  0.3610
 8479SOL    HW136656   0.349   4.564   3.112  0.8825 -0.7322  0.1776
 8479SOL    HW236657   0.192   4.610   3.119  0.4977 -1.6227 -2.0781
 8480SOL     OW36658   9.424   3.734   1.512  0.7554 -0.4962 -0.4297
 8480SOL    HW136659   9.353   3.696   1.454  0.4409 -1.0941  0.3393
 8480SOL    HW236660   9.387   3.750   1.604  1.4367 -0.2096 -0.1987
 8481SOL     OW36661   0.228   4.822   0.131 -0.6227 -0.1941 -0.0227
 8481SOL    HW136662   0.131   4.840   0.119 -0.5284 -0.1535 -0.7088
 8481SOL    HW236663   0.277   4.841   0.046  0.0768  0.4344  0.5139
 8482SOL     OW36664   0.100   6.304   1.416 -0.3952  0.0855 -0.0198
 8482SOL    HW136665   0.124   6.228   1.357 -0.5205 -0.4655  0.6359
 8482SOL    HW236666   0.115   6.390   1.367 -0.6266 -0.3657 -0.8965
 8483SOL     OW36667   5.118   9.381   5.519  0.2507 -0.1658 -0.2269
 8483SOL    HW136668   5.072   9.316   5.457  2.6446 -0.0055 -2.2586
 8483SOL    HW236669   5.094   9.474   5.492  0.6375 -0.1141 -0.3867
 8484SOL     OW36670   0.661   4.682   5.037 -0.2084 -0.0945 -0.0156
 8484SOL    HW136671   0.699   4.589   5.041 -1.9995 -0.8711 -0.6644
 8484SOL    HW236672   0.725   4.741   4.988 -0.1527 -1.5647 -1.7749
 8485SOL     OW36673   2.629   7.928   0.660 -0.4581 -0.7010  0.0119
 8485SOL    HW136674   2.681   7.940   0.576 -2.3961 -1.3551 -1.3367
 8485SOL    HW236675   2.625   8.014   0.711 -0.7712  0.1921 -1.4865
 8486SOL     OW36676   4.282   3.522   4.519 -0.2500  0.7299  0.3855
 8486SOL    HW136677   4.354   3.508   4.587  0.7022  1.2219 -0.5075
 8486SOL    HW236678   4.320   3.571   4.440 -1.3880  0.3361 -0.4157
 8487SOL     OW36679   2.943   1.053   6.122 -0.0564  0.1625 -0.2498
 8487SOL    HW136680   2.851   1.087   6.143 -0.1309 -0.2641  0.1269
 8487SOL    HW236681   2.989   1.117   6.060 -0.9706 -0.1138 -1.2322
 8488SOL     OW36682   9.648   8.389   5.642 -0.4365 -0.2232 -0.0231
 8488SOL    HW136683   9.663   8.465   5.706 -0.7161  0.2037 -0.4543
 8488SOL    HW236684   9.670   8.303   5.686 -0.1536  0.1082  0.4909
 8489SOL     OW36685   4.686   1.771   0.517  0.3217 -0.1248  0.1152
 8489SOL    HW136686   4.670   1.826   0.599  1.5057 -0.0642  0.3005
 8489SOL    HW236687   4.721   1.830   0.444 -0.2857 -0.2693 -0.3059
 8490SOL     OW36688   4.443   5.521   0.266 -0.1232  0.5349  0.1289
 8490SOL    HW136689   4.540   5.529   0.241 -0.2112  0.0126 -0.3943
 8490SOL    HW236690   4.407   5.435   0.230 -0.0331 -0.6469  2.7032
 8491SOL     OW36691   2.790   0.226   4.708  0.0298 -0.0680  0.0184
 8491SOL    HW136692   2.755   0.270   4.625  0.5071  2.6066  1.1606
 8491SOL    HW236693   2.890   0.237   4.712 -0.0350  0.1917  1.1381
 8492SOL     OW36694   9.604   8.244   2.396 -0.6328 -0.6655 -0.9178
 8492SOL    HW136695   9.691   8.196   2.380 -0.1336  0.3677 -1.3424
 8492SOL    HW236696   9.590   8.256   2.495 -0.2174 -0.6948 -0.8548
 8493SOL     OW36697   2.969   6.425   3.960  0.4531  0.1476 -0.1788
 8493SOL    HW136698   3.002   6.475   3.880  0.0425  1.2020  0.3037
 8493SOL    HW236699   2.889   6.371   3.935 -0.4769  1.5106 -0.1815
 8494SOL     OW36700   1.898   6.354   4.367  0.3030  0.5110 -0.1559
 8494SOL    HW136701   1.899   6.342   4.267  1.0253  1.6763 -0.3053
 8494SOL    HW236702   1.982   6.316   4.406  0.3613  0.7100 -0.0838
 8495SOL     OW36703   4.716   2.381   4.001 -0.6923 -0.2601  0.0550
 8495SOL    HW136704   4.625   2.418   3.984 -0.5800 -0.7464 -1.7421
 8495SOL    HW236705   4.755   2.424   4.082 -2.3870  0.1888  0.6556
 8496SOL     OW36706   4.677   1.430   1.787 -0.3669 -0.0404 -0.0787
 8496SOL    HW136707   4.616   1.407   1.863  2.1644 -2.8605  1.1861
 8496SOL    HW236708   4.752   1.486   1.820  0.7353 -1.2628 -0.4771
 8497SOL     OW36709   2.867   8.786   0.091 -0.1002  0.0339  0.5936
 8497SOL    HW136710   2.791   8.850   0.083  1.2117  1.6573  0.5807
 8497SOL    HW236711   2.947   8.823   0.043  1.2882 -0.6364  2.2962
 8498SOL     OW36712   7.906   2.758   1.889 -0.0598 -0.0702 -0.6687
 8498SOL    HW136713   7.822   2.708   1.912  0.0919  0.0696  0.2208
 8498SOL    HW236714   7.977   2.735   1.955  0.2133  0.7870 -0.6551
 8499SOL     OW36715   8.125   1.845   3.246  0.0039 -0.3679  0.1140
 8499SOL    HW136716   8.029   1.845   3.217 -0.1160  0.5677  0.4914
 8499SOL    HW236717   8.130   1.859   3.345  0.4974 -1.3578  0.2323
 8500SOL     OW36718   0.492   0.984   3.533 -0.0319 -0.0903  0.1844
 8500SOL    HW136719   0.444   0.978   3.621 -0.3472 -0.1184  0.0088
 8500SOL    HW236720   0.447   1.051   3.475  0.5564  0.3982  0.2831
 8501SOL     OW36721   8.304   0.840   5.124 -0.0481 -0.1280 -0.6704
 8501SOL    HW136722   8.267   0.751   5.151 -0.8476  0.6070  0.7276
 8501SOL    HW236723   8.402   0.842   5.142 -0.0134 -0.7605 -0.7816
 8502SOL     OW36724   9.659   3.342   2.484  0.1323 -0.1147 -0.1344
 8502SOL    HW136725   9.561   3.344   2.469  0.0090  0.7529  0.7833
 8502SOL    HW236726   9.704   3.300   2.405 -0.8859  0.3216 -0.9471
 8503SOL     OW36727   5.684   1.606   3.803  0.7524  0.0327 -0.2110
 8503SOL    HW136728   5.651   1.542   3.873 -1.3882  1.4472  0.1170
 8503SOL    HW236729   5.678   1.562   3.713  1.1830 -0.9240  0.2184
 8504SOL     OW36730   0.195   3.749   6.251  0.5881 -0.7060  0.1624
 8504SOL    HW136731   0.183   3.827   6.312 -2.8323 -0.8682 -0.2307
 8504SOL    HW236732   0.269   3.768   6.187  1.7438  0.9828  1.9437
 8505SOL     OW36733   1.794   5.179   3.301 -0.4245 -0.0592 -0.6230
 8505SOL    HW136734   1.834   5.200   3.389  0.3978 -2.6791 -0.3242
 8505SOL    HW236735   1.701   5.143   3.314  0.2612 -1.8900 -0.6920
 8506SOL     OW36736   2.959   0.210   3.139 -0.2046 -0.3243 -0.1721
 8506SOL    HW136737   2.904   0.252   3.211  2.3522  0.0403  1.6364
 8506SOL    HW236738   2.899   0.180   3.065 -2.5405  2.5540  0.4431
 8507SOL     OW36739   4.267   9.919   1.288  0.0226  0.1223  0.2233
 8507SOL    HW136740   4.240   9.825   1.271  1.7274 -0.3281 -0.1324
 8507SOL    HW236741   4.305   9.959   1.204 -0.3666  1.0178  0.4596
 8508SOL     OW36742   9.945   6.585   4.629 -0.0154  0.5298 -0.0552
 8508SOL    HW136743   9.977   6.564   4.721  1.1539  0.3101 -0.5059
 8508SOL    HW236744   9.845   6.596   4.630 -0.1746 -0.9285  0.9476
 8509SOL     OW36745   4.248   8.642   3.920 -0.4594 -0.2363  0.8241
 8509SOL    HW136746   4.242   8.732   3.877 -1.1015 -0.4328  0.4895
 8509SOL    HW236747   4.330   8.595   3.889  1.0615  1.1097  2.7043
 8510SOL     OW36748   8.828   3.121   0.551 -0.0527  0.0300  0.1227
 8510SOL    HW136749   8.910   3.109   0.606 -0.7135 -0.4857  1.0174
 8510SOL    HW236750   8.748   3.090   0.603 -0.6359 -0.9866 -1.3245
 8511SOL     OW36751   9.278   4.419   3.652  0.3015  0.0415 -0.1909
 8511SOL    HW136752   9.250   4.347   3.716 -1.3234  0.8049 -0.0335
 8511SOL    HW236753   9.311   4.377   3.567  0.6789 -0.9183  0.4133
 8512SOL     OW36754   2.301   6.528   1.422  0.7695 -0.0087  0.6535
 8512SOL    HW136755   2.286   6.468   1.500  0.1160 -1.7861 -0.7989
 8512SOL    HW236756   2.226   6.517   1.356  2.2338  0.0313 -1.0785
 8513SOL     OW36757   0.290   4.849   5.742  0.5104  0.1041 -0.4370
 8513SOL    HW136758   0.252   4.890   5.825  1.0105 -0.5899  0.1342
 8513SOL    HW236759   0.319   4.922   5.680 -0.2350  0.6255 -0.1804
 8514SOL     OW36760   4.921   4.148   4.058  0.0484  0.2043  0.5738
 8514SOL    HW136761   4.927   4.048   4.057 -1.2386  0.1170 -0.8931
 8514SOL    HW236762   4.882   4.178   4.145  0.3527 -0.5830  0.9852
 8515SOL     OW36763   3.771   1.699   1.711  0.0381  0.1822 -0.1746
 8515SOL    HW136764   3.767   1.742   1.621 -1.8443  0.6486  0.1251
 8515SOL    HW236765   3.798   1.603   1.701 -1.4542 -0.1320 -1.3504
 8516SOL     OW36766   8.571   5.703   1.406  0.1831  0.0966 -0.4661
 8516SOL    HW136767   8.503   5.731   1.473 -0.0324 -0.2111 -0.5586
 8516SOL    HW236768   8.655   5.675   1.452 -0.1541 -0.6392 -0.3054
 8517SOL     OW36769   6.961   9.005   4.938 -0.0227  0.6461 -0.2130
 8517SOL    HW136770   6.947   9.068   4.862  0.3982 -0.0576 -0.8842
 8517SOL    HW236771   7.042   8.950   4.921  0.7763  1.3087  1.3181
 8518SOL     OW36772   9.891   4.011   4.190  0.1955 -0.2632 -0.4042
 8518SOL    HW136773   9.863   3.916   4.198  0.1288 -0.0087  2.9348
 8518SOL    HW236774   9.990   4.017   4.184  0.1835 -0.5492 -0.8855
 8519SOL     OW36775   1.373   0.246   4.863 -0.3248  0.0391 -0.4858
 8519SOL    HW136776   1.280   0.278   4.843 -0.3255 -0.0282 -0.5899
 8519SOL    HW236777   1.384   0.153   4.830  0.3866  0.7256 -2.2711
 8520SOL     OW36778   3.944   8.596   4.698 -0.3108  0.2351 -0.0622
 8520SOL    HW136779   3.890   8.680   4.703  0.6743  0.8527  0.2558
 8520SOL    HW236780   3.995   8.584   4.783 -0.1010 -0.4564 -0.2814
 8521SOL     OW36781   4.488   0.184   3.477  0.1001 -0.6644  0.3650
 8521SOL    HW136782   4.573   0.237   3.478  0.2701 -0.9194 -0.3230
 8521SOL    HW236783   4.490   0.116   3.550  0.3874 -0.5125  0.5005
 8522SOL     OW36784   8.700   6.601   2.363  0.1380  0.3919  0.5369
 8522SOL    HW136785   8.694   6.514   2.412  0.5218 -0.4749 -0.9228
 8522SOL    HW236786   8.611   6.645   2.363 -0.4236 -0.7160  0.0144
 8523SOL     OW36787   8.793   3.971   4.094 -0.1016 -0.6346  0.2799
 8523SOL    HW136788   8.744   4.045   4.047 -1.4119 -0.7504  1.4401
 8523SOL    HW236789   8.758   3.883   4.063  0.7935 -0.7664 -0.3841
 8524SOL     OW36790   1.829   3.765   3.559  0.5503  0.2392  0.4280
 8524SOL    HW136791   1.780   3.720   3.484  0.9074  1.5006 -0.5863
 8524SOL    HW236792   1.782   3.748   3.645 -0.8861  0.2577 -0.3381
 8525SOL     OW36793   7.963   0.129   6.711 -0.0235  0.2092  0.5786
 8525SOL    HW136794   7.931   0.038   6.738  0.0099  0.5471  1.7940
 8525SOL    HW236795   7.996   0.178   6.792  3.2102  0.0185 -0.5544
 8526SOL     OW36796   8.557   9.020   6.092  0.6107 -0.3727 -0.7686
 8526SOL    HW136797   8.620   8.955   6.134  1.3351  0.9822  0.3239
 8526SOL    HW236798   8.465   9.005   6.128  1.1731  0.5967  1.1714
 8527SOL     OW36799   3.713   6.311   0.623 -0.0425 -0.2179 -0.0518
 8527SOL    HW136800   3.700   6.221   0.664 -0.5459 -0.4820 -0.7903
 8527SOL    HW236801   3.629   6.365   0.635 -0.3098 -0.4098 -1.0169
 8528SOL     OW36802   4.773   8.905   3.076 -0.4867  0.0391 -0.7745
 8528SOL    HW136803   4.712   8.940   3.005  0.7578  1.6007 -1.1101
 8528SOL    HW236804   4.803   8.981   3.134  0.6142 -0.8083 -0.2163
 8529SOL     OW36805   1.680   9.146   1.789  0.3325  0.1132 -0.2970
 8529SOL    HW136806   1.631   9.210   1.849  0.2703  0.2083 -0.4492
 8529SOL    HW236807   1.676   9.054   1.828 -1.2361 -0.1568 -1.0436
 8530SOL     OW36808   1.725   4.163   3.899  0.1053 -0.2867 -0.0012
 8530SOL    HW136809   1.652   4.118   3.847  0.2289 -0.1247 -0.3166
 8530SOL    HW236810   1.813   4.124   3.872  0.2763  0.6604 -0.8121
 8531SOL     OW36811   2.143   9.027   2.548 -0.4421  0.8821  0.5439
 8531SOL    HW136812   2.191   9.083   2.616 -2.2771  2.8017  0.2956
 8531SOL    HW236813   2.057   9.072   2.522 -1.0924 -1.1875 -0.9978
 8532SOL     OW36814   0.911   6.302   4.581  0.1525 -0.6174 -0.1305
 8532SOL    HW136815   0.932   6.382   4.637  1.5556  0.2778 -1.8965
 8532SOL    HW236816   0.970   6.225   4.608  3.0555  0.7178 -2.3925
 8533SOL     OW36817   0.306   1.933   0.595 -0.0360 -0.1935  0.2276
 8533SOL    HW136818   0.227   1.876   0.618 -1.1473  1.5463  0.8618
 8533SOL    HW236819   0.277   2.029   0.589  1.8768  0.3697 -0.3557
 8534SOL     OW36820   8.848   0.037   5.565  0.0258 -0.2369 -0.0780
 8534SOL    HW136821   8.902  -0.029   5.512 -0.2031 -1.2541  0.9224
 8534SOL    HW236822   8.751   0.017   5.552 -0.0896  0.9042 -1.0111
 8535SOL     OW36823   3.157   0.675   4.039 -0.2006  0.4041  0.1394
 8535SOL    HW136824   3.083   0.715   4.094  0.0845  0.6246  0.3639
 8535SOL    HW236825   3.203   0.603   4.091  1.5749  2.1814  1.0989
 8536SOL     OW36826   4.369   1.302   0.153 -0.1625  0.2659 -0.7203
 8536SOL    HW136827   4.381   1.205   0.177 -1.4740  0.6343  1.5774
 8536SOL    HW236828   4.273   1.327   0.166  0.0860  1.7944 -1.7280
 8537SOL     OW36829   9.386   0.154   6.557 -0.4388  0.2784  0.3646
 8537SOL    HW136830   9.368   0.056   6.562 -1.6750  0.5376  1.1376
 8537SOL    HW236831   9.468   0.170   6.502  0.0642 -1.2124  0.6670
 8538SOL     OW36832   3.832   3.740   2.714 -0.4251  0.1211 -0.5978
 8538SOL    HW136833   3.835   3.825   2.660  1.3363 -0.1083 -0.8860
 8538SOL    HW236834   3.775   3.755   2.796  0.5235  1.8340 -0.2219
 8539SOL     OW36835   2.682   9.225   1.293  0.2993  0.1304 -0.0916
 8539SOL    HW136836   2.770   9.217   1.339  0.6895  1.8926 -0.5083
 8539SOL    HW236837   2.625   9.292   1.342 -0.8881 -1.1088  0.2765
 8540SOL     OW36838   4.501   9.101   3.151  0.2072 -0.1655  0.0336
 8540SOL    HW136839   4.420   9.050   3.123  0.3181 -0.6165  0.5232
 8540SOL    HW236840   4.550   9.133   3.070  1.5225 -3.0167 -0.3689
 8541SOL     OW36841   4.681   4.253   2.207 -0.4786  0.7593  0.1117
 8541SOL    HW136842   4.615   4.216   2.142 -0.6211  0.6538  0.3170
 8541SOL    HW236843   4.700   4.348   2.184  0.0731  0.4953 -0.5668
 8542SOL     OW36844   2.263   6.630   4.133  0.2769  0.7751  0.6386
 8542SOL    HW136845   2.237   6.691   4.208  1.5491  1.5846  0.4414
 8542SOL    HW236846   2.362   6.631   4.123  0.0889  0.9430 -1.2811
 8543SOL     OW36847   5.191   4.246   1.373 -0.3818 -0.2189  0.4235
 8543SOL    HW136848   5.181   4.275   1.469  0.7488 -0.9033  0.7587
 8543SOL    HW236849   5.151   4.315   1.313 -0.8940  0.3280  1.3802
 8544SOL     OW36850   1.905   7.673   4.622  0.3136  0.4047  0.1287
 8544SOL    HW136851   1.838   7.739   4.657 -1.1994 -1.0479  0.0186
 8544SOL    HW236852   1.927   7.606   4.693 -0.8604 -1.0707 -0.8828
 8545SOL     OW36853   2.571   2.753   4.952  0.2547 -0.2644  0.9788
 8545SOL    HW136854   2.506   2.815   4.908  1.1457  0.5995  0.8709
 8545SOL    HW236855   2.635   2.806   5.007  0.6913 -1.1393  1.3223
 8546SOL     OW36856   9.586   6.688   4.737  0.3420  0.1663  0.0178
 8546SOL    HW136857   9.599   6.628   4.659 -1.1793  0.4950 -0.4957
 8546SOL    HW236858   9.519   6.648   4.800  1.9074 -0.3261  1.4043
 8547SOL     OW36859   1.402   6.619   2.454 -0.8152  0.1314 -0.0993
 8547SOL    HW136860   1.418   6.578   2.364  1.6507  0.8899 -0.0466
 8547SOL    HW236861   1.450   6.565   2.524 -0.2183  1.2640  0.3697
 8548SOL     OW36862   5.832   8.945   3.003 -0.4755 -0.7794 -0.3064
 8548SOL    HW136863   5.833   8.850   2.973  0.7453 -0.4799 -1.2811
 8548SOL    HW236864   5.791   9.002   2.932  0.2933 -0.3725 -0.4333
 8549SOL     OW36865   0.645   0.347   2.062  0.4091  0.0467  0.1170
 8549SOL    HW136866   0.596   0.275   2.013  1.2077  0.4796 -1.3421
 8549SOL    HW236867   0.723   0.307   2.110 -1.6271 -0.7314  2.8927
 8550SOL     OW36868   6.530   5.096   0.515  0.1824 -0.2966 -0.3285
 8550SOL    HW136869   6.621   5.101   0.555 -0.1230  1.2681  0.1979
 8550SOL    HW236870   6.531   5.032   0.438  2.4943  2.0286 -2.3440
 8551SOL     OW36871   8.965   0.975   6.645 -0.2277 -0.1575  0.1481
 8551SOL    HW136872   8.960   0.945   6.740  0.5919 -0.6031  0.0571
 8551SOL    HW236873   9.058   1.004   6.624 -0.4684  0.1983 -0.4395
 8552SOL     OW36874   6.207   8.257   3.469  0.3175 -0.0923 -0.2441
 8552SOL    HW136875   6.283   8.257   3.405  1.2498 -0.2598  0.8532
 8552SOL    HW236876   6.233   8.304   3.553 -0.5710 -0.6999  0.3912
 8553SOL     OW36877   3.790   9.716   6.287 -0.7893  0.2415  0.1117
 8553SOL    HW136878   3.793   9.650   6.212  0.1674  1.3295 -0.8304
 8553SOL    HW236879   3.789   9.668   6.374  2.7099 -1.0404 -0.4671
 8554SOL     OW36880   2.252   5.406   1.740 -0.0595 -0.0682 -0.0594
 8554SOL    HW136881   2.303   5.470   1.798 -0.9246  1.4479 -0.9142
 8554SOL    HW236882   2.160   5.395   1.777  0.2362 -1.2104  0.3490
 8555SOL     OW36883   8.821   6.953   1.209 -0.5696  0.2075  0.2119
 8555SOL    HW136884   8.815   6.945   1.308 -2.0154  0.6606  0.1746
 8555SOL    HW236885   8.810   7.049   1.182 -0.1077  0.1030 -0.3884
 8556SOL     OW36886   9.758   2.035   6.389 -0.5221  0.4898  0.1478
 8556SOL    HW136887   9.753   1.990   6.300 -1.2431  1.2266 -0.1962
 8556SOL    HW236888   9.695   1.991   6.453  1.0118 -0.9206  0.7052
 8557SOL     OW36889   2.378   2.926   1.397  1.1381  1.1676 -0.2631
 8557SOL    HW136890   2.320   3.007   1.382  2.6633  1.7506 -3.5235
 8557SOL    HW236891   2.324   2.844   1.382  0.0992  1.6195  0.9536
 8558SOL     OW36892   5.630   2.517   2.252 -0.5341  0.3555  0.2802
 8558SOL    HW136893   5.560   2.505   2.323 -0.3556 -2.1890  0.0727
 8558SOL    HW236894   5.704   2.450   2.266  1.2643  2.1973 -0.2286
 8559SOL     OW36895   4.959   7.464   2.060 -0.2371  0.0879  0.1183
 8559SOL    HW136896   4.913   7.479   2.148  0.7711 -0.6536  0.7789
 8559SOL    HW236897   4.927   7.532   1.994 -0.0850  1.4268  1.3977
 8560SOL     OW36898   0.610   8.887   2.018 -0.3307  0.4185 -0.2631
 8560SOL    HW136899   0.614   8.947   2.098 -0.7800  1.1945 -0.8211
 8560SOL    HW236900   0.687   8.823   2.022 -0.5489  0.2200  0.9683
 8561SOL     OW36901   1.903   4.110   5.476 -0.3685  0.0523  0.3264
 8561SOL    HW136902   1.825   4.111   5.538 -1.0397 -1.7169 -0.4413
 8561SOL    HW236903   1.978   4.058   5.516  0.2805  1.3677  0.8681
 8562SOL     OW36904   7.160   8.425   2.641 -0.5413 -0.3110 -0.3775
 8562SOL    HW136905   7.161   8.523   2.621 -2.3770 -0.5942 -2.0542
 8562SOL    HW236906   7.066   8.394   2.650  0.0210 -1.9815 -0.0988
 8563SOL     OW36907   7.181   1.058   4.240 -0.4880  0.5564 -0.1306
 8563SOL    HW136908   7.172   0.997   4.319 -0.1475  1.5029  0.6483
 8563SOL    HW236909   7.275   1.053   4.206 -0.2045  1.3452  0.5189
 8564SOL     OW36910   1.340   4.211   1.145 -0.1677  0.3650 -0.5460
 8564SOL    HW136911   1.342   4.208   1.045  0.8325 -3.2969 -0.4916
 8564SOL    HW236912   1.273   4.146   1.179 -0.5670  1.6608  1.1856
 8565SOL     OW36913   0.220   0.584   5.907  0.1057  0.6455 -0.0642
 8565SOL    HW136914   0.287   0.540   5.968  0.2788  0.0951 -0.6524
 8565SOL    HW236915   0.173   0.657   5.957  0.5350  0.4648  0.6112
 8566SOL     OW36916   0.105   8.324   1.371  0.1364 -0.6537 -0.8829
 8566SOL    HW136917   0.150   8.413   1.379 -0.6007 -0.3151 -0.3510
 8566SOL    HW236918   0.173   8.251   1.374  0.6719 -0.1414 -0.3972
 8567SOL     OW36919   4.312   7.610   2.629 -0.5755 -0.0874  0.0171
 8567SOL    HW136920   4.267   7.678   2.571 -0.2522  0.7677  0.7528
 8567SOL    HW236921   4.352   7.539   2.572 -2.2974 -0.5228 -0.6875
 8568SOL     OW36922   0.185   5.903   5.247  0.5103 -0.1663  0.4847
 8568SOL    HW136923   0.183   5.879   5.150 -0.0157  0.6623  0.2774
 8568SOL    HW236924   0.137   5.834   5.300 -0.6096  0.1943 -0.0434
 8569SOL     OW36925   4.132   2.947   0.844  0.2342  0.0518 -0.1127
 8569SOL    HW136926   4.204   2.932   0.912  0.2624  1.7346  0.2493
 8569SOL    HW236927   4.171   2.994   0.765 -0.5965  1.6682  0.4143
 8570SOL     OW36928   4.410   8.913   6.169 -0.3038  0.1145  0.0667
 8570SOL    HW136929   4.326   8.967   6.171  0.1611  0.8667 -0.5583
 8570SOL    HW236930   4.489   8.974   6.161  0.4849 -0.4162  3.0490
 8571SOL     OW36931   5.744   0.428   4.650 -0.5772 -0.3404  0.1602
 8571SOL    HW136932   5.691   0.359   4.601 -1.1498  1.3459 -1.6694
 8571SOL    HW236933   5.682   0.493   4.693 -0.0399  0.7179 -0.6335
 8572SOL     OW36934   6.746   0.708   1.030  0.8462  0.0689  0.0126
 8572SOL    HW136935   6.724   0.710   1.128  0.5218  0.0471 -0.0601
 8572SOL    HW236936   6.830   0.760   1.014  0.3585  0.9033  0.1596
 8573SOL     OW36937   3.082   5.474   0.202 -0.1695  0.2377  0.1414
 8573SOL    HW136938   3.026   5.405   0.156  0.1547 -0.1692  0.3557
 8573SOL    HW236939   3.047   5.489   0.295 -1.1630  1.4614 -0.4180
 8574SOL     OW36940   0.606   5.103   3.984 -0.1135  0.2358  0.4966
 8574SOL    HW136941   0.546   5.107   3.904  0.7564 -0.3023 -0.2015
 8574SOL    HW236942   0.629   5.196   4.013 -0.0553  0.4378 -0.1822
 8575SOL     OW36943   7.267   2.097   2.377  0.2381  0.1468 -0.3736
 8575SOL    HW136944   7.199   2.116   2.306  0.5125  0.2202 -0.6155
 8575SOL    HW236945   7.346   2.052   2.336  0.7312  0.8963 -0.2397
 8576SOL     OW36946   7.158   1.034   6.042 -0.1839  0.4091 -0.1061
 8576SOL    HW136947   7.206   0.952   6.071 -1.3238 -0.3822 -0.4252
 8576SOL    HW236948   7.064   1.032   6.076  0.0641  2.0650  0.7381
 8577SOL     OW36949   4.985   3.494   3.831  0.3048  0.0047  0.2968
 8577SOL    HW136950   4.937   3.439   3.762  1.8962 -0.0979 -0.7561
 8577SOL    HW236951   5.058   3.438   3.873  0.5406  0.6490  0.7497
 8578SOL     OW36952   2.739   5.351   4.515 -0.3908  0.3506 -0.5722
 8578SOL    HW136953   2.779   5.278   4.459  0.1731  0.8731 -0.8715
 8578SOL    HW236954   2.754   5.331   4.612 -0.6514 -0.1607 -0.6370
 8579SOL     OW36955   1.319   2.412   2.199  0.1750  0.4552  0.3972
 8579SOL    HW136956   1.266   2.328   2.190  1.1783 -0.1170 -0.3338
 8579SOL    HW236957   1.375   2.407   2.282 -0.7120  0.9460  1.0273
 8580SOL     OW36958   4.363   0.922   3.600 -0.2309  0.5127 -0.2349
 8580SOL    HW136959   4.452   0.880   3.584  0.0757  0.9719  0.2661
 8580SOL    HW236960   4.375   1.013   3.639 -0.8797  1.2330 -1.6533
 8581SOL     OW36961   3.949   8.385   3.041  0.1334 -0.0902 -0.4288
 8581SOL    HW136962   3.906   8.365   3.130 -0.5626  0.0306 -0.7339
 8581SOL    HW236963   3.985   8.300   3.002  1.4804  0.0349  0.5013
 8582SOL     OW36964   2.849   7.566   0.034  0.2409  0.1848 -0.0974
 8582SOL    HW136965   2.797   7.481   0.023  0.9601 -0.3418  0.4972
 8582SOL    HW236966   2.947   7.544   0.040  0.5639  1.1891 -1.5559
 8583SOL     OW36967   3.324   7.687   0.743  0.1382  0.2629 -0.5955
 8583SOL    HW136968   3.378   7.755   0.793  2.1956 -0.3726 -1.8826
 8583SOL    HW236969   3.335   7.597   0.785 -0.4163  0.2377 -0.4994
 8584SOL     OW36970   2.587   3.572   1.680 -0.2935  0.3007  0.1477
 8584SOL    HW136971   2.634   3.598   1.596 -1.0893 -1.6431 -0.9529
 8584SOL    HW236972   2.488   3.577   1.666 -0.4338 -0.0440  0.9709
 8585SOL     OW36973   3.099   5.192   5.288 -0.1578  0.2285 -0.0772
 8585SOL    HW136974   3.165   5.152   5.352  0.5267  0.4782 -0.6278
 8585SOL    HW236975   3.084   5.129   5.212 -0.4050  0.2622 -0.0584
 8586SOL     OW36976   2.786   2.142   3.203  0.1544  0.5006 -0.4859
 8586SOL    HW136977   2.858   2.120   3.269  0.3894 -1.0344 -1.2391
 8586SOL    HW236978   2.731   2.218   3.239  0.7403  0.1948  1.1314
 8587SOL     OW36979   9.359   7.294   6.323 -0.1820 -0.4821  0.7704
 8587SOL    HW136980   9.450   7.324   6.296 -0.8681 -0.6921 -1.8818
 8587SOL    HW236981   9.310   7.370   6.366  0.3939  0.3470 -0.0207
 8588SOL     OW36982   2.168   3.253   3.467  0.7423  0.0180  0.7733
 8588SOL    HW136983   2.212   3.164   3.457  1.5597  0.5056 -0.1077
 8588SOL    HW236984   2.217   3.320   3.411 -2.0809  0.2184 -1.5984
 8589SOL     OW36985   1.142   1.574   0.572  0.5427 -0.2226  0.1763
 8589SOL    HW136986   1.089   1.596   0.491 -0.8929 -1.8025  0.6463
 8589SOL    HW236987   1.129   1.645   0.641 -0.0011  0.0180 -0.1680
 8590SOL     OW36988   9.751   5.321   5.246  0.1609  0.0812 -0.0986
 8590SOL    HW136989   9.666   5.333   5.297 -0.7822 -0.5380 -1.4739
 8590SOL    HW236990   9.733   5.332   5.148  1.3614 -1.5498 -0.5255
 8591SOL     OW36991   3.947   3.050   1.517 -0.3107  0.3674 -0.3169
 8591SOL    HW136992   3.962   3.047   1.418 -2.0423  0.3488 -0.5891
 8591SOL    HW236993   3.883   2.978   1.543  1.3903 -0.6594  1.0549
 8592SOL     OW36994   6.970   7.315   4.872  0.3612 -0.2213 -0.3337
 8592SOL    HW136995   7.013   7.232   4.908  1.6097  0.2143 -0.7762
 8592SOL    HW236996   7.041   7.380   4.845 -0.5830  2.1441  2.6325
 8593SOL     OW36997   8.931   4.609   6.438  0.8582  0.2701 -0.2930
 8593SOL    HW136998   8.977   4.588   6.351  1.9990  2.4748 -0.2464
 8593SOL    HW236999   8.847   4.555   6.445  1.7699 -1.4088 -1.8558
 8594SOL     OW37000   7.969   0.689   1.788  0.1848 -0.1439  0.5599
 8594SOL    HW137001   7.967   0.603   1.840  1.4286 -0.8274 -0.4812
 8594SOL    HW237002   7.994   0.669   1.693  2.0207  1.5283  0.6689
 8595SOL     OW37003   9.422   3.801   5.114 -0.3163  0.0109  0.6341
 8595SOL    HW137004   9.395   3.897   5.106  0.5528  0.1559 -0.8461
 8595SOL    HW237005   9.364   3.745   5.055 -0.0734 -0.2237  0.6180
 8596SOL     OW37006   9.624   7.001   3.998  0.2214  0.8198 -0.6027
 8596SOL    HW137007   9.653   6.907   3.979 -0.7003  0.5244 -0.5841
 8596SOL    HW237008   9.562   7.031   3.925 -0.9566  0.7497  0.3475
 8597SOL     OW37009   0.961   5.325   3.620 -0.0709  0.1041  0.0046
 8597SOL    HW137010   0.927   5.292   3.533 -1.1007  0.1684  0.3675
 8597SOL    HW237011   0.886   5.328   3.686  0.4584  1.1084  0.5776
 8598SOL     OW37012   3.764   1.051   1.343 -0.3085  0.1725  0.6887
 8598SOL    HW137013   3.836   1.099   1.293 -1.0574 -1.2672 -1.8886
 8598SOL    HW237014   3.789   1.043   1.439  1.9821  1.5147  0.2409
 8599SOL     OW37015   1.884   5.873   2.162 -0.5489 -1.0957  0.3411
 8599SOL    HW137016   1.784   5.874   2.151 -0.7566 -0.3419  2.0925
 8599SOL    HW237017   1.910   5.792   2.216 -0.2679 -1.0169  0.3216
 8600SOL     OW37018   2.679   5.156   3.820 -0.3291 -0.0700  0.0092
 8600SOL    HW137019   2.610   5.096   3.860 -0.1987 -0.5729 -0.5229
 8600SOL    HW237020   2.770   5.120   3.838 -0.2852 -0.5706 -1.1688
 8601SOL     OW37021   0.665   1.017   6.340  0.2650 -0.4490 -0.4971
 8601SOL    HW137022   0.639   1.052   6.431  0.4184 -1.2296 -0.1490
 8601SOL    HW237023   0.633   1.081   6.270  0.7434  0.5121  0.1401
 8602SOL     OW37024   3.510   7.270   2.143 -0.1981  0.3911  0.0326
 8602SOL    HW137025   3.500   7.180   2.186 -3.5381  1.1577  1.0531
 8602SOL    HW237026   3.510   7.340   2.214 -0.1211  1.3359 -0.8964
 8603SOL     OW37027   4.964   8.831   3.907 -0.1831 -0.0123 -0.1874
 8603SOL    HW137028   4.896   8.824   3.835 -2.7067 -1.7353  2.2627
 8603SOL    HW237029   4.957   8.921   3.952 -0.5291 -0.0217 -0.2271
 8604SOL     OW37030   7.463   8.642   3.638 -0.1779  0.0777 -0.2758
 8604SOL    HW137031   7.419   8.731   3.628 -0.5973 -0.2084 -1.0153
 8604SOL    HW237032   7.395   8.573   3.660  0.1738 -0.0272  0.4870
 8605SOL     OW37033   5.122   0.347   4.073  0.0087  0.0098 -0.0287
 8605SOL    HW137034   5.109   0.376   4.168  0.3760  3.6274 -0.9840
 8605SOL    HW237035   5.056   0.395   4.015 -0.0740 -2.0154 -1.6370
 8606SOL     OW37036   1.146   8.417   2.075  0.0917  0.0966  0.0787
 8606SOL    HW137037   1.122   8.342   2.137 -0.1030 -1.5732 -1.9731
 8606SOL    HW237038   1.064   8.447   2.025  0.0434  2.1057  1.2950
 8607SOL     OW37039   4.020   0.111   0.752  0.1402 -0.1243 -0.5732
 8607SOL    HW137040   4.088   0.183   0.740 -0.5518  0.8762  1.3484
 8607SOL    HW237041   3.950   0.141   0.817 -0.5579 -2.2391 -0.3034
 8608SOL     OW37042   6.146   1.004   3.438  0.2688  0.5025  0.6388
 8608SOL    HW137043   6.121   1.043   3.526 -0.6339 -0.5301  0.8555
 8608SOL    HW237044   6.099   1.055   3.365  0.3860  0.8550  0.8082
 8609SOL     OW37045   0.225   1.769   3.180  0.1031 -0.2339 -0.0941
 8609SOL    HW137046   0.298   1.734   3.239  0.2396  1.0663  0.5378
 8609SOL    HW237047   0.237   1.733   3.087  2.6177  1.3558 -0.4510
 8610SOL     OW37048   0.854   8.333   4.904  0.1060 -0.3875 -0.2374
 8610SOL    HW137049   0.947   8.299   4.888  0.1283 -0.8850  0.8740
 8610SOL    HW237050   0.830   8.400   4.834  0.1894 -2.4773 -2.3331
 8611SOL     OW37051   4.158   2.537   1.363  0.1924  0.1499  0.2506
 8611SOL    HW137052   4.129   2.574   1.275  1.4737 -1.9810 -1.1065
 8611SOL    HW237053   4.246   2.578   1.389  1.7411 -2.0633 -1.3762
 8612SOL     OW37054   8.628   2.697   2.680 -0.0902  0.5646  0.0473
 8612SOL    HW137055   8.694   2.672   2.752  1.5411  0.2550 -1.5259
 8612SOL    HW237056   8.576   2.616   2.653  0.0517  0.4550  0.1016
 8613SOL     OW37057   1.307   7.202   1.574 -0.5450  0.0577  0.5791
 8613SOL    HW137058   1.394   7.192   1.524 -1.5329 -1.7416 -0.8331
 8613SOL    HW237059   1.325   7.201   1.672  1.1443  0.8571  0.2986
 8614SOL     OW37060   2.193   1.573   0.618 -0.0091  0.2721  0.1509
 8614SOL    HW137061   2.239   1.655   0.585 -1.2306 -0.5412 -3.9455
 8614SOL    HW237062   2.224   1.494   0.565 -1.5661 -1.3004  1.5018
 8615SOL     OW37063   6.967   1.596   5.435 -0.0735 -0.2257  0.1919
 8615SOL    HW137064   6.988   1.682   5.389 -1.5007  1.0103  1.8147
 8615SOL    HW237065   6.909   1.540   5.375  0.4210  0.1369 -0.6446
 8616SOL     OW37066   3.819   0.483   2.429  0.3593 -0.4229 -0.0206
 8616SOL    HW137067   3.747   0.552   2.436  0.3949 -0.4584  0.6757
 8616SOL    HW237068   3.805   0.429   2.345 -0.5142 -0.5335  0.1869
 8617SOL     OW37069   1.325   7.887   5.150 -0.4207 -0.9308  0.1368
 8617SOL    HW137070   1.281   7.886   5.240 -0.9820  0.6181 -0.1099
 8617SOL    HW237071   1.409   7.833   5.154  0.1789  0.0778  1.8993
 8618SOL     OW37072   9.343   5.057   5.158 -0.6872  0.2498  0.1556
 8618SOL    HW137073   9.418   4.992   5.161 -0.5238  0.3986 -0.5292
 8618SOL    HW237074   9.306   5.071   5.250 -1.9859 -2.2706  0.0720
 8619SOL     OW37075   7.749   8.663   5.865  0.4693 -0.0466 -0.4834
 8619SOL    HW137076   7.649   8.668   5.859  0.3689 -1.1309  0.0825
 8619SOL    HW237077   7.787   8.755   5.876 -0.6000  0.2363  1.0292
 8620SOL     OW37078   2.150   1.947   4.148  0.0700  0.0837  0.5515
 8620SOL    HW137079   2.054   1.919   4.146  0.2054 -0.4267  1.0322
 8620SOL    HW237080   2.165   2.009   4.225 -0.2784  1.6820 -0.6439
 8621SOL     OW37081   3.905   8.077   0.610  0.0722  0.0358 -0.4827
 8621SOL    HW137082   3.880   7.992   0.563  1.7612 -1.2127  0.8003
 8621SOL    HW237083   3.827   8.109   0.664 -1.0579  0.1260 -2.1379
 8622SOL     OW37084   7.374   1.054   5.452 -0.4464 -0.1535  0.0195
 8622SOL    HW137085   7.438   1.102   5.393 -0.2973  1.4373  1.4487
 8622SOL    HW237086   7.283   1.055   5.411  0.3044 -1.9741 -1.7684
 8623SOL     OW37087   0.178   7.516   6.059 -0.5038 -0.5048 -0.0846
 8623SOL    HW137088   0.218   7.538   6.148 -2.1091 -2.2266  1.1206
 8623SOL    HW237089   0.251   7.493   5.994  0.6150 -0.6930  1.2107
 8624SOL     OW37090   0.046   2.243   5.834  0.1060 -0.2180  0.1314
 8624SOL    HW137091   0.003   2.322   5.791  0.6277  0.7898  1.4420
 8624SOL    HW237092   0.086   2.270   5.922  0.7872 -1.8050  0.3254
 8625SOL     OW37093   1.689   2.263   2.917  0.1880 -0.0250  0.5999
 8625SOL    HW137094   1.728   2.243   3.008 -1.4996 -1.5277  1.0131
 8625SOL    HW237095   1.738   2.209   2.848 -0.0804 -0.6916  0.9224
 8626SOL     OW37096   3.486   9.968   5.551  0.0268  0.1131  0.3057
 8626SOL    HW137097   3.577   9.942   5.583  1.3978  1.3890 -2.3900
 8626SOL    HW237098   3.474   9.940   5.456 -1.5626  1.9555 -0.0764
 8627SOL     OW37099   6.719   7.803   3.701  0.2924 -0.2676 -0.3350
 8627SOL    HW137100   6.793   7.804   3.634  0.3258  1.9935 -0.3071
 8627SOL    HW237101   6.745   7.859   3.780 -0.8558 -0.6742  0.3447
 8628SOL     OW37102   3.064   5.551   5.510 -0.4143 -0.2007  0.0198
 8628SOL    HW137103   3.126   5.589   5.578  1.2250 -1.6271 -0.6319
 8628SOL    HW237104   3.034   5.460   5.538 -0.4972 -0.4035 -0.7013
 8629SOL     OW37105   3.214   4.557   3.172 -0.0397  0.2913  0.0089
 8629SOL    HW137106   3.181   4.542   3.265 -1.2232  1.0868 -0.2680
 8629SOL    HW237107   3.269   4.640   3.169  2.3468 -1.2459  0.5483
 8630SOL     OW37108   8.785   1.377   4.270  0.1419 -0.2355 -0.1097
 8630SOL    HW137109   8.791   1.452   4.335 -0.6043 -1.0701  0.9411
 8630SOL    HW237110   8.691   1.345   4.265  0.5215 -1.3485 -0.2522
 8631SOL     OW37111   2.212   9.730   4.504  0.2481  0.0191  0.7051
 8631SOL    HW137112   2.303   9.694   4.482  0.8055  2.5498 -1.4371
 8631SOL    HW237113   2.148   9.702   4.432  0.3048  1.7742 -0.0497
 8632SOL     OW37114   2.892   6.321   6.194 -0.4996 -0.2832 -0.5020
 8632SOL    HW137115   2.856   6.283   6.279  1.1323 -1.9241 -0.5168
 8632SOL    HW237116   2.992   6.317   6.195 -0.3700  2.0884 -1.4074
 8633SOL     OW37117   9.232   8.445   6.517 -0.0910 -0.0937  0.2407
 8633SOL    HW137118   9.228   8.524   6.456  2.9379  0.9134  1.3009
 8633SOL    HW237119   9.149   8.389   6.505 -1.5881  2.4460 -1.5452
 8634SOL     OW37120   7.198   0.444   4.507 -0.1544  0.3772  0.0028
 8634SOL    HW137121   7.233   0.367   4.454  0.4686  0.4808  0.2661
 8634SOL    HW237122   7.108   0.420   4.545 -0.2266 -0.0018 -0.4060
 8635SOL     OW37123   2.889   8.074   3.060 -1.1955  0.2820 -0.0582
 8635SOL    HW137124   2.817   8.138   3.088 -1.9339 -0.7579  0.4592
 8635SOL    HW237125   2.939   8.043   3.140  0.2280  1.4555 -0.4811
 8636SOL     OW37126   7.151   9.131   5.282 -0.4220  0.5917  0.5219
 8636SOL    HW137127   7.202   9.066   5.338 -0.3041  1.6151  1.6418
 8636SOL    HW237128   7.059   9.095   5.265  0.0403 -0.4076  0.0805
 8637SOL     OW37129   8.540   3.673   2.853 -0.1205  0.6266  0.1278
 8637SOL    HW137130   8.496   3.639   2.936 -1.0396  0.0055 -0.6036
 8637SOL    HW237131   8.472   3.683   2.781  1.3926 -3.4147 -2.0261
 8638SOL     OW37132   7.731   7.086   3.985 -0.4442  0.4807 -0.3015
 8638SOL    HW137133   7.716   7.089   3.886 -3.8259  1.9244  0.1725
 8638SOL    HW237134   7.712   6.994   4.019  0.8413 -0.0472 -1.0091
 8639SOL     OW37135   2.812   1.642   2.652 -0.3083 -0.6889  0.2225
 8639SOL    HW137136   2.902   1.653   2.610 -0.8479 -0.1309 -0.8032
 8639SOL    HW237137   2.753   1.588   2.591 -1.5489  1.3320 -0.4366
 8640SOL     OW37138   7.464   2.934   6.479  1.0631  0.3596  0.0365
 8640SOL    HW137139   7.383   2.990   6.460  0.6696 -0.2461 -0.1113
 8640SOL    HW237140   7.504   2.960   6.566  1.1935  1.2283 -0.2794
 8641SOL     OW37141   7.606   1.344   5.563 -0.0214 -0.4717 -0.0364
 8641SOL    HW137142   7.602   1.396   5.477  0.6259 -1.8666 -0.9305
 8641SOL    HW237143   7.517   1.347   5.608  0.6618  3.5910  1.2717
 8642SOL     OW37144   3.267   8.597   2.491 -0.0129  0.5291 -0.4789
 8642SOL    HW137145   3.276   8.522   2.425  0.8251 -1.2291  1.5782
 8642SOL    HW237146   3.265   8.684   2.442 -1.0770 -0.8115 -2.9304
 8643SOL     OW37147   8.673   1.328   1.735 -0.5609 -0.4150 -0.7385
 8643SOL    HW137148   8.598   1.308   1.798 -1.1614 -1.4197 -1.7607
 8643SOL    HW237149   8.719   1.412   1.764  0.4167 -1.8788  2.1748
 8644SOL     OW37150   1.789   5.833   4.692  0.2802 -0.0411 -0.0751
 8644SOL    HW137151   1.777   5.813   4.595  0.4812 -0.5782  0.0086
 8644SOL    HW237152   1.847   5.763   4.734  0.1812  0.1772  0.4368
 8645SOL     OW37153   6.933   9.044   2.275  0.5984  0.2982 -0.1096
 8645SOL    HW137154   6.944   9.011   2.369  0.4379  0.8455  0.1061
 8645SOL    HW237155   7.004   9.004   2.217  0.4645 -0.3374  0.1637
 8646SOL     OW37156   7.104   4.135   0.633  0.1228 -0.1909 -0.0544
 8646SOL    HW137157   7.108   4.153   0.535 -0.5162  3.4821  0.5427
 8646SOL    HW237158   7.194   4.104   0.664  1.0623  1.1570 -1.3519
 8647SOL     OW37159   2.282   3.191   0.696  0.7166  0.3462  0.7241
 8647SOL    HW137160   2.241   3.210   0.785  0.1322  1.3128  0.2488
 8647SOL    HW237161   2.341   3.110   0.703  0.2220  0.0814  1.8480
 8648SOL     OW37162   8.110   0.804   0.132 -0.2631  0.1966  0.1074
 8648SOL    HW137163   8.150   0.890   0.102 -2.2290  0.9685 -0.4229
 8648SOL    HW237164   8.010   0.812   0.132 -0.4730 -1.9892  0.3173
 8649SOL     OW37165   5.381   7.310   2.183  0.1802 -0.4572  0.3035
 8649SOL    HW137166   5.332   7.397   2.189  0.4066 -0.3993  1.3183
 8649SOL    HW237167   5.460   7.321   2.124 -0.4373 -0.2789 -0.5077
 8650SOL     OW37168   2.130   9.885   6.079  0.1580 -0.1859  0.1271
 8650SOL    HW137169   2.073   9.968   6.079 -1.8651 -1.5435  0.5250
 8650SOL    HW237170   2.072   9.805   6.095  1.7336 -1.9345 -2.5404
 8651SOL     OW37171   5.199   4.950   0.624 -0.1045  0.3549 -0.5376
 8651SOL    HW137172   5.107   4.918   0.605 -0.4567  0.2105  1.3559
 8651SOL    HW237173   5.212   4.961   0.722  2.3321 -0.9753 -0.6534
 8652SOL     OW37174   1.709   0.235   2.564 -0.0604  0.0287 -0.0350
 8652SOL    HW137175   1.654   0.156   2.593 -0.1323 -0.5291 -1.5890
 8652SOL    HW237176   1.790   0.202   2.515 -0.0030  0.9190 -0.5442
 8653SOL     OW37177   6.601   7.307   2.291  0.5024 -0.5267  0.2213
 8653SOL    HW137178   6.670   7.235   2.282  0.6372 -0.5446  1.3119
 8653SOL    HW237179   6.524   7.273   2.345  0.4565  0.0640  0.5342
 8654SOL     OW37180   4.250   4.785   5.134 -0.6245  0.4727  0.1507
 8654SOL    HW137181   4.241   4.833   5.047 -1.4653 -0.8824 -0.5471
 8654SOL    HW237182   4.342   4.747   5.142 -0.5552  0.5672 -0.1842
 8655SOL     OW37183   7.336   1.165   5.830 -0.0980  0.2456  0.3062
 8655SOL    HW137184   7.325   1.214   5.744  0.9127  0.5742  0.3507
 8655SOL    HW237185   7.249   1.125   5.858 -1.4762  3.9427  1.4413
 8656SOL     OW37186   1.415   6.432   5.034  0.1598  0.1630 -0.7410
 8656SOL    HW137187   1.365   6.410   4.951 -1.3309  1.1735 -0.1462
 8656SOL    HW237188   1.386   6.371   5.108  1.0901 -0.3896 -0.8296
 8657SOL     OW37189   4.343   9.294   3.401 -0.1092  0.4845 -0.4119
 8657SOL    HW137190   4.383   9.210   3.361  0.1129  1.2474 -1.8326
 8657SOL    HW237191   4.316   9.355   3.327 -0.2055  1.7037  0.6306
 8658SOL     OW37192   7.693   4.413   6.733  0.3872 -0.0996  0.4341
 8658SOL    HW137193   7.755   4.491   6.724  0.1480  0.0686  0.2352
 8658SOL    HW237194   7.622   4.418   6.662 -0.4251  0.2306  1.2579
 8659SOL     OW37195   2.527   6.492   5.011 -0.2244  1.0831 -0.1930
 8659SOL    HW137196   2.577   6.408   5.028  1.5404  2.5837  2.3416
 8659SOL    HW237197   2.530   6.550   5.092 -3.1816  2.7109 -1.1626
 8660SOL     OW37198   9.375   5.837   2.616  0.2042 -0.1936 -0.5040
 8660SOL    HW137199   9.319   5.889   2.552 -0.0363 -0.9652 -0.9243
 8660SOL    HW237200   9.317   5.797   2.687  0.3560 -0.1119 -0.3335
 8661SOL     OW37201   4.776   1.237   2.600 -0.4342 -0.4049  0.1212
 8661SOL    HW137202   4.828   1.197   2.524 -0.8652  0.0795 -0.4315
 8661SOL    HW237203   4.794   1.185   2.684  1.0701 -0.1417 -0.0269
 8662SOL     OW37204   6.976   8.673   2.074 -0.2264  0.3484  0.1929
 8662SOL    HW137205   6.976   8.604   2.002 -0.5688  0.3883  0.1522
 8662SOL    HW237206   6.882   8.707   2.087  0.2459  2.2385 -1.1526
 8663SOL     OW37207   3.057   3.468   4.272  0.4405 -0.6625  0.3777
 8663SOL    HW137208   3.087   3.558   4.240  0.4606 -0.8096 -0.0177
 8663SOL    HW237209   3.031   3.474   4.368  1.8199 -0.5613  0.7527
 8664SOL     OW37210   0.367   2.337   4.038 -0.4884  0.3211  0.0153
 8664SOL    HW137211   0.325   2.323   3.949 -0.3438 -0.9058  0.1336
 8664SOL    HW237212   0.460   2.373   4.026 -0.4661  0.1508 -0.3260
 8665SOL     OW37213   0.181   2.033   3.313 -0.7588  0.4247  0.3855
 8665SOL    HW137214   0.096   2.046   3.365 -0.0775 -0.9293  1.8679
 8665SOL    HW237215   0.180   1.943   3.269  0.4146 -0.0670  1.3638
 8666SOL     OW37216   4.109   0.071   0.399 -0.7789  0.7259 -0.7082
 8666SOL    HW137217   4.039   0.141   0.416  0.3537  1.3902  1.4654
 8666SOL    HW237218   4.176   0.106   0.335 -1.0877  1.0311 -0.8700
 8667SOL     OW37219   9.608   0.390   6.368 -0.1045  0.0861 -0.5105
 8667SOL    HW137220   9.595   0.294   6.344 -1.0245 -0.4396  1.9455
 8667SOL    HW237221   9.704   0.407   6.390  0.0167 -0.2903 -0.7427
 8668SOL     OW37222   8.036   4.322   2.389  0.2400 -0.0816 -0.4806
 8668SOL    HW137223   7.974   4.396   2.414 -0.0557 -1.1728  2.1567
 8668SOL    HW237224   7.985   4.251   2.339 -0.3052 -0.2137  0.2478
 8669SOL     OW37225   6.275   7.587   4.721  0.0267  0.2998  0.1981
 8669SOL    HW137226   6.177   7.594   4.702 -0.2680 -2.8115  0.3410
 8669SOL    HW237227   6.293   7.619   4.813 -0.9299  0.4326  0.3477
 8670SOL     OW37228   5.831   1.290   1.534  0.3497 -0.0359 -0.8334
 8670SOL    HW137229   5.768   1.363   1.560  0.3299 -0.1643 -0.5129
 8670SOL    HW237230   5.911   1.328   1.488  0.7861  0.2739  0.1733
 8671SOL     OW37231   3.896   2.090   0.053  0.0374  0.2433 -0.0948
 8671SOL    HW137232   3.945   2.113  -0.032  0.0573  0.5134 -0.0119
 8671SOL    HW237233   3.854   2.000   0.044 -0.7198  0.6499 -0.7235
 8672SOL     OW37234   4.125   1.888   6.175 -0.0620  0.4789 -0.0224
 8672SOL    HW137235   4.142   1.801   6.221 -2.0213 -0.2758 -0.6613
 8672SOL    HW237236   4.152   1.881   6.079 -0.9310  0.3281 -0.2566
 8673SOL     OW37237   1.764   9.637   0.573 -0.6829 -0.5886 -0.3143
 8673SOL    HW137238   1.843   9.675   0.621  0.6752 -0.0333 -2.8450
 8673SOL    HW237239   1.700   9.711   0.550 -2.2427 -1.1147  2.2115
 8674SOL     OW37240   8.965   9.395   3.948  0.0858  1.0921 -0.4824
 8674SOL    HW137241   8.971   9.489   3.983 -0.1994  1.2184 -0.7721
 8674SOL    HW237242   8.988   9.395   3.850  0.0990  0.8584 -0.4779
 8675SOL     OW37243   2.231   7.773   2.122  0.2823  0.4811  0.0026
 8675SOL    HW137244   2.243   7.856   2.175 -0.7392  0.9097 -0.4237
 8675SOL    HW237245   2.227   7.795   2.025 -1.4274  0.1144 -0.0321
 8676SOL     OW37246   5.858   1.282   3.420 -0.4536 -0.0945 -0.8329
 8676SOL    HW137247   5.940   1.277   3.362 -0.7712 -0.3742 -1.2612
 8676SOL    HW237248   5.777   1.273   3.363 -0.7960  0.5304 -0.4482
 8677SOL     OW37249   4.944   9.621   5.461  0.0219  0.2185  0.2868
 8677SOL    HW137250   4.937   9.721   5.470 -0.7185  0.2068 -0.1434
 8677SOL    HW237251   4.856   9.580   5.484  0.5359 -0.3893  1.1771
 8678SOL     OW37252   0.862   5.487   2.036  0.6292  0.0093 -0.5548
 8678SOL    HW137253   0.786   5.441   1.991 -0.6901  1.7688 -0.1760
 8678SOL    HW237254   0.874   5.578   1.997  2.1865 -0.0337 -0.2224
 8679SOL     OW37255   7.452   8.959   2.884  0.2559  0.7174  0.0881
 8679SOL    HW137256   7.543   8.994   2.905 -0.5217  3.1592 -0.5181
 8679SOL    HW237257   7.395   9.032   2.847 -1.7142 -0.9706 -0.3278
 8680SOL     OW37258   0.384   6.279   1.031  0.1185  0.3670  0.1743
 8680SOL    HW137259   0.459   6.287   0.966  0.4175  1.0648  0.6011
 8680SOL    HW237260   0.297   6.293   0.984  0.2585 -0.3030 -0.2923
 8681SOL     OW37261   8.109   3.026   2.643  0.3999 -0.1636 -0.0975
 8681SOL    HW137262   8.030   3.068   2.688  0.5271 -0.4289  0.3798
 8681SOL    HW237263   8.093   3.021   2.545 -0.0186  0.1315 -0.0465
 8682SOL     OW37264   3.390   2.558   1.321 -0.0972 -1.0009 -0.2255
 8682SOL    HW137265   3.414   2.584   1.415 -0.8321  0.7483 -0.5074
 8682SOL    HW237266   3.298   2.520   1.320 -0.1863 -0.7833 -0.2761
 8683SOL     OW37267   1.892   4.325   4.055 -0.4244  0.5332 -0.3729
 8683SOL    HW137268   1.840   4.384   4.116 -1.1909 -0.8537  0.3183
 8683SOL    HW237269   1.832   4.255   4.016  0.7305 -0.6008 -0.1618
 8684SOL     OW37270   1.860   7.073   5.162  0.0979 -0.2547  0.3766
 8684SOL    HW137271   1.762   7.087   5.171 -0.1498 -2.0039  0.6070
 8684SOL    HW237272   1.893   7.017   5.238  1.4085  0.9158  0.6908
 8685SOL     OW37273   3.777   3.559   4.353 -0.2862 -0.5242 -0.6517
 8685SOL    HW137274   3.872   3.581   4.376  0.5533 -2.4637 -2.1459
 8685SOL    HW237275   3.717   3.631   4.387  1.9340  1.8510 -1.6088
 8686SOL     OW37276   1.140   7.422   6.532 -0.1604  0.8011  0.3386
 8686SOL    HW137277   1.065   7.483   6.558  1.1664  2.0346  1.4318
 8686SOL    HW237278   1.168   7.368   6.612 -0.0572  0.1658 -0.1264
 8687SOL     OW37279   3.859   2.646   2.145  0.4066 -0.2100 -0.0346
 8687SOL    HW137280   3.836   2.586   2.221  1.2218 -0.9859 -0.3840
 8687SOL    HW237281   3.939   2.609   2.097 -0.1238  0.2427 -1.2919
 8688SOL     OW37282   9.437   5.770   0.187  0.5588  0.0016 -0.0240
 8688SOL    HW137283   9.497   5.837   0.232  0.0087  1.0041 -0.7615
 8688SOL    HW237284   9.362   5.745   0.249  0.9945 -0.2466  0.4061
 8689SOL     OW37285   9.404   3.944   6.312  0.2387  0.1481 -0.1309
 8689SOL    HW137286   9.334   3.878   6.338 -0.3173  0.5399 -0.6138
 8689SOL    HW237287   9.429   3.930   6.216 -0.6691  1.3323 -0.5548
 8690SOL     OW37288   8.939   4.249   6.185  0.4039  0.1270 -0.0444
 8690SOL    HW137289   8.929   4.206   6.274 -0.9619  1.2250  0.3534
 8690SOL    HW237290   8.947   4.179   6.114 -1.3251 -0.7991  0.6391
 8691SOL     OW37291   3.372   5.146   1.371 -0.2174  0.1006  0.1300
 8691SOL    HW137292   3.425   5.219   1.329 -1.1696  1.9503  2.0517
 8691SOL    HW237293   3.415   5.058   1.352  1.8532  1.2955 -0.8493
 8692SOL     OW37294   5.999   1.754   2.210  0.4858  0.2493  0.1385
 8692SOL    HW137295   6.002   1.659   2.243 -0.1390  0.2124  0.0797
 8692SOL    HW237296   5.954   1.811   2.279  1.5542  0.6484  0.5242
 8693SOL     OW37297   0.070   4.029   1.748 -0.1709  0.5302  0.2761
 8693SOL    HW137298   0.103   3.997   1.837 -1.0213  1.6641  1.0216
 8693SOL    HW237299   0.145   4.074   1.699 -0.0512  1.1702  1.0344
 8694SOL     OW37300   6.926   5.124   6.465  0.0416 -0.2278  0.1405
 8694SOL    HW137301   6.914   5.027   6.446  1.5108 -0.1483 -1.3562
 8694SOL    HW237302   7.014   5.155   6.427 -1.2788  2.1227 -1.1884
 8695SOL     OW37303   5.883   2.441   3.918  0.4216 -0.1211  0.3423
 8695SOL    HW137304   5.869   2.538   3.937 -0.7916 -0.5044  1.5248
 8695SOL    HW237305   5.977   2.426   3.888  0.7024  1.3738  0.4341
 8696SOL     OW37306   9.027   6.118   6.494  0.2983  0.2271 -0.2283
 8696SOL    HW137307   8.939   6.108   6.541 -0.4010 -0.1170 -1.5872
 8696SOL    HW237308   9.045   6.215   6.478 -0.4636  0.2321 -1.0985
 8697SOL     OW37309   2.430   0.100   4.069  0.2710 -0.4356  0.2398
 8697SOL    HW137310   2.387   0.013   4.092  0.4390 -0.5039  0.2984
 8697SOL    HW237311   2.393   0.134   3.982 -1.0925  0.3110  1.0879
 8698SOL     OW37312   0.811   3.438   6.344  0.6078 -0.1424  0.6986
 8698SOL    HW137313   0.749   3.436   6.423  1.6865 -0.3077  1.5471
 8698SOL    HW237314   0.860   3.351   6.338  0.7921  0.0061  0.0642
 8699SOL     OW37315   7.897   1.563   4.957  0.1854  0.0157 -0.2590
 8699SOL    HW137316   7.817   1.618   4.978  1.6396  1.6827  1.1268
 8699SOL    HW237317   7.914   1.566   4.858  0.8701  3.0333 -0.1059
 8700SOL     OW37318   0.615   7.431   5.258  0.0714 -0.5498 -0.1780
 8700SOL    HW137319   0.666   7.428   5.343 -0.9651  0.4122  0.4970
 8700SOL    HW237320   0.649   7.505   5.200 -0.2759 -0.1691  0.0989
 8701SOL     OW37321   6.558   8.493   5.648 -0.0490 -0.6081 -0.0998
 8701SOL    HW137322   6.655   8.495   5.625 -0.5787  0.1886 -2.4718
 8701SOL    HW237323   6.522   8.401   5.637  0.1646 -0.6395 -0.5506
 8702SOL     OW37324   8.525   6.254   2.846 -0.2819 -0.1171  0.1197
 8702SOL    HW137325   8.579   6.170   2.848 -2.6073 -1.6676 -0.4016
 8702SOL    HW237326   8.574   6.323   2.792  0.9835 -1.5993 -0.6787
 8703SOL     OW37327   5.525   9.185   6.047 -0.4388 -0.1620 -0.2956
 8703SOL    HW137328   5.530   9.263   5.984  0.0073 -0.6338 -0.8481
 8703SOL    HW237329   5.618   9.156   6.070 -0.6059 -0.6830 -0.2766
 8704SOL     OW37330   0.583   6.412   1.803 -0.1587  0.0369 -0.2736
 8704SOL    HW137331   0.588   6.468   1.720  1.6658 -1.2744 -1.0718
 8704SOL    HW237332   0.528   6.331   1.785  0.2127 -0.2323 -0.1946
 8705SOL     OW37333   8.944   0.344   2.530 -0.3633 -0.3719 -0.4241
 8705SOL    HW137334   8.886   0.329   2.610  0.6700  0.4515  0.4930
 8705SOL    HW237335   8.931   0.437   2.496 -0.7108 -0.6787 -1.1583
 8706SOL     OW37336   0.493   7.620   2.194  0.1709 -0.0611 -0.3997
 8706SOL    HW137337   0.403   7.626   2.237  0.9828 -0.5541  1.4143
 8706SOL    HW237338   0.500   7.534   2.143 -1.1098  0.9248 -2.3050
 8707SOL     OW37339   8.756   8.495   1.274  0.0303 -0.1545 -0.0248
 8707SOL    HW137340   8.721   8.491   1.367 -0.3028 -0.3506 -0.1596
 8707SOL    HW237341   8.735   8.410   1.226 -3.2629  1.3915 -1.5182
 8708SOL     OW37342   8.725   4.115   5.778  0.6219  0.2164  0.0780
 8708SOL    HW137343   8.708   4.163   5.864  2.3427 -0.6975  0.9372
 8708SOL    HW237344   8.667   4.154   5.706 -1.0629  0.7779  1.7075
 8709SOL     OW37345   0.339   1.184   1.434  0.1300 -0.0796  0.5789
 8709SOL    HW137346   0.278   1.253   1.393  1.1323  0.9558  0.8017
 8709SOL    HW237347   0.418   1.171   1.375 -0.0962 -1.1189  0.4989
 8710SOL     OW37348   9.383   9.887   5.786 -0.4554 -0.1855  0.2510
 8710SOL    HW137349   9.416   9.822   5.855  0.2009 -0.9023 -0.7234
 8710SOL    HW237350   9.284   9.897   5.794 -0.3479 -0.0620  1.4649
 8711SOL     OW37351   4.399   3.855   1.707  0.5431  0.2599  0.2905
 8711SOL    HW137352   4.339   3.884   1.782  0.5496  0.9720  0.0258
 8711SOL    HW237353   4.393   3.756   1.697  1.1133  0.0569  1.7252
 8712SOL     OW37354   1.137   5.357   5.956  0.3382  0.4313  0.3114
 8712SOL    HW137355   1.082   5.278   5.986 -0.4394  1.3255  1.3064
 8712SOL    HW237356   1.189   5.392   6.034 -0.7298  2.0198  0.3276
 8713SOL     OW37357   2.341   2.422   1.081 -0.2200  0.8938 -0.4552
 8713SOL    HW137358   2.318   2.492   1.014 -1.7322  2.2411  1.3869
 8713SOL    HW237359   2.386   2.465   1.159  1.7479 -0.6813 -0.7030
 8714SOL     OW37360   7.953   8.222   4.583 -0.6938  0.3940  0.0658
 8714SOL    HW137361   7.955   8.253   4.679 -3.5359  1.2268 -0.0943
 8714SOL    HW237362   7.865   8.179   4.564  0.0350 -0.1901 -2.0697
 8715SOL     OW37363   1.482   7.342   6.479  0.3265 -0.3327  0.3744
 8715SOL    HW137364   1.416   7.411   6.511  0.3832 -0.7447  1.4022
 8715SOL    HW237365   1.480   7.264   6.541  0.1231 -1.3473 -0.9025
 8716SOL     OW37366   3.309   6.291   4.637 -0.0544 -0.3852 -0.3020
 8716SOL    HW137367   3.404   6.276   4.664 -0.6786  0.5126  2.4995
 8716SOL    HW237368   3.306   6.356   4.560  1.5285  0.6034  0.4469
 8717SOL     OW37369   1.454   7.136   6.683  0.6179  0.0976  0.0828
 8717SOL    HW137370   1.362   7.105   6.705  0.8999 -2.1864 -1.7499
 8717SOL    HW237371   1.474   7.220   6.733 -2.6904  0.9990 -0.0185
 8718SOL     OW37372   9.135   5.708   2.785 -0.5640  0.5432 -0.5551
 8718SOL    HW137373   9.150   5.668   2.875 -3.4555 -1.5383 -0.9230
 8718SOL    HW237374   9.136   5.808   2.792 -1.4948  0.4091  1.9223
 8719SOL     OW37375   4.308   8.412   0.721 -0.1500  0.6176 -0.3621
 8719SOL    HW137376   4.278   8.492   0.772 -0.2054  0.2613  0.1778
 8719SOL    HW237377   4.229   8.369   0.677  0.1262  1.8454 -2.1037
 8720SOL     OW37378   5.037   0.810   5.922 -0.7351  0.2877 -0.0792
 8720SOL    HW137379   4.970   0.820   5.848 -0.5398 -0.9029 -0.4210
 8720SOL    HW237380   5.045   0.897   5.971 -0.6748  1.1751 -1.6203
 8721SOL     OW37381   9.357   8.733   0.355 -0.3344  0.1734  0.0835
 8721SOL    HW137382   9.441   8.680   0.347 -1.1597 -1.3239  1.1003
 8721SOL    HW237383   9.366   8.800   0.429 -0.4133 -0.7399  0.9302
 8722SOL     OW37384   3.555   7.552   3.402  0.2755  0.5218 -0.1658
 8722SOL    HW137385   3.516   7.519   3.316 -0.7115 -1.1563  0.9033
 8722SOL    HW237386   3.481   7.589   3.460  0.9957  2.0829 -0.2113
 8723SOL     OW37387   5.231   0.798   2.242  0.0861 -0.2645  0.3835
 8723SOL    HW137388   5.298   0.726   2.261 -1.6479 -2.2658 -0.9017
 8723SOL    HW237389   5.188   0.827   2.328 -0.7826 -2.3612  0.6901
 8724SOL     OW37390   3.452   2.861   2.868  0.1317 -0.3799 -0.5591
 8724SOL    HW137391   3.387   2.921   2.821  0.0534 -0.4645 -0.5583
 8724SOL    HW237392   3.447   2.876   2.966 -1.3122 -1.8128 -0.3969
 8725SOL     OW37393   8.414   9.165   2.028  0.1790 -0.5219 -0.2711
 8725SOL    HW137394   8.441   9.260   2.043 -0.8347 -0.3582  0.5250
 8725SOL    HW237395   8.489   9.117   1.982  2.1364 -0.2506  2.5235
 8726SOL     OW37396   3.673   1.360   2.127  0.2942  0.1269  0.0208
 8726SOL    HW137397   3.617   1.304   2.188 -1.5376  0.1038 -1.6298
 8726SOL    HW237398   3.676   1.454   2.161 -1.2376  0.2514 -0.1541
 8727SOL     OW37399   2.221   4.050   3.486  0.2415 -0.4687 -0.2989
 8727SOL    HW137400   2.181   3.968   3.444 -0.3693  0.1758 -0.9718
 8727SOL    HW237401   2.308   4.070   3.440 -1.0749  1.0287 -2.2256
 8728SOL     OW37402   9.120   6.842   5.957  0.1608 -0.2325 -0.3712
 8728SOL    HW137403   9.132   6.742   5.961  0.8366 -0.1427 -0.2471
 8728SOL    HW237404   9.062   6.871   6.034 -0.1866 -0.5469 -0.5099
 8729SOL     OW37405   5.505   7.864   3.496  0.5770  0.0211  0.4768
 8729SOL    HW137406   5.424   7.825   3.540  0.2074  2.0722  1.7297
 8729SOL    HW237407   5.582   7.860   3.559  1.4219 -1.7701 -0.6508
 8730SOL     OW37408   1.567   4.338   5.599  0.1314  0.3588  0.2644
 8730SOL    HW137409   1.573   4.241   5.625 -1.1686  0.4187  0.8098
 8730SOL    HW237410   1.557   4.394   5.681 -2.4094  0.6791 -0.2040
 8731SOL     OW37411   3.937   1.010   3.227  0.0594 -0.0315  0.3316
 8731SOL    HW137412   3.954   0.920   3.268  0.0855  0.2807  1.0168
 8731SOL    HW237413   3.854   1.049   3.267 -0.2766 -0.0030 -0.3919
 8732SOL     OW37414   9.775   4.377   5.557  0.1351  0.6350  0.1321
 8732SOL    HW137415   9.855   4.341   5.605  0.1826  0.8196  0.1907
 8732SOL    HW237416   9.744   4.460   5.602  0.1341  0.7672 -0.1111
 8733SOL     OW37417   4.234   4.132   4.860 -0.1104  0.3537  0.2365
 8733SOL    HW137418   4.219   4.225   4.825 -0.0271  0.1653 -0.3000
 8733SOL    HW237419   4.325   4.127   4.901 -0.8930  1.0681  2.1120
 8734SOL     OW37420   1.095   1.848   2.198  0.2620  1.0750 -1.1182
 8734SOL    HW137421   1.035   1.893   2.264  0.5149 -0.6672  0.3510
 8734SOL    HW237422   1.188   1.845   2.235 -0.0324 -1.9258 -0.4944
 8735SOL     OW37423   2.333   7.151   0.704  0.4936  0.0439 -0.1045
 8735SOL    HW137424   2.370   7.227   0.650  0.6755  1.0365  1.3838
 8735SOL    HW237425   2.270   7.098   0.647 -1.0489  2.3906 -0.6985
 8736SOL     OW37426   0.225   7.333   5.692 -0.4318  0.3744  0.3699
 8736SOL    HW137427   0.282   7.307   5.614 -0.2924  0.7495  0.3467
 8736SOL    HW237428   0.283   7.350   5.771 -0.6152 -0.5926  0.7254
 8737SOL     OW37429   2.062   6.593   1.600  0.2084 -0.1445 -0.2700
 8737SOL    HW137430   1.970   6.609   1.564 -0.1490 -0.8042  0.3405
 8737SOL    HW237431   2.129   6.599   1.525 -0.2278  1.2643 -0.5516
 8738SOL     OW37432   9.883   0.748   2.584  0.1679  0.2518  0.1281
 8738SOL    HW137433   9.931   0.663   2.563  0.3877  0.8734 -2.0364
 8738SOL    HW237434   9.939   0.805   2.643  1.3434  0.2028 -0.9295
 8739SOL     OW37435   7.486   3.493   1.965  0.0066 -0.2540 -0.0755
 8739SOL    HW137436   7.547   3.545   1.904  1.6027 -0.1475  1.5416
 8739SOL    HW237437   7.391   3.510   1.939  0.5945  1.1061 -1.4732
 8740SOL     OW37438   6.493   5.151   0.157  0.0701 -0.1774 -0.4159
 8740SOL    HW137439   6.469   5.237   0.202  0.6994  0.0225 -0.4490
 8740SOL    HW237440   6.524   5.170   0.064 -0.3707 -0.5031 -0.6302
 8741SOL     OW37441   3.845   3.079   1.932  0.3896 -0.2688 -0.0563
 8741SOL    HW137442   3.922   3.141   1.946 -0.5300  0.9006 -0.1438
 8741SOL    HW237443   3.844   3.011   2.006  0.4874  0.7695  0.9148
 8742SOL     OW37444   9.539   8.770   0.081 -0.5020 -0.8722 -0.2865
 8742SOL    HW137445   9.627   8.785   0.127 -1.1028  0.8051  0.3474
 8742SOL    HW237446   9.524   8.671   0.070  1.2322 -1.1959  0.0177
 8743SOL     OW37447   4.413   2.527   3.134  0.2709  0.0431 -0.3245
 8743SOL    HW137448   4.362   2.462   3.077  1.1584 -1.0026  0.0609
 8743SOL    HW237449   4.463   2.591   3.074  1.1347 -1.0019 -0.7486
 8744SOL     OW37450   0.698   9.085   4.388  0.8763  0.3000 -0.0793
 8744SOL    HW137451   0.604   9.089   4.421  1.4331 -0.0202  1.5805
 8744SOL    HW237452   0.721   9.172   4.344  0.4243  1.1143  1.2509
 8745SOL     OW37453   8.826   3.640   4.238  0.4178  0.2005 -0.3666
 8745SOL    HW137454   8.792   3.655   4.145  1.0255  0.7266 -0.5152
 8745SOL    HW237455   8.749   3.632   4.301 -0.0117 -0.9070 -1.0192
 8746SOL     OW37456   9.670   1.648   2.692  0.5256  0.3765  0.3629
 8746SOL    HW137457   9.768   1.645   2.678  0.2868 -0.2092 -1.2004
 8746SOL    HW237458   9.622   1.616   2.610 -1.0152  2.7033  0.2874
 8747SOL     OW37459   7.783   9.685   4.876  0.3166  0.0215  0.3998
 8747SOL    HW137460   7.844   9.699   4.954  0.6316 -0.3507  0.2239
 8747SOL    HW237461   7.726   9.766   4.863  0.7489  0.3555  0.5877
 8748SOL     OW37462   5.706   0.283   3.775 -0.0005  0.8332  0.3488
 8748SOL    HW137463   5.805   0.293   3.789  0.0879  0.5745 -0.0813
 8748SOL    HW237464   5.658   0.308   3.859  0.4475  0.6705  0.6550
 8749SOL     OW37465   0.946   2.318   1.954  0.1864  0.9477 -0.2123
 8749SOL    HW137466   0.979   2.327   2.048  1.0289  2.4280 -0.6278
 8749SOL    HW237467   0.932   2.409   1.915  0.0974  0.3500 -1.5987
 8750SOL     OW37468   2.178   8.965   6.536  0.4285 -0.1532  0.3300
 8750SOL    HW137469   2.267   9.001   6.508  0.7618 -1.3438 -0.1797
 8750SOL    HW237470   2.117   8.960   6.457  0.0176  0.3241  0.6097
 8751SOL     OW37471   0.554   2.434   0.266 -0.2334 -0.1774 -0.3573
 8751SOL    HW137472   0.532   2.426   0.363  0.9806 -0.5871 -0.1062
 8751SOL    HW237473   0.534   2.348   0.220  1.5338 -0.8264  0.0293
 8752SOL     OW37474   2.606   5.608   2.854  0.0855 -0.5902 -0.4851
 8752SOL    HW137475   2.507   5.613   2.863  0.1487 -0.6197  0.2876
 8752SOL    HW237476   2.635   5.512   2.850  0.0094 -0.5700 -1.6343
 8753SOL     OW37477   8.133   5.134   1.757  0.6778 -0.4853 -0.6605
 8753SOL    HW137478   8.046   5.101   1.720  0.8011 -1.3380 -0.2192
 8753SOL    HW237479   8.205   5.066   1.738  0.7461 -0.9360  1.1175
 8754SOL     OW37480   1.395   4.723   5.094  0.4868  0.0883 -0.0602
 8754SOL    HW137481   1.466   4.785   5.129 -0.3858  1.4456 -0.6502
 8754SOL    HW237482   1.305   4.756   5.123 -0.2495  1.1638 -3.3357
 8755SOL     OW37483   4.182   4.467   3.385  0.2502  0.1814  0.3073
 8755SOL    HW137484   4.265   4.464   3.440 -0.9797  1.9395  2.3365
 8755SOL    HW237485   4.157   4.374   3.357  2.3561 -0.4594  0.4800
 8756SOL     OW37486   8.195   3.199   1.745  0.4179 -0.0155  0.0731
 8756SOL    HW137487   8.225   3.277   1.800  1.4654  0.1779 -0.7428
 8756SOL    HW237488   8.274   3.142   1.723  0.2895  0.7105 -2.4590
 8757SOL     OW37489   9.284   7.995   2.993 -0.6983 -0.0767 -0.5757
 8757SOL    HW137490   9.377   8.003   3.029 -0.7171  0.8976 -0.7386
 8757SOL    HW237491   9.276   8.048   2.909 -0.5569 -2.6367 -2.2715
 8758SOL     OW37492   3.031   1.037   0.831  0.1963 -0.2514  0.4637
 8758SOL    HW137493   3.092   1.040   0.910 -0.3224 -0.2439  0.8725
 8758SOL    HW237494   2.978   1.122   0.828  0.7160  0.0430 -0.2951
 8759SOL     OW37495   6.639   8.569   2.340 -0.1755 -0.0798 -0.5732
 8759SOL    HW137496   6.647   8.657   2.293 -1.8411  0.8912  0.8939
 8759SOL    HW237497   6.558   8.521   2.305 -0.2932 -0.2196 -0.1055
 8760SOL     OW37498   5.980   0.298   5.032  0.0003  0.2202 -0.3779
 8760SOL    HW137499   5.990   0.217   5.091  0.9182 -0.3855 -1.3531
 8760SOL    HW237500   6.070   0.339   5.016 -0.2892  0.5996 -1.0486
 8761SOL     OW37501   5.556   0.036   2.086 -0.1932 -0.5361  0.2210
 8761SOL    HW137502   5.551   0.123   2.036  0.1251 -0.7373 -0.1643
 8761SOL    HW237503   5.550  -0.040   2.021 -0.1036 -0.7985  0.5222
 8762SOL     OW37504   1.180   9.559   1.994  0.3924  0.4038 -0.5594
 8762SOL    HW137505   1.172   9.628   1.922 -0.7113  0.0376 -0.7900
 8762SOL    HW237506   1.090   9.524   2.017  0.9662 -1.1391 -0.5992
 8763SOL     OW37507   1.029   9.350   1.666  0.1122  0.6017  0.5547
 8763SOL    HW137508   1.085   9.433   1.659 -0.9557  1.4059  1.3570
 8763SOL    HW237509   1.087   9.273   1.695  1.3681  0.7534 -1.4184
 8764SOL     OW37510   7.985   0.108   1.297 -0.4936  0.0432 -0.5166
 8764SOL    HW137511   8.012   0.131   1.203 -1.1277 -1.1872 -0.9946
 8764SOL    HW237512   8.068   0.096   1.353 -0.0857 -1.2697 -1.4011
 8765SOL     OW37513   4.704   1.575   3.266  0.3487 -0.0255  0.0721
 8765SOL    HW137514   4.653   1.661   3.275 -0.6503 -0.5169 -0.7839
 8765SOL    HW237515   4.783   1.577   3.327  0.5925  1.6853 -0.2742
 8766SOL     OW37516   4.741   3.912   3.369  0.7458 -0.3062 -0.2679
 8766SOL    HW137517   4.682   3.832   3.376  1.6962 -1.2078 -2.3787
 8766SOL    HW237518   4.695   3.991   3.412 -0.8270 -1.5916  0.4750
 8767SOL     OW37519   4.416   1.356   4.994 -0.3358  0.6640 -0.5267
 8767SOL    HW137520   4.440   1.449   4.967  1.2732  0.6644  0.7792
 8767SOL    HW237521   4.387   1.304   4.914 -0.7059  2.1321 -1.3535
 8768SOL     OW37522   2.325   9.562   6.514  0.0663  0.1597 -1.0457
 8768SOL    HW137523   2.356   9.519   6.429 -0.0342 -1.9905 -0.0229
 8768SOL    HW237524   2.227   9.547   6.526  0.2664 -0.4339 -0.0656
 8769SOL     OW37525   1.115   8.269   4.874 -0.1980  0.4220  0.2484
 8769SOL    HW137526   1.139   8.202   4.944  0.3795  0.1976 -0.1622
 8769SOL    HW237527   1.094   8.222   4.788  0.8030  0.7920 -0.2088
 8770SOL     OW37528   9.049   2.025   3.747 -0.2889  0.3732  0.2713
 8770SOL    HW137529   8.975   1.971   3.787 -0.7883  0.7144 -0.1824
 8770SOL    HW237530   9.097   2.076   3.819  0.9299 -1.5457  0.8683
 8771SOL     OW37531   2.920   7.269   3.199 -0.3442  0.4899 -0.3107
 8771SOL    HW137532   2.933   7.179   3.157 -1.4863  0.3177 -0.3210
 8771SOL    HW237533   3.007   7.317   3.202  0.1425 -0.3293 -0.9711
 8772SOL     OW37534   8.539   2.869   4.313 -0.1064  0.6113 -0.6590
 8772SOL    HW137535   8.450   2.823   4.309  0.5346 -0.5792 -2.2127
 8772SOL    HW237536   8.577   2.862   4.405 -1.6615  1.2393  0.0472
 8773SOL     OW37537   8.080   1.367   2.923  0.5527  0.0830 -0.1598
 8773SOL    HW137538   8.171   1.403   2.942  0.7145 -0.5005  0.1638
 8773SOL    HW237539   8.062   1.287   2.981 -0.3339  0.4593  0.1073
 8774SOL     OW37540   5.268   5.778   1.757 -0.0469  0.2575 -0.1492
 8774SOL    HW137541   5.237   5.845   1.824  0.6477 -0.3960  0.8504
 8774SOL    HW237542   5.195   5.712   1.740 -0.2471  0.4596 -0.0726
 8775SOL     OW37543   1.497   1.908   6.433 -0.0518 -0.1667  0.3360
 8775SOL    HW137544   1.579   1.872   6.389 -0.5004 -1.1567  0.3068
 8775SOL    HW237545   1.517   1.998   6.471  0.6991  0.1369 -0.7580
 8776SOL     OW37546   8.250   5.552   0.273  0.0761  0.3084  0.3158
 8776SOL    HW137547   8.339   5.567   0.316 -0.2439  1.0160  0.7432
 8776SOL    HW237548   8.182   5.532   0.343 -0.0779 -0.3770 -0.0214
 8777SOL     OW37549   4.445   3.038   4.964 -0.1194 -0.3666 -0.1759
 8777SOL    HW137550   4.494   3.063   4.880 -1.2268  1.2228 -0.3704
 8777SOL    HW237551   4.459   3.110   5.033  0.0489 -1.2321  0.7081
 8778SOL     OW37552   0.503   1.910   3.491 -0.8800  0.6128 -0.1639
 8778SOL    HW137553   0.580   1.877   3.545 -0.0296  2.1945 -0.3844
 8778SOL    HW237554   0.472   1.837   3.429  0.9322  0.2041 -0.6297
 8779SOL     OW37555   1.484   4.860   1.716  0.2666  0.2260  0.3716
 8779SOL    HW137556   1.472   4.783   1.779  1.2935  0.2828  0.6592
 8779SOL    HW237557   1.414   4.856   1.645 -0.2544 -0.4499  0.9093
 8780SOL     OW37558   7.975   3.977   1.149 -0.1862 -0.3754  0.4404
 8780SOL    HW137559   8.058   3.963   1.203 -0.7185 -0.0549  1.3469
 8780SOL    HW237560   7.951   4.074   1.147 -0.4291 -0.4403  0.0143
 8781SOL     OW37561   8.235   9.426   1.947  0.1528 -0.2147  0.6179
 8781SOL    HW137562   8.192   9.336   1.937  2.0274 -0.9751 -0.9284
 8781SOL    HW237563   8.178   9.494   1.901 -0.1283 -0.9864 -0.2109
 8782SOL     OW37564   5.020   3.363   0.829  0.2868 -0.2794 -0.3602
 8782SOL    HW137565   4.985   3.446   0.871  0.0477 -0.3147 -0.4906
 8782SOL    HW237566   5.000   3.284   0.888  0.2670 -0.2822 -0.3712
 8783SOL     OW37567   3.961   7.838   2.974 -0.2532 -0.0301 -0.0989
 8783SOL    HW137568   4.049   7.875   2.943  1.0944 -1.3766  2.0388
 8783SOL    HW237569   3.929   7.891   3.052 -0.6970 -0.3474 -0.0683
 8784SOL     OW37570   0.026   7.512   3.940 -0.3535  0.2906 -0.2710
 8784SOL    HW137571   0.111   7.462   3.920  0.3291  0.9238  1.0020
 8784SOL    HW237572  -0.020   7.535   3.854  1.8472  1.7856 -1.0910
 8785SOL     OW37573   9.117   9.227   0.492 -0.4226 -0.2218 -0.2954
 8785SOL    HW137574   9.140   9.201   0.586 -2.0085  0.7602  0.3952
 8785SOL    HW237575   9.058   9.308   0.494 -0.2349 -0.0215 -2.1597
 8786SOL     OW37576   4.653   3.423   5.545 -0.0217 -0.2316 -0.4033
 8786SOL    HW137577   4.713   3.500   5.523 -0.1758 -0.2347 -0.8372
 8786SOL    HW237578   4.708   3.340   5.555  0.2902  0.1455  1.2294
 8787SOL     OW37579   0.033   8.894   4.353 -0.6756  0.4446  0.4457
 8787SOL    HW137580  -0.051   8.879   4.403 -0.8190 -0.7464 -0.1331
 8787SOL    HW237581   0.018   8.878   4.255  0.4458 -0.7523  0.4492
 8788SOL     OW37582   0.417   5.525   5.830 -0.1260  0.2456  0.4915
 8788SOL    HW137583   0.456   5.435   5.814  1.3676  1.2482 -1.7015
 8788SOL    HW237584   0.377   5.560   5.745  0.2506  2.1065  1.0567
 8789SOL     OW37585   4.413   5.316   2.079  0.4876 -0.4344 -0.3896
 8789SOL    HW137586   4.328   5.297   2.128 -0.1445 -1.6207 -1.9081
 8789SOL    HW237587   4.489   5.266   2.121  0.0039 -1.2210 -0.4599
 8790SOL     OW37588   2.765   8.845   6.411 -0.3822  0.2174  0.0298
 8790SOL    HW137589   2.749   8.940   6.386  2.0854 -0.0173 -2.7516
 8790SOL    HW237590   2.855   8.836   6.454  0.5860 -1.2193 -2.2228
 8791SOL     OW37591   6.146   1.275   1.163 -0.4836  0.3862  0.5519
 8791SOL    HW137592   6.213   1.212   1.203 -0.4000  0.5716  0.7016
 8791SOL    HW237593   6.158   1.277   1.063 -0.5316  0.1137  0.5386
 8792SOL     OW37594   1.533   3.693   1.300 -0.2803  0.1437 -0.0101
 8792SOL    HW137595   1.461   3.747   1.257 -0.6124 -0.6004 -0.3910
 8792SOL    HW237596   1.549   3.728   1.393 -0.9267  0.4943 -0.0224
 8793SOL     OW37597   8.262   7.801   4.459 -0.2227  0.0421  0.0346
 8793SOL    HW137598   8.343   7.781   4.514 -1.2326 -0.7633  1.2727
 8793SOL    HW237599   8.287   7.808   4.363  0.9960 -2.2505  0.1633
 8794SOL     OW37600   4.277   3.934   1.923 -0.6431  0.7504 -0.6502
 8794SOL    HW137601   4.264   4.031   1.946 -0.6500  0.5183  0.3644
 8794SOL    HW237602   4.236   3.878   1.995  1.0446  0.0008 -0.2678
 8795SOL     OW37603   0.626   4.019   3.329 -0.2022  0.5765  0.1972
 8795SOL    HW137604   0.678   4.064   3.402  1.4431 -0.6419 -0.1709
 8795SOL    HW237605   0.690   3.983   3.261 -1.5180 -1.0898 -0.1980
 8796SOL     OW37606   8.993   7.314   4.730 -0.1387 -0.1804 -0.4215
 8796SOL    HW137607   9.023   7.318   4.635  0.4352  0.9170 -0.2114
 8796SOL    HW237608   9.064   7.273   4.786 -0.6421 -1.1959 -0.5269
 8797SOL     OW37609   6.703   0.517   5.114 -0.3590  0.2594  0.1307
 8797SOL    HW137610   6.617   0.468   5.123  0.0083 -0.2829  0.7436
 8797SOL    HW237611   6.773   0.472   5.169  0.2206  0.9214 -0.0537
 8798SOL     OW37612   2.433   3.519   3.903 -0.2875  0.2392  0.1416
 8798SOL    HW137613   2.519   3.496   3.857 -0.2571  0.3905  0.1227
 8798SOL    HW237614   2.450   3.541   3.999 -0.6402 -2.3219  0.8251
 8799SOL     OW37615   4.202   2.964   5.650 -0.1109 -0.2888 -0.0164
 8799SOL    HW137616   4.272   2.941   5.583  0.6795  0.7321  0.4482
 8799SOL    HW237617   4.130   3.018   5.606 -0.6472 -1.3815 -0.5037
 8800SOL     OW37618   1.877   1.379   5.113 -0.3335  0.9641  0.4314
 8800SOL    HW137619   1.931   1.342   5.037 -0.9248  0.9320  0.0266
 8800SOL    HW237620   1.832   1.304   5.161 -0.9280  1.0942  0.0740
 8801SOL     OW37621   5.539   4.708   1.136 -0.1205  0.4837 -0.6959
 8801SOL    HW137622   5.604   4.632   1.125 -0.5213  0.4530 -2.9697
 8801SOL    HW237623   5.477   4.687   1.212  0.3156 -1.0840 -0.7454
 8802SOL     OW37624   4.508   5.108   6.620  0.2573 -0.2229 -0.0576
 8802SOL    HW137625   4.496   5.094   6.718  4.2215  0.9474  0.6567
 8802SOL    HW237626   4.445   5.179   6.588 -1.6081 -1.1735  1.4275
 8803SOL     OW37627   5.536   2.335   3.098  0.1552  0.2202 -0.0663
 8803SOL    HW137628   5.483   2.253   3.117 -1.0246  0.9646 -0.0814
 8803SOL    HW237629   5.486   2.393   3.033  0.1099  1.7948  1.3424
 8804SOL     OW37630   7.804   6.226   4.409 -0.6368 -0.0482 -0.0719
 8804SOL    HW137631   7.776   6.314   4.371 -0.9277 -0.3823 -0.6475
 8804SOL    HW237632   7.843   6.239   4.500  0.2269  0.7864 -0.5529
 8805SOL     OW37633   2.519   6.446   1.255 -0.0499  0.2522  0.0309
 8805SOL    HW137634   2.601   6.412   1.301 -0.2464 -2.1207 -1.3147
 8805SOL    HW237635   2.465   6.500   1.320  2.0964  1.0529  1.1879
 8806SOL     OW37636   0.205   8.111   2.574 -0.4856 -0.5293  0.3059
 8806SOL    HW137637   0.201   8.021   2.616  0.9008 -1.1795 -0.9113
 8806SOL    HW237638   0.113   8.149   2.567 -0.8305 -0.7011  3.1990
 8807SOL     OW37639   2.835   5.232   4.122 -0.3154  0.5587  0.0023
 8807SOL    HW137640   2.840   5.139   4.159 -2.1175 -0.1849 -1.5270
 8807SOL    HW237641   2.913   5.247   4.060 -1.1925 -0.7619 -1.4826
 8808SOL     OW37642   0.605   2.115   4.056 -0.3667 -0.7033  0.2639
 8808SOL    HW137643   0.561   2.187   4.109  0.8269  0.0077  0.2875
 8808SOL    HW237644   0.540   2.040   4.043 -1.6472  0.4035  0.1490
 8809SOL     OW37645   3.559   6.954   0.153 -0.0789 -0.2776  0.1458
 8809SOL    HW137646   3.549   6.885   0.080  0.9759 -0.6878  0.3832
 8809SOL    HW237647   3.553   7.045   0.112 -0.2419 -0.5022 -0.3485
 8810SOL     OW37648   5.590   7.482   4.520 -0.1960 -0.5892  0.3972
 8810SOL    HW137649   5.551   7.410   4.463  1.8122 -2.2295  1.0674
 8810SOL    HW237650   5.590   7.568   4.469 -0.1198 -1.6411 -1.4028
 8811SOL     OW37651   1.535   8.209   2.617 -0.3258  0.7576  0.1149
 8811SOL    HW137652   1.521   8.115   2.648 -3.4753  0.4107 -2.1785
 8811SOL    HW237653   1.535   8.270   2.697 -3.8467 -0.6104  1.2719
 8812SOL     OW37654   8.844   9.887   6.603  0.2659  0.1537  0.2522
 8812SOL    HW137655   8.827   9.919   6.510 -0.7765 -1.1930 -0.0286
 8812SOL    HW237656   8.890   9.960   6.655 -2.4444  2.2869 -0.2236
 8813SOL     OW37657   6.513   4.644   0.768  0.7365  0.3693 -0.0464
 8813SOL    HW137658   6.507   4.743   0.773  0.4760  0.3702 -0.4345
 8813SOL    HW237659   6.446   4.609   0.703  0.4934 -0.0994  0.4495
 8814SOL     OW37660   8.086   3.727   0.975 -0.3346  0.1317  0.0993
 8814SOL    HW137661   8.114   3.823   0.972 -1.2074  0.3466 -1.7518
 8814SOL    HW237662   7.986   3.722   0.979 -0.4658 -0.6698 -2.6986
 8815SOL     OW37663   9.280   5.710   0.965  0.2676 -0.2338 -0.4412
 8815SOL    HW137664   9.291   5.614   0.993  0.7729 -0.2863 -0.8145
 8815SOL    HW237665   9.279   5.715   0.865  3.0355  0.4504 -0.4793
 8816SOL     OW37666   5.101   0.419   3.293  0.5139 -0.2806  0.7378
 8816SOL    HW137667   5.112   0.325   3.262  0.3043 -0.1473  0.2559
 8816SOL    HW237668   5.137   0.482   3.224 -0.2033  0.0244  0.6364
 8817SOL     OW37669   8.292   9.309   2.745  0.1229 -0.0199 -0.4679
 8817SOL    HW137670   8.287   9.398   2.790  0.3976 -0.4900  0.5085
 8817SOL    HW237671   8.337   9.319   2.656 -0.1162  0.8581 -0.4974
 8818SOL     OW37672   4.766   5.000   1.491 -0.7061 -0.2155  0.1646
 8818SOL    HW137673   4.813   4.918   1.526  0.8858  0.4106 -0.4689
 8818SOL    HW237674   4.768   4.999   1.391 -1.9998 -0.1438  0.1355
 8819SOL     OW37675   3.925   1.152   2.995 -0.6808  0.1961  0.6119
 8819SOL    HW137676   3.908   1.099   3.079 -1.2504 -2.2676 -1.0014
 8819SOL    HW237677   3.986   1.101   2.935 -0.6509  1.7242 -0.6925
 8820SOL     OW37678   0.138   8.420   0.771 -0.6115 -0.0424  0.4393
 8820SOL    HW137679   0.179   8.421   0.680  0.9969 -1.4868  1.1004
 8820SOL    HW237680   0.038   8.420   0.764 -0.4970 -1.5224 -1.3580
 8821SOL     OW37681   0.760   2.536   1.114 -0.0617 -0.4442 -0.4440
 8821SOL    HW137682   0.807   2.453   1.084  0.4671 -0.3798  0.1975
 8821SOL    HW237683   0.688   2.559   1.049  1.8439  0.3693 -2.3330
 8822SOL     OW37684   4.811   9.760   6.341 -0.1459  0.2428 -0.2543
 8822SOL    HW137685   4.733   9.770   6.402  0.8956  0.1181  1.1227
 8822SOL    HW237686   4.805   9.672   6.294 -0.3244 -0.2198  0.6166
 8823SOL     OW37687   3.144   1.111   2.470  0.6259  0.2699  0.5564
 8823SOL    HW137688   3.140   1.208   2.492  0.3508  0.6947 -1.2819
 8823SOL    HW237689   3.152   1.099   2.371  0.6021 -1.5810  0.7504
 8824SOL     OW37690   3.928   4.902   0.469 -0.4608  0.3156 -0.3344
 8824SOL    HW137691   3.947   4.807   0.494  3.0029  1.0992  0.2694
 8824SOL    HW237692   3.977   4.924   0.384 -2.8198  1.0252 -1.5492
 8825SOL     OW37693   0.291   7.075   4.352 -0.6790  0.2433 -0.2413
 8825SOL    HW137694   0.303   6.979   4.378 -0.9548 -0.3439 -2.2071
 8825SOL    HW237695   0.363   7.130   4.394  0.4050 -1.0624 -0.3455
 8826SOL     OW37696   0.992   0.468   5.334  0.0400  0.4575  0.1655
 8826SOL    HW137697   0.998   0.379   5.290 -0.9414  0.4475  0.0301
 8826SOL    HW237698   1.048   0.468   5.417 -0.2487 -0.4080  0.3681
 8827SOL     OW37699   5.488   0.251   1.894  0.4659 -0.4227 -0.2119
 8827SOL    HW137700   5.399   0.261   1.939  0.0384 -0.0631 -1.1208
 8827SOL    HW237701   5.500   0.325   1.828  2.1067  0.4418  0.9932
 8828SOL     OW37702   5.463   1.786   1.058 -0.2251  0.0232  0.2071
 8828SOL    HW137703   5.483   1.690   1.077  0.0973 -0.0364 -0.4431
 8828SOL    HW237704   5.430   1.830   1.142  1.4219 -0.1842  0.9775
 8829SOL     OW37705   8.831   6.644   5.192 -0.3455 -0.5207 -0.1174
 8829SOL    HW137706   8.794   6.699   5.267 -0.0697 -0.6795  0.1355
 8829SOL    HW237707   8.909   6.590   5.225 -0.8683 -1.3684 -0.2676
 8830SOL     OW37708   1.220   9.172   4.147 -0.1579  0.2515  0.2372
 8830SOL    HW137709   1.164   9.254   4.139  0.7541  0.8114 -0.5629
 8830SOL    HW237710   1.192   9.120   4.228  0.2808  2.1474  1.6422
 8831SOL     OW37711   2.508   0.120   4.858 -0.6670  0.7775  0.6851
 8831SOL    HW137712   2.547   0.074   4.778 -0.2345  0.5093  1.0448
 8831SOL    HW237713   2.577   0.123   4.931  0.0977  3.9397 -0.0596
 8832SOL     OW37714   5.244   6.932   3.004 -0.3984 -0.6694  0.6437
 8832SOL    HW137715   5.266   6.875   2.925  1.9657 -1.5870  1.9018
 8832SOL    HW237716   5.146   6.952   3.006 -0.8658 -2.7257 -1.1161
 8833SOL     OW37717   2.507   2.009   1.037 -0.5938 -0.9149  0.3523
 8833SOL    HW137718   2.480   2.105   1.046 -0.6312 -1.0508  1.8815
 8833SOL    HW237719   2.473   1.972   0.951 -0.3453  0.5209 -0.3701
 8834SOL     OW37720   6.285   9.557   2.993  0.0694 -0.3104 -0.8252
 8834SOL    HW137721   6.313   9.461   2.998  1.4410  0.0372 -1.6715
 8834SOL    HW237722   6.338   9.610   3.059 -0.6686 -0.1093 -0.3813
 8835SOL     OW37723   4.077   9.400   2.822  0.5289  0.2542  0.3236
 8835SOL    HW137724   4.173   9.411   2.850  0.7040  0.6331 -0.4108
 8835SOL    HW237725   4.052   9.475   2.762 -0.0566 -0.1716  0.0392
 8836SOL     OW37726   9.095   2.980   4.107  0.4111  0.2746 -0.6604
 8836SOL    HW137727   9.171   3.026   4.062  1.9404 -0.5354  1.0165
 8836SOL    HW237728   9.082   3.019   4.198 -2.3297  1.5674 -1.5516
 8837SOL     OW37729   0.184   8.098   5.907  0.5029 -0.4741 -0.1666
 8837SOL    HW137730   0.193   8.078   5.809 -1.9843  0.3097 -0.6059
 8837SOL    HW237731   0.090   8.129   5.925  1.5053  1.3286  2.1226
 8838SOL     OW37732   0.303   6.634   6.513 -0.3966 -0.1624  0.5889
 8838SOL    HW137733   0.374   6.688   6.558  1.3225 -1.8420 -0.0220
 8838SOL    HW237734   0.217   6.684   6.516  1.2733  2.9523 -0.6432
 8839SOL     OW37735   8.764   3.546   0.982  0.3803  0.0306  0.3782
 8839SOL    HW137736   8.732   3.477   0.917  1.1873  1.1085 -1.2034
 8839SOL    HW237737   8.857   3.522   1.012  0.9763  0.7873 -0.7759
 8840SOL     OW37738   1.922   4.198   2.866  0.3823  0.0129  0.5828
 8840SOL    HW137739   1.956   4.236   2.952  1.1558 -0.1554  0.3568
 8840SOL    HW237740   1.978   4.232   2.790  0.9211 -1.3715  0.3561
 8841SOL     OW37741   1.001   2.697   0.983  0.2252 -0.3390  0.3958
 8841SOL    HW137742   1.011   2.628   0.912  0.9741 -0.9198  1.0611
 8841SOL    HW237743   0.964   2.655   1.066  0.6054  0.0721  0.7811
 8842SOL     OW37744   4.578   4.208   3.714 -0.3917 -0.1486  0.3410
 8842SOL    HW137745   4.675   4.201   3.737 -0.6421 -0.8055  1.2087
 8842SOL    HW237746   4.529   4.130   3.753 -1.5219  0.9677  1.1817
 8843SOL     OW37747   9.773   4.558   2.395  0.1921 -0.3211  0.2646
 8843SOL    HW137748   9.803   4.466   2.421  0.7353 -0.5346 -1.0717
 8843SOL    HW237749   9.780   4.569   2.296 -0.2287  1.0376  0.3690
 8844SOL     OW37750   7.386   1.485   6.260 -0.2754  0.4103 -0.4181
 8844SOL    HW137751   7.338   1.572   6.250 -0.9175 -0.0037 -0.9783
 8844SOL    HW237752   7.332   1.412   6.218  1.6631  0.2279 -2.6743
 8845SOL     OW37753   3.645   7.255   3.155 -0.4695 -0.2714 -0.4211
 8845SOL    HW137754   3.683   7.162   3.147 -0.7472 -0.4096 -0.1741
 8845SOL    HW237755   3.668   7.308   3.074  0.6393 -0.2131 -0.0724
 8846SOL     OW37756   9.275   1.505   6.382  0.2145  0.8736  0.2459
 8846SOL    HW137757   9.286   1.498   6.283 -1.7006  1.0692 -0.0030
 8846SOL    HW237758   9.268   1.414   6.422 -2.4147  0.8304 -0.2387
 8847SOL     OW37759   3.255   9.118   5.939  0.1339 -0.4111  0.2740
 8847SOL    HW137760   3.244   9.034   5.886  1.6633 -0.5226  0.1144
 8847SOL    HW237761   3.319   9.179   5.893 -0.7025  0.7003  0.5650
 8848SOL     OW37762   0.351   5.735   0.762 -0.4299 -0.1041 -0.0181
 8848SOL    HW137763   0.251   5.739   0.754 -0.7038 -2.1170  2.0954
 8848SOL    HW237764   0.385   5.656   0.712  0.0309  0.0766  0.0099
 8849SOL     OW37765   3.739   6.764   4.048  0.5579  0.3286 -0.2479
 8849SOL    HW137766   3.647   6.803   4.054  1.0496  1.4393  0.0285
 8849SOL    HW237767   3.792   6.815   3.980  0.3686 -1.5308 -1.8649
 8850SOL     OW37768   0.968   2.876   2.609 -0.5149 -0.1264 -0.1493
 8850SOL    HW137769   0.885   2.924   2.580 -0.4327 -0.2556 -0.6060
 8850SOL    HW237770   1.009   2.830   2.530 -0.9231 -1.4544  0.4073
 8851SOL     OW37771   8.904   8.184   3.647  0.4309 -0.3291  0.3621
 8851SOL    HW137772   8.959   8.143   3.575  1.2207 -0.7120  1.1671
 8851SOL    HW237773   8.814   8.141   3.649 -0.1804  0.8192 -1.4550
 8852SOL     OW37774   3.475   3.395   1.929 -0.4488 -0.0669  0.3845
 8852SOL    HW137775   3.376   3.384   1.923 -0.4292 -0.0333 -0.0263
 8852SOL    HW237776   3.507   3.452   1.853 -0.1056 -0.1351  0.4752
 8853SOL     OW37777   1.956   2.499   4.754 -0.0989 -0.7033  0.1909
 8853SOL    HW137778   2.035   2.452   4.716  0.5444  0.8722 -0.4490
 8853SOL    HW237779   1.872   2.460   4.716  0.4403 -1.0324 -0.6676
 8854SOL     OW37780   1.752   5.766   4.405 -0.3299 -0.0963 -0.2836
 8854SOL    HW137781   1.761   5.690   4.341 -1.5945 -1.3502  0.9813
 8854SOL    HW237782   1.838   5.815   4.412  0.7777 -2.0017 -0.4029
 8855SOL     OW37783   1.240   9.876   3.109 -0.2568  0.3927 -0.5873
 8855SOL    HW137784   1.325   9.866   3.160  0.1513 -0.1825 -1.3571
 8855SOL    HW237785   1.182   9.796   3.123  0.0562  0.0191 -1.3749
 8856SOL     OW37786   0.499   6.422   4.215  0.0646  0.0247  0.2967
 8856SOL    HW137787   0.569   6.389   4.279 -0.1097 -0.4671  0.2350
 8856SOL    HW237788   0.526   6.399   4.122 -0.0655  0.0388  0.2558
 8857SOL     OW37789   8.227   2.959   4.426  0.3436  0.0196 -0.3424
 8857SOL    HW137790   8.281   3.040   4.404 -0.1867  0.6945  0.7896
 8857SOL    HW237791   8.267   2.912   4.505 -1.1383  0.9793  1.0219
 8858SOL     OW37792   5.951   9.280   4.558 -0.0310 -0.0581 -0.3086
 8858SOL    HW137793   5.982   9.189   4.531  1.1621 -0.1132  1.1436
 8858SOL    HW237794   6.021   9.322   4.617 -2.1247  0.3698  1.9474
 8859SOL     OW37795   6.093   7.661   3.258  0.1941 -0.1457 -0.4931
 8859SOL    HW137796   6.181   7.705   3.276  0.8061 -1.7948  0.6147
 8859SOL    HW237797   6.096   7.566   3.289 -2.4468  0.1773  0.8166
 8860SOL     OW37798   4.847   3.706   2.942 -0.5570  0.3621  0.5649
 8860SOL    HW137799   4.838   3.718   2.843 -1.8036  1.9995  0.8572
 8860SOL    HW237800   4.892   3.787   2.981 -0.2206 -0.2026  1.3711
 8861SOL     OW37801   0.383   5.267   0.962  0.1222 -0.3762 -0.1341
 8861SOL    HW137802   0.402   5.350   1.015 -0.7934 -0.3023  0.0958
 8861SOL    HW237803   0.469   5.222   0.938  0.5773 -0.0307  0.8232
 8862SOL     OW37804   0.183   7.077   2.331 -0.0700 -0.1061  0.2030
 8862SOL    HW137805   0.097   7.112   2.370 -1.6076 -2.2314 -1.1884
 8862SOL    HW237806   0.230   7.151   2.283 -0.5809  1.3325  1.8600
 8863SOL     OW37807   4.475   3.505   2.273 -0.1560  0.5356  0.1884
 8863SOL    HW137808   4.427   3.557   2.202 -1.2927 -0.1155  0.4686
 8863SOL    HW237809   4.444   3.536   2.363  0.5879  0.7006  0.3895
 8864SOL     OW37810   4.280   2.037   4.108  0.8653  0.3007  0.1530
 8864SOL    HW137811   4.221   1.987   4.045 -0.5710 -0.0503  1.7223
 8864SOL    HW237812   4.358   1.979   4.132  1.5663  0.5415 -1.4835
 8865SOL     OW37813   2.396   3.860   4.082  0.6196  0.0483 -0.0368
 8865SOL    HW137814   2.381   3.886   3.987 -1.4023  1.0088  0.5026
 8865SOL    HW237815   2.310   3.871   4.133  1.4222 -1.3692  1.6854
 8866SOL     OW37816   8.673   3.732   2.537  0.3397 -0.0016  0.4346
 8866SOL    HW137817   8.728   3.694   2.611 -0.0526 -0.6037  0.4132
 8866SOL    HW237818   8.721   3.811   2.498  1.5126 -0.9279 -0.0340
 8867SOL     OW37819   5.976   2.023   2.451  0.0938  0.0588 -0.4151
 8867SOL    HW137820   5.910   2.075   2.396 -0.0977  2.4455  1.9728
 8867SOL    HW237821   6.064   2.069   2.450  0.9569 -1.5978 -1.2762
 8868SOL     OW37822   3.900   3.857   5.161  0.0738 -0.1256 -0.4721
 8868SOL    HW137823   3.974   3.840   5.096  3.2322  0.2833  2.9018
 8868SOL    HW237824   3.883   3.955   5.168  0.1011 -0.1410 -0.2148
 8869SOL     OW37825   0.679   4.540   5.568 -0.2646  0.1907  0.4623
 8869SOL    HW137826   0.699   4.476   5.494 -1.1882  0.0693  0.3122
 8869SOL    HW237827   0.582   4.536   5.591 -0.0893  0.6256  1.3110
 8870SOL     OW37828   3.599   1.651   4.216 -0.5844 -0.2017  0.1861
 8870SOL    HW137829   3.525   1.718   4.209 -1.5907 -1.2587  0.4955
 8870SOL    HW237830   3.561   1.562   4.244  1.1564 -0.0628  3.2298
 8871SOL     OW37831   2.360   3.862   0.431 -0.0840 -0.4337  0.0724
 8871SOL    HW137832   2.261   3.873   0.446 -0.5075 -0.3080 -2.5896
 8871SOL    HW237833   2.399   3.811   0.507 -2.0453  0.2571  1.5954
 8872SOL     OW37834   4.171   3.902   6.412  0.2112 -0.0043 -0.0745
 8872SOL    HW137835   4.235   3.911   6.489 -0.7611  2.1556  0.5142
 8872SOL    HW237836   4.201   3.960   6.337  1.3632 -2.3928 -1.5233
 8873SOL     OW37837   7.606   9.381   3.612  0.4367  0.0697 -0.1911
 8873SOL    HW137838   7.627   9.305   3.549 -0.6930  0.9443 -1.6517
 8873SOL    HW237839   7.516   9.366   3.653 -0.3042  1.2119 -1.3927
 8874SOL     OW37840   2.130   9.734   1.808  0.4381  0.2428  0.0666
 8874SOL    HW137841   2.052   9.793   1.831  1.4799  1.5797  0.1955
 8874SOL    HW237842   2.106   9.679   1.728 -0.6357  0.6664  0.0767
 8875SOL     OW37843   5.181   9.936   4.396 -0.2309 -0.5730 -0.3107
 8875SOL    HW137844   5.181   9.869   4.470 -2.4320 -1.0213 -0.6744
 8875SOL    HW237845   5.093   9.984   4.394  0.4759  0.7352 -1.4882
 8876SOL     OW37846   8.572   2.455   0.720 -0.2334 -0.0983  0.2315
 8876SOL    HW137847   8.519   2.398   0.657 -0.2930  0.0210  0.1737
 8876SOL    HW237848   8.622   2.396   0.784 -0.4376 -0.2102  0.2872
 8877SOL     OW37849   0.956   8.017   5.626  0.0863 -0.0738  0.0452
 8877SOL    HW137850   0.878   7.968   5.664 -0.9325  1.0262 -0.5697
 8877SOL    HW237851   0.960   8.002   5.527  0.4916  0.0760  0.0374
 8878SOL     OW37852   9.788   2.067   6.724  0.5354 -0.5890 -0.2209
 8878SOL    HW137853   9.867   2.006   6.727 -0.5900 -2.2083 -2.1073
 8878SOL    HW237854   9.713   2.021   6.675 -1.2036  1.3216  0.6016
 8879SOL     OW37855   8.588   7.061   0.735  0.4119  0.1812 -0.3275
 8879SOL    HW137856   8.681   7.067   0.772 -0.1750  2.0932  0.9009
 8879SOL    HW237857   8.574   7.135   0.669 -0.3438  0.0422 -0.3213
 8880SOL     OW37858   4.148   2.170   2.406 -0.7313 -0.1552 -0.2444
 8880SOL    HW137859   4.199   2.094   2.366 -1.4948 -0.3530 -0.8515
 8880SOL    HW237860   4.211   2.231   2.454  0.0591 -0.4752 -0.8670
 8881SOL     OW37861   3.760   7.064   2.559  0.1872 -0.2384 -0.2059
 8881SOL    HW137862   3.759   7.052   2.658 -0.1334  0.0720 -0.1705
 8881SOL    HW237863   3.703   7.142   2.534  0.1008 -0.4418 -0.6529
 8882SOL     OW37864   7.479   4.627   0.775  0.1716 -0.0726 -0.1571
 8882SOL    HW137865   7.478   4.556   0.845  2.6221  2.3567  2.4751
 8882SOL    HW237866   7.538   4.598   0.699  0.3216 -1.2507  0.4003
 8883SOL     OW37867   3.294   9.007   5.286 -0.0576 -0.2946 -0.2605
 8883SOL    HW137868   3.298   9.094   5.337  0.0991 -0.2152 -0.4083
 8883SOL    HW237869   3.237   9.019   5.205  1.0762  0.0667 -1.0338
 8884SOL     OW37870   0.172   6.846   4.688 -0.1950 -0.3936 -0.4394
 8884SOL    HW137871   0.076   6.871   4.704  0.0270  0.0857  0.1763
 8884SOL    HW237872   0.190   6.843   4.590 -0.9031 -0.7255 -0.5619
 8885SOL     OW37873   7.538   2.355   3.335  0.5837  0.1171  0.4804
 8885SOL    HW137874   7.501   2.441   3.369  0.0353 -0.3532  1.0919
 8885SOL    HW237875   7.476   2.280   3.360  1.9059 -0.6753  1.4414
 8886SOL     OW37876   8.574   1.554   3.076 -0.1095  0.0048 -0.0631
 8886SOL    HW137877   8.652   1.555   3.015 -0.5875  1.4355 -0.6586
 8886SOL    HW237878   8.491   1.531   3.025 -0.5327  1.3466  0.0045
 8887SOL     OW37879   9.671   4.024   0.466  0.3502  0.0904  0.1487
 8887SOL    HW137880   9.692   3.948   0.405 -0.1932  0.3042 -0.3169
 8887SOL    HW237881   9.601   4.082   0.424  0.3745  0.5526  0.7316
 8888SOL     OW37882   7.407   2.815   0.515 -0.7072 -0.0456  0.2944
 8888SOL    HW137883   7.419   2.874   0.595 -2.0602  0.4713  0.1439
 8888SOL    HW237884   7.369   2.868   0.440 -1.7032 -1.0413  0.0703
 8889SOL     OW37885   5.489   1.428   4.975  0.3599  0.1608  0.0091
 8889SOL    HW137886   5.517   1.425   5.071 -1.8972 -1.2335  0.6715
 8889SOL    HW237887   5.390   1.410   4.969  0.4366  0.4334 -2.5661
 8890SOL     OW37888   9.432   5.718   3.050 -0.5074  0.2783  0.2616
 8890SOL    HW137889   9.441   5.677   3.140  2.1375 -0.6473 -0.3929
 8890SOL    HW237890   9.521   5.719   3.004 -1.6872  1.2772 -2.1053
 8891SOL     OW37891   7.517   3.268   0.228 -0.3044  0.0952 -0.1258
 8891SOL    HW137892   7.445   3.249   0.160  0.1655  0.3721 -0.7076
 8891SOL    HW237893   7.556   3.359   0.210 -0.0916  0.1155  0.4408
 8892SOL     OW37894   9.647   5.098   3.315 -0.5750  0.1808 -0.7914
 8892SOL    HW137895   9.612   5.137   3.229  0.0774 -0.5937 -1.4161
 8892SOL    HW237896   9.589   5.127   3.391 -1.3461  0.6203 -1.5413
 8893SOL     OW37897   1.333   0.965   3.917  0.5471 -0.2228 -0.2553
 8893SOL    HW137898   1.324   0.980   4.016 -1.4672  0.0222 -0.4563
 8893SOL    HW237899   1.428   0.940   3.896  0.6350 -2.0437  1.9810
 8894SOL     OW37900   2.006   7.006   2.800 -0.3068 -0.1390 -0.3457
 8894SOL    HW137901   2.044   7.067   2.731  0.7599  0.8950  1.1197
 8894SOL    HW237902   1.906   7.006   2.793 -0.1812 -1.0646 -2.6989
 8895SOL     OW37903   4.441   3.790   0.084 -0.0666 -0.2281 -0.0031
 8895SOL    HW137904   4.354   3.833   0.108  0.2316  0.6577 -0.5058
 8895SOL    HW237905   4.516   3.851   0.107  0.2747  0.2997 -2.3794
 8896SOL     OW37906   1.415   4.509   4.907 -0.5990  0.2955 -0.5365
 8896SOL    HW137907   1.365   4.544   4.828 -1.3436  0.7683  0.1369
 8896SOL    HW237908   1.394   4.565   4.987 -1.7637 -1.6401  0.5551
 8897SOL     OW37909   8.503   8.920   4.934 -0.0086  0.0710 -0.0524
 8897SOL    HW137910   8.426   8.967   4.892 -2.0248  0.1632  3.6234
 8897SOL    HW237911   8.555   8.984   4.990  1.3248 -0.5684 -0.5221
 8898SOL     OW37912   1.959   6.408   6.006 -0.1660 -0.5753 -0.1291
 8898SOL    HW137913   1.935   6.438   5.914 -1.1263  1.1777  0.6705
 8898SOL    HW237914   2.055   6.381   6.008  0.1765  0.4853 -1.3759
 8899SOL     OW37915   7.261   0.944   0.550  0.0584  0.0772  0.7012
 8899SOL    HW137916   7.242   0.851   0.518  1.3247 -0.2806  0.9290
 8899SOL    HW237917   7.271   1.005   0.472 -1.0285  0.0737  0.5593
 8900SOL     OW37918   0.805   5.922   6.350  0.7336 -0.1992  0.3043
 8900SOL    HW137919   0.777   5.894   6.258 -0.5186 -1.1164  0.9391
 8900SOL    HW237920   0.891   5.878   6.374  0.3802 -1.0168  0.0781
 8901SOL     OW37921   8.771   7.488   4.696  0.3184 -0.7436 -0.1105
 8901SOL    HW137922   8.687   7.461   4.744 -0.1273 -0.8666 -0.9408
 8901SOL    HW237923   8.841   7.419   4.711  0.3072 -0.5823  0.6894
 8902SOL     OW37924   8.732   1.316   1.426 -0.1572  0.0971  0.1983
 8902SOL    HW137925   8.727   1.255   1.347  1.2564  1.0577 -0.6354
 8902SOL    HW237926   8.639   1.344   1.452 -0.5906  0.3290 -1.5409
 8903SOL     OW37927   2.341   9.054   2.352  0.1310  0.2720 -0.0533
 8903SOL    HW137928   2.267   9.022   2.411  0.2819  1.5944  0.8525
 8903SOL    HW237929   2.393   8.975   2.319 -1.9414 -0.7118 -1.0682
 8904SOL     OW37930   3.437   8.889   2.111  0.1370  0.0557 -0.3282
 8904SOL    HW137931   3.516   8.937   2.073 -0.7521  2.3381  0.6097
 8904SOL    HW237932   3.398   8.828   2.042  2.0111 -0.2245 -1.1584
 8905SOL     OW37933   8.339   2.811   4.644 -0.2140 -0.0515 -0.6899
 8905SOL    HW137934   8.370   2.720   4.672 -1.4378 -0.1737  0.2894
 8905SOL    HW237935   8.271   2.845   4.709  1.1106  2.0850 -0.3571
 8906SOL     OW37936   2.996   1.789   3.727  0.4513  0.4119  0.0033
 8906SOL    HW137937   2.914   1.767   3.674  0.7775  0.1718 -0.3939
 8906SOL    HW237938   3.000   1.888   3.742 -0.6223  0.2962  1.1705
 8907SOL     OW37939   7.009   1.126   5.800 -0.6377 -0.2367 -0.1032
 8907SOL    HW137940   6.958   1.064   5.740 -0.2593  0.5149 -1.2315
 8907SOL    HW237941   7.059   1.073   5.869 -2.0275 -1.0432  0.2969
 8908SOL     OW37942   4.762   7.704   2.170 -0.0218 -0.2918 -0.3690
 8908SOL    HW137943   4.820   7.761   2.228 -0.3633 -1.0385  0.7269
 8908SOL    HW237944   4.711   7.762   2.107 -2.7246  0.9704  2.8186
 8909SOL     OW37945   7.812   9.439   1.564 -0.3814  0.0743 -0.1434
 8909SOL    HW137946   7.772   9.391   1.643 -0.4750  0.1660 -0.1348
 8909SOL    HW237947   7.903   9.404   1.546  1.0868  2.5188  2.2366
 8910SOL     OW37948   2.840   1.424   4.218 -0.2868 -0.0183 -0.3432
 8910SOL    HW137949   2.839   1.354   4.147  3.7752 -0.2367 -0.2516
 8910SOL    HW237950   2.817   1.513   4.177 -0.2642 -0.5292 -1.4802
 8911SOL     OW37951   2.238   8.444   2.914  0.0256  0.3159  0.2024
 8911SOL    HW137952   2.195   8.419   2.827  0.4957  1.4134 -0.3534
 8911SOL    HW237953   2.184   8.406   2.989 -1.1894  0.5641 -0.5280
 8912SOL     OW37954   9.035   9.976   2.398 -0.3321 -0.6036 -0.4613
 8912SOL    HW137955   8.951   9.945   2.443  0.4850 -0.4129  1.2642
 8912SOL    HW237956   9.093   9.896   2.378  0.9645 -0.4218  2.3201
 8913SOL     OW37957   4.885   5.218   2.986 -0.0333 -0.7382  0.0509
 8913SOL    HW137958   4.910   5.301   2.936  2.0806 -1.0586  0.5188
 8913SOL    HW237959   4.867   5.242   3.082  0.5714 -0.8117  0.1845
 8914SOL     OW37960   0.395   0.709   3.440 -0.5750 -0.0284 -0.5086
 8914SOL    HW137961   0.429   0.801   3.460  0.9192 -0.9291  1.1400
 8914SOL    HW237962   0.467   0.642   3.459 -2.0889 -1.6504 -0.4489
 8915SOL     OW37963   2.907   5.816   1.751 -0.5680  0.6538 -0.5680
 8915SOL    HW137964   2.830   5.840   1.810  0.5405  0.0906  1.1630
 8915SOL    HW237965   2.966   5.896   1.737  0.5627  0.1815  1.2742
 8916SOL     OW37966   1.887   9.439   2.325  0.5334  0.7457  0.6590
 8916SOL    HW137967   1.948   9.492   2.265 -1.1993  2.2801  0.1985
 8916SOL    HW237968   1.810   9.405   2.271  0.7149 -0.7930  1.3400
 8917SOL     OW37969   1.341   7.236   4.904  0.4065  0.6403  0.1984
 8917SOL    HW137970   1.415   7.287   4.861  0.1965  0.6540 -0.1454
 8917SOL    HW237971   1.356   7.138   4.892 -0.9436  0.6890 -2.0770
 8918SOL     OW37972   4.662   1.050   3.636  0.1490 -0.1077 -0.4429
 8918SOL    HW137973   4.716   1.056   3.720 -0.4720 -1.3301  0.0453
 8918SOL    HW237974   4.649   1.142   3.599  2.5953  0.2197 -0.6063
 8919SOL     OW37975   1.625   4.498   1.671  0.2257  0.4066 -0.6910
 8919SOL    HW137976   1.686   4.458   1.740 -0.1468 -0.6281 -0.9465
 8919SOL    HW237977   1.674   4.566   1.618  1.7163 -1.7539 -2.1368
 8920SOL     OW37978   2.505   3.001   0.736  0.2602  0.4022 -0.0765
 8920SOL    HW137979   2.544   3.041   0.819 -0.7503  0.6459  0.2860
 8920SOL    HW237980   2.573   3.004   0.662  0.7623  1.2600  0.4163
 8921SOL     OW37981   8.740   1.515   5.980 -0.1838 -0.0776 -0.1300
 8921SOL    HW137982   8.648   1.526   5.942  0.9252 -1.2086 -3.3034
 8921SOL    HW237983   8.737   1.448   6.054 -2.1563  0.9896  0.7885
 8922SOL     OW37984   7.310   3.012   0.914  0.2220 -0.0166  0.7206
 8922SOL    HW137985   7.211   3.022   0.906 -0.0114 -1.8975  0.9514
 8922SOL    HW237986   7.332   2.959   0.995  1.5804  2.4485  2.0159
 8923SOL     OW37987   6.172   1.789   2.472  0.5745  0.6503 -0.2759
 8923SOL    HW137988   6.093   1.846   2.452  0.8718  1.0879 -0.2146
 8923SOL    HW237989   6.250   1.819   2.418  0.0985 -1.2527 -2.0726
 8924SOL     OW37990   7.623   9.727   5.248 -0.6165  0.3244 -0.2999
 8924SOL    HW137991   7.702   9.735   5.187 -0.8193  0.3156 -0.5618
 8924SOL    HW237992   7.629   9.640   5.297 -1.4190 -0.5278 -1.6750
 8925SOL     OW37993   8.981   5.838   1.015 -0.2719  0.3619 -0.3910
 8925SOL    HW137994   8.959   5.934   1.002 -0.2205  0.7788  2.2074
 8925SOL    HW237995   9.078   5.822   0.997 -0.6835  0.3985 -2.7010
 8926SOL     OW37996   9.217   1.132   2.550 -0.1985  0.6727 -0.2780
 8926SOL    HW137997   9.285   1.074   2.596 -0.3909  0.8357  0.2158
 8926SOL    HW237998   9.163   1.076   2.487  0.6706  0.6213 -0.9984
 8927SOL     OW37999   6.353   1.379   5.668 -0.7099  0.4123  0.2821
 8927SOL    HW138000   6.339   1.446   5.594  0.2116  0.1207 -0.1600
 8927SOL    HW238001   6.264   1.349   5.702 -1.2012  3.5160  2.0028
 8928SOL     OW38002   1.271   6.766   0.176  0.0513  0.4264  0.7548
 8928SOL    HW138003   1.222   6.681   0.159  1.2388 -0.4397  1.6239
 8928SOL    HW238004   1.260   6.826   0.096 -1.6041 -0.1211  0.5367
 8929SOL     OW38005   4.005   9.985   1.427 -0.3025 -0.1213  0.0888
 8929SOL    HW138006   3.972   9.900   1.469  2.1510 -0.6023  1.1444
 8929SOL    HW238007   4.078   9.964   1.362 -1.4927  0.9806 -1.6622
 8930SOL     OW38008   8.949   6.013   5.432 -0.3131  0.4454  0.0096
 8930SOL    HW138009   8.880   6.002   5.505  0.3965  0.3919  0.6739
 8930SOL    HW238010   8.961   5.925   5.385  0.0995  0.1705  0.6173
 8931SOL     OW38011   0.343   6.858   5.912 -0.1504  0.2858 -0.6917
 8931SOL    HW138012   0.288   6.856   5.829 -1.1123  0.1800 -0.0564
 8931SOL    HW238013   0.395   6.773   5.919  0.0387  0.3531 -1.2523
 8932SOL     OW38014   4.454   3.098   1.037  0.0966  0.1071  0.4395
 8932SOL    HW138015   4.396   3.170   0.997  0.8144  0.3541 -0.1641
 8932SOL    HW238016   4.491   3.130   1.124  1.6295  1.0665 -0.5467
 8933SOL     OW38017   0.341   7.906   6.682 -0.1056  0.0554 -0.4658
 8933SOL    HW138018   0.322   7.808   6.687 -0.0097  0.0267 -0.6858
 8933SOL    HW238019   0.432   7.921   6.645 -0.0680  0.2243 -0.3049
 8934SOL     OW38020   9.364   3.110   3.995  0.1643 -0.4620  0.0591
 8934SOL    HW138021   9.302   3.113   3.916  0.1591  1.0839  0.1166
 8934SOL    HW238022   9.449   3.157   3.972 -0.0580  0.4952  1.1602
 8935SOL     OW38023   3.503   8.366   5.771 -0.2095  0.1817  0.1358
 8935SOL    HW138024   3.531   8.354   5.867 -0.7480  1.4912  0.4698
 8935SOL    HW238025   3.512   8.463   5.746  3.2861 -0.6871 -2.2100
 8936SOL     OW38026   3.029   4.040   5.347  0.9150 -0.1008 -0.7731
 8936SOL    HW138027   3.107   4.062   5.288  0.5728  1.7954 -0.5474
 8936SOL    HW238028   2.999   4.122   5.394 -0.3690 -1.1064  0.1955
 8937SOL     OW38029   4.923   3.953   3.082  0.1517  0.3840  0.2308
 8937SOL    HW138030   4.914   4.017   3.005  0.9678  1.5275  1.0818
 8937SOL    HW238031   4.836   3.950   3.132 -0.2379 -0.0141 -0.4503
 8938SOL     OW38032   6.182   0.012   3.643 -0.1598 -0.4486 -0.2717
 8938SOL    HW138033   6.205   0.049   3.554 -1.1840 -0.4137 -0.5350
 8938SOL    HW238034   6.261   0.017   3.703  0.0859  0.9851 -0.6914
 8939SOL     OW38035   2.035   2.343   3.618  0.3695 -0.2432 -0.1577
 8939SOL    HW138036   1.992   2.428   3.587  1.1673  0.3153  0.2632
 8939SOL    HW238037   2.125   2.363   3.656 -1.0110 -0.7423  3.5600
 8940SOL     OW38038   4.279   4.371   4.168  0.1446 -0.3365 -0.0494
 8940SOL    HW138039   4.234   4.328   4.246  2.4875 -0.9719  1.0176
 8940SOL    HW238040   4.378   4.370   4.183  0.4934  1.4477 -2.0785
 8941SOL     OW38041   0.685   5.439   6.113  0.0051  0.0813 -0.2612
 8941SOL    HW138042   0.709   5.342   6.109  2.7868  0.7067 -0.2948
 8941SOL    HW238043   0.599   5.450   6.161  0.4484 -2.3072  1.1859
 8942SOL     OW38044   9.822   3.369   6.102  0.3419 -0.2990 -0.2176
 8942SOL    HW138045   9.731   3.398   6.069 -0.9160 -1.5847  2.0278
 8942SOL    HW238046   9.858   3.298   6.041 -0.2754  0.0121 -0.9600
 8943SOL     OW38047   9.856   0.028   0.415  0.3448 -0.0627 -0.3485
 8943SOL    HW138048   9.858   0.078   0.501  0.0205  0.7260 -0.8033
 8943SOL    HW238049   9.817  -0.063   0.431  1.0328 -0.2284  0.4909
 8944SOL     OW38050   8.998   7.126   0.097  0.6069 -0.0140 -0.0735
 8944SOL    HW138051   9.077   7.173   0.058 -0.3024 -0.1417 -2.1549
 8944SOL    HW238052   9.026   7.040   0.138  1.6773  0.3827  0.0258
 8945SOL     OW38053   5.083   0.690   1.567 -0.8967 -0.4561 -0.0894
 8945SOL    HW138054   5.156   0.622   1.569  1.9618  2.5084  0.6812
 8945SOL    HW238055   5.080   0.734   1.477 -0.2331  0.9558  0.5649
 8946SOL     OW38056   3.210   1.203   5.707  0.4568 -0.2941 -0.2769
 8946SOL    HW138057   3.244   1.154   5.788 -1.7044 -1.6824 -0.1602
 8946SOL    HW238058   3.231   1.150   5.625  0.5456 -0.0535 -0.4097
 8947SOL     OW38059   1.956   8.343   1.636  0.3491 -1.0282  0.8127
 8947SOL    HW138060   1.933   8.430   1.592  1.7290 -1.4135 -0.7516
 8947SOL    HW238061   1.876   8.307   1.683 -0.6775  0.3103  0.1221
 8948SOL     OW38062   2.644   2.271   0.411  0.2656 -0.1131  0.4360
 8948SOL    HW138063   2.600   2.325   0.339 -0.6996 -1.1872  0.1954
 8948SOL    HW238064   2.727   2.317   0.442  0.1384  0.8660 -0.6502
 8949SOL     OW38065   0.236   1.364   6.685 -0.6140  0.4092  0.0641
 8949SOL    HW138066   0.291   1.443   6.713 -0.9079  0.0014  1.8314
 8949SOL    HW238067   0.192   1.324   6.765 -0.9970 -1.1600 -0.9117
 8950SOL     OW38068   7.299   1.922   2.818  0.4782 -0.0871 -0.2638
 8950SOL    HW138069   7.393   1.903   2.846  0.2628  0.8781  1.1599
 8950SOL    HW238070   7.258   1.989   2.881 -1.3889 -1.0242 -0.4492
 8951SOL     OW38071   1.947   4.371   1.615  0.0263 -0.1885 -0.1214
 8951SOL    HW138072   1.934   4.339   1.709  1.1550  0.1733  0.1643
 8951SOL    HW238073   1.939   4.294   1.553 -1.1757 -0.3550  0.2294
 8952SOL     OW38074   8.059   7.650   2.868 -0.3751 -0.2233  0.3319
 8952SOL    HW138075   7.981   7.699   2.831 -0.2733  0.0403  0.4693
 8952SOL    HW238076   8.144   7.688   2.832 -0.2998 -0.3778  0.3404
 8953SOL     OW38077   9.687   2.508   5.585 -0.0815 -0.2886 -0.8317
 8953SOL    HW138078   9.719   2.483   5.676  2.8607  0.0313 -1.7168
 8953SOL    HW238079   9.592   2.536   5.589 -0.2557 -1.1773  1.9766
 8954SOL     OW38080   2.790   9.101   6.327 -0.4506 -0.4358  0.2210
 8954SOL    HW138081   2.861   9.084   6.259 -0.1189 -1.1915  0.7521
 8954SOL    HW238082   2.729   9.174   6.294 -0.6658 -1.2231 -1.1719
 8955SOL     OW38083   1.736   2.366   6.234  0.4036 -0.3636  0.0634
 8955SOL    HW138084   1.794   2.306   6.290  1.4927  0.0305 -0.6231
 8955SOL    HW238085   1.731   2.456   6.278  1.3242 -0.0299 -0.5015
 8956SOL     OW38086   0.743   3.200   3.028 -1.1372  0.4831 -0.1218
 8956SOL    HW138087   0.809   3.131   3.000 -1.3846 -0.2797  1.1580
 8956SOL    HW238088   0.769   3.237   3.117 -2.1252  0.5746  0.1379
 8957SOL     OW38089   6.956   0.891   1.011 -0.1392 -0.0361 -0.7890
 8957SOL    HW138090   7.008   0.893   1.096  1.3448  0.1673 -1.6940
 8957SOL    HW238091   6.980   0.971   0.955  0.6459 -1.3984 -2.4357
 8958SOL     OW38092   4.647   1.318   6.402 -0.3259 -0.6008 -0.2704
 8958SOL    HW138093   4.588   1.335   6.482 -0.3616  0.7171 -0.5534
 8958SOL    HW238094   4.670   1.221   6.397  0.3620 -0.5856  1.8311
 8959SOL     OW38095   7.635   2.842   0.216  0.2843 -0.1526  0.0888
 8959SOL    HW138096   7.686   2.761   0.189  2.8579  1.0782  1.0437
 8959SOL    HW238097   7.650   2.859   0.314 -0.9822  0.9480  0.1051
 8960SOL     OW38098   4.738   5.770   1.296  0.4391 -0.0255  0.2689
 8960SOL    HW138099   4.669   5.749   1.365  1.6933 -1.6195  1.0731
 8960SOL    HW238100   4.704   5.747   1.206 -1.4105  2.5374  0.2695
 8961SOL     OW38101   3.048   1.992   4.110 -0.8114 -0.3767 -0.5338
 8961SOL    HW138102   3.117   2.040   4.056  0.9051 -2.5805 -0.3878
 8961SOL    HW238103   3.086   1.970   4.200 -1.4190 -2.2471 -0.7061
 8962SOL     OW38104   9.892   0.065   3.124  0.3680  0.0253  0.3181
 8962SOL    HW138105   9.894   0.088   3.027  0.6674  0.3170  0.3884
 8962SOL    HW238106   9.985   0.071   3.161  0.3839 -0.8884  0.4379
 8963SOL     OW38107   0.649   3.736   3.546 -0.0616 -0.5044  0.3823
 8963SOL    HW138108   0.576   3.752   3.479  0.8030 -1.0240 -0.6952
 8963SOL    HW238109   0.654   3.815   3.608 -0.1050  0.5176 -0.8827
 8964SOL     OW38110   8.253   5.127   1.446  0.4361  0.1219  1.0939
 8964SOL    HW138111   8.350   5.122   1.468  0.7611 -1.6884 -0.5917
 8964SOL    HW238112   8.231   5.061   1.374 -2.7727 -2.2693  4.0423
 8965SOL     OW38113   9.388   9.508   4.052  0.3294 -0.0998  0.3558
 8965SOL    HW138114   9.397   9.553   3.964  1.4377 -2.4919 -0.7881
 8965SOL    HW238115   9.340   9.568   4.116 -2.0786  0.9815 -2.3860
 8966SOL     OW38116   7.782   2.020   3.550  0.5476 -0.3578 -0.6851
 8966SOL    HW138117   7.778   1.987   3.456  1.5420 -0.6126 -0.6357
 8966SOL    HW238118   7.773   2.120   3.550 -1.8822 -0.5492 -0.8699
 8967SOL     OW38119   5.261   1.231   1.241  0.0549  0.2140  0.1116
 8967SOL    HW138120   5.253   1.132   1.233  3.7089 -0.2111  0.9306
 8967SOL    HW238121   5.235   1.260   1.333  1.0428 -0.2599  0.5473
 8968SOL     OW38122   3.241   4.951   3.057 -0.4370 -0.1979  0.2935
 8968SOL    HW138123   3.302   4.958   2.978 -1.3789  1.1981 -0.3408
 8968SOL    HW238124   3.151   4.987   3.032 -0.8270 -0.0002  1.9293
 8969SOL     OW38125   7.282   4.883   0.896 -0.2164  0.6682  0.2548
 8969SOL    HW138126   7.364   4.897   0.840 -0.8156  1.9510 -0.3171
 8969SOL    HW238127   7.302   4.908   0.991 -0.0507  1.3388  0.0452
 8970SOL     OW38128   8.743   4.807   5.619  0.0134  0.2713 -0.1001
 8970SOL    HW138129   8.698   4.740   5.560 -1.0543  1.0757 -0.2160
 8970SOL    HW238130   8.724   4.899   5.585  1.2629  0.6527  0.1988
 8971SOL     OW38131   1.512   7.009   6.044 -0.1408 -0.2027  0.6612
 8971SOL    HW138132   1.500   7.055   6.132  0.2434 -1.1421  1.2149
 8971SOL    HW238133   1.571   6.929   6.056  0.4702  0.0499 -0.5769
 8972SOL     OW38134   9.838   1.059   4.597  0.3191  0.5264  0.1601
 8972SOL    HW138135   9.824   0.979   4.656  1.8546 -0.7973 -1.1942
 8972SOL    HW238136   9.782   1.049   4.515  2.1420 -0.2743 -1.0249
 8973SOL     OW38137   9.689   4.792   5.800 -0.4739  0.4173  0.0989
 8973SOL    HW138138   9.621   4.846   5.752 -1.9494 -1.6547 -0.1857
 8973SOL    HW238139   9.781   4.826   5.777 -1.3719  3.0974  0.3558
 8974SOL     OW38140   2.534   6.898   5.052 -0.3790 -0.6294 -0.2017
 8974SOL    HW138141   2.566   6.981   5.098 -1.4732  0.4313 -1.3086
 8974SOL    HW238142   2.584   6.887   4.966 -0.1621 -1.1686 -0.0043
 8975SOL     OW38143   9.173   2.223   1.993 -0.2219  0.3271 -0.0229
 8975SOL    HW138144   9.117   2.237   1.911 -1.8261  0.7228  1.1163
 8975SOL    HW238145   9.130   2.268   2.071  2.0869  1.2670  0.7551
 8976SOL     OW38146   2.569   2.352   4.831  0.0653  0.1645  0.2952
 8976SOL    HW138147   2.646   2.411   4.854  1.0357 -0.7804 -0.5263
 8976SOL    HW238148   2.523   2.387   4.749 -0.8655  1.1622  1.2205
 8977SOL     OW38149   1.234   7.062   2.088  0.1698 -0.1103 -0.3330
 8977SOL    HW138150   1.281   7.150   2.091  0.5396 -0.3080 -0.2988
 8977SOL    HW238151   1.285   6.998   2.030 -0.5358 -0.0473 -1.0478
 8978SOL     OW38152   4.547   8.508   0.277 -0.6954  0.8633 -0.3681
 8978SOL    HW138153   4.561   8.439   0.348  0.1051  0.0185 -1.3397
 8978SOL    HW238154   4.453   8.503   0.244 -0.6303  0.2280 -0.4574
 8979SOL     OW38155   4.083   4.377   2.080 -0.3337 -0.0838  0.5610
 8979SOL    HW138156   3.999   4.338   2.114 -0.8009  2.1682  2.0844
 8979SOL    HW238157   4.122   4.439   2.148  1.8223 -0.0336 -0.6580
 8980SOL     OW38158   5.455   0.339   2.548  0.1922 -0.1723 -0.8228
 8980SOL    HW138159   5.442   0.247   2.586  2.1698  0.0181  0.4097
 8980SOL    HW238160   5.549   0.349   2.515  0.6867  2.1028  1.1114
 8981SOL     OW38161   2.919   2.733   1.271 -0.3300 -0.3192  0.4285
 8981SOL    HW138162   2.954   2.820   1.305  1.1720 -1.5168  2.1056
 8981SOL    HW238163   2.952   2.719   1.178  0.3050  0.4435  0.5252
 8982SOL     OW38164   7.904   9.299   2.468  0.2251 -0.3638 -0.4167
 8982SOL    HW138165   7.978   9.281   2.532  0.7085 -0.1784 -0.9224
 8982SOL    HW238166   7.934   9.365   2.399 -0.6716  0.3463 -0.1445
 8983SOL     OW38167   5.996   8.781   1.797  0.3626  0.0473  0.0283
 8983SOL    HW138168   6.041   8.869   1.809  0.9969 -0.0509 -1.5938
 8983SOL    HW238169   6.029   8.717   1.867  0.6345  0.7906  0.5873
 8984SOL     OW38170   1.210   0.351   3.309 -0.0464  0.3908 -0.3829
 8984SOL    HW138171   1.206   0.393   3.400  1.3055  0.1291 -0.1982
 8984SOL    HW238172   1.142   0.395   3.250  0.3129  1.8313  0.2371
 8985SOL     OW38173   9.165   6.718   2.435  0.4979  0.3008 -0.1121
 8985SOL    HW138174   9.126   6.731   2.527 -0.3374 -0.0068 -0.4193
 8985SOL    HW238175   9.106   6.763   2.368  0.4997 -0.4402 -0.6152
 8986SOL     OW38176   7.694   8.130   4.524 -1.1072  0.2991  0.6451
 8986SOL    HW138177   7.622   8.162   4.586 -0.8686  1.4560  0.3316
 8986SOL    HW238178   7.679   8.167   4.432 -0.1805  0.4577  0.5470
 8987SOL     OW38179   2.101   5.550   1.346  0.2694 -0.4048 -0.7718
 8987SOL    HW138180   2.088   5.639   1.303 -0.6935 -0.4496 -0.5985
 8987SOL    HW238181   2.015   5.522   1.390  0.5107 -1.4955 -0.9842
 8988SOL     OW38182   3.782   2.834   2.684 -0.0153 -0.1103  0.4975
 8988SOL    HW138183   3.755   2.924   2.720  0.9896  0.3700  0.0902
 8988SOL    HW238184   3.706   2.794   2.634 -0.9507 -0.1341  1.9127
 8989SOL     OW38185   1.360   3.321   0.051 -0.1014 -0.0718 -0.0515
 8989SOL    HW138186   1.365   3.246  -0.015 -1.2109  1.7491 -2.2987
 8989SOL    HW238187   1.412   3.399   0.017  1.4178  0.0782  2.4636
 8990SOL     OW38188   3.376   8.887   1.107 -0.5734 -0.4988 -0.2841
 8990SOL    HW138189   3.338   8.945   1.035  0.1881 -0.7585 -0.8998
 8990SOL    HW238190   3.432   8.815   1.067 -0.3363 -0.7949  0.5535
 8991SOL     OW38191   0.222   1.031   1.076 -0.1481  0.0966 -0.0154
 8991SOL    HW138192   0.159   1.006   1.002 -0.5427  0.4975  0.1794
 8991SOL    HW238193   0.250   0.948   1.125  0.0820 -0.1670 -0.5856
 8992SOL     OW38194   6.617   1.667   1.115  0.6771  0.0946  0.0986
 8992SOL    HW138195   6.551   1.729   1.073 -0.4102 -0.8619  0.3709
 8992SOL    HW238196   6.604   1.575   1.080  2.6201  0.0937 -0.6799
 8993SOL     OW38197   9.105   2.118   4.715  0.3437 -0.0551 -0.4870
 8993SOL    HW138198   9.162   2.171   4.652  0.5737 -1.1719 -1.2426
 8993SOL    HW238199   9.137   2.023   4.717 -0.4887 -0.3304  0.3207
 8994SOL     OW38200   0.002   8.751   2.966  0.3195 -0.5722  0.0114
 8994SOL    HW138201   0.032   8.671   3.018  0.0224 -1.3122 -0.9519
 8994SOL    HW238202  -0.020   8.825   3.029  1.4827 -0.9370  0.8717
 8995SOL     OW38203   0.652   5.485   2.614  0.7164 -0.3432  0.1487
 8995SOL    HW138204   0.635   5.583   2.605  0.9855 -0.1992  1.1596
 8995SOL    HW238205   0.697   5.451   2.531 -1.6440 -0.1248 -1.2617
 8996SOL     OW38206   4.893   8.989   4.955 -0.0343  0.1578 -0.4470
 8996SOL    HW138207   4.828   9.005   5.029  1.6579  0.7301  0.9418
 8996SOL    HW238208   4.987   9.001   4.989  0.7486  1.0828 -2.8415
 8997SOL     OW38209   9.244   6.824   0.958 -0.0451 -0.1589  0.3550
 8997SOL    HW138210   9.146   6.815   0.975 -0.4596 -0.8659 -2.2090
 8997SOL    HW238211   9.259   6.874   0.873  1.7139 -2.7615 -0.9551
 8998SOL     OW38212   3.758   9.263   1.154 -1.1253 -0.1893 -0.0259
 8998SOL    HW138213   3.704   9.337   1.195 -2.0350  0.3238 -2.0913
 8998SOL    HW238214   3.855   9.282   1.167 -1.3731  0.5339  0.8676
 8999SOL     OW38215   9.397   6.411   3.600  0.6361 -0.1914  0.2184
 8999SOL    HW138216   9.363   6.401   3.507 -0.7450 -0.7612  0.7696
 8999SOL    HW238217   9.369   6.332   3.654 -1.0490  1.4790  1.8646
 9000SOL     OW38218   2.425   6.546   6.719  0.1632  0.2867 -0.2709
 9000SOL    HW138219   2.493   6.478   6.691 -0.2556  0.7402 -2.5193
 9000SOL    HW238220   2.338   6.528   6.671 -1.0196  0.3037  1.8073
 9001SOL     OW38221   5.690   9.144   4.982  0.1607 -0.5652 -0.3354
 9001SOL    HW138222   5.779   9.149   5.028 -0.3985 -0.3779  0.7182
 9001SOL    HW238223   5.683   9.218   4.915  0.7796 -0.5649 -0.4066
 9002SOL     OW38224   0.226   9.790   4.053  0.1036 -0.2324  0.1372
 9002SOL    HW138225   0.317   9.823   4.029  0.1202 -1.0786 -1.0252
 9002SOL    HW238226   0.234   9.699   4.095 -0.1391  0.0584  0.8124
 9003SOL     OW38227   0.826   2.462   5.037 -0.2780  0.0282 -0.6496
 9003SOL    HW138228   0.820   2.561   5.027 -1.0586  0.0895  0.3345
 9003SOL    HW238229   0.909   2.429   4.992 -0.6993  0.9574 -2.1413
 9004SOL     OW38230   2.327   4.468   5.630  0.3851 -0.1133 -0.3054
 9004SOL    HW138231   2.376   4.540   5.680  1.5240 -0.5465 -0.7772
 9004SOL    HW238232   2.229   4.478   5.645  0.3331  3.0784 -2.4105
 9005SOL     OW38233   8.278   3.602   6.520 -0.2005  0.1488  0.2157
 9005SOL    HW138234   8.279   3.575   6.424 -2.8044  2.4488 -0.5221
 9005SOL    HW238235   8.214   3.545   6.571 -0.8279  0.6493  0.0018
 9006SOL     OW38236   8.774   8.522   3.051 -0.6091  0.4359 -0.9252
 9006SOL    HW138237   8.766   8.499   2.954 -1.6550 -0.5278 -0.6219
 9006SOL    HW238238   8.691   8.568   3.081 -1.3030 -1.3902  0.0598
 9007SOL     OW38239   2.454   0.377   5.769  0.1496  0.0999  0.0010
 9007SOL    HW138240   2.484   0.468   5.800  0.4910  0.0998 -0.3425
 9007SOL    HW238241   2.435   0.379   5.671  0.9084 -0.4050 -0.1578
 9008SOL     OW38242   7.954   0.621   3.230 -0.0417  0.6991 -0.0919
 9008SOL    HW138243   7.982   0.624   3.326  0.0777 -1.2953 -0.0472
 9008SOL    HW238244   7.900   0.703   3.208  0.8708  1.7082  1.3633
 9009SOL     OW38245   0.815   9.259   6.018  0.1952 -0.0313 -0.2819
 9009SOL    HW138246   0.866   9.259   5.932 -0.5632 -3.2153 -0.7893
 9009SOL    HW238247   0.721   9.289   6.001  0.1510 -0.2891 -0.4911
 9010SOL     OW38248   8.754   0.236   5.261  0.1010 -0.2514  0.4033
 9010SOL    HW138249   8.812   0.241   5.180  0.5085  0.1812  0.7157
 9010SOL    HW238250   8.692   0.158   5.254  1.4469 -1.3508  0.5411
 9011SOL     OW38251   4.711   1.110   6.688  0.0729 -0.1450 -0.3536
 9011SOL    HW138252   4.785   1.076   6.630 -0.3426 -2.5730  0.4854
 9011SOL    HW238253   4.637   1.043   6.691  0.3860 -0.4347  3.5064
 9012SOL     OW38254   2.022   4.523   3.565 -0.6695 -0.0831  0.2415
 9012SOL    HW138255   2.029   4.456   3.638 -0.2947 -0.3166 -0.0066
 9012SOL    HW238256   1.943   4.583   3.581 -1.4162 -1.0125  0.1000
 9013SOL     OW38257   2.067   7.198   3.200  0.0343 -0.6827  0.1848
 9013SOL    HW138258   2.134   7.202   3.274  2.0110  0.7950 -1.6306
 9013SOL    HW238259   2.027   7.289   3.188 -2.6596 -1.6280  1.5107
 9014SOL     OW38260   9.780   1.241   2.389  0.7094 -0.1620  0.3165
 9014SOL    HW138261   9.787   1.291   2.302  0.7711  1.5829  1.2957
 9014SOL    HW238262   9.838   1.286   2.458 -0.7645 -0.4350  1.7578
 9015SOL     OW38263   9.682   6.537   4.521  0.6105 -0.5802  0.2581
 9015SOL    HW138264   9.723   6.449   4.501  0.5019 -0.6055  0.1471
 9015SOL    HW238265   9.690   6.597   4.441 -1.4375 -1.2881 -0.5052
 9016SOL     OW38266   3.051   6.502   5.656  0.3062 -0.3605 -0.0677
 9016SOL    HW138267   2.989   6.426   5.675  0.0565 -0.2326 -0.3510
 9016SOL    HW238268   3.056   6.562   5.736 -3.5846  2.1486 -1.5536
 9017SOL     OW38269   8.786   2.546   5.120  0.4688 -0.4183 -0.5208
 9017SOL    HW138270   8.701   2.522   5.166  0.3720 -0.9392 -0.9704
 9017SOL    HW238271   8.799   2.646   5.122  0.8299 -0.4844  1.2707
 9018SOL     OW38272   1.164   4.538   1.153  0.0781  0.0427  0.2070
 9018SOL    HW138273   1.251   4.585   1.165  0.1247  0.0812 -0.2587
 9018SOL    HW238274   1.099   4.570   1.222  0.8198 -0.9459  1.3783
 9019SOL     OW38275   3.937   5.450   1.077  0.1760 -0.2519  0.5261
 9019SOL    HW138276   3.964   5.389   1.152  2.7633 -0.5309 -0.5985
 9019SOL    HW238277   3.924   5.543   1.113 -2.0249 -1.0353  1.9093
 9020SOL     OW38278   5.531   0.449   5.697 -0.4234 -0.1237 -0.3312
 9020SOL    HW138279   5.562   0.482   5.785 -1.9299 -0.4330  0.3382
 9020SOL    HW238280   5.444   0.401   5.708 -0.0416 -1.2112 -1.8001
 9021SOL     OW38281   8.922   1.539   4.982  0.2588 -0.1540  0.6260
 9021SOL    HW138282   8.838   1.565   4.934  0.9918  0.8888 -0.1137
 9021SOL    HW238283   8.983   1.618   4.987  1.6709 -1.1932  0.1554
 9022SOL     OW38284   1.525   3.543   0.002 -0.2615  0.2098  0.0419
 9022SOL    HW138285   1.600   3.541   0.068  0.6960 -0.7012 -1.0820
 9022SOL    HW238286   1.561   3.552  -0.090 -1.5125 -0.8178 -0.5588
 9023SOL     OW38287   9.513   4.575   0.189  0.1335  0.0590 -0.0329
 9023SOL    HW138288   9.564   4.661   0.191  0.6172 -0.1622 -1.8545
 9023SOL    HW238289   9.430   4.583   0.246  1.0164  1.1642  1.1087
 9024SOL     OW38290   9.392   3.286   2.319  0.2147  0.0592 -0.9158
 9024SOL    HW138291   9.359   3.237   2.400 -0.4487 -0.2670 -1.3767
 9024SOL    HW238292   9.449   3.224   2.265  0.5425  0.2351 -0.7723
 9025SOL     OW38293   9.566   3.206   3.404  0.0153 -0.6697 -0.2049
 9025SOL    HW138294   9.604   3.219   3.312  0.5428 -2.1474 -0.2194
 9025SOL    HW238295   9.466   3.206   3.400  0.0117  1.4601 -0.4428
 9026SOL     OW38296   1.689   0.502   2.241 -0.8521 -0.0525 -0.4526
 9026SOL    HW138297   1.657   0.539   2.328 -1.5880  1.7390 -1.4655
 9026SOL    HW238298   1.687   0.402   2.244  0.8078 -0.0450  2.1954
 9027SOL     OW38299   3.309   7.391   5.530 -0.4905  0.4487 -0.3895
 9027SOL    HW138300   3.358   7.393   5.444 -1.2038  1.9743 -0.7844
 9027SOL    HW238301   3.359   7.445   5.598 -0.7595  0.6156 -0.3224
 9028SOL     OW38302   9.529   0.261   3.105  0.0646  0.2809  0.1479
 9028SOL    HW138303   9.585   0.199   3.050 -0.6114 -0.1808 -0.0413
 9028SOL    HW238304   9.444   0.214   3.131 -0.2722  0.9912  0.3436
 9029SOL     OW38305   0.968   7.473   1.457  0.1541 -0.3334 -0.0057
 9029SOL    HW138306   1.053   7.502   1.412 -0.6899  0.0044 -1.4219
 9029SOL    HW238307   0.967   7.374   1.465  0.2940 -0.4068 -0.7932
 9030SOL     OW38308   4.007   0.941   5.103 -0.1605  0.5239  0.1106
 9030SOL    HW138309   3.963   1.024   5.070  0.7075  1.7482  1.9421
 9030SOL    HW238310   4.052   0.960   5.191  3.2386 -0.8988 -1.2266
 9031SOL     OW38311   0.979   1.683   3.193  0.3135 -0.2199 -0.1499
 9031SOL    HW138312   1.072   1.708   3.166  0.5395 -0.1384  0.6831
 9031SOL    HW238313   0.935   1.761   3.239 -0.1101 -0.3118 -0.3937
 9032SOL     OW38314   4.770   4.183   4.290 -0.6983  0.4303  0.2634
 9032SOL    HW138315   4.693   4.233   4.250 -2.3537 -1.3706  1.0623
 9032SOL    HW238316   4.735   4.115   4.355  1.5054 -1.0710 -0.0415
 9033SOL     OW38317   4.822   7.366   4.711  0.5034 -0.1687 -0.2383
 9033SOL    HW138318   4.872   7.446   4.681  1.8229 -1.4679 -1.6015
 9033SOL    HW238319   4.771   7.327   4.633 -0.4633 -0.4224  0.5016
 9034SOL     OW38320   3.451   5.992   2.058 -0.2328 -0.1675 -0.1167
 9034SOL    HW138321   3.370   6.026   2.009 -0.7307 -0.4294  0.5143
 9034SOL    HW238322   3.520   5.963   1.992 -0.9479 -0.6356 -0.6670
 9035SOL     OW38323   2.824   8.239   3.651 -0.2390 -0.1039 -0.5259
 9035SOL    HW138324   2.921   8.217   3.642  0.1743  1.4106  0.1443
 9035SOL    HW238325   2.796   8.302   3.579 -0.3404  0.7303  0.2362
 9036SOL     OW38326   8.478   0.348   2.485  0.5010  0.0358 -0.4050
 9036SOL    HW138327   8.547   0.277   2.472  1.3983  0.5494  1.3730
 9036SOL    HW238328   8.468   0.367   2.583  0.6000  2.7093 -0.8743
 9037SOL     OW38329   1.660   2.471   2.697 -0.0489 -0.0221  0.1813
 9037SOL    HW138330   1.651   2.421   2.783 -1.4687 -0.7319 -0.3817
 9037SOL    HW238331   1.649   2.409   2.620 -2.2493  1.2113 -0.5319
 9038SOL     OW38332   8.090   0.895   3.283 -0.4917  0.6574  0.2456
 9038SOL    HW138333   8.141   0.974   3.247  0.2593 -0.2857 -0.7822
 9038SOL    HW238334   8.086   0.823   3.214 -0.9337 -0.3271  1.2793
 9039SOL     OW38335   9.452   7.633   1.657  0.5666 -0.3064 -0.4053
 9039SOL    HW138336   9.404   7.708   1.704 -0.2026 -0.9305 -0.1998
 9039SOL    HW238337   9.414   7.620   1.566 -1.7925 -2.8648  0.8900
 9040SOL     OW38338   4.289   4.389   0.347 -0.4662  0.4208  0.0144
 9040SOL    HW138339   4.276   4.314   0.283 -0.4044 -0.1462  0.6582
 9040SOL    HW238340   4.301   4.475   0.297 -0.8625  0.0508 -0.7135
 9041SOL     OW38341   9.613   3.771   6.569  0.4264  0.0841 -0.1961
 9041SOL    HW138342   9.680   3.812   6.631 -1.1059 -1.4900  2.5852
 9041SOL    HW238343   9.521   3.797   6.597 -0.3175 -1.0319 -1.5562
 9042SOL     OW38344   4.785   9.520   0.749  0.1034 -0.2456 -0.6722
 9042SOL    HW138345   4.879   9.548   0.769  0.5950 -1.8464 -0.6225
 9042SOL    HW238346   4.752   9.569   0.669  0.9212  0.4642 -0.5840
 9043SOL     OW38347   0.027   9.929   1.475 -0.0105 -0.3833 -0.1416
 9043SOL    HW138348  -0.017   9.863   1.414 -0.3053  1.9185 -2.4949
 9043SOL    HW238349  -0.005  10.021   1.454  2.4578  0.8548  1.2244
 9044SOL     OW38350   3.419   7.972   3.703  0.3409 -0.5291  0.0116
 9044SOL    HW138351   3.513   7.951   3.675  1.1441  2.6482  0.0695
 9044SOL    HW238352   3.421   8.041   3.776 -2.0664  0.6562 -0.9795
 9045SOL     OW38353   5.438   8.654   4.072  0.3122 -0.6777 -0.5286
 9045SOL    HW138354   5.350   8.608   4.061  0.7659 -1.3530 -1.4073
 9045SOL    HW238355   5.444   8.730   4.006 -0.8305  1.2981  1.5637
 9046SOL     OW38356   3.572   0.297   6.535 -0.1364 -0.0372 -0.3871
 9046SOL    HW138357   3.625   0.226   6.582  0.1338 -0.2599 -1.0189
 9046SOL    HW238358   3.487   0.257   6.499 -0.5556  0.2326  0.2894
 9047SOL     OW38359   1.185   5.996   4.985  0.3198 -0.2327  0.1137
 9047SOL    HW138360   1.193   6.021   5.081  1.3398  1.1586 -0.3106
 9047SOL    HW238361   1.241   6.058   4.930 -1.5409  0.0702 -1.5254
 9048SOL     OW38362   4.250   0.682   5.518  0.0113  0.6003  0.6833
 9048SOL    HW138363   4.317   0.612   5.546  0.2733  1.2851  1.8308
 9048SOL    HW238364   4.178   0.687   5.587 -0.1593  1.2496  0.4531
 9049SOL     OW38365   6.838   1.498   3.934 -0.2227 -0.4382 -0.5410
 9049SOL    HW138366   6.936   1.480   3.924  0.1037  0.8662  0.1497
 9049SOL    HW238367   6.825   1.574   3.998 -1.6494 -0.0897 -1.2322
 9050SOL     OW38368   2.259   4.300   3.128  0.0090 -0.7859 -0.1394
 9050SOL    HW138369   2.300   4.356   3.056 -1.4501 -1.0499 -1.1944
 9050SOL    HW238370   2.263   4.350   3.215  3.5819 -1.2883  0.0440
 9051SOL     OW38371   0.356   5.772   1.127  0.1933  0.1521  0.2435
 9051SOL    HW138372   0.281   5.790   1.191 -0.4904  2.6604 -1.1813
 9051SOL    HW238373   0.411   5.855   1.117  2.1915 -1.1646 -0.0161
 9052SOL     OW38374   0.471   5.096   3.306  0.0074 -0.5170 -0.8143
 9052SOL    HW138375   0.470   5.177   3.247 -0.6082  0.0022 -0.0966
 9052SOL    HW238376   0.562   5.055   3.303  0.7170  0.9534 -0.1683
 9053SOL     OW38377   6.670   9.615   2.867  0.0586  0.2518  0.1453
 9053SOL    HW138378   6.667   9.624   2.767  2.9228  0.1142 -0.0046
 9053SOL    HW238379   6.671   9.518   2.892 -0.1401  0.2876  0.2938
 9054SOL     OW38380   4.160   3.538   1.026 -0.0660  0.3151  0.2568
 9054SOL    HW138381   4.150   3.547   0.927 -3.6716 -3.8804  0.0586
 9054SOL    HW238382   4.078   3.573   1.071  0.3971 -0.2583  1.5673
 9055SOL     OW38383   7.678   2.021   0.944  0.0424  0.0315  0.0130
 9055SOL    HW138384   7.777   2.023   0.934  0.0576 -1.0623 -0.1671
 9055SOL    HW238385   7.636   2.081   0.875  0.6260  1.5670  0.9800
 9056SOL     OW38386   7.885   4.174   0.580  0.1532  0.1286 -0.1920
 9056SOL    HW138387   7.922   4.267   0.590 -3.1602  1.6229 -1.0989
 9056SOL    HW238388   7.960   4.110   0.567  2.5258  2.6931  0.3197
 9057SOL     OW38389   0.462   5.308   3.115 -0.2043 -0.3005 -0.3083
 9057SOL    HW138390   0.397   5.364   3.166  1.5109  0.8581  0.6608
 9057SOL    HW238391   0.544   5.362   3.096  0.4304 -1.7005 -1.6222
 9058SOL     OW38392   2.282   3.390   0.189 -0.4476  0.2160 -0.2010
 9058SOL    HW138393   2.194   3.342   0.192 -0.9753  1.0989 -1.2427
 9058SOL    HW238394   2.291   3.448   0.270 -0.6545 -0.1830  0.1065
 9059SOL     OW38395   2.677   7.505   6.494 -0.0074  0.5402  0.0602
 9059SOL    HW138396   2.767   7.499   6.451 -0.6981 -1.2233 -1.1679
 9059SOL    HW238397   2.623   7.576   6.448 -0.5252 -0.9145 -1.6386
 9060SOL     OW38398   2.033   3.637   0.448 -0.0495  0.3271  0.2684
 9060SOL    HW138399   2.071   3.724   0.479 -0.4988  0.7471 -0.3608
 9060SOL    HW238400   2.107   3.573   0.428  0.2703  0.3048  1.4515
 9061SOL     OW38401   2.398   3.134   4.619 -0.1193 -0.4154 -0.6673
 9061SOL    HW138402   2.350   3.088   4.544 -0.1470 -0.5822 -0.5480
 9061SOL    HW238403   2.342   3.210   4.652 -1.0055 -1.5404  0.4827
 9062SOL     OW38404   2.385   3.400   1.477 -0.2550  0.2434  0.2793
 9062SOL    HW138405   2.480   3.399   1.447 -0.0761 -1.3836  0.8866
 9062SOL    HW238406   2.338   3.318   1.446 -1.1987  0.5486  0.8522
 9063SOL     OW38407   1.773   5.686   3.759  0.7498 -0.3861  0.3649
 9063SOL    HW138408   1.816   5.676   3.670  1.0236 -0.1156  0.4671
 9063SOL    HW238409   1.677   5.659   3.753  0.7563 -0.3216 -0.0189
 9064SOL     OW38410   1.833   3.959   1.226  0.3321  0.4625 -0.0348
 9064SOL    HW138411   1.734   3.968   1.212  0.1169  0.7007  1.4654
 9064SOL    HW238412   1.862   3.867   1.199 -0.2685  0.4467 -0.6464
 9065SOL     OW38413   8.743   2.966   1.086  0.2444 -0.2399  0.3276
 9065SOL    HW138414   8.690   2.927   1.161  0.5026  0.6619  0.9822
 9065SOL    HW238415   8.805   2.896   1.049  1.5225 -0.1673  2.2369
 9066SOL     OW38416   0.173   9.059   3.950 -0.3609 -0.0381  0.3733
 9066SOL    HW138417   0.100   9.120   3.919  0.5337  1.2215  0.6815
 9066SOL    HW238418   0.184   8.984   3.885 -3.1761 -1.3048  1.2836
 9067SOL     OW38419   0.636   7.262   0.582 -0.1056  0.2408 -0.3917
 9067SOL    HW138420   0.634   7.241   0.485  0.0854 -0.6485 -0.2064
 9067SOL    HW238421   0.643   7.177   0.635 -0.4337  0.7027  0.4038
 9068SOL     OW38422   0.714   7.899   0.736  0.1718 -0.1762 -0.0210
 9068SOL    HW138423   0.658   7.894   0.653  1.5849  2.1040 -1.1851
 9068SOL    HW238424   0.656   7.921   0.814 -1.0696 -1.5433 -0.5422
 9069SOL     OW38425   3.131   1.457   6.067 -0.2927 -0.1109 -0.0480
 9069SOL    HW138426   3.078   1.476   6.149 -1.1737 -0.7191 -0.4768
 9069SOL    HW238427   3.087   1.385   6.014 -0.0647  0.7144 -1.3743
 9070SOL     OW38428   4.173   6.694   3.592 -0.8204 -0.4643  0.3165
 9070SOL    HW138429   4.148   6.609   3.638  2.1640 -1.2411  0.5934
 9070SOL    HW238430   4.154   6.686   3.494  0.4723 -1.8748  0.1659
 9071SOL     OW38431   5.409   7.096   3.172  0.4271 -0.0164 -0.2381
 9071SOL    HW138432   5.355   7.054   3.099  0.8884 -1.0017 -0.0070
 9071SOL    HW238433   5.370   7.186   3.193 -0.1967 -0.0643 -1.1375
 9072SOL     OW38434   1.695   8.993   1.353  0.6215 -0.3216  0.7199
 9072SOL    HW138435   1.713   9.084   1.390  0.5764  0.4179 -1.0143
 9072SOL    HW238436   1.757   8.975   1.277 -0.5971 -0.9941 -0.1307
 9073SOL     OW38437   4.436   4.438   6.120 -0.4170 -0.0538  0.3835
 9073SOL    HW138438   4.374   4.399   6.052 -0.5799  0.1850  0.3914
 9073SOL    HW238439   4.489   4.365   6.163  1.9342  0.0755 -2.1719
 9074SOL     OW38440   0.902   0.206   4.397 -0.4785  0.2143 -0.0853
 9074SOL    HW138441   0.889   0.303   4.377 -0.4003  0.1315 -0.5467
 9074SOL    HW238442   0.952   0.163   4.322 -0.8735 -0.2695 -0.0718
 9075SOL     OW38443   0.427   1.042   2.949 -0.3589  0.6210  0.3654
 9075SOL    HW138444   0.438   0.991   2.864 -0.9620  2.7129 -1.0140
 9075SOL    HW238445   0.404   0.980   3.024  0.0941 -1.2305 -1.0174
 9076SOL     OW38446   7.258   0.704   3.976  0.5945  0.3345  0.2198
 9076SOL    HW138447   7.198   0.739   4.049 -0.0083 -1.3353  0.5423
 9076SOL    HW238448   7.353   0.709   4.007  0.3505 -0.2605  1.0800
 9077SOL     OW38449   9.055   6.564   5.434 -0.4813  0.2436  0.7571
 9077SOL    HW138450   8.988   6.615   5.488 -0.0439  1.6818 -0.0288
 9077SOL    HW238451   9.009   6.487   5.388 -0.8957 -0.8508  2.9368
 9078SOL     OW38452   5.651   4.617   6.463  0.3757  0.4442 -0.1402
 9078SOL    HW138453   5.693   4.689   6.407  1.5783  0.0667  0.2689
 9078SOL    HW238454   5.614   4.657   6.546  3.4035  0.2669  1.3770
 9079SOL     OW38455   1.073   2.683   0.260  0.5355  0.1250  0.2610
 9079SOL    HW138456   1.077   2.635   0.348  0.4061 -0.5892 -0.1176
 9079SOL    HW238457   1.011   2.635   0.199  2.2024 -0.5697 -0.9368
 9080SOL     OW38458   0.147   5.857   4.980  0.4274 -0.1101 -0.1951
 9080SOL    HW138459   0.141   5.758   4.987  2.7447 -0.1904  1.3889
 9080SOL    HW238460   0.224   5.882   4.921  0.7802  0.7308  0.6006
 9081SOL     OW38461   0.110   9.412   0.451  0.2606 -0.0801 -0.2234
 9081SOL    HW138462   0.098   9.322   0.492 -0.7884 -0.2369 -0.8585
 9081SOL    HW238463   0.050   9.421   0.372 -1.6358  2.1186  1.3977
 9082SOL     OW38464   1.416   5.460   4.455 -0.0610 -0.1646  0.1048
 9082SOL    HW138465   1.326   5.416   4.456 -0.8158  1.3054 -2.0284
 9082SOL    HW238466   1.466   5.432   4.374  0.3503  1.1288 -0.0945
 9083SOL     OW38467   5.260   6.894   2.003  0.1667  0.0271 -0.3261
 9083SOL    HW138468   5.308   6.931   2.083  1.9849  0.2160 -1.4811
 9083SOL    HW238469   5.194   6.826   2.034 -0.5346  1.4817  1.4974
 9084SOL     OW38470   2.667   4.934   2.134 -0.4862 -0.0431  0.0317
 9084SOL    HW138471   2.700   4.852   2.181  1.9221  1.3861  0.9110
 9084SOL    HW238472   2.655   4.914   2.037  1.7950 -0.9913 -0.0934
 9085SOL     OW38473   1.243   5.911   0.873 -0.2192  0.1620 -0.1828
 9085SOL    HW138474   1.202   5.927   0.963 -0.3236  1.1764 -0.4075
 9085SOL    HW238475   1.221   5.987   0.812  1.0928  0.2020 -0.6220
 9086SOL     OW38476   1.037   0.271   1.874  0.3110  0.0860  0.1658
 9086SOL    HW138477   1.080   0.190   1.914 -3.0920 -1.0900  1.6673
 9086SOL    HW238478   0.986   0.245   1.792 -0.6949  0.7109  0.5807
 9087SOL     OW38479   1.331   0.199   1.741  0.5780  0.2123 -0.7350
 9087SOL    HW138480   1.320   0.206   1.840  0.2555 -1.2853 -0.6554
 9087SOL    HW238481   1.416   0.245   1.714  0.0351  1.7149  0.0679
 9088SOL     OW38482   6.989   9.518   4.270  0.0814 -0.8318  0.2236
 9088SOL    HW138483   7.012   9.615   4.262  2.0157 -1.3331 -0.5089
 9088SOL    HW238484   7.047   9.465   4.208 -4.1996 -1.9864 -2.9910
 9089SOL     OW38485   2.150   3.281   1.839 -0.3303 -0.1073 -0.3877
 9089SOL    HW138486   2.082   3.312   1.772 -1.4681 -1.3189  0.1952
 9089SOL    HW238487   2.219   3.226   1.793 -0.1460  0.5038 -0.8524
 9090SOL     OW38488   3.877   6.346   3.535  0.3151 -0.4732  0.0499
 9090SOL    HW138489   3.952   6.366   3.597 -0.0123  0.7600  0.0543
 9090SOL    HW238490   3.797   6.401   3.560  0.1096 -0.1204 -1.3145
 9091SOL     OW38491   8.694   4.342   2.081 -0.0986 -0.0497 -0.2812
 9091SOL    HW138492   8.750   4.341   1.998 -0.1943  1.4529 -0.3699
 9091SOL    HW238493   8.617   4.280   2.070 -0.9834  1.2925 -1.9273
 9092SOL     OW38494   3.991   2.667   0.231 -0.2660  0.5867  0.6933
 9092SOL    HW138495   3.907   2.693   0.278  0.3935  0.5395  1.9076
 9092SOL    HW238496   3.968   2.619   0.146 -1.4602  0.0015  1.3369
 9093SOL     OW38497   4.826   9.270   2.257 -0.0323  0.3706 -0.3523
 9093SOL    HW138498   4.814   9.364   2.224 -0.6785  0.3814 -0.0877
 9093SOL    HW238499   4.864   9.214   2.183 -0.2016  0.7096 -0.6991
 9094SOL     OW38500   2.536   0.031   6.585 -0.0471  0.3858 -0.1864
 9094SOL    HW138501   2.456  -0.026   6.599 -0.0148  0.2662 -0.4830
 9094SOL    HW238502   2.566   0.068   6.673  0.3387 -0.5957  0.1058
 9095SOL     OW38503   0.560   8.180   3.406 -0.0037 -0.5176  0.4603
 9095SOL    HW138504   0.564   8.280   3.403  0.3234 -0.5724 -1.1461
 9095SOL    HW238505   0.613   8.148   3.484  0.3192  0.5412  0.6938
 9096SOL     OW38506   2.740   4.081   4.974  0.0810 -0.3903 -0.3119
 9096SOL    HW138507   2.750   4.100   5.072 -1.1744  0.7131 -0.3877
 9096SOL    HW238508   2.654   4.034   4.958  0.9736 -1.9171 -0.7193
 9097SOL     OW38509   0.201   7.795   3.051  0.0957  0.0979  0.2504
 9097SOL    HW138510   0.280   7.736   3.066 -0.0112 -0.8364 -2.5185
 9097SOL    HW238511   0.118   7.738   3.044 -0.4183  0.8332  0.2725
 9098SOL     OW38512   4.082   8.112   6.493 -0.1489 -0.1718 -0.0784
 9098SOL    HW138513   4.088   8.113   6.394  2.0133  0.2579  0.0439
 9098SOL    HW238514   4.128   8.192   6.531 -3.1657  1.0749  1.1994
 9099SOL     OW38515   9.666   7.098   5.079 -0.4350 -0.0743  0.0199
 9099SOL    HW138516   9.649   7.075   4.983  0.5325 -0.0581 -0.1592
 9099SOL    HW238517   9.646   7.195   5.095 -2.0037 -0.4107  0.1774
 9100SOL     OW38518   1.024   3.194   5.062  0.4414 -0.0659 -0.8334
 9100SOL    HW138519   1.111   3.244   5.062  0.0423  0.6452  0.4380
 9100SOL    HW238520   0.958   3.242   5.005  0.7869 -0.4675 -1.5881
 9101SOL     OW38521   9.149   6.826   1.654  0.9114 -0.0202  0.0922
 9101SOL    HW138522   9.232   6.772   1.663  1.4226  1.0615  2.1595
 9101SOL    HW238523   9.085   6.801   1.727 -0.3370 -0.3726 -1.0868
 9102SOL     OW38524   5.225   3.602   0.796 -0.6457  0.1934 -0.7981
 9102SOL    HW138525   5.161   3.656   0.743 -2.4550 -0.0652  1.0670
 9102SOL    HW238526   5.192   3.508   0.804  0.3126 -0.1209 -0.4052
 9103SOL     OW38527   0.170   7.709   3.791  0.2504  0.4858 -0.5874
 9103SOL    HW138528   0.088   7.720   3.733 -1.1337 -1.6806  0.9163
 9103SOL    HW238529   0.143   7.711   3.887  1.7555 -1.7255 -0.0883
 9104SOL     OW38530   6.518   2.446   3.513 -0.2098  0.2935  0.2205
 9104SOL    HW138531   6.509   2.507   3.434  1.0096  0.0067 -0.1510
 9104SOL    HW238532   6.604   2.396   3.507  0.2737  0.8538  2.1526
 9105SOL     OW38533   2.149   4.080   0.664  0.3041  0.4472 -0.3501
 9105SOL    HW138534   2.210   4.040   0.733  0.0365  0.9291  0.1724
 9105SOL    HW238535   2.185   4.169   0.635  0.6298  0.0628 -1.1354
 9106SOL     OW38536   0.446   7.033   1.147  0.2350 -0.0426  0.2342
 9106SOL    HW138537   0.525   6.971   1.149 -0.4612 -0.9620  0.0190
 9106SOL    HW238538   0.370   6.990   1.195  0.6049  1.9092  2.6318
 9107SOL     OW38539   0.272   5.267   5.750  0.2279 -0.0275 -0.1263
 9107SOL    HW138540   0.191   5.264   5.691  0.0320 -1.1876  0.1944
 9107SOL    HW238541   0.248   5.239   5.843  1.0145 -0.5569 -0.0682
 9108SOL     OW38542   3.993   2.428   5.352 -0.6188 -0.8217  0.5771
 9108SOL    HW138543   4.011   2.524   5.330 -1.7007 -0.5654  0.7869
 9108SOL    HW238544   4.073   2.373   5.329 -1.3666 -0.4620 -3.2224
 9109SOL     OW38545   0.231   0.647   4.784  0.1076  0.1889  0.6793
 9109SOL    HW138546   0.280   0.732   4.802 -1.2423  0.8467  1.3043
 9109SOL    HW238547   0.251   0.581   4.856  0.0567  0.4583  0.9401
 9110SOL     OW38548   5.133   7.726   3.837  0.9094 -0.0777 -0.6538
 9110SOL    HW138549   5.163   7.631   3.826  1.4985  0.2445 -1.9001
 9110SOL    HW238550   5.193   7.772   3.903  0.0491 -0.8147  0.6682
 9111SOL     OW38551   9.861   3.503   1.791  0.2299 -0.2086  0.5652
 9111SOL    HW138552   9.817   3.585   1.827 -1.4946 -0.1846 -1.5462
 9111SOL    HW238553   9.793   3.432   1.776  1.3715 -1.2407  0.1938
 9112SOL     OW38554   2.341   1.476   2.819  0.3524  0.2437 -0.0726
 9112SOL    HW138555   2.289   1.544   2.767  1.1740  0.7470 -0.2382
 9112SOL    HW238556   2.405   1.430   2.758  1.8317  1.3367  0.6323
 9113SOL     OW38557   0.637   3.172   4.579 -0.3196  0.3717  0.0004
 9113SOL    HW138558   0.581   3.123   4.645  1.0459  0.3249  1.1517
 9113SOL    HW238559   0.590   3.174   4.490 -1.9503  0.0387  0.8400
 9114SOL     OW38560   5.075   6.720   2.113 -0.4118  0.4715 -0.0241
 9114SOL    HW138561   5.002   6.745   2.050 -0.4141  0.4299 -0.0381
 9114SOL    HW238562   5.037   6.708   2.205 -0.7142 -1.1989 -0.3523
 9115SOL     OW38563   9.107   9.346   0.998 -0.2207  0.5356  0.3701
 9115SOL    HW138564   9.179   9.288   0.959 -0.4935  1.3111 -1.3142
 9115SOL    HW238565   9.018   9.317   0.963 -0.7445 -0.3609  2.3746
 9116SOL     OW38566   6.633   0.800   5.401 -0.1760  0.3641 -0.3624
 9116SOL    HW138567   6.613   0.707   5.431 -0.6719  0.8626  0.8829
 9116SOL    HW238568   6.590   0.866   5.463  0.2865  1.4314 -1.1429
 9117SOL     OW38569   1.077   4.873   1.169 -0.0296  0.0320  0.7522
 9117SOL    HW138570   1.135   4.857   1.089 -1.6712  2.7227 -1.0890
 9117SOL    HW238571   1.011   4.798   1.178 -0.3775  0.1081 -0.9448
 9118SOL     OW38572   4.160   7.711   4.119 -0.0276  0.0705 -0.6645
 9118SOL    HW138573   4.182   7.617   4.090  0.3816  0.3023 -1.1169
 9118SOL    HW238574   4.243   7.767   4.115  0.0161  0.1235  0.9022
 9119SOL     OW38575   0.457   7.704   0.173  0.1681 -0.3153 -0.4968
 9119SOL    HW138576   0.490   7.797   0.157 -1.0964  0.0406 -1.1142
 9119SOL    HW238577   0.427   7.696   0.269 -0.5561  0.1907 -0.6723
 9120SOL     OW38578   3.598   5.355   1.680 -0.1329  0.3337  0.8672
 9120SOL    HW138579   3.648   5.292   1.620  1.8101  0.8124  1.9730
 9120SOL    HW238580   3.519   5.307   1.719  1.5029 -1.5638  1.9749
 9121SOL     OW38581   8.855   6.267   2.316 -0.2527 -0.3921 -0.1535
 9121SOL    HW138582   8.936   6.289   2.370  0.1087 -1.3532 -0.2942
 9121SOL    HW238583   8.775   6.311   2.357  0.2226 -0.0340  0.3994
 9122SOL     OW38584   5.648   4.324   0.800 -0.1715  0.3736  0.3783
 9122SOL    HW138585   5.594   4.241   0.786 -1.1178  0.7601  1.6587
 9122SOL    HW238586   5.590   4.404   0.789  0.1490  0.7945  1.6579
 9123SOL     OW38587   8.637   2.995   0.727  0.0938 -0.0753  0.6084
 9123SOL    HW138588   8.680   2.993   0.817 -1.9253 -0.2921  1.5947
 9123SOL    HW238589   8.617   2.901   0.697 -0.8478  0.0677  0.7531
 9124SOL     OW38590   1.413   5.599   3.899 -0.2211 -0.1969 -0.2202
 9124SOL    HW138591   1.433   5.683   3.849 -1.7077  0.8203  0.8166
 9124SOL    HW238592   1.354   5.540   3.844  0.5930 -0.4388 -0.8371
 9125SOL     OW38593   0.141   1.083   2.820 -0.5667 -0.5155 -0.2889
 9125SOL    HW138594   0.055   1.128   2.796  0.5325  0.2516 -2.8407
 9125SOL    HW238595   0.205   1.149   2.858 -0.8231 -0.9552  0.9435
 9126SOL     OW38596   2.055   2.792   3.282 -0.4414 -0.2323  0.3870
 9126SOL    HW138597   1.957   2.809   3.275 -0.1359  1.4935  0.2485
 9126SOL    HW238598   2.091   2.770   3.191 -0.4814  0.3083  0.2410
 9127SOL     OW38599   9.115   0.007   0.746  0.1709 -0.1326  0.1496
 9127SOL    HW138600   9.063   0.008   0.660  1.0453 -1.0754 -0.3985
 9127SOL    HW238601   9.052   0.000   0.823 -0.6642  1.3190 -0.3773
 9128SOL     OW38602   8.497   6.142   1.602 -0.2024 -0.0865  0.6050
 9128SOL    HW138603   8.528   6.073   1.536  0.7938  1.0701 -0.1415
 9128SOL    HW238604   8.462   6.222   1.554 -0.4519  0.3386  1.4751
 9129SOL     OW38605   7.498   2.323   4.308  0.2054 -0.0517  0.4794
 9129SOL    HW138606   7.487   2.415   4.344  0.0315  0.3416 -0.5616
 9129SOL    HW238607   7.522   2.327   4.211  0.1691 -1.1008  0.4135
 9130SOL     OW38608   2.761   0.170   4.976 -0.5287 -0.4686 -0.3317
 9130SOL    HW138609   2.787   0.258   5.016 -0.5946 -0.8796  0.6257
 9130SOL    HW238610   2.786   0.169   4.879 -0.6724  0.6617 -0.3861
 9131SOL     OW38611   3.224   2.771   0.285  0.0236  0.1324  0.1630
 9131SOL    HW138612   3.266   2.841   0.228  0.6008  0.5970  1.1505
 9131SOL    HW238613   3.152   2.811   0.340  1.6398  0.3635  2.1510
 9132SOL     OW38614   4.181   1.656   3.089  0.0880 -0.0484  0.2114
 9132SOL    HW138615   4.275   1.650   3.054 -0.5598  1.3268 -1.9057
 9132SOL    HW238616   4.153   1.568   3.126  0.8676 -1.6372 -2.7773
 9133SOL     OW38617   1.573   5.107   4.365  0.3325 -0.7298  0.1323
 9133SOL    HW138618   1.637   5.158   4.423 -0.8706 -1.2705  1.9659
 9133SOL    HW238619   1.527   5.037   4.419 -0.6845 -1.3783 -1.5285
 9134SOL     OW38620   9.609   1.599   4.126 -0.3019  0.5364  0.2522
 9134SOL    HW138621   9.605   1.695   4.153 -2.6267  0.5346  0.0177
 9134SOL    HW238622   9.579   1.542   4.202  0.0738  0.0711  0.0506
 9135SOL     OW38623   0.621   9.961   3.711 -0.1099  0.0923  0.0986
 9135SOL    HW138624   0.699  10.020   3.693  0.8079 -0.6922  1.4015
 9135SOL    HW238625   0.537  10.015   3.707  0.3075  0.6144 -2.9999
 9136SOL     OW38626   6.265   0.134   3.414  0.7337  0.1392  0.2427
 9136SOL    HW138627   6.189   0.152   3.352  1.3834 -0.4092 -0.7448
 9136SOL    HW238628   6.331   0.210   3.407  1.5706 -0.6773 -0.9506
 9137SOL     OW38629   1.055   5.118   0.691 -0.0444 -0.5248  0.0313
 9137SOL    HW138630   1.041   5.033   0.642  1.1006  1.0557 -3.1494
 9137SOL    HW238631   1.150   5.147   0.683 -0.5417  1.3568  0.5166
 9138SOL     OW38632   1.813   1.831   0.528 -0.3930  0.1526 -0.3667
 9138SOL    HW138633   1.750   1.816   0.452 -0.8807 -0.0979  0.0857
 9138SOL    HW238634   1.869   1.749   0.542 -1.1890 -0.2610  0.3698
 9139SOL     OW38635   9.252   0.943   3.724 -0.1210  0.0561  0.1721
 9139SOL    HW138636   9.268   0.999   3.642 -0.8626  0.9191  0.6211
 9139SOL    HW238637   9.200   0.995   3.791  1.1847 -0.3580  1.5446
 9140SOL     OW38638   7.848   2.385   1.989  0.0654 -0.3483 -0.0816
 9140SOL    HW138639   7.810   2.408   2.079 -1.6492 -0.6486 -0.7171
 9140SOL    HW238640   7.920   2.450   1.966 -2.0953  2.1044 -0.1461
 9141SOL     OW38641   3.721   6.546   1.739  0.0645  0.3071 -0.6525
 9141SOL    HW138642   3.809   6.514   1.703  0.5510  2.5051 -1.4787
 9141SOL    HW238643   3.691   6.626   1.688 -1.4147  0.8416  1.0076
 9142SOL     OW38644   6.011   4.130   0.549  0.0786 -0.3728 -0.6815
 9142SOL    HW138645   6.079   4.080   0.603 -0.6083  0.1565  0.7260
 9142SOL    HW238646   5.924   4.079   0.550 -0.7631  1.0226  1.1607
 9143SOL     OW38647   7.148   2.207   5.215 -0.2424  0.4698 -0.4496
 9143SOL    HW138648   7.057   2.247   5.206 -1.3796 -1.6628  1.2665
 9143SOL    HW238649   7.150   2.117   5.173 -0.3385 -1.5441  3.6104
 9144SOL     OW38650   7.879   3.133   1.296 -0.1584 -0.1758  0.5108
 9144SOL    HW138651   7.786   3.101   1.312 -0.4805  1.5958  2.3537
 9144SOL    HW238652   7.930   3.132   1.382  0.3902  2.3792  0.2491
 9145SOL     OW38653   1.716   1.804   6.242  0.1258  0.2525  0.0163
 9145SOL    HW138654   1.803   1.843   6.212  0.5400 -2.1263 -2.0091
 9145SOL    HW238655   1.644   1.832   6.180  0.1879 -1.0164 -0.6542
 9146SOL     OW38656   0.579   4.231   1.359 -0.3647 -0.8978  0.2879
 9146SOL    HW138657   0.625   4.180   1.431 -0.1588  0.1908  0.9390
 9146SOL    HW238658   0.544   4.317   1.396  0.5365  0.1025 -1.0982
 9147SOL     OW38659   5.000   4.952   6.265  0.9872  0.0086  0.1421
 9147SOL    HW138660   4.912   4.959   6.217  1.6400 -2.6341 -1.5631
 9147SOL    HW238661   5.053   5.035   6.251 -1.1223  1.5473  1.0156
 9148SOL     OW38662   4.958   1.779   0.806  0.4645 -0.1400 -0.2056
 9148SOL    HW138663   4.955   1.879   0.807 -0.7375 -0.1649  0.6344
 9148SOL    HW238664   4.869   1.743   0.836  0.8433 -1.4611 -0.6239
 9149SOL     OW38665   0.145   4.204   4.404  0.7056  0.5156  0.5151
 9149SOL    HW138666   0.242   4.189   4.425  0.7133 -0.2128 -0.0170
 9149SOL    HW238667   0.134   4.215   4.305 -0.1175 -2.4112  0.2324
 9150SOL     OW38668   1.149   8.842   6.403 -0.1575  0.0446  0.1306
 9150SOL    HW138669   1.166   8.911   6.473  0.0430 -0.5598  0.6873
 9150SOL    HW238670   1.229   8.833   6.344  0.4486 -0.8654  1.0696
 9151SOL     OW38671   7.223   4.665   1.131 -0.2634 -0.1188  0.0197
 9151SOL    HW138672   7.220   4.679   1.032  2.3580  0.6374 -0.0033
 9151SOL    HW238673   7.264   4.746   1.175 -0.4499 -0.8639  1.6063
 9152SOL     OW38674   1.863   6.907   4.909 -0.0368 -0.6977  0.0642
 9152SOL    HW138675   1.935   6.908   4.840  1.2004 -0.9063  1.3199
 9152SOL    HW238676   1.870   6.989   4.966  1.0119 -2.0878  1.9925
 9153SOL     OW38677   7.367   0.667   2.004 -0.1030  0.3026  0.4020
 9153SOL    HW138678   7.274   0.686   1.972 -0.3897  1.0907  1.6483
 9153SOL    HW238679   7.366   0.589   2.067  0.3036 -0.5985 -0.6966
 9154SOL     OW38680   9.671   0.558   0.791 -0.8092 -0.6213 -0.5739
 9154SOL    HW138681   9.597   0.503   0.829  0.6112 -1.7487  0.5909
 9154SOL    HW238682   9.702   0.516   0.705 -0.0268 -1.4140  0.0856
 9155SOL     OW38683   9.240   9.590   0.385 -0.1229 -0.2038 -0.0567
 9155SOL    HW138684   9.171   9.558   0.320  1.1978 -0.3680 -1.3918
 9155SOL    HW238685   9.282   9.512   0.430  1.6697 -0.2909 -1.8336
 9156SOL     OW38686   8.835   8.353   5.839  0.3396  0.1129  0.1833
 9156SOL    HW138687   8.802   8.325   5.749  0.6220 -1.0906  0.4502
 9156SOL    HW238688   8.789   8.300   5.910  0.9662  0.2402  0.6917
 9157SOL     OW38689   2.724   0.291   2.120 -0.5459 -0.0267 -0.1858
 9157SOL    HW138690   2.691   0.199   2.137 -0.4137 -0.1790 -0.7262
 9157SOL    HW238691   2.648   0.355   2.124 -0.6533 -0.1732  0.0945
 9158SOL     OW38692   7.477   2.987   4.769  0.4821  0.4308  0.0161
 9158SOL    HW138693   7.487   2.939   4.683 -1.9949  0.3944 -0.2830
 9158SOL    HW238694   7.562   3.037   4.789  2.4292 -2.5266 -0.5424
 9159SOL     OW38695   0.597   9.520   3.908 -0.0040 -0.1800  0.3140
 9159SOL    HW138696   0.590   9.505   4.007  0.0389  0.4227  0.4083
 9159SOL    HW238697   0.560   9.441   3.860 -1.4997  0.1979  0.8157
 9160SOL     OW38698   2.415   2.262   5.061 -0.4365  0.1365  0.1072
 9160SOL    HW138699   2.472   2.213   5.127  0.4663  0.2851 -0.5524
 9160SOL    HW238700   2.474   2.311   4.996 -1.2865 -1.1082 -1.6467
 9161SOL     OW38701   2.329   2.978   4.116 -0.0720  0.9388 -0.3676
 9161SOL    HW138702   2.401   2.910   4.101 -0.0473  1.1670 -1.2916
 9161SOL    HW238703   2.241   2.941   4.089  0.2002  1.9309 -2.6712
 9162SOL     OW38704   3.130   7.952   3.744 -0.3406  0.2554  0.4513
 9162SOL    HW138705   3.230   7.945   3.748 -0.4045  0.3805  2.7847
 9162SOL    HW238706   3.104   8.014   3.670  1.3821  1.8077  1.1157
 9163SOL     OW38707   2.468   0.385   5.480  0.1235  0.0038 -0.4686
 9163SOL    HW138708   2.556   0.413   5.442  0.3687 -1.1600 -0.7819
 9163SOL    HW238709   2.449   0.291   5.453 -1.6981  0.5762 -1.2547
 9164SOL     OW38710   1.585   5.358   3.980  0.3914 -0.8045 -0.5271
 9164SOL    HW138711   1.656   5.326   3.918  0.2075  0.0072 -1.1675
 9164SOL    HW238712   1.508   5.393   3.927  0.2140 -0.1359  0.1574
 9165SOL     OW38713   4.622   3.505   3.603 -0.2060  0.3937  0.7603
 9165SOL    HW138714   4.604   3.578   3.536 -0.1420  0.1183  0.4393
 9165SOL    HW238715   4.541   3.446   3.610  0.9378 -1.5575 -1.5800
 9166SOL     OW38716   3.419   0.610   1.996  0.0307  0.6551 -0.8073
 9166SOL    HW138717   3.346   0.541   1.995  0.9429 -0.3780  1.2585
 9166SOL    HW238718   3.400   0.676   2.069  1.6997 -0.2270  0.4387
 9167SOL     OW38719   0.856   0.058   4.609  0.0647  0.0030  0.1358
 9167SOL    HW138720   0.865   0.100   4.519  0.3688 -0.8959 -0.2503
 9167SOL    HW238721   0.843   0.130   4.677  1.9266  0.8449 -0.3445
 9168SOL     OW38722   2.758   8.618   5.662  0.1493 -0.1603 -0.5333
 9168SOL    HW138723   2.787   8.611   5.757 -0.7936 -0.7033 -0.2748
 9168SOL    HW238724   2.799   8.545   5.608  1.7308  0.9251 -0.8241
 9169SOL     OW38725   3.250   8.793   6.145 -0.1977  0.0280 -0.4896
 9169SOL    HW138726   3.274   8.725   6.215 -0.9032  1.0762  0.8040
 9169SOL    HW238727   3.202   8.747   6.070 -0.9395 -0.8819  0.5077
 9170SOL     OW38728   0.657   8.765   2.671  0.6758 -0.2449  0.2264
 9170SOL    HW138729   0.565   8.781   2.635  0.5753 -0.6984  0.2764
 9170SOL    HW238730   0.702   8.852   2.689 -0.1175 -0.0216  1.1351
 9171SOL     OW38731   1.418   0.815   2.102  0.6418 -0.3278  0.3140
 9171SOL    HW138732   1.397   0.850   2.011 -1.1918  1.3923  1.3392
 9171SOL    HW238733   1.448   0.890   2.161  0.3839 -1.1545  1.5240
 9172SOL     OW38734   9.147   8.000   4.747 -0.0172 -0.1581  0.3944
 9172SOL    HW138735   9.106   8.088   4.770  1.0437  0.8941 -1.5291
 9172SOL    HW238736   9.240   8.015   4.712  1.0185 -2.2463  2.1450
 9173SOL     OW38737   8.332   7.792   5.863 -0.6720 -0.5345 -0.2655
 9173SOL    HW138738   8.419   7.837   5.846 -1.6307  0.7236 -2.0085
 9173SOL    HW238739   8.268   7.813   5.789 -3.3817  0.9108  2.3488
 9174SOL     OW38740   8.093   3.043   6.223  0.0697 -0.2977 -0.4298
 9174SOL    HW138741   8.008   2.991   6.228 -0.9102  1.3459  0.2900
 9174SOL    HW238742   8.090   3.103   6.143  1.5869 -1.9435 -1.7996
 9175SOL     OW38743   0.121   7.930   3.995  0.4285  0.0875 -0.3208
 9175SOL    HW138744   0.198   7.932   3.933  1.2666  0.5839  0.7129
 9175SOL    HW238745   0.044   7.980   3.955  1.1879  1.0054 -0.6511
 9176SOL     OW38746   8.307   0.980   3.820  0.0522  0.0623 -0.1590
 9176SOL    HW138747   8.315   1.080   3.825 -0.9052  0.1245  0.1916
 9176SOL    HW238748   8.300   0.951   3.725  1.0888  0.2675 -0.3019
 9177SOL     OW38749   2.084   3.552   2.717  0.1337 -0.0209  0.3640
 9177SOL    HW138750   2.034   3.469   2.693 -0.2632 -0.2256  1.8602
 9177SOL    HW238751   2.022   3.630   2.714  0.5167  0.2498 -1.0831
 9178SOL     OW38752   2.205   5.918   0.055  0.0513  0.2185  0.3684
 9178SOL    HW138753   2.163   6.009   0.052  0.9911  0.6820  1.1013
 9178SOL    HW238754   2.280   5.914  -0.010 -0.5739 -0.3330 -0.3202
 9179SOL     OW38755   2.581   6.784   0.890 -0.4354 -1.2758  0.1658
 9179SOL    HW138756   2.681   6.788   0.881 -0.7231 -0.4659 -3.3798
 9179SOL    HW238757   2.545   6.711   0.832 -2.2854  1.8723 -2.8184
 9180SOL     OW38758   0.896   2.285   1.570 -0.1933 -0.0524  0.3536
 9180SOL    HW138759   0.803   2.317   1.552  0.1302  0.6251 -0.1487
 9180SOL    HW238760   0.903   2.254   1.664 -0.9417 -0.1504  0.3806
 9181SOL     OW38761   7.297   3.608   0.406 -0.0355 -0.2617 -0.3081
 9181SOL    HW138762   7.317   3.672   0.332  1.6711 -0.2349  0.1474
 9181SOL    HW238763   7.234   3.537   0.374 -1.1719  1.0905 -1.0914
 9182SOL     OW38764   4.115   1.453   2.045 -0.1336  0.4665 -0.1155
 9182SOL    HW138765   4.152   1.490   2.131 -0.9208 -0.5341  0.6607
 9182SOL    HW238766   4.179   1.472   1.971  0.7404  0.9945  0.7573
 9183SOL     OW38767   0.316   3.453   3.538  0.0979 -0.0500 -0.0111
 9183SOL    HW138768   0.253   3.522   3.574 -1.0898 -1.6102  0.9618
 9183SOL    HW238769   0.295   3.436   3.442 -1.7389 -1.3661  0.5969
 9184SOL     OW38770   3.378   7.212   3.448 -0.8130 -0.0815 -0.4361
 9184SOL    HW138771   3.364   7.266   3.531 -2.8023 -0.7661 -0.3046
 9184SOL    HW238772   3.432   7.265   3.383 -0.2067  0.9057  0.8359
 9185SOL     OW38773   9.113   7.107   5.719  0.0341  0.7672  0.2549
 9185SOL    HW138774   9.165   7.092   5.803  0.6989  0.5967 -0.1783
 9185SOL    HW238775   9.097   7.204   5.706 -0.7503  0.7376  0.9825
 9186SOL     OW38776   0.761   8.626   5.275 -0.6627 -0.1493  0.8017
 9186SOL    HW138777   0.839   8.624   5.337  0.2950  0.5776 -0.3410
 9186SOL    HW238778   0.676   8.624   5.327  0.1255  0.2986  2.1214
 9187SOL     OW38779   0.464   1.495   2.773  0.2843 -0.4696 -0.2707
 9187SOL    HW138780   0.455   1.554   2.693  0.0069  1.7355  1.3327
 9187SOL    HW238781   0.524   1.540   2.841 -0.6210 -1.6316  1.3216
 9188SOL     OW38782   0.875   6.637   6.227 -0.0863  0.5667  0.0125
 9188SOL    HW138783   0.938   6.714   6.213  1.9377 -0.9323  0.6101
 9188SOL    HW238784   0.782   6.672   6.240  0.5662  2.8177 -1.1563
 9189SOL     OW38785   7.656   2.760   1.168  0.0243  0.3192  0.3097
 9189SOL    HW138786   7.711   2.695   1.220 -0.7486 -0.8449 -0.2949
 9189SOL    HW238787   7.600   2.710   1.101 -1.1139  1.5441  0.3243
 9190SOL     OW38788   0.675   0.058   2.384  0.4147  0.1215 -0.3167
 9190SOL    HW138789   0.689   0.157   2.391  0.6647  0.1393 -1.0061
 9190SOL    HW238790   0.602   0.039   2.319 -1.7433 -0.0448  2.0980
 9191SOL     OW38791   1.240   3.291   6.004  0.2264  0.0416 -0.3191
 9191SOL    HW138792   1.166   3.264   6.066  1.4984  0.2048  1.2762
 9191SOL    HW238793   1.325   3.300   6.055  1.5162 -0.8389 -2.2860
 9192SOL     OW38794   9.825   1.783   5.383 -0.5188  0.4281  0.4080
 9192SOL    HW138795   9.887   1.710   5.411  0.5790  1.4616  0.7389
 9192SOL    HW238796   9.774   1.816   5.463 -0.1738  0.7879  0.4849
 9193SOL     OW38797   7.175   1.438   0.731  0.5780  0.8232  0.4879
 9193SOL    HW138798   7.149   1.535   0.726  2.2774  1.3286  1.3472
 9193SOL    HW238799   7.259   1.428   0.782 -1.0835 -1.4355  2.9095
 9194SOL     OW38800   1.792   2.842   0.384  0.0239  0.1586 -0.4965
 9194SOL    HW138801   1.787   2.873   0.479 -2.6930 -1.8875  0.1083
 9194SOL    HW238802   1.836   2.911   0.328 -0.0206  2.2128  1.9261
 9195SOL     OW38803   5.851   7.420   5.803 -0.0702  0.4875  0.2744
 9195SOL    HW138804   5.834   7.322   5.809 -0.2228  0.5039  0.1131
 9195SOL    HW238805   5.948   7.436   5.787  0.0611  0.3862  0.9646
 9196SOL     OW38806   2.702   8.300   5.594  0.4638 -0.4212 -0.1041
 9196SOL    HW138807   2.794   8.330   5.567  0.6526 -0.5196  0.4295
 9196SOL    HW238808   2.640   8.379   5.593  0.3966 -0.4873 -1.1480
 9197SOL     OW38809   9.210   7.219   3.688  0.6434 -0.7241 -0.7375
 9197SOL    HW138810   9.187   7.208   3.591  1.2629 -2.3920 -0.7096
 9197SOL    HW238811   9.173   7.142   3.740 -2.3677  1.6797  0.8741
 9198SOL     OW38812   0.651   6.563   1.002  0.2868 -0.2457  0.1333
 9198SOL    HW138813   0.561   6.602   1.020 -0.2309 -1.3678 -0.0381
 9198SOL    HW238814   0.686   6.598   0.915 -0.6514 -1.0092 -0.5557
 9199SOL     OW38815   4.920   8.280   4.422  0.0305 -0.5032  0.1837
 9199SOL    HW138816   4.843   8.336   4.392  0.0809 -0.1155  0.7589
 9199SOL    HW238817   4.889   8.187   4.440 -0.2326 -0.4366  0.0706
 9200SOL     OW38818   5.129   1.006   0.260 -0.2886 -0.5337  0.5086
 9200SOL    HW138819   5.121   1.084   0.323  1.1899 -0.7816  1.0248
 9200SOL    HW238820   5.142   0.922   0.313 -1.2530 -1.0503 -0.0665
 9201SOL     OW38821   7.140   9.773   2.031  0.5224  0.1673  0.2330
 9201SOL    HW138822   7.191   9.709   2.088  0.2025 -0.7469 -0.4984
 9201SOL    HW238823   7.201   9.846   2.001  0.4871  1.1313  2.4386
 9202SOL     OW38824   0.990   3.314   1.675 -0.0651 -0.4056  0.5330
 9202SOL    HW138825   0.974   3.301   1.577  0.9682  1.1310  0.1475
 9202SOL    HW238826   1.039   3.235   1.712  1.4814 -0.0348 -0.6693
 9203SOL     OW38827   0.079   0.885   4.391 -0.0802 -0.2112  0.2607
 9203SOL    HW138828   0.160   0.882   4.332 -0.5692 -0.0302 -0.4249
 9203SOL    HW238829   0.033   0.796   4.389 -0.5181  0.0200 -0.2341
 9204SOL     OW38830   1.163   0.236   4.506 -0.4924 -0.5784 -0.8685
 9204SOL    HW138831   1.199   0.174   4.437  0.4641 -0.4571 -0.4832
 9204SOL    HW238832   1.070   0.209   4.530 -0.1357 -1.7789 -0.8176
 9205SOL     OW38833   1.276   2.504   4.955  0.3353  0.5533 -0.2494
 9205SOL    HW138834   1.263   2.545   5.046  1.4876 -0.6585  0.4745
 9205SOL    HW238835   1.207   2.434   4.940  0.6414  0.1966  0.0148
 9206SOL     OW38836   9.267   3.369   3.447 -0.4234  0.5393  0.6703
 9206SOL    HW138837   9.341   3.415   3.496  0.9283 -0.8396 -0.0372
 9206SOL    HW238838   9.258   3.408   3.355 -1.6629  1.7969  1.3079
 9207SOL     OW38839   2.113   0.760   5.515  0.3528 -0.2710 -0.2848
 9207SOL    HW138840   2.171   0.781   5.436 -0.9376 -0.6604 -1.3688
 9207SOL    HW238841   2.068   0.672   5.501 -0.0977 -0.2113  0.7572
 9208SOL     OW38842   3.509   6.125   1.014 -0.0008 -0.1113  0.1831
 9208SOL    HW138843   3.505   6.027   0.993 -1.9508  0.1552 -0.8085
 9208SOL    HW238844   3.432   6.149   1.074 -0.3479  1.0639 -0.7221
 9209SOL     OW38845   0.448   7.369   3.734 -0.0626 -0.2577  0.2234
 9209SOL    HW138846   0.366   7.312   3.733 -0.9165  0.9319  0.8424
 9209SOL    HW238847   0.478   7.386   3.641 -1.8095  1.0996 -0.1105
 9210SOL     OW38848   3.188   0.639   6.335  0.1701  0.3880  0.3658
 9210SOL    HW138849   3.268   0.693   6.360 -0.0619  0.9311 -0.0601
 9210SOL    HW238850   3.117   0.699   6.299 -0.0004 -0.2234 -0.3348
 9211SOL     OW38851   3.177   8.243   6.056 -0.2416  0.6202  0.0236
 9211SOL    HW138852   3.107   8.220   6.124 -0.4137  0.5239 -0.1854
 9211SOL    HW238853   3.132   8.271   5.971 -0.0257  0.7033 -0.0628
 9212SOL     OW38854   2.376   4.475   0.925  0.8437  0.1671  0.3085
 9212SOL    HW138855   2.368   4.555   0.983  1.6839  0.0463  0.6011
 9212SOL    HW238856   2.459   4.423   0.950  0.3925 -0.7054  0.0295
 9213SOL     OW38857   8.765   2.991   0.327 -0.4428 -0.4667 -0.1502
 9213SOL    HW138858   8.729   3.057   0.261 -1.2132  1.4677  2.1259
 9213SOL    HW238859   8.811   3.039   0.401  0.3619 -2.5914  0.7794
 9214SOL     OW38860   1.364   6.040   4.312 -0.2294  0.4208  0.2549
 9214SOL    HW138861   1.422   5.977   4.261 -0.1826  0.5533  0.1478
 9214SOL    HW238862   1.317   5.989   4.385  0.1224  0.3393  0.4292
 9215SOL     OW38863   1.128   2.978   5.661  0.3829 -0.0828 -0.1899
 9215SOL    HW138864   1.169   3.062   5.697  2.6256 -1.4768  0.6250
 9215SOL    HW238865   1.191   2.902   5.676 -1.0257 -1.6670 -2.1820
 9216SOL     OW38866   4.203   9.900   5.083  0.2674 -0.9055  0.4743
 9216SOL    HW138867   4.192   9.817   5.138 -2.1843  1.3532  3.5528
 9216SOL    HW238868   4.232   9.975   5.142  3.4926  0.3126 -2.4354
 9217SOL     OW38869   5.278   8.260   5.294 -0.2004  0.3052 -0.0264
 9217SOL    HW138870   5.180   8.268   5.279  0.0069 -0.9156 -2.2723
 9217SOL    HW238871   5.325   8.250   5.206  1.8073 -0.3521  1.0754
 9218SOL     OW38872   5.911   7.883   4.918 -0.3907  0.3763 -0.1254
 9218SOL    HW138873   5.914   7.983   4.926  0.6153  0.3234  0.3303
 9218SOL    HW238874   5.846   7.846   4.984  0.7648  0.6061  1.1785
 9219SOL     OW38875   0.712   0.905   2.761 -0.1601  0.3205  0.3757
 9219SOL    HW138876   0.718   0.873   2.666  0.5933  0.0744  0.4959
 9219SOL    HW238877   0.665   0.993   2.764  1.0283  1.0136 -0.3996
 9220SOL     OW38878   3.982   5.569   5.238  0.1465  0.4311  0.2531
 9220SOL    HW138879   4.061   5.519   5.275 -0.5772 -0.3455  0.7689
 9220SOL    HW238880   3.960   5.534   5.147  2.1943  2.6327 -1.1481
 9221SOL     OW38881   0.134   8.691   1.328  0.8878  0.1207 -0.5025
 9221SOL    HW138882   0.074   8.717   1.403 -1.5163 -0.6304 -2.0842
 9221SOL    HW238883   0.185   8.609   1.354  0.0349 -0.1732  0.3065
 9222SOL     OW38884   5.137   1.591   0.253 -0.0236 -0.5168  0.0168
 9222SOL    HW138885   5.135   1.524   0.179 -0.8191 -0.5782  0.0929
 9222SOL    HW238886   5.221   1.579   0.306  1.3422  0.5929 -1.8387
 9223SOL     OW38887   6.674   7.840   2.501  0.2176 -0.1814 -0.3406
 9223SOL    HW138888   6.705   7.874   2.590 -0.4242  1.0731 -0.5808
 9223SOL    HW238889   6.708   7.747   2.487  1.2945  0.0421  0.7065
 9224SOL     OW38890   7.021   2.033   1.067 -0.1648 -0.3495  0.4152
 9224SOL    HW138891   7.007   2.054   1.163  3.1127  1.0773  0.6571
 9224SOL    HW238892   7.111   1.991   1.055 -0.7713 -1.0587 -1.9504
 9225SOL     OW38893   4.915   9.716   3.338  1.0100 -0.3395 -0.1929
 9225SOL    HW138894   4.907   9.643   3.406  0.7551 -1.2732 -1.2121
 9225SOL    HW238895   4.991   9.696   3.276  1.5465  0.7484  0.1036
 9226SOL     OW38896   5.895   1.172   2.550 -0.0705  0.1498  0.1994
 9226SOL    HW138897   5.862   1.083   2.518  0.5718  0.0275 -0.1194
 9226SOL    HW238898   5.919   1.166   2.647 -0.3302  0.0656  0.2611
 9227SOL     OW38899   3.982   4.225   5.515 -0.0734 -0.4539 -0.4735
 9227SOL    HW138900   3.973   4.126   5.516  0.1477 -0.4787 -0.6957
 9227SOL    HW238901   3.927   4.265   5.588  1.3132 -0.8667  0.8176
 9228SOL     OW38902   4.323   0.235   0.272 -0.4667 -0.3757  0.6786
 9228SOL    HW138903   4.293   0.311   0.329  0.0929  0.8189 -0.6026
 9228SOL    HW238904   4.309   0.258   0.176 -2.3422 -2.7482  0.3233
 9229SOL     OW38905   0.968   4.408   0.304 -0.0982  0.0030  0.3309
 9229SOL    HW138906   0.899   4.462   0.256 -0.1028 -0.3449 -0.0511
 9229SOL    HW238907   0.944   4.401   0.401  0.4578  1.6100  0.6006
 9230SOL     OW38908   0.698   1.147   4.995  0.1654 -0.0296 -0.0809
 9230SOL    HW138909   0.645   1.205   4.933  2.7240  0.8773 -1.4946
 9230SOL    HW238910   0.744   1.075   4.942  2.7275  1.0168  0.6353
 9231SOL     OW38911   0.005   6.587   6.206  0.4188  0.5158  0.1454
 9231SOL    HW138912  -0.050   6.671   6.202 -0.6072 -0.1643 -0.1755
 9231SOL    HW238913  -0.014   6.540   6.292  0.3170  0.1399 -0.0864
 9232SOL     OW38914   0.531   1.457   3.683 -0.0907  0.3463  0.3146
 9232SOL    HW138915   0.501   1.447   3.778 -1.4643 -2.1042 -0.3250
 9232SOL    HW238916   0.618   1.409   3.670 -0.5603 -0.4453  0.0505
 9233SOL     OW38917   2.299   3.021   5.644 -0.0223 -0.3237 -0.2912
 9233SOL    HW138918   2.267   2.927   5.637 -0.3294 -0.2667  0.2836
 9233SOL    HW238919   2.384   3.024   5.697 -2.0915  0.1271  3.1709
 9234SOL     OW38920   1.881   5.419   6.151  0.0139 -0.2914 -0.1345
 9234SOL    HW138921   1.872   5.324   6.179 -0.5289 -0.5376 -1.1417
 9234SOL    HW238922   1.977   5.438   6.128 -0.2070 -1.1440 -1.8519
 9235SOL     OW38923   2.760   8.015   3.369 -0.3262  0.2076  0.0281
 9235SOL    HW138924   2.673   8.060   3.391  0.2085  0.6942  1.1684
 9235SOL    HW238925   2.742   7.930   3.318 -1.5558 -0.5092  1.6104
 9236SOL     OW38926   1.570   2.105   1.955  0.2556  0.2670  0.3953
 9236SOL    HW138927   1.517   2.190   1.950  1.0052  0.7573  0.6435
 9236SOL    HW238928   1.579   2.066   1.864  0.9615  1.1248  0.0851
 9237SOL     OW38929   4.119   5.587   3.345 -0.2078 -0.5497 -0.1354
 9237SOL    HW138930   4.069   5.646   3.282  0.9352  1.5678  0.8991
 9237SOL    HW238931   4.213   5.618   3.353  0.1140 -1.8167  1.3253
 9238SOL     OW38932   4.264   0.443   0.465  0.3864  0.1781  0.4931
 9238SOL    HW138933   4.185   0.477   0.516  1.5817 -0.2483  2.7033
 9238SOL    HW238934   4.330   0.517   0.453 -0.5198  0.6495 -1.7451
 9239SOL     OW38935   3.505   2.865   6.286 -0.2054  0.8108  0.1857
 9239SOL    HW138936   3.581   2.930   6.299  1.0509 -0.5286 -0.3313
 9239SOL    HW238937   3.531   2.798   6.216 -2.8287  1.8003 -1.8412
 9240SOL     OW38938   2.286   6.301   0.194  0.3706 -0.1853  0.4629
 9240SOL    HW138939   2.274   6.397   0.221 -3.0674 -0.4822  0.1951
 9240SOL    HW238940   2.314   6.247   0.273 -1.0137  0.4849  1.4363
 9241SOL     OW38941   0.864   9.488   0.300 -0.8213  0.0991 -0.0329
 9241SOL    HW138942   0.819   9.447   0.380  0.1258 -0.8137  0.0384
 9241SOL    HW238943   0.894   9.416   0.237  0.1913  0.7069 -0.2643
 9242SOL     OW38944   3.565   7.672   0.469  0.1348  0.3935 -0.0872
 9242SOL    HW138945   3.629   7.669   0.393  0.1309 -2.3642 -0.0292
 9242SOL    HW238946   3.476   7.638   0.439 -0.7244  2.1258  0.3978
 9243SOL     OW38947   6.982   2.844   3.031 -0.3950 -0.3128 -0.1292
 9243SOL    HW138948   7.055   2.788   2.995 -0.0152  0.1657 -0.1123
 9243SOL    HW238949   6.897   2.792   3.033 -0.2709 -0.5542 -1.0671
 9244SOL     OW38950   3.004   9.350   6.084 -0.0287 -0.1115  0.1304
 9244SOL    HW138951   2.999   9.400   6.171 -0.4532  0.0892 -0.0078
 9244SOL    HW238952   3.100   9.344   6.055  0.1732 -0.6750  0.8977
 9245SOL     OW38953   3.419   4.155   3.007 -0.1673  0.1581  0.2640
 9245SOL    HW138954   3.417   4.065   3.050 -0.4927  0.7016  1.4398
 9245SOL    HW238955   3.337   4.206   3.034  0.3498  1.0493  0.1852
 9246SOL     OW38956   8.987   6.173   1.736 -0.4913  0.0425  0.8948
 9246SOL    HW138957   9.034   6.261   1.730  1.4553 -1.0073  0.3966
 9246SOL    HW238958   9.039   6.110   1.794 -2.0618 -0.6896  1.5768
 9247SOL     OW38959   5.101   0.681   1.875 -0.3404  0.3276  0.1149
 9247SOL    HW138960   5.075   0.674   1.778 -0.1475 -0.7918  0.1338
 9247SOL    HW238961   5.083   0.773   1.908 -0.6610  0.6430 -0.9208
 9248SOL     OW38962   7.263   1.854   5.727 -0.0568  0.1898  0.7243
 9248SOL    HW138963   7.175   1.895   5.703  0.8848  2.0174  0.3799
 9248SOL    HW238964   7.271   1.849   5.827 -0.4224  0.2609  0.7594
 9249SOL     OW38965   2.262   6.181   0.864 -0.5268 -0.1900  0.1833
 9249SOL    HW138966   2.199   6.129   0.806 -0.8695  1.7169 -1.2264
 9249SOL    HW238967   2.209   6.235   0.930 -0.3278  0.6896 -0.3728
 9250SOL     OW38968   3.049   9.762   1.187  0.4754  0.6248  0.1807
 9250SOL    HW138969   2.985   9.754   1.262  0.4386 -0.2922  0.0552
 9250SOL    HW238970   2.999   9.763   1.100  0.7347 -2.4447 -0.0537
 9251SOL     OW38971   2.974   1.355   3.896  0.5347  0.6277  0.1734
 9251SOL    HW138972   2.897   1.318   3.947  1.5127 -2.1963 -0.2809
 9251SOL    HW238973   3.057   1.303   3.919  1.6912  1.6737 -1.5452
 9252SOL     OW38974   7.644   5.424   5.124  0.5533  0.4472  0.1117
 9252SOL    HW138975   7.718   5.384   5.069  0.4954  1.1718 -0.4941
 9252SOL    HW238976   7.662   5.406   5.221 -0.0760 -2.0739 -0.2091
 9253SOL     OW38977   5.451   4.440   6.422 -0.1517 -0.3554  0.1123
 9253SOL    HW138978   5.531   4.500   6.430 -0.0690 -0.3622 -0.6484
 9253SOL    HW238979   5.432   4.423   6.326 -2.5548  1.6482  0.1721
 9254SOL     OW38980   5.336   7.658   4.622 -0.7645  0.2282  0.2730
 9254SOL    HW138981   5.368   7.753   4.622 -1.1404  0.3562  0.4261
 9254SOL    HW238982   5.409   7.598   4.657 -0.9585  0.6137  1.3742
 9255SOL     OW38983   8.714   8.081   4.868 -0.2199 -0.2128  0.5438
 9255SOL    HW138984   8.642   8.120   4.811  0.4607  1.2232  0.6335
 9255SOL    HW238985   8.692   7.986   4.890 -0.3292 -0.9039 -2.3913
 9256SOL     OW38986   8.986   4.070   3.452 -0.3359  0.0203 -0.1327
 9256SOL    HW138987   8.905   4.087   3.509  0.5571 -0.3711  1.2908
 9256SOL    HW238988   8.971   4.107   3.361 -2.1345 -0.0729  0.1014
 9257SOL     OW38989   5.267   2.279   5.034 -0.2333  0.9033  0.0147
 9257SOL    HW138990   5.342   2.221   5.001 -0.6058  0.3217  0.1917
 9257SOL    HW238991   5.297   2.326   5.117  0.1496  1.1386 -0.2551
 9258SOL     OW38992   8.805   3.142   0.908 -0.4033  0.8547  0.3078
 9258SOL    HW138993   8.772   3.098   0.992  0.1449  1.0890  0.6406
 9258SOL    HW238994   8.899   3.115   0.891 -0.2913  1.3539  0.1345
 9259SOL     OW38995   0.041   8.378   4.947  0.3890 -0.1324  0.2298
 9259SOL    HW138996   0.030   8.477   4.956  0.9924 -0.2388  2.5559
 9259SOL    HW238997   0.086   8.357   4.860  2.6318  1.8382  0.8695
 9260SOL     OW38998   0.348   1.385   0.338 -0.3225  0.0265  0.7951
 9260SOL    HW138999   0.363   1.481   0.315 -0.3809  0.1749  1.3681
 9260SOL    HW239000   0.424   1.330   0.302 -1.1406  0.0414 -1.0300
 9261SOL     OW39001   1.919   2.835   4.493 -0.3724 -0.1567 -0.0504
 9261SOL    HW139002   1.968   2.917   4.464 -0.8226 -0.1312 -0.7618
 9261SOL    HW239003   1.910   2.834   4.593 -0.6959  0.8477 -0.0699
 9262SOL     OW39004   0.486   8.462   5.786 -0.0152  0.3721 -0.0339
 9262SOL    HW139005   0.434   8.546   5.801  0.5581  0.6039  0.7160
 9262SOL    HW239006   0.583   8.483   5.784  0.1433 -0.2997  0.3691
 9263SOL     OW39007   8.188   4.590   0.820 -0.3842 -0.1441 -0.6859
 9263SOL    HW139008   8.206   4.589   0.722  0.0205  0.4602 -0.6205
 9263SOL    HW239009   8.141   4.675   0.845 -1.7269 -0.9022 -0.5657
 9264SOL     OW39010   9.067   2.507   5.684  0.3327  0.4515  0.6795
 9264SOL    HW139011   8.970   2.483   5.684  0.3613  0.2824  1.9226
 9264SOL    HW239012   9.111   2.471   5.602 -0.9736  1.8937 -0.6950
 9265SOL     OW39013   8.781   1.497   2.897 -0.0076  0.2721  0.4169
 9265SOL    HW139014   8.820   1.405   2.896  1.3982  0.8668 -0.0701
 9265SOL    HW239015   8.744   1.518   2.807 -0.1372  0.2798  0.4708
 9266SOL     OW39016   4.415   3.663   4.792 -0.1923 -0.1317  0.0726
 9266SOL    HW139017   4.355   3.603   4.844 -0.4084 -0.3421 -0.4180
 9266SOL    HW239018   4.371   3.752   4.779 -0.5931 -0.4380 -0.6843
 9267SOL     OW39019   1.157   3.671   2.738  0.2659  0.4168 -0.1346
 9267SOL    HW139020   1.178   3.735   2.811 -0.7163  0.6083 -0.0213
 9267SOL    HW239021   1.059   3.671   2.720  0.2650 -0.9967 -0.1830
 9268SOL     OW39022   5.718   1.084   5.972 -0.4672  0.3390  0.0929
 9268SOL    HW139023   5.713   1.125   5.881  1.0795 -1.2399 -0.7441
 9268SOL    HW239024   5.774   1.141   6.032  0.9924 -0.0765 -0.8309
 9269SOL     OW39025   9.782   4.008   2.724  0.2736 -0.3623 -0.7062
 9269SOL    HW139026   9.720   4.006   2.802  0.2519  2.3599 -0.6298
 9269SOL    HW239027   9.770   3.924   2.670 -1.3217 -1.2227  0.9299
 9270SOL     OW39028   9.947   5.661   3.752  0.4986  0.2380  0.2273
 9270SOL    HW139029   9.957   5.562   3.743 -1.0687  0.0001  0.9347
 9270SOL    HW239030   9.862   5.681   3.799 -0.0977  1.9860 -1.5355
 9271SOL     OW39031   3.539   1.076   0.293 -0.1985  0.0300  0.0679
 9271SOL    HW139032   3.633   1.105   0.314 -0.2139  1.3862 -1.6102
 9271SOL    HW239033   3.539   0.979   0.269  0.8057  0.0450 -0.0194
 9272SOL     OW39034   3.653   0.405   6.119  0.2414 -0.0733 -0.3445
 9272SOL    HW139035   3.676   0.456   6.202  0.2766  0.9735 -0.9999
 9272SOL    HW239036   3.584   0.454   6.067  0.1962 -0.7420 -0.9229
 9273SOL     OW39037   4.643   5.238   6.082  0.0529 -0.0861  0.2554
 9273SOL    HW139038   4.704   5.173   6.035  2.4335  1.8708  0.5405
 9273SOL    HW239039   4.628   5.207   6.176 -0.6474 -1.3696 -0.2591
 9274SOL     OW39040   1.712   7.430   0.782 -0.5045  0.3108 -0.1141
 9274SOL    HW139041   1.696   7.498   0.711 -1.6953 -0.2606 -0.4033
 9274SOL    HW239042   1.800   7.385   0.766 -0.7353  0.2410 -1.1711
 9275SOL     OW39043   0.466   3.728   1.583  0.4014 -0.1102 -0.1815
 9275SOL    HW139044   0.479   3.731   1.682  1.1084 -2.2430 -0.1732
 9275SOL    HW239045   0.552   3.704   1.538 -0.7600 -3.1397 -0.9844
 9276SOL     OW39046   7.116   8.418   3.218  0.8047 -0.1544  0.0380
 9276SOL    HW139047   7.140   8.500   3.165 -0.2787 -0.7382 -1.4020
 9276SOL    HW239048   7.073   8.446   3.304 -0.5044  0.8123 -0.8922
 9277SOL     OW39049   6.686   2.443   3.055  0.1927 -0.1468 -0.0185
 9277SOL    HW139050   6.587   2.452   3.049  0.1943 -0.1323 -0.0192
 9277SOL    HW239051   6.730   2.520   3.009  0.2044 -0.2135 -0.1204
 9278SOL     OW39052   3.868   8.642   0.865  0.2038  0.0167 -0.2690
 9278SOL    HW139053   3.899   8.735   0.884  0.1930 -0.1477  0.5480
 9278SOL    HW239054   3.871   8.588   0.948 -0.7952 -0.4332 -0.5187
 9279SOL     OW39055   8.868   2.846   5.098 -0.5118  0.1357  0.7987
 9279SOL    HW139056   8.872   2.924   5.161  1.9391 -1.2999  2.5211
 9279SOL    HW239057   8.940   2.856   5.028 -0.3471 -0.4288  0.8801
 9280SOL     OW39058   1.401   4.234   2.517 -0.3368 -0.3738  0.2192
 9280SOL    HW139059   1.337   4.269   2.449  0.1820  0.9601  0.3973
 9280SOL    HW239060   1.353   4.221   2.604 -0.8709 -1.5474 -0.2442
 9281SOL     OW39061   7.733   4.701   6.009 -0.6242 -0.8423  0.6311
 9281SOL    HW139062   7.765   4.616   5.968  0.0247 -1.3215  2.0676
 9281SOL    HW239063   7.657   4.738   5.956 -0.0866 -1.6530 -0.7193
 9282SOL     OW39064   5.074   0.759   1.294  0.6030  0.4821 -0.6924
 9282SOL    HW139065   5.122   0.672   1.279 -0.2896 -0.0737 -0.3769
 9282SOL    HW239066   4.982   0.753   1.256 -0.4362  0.3278  1.7431
 9283SOL     OW39067   4.608   1.989   3.113  0.1020 -0.0123 -0.3925
 9283SOL    HW139068   4.660   1.904   3.102  0.2360 -0.1268  1.0961
 9283SOL    HW239069   4.665   2.058   3.157 -0.6472  0.2108  0.2374
 9284SOL     OW39070   3.778   7.561   6.067 -0.4291 -0.4663  0.9658
 9284SOL    HW139071   3.716   7.498   6.020 -0.3600 -0.9278  1.4902
 9284SOL    HW239072   3.732   7.649   6.079  0.6476  0.7104 -2.7588
 9285SOL     OW39073   4.158   9.356   0.519 -0.1013 -0.2626  0.0576
 9285SOL    HW139074   4.197   9.312   0.438 -0.6449 -0.1978 -0.2416
 9285SOL    HW239075   4.064   9.325   0.532 -0.9183  1.7089 -0.8749
 9286SOL     OW39076   4.863   2.414   1.981 -0.2366 -0.1941  0.0797
 9286SOL    HW139077   4.907   2.329   2.012 -0.0260 -0.0078  0.2900
 9286SOL    HW239078   4.894   2.434   1.888 -1.2951 -1.0502 -0.4690
 9287SOL     OW39079   2.834   0.152   6.388 -0.0293 -0.2820 -0.1657
 9287SOL    HW139080   2.924   0.155   6.432 -0.4782 -0.5282  0.7752
 9287SOL    HW239081   2.828   0.226   6.321  0.7703 -0.0937 -0.0427
 9288SOL     OW39082   9.415   6.162   3.026 -0.3181 -0.2399 -0.3776
 9288SOL    HW139083   9.492   6.222   3.047 -0.4929 -0.5046  1.0736
 9288SOL    HW239084   9.376   6.127   3.112 -1.5477 -0.7319 -1.1304
 9289SOL     OW39085   0.471   3.474   2.098 -0.3229 -0.2067 -0.4331
 9289SOL    HW139086   0.420   3.560   2.093  0.4618  0.3628  1.2720
 9289SOL    HW239087   0.441   3.421   2.176 -1.6895 -2.0914 -2.1816
 9290SOL     OW39088   6.650   1.502   4.531  0.2045 -0.3926  0.4168
 9290SOL    HW139089   6.594   1.518   4.449  1.6573  1.6407 -0.1967
 9290SOL    HW239090   6.589   1.483   4.608 -1.2298 -1.0121 -0.8168
 9291SOL     OW39091   9.815   2.439   5.928  0.0313  0.1450 -0.1857
 9291SOL    HW139092   9.773   2.522   5.966 -0.3834 -0.4827  0.7704
 9291SOL    HW239093   9.898   2.462   5.879  0.9092  0.9523  1.6274
 9292SOL     OW39094   3.074   4.039   2.735 -0.0995  0.2849  0.0945
 9292SOL    HW139095   3.041   3.982   2.661 -1.4507  0.7473  0.3212
 9292SOL    HW239096   3.050   4.135   2.717  0.9904  0.6125  0.3413
 9293SOL     OW39097   4.531   1.756   3.350 -0.1596  0.3169 -0.2406
 9293SOL    HW139098   4.459   1.784   3.413  0.8518  0.0735  1.0602
 9293SOL    HW239099   4.615   1.808   3.370  0.6756 -1.0136 -0.2057
 9294SOL     OW39100   9.346   7.308   3.247 -0.7322 -0.0978  0.5405
 9294SOL    HW139101   9.371   7.404   3.242  0.5065 -0.3363  1.7809
 9294SOL    HW239102   9.349   7.267   3.156 -1.1611  0.9986  0.0309
 9295SOL     OW39103   6.388   0.840   4.128 -0.0647  0.0493 -0.5698
 9295SOL    HW139104   6.356   0.852   4.034 -0.3575  1.2414 -0.3284
 9295SOL    HW239105   6.463   0.904   4.146  0.3810 -0.5819 -0.1730
 9296SOL     OW39106   4.017   4.836   3.099 -0.3306  0.1043 -0.0152
 9296SOL    HW139107   4.027   4.797   3.190  0.5568  1.5692  0.5176
 9296SOL    HW239108   3.920   4.856   3.082 -0.4547  0.1233  0.7116
 9297SOL     OW39109   5.869   7.987   3.274  0.5305 -0.1735  0.5695
 9297SOL    HW139110   5.911   8.035   3.351 -0.0901  2.1674 -0.5141
 9297SOL    HW239111   5.799   8.045   3.232 -0.0732 -1.9351 -0.9474
 9298SOL     OW39112   0.778   8.988   2.801  0.0649 -0.1481 -0.1008
 9298SOL    HW139113   0.755   8.933   2.882 -1.1706 -0.7130 -0.8159
 9298SOL    HW239114   0.795   9.082   2.829  1.2449 -0.6761  1.0227
 9299SOL     OW39115   3.301   9.552   3.104  0.5457  0.2005  0.0277
 9299SOL    HW139116   3.361   9.511   3.036  1.3078 -0.3705  1.0205
 9299SOL    HW239117   3.336   9.642   3.130  0.1795  0.4773 -0.4327
 9300SOL     OW39118   1.013   3.199   6.160 -0.0855 -0.4939  0.1391
 9300SOL    HW139119   0.985   3.235   6.071  1.4387 -0.5469 -0.3575
 9300SOL    HW239120   0.947   3.129   6.189 -0.9937  0.0331 -0.5948
 9301SOL     OW39121   0.398   6.826   3.070  0.0172  0.2048 -0.3724
 9301SOL    HW139122   0.423   6.749   3.129 -0.2405 -0.7116 -1.4444
 9301SOL    HW239123   0.422   6.912   3.116  0.1732 -0.5013  0.8957
 9302SOL     OW39124   0.622   5.377   4.058 -0.2658  0.4458  0.2777
 9302SOL    HW139125   0.688   5.450   4.075  0.1344  0.1907 -0.1602
 9302SOL    HW239126   0.555   5.375   4.132 -0.3344  1.3119  0.2480
 9303SOL     OW39127   5.125   9.117   0.305  0.1679 -0.6100  0.8616
 9303SOL    HW139128   5.096   9.092   0.213 -1.6110 -2.2468  1.8179
 9303SOL    HW239129   5.167   9.208   0.304 -0.3901 -0.3608 -1.4412
 9304SOL     OW39130   4.558   0.465   5.408 -0.3992 -0.1975 -0.0357
 9304SOL    HW139131   4.584   0.463   5.504  0.7691  0.1592 -0.3354
 9304SOL    HW239132   4.575   0.375   5.367 -0.1653 -0.1264 -0.0957
 9305SOL     OW39133   7.865   0.993   4.140 -0.1454  0.0471 -0.0504
 9305SOL    HW139134   7.919   1.005   4.057 -0.6652 -0.9698 -0.5423
 9305SOL    HW239135   7.914   0.932   4.203 -0.2667 -0.0898 -0.0878
 9306SOL     OW39136   9.022   5.561   4.833  0.2662 -0.0076 -0.4089
 9306SOL    HW139137   9.024   5.651   4.790 -1.5445  0.6095  0.7430
 9306SOL    HW239138   9.116   5.528   4.846  0.9204  1.2945 -1.6463
 9307SOL     OW39139   3.287   2.462   6.079 -0.1488 -0.4512  0.2838
 9307SOL    HW139140   3.210   2.412   6.040 -0.3576  0.4352 -0.4604
 9307SOL    HW239141   3.373   2.419   6.051 -0.2922  0.2232 -1.2319
 9308SOL     OW39142   2.116   7.239   2.906  0.0142 -0.3785  0.6781
 9308SOL    HW139143   2.116   7.140   2.892  0.8016 -0.4630  1.2186
 9308SOL    HW239144   2.099   7.259   3.002 -1.3372  0.0591  0.3575
 9309SOL     OW39145   9.814   5.216   2.674 -0.3012  0.2917  0.1355
 9309SOL    HW139146   9.737   5.160   2.703  0.6732 -0.4835  1.2821
 9309SOL    HW239147   9.899   5.179   2.712  0.5305  1.6958 -0.2949
 9310SOL     OW39148   7.684   1.035   4.511 -0.0617 -0.5126 -0.2251
 9310SOL    HW139149   7.666   1.076   4.421 -2.4792  1.2301  1.0011
 9310SOL    HW239150   7.668   1.103   4.582  1.0746 -2.0992  1.5789
 9311SOL     OW39151   9.164   9.179   3.309 -0.0574 -0.1234 -0.2816
 9311SOL    HW139152   9.189   9.262   3.359  0.1082 -0.0990 -0.4083
 9311SOL    HW239153   9.183   9.192   3.212 -0.4617 -0.1413 -0.3646
 9312SOL     OW39154   1.463   1.035   0.196 -0.8486  0.1887  0.0580
 9312SOL    HW139155   1.389   1.096   0.225 -1.9217 -0.0168 -2.1887
 9312SOL    HW239156   1.499   1.065   0.108 -0.3360 -1.5219 -0.3280
 9313SOL     OW39157   7.912   1.007   6.010  0.5051  0.4047 -0.4834
 9313SOL    HW139158   7.823   0.979   6.046  0.7057 -0.6077 -0.7555
 9313SOL    HW239159   7.921   0.975   5.915  0.7583  1.3795 -0.8007
 9314SOL     OW39160   4.689   8.573   2.007  0.3214 -0.0439  0.3922
 9314SOL    HW139161   4.684   8.476   1.986  0.8229 -0.1055  0.5634
 9314SOL    HW239162   4.661   8.589   2.101 -0.8766  0.1105  0.0183
 9315SOL     OW39163   2.553   4.641   3.003 -0.3333 -0.6889 -0.6981
 9315SOL    HW139164   2.599   4.569   2.950 -1.6440 -1.6589 -0.5424
 9315SOL    HW239165   2.579   4.633   3.099 -0.5732 -1.0244 -0.6617
 9316SOL     OW39166   0.257   8.468   3.744  0.1598  0.3804 -0.8655
 9316SOL    HW139167   0.228   8.444   3.837  1.6103 -0.1263 -0.5335
 9316SOL    HW239168   0.203   8.546   3.712 -0.1672  0.7400  0.5091
 9317SOL     OW39169   4.811   8.846   3.472  0.3298 -0.4769  0.6331
 9317SOL    HW139170   4.887   8.786   3.450 -0.9175 -1.8945  0.1728
 9317SOL    HW239171   4.815   8.928   3.415  0.7704 -1.1440 -0.2953
 9318SOL     OW39172   1.352   1.732   3.321  0.2181 -0.2218 -0.1493
 9318SOL    HW139173   1.297   1.719   3.238  0.2555  1.1314 -0.3946
 9318SOL    HW239174   1.417   1.657   3.330 -0.3326 -0.7967 -0.9201
 9319SOL     OW39175   1.688   0.087   6.618 -0.2089  0.1514  0.5663
 9319SOL    HW139176   1.705  -0.012   6.626 -2.0469 -0.2868 -0.8432
 9319SOL    HW239177   1.640   0.119   6.700  1.1805  0.0617  1.4297
 9320SOL     OW39178   3.603   2.331   3.654 -0.5636 -0.5376  0.9131
 9320SOL    HW139179   3.674   2.270   3.620 -1.2349 -1.4390  1.1203
 9320SOL    HW239180   3.533   2.343   3.584  0.1755  0.9967  0.4009
 9321SOL     OW39181   8.862   6.038   1.518  0.5737 -0.2583  0.0211
 9321SOL    HW139182   8.913   6.120   1.543 -1.5204  1.2787 -0.6324
 9321SOL    HW239183   8.886   6.011   1.425 -0.3157  0.8936 -0.5578
 9322SOL     OW39184   5.300   9.918   1.527  0.0175 -0.1097 -0.2188
 9322SOL    HW139185   5.247   9.913   1.612  1.7905 -0.2415  0.8889
 9322SOL    HW239186   5.269   9.846   1.465 -4.3803  2.6777 -1.5511
 9323SOL     OW39187   0.500   2.299   5.767  0.0217 -0.3537  0.0824
 9323SOL    HW139188   0.552   2.312   5.852 -1.3538  0.2503  0.8513
 9323SOL    HW239189   0.490   2.388   5.721  0.4751 -0.6257 -0.5475
 9324SOL     OW39190   2.994   2.476   2.892  0.4323 -0.0783 -0.3335
 9324SOL    HW139191   3.070   2.533   2.923  0.7782  0.4174 -2.0139
 9324SOL    HW239192   2.921   2.477   2.960  2.6899 -2.1147  2.2347
 9325SOL     OW39193   1.879   3.979   4.184  0.2302  0.4073 -0.3474
 9325SOL    HW139194   1.881   3.998   4.086 -0.4960 -1.0152 -0.6565
 9325SOL    HW239195   1.840   4.058   4.233 -1.6406  0.2070 -1.4647
 9326SOL     OW39196   9.368   0.085   3.483 -0.2222 -0.4602  0.8010
 9326SOL    HW139197   9.425   0.013   3.443 -0.9387  0.1124 -1.3449
 9326SOL    HW239198   9.415   0.173   3.476  0.3179 -0.5886  2.6964
 9327SOL     OW39199   0.970   8.318   5.567 -0.2414  0.0700  0.0011
 9327SOL    HW139200   1.047   8.334   5.629 -1.6040  2.6997  1.0543
 9327SOL    HW239201   0.928   8.230   5.588  1.0934 -0.3654  0.8806
 9328SOL     OW39202   0.662   6.832   5.811  0.7187  0.5333  0.0512
 9328SOL    HW139203   0.618   6.800   5.895  1.2008 -0.5871 -0.1186
 9328SOL    HW239204   0.643   6.768   5.736  0.8943  1.1436 -0.5243
 9329SOL     OW39205   0.835   8.994   2.426  1.0295  0.1996 -0.5133
 9329SOL    HW139206   0.843   9.064   2.355 -0.0764 -0.7277 -1.5832
 9329SOL    HW239207   0.910   9.004   2.492  0.0749  3.3201  0.2004
 9330SOL     OW39208   7.339   9.127   5.733 -0.1809 -0.4529 -0.1710
 9330SOL    HW139209   7.376   9.143   5.642  1.8422  1.2325  0.9157
 9330SOL    HW239210   7.239   9.130   5.729 -0.0829  1.4031 -2.0184
 9331SOL     OW39211   7.268   8.770   2.913 -0.3928 -0.4332  0.3548
 9331SOL    HW139212   7.273   8.709   2.992  2.2921 -0.2182  0.3920
 9331SOL    HW239213   7.344   8.835   2.915 -2.5555  2.2236 -0.2941
 9332SOL     OW39214   7.598   8.367   4.780 -0.4678 -0.2472 -0.0390
 9332SOL    HW139215   7.682   8.418   4.795 -1.5243  1.0357  1.6815
 9332SOL    HW239216   7.569   8.378   4.685 -0.1951  1.6581  0.0746
 9333SOL     OW39217   6.460   2.088   2.665 -0.1705 -0.2099  0.0732
 9333SOL    HW139218   6.518   2.163   2.633  0.7976 -0.9706  0.0163
 9333SOL    HW239219   6.470   2.079   2.764 -0.0721 -0.4350  0.0430
 9334SOL     OW39220   1.709   7.389   0.132 -0.7760 -0.2352 -0.1644
 9334SOL    HW139221   1.760   7.324   0.188 -1.3847 -0.7065 -0.1508
 9334SOL    HW239222   1.740   7.383   0.037 -0.5660 -0.2759 -0.0928
 9335SOL     OW39223   2.717   7.799   3.232 -0.0531 -0.0459  0.4830
 9335SOL    HW139224   2.718   7.699   3.224 -1.8657 -0.0697  0.2285
 9335SOL    HW239225   2.753   7.840   3.148 -1.1157 -0.4757 -0.1891
 9336SOL     OW39226   2.964   3.950   1.197 -0.8266 -0.0157  0.0574
 9336SOL    HW139227   2.928   3.933   1.289 -0.7576  0.2201  0.1279
 9336SOL    HW239228   2.972   4.048   1.182  0.9227 -0.0839  0.4805
 9337SOL     OW39229   2.106   3.681   4.653  0.0587  0.5388  0.3267
 9337SOL    HW139230   2.044   3.608   4.623  2.3962 -0.6453 -1.8546
 9337SOL    HW239231   2.157   3.651   4.733 -1.3161  1.0508  1.3985
 9338SOL     OW39232   3.397   9.771   4.496  0.1192 -0.7038 -0.1290
 9338SOL    HW139233   3.425   9.708   4.569  2.4808 -0.6914 -0.9776
 9338SOL    HW239234   3.332   9.726   4.435 -0.7699 -1.1884  1.1718
 9339SOL     OW39235   8.521   3.514   5.480 -0.0233 -0.0203 -0.1016
 9339SOL    HW139236   8.492   3.539   5.572  1.3878  0.5511  0.1972
 9339SOL    HW239237   8.474   3.430   5.452 -0.0325 -0.5083  1.3423
 9340SOL     OW39238   3.718   5.958   3.514 -0.2211 -0.0381 -0.3727
 9340SOL    HW139239   3.731   5.882   3.450 -1.4576  1.0853 -1.9911
 9340SOL    HW239240   3.630   5.949   3.560 -0.7182  0.8220 -1.1451
 9341SOL     OW39241   3.200   7.076   0.467 -0.4730  0.3873  0.1059
 9341SOL    HW139242   3.221   7.068   0.565  1.7958 -1.3208 -0.4746
 9341SOL    HW239243   3.112   7.123   0.455 -0.2313  1.6512  2.9167
 9342SOL     OW39244   6.322   7.622   4.983 -0.1470  1.1244 -0.2873
 9342SOL    HW139245   6.235   7.657   5.015 -0.4182  0.4040 -0.2440
 9342SOL    HW239246   6.383   7.607   5.061 -0.4966  0.2253 -0.1840
 9343SOL     OW39247   0.308   5.474   3.242 -0.3703 -0.3569  0.0620
 9343SOL    HW139248   0.222   5.433   3.270 -0.5186 -0.4286 -0.4942
 9343SOL    HW239249   0.312   5.569   3.272  0.2094 -0.9265  1.8469
 9344SOL     OW39250   7.912   2.838   2.667 -0.0082  0.2395  0.2019
 9344SOL    HW139251   7.990   2.900   2.656 -0.1030  0.1146 -1.3341
 9344SOL    HW239252   7.923   2.785   2.751  0.7220  1.4158  0.8571
 9345SOL     OW39253   3.868   8.753   0.385 -0.1855 -0.8346 -0.0999
 9345SOL    HW139254   3.920   8.753   0.471  0.5908 -0.6085 -0.5666
 9345SOL    HW239255   3.770   8.754   0.406 -0.0144 -1.6365  0.7851
 9346SOL     OW39256   2.219   2.100   2.048 -0.2595 -0.0886  0.7994
 9346SOL    HW139257   2.190   2.083   2.142 -1.5006 -0.2007  0.4130
 9346SOL    HW239258   2.220   2.015   1.997 -0.6462  0.1251  0.4296
 9347SOL     OW39259   5.735   1.972   1.861  0.3441  0.2004  0.4623
 9347SOL    HW139260   5.717   1.998   1.956  0.8596  2.8155 -0.1234
 9347SOL    HW239261   5.830   1.943   1.852 -0.0167 -1.1587  0.9661
 9348SOL     OW39262   9.917   7.189   1.338  0.0870 -0.0937 -0.0050
 9348SOL    HW139263   9.835   7.244   1.320 -1.2566 -1.9348  0.3577
 9348SOL    HW239264   9.968   7.176   1.253 -2.7363 -3.2373 -1.3221
 9349SOL     OW39265   1.948   7.711   0.677 -0.5983 -0.2383 -0.0704
 9349SOL    HW139266   1.873   7.672   0.624 -1.5301  2.4498 -0.8265
 9349SOL    HW239267   1.914   7.788   0.731  1.6498  1.1198 -0.5418
 9350SOL     OW39268   7.853   5.265   5.352  0.5963  0.0986 -0.0389
 9350SOL    HW139269   7.796   5.201   5.404  0.0634  0.3579 -0.3037
 9350SOL    HW239270   7.896   5.217   5.275  0.8633 -0.1315  0.2486
 9351SOL     OW39271   0.813   4.622   1.068  0.4242  0.1072 -0.6898
 9351SOL    HW139272   0.802   4.541   1.127  0.2584 -0.3136 -1.2902
 9351SOL    HW239273   0.894   4.610   1.011  0.0632  0.0993 -1.2021
 9352SOL     OW39274   0.190   6.408   2.126  0.0879 -0.4000 -0.3970
 9352SOL    HW139275   0.139   6.322   2.120 -0.1705 -0.3118  0.5153
 9352SOL    HW239276   0.280   6.396   2.085  0.0442 -1.1063 -0.2872
 9353SOL     OW39277   0.319   7.286   2.177 -0.3399 -0.5716 -0.1183
 9353SOL    HW139278   0.274   7.375   2.181  0.1412 -0.3695  1.2969
 9353SOL    HW239279   0.386   7.285   2.103 -0.1756  0.3308  0.0150
 9354SOL     OW39280   9.709   6.850   0.732 -0.0821  0.3211  0.4117
 9354SOL    HW139281   9.807   6.867   0.742 -0.3205  1.3307  1.0296
 9354SOL    HW239282   9.691   6.812   0.641  0.8604  0.2971  0.2333
 9355SOL     OW39283   9.454   7.496   4.445  0.3561  0.2593 -0.2968
 9355SOL    HW139284   9.533   7.484   4.505 -0.7318 -1.3253  0.8348
 9355SOL    HW239285   9.384   7.429   4.468 -1.7300  2.2697 -0.6652
 9356SOL     OW39286   6.210   7.589   4.085 -0.1830  0.1925 -0.0734
 9356SOL    HW139287   6.235   7.685   4.083 -2.0135  0.7034  0.5530
 9356SOL    HW239288   6.225   7.552   4.177 -0.0126  0.0179 -0.1696
 9357SOL     OW39289   0.952   5.886   4.381  0.2804  0.4603  0.1728
 9357SOL    HW139290   0.946   5.791   4.410  1.7347  0.1824 -0.3706
 9357SOL    HW239291   0.896   5.943   4.441 -1.9484 -0.9364 -0.5086
 9358SOL     OW39292   2.883   2.120   5.914 -0.6309  0.7664 -0.1333
 9358SOL    HW139293   2.912   2.084   6.003 -0.0809  1.0818 -0.1841
 9358SOL    HW239294   2.940   2.082   5.842  0.3308  2.1570 -0.1312
 9359SOL     OW39295   1.711   8.202   2.984  0.3306 -0.3756 -0.5249
 9359SOL    HW139296   1.692   8.187   3.081 -0.2699 -0.3570 -0.6353
 9359SOL    HW239297   1.713   8.114   2.937 -1.2289 -0.2642 -0.8220
 9360SOL     OW39298   9.379   6.048   1.351  0.3017  0.5462  0.1323
 9360SOL    HW139299   9.386   6.147   1.368 -1.8918  0.4229  1.9490
 9360SOL    HW239300   9.407   6.029   1.257  2.7061  2.6201  0.3564
 9361SOL     OW39301   7.877   4.310   0.190 -0.5532 -0.3869 -0.4637
 9361SOL    HW139302   7.833   4.352   0.110  0.3932  0.1385 -0.7167
 9361SOL    HW239303   7.937   4.237   0.160 -0.3481 -0.3221 -0.2100
 9362SOL     OW39304   8.293   0.769   1.958 -0.0753 -0.0438  0.1328
 9362SOL    HW139305   8.199   0.802   1.947  0.1603  0.2277 -1.0716
 9362SOL    HW239306   8.292   0.686   2.014 -1.3436 -1.6458 -2.1872
 9363SOL     OW39307   0.728   1.659   2.625  0.1863 -0.4585 -0.4825
 9363SOL    HW139308   0.781   1.688   2.705 -0.3176  1.9281 -0.9588
 9363SOL    HW239309   0.715   1.560   2.627 -0.0354 -0.4043  2.5110
 9364SOL     OW39310   0.182   7.442   1.402 -0.3792 -0.0002 -0.4874
 9364SOL    HW139311   0.152   7.407   1.490 -0.9695 -0.8390 -1.0201
 9364SOL    HW239312   0.247   7.378   1.360  0.2092  0.5868 -0.4880
 9365SOL     OW39313   2.792   1.728   4.246 -0.5704 -0.4853 -0.2619
 9365SOL    HW139314   2.742   1.713   4.332 -1.7618  1.0388 -0.6531
 9365SOL    HW239315   2.885   1.695   4.255 -0.3573  0.6183  1.9947
 9366SOL     OW39316   2.374   2.059   5.293 -0.0339  0.1105  0.2007
 9366SOL    HW139317   2.454   1.999   5.294  0.3447  0.6107 -0.4088
 9366SOL    HW239318   2.292   2.004   5.276  0.5355  0.0185 -2.3684
 9367SOL     OW39319   2.659   2.190   6.223  0.3475  0.3618 -0.0620
 9367SOL    HW139320   2.756   2.167   6.217  0.5182  0.9677  0.3955
 9367SOL    HW239321   2.620   2.150   6.306  0.2435  0.2905 -0.1436
 9368SOL     OW39322   2.866   4.194   3.597  0.3749  0.1128 -0.0274
 9368SOL    HW139323   2.915   4.192   3.684 -0.3539 -0.2367  0.3787
 9368SOL    HW239324   2.828   4.285   3.582 -0.1703 -0.0420  0.3997
 9369SOL     OW39325   3.033   2.024   5.690  0.3922 -0.2339  0.3758
 9369SOL    HW139326   3.103   1.953   5.677 -0.3609 -0.7714 -0.9060
 9369SOL    HW239327   3.063   2.109   5.646  1.2300  0.2122  1.7844
 9370SOL     OW39328   0.948   1.741   5.558  0.1069  0.1934  0.7365
 9370SOL    HW139329   0.945   1.805   5.481  0.0245 -0.9340 -0.2231
 9370SOL    HW239330   0.936   1.648   5.524  2.1264 -0.5249  1.8525
 9371SOL     OW39331   9.706   0.735   3.721  0.0000 -0.2740 -0.0274
 9371SOL    HW139332   9.784   0.685   3.760  0.1060  0.2789  0.4882
 9371SOL    HW239333   9.647   0.672   3.672  0.9314 -0.6562 -0.6764
 9372SOL     OW39334   6.459   9.060   2.048 -0.3703  0.2164 -0.2270
 9372SOL    HW139335   6.431   9.155   2.063 -1.6319 -0.0365 -0.9402
 9372SOL    HW239336   6.558   9.052   2.065 -0.3470  1.5311  0.3687
 9373SOL     OW39337   6.368   8.472   3.805  0.1016 -0.1148 -0.3029
 9373SOL    HW139338   6.394   8.467   3.708 -0.9778  2.8496 -0.8049
 9373SOL    HW239339   6.420   8.545   3.849 -1.4586  0.4240  0.6606
 9374SOL     OW39340   0.490   6.234   0.674  0.2516 -0.0710 -0.2618
 9374SOL    HW139341   0.568   6.263   0.730  1.8973 -2.6328 -1.1509
 9374SOL    HW239342   0.459   6.145   0.705  0.0864 -0.7452 -2.3339
 9375SOL     OW39343   4.042   9.597   2.162  0.1445  0.0105 -0.4285
 9375SOL    HW139344   4.041   9.636   2.070 -0.3855 -3.0751 -1.7895
 9375SOL    HW239345   3.954   9.614   2.207  1.1128  3.3049  0.3524
 9376SOL     OW39346   2.334   1.825   3.989 -0.5738  0.0789 -0.7643
 9376SOL    HW139347   2.317   1.726   3.992 -0.4396  0.0822  0.8861
 9376SOL    HW239348   2.282   1.869   4.062  3.1263  0.6169  1.6615
 9377SOL     OW39349   7.862   2.345   4.611 -0.6759 -0.2753 -0.2293
 9377SOL    HW139350   7.930   2.396   4.558 -0.5155  1.1072  1.3008
 9377SOL    HW239351   7.840   2.394   4.695 -1.9567 -1.7828  0.3485
 9378SOL     OW39352   4.796   1.679   6.746 -0.0371  0.4569 -0.0866
 9378SOL    HW139353   4.809   1.600   6.686 -1.0357  0.6516 -0.5812
 9378SOL    HW239354   4.799   1.649   6.841  2.1180  0.2311 -0.1967
 9379SOL     OW39355   0.553   2.393   2.945 -0.4928  0.1922 -0.2282
 9379SOL    HW139356   0.540   2.294   2.946  1.0740 -0.0192  0.0192
 9379SOL    HW239357   0.542   2.429   3.037 -1.0277  0.2454 -0.3125
 9380SOL     OW39358   2.213   4.837   1.856  0.4648 -0.1645  0.1973
 9380SOL    HW139359   2.181   4.757   1.805  1.5776 -0.1569 -0.5431
 9380SOL    HW239360   2.283   4.885   1.803  0.0209  1.1369  0.7696
 9381SOL     OW39361   4.513   1.891   1.073 -0.0898 -0.5104 -0.0238
 9381SOL    HW139362   4.441   1.833   1.035 -0.1185 -0.0829 -0.6336
 9381SOL    HW239363   4.546   1.852   1.158  0.7551 -2.0597 -1.0453
 9382SOL     OW39364   3.555   5.655   4.675  0.4067 -0.4040 -0.0471
 9382SOL    HW139365   3.563   5.564   4.634 -2.7195  0.3633 -2.5318
 9382SOL    HW239366   3.475   5.658   4.735  0.3349  0.7666 -0.1848
 9383SOL     OW39367   0.128   1.212   0.665 -0.1925 -0.0808 -0.3496
 9383SOL    HW139368   0.216   1.190   0.708 -0.6485 -2.1719 -0.4306
 9383SOL    HW239369   0.057   1.218   0.735 -0.3838 -0.5363 -0.5041
 9384SOL     OW39370   5.204   9.733   4.569  0.6439  0.0142 -0.4760
 9384SOL    HW139371   5.290   9.684   4.586  0.7615  0.2190 -0.4833
 9384SOL    HW239372   5.138   9.709   4.640 -0.3422 -2.5631 -2.1702
 9385SOL     OW39373   0.268   2.338   2.640  0.1142  0.2485 -0.0424
 9385SOL    HW139374   0.316   2.253   2.661 -0.9948 -0.3248  0.2233
 9385SOL    HW239375   0.239   2.382   2.725 -0.5177  0.1887 -0.2292
 9386SOL     OW39376   4.487   1.436   5.929  0.1201  0.4665  0.4770
 9386SOL    HW139377   4.518   1.440   6.024  0.3331 -0.9655  0.4666
 9386SOL    HW239378   4.406   1.494   5.918 -0.2730  0.1504  1.6689
 9387SOL     OW39379   2.643   6.196   1.071 -0.3588 -0.7043  0.2708
 9387SOL    HW139380   2.624   6.282   1.118  1.4314  1.1965 -2.2976
 9387SOL    HW239381   2.601   6.120   1.120 -3.3518  1.8161  1.7330
 9388SOL     OW39382   8.736   7.600   1.456 -0.3656 -0.0727  0.1510
 9388SOL    HW139383   8.660   7.557   1.503 -0.4757  1.2717  1.2302
 9388SOL    HW239384   8.819   7.593   1.512  0.1561 -0.8875 -0.6920
 9389SOL     OW39385   5.189   8.334   4.438  0.4000 -0.2243  0.0740
 9389SOL    HW139386   5.099   8.299   4.413  0.8122 -0.9039 -0.4627
 9389SOL    HW239387   5.193   8.433   4.420 -0.6958  0.0786  1.4106
 9390SOL     OW39388   3.893   5.506   2.089 -0.4007  0.6133  0.5173
 9390SOL    HW139389   3.821   5.441   2.067  1.0980 -0.7802 -0.3724
 9390SOL    HW239390   3.966   5.500   2.021  1.3705  0.7542  2.3694
 9391SOL     OW39391   0.101   6.160   5.894  0.0326  0.1900  0.8138
 9391SOL    HW139392   0.181   6.218   5.902  0.0577  0.1994  0.4961
 9391SOL    HW239393   0.087   6.110   5.980  0.6026 -0.1037  0.7380
 9392SOL     OW39394   0.360   2.934   3.852  0.0974  0.2666  0.2734
 9392SOL    HW139395   0.428   2.925   3.925 -0.0015  0.6335  0.4088
 9392SOL    HW239396   0.388   3.006   3.788  0.8895 -0.9882 -0.8279
 9393SOL     OW39397   4.958   9.089   4.062 -0.4343 -0.2723 -0.0151
 9393SOL    HW139398   5.012   9.046   4.135  0.3164  0.3616 -0.1871
 9393SOL    HW239399   4.893   9.154   4.102 -0.0635  0.0315  0.0970
 9394SOL     OW39400   7.203   4.244   6.179 -0.3034 -0.1543  0.2561
 9394SOL    HW139401   7.151   4.327   6.156 -0.5582 -0.3635  0.0625
 9394SOL    HW239402   7.143   4.164   6.168  0.6605 -0.6049 -2.1456
 9395SOL     OW39403   4.342   2.074   1.729 -0.3050  0.3073  0.1906
 9395SOL    HW139404   4.298   2.162   1.744  0.0749  0.3998  0.7879
 9395SOL    HW239405   4.330   2.017   1.810 -3.0073 -1.2685 -1.2279
 9396SOL     OW39406   4.564   4.553   6.623 -0.0071  0.2131  0.0296
 9396SOL    HW139407   4.572   4.629   6.687 -4.4837  0.6340  0.2751
 9396SOL    HW239408   4.532   4.587   6.535  0.0191 -1.1251 -0.5047
 9397SOL     OW39409   7.848   5.567   4.745  0.0481 -0.1491 -0.2420
 9397SOL    HW139410   7.829   5.583   4.648  0.0312  1.6189  0.0240
 9397SOL    HW239411   7.764   5.576   4.797  0.5012  1.5251  0.2252
 9398SOL     OW39412   2.520   7.035   1.743  0.0910  0.1100  0.0469
 9398SOL    HW139413   2.473   6.948   1.731  0.5711 -0.4390  2.0323
 9398SOL    HW239414   2.618   7.019   1.753  0.0044  0.7025  2.1361
 9399SOL     OW39415   7.045   2.101   0.556 -0.0079 -0.4000 -0.7708
 9399SOL    HW139416   7.026   2.165   0.482  0.8981  0.5918 -0.1683
 9399SOL    HW239417   7.065   2.152   0.640 -0.9434 -1.5013  0.1421
 9400SOL     OW39418   1.617   9.896   3.594  0.0524  0.5271  0.2752
 9400SOL    HW139419   1.583   9.804   3.612  2.5071 -0.5913 -0.5577
 9400SOL    HW239420   1.548   9.948   3.544 -0.1898 -1.9170 -2.0498
 9401SOL     OW39421   3.844   5.357   4.754 -0.0532  0.0623 -0.2605
 9401SOL    HW139422   3.825   5.261   4.730 -0.6018 -0.3383  1.7030
 9401SOL    HW239423   3.867   5.408   4.671  2.0628 -2.1916 -1.1495
 9402SOL     OW39424   2.260   3.198   1.364 -0.0705  0.2750  0.0432
 9402SOL    HW139425   2.252   3.229   1.269  0.9558  1.1942  0.2563
 9402SOL    HW239426   2.169   3.196   1.406 -0.4486  0.5019 -0.7640
 9403SOL     OW39427   9.211   1.599   1.121  0.0430  0.3326  0.2689
 9403SOL    HW139428   9.185   1.599   1.217 -0.1466 -2.9652  0.2758
 9403SOL    HW239429   9.129   1.599   1.064  0.1298  0.2463  0.1428
 9404SOL     OW39430   4.267   5.277   0.894  0.0454 -0.1081 -0.3549
 9404SOL    HW139431   4.324   5.343   0.941 -1.2072 -0.2733  1.4497
 9404SOL    HW239432   4.179   5.320   0.872  0.7008  0.0534 -2.8216
 9405SOL     OW39433   4.731   3.623   4.451  0.3118 -0.1304 -0.4447
 9405SOL    HW139434   4.827   3.605   4.473  0.1218  0.1210  0.6601
 9405SOL    HW239435   4.672   3.573   4.515 -0.2776  0.2545 -0.6800
 9406SOL     OW39436   6.640   8.791   3.591 -0.0370 -0.1147  0.0344
 9406SOL    HW139437   6.597   8.882   3.596  0.2016 -0.0586  1.3237
 9406SOL    HW239438   6.597   8.730   3.657  0.5584 -0.6178 -0.0337
 9407SOL     OW39439   8.308   9.649   0.914 -0.3021 -0.0552  0.2798
 9407SOL    HW139440   8.279   9.554   0.910  1.0022 -0.5493  1.7559
 9407SOL    HW239441   8.316   9.677   1.010 -1.5173  1.8163 -0.1365
 9408SOL     OW39442   2.826   6.074   5.837 -0.0642  0.2651 -0.2660
 9408SOL    HW139443   2.866   5.987   5.866  0.4439  0.5365 -0.1583
 9408SOL    HW239444   2.748   6.056   5.776 -0.6545 -0.2844  0.6397
 9409SOL     OW39445   9.746   0.823   0.843 -0.1900 -0.1481 -0.1190
 9409SOL    HW139446   9.697   0.858   0.763 -0.7818 -0.8409 -0.0649
 9409SOL    HW239447   9.754   0.723   0.836 -0.5253 -0.2473  0.8354
 9410SOL     OW39448   8.396   3.959   5.387 -0.3300  0.1485 -0.3507
 9410SOL    HW139449   8.348   3.929   5.305  0.9861  1.7034 -1.7096
 9410SOL    HW239450   8.481   3.906   5.397  0.0838  0.7625 -0.6253
 9411SOL     OW39451   0.684   8.139   6.059  0.0292  0.2730 -0.3834
 9411SOL    HW139452   0.762   8.180   6.013 -0.0372  0.4492 -0.3378
 9411SOL    HW239453   0.602   8.194   6.043  0.4791  1.7179  1.9782
 9412SOL     OW39454   4.658   8.602   3.988  0.2604  0.5731 -0.2572
 9412SOL    HW139455   4.570   8.624   4.031 -0.3015 -0.8112 -0.6479
 9412SOL    HW239456   4.725   8.671   4.012 -0.1611  0.1089  2.4578
 9413SOL     OW39457   7.624   2.387   2.767  0.2823 -0.6419  0.1440
 9413SOL    HW139458   7.612   2.290   2.746  2.9510 -1.4095  1.9391
 9413SOL    HW239459   7.616   2.401   2.866 -1.5063  1.2205 -0.2327
 9414SOL     OW39460   6.985   0.507   5.380  0.1480  0.2720  0.5461
 9414SOL    HW139461   7.037   0.451   5.444 -1.0821 -1.2875  0.2151
 9414SOL    HW239462   6.984   0.602   5.412  1.0947 -0.1406  1.8454
 9415SOL     OW39463   4.386   4.524   5.035 -0.2624 -0.1867  0.4640
 9415SOL    HW139464   4.443   4.598   5.069  1.5059 -1.8074  1.0876
 9415SOL    HW239465   4.317   4.501   5.104 -0.4830  0.5002  0.4804
 9416SOL     OW39466   0.576   4.974   4.218 -0.0143 -0.1348 -0.6788
 9416SOL    HW139467   0.576   5.025   4.132  2.9413  2.0570  0.5330
 9416SOL    HW239468   0.643   4.901   4.213  0.4404  0.2404 -0.1132
 9417SOL     OW39469   3.382   2.770   3.755 -0.2935  0.4871  0.0529
 9417SOL    HW139470   3.301   2.732   3.710  0.0826 -1.2410  0.7658
 9417SOL    HW239471   3.361   2.785   3.852 -0.0491  0.9355  0.0354
 9418SOL     OW39472   7.906   5.551   6.678  0.0914  0.0198 -0.2826
 9418SOL    HW139473   7.993   5.573   6.634 -0.6367  0.2956 -1.6011
 9418SOL    HW239474   7.905   5.453   6.700 -0.1409 -0.4495 -2.2807
 9419SOL     OW39475   4.067   9.082   5.886 -0.0421 -0.0704  0.4662
 9419SOL    HW139476   4.105   9.048   5.799 -1.4567  1.5992 -0.8481
 9419SOL    HW239477   4.121   9.161   5.916 -0.1508 -0.0511  0.6068
 9420SOL     OW39478   2.673   1.353   3.096  0.5105 -0.1171  0.9684
 9420SOL    HW139479   2.754   1.349   3.155  0.9147 -1.9846  0.3274
 9420SOL    HW239480   2.697   1.395   3.009  0.8757 -0.9136  0.6760
 9421SOL     OW39481   5.160   8.305   4.719 -0.0985 -0.1982 -0.2856
 9421SOL    HW139482   5.074   8.356   4.712  1.2312  2.2163  0.1572
 9421SOL    HW239483   5.208   8.308   4.632  0.8071  0.8712  0.2337
 9422SOL     OW39484   4.152   9.819   6.548  0.7117  0.2400 -0.0913
 9422SOL    HW139485   4.131   9.830   6.645  0.3834 -0.5862 -0.0626
 9422SOL    HW239486   4.187   9.726   6.532  0.8677  0.4074 -0.7447
 9423SOL     OW39487   8.434   1.742   4.948 -0.8415 -0.5177 -0.5758
 9423SOL    HW139488   8.467   1.769   4.857 -0.0222 -1.7732 -0.6505
 9423SOL    HW239489   8.504   1.760   5.016 -0.6529 -1.5732 -0.4919
 9424SOL     OW39490   9.560   7.402   1.731  0.3396 -0.6241  0.2590
 9424SOL    HW139491   9.503   7.353   1.797 -0.5941  0.2367  0.1105
 9424SOL    HW239492   9.532   7.498   1.728 -0.1556 -0.8054 -1.9344
 9425SOL     OW39493   3.170   4.764   5.871  0.3766 -0.2247  0.5677
 9425SOL    HW139494   3.131   4.736   5.784  1.2393  1.6981 -0.4598
 9425SOL    HW239495   3.165   4.688   5.936  0.0142 -1.7649 -1.2341
 9426SOL     OW39496   3.097   7.470   6.540  0.1520 -0.1339 -0.0486
 9426SOL    HW139497   3.112   7.371   6.536 -1.7361 -0.4083 -0.8864
 9426SOL    HW239498   3.070   7.495   6.633 -0.9501 -0.6733 -0.2065
 9427SOL     OW39499   3.662   7.690   6.716 -0.5450 -0.1389 -0.3101
 9427SOL    HW139500   3.647   7.785   6.689 -0.5284 -0.1984 -0.5308
 9427SOL    HW239501   3.582   7.636   6.691 -0.1523 -0.3717 -1.0776
 9428SOL     OW39502   6.075   9.920   4.585  0.0122 -0.0510 -0.0640
 9428SOL    HW139503   6.026   9.853   4.528 -0.4597  0.6758 -0.5128
 9428SOL    HW239504   6.100   9.999   4.529  1.4092 -0.2738  0.2462
 9429SOL     OW39505   7.877   3.810   0.466 -0.2584  0.2045  0.9877
 9429SOL    HW139506   7.913   3.718   0.451  2.0026  1.2998 -0.5134
 9429SOL    HW239507   7.947   3.866   0.512 -0.0265  2.3327 -1.8445
 9430SOL     OW39508   3.939   5.745   1.129 -0.2566  0.5014  0.1486
 9430SOL    HW139509   4.017   5.707   1.079  0.1503  0.3017  0.9232
 9430SOL    HW239510   3.972   5.801   1.204 -0.8222 -1.5502  1.9816
 9431SOL     OW39511   8.762   0.413   4.313 -0.0555 -0.3730 -0.0927
 9431SOL    HW139512   8.763   0.508   4.346  0.4673  0.1322 -1.5327
 9431SOL    HW239513   8.851   0.390   4.273 -0.0766 -1.5823  0.5275
 9432SOL     OW39514   3.339   6.329   2.759  0.5852  0.0644  0.1209
 9432SOL    HW139515   3.396   6.410   2.746  0.7118  0.2045  1.5358
 9432SOL    HW239516   3.251   6.343   2.713  1.4783  0.0450 -1.6391
 9433SOL     OW39517   8.997   6.952   4.442 -0.1906  0.1833 -0.4723
 9433SOL    HW139518   8.914   7.007   4.457 -0.1282  0.0471  0.3835
 9433SOL    HW239519   9.077   7.012   4.440 -0.3462  0.3650 -1.7274
 9434SOL     OW39520   4.194   7.662   1.781  0.3610  0.3014  0.1150
 9434SOL    HW139521   4.098   7.665   1.808  0.5777  2.0792  0.7217
 9434SOL    HW239522   4.245   7.604   1.845 -0.0033  0.6830  0.7528
 9435SOL     OW39523   2.390   8.767   4.034  1.0367 -0.0062  0.1314
 9435SOL    HW139524   2.373   8.864   4.051  1.2967 -0.3298  2.2896
 9435SOL    HW239525   2.473   8.756   3.979  0.6029  1.0166 -0.7362
 9436SOL     OW39526   0.494   1.824   4.749  0.4306  0.4706  0.1044
 9436SOL    HW139527   0.464   1.739   4.793  0.0724  0.4160 -0.2444
 9436SOL    HW239528   0.416   1.868   4.705  0.4437  1.4208  1.0082
 9437SOL     OW39529   8.960   5.842   2.365  0.4525 -0.0331  0.0543
 9437SOL    HW139530   8.923   5.749   2.366  2.0707 -0.7274 -1.4816
 9437SOL    HW239531   8.889   5.906   2.334 -0.5655 -0.7738  0.8021
 9438SOL     OW39532   4.032   7.490   5.014 -0.1503  0.1218 -0.0909
 9438SOL    HW139533   4.094   7.564   5.039 -0.7792  0.3802  0.7502
 9438SOL    HW239534   4.022   7.487   4.914 -0.1831  1.2303 -0.1364
 9439SOL     OW39535   3.686   5.870   4.562  0.5623 -0.9397  0.3640
 9439SOL    HW139536   3.656   5.788   4.611 -1.5858  0.1947  1.0367
 9439SOL    HW239537   3.673   5.857   4.464 -0.4231 -1.1631  0.5181
 9440SOL     OW39538   7.508   7.793   4.041  0.1687  0.1472 -0.2095
 9440SOL    HW139539   7.432   7.811   3.980  0.0413  0.7480  0.1114
 9440SOL    HW239540   7.482   7.816   4.135  0.9004  0.8427 -0.1648
 9441SOL     OW39541   1.560   4.982   0.370 -0.1264 -0.5999 -0.2156
 9441SOL    HW139542   1.534   5.079   0.363  2.6969  0.3203  1.3566
 9441SOL    HW239543   1.579   4.960   0.465 -1.4144 -2.9229 -0.4738
 9442SOL     OW39544   2.609   9.508   3.089 -0.4289  0.3125  0.1645
 9442SOL    HW139545   2.690   9.506   3.147 -0.8222  0.4850  0.7173
 9442SOL    HW239546   2.630   9.556   3.004 -0.1018  0.8133  0.5297
 9443SOL     OW39547   5.232   7.552   2.079  0.4538 -0.0266  0.6414
 9443SOL    HW139548   5.156   7.496   2.046  0.2698  0.7793 -0.3498
 9443SOL    HW239549   5.310   7.541   2.018  0.0048  1.7291 -0.2878
 9444SOL     OW39550   4.932   1.581   4.800 -0.9701 -0.3207 -0.5278
 9444SOL    HW139551   4.851   1.539   4.759 -1.5466  1.7263 -1.5399
 9444SOL    HW239552   4.916   1.679   4.813  1.3683  0.1389 -0.8906
 9445SOL     OW39553   4.661   1.501   0.433  0.1910 -0.5933  0.4284
 9445SOL    HW139554   4.732   1.491   0.363 -2.3027  1.3325 -2.4499
 9445SOL    HW239555   4.675   1.588   0.481  0.4655 -0.7791  0.6897
 9446SOL     OW39556   8.631   6.846   4.657  0.5744 -0.8023 -0.2433
 9446SOL    HW139557   8.709   6.787   4.638  0.9897 -0.7332  1.1618
 9446SOL    HW239558   8.601   6.832   4.751 -1.3952 -1.1408 -0.9143
 9447SOL     OW39559   3.594   4.107   5.028 -0.0171  0.7148 -0.1152
 9447SOL    HW139560   3.595   4.021   4.977  0.1049  0.2569  0.6657
 9447SOL    HW239561   3.645   4.176   4.976  3.1021 -0.6715  0.9943
 9448SOL     OW39562   7.670   2.660   4.261 -0.5139 -0.0046 -0.2085
 9448SOL    HW139563   7.643   2.755   4.273 -0.7475 -0.0875 -0.0776
 9448SOL    HW239564   7.696   2.620   4.349 -2.6236 -0.7266  0.1060
 9449SOL     OW39565   6.686   8.542   4.827  0.0022  0.4310  0.2077
 9449SOL    HW139566   6.747   8.583   4.895 -0.5282  1.6548 -0.0500
 9449SOL    HW239567   6.624   8.478   4.872  1.0823 -0.3970  0.5565
 9450SOL     OW39568   2.068   8.745   0.261 -0.5517 -0.5534 -0.3505
 9450SOL    HW139569   2.042   8.829   0.214 -0.2770 -0.4206 -0.2713
 9450SOL    HW239570   2.165   8.726   0.245 -0.8667 -1.4486 -1.2766
 9451SOL     OW39571   1.843   9.092   0.430 -0.1471  0.0896  0.3573
 9451SOL    HW139572   1.762   9.145   0.406 -0.7869 -1.2532 -0.4522
 9451SOL    HW239573   1.862   9.102   0.528 -0.1803  1.9025  0.2049
 9452SOL     OW39574   1.718   5.788   1.532  0.5834 -0.6441 -0.1170
 9452SOL    HW139575   1.637   5.825   1.577 -0.3294 -2.3289 -0.3373
 9452SOL    HW239576   1.792   5.777   1.599  0.6491  0.9188  0.0775
 9453SOL     OW39577   3.282   2.751   5.992  0.0525 -0.3698 -0.2803
 9453SOL    HW139578   3.292   2.714   5.899 -1.2225 -1.6063  0.0466
 9453SOL    HW239579   3.289   2.676   6.058 -2.1020  0.0139  0.4349
 9454SOL     OW39580   8.148   4.611   5.919 -0.4639  0.6106  0.0698
 9454SOL    HW139581   8.063   4.564   5.942 -0.4865 -0.7468 -2.6465
 9454SOL    HW239582   8.201   4.626   6.003 -1.5868 -2.0313  1.3024
 9455SOL     OW39583   2.112   0.642   4.228 -0.2205 -0.9296 -0.2443
 9455SOL    HW139584   2.147   0.658   4.320  0.0756  1.2504 -0.7195
 9455SOL    HW239585   2.016   0.667   4.223 -0.0865 -0.4926 -0.6769
 9456SOL     OW39586   1.015   2.444   4.276  0.2704 -0.0724  0.1195
 9456SOL    HW139587   1.066   2.381   4.334  1.4455 -1.1738 -2.0248
 9456SOL    HW239588   1.067   2.462   4.193 -1.2242  1.7008 -0.4631
 9457SOL     OW39589   8.456   4.074   0.787  0.2028  0.3118 -0.3181
 9457SOL    HW139590   8.552   4.091   0.762 -0.1267  2.1020 -0.4507
 9457SOL    HW239591   8.426   4.144   0.852 -1.0963 -0.0799 -0.4842
 9458SOL     OW39592   0.463   8.803   1.672 -0.4017 -0.3211 -0.3638
 9458SOL    HW139593   0.485   8.899   1.691 -0.6847 -0.5055  0.9580
 9458SOL    HW239594   0.441   8.792   1.576 -0.4836  0.9672 -0.5011
 9459SOL     OW39595   2.402   0.566   6.453 -0.0508 -0.3945  0.2237
 9459SOL    HW139596   2.429   0.580   6.358 -0.7705  1.1555  0.2404
 9459SOL    HW239597   2.352   0.479   6.461  1.0626 -1.1258 -0.5817
 9460SOL     OW39598   0.495   6.549   0.356  0.0689  0.2783  0.2666
 9460SOL    HW139599   0.448   6.472   0.397 -0.5738 -0.0525 -1.0700
 9460SOL    HW239600   0.437   6.591   0.286  1.8610 -0.3283 -1.6226
 9461SOL     OW39601   9.426   9.920   1.703  0.8941  0.6179 -0.3970
 9461SOL    HW139602   9.470   9.975   1.774  2.4577 -0.9223 -0.1488
 9461SOL    HW239603   9.329   9.942   1.700  1.0129  1.5048  1.4645
 9462SOL     OW39604   5.001   9.661   4.735 -0.6577  0.0705 -0.0172
 9462SOL    HW139605   5.005   9.562   4.723 -0.8292  0.0422  0.1787
 9462SOL    HW239606   5.027   9.685   4.828 -1.9831  0.1137  0.3539
 9463SOL     OW39607   3.531   9.586   0.399 -0.3771 -0.4414 -0.3273
 9463SOL    HW139608   3.495   9.670   0.359  0.1475 -0.5224 -0.9755
 9463SOL    HW239609   3.480   9.508   0.364 -0.2587 -0.4706 -0.4360
 9464SOL     OW39610   9.602   1.546   6.374 -0.1104 -0.0145 -0.6736
 9464SOL    HW139611   9.548   1.579   6.452  0.5591  1.7023 -0.9019
 9464SOL    HW239612   9.550   1.477   6.324 -1.7606  0.9680 -0.3716
 9465SOL     OW39613   1.087   8.936   3.691 -0.1733  0.6670 -0.1236
 9465SOL    HW139614   1.150   8.981   3.753 -0.0519  1.2913 -0.6994
 9465SOL    HW239615   1.114   8.840   3.680  1.5965  1.3053 -1.5731
 9466SOL     OW39616   3.745   7.209   4.962  0.8350 -0.5302  0.4384
 9466SOL    HW139617   3.735   7.276   4.889 -0.6425 -0.5403  0.6295
 9466SOL    HW239618   3.729   7.117   4.925  0.6700 -0.5887  0.6572
 9467SOL     OW39619   2.023   8.071   6.301  0.7516 -0.1704  0.9659
 9467SOL    HW139620   2.116   8.088   6.268 -0.6572  2.2614 -2.0806
 9467SOL    HW239621   1.989   7.985   6.262  0.0130  1.4238 -2.0625
 9468SOL     OW39622   9.615   5.295   4.427  0.0017 -0.1924 -0.1898
 9468SOL    HW139623   9.644   5.310   4.333  0.0460 -2.5369 -0.5839
 9468SOL    HW239624   9.694   5.299   4.488 -0.1671  2.3753 -0.0789
 9469SOL     OW39625   7.050   1.433   1.380 -0.3140 -0.6696  0.1967
 9469SOL    HW139626   7.036   1.365   1.308  0.6243  1.2114 -1.8121
 9469SOL    HW239627   6.967   1.488   1.391 -0.3006 -0.6617  0.2656
 9470SOL     OW39628   5.584   4.262   6.618  0.0622  0.2340 -0.4422
 9470SOL    HW139629   5.515   4.315   6.569 -1.0068  0.8397  1.6787
 9470SOL    HW239630   5.671   4.312   6.618 -0.9142  2.0185  1.4903
 9471SOL     OW39631   8.437   4.256   3.376 -0.4481  0.0077 -0.3055
 9471SOL    HW139632   8.349   4.253   3.424  0.8276 -0.0031  2.0616
 9471SOL    HW239633   8.499   4.188   3.414  0.9669  0.7666 -1.2011
 9472SOL     OW39634   7.122   1.006   2.524 -0.6347  0.1254 -0.7660
 9472SOL    HW139635   7.151   1.101   2.534 -1.9873  0.4922 -0.2698
 9472SOL    HW239636   7.156   0.952   2.601  1.5989 -0.1893 -1.9035
 9473SOL     OW39637   5.583   8.741   6.749 -0.4030  0.1102 -0.7714
 9473SOL    HW139638   5.555   8.724   6.654 -3.5270 -0.7042  0.2355
 9473SOL    HW239639   5.554   8.665   6.806 -0.7717  1.7348  1.2550
 9474SOL     OW39640   2.343   3.548   6.598 -0.1391 -0.2662 -0.4945
 9474SOL    HW139641   2.368   3.538   6.502 -0.0259 -0.5189 -0.4388
 9474SOL    HW239642   2.425   3.559   6.653 -0.2997  1.7368 -0.6391
 9475SOL     OW39643   0.015   4.782   4.949  0.2063  0.1480  0.3334
 9475SOL    HW139644   0.043   4.869   4.908  0.2128 -0.4938 -1.0485
 9475SOL    HW239645   0.079   4.710   4.922 -1.6998 -0.9715 -1.3770
 9476SOL     OW39646   8.949   7.434   5.435  0.1579 -0.5438 -0.3101
 9476SOL    HW139647   8.965   7.530   5.411 -0.1328 -0.4546 -0.1594
 9476SOL    HW239648   8.862   7.404   5.395 -1.0842  0.0510  1.8249
 9477SOL     OW39649   3.295   2.252   5.315 -0.0262  0.1622 -0.1198
 9477SOL    HW139650   3.318   2.329   5.374  0.4694  0.2723 -0.4538
 9477SOL    HW239651   3.378   2.211   5.280 -0.2821 -0.7412  0.3254
 9478SOL     OW39652   0.011   5.700   2.130  0.0463 -0.0531 -0.0643
 9478SOL    HW139653  -0.013   5.783   2.180  0.8713  0.3379 -0.3085
 9478SOL    HW239654   0.051   5.724   2.042  2.1480 -0.6326  0.6847
 9479SOL     OW39655   0.340   3.905   5.241 -0.2504 -0.1181  0.3957
 9479SOL    HW139656   0.338   3.874   5.146 -0.1658  2.6800 -0.5554
 9479SOL    HW239657   0.252   3.944   5.266  0.2889  0.7916  0.9048
 9480SOL     OW39658   4.352   3.145   6.061 -0.2907  0.1320 -0.3557
 9480SOL    HW139659   4.367   3.070   5.997  1.1353  0.9338 -0.9735
 9480SOL    HW239660   4.400   3.126   6.147  0.3759  0.5044 -0.6441
 9481SOL     OW39661   4.705   1.413   1.072 -0.2648  0.1699 -0.0182
 9481SOL    HW139662   4.622   1.358   1.079  0.8202 -1.2781  1.7801
 9481SOL    HW239663   4.760   1.381   0.995 -0.3873 -0.2554  0.0701
 9482SOL     OW39664   0.759   4.368   2.712  0.8125 -0.0968 -0.8623
 9482SOL    HW139665   0.667   4.365   2.671 -0.2414  0.8825  1.3288
 9482SOL    HW239666   0.759   4.434   2.787  2.7524 -1.6929  0.5684
 9483SOL     OW39667   1.000   9.153   6.533  0.4792 -0.6737 -0.3294
 9483SOL    HW139668   0.954   9.093   6.466 -0.7567  1.4250 -1.4068
 9483SOL    HW239669   1.062   9.214   6.485  1.7777 -1.1049  0.7815
 9484SOL     OW39670   8.894   4.879   6.368  0.1475  0.0234 -0.2049
 9484SOL    HW139671   8.797   4.874   6.343  0.4244  2.0856 -1.8556
 9484SOL    HW239672   8.925   4.789   6.397 -2.0343 -0.8727 -0.5059
 9485SOL     OW39673   3.663   9.533   1.641 -0.3487 -0.7707 -0.6234
 9485SOL    HW139674   3.579   9.479   1.650 -0.8595  0.2609  0.9538
 9485SOL    HW239675   3.644   9.629   1.662  0.8567 -0.2101 -2.0271
 9486SOL     OW39676   3.410   9.326   5.262  0.1074  0.3872  0.4462
 9486SOL    HW139677   3.413   9.263   5.184 -1.6903  2.0314 -1.0057
 9486SOL    HW239678   3.501   9.337   5.300  0.7130 -1.8362 -0.2832
 9487SOL     OW39679   4.613   7.623   1.793  1.0723 -0.4397 -0.0738
 9487SOL    HW139680   4.621   7.658   1.699  1.2526 -0.9853 -0.2637
 9487SOL    HW239681   4.568   7.534   1.791 -0.0360  0.1036  0.4755
 9488SOL     OW39682   9.364   2.856   4.631  0.2198  0.2349  0.6722
 9488SOL    HW139683   9.375   2.778   4.692  3.2685  0.7473  0.8899
 9488SOL    HW239684   9.401   2.834   4.541 -0.5541  0.8200  0.2061
 9489SOL     OW39685   6.248   2.104   2.494  0.3235  0.4977  0.2296
 9489SOL    HW139686   6.304   2.110   2.577 -0.1699  0.1348  0.5954
 9489SOL    HW239687   6.306   2.080   2.416  0.6538 -0.0563  0.6400
 9490SOL     OW39688   1.896   1.905   5.200  0.8397 -0.7532  0.4951
 9490SOL    HW139689   1.903   1.814   5.158  0.9272 -0.9744  0.9825
 9490SOL    HW239690   1.800   1.928   5.214  0.8399 -1.0602  0.9967
 9491SOL     OW39691   1.555   0.648   0.767 -0.7686  0.6603  0.3331
 9491SOL    HW139692   1.501   0.693   0.696 -0.6027 -0.8181 -0.7774
 9491SOL    HW239693   1.578   0.555   0.736 -0.2721  0.1757  2.1252
 9492SOL     OW39694   7.452   9.939   4.800 -0.5668  0.4837  0.0710
 9492SOL    HW139695   7.541   9.924   4.756 -0.5279  0.9656 -0.0148
 9492SOL    HW239696   7.445   9.880   4.881 -0.4338 -0.0301 -0.2881
 9493SOL     OW39697   9.536   3.863   5.596  0.6448  0.4823 -0.1799
 9493SOL    HW139698   9.487   3.921   5.661  0.1674  0.7399 -0.7673
 9493SOL    HW239699   9.631   3.893   5.589  0.3472  1.3241 -0.6369
 9494SOL     OW39700   4.584   8.143   2.272  0.3872  0.3769 -0.3417
 9494SOL    HW139701   4.547   8.195   2.195  0.5035  0.0687 -0.6092
 9494SOL    HW239702   4.511   8.090   2.315  1.0294 -2.5977 -2.7466
 9495SOL     OW39703   8.867   3.993   2.084 -0.0450 -0.4830  0.8084
 9495SOL    HW139704   8.849   4.075   2.137  0.2478 -0.8654  1.5103
 9495SOL    HW239705   8.912   3.925   2.142 -1.4058 -1.6037  0.5780
 9496SOL     OW39706   2.666   3.450   0.272 -0.4224 -0.4053 -0.3368
 9496SOL    HW139707   2.733   3.416   0.206 -1.1628 -1.1836 -0.6958
 9496SOL    HW239708   2.656   3.383   0.346 -0.0285  0.1922  0.2512
 9497SOL     OW39709   5.985   2.910   3.849 -0.3999  0.4495  0.1720
 9497SOL    HW139710   5.991   2.912   3.948  0.6346  0.9953  0.1008
 9497SOL    HW239711   6.025   2.825   3.814  0.1308  0.7083  0.1563
 9498SOL     OW39712   0.227   3.186   2.690 -0.8132  0.1423 -0.3017
 9498SOL    HW139713   0.217   3.163   2.786 -0.5707  1.0653 -0.0518
 9498SOL    HW239714   0.176   3.121   2.634  1.5392 -2.2911  0.2651
 9499SOL     OW39715   0.989   2.693   3.943 -0.1901  0.5036 -0.0085
 9499SOL    HW139716   0.972   2.752   4.022 -1.0330 -0.9152  0.8984
 9499SOL    HW239717   1.048   2.617   3.970 -5.4553 -3.5518  1.0260
 9500SOL     OW39718   8.027   9.436   0.703 -0.4437  0.3587 -0.1582
 9500SOL    HW139719   8.017   9.452   0.801  1.7257  2.3008 -0.2273
 9500SOL    HW239720   7.975   9.504   0.652  0.6588  1.0593 -0.3655
 9501SOL     OW39721   8.680   9.212   1.050  0.3448 -0.2155  0.1618
 9501SOL    HW139722   8.711   9.301   1.014  0.3081  0.2425  1.2399
 9501SOL    HW239723   8.620   9.227   1.128 -0.5394 -1.1742 -0.3137
 9502SOL     OW39724   3.615   5.383   2.750 -0.4297 -0.6669 -1.0405
 9502SOL    HW139725   3.694   5.432   2.713  0.7027 -1.4777  0.2616
 9502SOL    HW239726   3.622   5.286   2.727 -0.3192 -0.9734  0.2878
 9503SOL     OW39727   2.679   4.456   0.397 -0.3076  0.0679 -1.0400
 9503SOL    HW139728   2.777   4.464   0.380 -0.6133 -0.8317 -3.4201
 9503SOL    HW239729   2.662   4.385   0.465  0.7539  1.0462  0.2554
 9504SOL     OW39730   2.047   5.902   6.342  0.1170  0.3377  0.6442
 9504SOL    HW139731   2.128   5.901   6.400 -0.6125 -0.8042  1.6494
 9504SOL    HW239732   1.991   5.982   6.363 -0.2084 -0.1403  1.6051
 9505SOL     OW39733   0.971   1.996   2.638  0.5612 -0.3595 -0.1841
 9505SOL    HW139734   1.027   2.041   2.707 -0.7497 -0.9013  1.2647
 9505SOL    HW239735   0.978   1.897   2.649  0.1979 -0.4437 -0.7005
 9506SOL     OW39736   6.394   0.502   1.806  0.1323 -0.2855 -0.6399
 9506SOL    HW139737   6.374   0.424   1.748  0.5923 -0.6106 -0.3679
 9506SOL    HW239738   6.354   0.488   1.896 -1.9363  0.9278 -1.3347
 9507SOL     OW39739   9.963   5.569   4.118  0.3348  0.0207  0.0720
 9507SOL    HW139740  10.031   5.615   4.061  0.8658 -0.8989 -0.0359
 9507SOL    HW239741   9.929   5.488   4.072 -1.1894  0.7190 -0.0775
 9508SOL     OW39742   2.301   8.153   0.505 -0.0126  0.5232  0.1267
 9508SOL    HW139743   2.355   8.221   0.456 -1.1863  0.8328 -0.7337
 9508SOL    HW239744   2.212   8.141   0.461 -0.5459 -0.2101  1.3581
 9509SOL     OW39745   2.862   2.099   6.429 -0.3429  0.4066 -0.0872
 9509SOL    HW139746   2.766   2.117   6.451 -1.1266 -0.2218 -2.8367
 9509SOL    HW239747   2.914   2.184   6.433 -1.4267  1.1028 -0.5351
 9510SOL     OW39748   1.651   5.312   1.194 -0.3795 -0.2032 -0.0982
 9510SOL    HW139749   1.553   5.329   1.178 -0.4373 -0.1484  0.3079
 9510SOL    HW239750   1.661   5.235   1.257 -0.1297 -1.6159 -1.8047
 9511SOL     OW39751   8.518   9.940   3.850 -0.0891 -0.4076  0.5132
 9511SOL    HW139752   8.588   9.872   3.827 -1.2572 -1.3434 -0.3210
 9511SOL    HW239753   8.535   9.976   3.942  1.1316 -1.0735  0.5543
 9512SOL     OW39754   9.499   1.466   3.453  0.3923  0.0685 -0.8153
 9512SOL    HW139755   9.472   1.549   3.501 -1.0444 -0.0482 -1.3953
 9512SOL    HW239756   9.558   1.411   3.512  0.2349  0.8593  0.0774
 9513SOL     OW39757   4.602   2.482   2.216  0.3485  0.4341 -0.9613
 9513SOL    HW139758   4.605   2.516   2.122 -0.0687  0.7610 -0.8591
 9513SOL    HW239759   4.695   2.475   2.251  0.4003  2.7348 -0.5508
 9514SOL     OW39760   5.792   1.225   0.847  0.3304  0.0598  0.0477
 9514SOL    HW139761   5.833   1.138   0.819  0.8351  0.3927 -0.2524
 9514SOL    HW239762   5.715   1.246   0.787  0.3457 -0.0707 -0.0170
 9515SOL     OW39763   7.076   1.248   3.741  0.1343 -0.1775 -0.0197
 9515SOL    HW139764   6.995   1.193   3.721 -1.3645  1.4521  1.4004
 9515SOL    HW239765   7.125   1.209   3.819  0.7983 -1.2086 -0.9280
 9516SOL     OW39766   3.394   9.806   1.753 -0.0798 -0.1922 -0.4551
 9516SOL    HW139767   3.430   9.775   1.665  0.9162  0.7085 -0.3775
 9516SOL    HW239768   3.343   9.732   1.796 -0.2796 -0.7473 -1.6355
 9517SOL     OW39769   0.460   5.516   1.442 -0.2033  0.6790  0.2387
 9517SOL    HW139770   0.464   5.432   1.497 -0.9841  0.6465  0.2507
 9517SOL    HW239771   0.368   5.525   1.402  1.1759 -0.8712 -3.5138
 9518SOL     OW39772   8.553   1.909   4.303 -0.8109  0.4320 -0.0178
 9518SOL    HW139773   8.609   1.916   4.220  0.5235  0.7094  0.8806
 9518SOL    HW239774   8.479   1.976   4.299 -0.6320  0.5873 -0.8847
 9519SOL     OW39775   0.883   7.020   0.694  0.1450 -0.3010 -0.7611
 9519SOL    HW139776   0.917   7.112   0.674  0.4165 -0.3399 -0.4917
 9519SOL    HW239777   0.787   7.025   0.721  0.1550 -0.0956 -0.7636
 9520SOL     OW39778   4.185   5.309   3.227 -0.3663 -0.0739  0.3193
 9520SOL    HW139779   4.242   5.277   3.303  1.0149  0.4828 -0.4740
 9520SOL    HW239780   4.159   5.405   3.243  0.0630  0.0937  0.0000
 9521SOL     OW39781   0.855   5.983   5.354  0.2542  0.6658  0.0621
 9521SOL    HW139782   0.776   5.936   5.317 -0.2362  0.5719  1.2057
 9521SOL    HW239783   0.880   5.943   5.442  0.5794  1.7402  0.4701
 9522SOL     OW39784   3.864   2.880   6.423  0.1657  0.1975  0.4870
 9522SOL    HW139785   3.951   2.925   6.445  0.7366 -1.4865  1.8379
 9522SOL    HW239786   3.810   2.939   6.363  1.4765  2.0457  1.0694
 9523SOL     OW39787   1.977   4.226   0.425  0.0957 -0.1041 -0.2142
 9523SOL    HW139788   1.989   4.285   0.345  2.2689 -0.2266 -0.0040
 9523SOL    HW239789   1.934   4.278   0.499  0.4841  0.7384 -0.5848
 9524SOL     OW39790   8.801   4.483   3.806 -0.4594  0.0774  0.2118
 9524SOL    HW139791   8.886   4.535   3.806 -1.1864  1.2928  0.7220
 9524SOL    HW239792   8.791   4.434   3.720  1.0977 -0.6475  0.4312
 9525SOL     OW39793   1.340   3.889   4.361  0.2730 -0.2376  0.1770
 9525SOL    HW139794   1.271   3.960   4.349  0.9238 -0.1247 -3.8027
 9525SOL    HW239795   1.296   3.805   4.393 -1.5830  0.1397 -1.2598
 9526SOL     OW39796   9.856   1.571   5.882  0.0050 -0.5881 -0.2327
 9526SOL    HW139797   9.803   1.499   5.837 -0.4301 -1.1062  1.0757
 9526SOL    HW239798   9.798   1.650   5.898  0.4447  0.0174 -1.5379
 9527SOL     OW39799   5.236   8.547   1.532 -0.5570  0.4748  0.0375
 9527SOL    HW139800   5.219   8.546   1.631 -2.1220  0.5080 -0.2111
 9527SOL    HW239801   5.182   8.620   1.490 -0.6825 -0.1935 -0.9734
 9528SOL     OW39802   0.600   7.085   5.728  0.2791 -0.3054  0.4642
 9528SOL    HW139803   0.624   7.009   5.788  1.4940  0.1664  0.5945
 9528SOL    HW239804   0.578   7.166   5.782  1.5186  0.1613  0.2817
 9529SOL     OW39805   8.179   0.576   0.518  0.3738  0.4842  0.0322
 9529SOL    HW139806   8.180   0.476   0.516 -1.1625  0.4773 -0.7981
 9529SOL    HW239807   8.108   0.607   0.582 -1.1938  1.0406 -1.9439
 9530SOL     OW39808   3.539   7.260   1.629  0.3606 -0.3635 -0.6493
 9530SOL    HW139809   3.591   7.193   1.681  1.4793  0.9512 -0.0305
 9530SOL    HW239810   3.472   7.305   1.689  0.5512  0.0289 -0.7279
 9531SOL     OW39811   0.294   1.808   5.426  0.0818 -0.3322 -0.1404
 9531SOL    HW139812   0.203   1.818   5.467 -0.3304  0.4528 -1.2342
 9531SOL    HW239813   0.303   1.718   5.384  0.1358 -0.7451  0.7312
 9532SOL     OW39814   1.387   8.617   3.878  0.5984  0.2333 -0.2807
 9532SOL    HW139815   1.478   8.581   3.856  0.5197 -0.6353  0.7934
 9532SOL    HW239816   1.394   8.684   3.951  0.1386 -1.4664  1.3667
 9533SOL     OW39817   1.695   6.755   5.087 -0.1973  0.0316 -0.7139
 9533SOL    HW139818   1.747   6.812   5.024  1.3861 -0.0898  0.4612
 9533SOL    HW239819   1.713   6.785   5.181 -0.6799 -1.3210 -0.1858
 9534SOL     OW39820   8.480   8.278   4.361  0.1785  0.1523  0.0629
 9534SOL    HW139821   8.470   8.179   4.348 -1.2038  0.0494  1.7359
 9534SOL    HW239822   8.404   8.325   4.318  1.1072  0.5483 -1.1799
 9535SOL     OW39823   9.243   4.065   5.463 -0.1203 -0.3651  0.4468
 9535SOL    HW139824   9.184   4.107   5.394  0.5534  2.4772  1.5472
 9535SOL    HW239825   9.338   4.065   5.430  0.0954  0.3571  1.0399
 9536SOL     OW39826   0.467   1.390   5.149 -0.2660 -0.2588 -0.3812
 9536SOL    HW139827   0.373   1.375   5.180 -0.1480 -3.3192 -1.2925
 9536SOL    HW239828   0.529   1.328   5.198  1.2133  1.3459 -0.1732
 9537SOL     OW39829   6.569   1.155   3.138 -0.0665 -0.2433  0.6657
 9537SOL    HW139830   6.502   1.100   3.188 -0.6079  1.2698  1.6378
 9537SOL    HW239831   6.550   1.252   3.152  0.6567  0.2080 -1.3287
 9538SOL     OW39832   2.313   9.465   2.061 -0.3393  0.4887 -0.1565
 9538SOL    HW139833   2.412   9.477   2.058 -0.1608 -1.2498 -2.0090
 9538SOL    HW239834   2.289   9.402   2.134 -0.2719  2.4309  1.5848
 9539SOL     OW39835   4.973   1.282   1.514  0.4108  0.2735 -0.6141
 9539SOL    HW139836   4.911   1.244   1.583  0.2511 -0.8360 -1.3642
 9539SOL    HW239837   4.920   1.334   1.448  0.1533 -1.3764 -1.7341
 9540SOL     OW39838   7.697   9.225   2.129 -0.3925  0.0670 -0.2478
 9540SOL    HW139839   7.711   9.128   2.151  0.5811  0.1367 -0.5124
 9540SOL    HW239840   7.782   9.275   2.148  0.1657  0.2997 -3.1562
 9541SOL     OW39841   8.180   9.909   0.990 -0.0762 -0.2839  0.0777
 9541SOL    HW139842   8.276   9.897   0.965 -0.2284 -1.7122  0.1188
 9541SOL    HW239843   8.129   9.942   0.911  0.2139 -0.7661 -0.3130
 9542SOL     OW39844   0.994   1.034   4.028 -0.4020 -0.1729  0.1758
 9542SOL    HW139845   0.929   1.025   4.104 -0.8612 -0.0621 -0.2010
 9542SOL    HW239846   1.067   1.097   4.055 -1.5504  1.3275 -0.1229
 9543SOL     OW39847   2.587   6.212   5.093  0.2755  0.2771 -0.0570
 9543SOL    HW139848   2.561   6.137   5.033 -0.5949  1.2310 -0.8821
 9543SOL    HW239849   2.660   6.181   5.155  0.0794 -1.1707 -0.5252
 9544SOL     OW39850   1.443   9.732   2.784  0.2034 -0.0048 -0.0662
 9544SOL    HW139851   1.407   9.817   2.745 -0.2944  0.3591  1.1683
 9544SOL    HW239852   1.410   9.721   2.878  0.5023 -1.4206 -0.1102
 9545SOL     OW39853   1.666   3.902   2.065 -0.0644  0.8771  0.1890
 9545SOL    HW139854   1.648   3.874   2.159 -0.3384  3.0254  0.8139
 9545SOL    HW239855   1.723   3.985   2.066  0.2395  0.6941 -1.5465
 9546SOL     OW39856   8.833   6.434   2.922  0.2356 -0.4013  0.2425
 9546SOL    HW139857   8.790   6.385   2.999  0.1313 -0.5903  0.0637
 9546SOL    HW239858   8.913   6.383   2.891  0.3555 -0.2541  0.3125
 9547SOL     OW39859   9.737   8.322   6.170  0.4118 -0.4276  0.1973
 9547SOL    HW139860   9.830   8.355   6.154  0.7315 -1.7369 -0.7888
 9547SOL    HW239861   9.740   8.225   6.193 -0.7275 -0.5251 -0.0522
 9548SOL     OW39862   8.132   6.833   5.015 -0.3118 -0.0421  0.7233
 9548SOL    HW139863   8.171   6.910   5.065 -2.3413  0.8745  0.9394
 9548SOL    HW239864   8.057   6.865   4.957 -0.5137 -1.6963  0.0374
 9549SOL     OW39865   0.573   1.168   1.259 -0.5570 -0.4452  0.3564
 9549SOL    HW139866   0.619   1.243   1.307  0.9678  0.1327 -1.9476
 9549SOL    HW239867   0.625   1.084   1.270 -1.4421 -0.8573  1.6117
 9550SOL     OW39868   1.457   8.637   1.552  0.2987  0.0902 -0.2643
 9550SOL    HW139869   1.455   8.694   1.470 -0.5025  0.2147 -0.1680
 9550SOL    HW239870   1.446   8.694   1.633  0.2407 -0.1192 -0.1239
 9551SOL     OW39871   9.934   2.233   5.313  0.2733  0.3979 -0.5651
 9551SOL    HW139872   9.915   2.156   5.252 -0.1064  0.2714 -0.2874
 9551SOL    HW239873  10.026   2.224   5.350  0.7452  0.8162 -1.6258
 9552SOL     OW39874   8.199   1.923   1.048 -0.1784  0.2013  0.4030
 9552SOL    HW139875   8.290   1.926   1.091 -0.0255  0.5787  0.0454
 9552SOL    HW239876   8.131   1.959   1.112  0.0777  0.9449  0.2513
 9553SOL     OW39877   0.074   9.779   5.467 -0.0441  0.2637  0.5493
 9553SOL    HW139878   0.015   9.755   5.390 -0.4945  1.5680  0.4750
 9553SOL    HW239879   0.039   9.862   5.511 -0.1914 -0.8641  2.5999
 9554SOL     OW39880   0.807   2.786   6.394 -0.6087  0.1989  0.5728
 9554SOL    HW139881   0.828   2.716   6.326  0.4335 -0.3726  1.4665
 9554SOL    HW239882   0.766   2.865   6.348 -0.6820 -0.4971 -0.6015
 9555SOL     OW39883   0.056   6.633   3.514 -0.4389  0.4555 -0.0325
 9555SOL    HW139884   0.040   6.650   3.416 -0.3268 -1.5442 -0.4222
 9555SOL    HW239885   0.066   6.721   3.561  0.3555  1.4393 -1.9512
 9556SOL     OW39886   2.241   7.950   6.529 -0.7703 -0.0443 -0.5169
 9556SOL    HW139887   2.229   8.025   6.593  0.3119 -0.8597  0.6550
 9556SOL    HW239888   2.251   7.986   6.436  0.0863  1.2689  0.0775
 9557SOL     OW39889   3.784   6.486   1.398  0.4686 -0.4009  0.5619
 9557SOL    HW139890   3.822   6.509   1.308  2.8718  0.0793  1.6797
 9557SOL    HW239891   3.732   6.563   1.433  0.7642 -0.0580  0.2486
 9558SOL     OW39892   2.310   4.941   2.947  0.2948 -0.1705 -0.0414
 9558SOL    HW139893   2.353   4.928   3.037 -0.7583 -0.5319  0.4185
 9558SOL    HW239894   2.294   5.038   2.931  0.3418 -0.1154  0.2355
 9559SOL     OW39895   1.593   1.827   2.476  0.0543 -0.2143 -0.3938
 9559SOL    HW139896   1.563   1.732   2.489 -0.8979 -0.1329 -1.8503
 9559SOL    HW239897   1.561   1.860   2.387 -3.4450  2.9311  1.8788
 9560SOL     OW39898   6.076   1.413   1.902  0.1491  0.2553 -0.2577
 9560SOL    HW139899   6.084   1.497   1.957 -1.3742 -0.4328  1.0360
 9560SOL    HW239900   6.121   1.428   1.814 -0.7247  2.6998 -0.3435
 9561SOL     OW39901   0.539   6.655   6.286  0.1443 -0.2182 -0.3912
 9561SOL    HW139902   0.487   6.738   6.263  0.0452 -0.0611  0.3911
 9561SOL    HW239903   0.498   6.612   6.367  0.3044 -0.9348 -0.6887
 9562SOL     OW39904   7.884   3.139   2.701  0.0616 -0.4241 -0.5511
 9562SOL    HW139905   7.871   3.157   2.799 -2.3927 -2.0247 -0.5436
 9562SOL    HW239906   7.822   3.197   2.648  0.0932 -0.8433 -1.0508
 9563SOL     OW39907   6.784   4.953   0.769 -0.0984  0.1299  0.4647
 9563SOL    HW139908   6.763   4.969   0.866  1.7385 -1.7020  1.2174
 9563SOL    HW239909   6.810   5.039   0.726 -1.3157  1.0309  1.5126
 9564SOL     OW39910   3.327   9.586   3.511  0.0643  0.2183 -0.1788
 9564SOL    HW139911   3.382   9.608   3.592 -0.2982  0.0153  0.1238
 9564SOL    HW239912   3.336   9.660   3.444 -0.2676  0.7701  0.3762
 9565SOL     OW39913   3.563   8.794   6.481  0.3660  0.0605 -0.3434
 9565SOL    HW139914   3.584   8.712   6.428  0.1320  0.3322 -0.8526
 9565SOL    HW239915   3.548   8.871   6.419  2.6124  0.9766  0.1804
 9566SOL     OW39916   9.757   4.556   1.498  0.3572  0.0203  0.1519
 9566SOL    HW139917   9.854   4.579   1.488 -0.2452  2.4468 -0.3961
 9566SOL    HW239918   9.748   4.459   1.518  2.9730 -0.0459  1.2558
 9567SOL     OW39919   4.125   5.584   0.750 -0.3340  0.3063  0.1602
 9567SOL    HW139920   4.158   5.624   0.665 -0.3975 -0.4227 -0.2053
 9567SOL    HW239921   4.106   5.487   0.737 -0.0345  0.1183  1.0903
 9568SOL     OW39922   1.319   1.844   5.132  0.7636 -1.0739 -0.0334
 9568SOL    HW139923   1.250   1.865   5.063  0.4446 -2.2356 -0.0640
 9568SOL    HW239924   1.326   1.921   5.196 -0.3865 -0.8585 -0.1618
 9569SOL     OW39925   6.648   1.295   3.892 -0.3230  0.2606  0.0311
 9569SOL    HW139926   6.709   1.374   3.887 -0.5072  0.4037  0.0526
 9569SOL    HW239927   6.684   1.230   3.958  0.0891  0.1016 -0.3425
 9570SOL     OW39928   1.202   0.194   2.794 -0.1716 -0.2405 -0.3402
 9570SOL    HW139929   1.249   0.263   2.848 -1.2576 -0.6937  1.2210
 9570SOL    HW239930   1.136   0.237   2.734 -0.1824  0.1463 -0.0485
 9571SOL     OW39931   3.738   3.476   2.056  1.0647 -0.2684  0.3433
 9571SOL    HW139932   3.655   3.458   2.003  1.4239  0.1649 -0.3624
 9571SOL    HW239933   3.774   3.566   2.033  1.1592 -0.0233  1.4102
 9572SOL     OW39934   4.600   1.335   3.332 -0.0254  0.0601  0.5208
 9572SOL    HW139935   4.526   1.333   3.266  0.0101  1.7102  0.4046
 9572SOL    HW239936   4.650   1.422   3.324 -0.1048  0.3523  2.7888
 9573SOL     OW39937   8.817   7.238   3.047 -0.2835  0.4783  0.2954
 9573SOL    HW139938   8.828   7.209   3.142  0.2628  0.0416  0.1041
 9573SOL    HW239939   8.865   7.174   2.987  0.4029  1.4301 -0.1843
 9574SOL     OW39940   8.091   7.019   2.920  0.2704 -0.8597 -0.0917
 9574SOL    HW139941   8.088   6.985   3.014 -2.3734 -0.6813 -0.0691
 9574SOL    HW239942   7.998   7.025   2.883  1.0366  1.5867 -1.8215
 9575SOL     OW39943   6.545   7.326   3.666  0.2029  0.2217 -0.0626
 9575SOL    HW139944   6.478   7.380   3.717  0.5266  0.9833 -0.4307
 9575SOL    HW239945   6.563   7.369   3.578 -0.6031 -1.2859 -0.9764
 9576SOL     OW39946   7.509   0.323   6.706 -0.1162  0.0876 -0.0572
 9576SOL    HW139947   7.472   0.363   6.790 -0.3750  1.7149 -0.9199
 9576SOL    HW239948   7.434   0.304   6.642  0.2422  0.4914 -0.6008
 9577SOL     OW39949   8.445   2.095   1.797 -0.4547  0.0987  0.4454
 9577SOL    HW139950   8.542   2.081   1.815 -0.4009 -0.2351 -0.1170
 9577SOL    HW239951   8.419   2.188   1.823  0.4581  0.8491 -1.3139
 9578SOL     OW39952   1.068   7.266   1.963 -0.3003 -0.1591 -1.0882
 9578SOL    HW139953   1.099   7.183   2.009 -0.3448  0.1650 -0.4709
 9578SOL    HW239954   1.065   7.250   1.864  0.3335 -0.6801 -1.0255
 9579SOL     OW39955   8.612   7.359   4.957 -0.4227 -0.8763  0.2365
 9579SOL    HW139956   8.568   7.269   4.954 -0.3201 -0.9490  0.7943
 9579SOL    HW239957   8.576   7.410   5.035  0.5157 -0.9525  0.7180
 9580SOL     OW39958   9.245   6.943   2.943  0.7010 -0.6676  0.0334
 9580SOL    HW139959   9.205   6.901   3.025 -1.2817  0.8877 -0.1090
 9580SOL    HW239960   9.295   6.873   2.891 -0.9966 -2.4601  0.7480
 9581SOL     OW39961   1.931   7.989   2.560  0.0467 -0.6396  0.4979
 9581SOL    HW139962   1.875   7.988   2.642 -1.3844 -2.1385 -0.4804
 9581SOL    HW239963   1.957   7.896   2.535 -1.1152 -0.4016 -1.8037
 9582SOL     OW39964   9.090   5.695   1.625 -0.2596 -0.1205 -0.5117
 9582SOL    HW139965   9.157   5.710   1.697 -0.4014 -0.7971 -0.2361
 9582SOL    HW239966   9.113   5.612   1.574 -1.8222 -1.3045  0.6665
 9583SOL     OW39967   2.539   0.657   6.243 -0.5111  0.3157 -0.2023
 9583SOL    HW139968   2.525   0.756   6.238 -0.3637  0.4818  2.1373
 9583SOL    HW239969   2.636   0.637   6.255 -0.6680 -0.0538  0.4858
 9584SOL     OW39970   9.024   3.667   0.688 -0.2936  0.0447  0.6027
 9584SOL    HW139971   8.980   3.619   0.613  0.2089 -0.7664  0.8203
 9584SOL    HW239972   8.966   3.743   0.718  0.7377  2.1621 -2.4675
 9585SOL     OW39973   7.809   3.506   4.704 -0.7236 -0.5964  0.2457
 9585SOL    HW139974   7.739   3.444   4.739 -0.4588 -0.4687  1.0031
 9585SOL    HW239975   7.893   3.454   4.687 -0.3298 -0.3499  1.4039
 9586SOL     OW39976   9.314   6.352   1.382  0.0209 -0.1398  0.0221
 9586SOL    HW139977   9.333   6.442   1.341  1.5342  0.2322  1.5013
 9586SOL    HW239978   9.216   6.345   1.400 -0.0002  1.6093  0.7442
 9587SOL     OW39979   9.219   2.975   5.356  0.0921  0.0206 -0.3069
 9587SOL    HW139980   9.299   2.919   5.335  0.4566  0.5770 -0.4225
 9587SOL    HW239981   9.140   2.916   5.371  0.6047 -0.5503  0.1609
 9588SOL     OW39982   8.184   9.574   5.664 -0.4811  0.1501  0.4313
 9588SOL    HW139983   8.241   9.534   5.592 -1.1697  0.5215 -0.3316
 9588SOL    HW239984   8.242   9.615   5.734  0.1940  0.7572 -0.4684
 9589SOL     OW39985   4.928   7.940   4.477  0.1887  0.3491 -0.4385
 9589SOL    HW139986   5.009   7.898   4.437  0.2100  1.3577 -1.4711
 9589SOL    HW239987   4.947   7.967   4.572  0.0078 -2.4232  0.4365
 9590SOL     OW39988   8.707   5.355   6.541  0.4410 -0.1222 -0.0023
 9590SOL    HW139989   8.793   5.407   6.543  1.5601 -1.6935 -3.6706
 9590SOL    HW239990   8.722   5.263   6.576 -0.1285  0.0914  0.8184
 9591SOL     OW39991   8.051   5.752   3.274 -0.1928  0.3311  0.1509
 9591SOL    HW139992   7.983   5.799   3.329 -0.5390  2.5555 -2.0631
 9591SOL    HW239993   8.084   5.814   3.202  2.8424 -1.2899  0.0725
 9592SOL     OW39994   3.642   6.668   1.008 -0.3943  0.5710  0.0278
 9592SOL    HW139995   3.714   6.667   0.940 -0.5041 -0.4679 -0.0917
 9592SOL    HW239996   3.590   6.582   1.002 -0.8545  0.7806  0.9259
 9593SOL     OW39997   4.830   4.750   3.489  0.1998 -0.7255 -0.5763
 9593SOL    HW139998   4.812   4.731   3.393 -0.0275 -0.0034 -0.6799
 9593SOL    HW239999   4.813   4.667   3.543 -1.4818 -0.6187 -0.9254
 9594SOL     OW40000   8.108   4.284   4.803  0.2640  0.1386 -0.4281
 9594SOL    HW140001   8.202   4.284   4.768  0.0246  0.7823 -1.0875
 9594SOL    HW240002   8.053   4.349   4.750 -0.5256 -0.1556  0.0272
 9595SOL     OW40003   8.605   6.530   2.811 -0.3346 -0.2597 -0.2997
 9595SOL    HW140004   8.581   6.520   2.714  0.5902  0.2833 -0.5917
 9595SOL    HW240005   8.694   6.488   2.828 -0.5114 -0.3850  0.3191
 9596SOL     OW40006   8.935   6.255   4.395  0.1271  0.3871 -0.7898
 9596SOL    HW140007   8.904   6.320   4.327 -0.9908  0.4861 -0.1864
 9596SOL    HW240008   9.018   6.210   4.362 -0.6188  0.1487 -2.3778
 9597SOL     OW40009   4.136   9.355   2.142 -0.2171 -0.4966 -0.6299
 9597SOL    HW140010   4.226   9.371   2.102 -0.8603 -1.1974 -2.4156
 9597SOL    HW240011   4.093   9.442   2.164  1.0766 -0.1625  0.7245
 9598SOL     OW40012   8.573   0.677   0.091  0.0781 -0.0377 -0.4839
 9598SOL    HW140013   8.531   0.676   0.181 -2.0786  0.4635 -1.4596
 9598SOL    HW240014   8.623   0.591   0.076 -0.5505 -0.6163  0.7040
 9599SOL     OW40015   9.565   0.108   2.389 -0.3844 -0.0147 -0.4978
 9599SOL    HW140016   9.469   0.131   2.368 -0.6160 -2.3956 -2.3268
 9599SOL    HW240017   9.573   0.082   2.485 -1.1860  2.0282  0.1470
 9600SOL     OW40018   7.961   5.996   4.557 -0.5216 -0.0225  0.1572
 9600SOL    HW140019   7.962   5.951   4.468  1.4347 -1.3932  0.8303
 9600SOL    HW240020   7.906   5.942   4.621 -0.8267  0.2560  0.1322
 9601SOL     OW40021   1.900   9.467   1.928 -0.5662 -0.1356  0.2687
 9601SOL    HW140022   1.819   9.505   1.974 -0.5232 -0.3477  0.5206
 9601SOL    HW240023   1.972   9.536   1.924  0.3718 -0.9262  2.8637
 9602SOL     OW40024   9.586   1.082   2.523  0.0342  0.1277 -0.2878
 9602SOL    HW140025   9.522   1.054   2.452  0.1796  1.3932 -0.9411
 9602SOL    HW240026   9.653   1.146   2.485  0.8636 -0.1212  0.7034
 9603SOL     OW40027   6.781   1.675   4.178  0.5599  0.3960  0.0762
 9603SOL    HW140028   6.686   1.645   4.170  0.9874 -1.3944  1.3508
 9603SOL    HW240029   6.784   1.774   4.180 -1.3275  0.4757  0.4565
 9604SOL     OW40030   5.575   9.058   2.466 -0.4224 -0.3228 -0.2582
 9604SOL    HW140031   5.511   9.026   2.396  0.3831  0.6577 -1.4857
 9604SOL    HW240032   5.659   9.005   2.461 -0.0479  0.2985 -0.5969
 9605SOL     OW40033   2.527   5.824   5.907  0.5189 -0.3700  0.4859
 9605SOL    HW140034   2.626   5.826   5.889  0.5074 -0.2064  0.4492
 9605SOL    HW240035   2.491   5.917   5.908  0.7283 -0.3003  2.4751
 9606SOL     OW40036   5.077   0.768   0.982  0.0671  0.0454 -0.0870
 9606SOL    HW140037   5.158   0.758   0.925  1.5217  0.8389  1.8081
 9606SOL    HW240038   5.045   0.863   0.979 -0.1615 -0.0269  0.0217
 9607SOL     OW40039   8.148   2.889   1.299 -0.4110  0.4843 -0.3791
 9607SOL    HW140040   8.089   2.812   1.322  0.5970 -0.4816 -1.0013
 9607SOL    HW240041   8.108   2.940   1.223 -0.9714  0.4495 -0.1073
 9608SOL     OW40042   3.258   5.760   0.859  0.0192 -0.7116  0.0347
 9608SOL    HW140043   3.292   5.667   0.845  1.5748 -0.1128 -0.2989
 9608SOL    HW240044   3.319   5.808   0.923  0.5597  0.7985 -1.5827
 9609SOL     OW40045   3.541   7.287   1.369  0.2539  0.1265 -0.6315
 9609SOL    HW140046   3.558   7.277   1.467 -0.5682 -1.3238 -0.6181
 9609SOL    HW240047   3.450   7.326   1.354  0.3214  0.2142 -0.8200
 9610SOL     OW40048   4.303   1.593   3.979  0.0966  0.1052 -0.0646
 9610SOL    HW140049   4.290   1.643   4.065 -0.9287 -0.3930  0.0788
 9610SOL    HW240050   4.356   1.510   3.997 -0.5589 -0.2649  0.1863
 9611SOL     OW40051   3.127   3.236   0.988 -0.2003  0.1172  0.1053
 9611SOL    HW140052   3.162   3.196   0.904 -0.4517  0.6357 -0.2472
 9611SOL    HW240053   3.027   3.223   0.993 -0.2875  0.7109 -0.0232
 9612SOL     OW40054   0.164   1.064   4.588  0.2412  0.3122  0.3507
 9612SOL    HW140055   0.129   1.015   4.508  1.3997 -2.4710  1.4762
 9612SOL    HW240056   0.091   1.072   4.656  0.1460 -0.2310  0.3180
 9613SOL     OW40057   8.703   8.863   6.291 -0.2677  0.2487  0.4681
 9613SOL    HW140058   8.797   8.876   6.324 -0.7222  0.4625  1.7222
 9613SOL    HW240059   8.651   8.812   6.360 -0.9725 -0.2166 -0.3948
 9614SOL     OW40060   4.158   0.164   5.289  0.0891 -0.1183 -0.5994
 9614SOL    HW140061   4.184   0.218   5.209 -0.2963  0.0991 -0.5811
 9614SOL    HW240062   4.071   0.117   5.272  0.2126 -0.3984 -0.4598
 9615SOL     OW40063   9.675   4.245   2.655  0.0886 -0.5249  0.3524
 9615SOL    HW140064   9.704   4.150   2.663 -0.0398 -0.6060 -0.1405
 9615SOL    HW240065   9.576   4.249   2.644  0.2500 -0.4285 -1.2190
 9616SOL     OW40066   0.080   3.632   2.060 -0.2503 -0.2809 -0.2534
 9616SOL    HW140067   0.053   3.548   2.013  0.5227 -1.0065  0.5802
 9616SOL    HW240068   0.178   3.646   2.050 -0.0594 -0.4785  1.1883
 9617SOL     OW40069   7.142   9.013   1.869  0.1277  0.3265  0.6431
 9617SOL    HW140070   7.181   8.963   1.792  0.9612  0.1150  1.2009
 9617SOL    HW240071   7.160   8.963   1.954 -3.0357 -0.8114  0.7200
 9618SOL     OW40072   8.536   8.749   4.674  0.0810 -0.0782 -0.0444
 9618SOL    HW140073   8.439   8.742   4.648  0.4005  0.7060 -1.5012
 9618SOL    HW240074   8.548   8.825   4.737 -0.4600 -1.0465  1.2601
 9619SOL     OW40075   9.938   7.598   5.929 -0.3931 -0.2246  0.1409
 9619SOL    HW140076  10.027   7.561   5.956  0.5827 -0.8339 -3.5758
 9619SOL    HW240077   9.946   7.696   5.913 -0.2006 -0.3708 -0.7262
 9620SOL     OW40078   1.488   7.883   0.538 -0.5454  0.8063 -0.0484
 9620SOL    HW140079   1.446   7.852   0.453 -0.7274  0.7840  0.0477
 9620SOL    HW240080   1.427   7.860   0.615 -0.9248  1.8581 -0.0290
 9621SOL     OW40081   3.914   6.109   3.407  0.1130  0.1565  0.0132
 9621SOL    HW140082   3.896   6.197   3.453  0.5636  0.1837  0.1418
 9621SOL    HW240083   3.864   6.037   3.454 -0.6743  0.4273 -0.4136
 9622SOL     OW40084   8.481   4.169   2.054  0.0465  0.3041  0.0647
 9622SOL    HW140085   8.516   4.076   2.066  0.3068  0.2248 -1.1822
 9622SOL    HW240086   8.404   4.184   2.116  1.1101 -0.1464  1.5272
 9623SOL     OW40087   6.433   8.059   2.709 -0.2072  0.0469 -0.1088
 9623SOL    HW140088   6.523   8.015   2.716 -1.7090 -2.8572  1.5619
 9623SOL    HW240089   6.384   8.048   2.795 -2.3650  1.2123 -1.1653
 9624SOL     OW40090   0.157   2.417   2.909  0.3336 -0.5140 -0.2719
 9624SOL    HW140091   0.186   2.339   2.963 -1.5351 -1.1656 -0.1563
 9624SOL    HW240092   0.147   2.497   2.968  0.3102 -0.6959 -0.0288
 9625SOL     OW40093   9.846   3.572   2.828 -0.1686  0.3636 -0.3003
 9625SOL    HW140094   9.861   3.663   2.790 -1.0497  0.1425 -1.1826
 9625SOL    HW240095   9.918   3.510   2.796 -0.2789  0.4486 -0.7095
 9626SOL     OW40096   3.623   9.916   0.704 -0.2313  0.6737  0.3246
 9626SOL    HW140097   3.565   9.990   0.735 -1.8409 -0.7072  0.6893
 9626SOL    HW240098   3.683   9.948   0.630 -3.1694  1.5286 -1.7594
 9627SOL     OW40099   3.141   7.676   5.549 -0.4102  0.3556  0.0380
 9627SOL    HW140100   3.218   7.625   5.509 -0.4393  1.7313 -1.8403
 9627SOL    HW240101   3.138   7.660   5.647  0.9507 -1.4654 -0.1899
 9628SOL     OW40102   2.612   5.184   2.924  0.4582  0.4310  0.0341
 9628SOL    HW140103   2.627   5.085   2.924  0.6961  0.4637  0.8828
 9628SOL    HW240104   2.533   5.206   2.868 -0.7886 -0.4240  1.4314
 9629SOL     OW40105   5.336   2.417   1.158  0.1055 -0.3193 -0.3157
 9629SOL    HW140106   5.261   2.403   1.094 -0.1398 -0.7085  0.0509
 9629SOL    HW240107   5.396   2.490   1.125 -1.2724  1.0426  0.1518
 9630SOL     OW40108   1.583   8.695   5.683  0.4135 -0.1759  0.0923
 9630SOL    HW140109   1.498   8.729   5.645 -0.2844 -0.1020  1.6658
 9630SOL    HW240110   1.571   8.676   5.781  1.3581 -2.9328 -0.2583
 9631SOL     OW40111   3.210   3.606   0.948  0.2436 -0.3037  0.6449
 9631SOL    HW140112   3.143   3.616   1.021 -0.4117  1.2104 -0.1312
 9631SOL    HW240113   3.249   3.514   0.950 -1.6121 -1.0899  1.3128
 9632SOL     OW40114   7.007   9.566   4.564 -0.2275 -0.0286 -0.0981
 9632SOL    HW140115   6.943   9.643   4.576  0.0189  0.4834 -1.9132
 9632SOL    HW240116   6.978   9.511   4.486  0.5824 -0.7818  0.1292
 9633SOL     OW40117   9.965   9.314   2.921  0.1321 -0.1592 -0.0999
 9633SOL    HW140118   9.986   9.362   3.006  0.2975 -1.2095  0.4628
 9633SOL    HW240119   9.967   9.215   2.937 -2.3711 -0.3421 -0.7274
 9634SOL     OW40120   1.303   4.175   6.749 -0.1483 -0.1502  0.2757
 9634SOL    HW140121   1.278   4.138   6.660 -0.5844 -0.0309  0.3474
 9634SOL    HW240122   1.260   4.264   6.762  0.5992  0.2204  0.2568
 9635SOL     OW40123   1.948   3.489   4.530  0.2463  0.4853 -0.3433
 9635SOL    HW140124   1.849   3.477   4.521  0.0603  1.0177  1.0168
 9635SOL    HW240125   1.982   3.541   4.452 -0.9380  2.5878  0.5160
 9636SOL     OW40126   3.883   0.223   6.137 -0.3144 -0.6917 -0.1104
 9636SOL    HW140127   3.907   0.185   6.226 -2.5672 -2.9670 -0.4005
 9636SOL    HW240128   3.809   0.290   6.148 -0.7180 -1.1061 -0.2594
 9637SOL     OW40129   9.236   5.237   6.102 -0.0425  0.1024  0.1566
 9637SOL    HW140130   9.254   5.196   6.012 -0.2859  2.0324 -0.8115
 9637SOL    HW240131   9.166   5.184   6.150 -0.0918 -0.8120 -0.9056
 9638SOL     OW40132   7.015   1.138   1.852 -0.3322 -0.0710  0.3059
 9638SOL    HW140133   7.054   1.192   1.927 -0.8456 -0.6788  1.0205
 9638SOL    HW240134   6.934   1.089   1.885 -0.5527 -0.3503 -0.6483
 9639SOL     OW40135   0.413   2.348   4.731 -0.4554 -0.1633 -0.2494
 9639SOL    HW140136   0.457   2.344   4.821 -1.5145  1.4482  0.3691
 9639SOL    HW240137   0.347   2.273   4.723  0.6876 -1.1770 -0.2609
 9640SOL     OW40138   3.281   5.164   6.090  0.6919  0.0035  0.1902
 9640SOL    HW140139   3.319   5.235   6.148 -0.2903  1.4422 -0.9034
 9640SOL    HW240140   3.184   5.152   6.110  0.1801  0.9622 -1.5333
 9641SOL     OW40141   5.611   0.085   0.951  0.0883 -0.1190 -0.6390
 9641SOL    HW140142   5.632   0.001   1.000 -0.4211  0.0279 -0.1757
 9641SOL    HW240143   5.676   0.156   0.978 -1.0506  0.3649  0.8764
 9642SOL     OW40144   4.041   2.154   1.077 -0.1297 -0.0953 -0.2377
 9642SOL    HW140145   4.082   2.079   1.026  1.3868  0.0552  0.7205
 9642SOL    HW240146   4.076   2.153   1.171 -0.6212  1.3971 -0.0273
 9643SOL     OW40147   7.847   7.923   2.612  0.8009 -0.0645  0.0336
 9643SOL    HW140148   7.799   7.935   2.525  0.5869  0.4932  0.2247
 9643SOL    HW240149   7.934   7.973   2.609  0.9530 -0.3305  0.0144
 9644SOL     OW40150   4.360   3.051   2.266 -0.3157  0.1528  0.1084
 9644SOL    HW140151   4.308   3.101   2.335 -2.0530  0.7147 -1.5696
 9644SOL    HW240152   4.370   2.955   2.296 -2.5829 -0.0406  0.3318
 9645SOL     OW40153   9.322   4.536   1.770  0.2989 -0.1976 -0.0705
 9645SOL    HW140154   9.247   4.483   1.809 -0.1556 -0.7143 -1.5920
 9645SOL    HW240155   9.404   4.478   1.765 -0.3316 -0.9614 -2.1944
 9646SOL     OW40156   9.434   4.414   4.542  0.6378 -0.2980  1.1673
 9646SOL    HW140157   9.496   4.353   4.590  0.4719 -2.4746 -1.2854
 9646SOL    HW240158   9.340   4.382   4.554  0.6252 -1.0866 -0.8410
 9647SOL     OW40159   9.472   4.620   6.139 -1.0293 -0.1322 -0.1288
 9647SOL    HW140160   9.550   4.558   6.132 -0.5015  0.5348 -0.1526
 9647SOL    HW240161   9.455   4.640   6.236 -1.4464 -0.6172 -0.0961
 9648SOL     OW40162   3.508   3.446   1.079  0.0736  0.7459  0.7591
 9648SOL    HW140163   3.516   3.411   1.172 -3.2058 -0.6128  0.5903
 9648SOL    HW240164   3.539   3.376   1.014  0.6848  1.0175  0.7604
 9649SOL     OW40165   3.787   4.514   1.546 -0.2030 -0.3152 -0.7224
 9649SOL    HW140166   3.755   4.607   1.561  0.3170 -0.1331 -0.7452
 9649SOL    HW240167   3.734   4.472   1.472 -2.0075 -0.8339  0.8035
 9650SOL     OW40168   8.109   3.531   4.725 -0.7160 -0.4725 -0.4196
 9650SOL    HW140169   8.160   3.617   4.719 -0.3965 -0.6152  0.2729
 9650SOL    HW240170   8.146   3.465   4.660  1.1202 -1.1731  1.3137
 9651SOL     OW40171   2.485   0.223   1.065 -0.1113 -0.5134 -0.1276
 9651SOL    HW140172   2.432   0.174   0.996 -0.9644  0.8240 -0.4331
 9651SOL    HW240173   2.575   0.247   1.029 -0.9423  1.1167 -1.1685
 9652SOL     OW40174   2.302   0.306   6.192 -0.2203 -0.0741 -0.0644
 9652SOL    HW140175   2.261   0.370   6.257 -0.8326 -1.2513  0.7418
 9652SOL    HW240176   2.319   0.218   6.237  0.7363 -0.4481 -1.1063
 9653SOL     OW40177   9.848   0.119   5.088  0.1176  0.5043 -0.5759
 9653SOL    HW140178   9.752   0.096   5.073  0.3662 -0.2401 -1.0749
 9653SOL    HW240179   9.886   0.160   5.006 -0.3007  2.6824  0.2872
 9654SOL     OW40180   6.779   6.785   4.623 -0.3698  0.1482  0.0565
 9654SOL    HW140181   6.869   6.773   4.583  0.5748  3.1845  1.0896
 9654SOL    HW240182   6.714   6.814   4.552  0.2401  1.0855 -0.1297
 9655SOL     OW40183   2.941   9.839   0.285  0.1661  0.0708 -0.2257
 9655SOL    HW140184   2.988   9.917   0.328  0.5534  0.3095 -1.0786
 9655SOL    HW240185   2.875   9.873   0.218 -1.2664 -0.2591  0.9919
 9656SOL     OW40186   6.626   0.702   4.058  0.0698 -0.0427 -0.2777
 9656SOL    HW140187   6.693   0.719   4.130 -0.8489  1.7920  0.1742
 9656SOL    HW240188   6.534   0.712   4.096 -0.4300 -0.0070 -1.4887
 9657SOL     OW40189   3.031   5.919   2.267  0.2679  0.1340  0.7327
 9657SOL    HW140190   2.967   5.848   2.238  1.5687  0.2687 -2.7550
 9657SOL    HW240191   3.125   5.886   2.258  0.7856  0.9117  3.0360
 9658SOL     OW40192   7.566   3.450   4.316 -0.0645 -0.3788 -0.7001
 9658SOL    HW140193   7.633   3.401   4.372  1.6645  1.0377 -1.4746
 9658SOL    HW240194   7.491   3.482   4.374  0.2478 -1.4148  0.2965
 9659SOL     OW40195   7.593   9.854   2.017 -0.4573 -0.1791  0.3494
 9659SOL    HW140196   7.531   9.805   1.956 -0.5159  0.2387  0.0662
 9659SOL    HW240197   7.632   9.932   1.968 -1.2734  0.7386  1.1504
 9660SOL     OW40198   0.657   1.747   4.129 -0.2226 -0.0742  0.0897
 9660SOL    HW140199   0.588   1.695   4.181  1.3584 -0.4474  1.8635
 9660SOL    HW240200   0.677   1.699   4.044 -0.5325 -1.1383  0.6018
 9661SOL     OW40201   1.232   0.215   0.928  0.0837  0.0493  0.3434
 9661SOL    HW140202   1.170   0.268   0.986 -1.5665 -1.1751 -0.2444
 9661SOL    HW240203   1.179   0.145   0.879  1.9667 -1.1013 -0.0798
 9662SOL     OW40204   1.036   6.924   5.800 -0.3582 -0.2102  0.5895
 9662SOL    HW140205   1.031   6.915   5.701 -1.0938  0.6215  0.5436
 9662SOL    HW240206   1.130   6.942   5.828 -0.1373 -0.5320  0.0534
 9663SOL     OW40207   9.251   7.415   1.136 -0.7912 -0.0325 -0.1123
 9663SOL    HW140208   9.311   7.360   1.079 -0.9777 -0.4989  0.1422
 9663SOL    HW240209   9.276   7.512   1.128 -1.0564 -0.0590 -1.2745
 9664SOL     OW40210   8.234   7.163   3.795 -0.1010 -0.4396  0.0041
 9664SOL    HW140211   8.164   7.219   3.838  0.7410  0.3878  0.3150
 9664SOL    HW240212   8.285   7.114   3.867  0.4339 -0.0936 -0.1397
 9665SOL     OW40213   9.351   0.029   5.204  0.2800 -0.5837  0.0491
 9665SOL    HW140214   9.356  -0.070   5.213  1.1694 -0.7186 -1.7312
 9665SOL    HW240215   9.430   0.071   5.249  1.5725 -0.8874 -1.8938
 9666SOL     OW40216   0.252   7.696   2.024 -0.0896 -0.1925 -0.4767
 9666SOL    HW140217   0.202   7.767   2.075  1.5735  0.1144  0.7599
 9666SOL    HW240218   0.254   7.720   1.927 -3.0596 -0.6456 -0.7029
 9667SOL     OW40219   9.012   6.101   0.255  0.1972 -0.3868 -0.0409
 9667SOL    HW140220   9.019   6.007   0.222  0.1202 -0.9949  1.6764
 9667SOL    HW240221   8.918   6.121   0.281  0.6464 -0.5826  1.7850
 9668SOL     OW40222   4.047   5.950   3.087  0.2705 -0.0301 -0.2222
 9668SOL    HW140223   4.019   6.045   3.083 -0.0993 -0.1130  0.3627
 9668SOL    HW240224   4.147   5.945   3.094  0.3950  0.2736 -1.7697
 9669SOL     OW40225   2.699   3.643   1.909 -0.1678 -0.2988  0.5044
 9669SOL    HW140226   2.685   3.563   1.968 -0.6891 -0.9787 -0.5151
 9669SOL    HW240227   2.654   3.627   1.821  0.4252  0.7834 -0.0015
 9670SOL     OW40228   0.349   2.623   2.821  0.3805  0.2704 -0.4803
 9670SOL    HW140229   0.279   2.561   2.857 -0.0281  0.2270 -1.3455
 9670SOL    HW240230   0.370   2.598   2.726 -0.1131  1.7332 -0.9831
 9671SOL     OW40231   8.671   5.273   0.443  0.2077 -0.5429  0.4786
 9671SOL    HW140232   8.687   5.242   0.537  0.4500 -1.4045  0.1541
 9671SOL    HW240233   8.700   5.369   0.434  0.5123 -0.5684  1.1885
 9672SOL     OW40234   9.639   1.158   2.109 -0.0654  0.3745 -0.2055
 9672SOL    HW140235   9.626   1.113   2.021 -1.2723 -0.4123  0.3761
 9672SOL    HW240236   9.724   1.125   2.151 -0.2163 -0.2851 -0.4212
 9673SOL     OW40237   9.000   7.385   3.324  0.4065 -0.5279  0.0380
 9673SOL    HW140238   9.015   7.420   3.417  2.5323  0.3215 -0.5850
 9673SOL    HW240239   9.027   7.456   3.258 -1.2433 -1.0625 -1.2307
 9674SOL     OW40240   1.568   4.013   4.467 -0.2912 -0.6634  0.8926
 9674SOL    HW140241   1.512   3.946   4.418 -0.4605  0.2173 -0.1396
 9674SOL    HW240242   1.509   4.066   4.529 -0.9225  1.2652 -1.2711
 9675SOL     OW40243   5.671   7.419   4.791 -0.2924 -0.2432 -0.6307
 9675SOL    HW140244   5.626   7.446   4.705 -0.3386  0.5947 -0.3452
 9675SOL    HW240245   5.760   7.377   4.770  1.2044  2.9535 -0.9689
 9676SOL     OW40246   4.779   9.789   4.578 -0.5323  0.7833  0.0740
 9676SOL    HW140247   4.800   9.765   4.483 -2.0602  1.6643 -0.5050
 9676SOL    HW240248   4.841   9.740   4.640 -0.0599 -0.4193 -1.3320
 9677SOL     OW40249   9.730   9.287   4.702 -0.7372  0.4070  0.8689
 9677SOL    HW140250   9.790   9.364   4.725 -2.4498  1.5736  1.5176
 9677SOL    HW240251   9.783   9.216   4.656  1.0577  1.5830  1.0823
 9678SOL     OW40252   4.478   4.918   5.532 -0.5491  0.4060  0.1764
 9678SOL    HW140253   4.412   4.864   5.479  1.3937 -2.9109  1.0134
 9678SOL    HW240254   4.559   4.935   5.477 -0.5243  1.1730  0.4472
 9679SOL     OW40255   1.087   9.649   2.274 -0.3512  0.0671  0.4480
 9679SOL    HW140256   1.053   9.633   2.181  1.7725 -1.2211 -0.1353
 9679SOL    HW240257   1.069   9.568   2.330  0.7483 -0.1909  0.4325
 9680SOL     OW40258   9.436   2.874   2.382  0.5129 -0.2964 -0.1647
 9680SOL    HW140259   9.454   2.898   2.287 -1.0357  0.4310 -0.2898
 9680SOL    HW240260   9.500   2.923   2.442  1.8898 -1.2242 -0.8538
 9681SOL     OW40261   7.295   2.066   0.864  0.2302 -0.2339 -0.0739
 9681SOL    HW140262   7.389   2.100   0.856 -0.1878  1.1236  0.8765
 9681SOL    HW240263   7.275   2.046   0.959 -0.1457 -1.4237 -0.3948
 9682SOL     OW40264   0.692   8.193   3.636 -0.0621  0.2541  0.0730
 9682SOL    HW140265   0.620   8.195   3.705  0.5188  0.5913  0.6761
 9682SOL    HW240266   0.771   8.246   3.668  0.8718 -0.9746 -0.1180
 9683SOL     OW40267   3.002   4.595   2.053  0.5784  0.1849  0.1408
 9683SOL    HW140268   3.100   4.574   2.053  0.8144  1.1028  2.8875
 9683SOL    HW240269   2.984   4.668   1.988  1.7565  0.1959 -0.1897
 9684SOL     OW40270   3.608   0.888   3.580  0.5351  0.1013  0.2915
 9684SOL    HW140271   3.532   0.929   3.630  1.5561  0.4556  1.5817
 9684SOL    HW240272   3.667   0.838   3.643  2.7105  1.8690 -0.2704
 9685SOL     OW40273   2.817   2.892   2.555  0.0659 -0.1283  0.0255
 9685SOL    HW140274   2.779   2.800   2.540 -1.1466  0.4566 -0.5073
 9685SOL    HW240275   2.743   2.957   2.569  0.9260  0.7751  0.4587
 9686SOL     OW40276   0.945   6.238   3.737 -0.1888 -0.0923  0.4597
 9686SOL    HW140277   0.858   6.243   3.687  0.4039  0.5505 -0.5122
 9686SOL    HW240278   0.930   6.190   3.823 -1.1961 -1.3371 -0.3827
 9687SOL     OW40279   3.162   8.809   0.255 -0.2931 -0.0808 -0.0740
 9687SOL    HW140280   3.136   8.853   0.342 -0.6595  0.4825 -0.4640
 9687SOL    HW240281   3.152   8.710   0.263 -1.0113  0.0189  0.2971
 9688SOL     OW40282   3.066   1.936   4.373  0.2288 -0.4851 -0.3562
 9688SOL    HW140283   2.988   1.955   4.434  0.6812  0.9871 -0.2101
 9688SOL    HW240284   3.064   1.840   4.346 -2.0426 -0.3106 -0.9122
 9689SOL     OW40285   2.927   4.046   2.230 -0.1051  0.4995 -0.8282
 9689SOL    HW140286   2.913   4.008   2.138 -2.0650  1.4396 -0.9409
 9689SOL    HW240287   2.960   3.974   2.291  0.4847 -0.3120 -2.0820
 9690SOL     OW40288   8.230   3.666   4.160  0.5305  0.1083 -0.2846
 9690SOL    HW140289   8.160   3.634   4.225  1.1437  1.5752  1.1168
 9690SOL    HW240290   8.204   3.755   4.124  1.1869  0.1992 -0.5338
 9691SOL     OW40291   8.839   6.658   3.389  0.8970 -0.6272 -0.2775
 9691SOL    HW140292   8.902   6.735   3.389  1.6373 -1.2282 -0.3905
 9691SOL    HW240293   8.765   6.675   3.323 -0.6999  1.3785  1.9698
 9692SOL     OW40294   5.357   8.065   2.356 -0.1264  0.0523 -0.1048
 9692SOL    HW140295   5.413   8.076   2.437  0.5197  1.7938 -0.7667
 9692SOL    HW240296   5.412   8.081   2.274 -1.3586  0.8568 -0.8048
 9693SOL     OW40297   3.512   1.504   2.394 -0.5255 -0.1465  0.4772
 9693SOL    HW140298   3.470   1.593   2.377 -0.1288 -0.0871 -0.1931
 9693SOL    HW240299   3.577   1.512   2.470 -1.5287 -0.1816  1.3378
 9694SOL     OW40300   2.294   3.041   2.459  0.2916 -0.0938  0.0957
 9694SOL    HW140301   2.374   3.046   2.519 -0.2898  1.2130  0.7649
 9694SOL    HW240302   2.231   2.972   2.493  1.1998 -1.2548 -0.5307
 9695SOL     OW40303   9.610   5.736   0.474  0.9951  0.0945  0.8604
 9695SOL    HW140304   9.591   5.834   0.464 -0.3972 -0.2214  0.2014
 9695SOL    HW240305   9.704   5.717   0.446  0.5264  0.8963 -1.3897
 9696SOL     OW40306   2.903   9.383   4.278  0.2387 -0.0153 -0.2234
 9696SOL    HW140307   2.923   9.461   4.219 -0.6003  1.0513  0.8524
 9696SOL    HW240308   2.927   9.406   4.372  0.1899 -1.1446  0.0751
 9697SOL     OW40309   8.520   8.463   5.327  0.3443  0.4348 -0.2534
 9697SOL    HW140310   8.592   8.518   5.285  0.4185  1.5189  1.2504
 9697SOL    HW240311   8.512   8.486   5.424 -1.5805 -0.1460 -0.2435
 9698SOL     OW40312   4.355   4.884   4.680  0.6245  0.3128 -0.8580
 9698SOL    HW140313   4.295   4.957   4.711  0.3813  0.3000 -1.2991
 9698SOL    HW240314   4.333   4.800   4.729  0.3020  0.3160 -0.9962
 9699SOL     OW40315   9.950   5.121   0.532  0.5636  0.9260  0.3197
 9699SOL    HW140316  10.036   5.073   0.548 -0.0447 -0.0401  0.7018
 9699SOL    HW240317   9.937   5.190   0.604  0.2745  0.0239  1.1420
 9700SOL     OW40318   6.406   1.102   4.793 -0.0900 -0.1991 -0.3979
 9700SOL    HW140319   6.427   1.023   4.737  0.2083 -1.1474  1.0136
 9700SOL    HW240320   6.431   1.083   4.888 -3.9286 -0.0039  0.7252
 9701SOL     OW40321   1.992   0.596   5.289  0.4955  0.2523 -0.2194
 9701SOL    HW140322   2.072   0.542   5.263  0.5258  0.2926 -0.2110
 9701SOL    HW240323   1.915   0.535   5.309  0.3220  0.2407 -0.9060
 9702SOL     OW40324   0.895   0.367   1.595  0.4067  0.0574  0.1035
 9702SOL    HW140325   0.994   0.372   1.582  0.2618  0.5174 -0.8241
 9702SOL    HW240326   0.864   0.273   1.582  0.8116 -0.2148  1.0611
 9703SOL     OW40327   4.755   3.064   3.629  0.0399 -0.0835 -0.0544
 9703SOL    HW140328   4.766   3.162   3.614 -0.3838  0.0225  0.3063
 9703SOL    HW240329   4.720   3.021   3.545  0.2543  0.0679 -0.2211
 9704SOL     OW40330   0.509   6.000   1.073 -0.1407  0.0443  0.5288
 9704SOL    HW140331   0.583   5.989   1.139 -1.4669 -0.8961  1.8929
 9704SOL    HW240332   0.474   6.094   1.078  1.0348  0.5318 -0.2193
 9705SOL     OW40333   8.945   2.885   3.090 -0.0165 -0.6153 -0.7774
 9705SOL    HW140334   8.906   2.795   3.111 -2.0079  0.0662 -1.3840
 9705SOL    HW240335   8.885   2.932   3.024  0.3387  1.6490  0.4794
 9706SOL     OW40336   0.343   6.030   4.329  0.1145 -0.6804  0.4798
 9706SOL    HW140337   0.400   5.998   4.253 -0.9243 -1.6412  0.0951
 9706SOL    HW240338   0.303   5.952   4.376 -0.1046 -0.0447  1.3593
 9707SOL     OW40339   2.088   3.742   5.813  0.5255  0.1141 -0.2732
 9707SOL    HW140340   2.064   3.827   5.860  2.0195  0.3314  0.1285
 9707SOL    HW240341   2.090   3.667   5.878  3.4485  0.5724  0.2310
 9708SOL     OW40342   7.764   7.145   5.095  0.2102  0.8989 -0.4148
 9708SOL    HW140343   7.734   7.049   5.095  1.0408  0.6314 -1.3077
 9708SOL    HW240344   7.713   7.196   5.026 -1.4251  1.4988  1.1981
 9709SOL     OW40345   3.417   9.717   0.628 -0.6289  0.1099 -0.1479
 9709SOL    HW140346   3.442   9.641   0.569 -1.0721 -0.8483  0.8801
 9709SOL    HW240347   3.498   9.773   0.647 -0.4722  0.3860 -1.5838
 9710SOL     OW40348   5.882   0.510   1.519 -0.0664  0.1195 -0.6873
 9710SOL    HW140349   5.836   0.596   1.541  0.4401  0.9622 -2.8090
 9710SOL    HW240350   5.981   0.521   1.529 -0.0812 -0.6791  0.5038
 9711SOL     OW40351   9.532   1.685   1.884 -0.6089  0.2226 -0.3102
 9711SOL    HW140352   9.570   1.777   1.885 -0.0161 -0.0286  1.0517
 9711SOL    HW240353   9.514   1.655   1.978  0.7226 -1.6715 -0.6309
 9712SOL     OW40354   1.971   7.171   1.313 -0.5568  0.2621  0.8153
 9712SOL    HW140355   1.901   7.105   1.341 -1.2976  0.9767  0.6530
 9712SOL    HW240356   1.934   7.232   1.244  0.5732 -0.0525 -0.0834
 9713SOL     OW40357   9.253   8.855   4.083  0.5206  0.5599 -0.5701
 9713SOL    HW140358   9.209   8.942   4.104 -2.2140 -0.8328 -0.3778
 9713SOL    HW240359   9.279   8.810   4.168  1.3482  0.8670 -0.6529
 9714SOL     OW40360   0.455   0.778   1.339  0.4216  0.2678  0.0364
 9714SOL    HW140361   0.358   0.804   1.341  0.3017 -0.2773  1.1875
 9714SOL    HW240362   0.465   0.690   1.293  0.5339  0.9901 -1.3583
 9715SOL     OW40363   8.757   9.625   3.245  0.4242  0.4925 -0.1905
 9715SOL    HW140364   8.686   9.575   3.294  0.1674  0.7872 -0.2580
 9715SOL    HW240365   8.781   9.577   3.161  0.2517  0.4346 -0.2049
 9716SOL     OW40366   6.823   1.723   4.564 -0.6981 -0.1995  0.2622
 9716SOL    HW140367   6.910   1.673   4.575 -0.3845  0.0180 -1.1746
 9716SOL    HW240368   6.753   1.660   4.531 -0.4290  0.2018 -1.0743
 9717SOL     OW40369   4.433   0.227   2.482 -0.3233  0.2478  0.4808
 9717SOL    HW140370   4.462   0.162   2.411 -1.6259 -0.1322  0.2844
 9717SOL    HW240371   4.421   0.179   2.568 -2.2449  0.0147  0.1096
 9718SOL     OW40372   2.678   1.218   2.782 -0.1957  0.2047 -1.0983
 9718SOL    HW140373   2.582   1.237   2.762 -0.0546  1.8867 -0.2784
 9718SOL    HW240374   2.717   1.162   2.708 -1.5860  0.1887 -1.8339
 9719SOL     OW40375   9.539   5.498   1.263  0.0878 -0.3069  0.1644
 9719SOL    HW140376   9.460   5.553   1.292  0.7138  0.0488  1.2298
 9719SOL    HW240377   9.518   5.401   1.271 -0.5793 -0.2254 -0.5073
 9720SOL     OW40378   1.547   4.206   0.725 -0.1541 -0.4443  0.4208
 9720SOL    HW140379   1.624   4.144   0.739 -0.5631 -1.2486 -0.8716
 9720SOL    HW240380   1.523   4.209   0.628  0.6505  2.6925  0.2441
 9721SOL     OW40381   1.659   1.630   1.029 -0.0309  0.4244  0.1428
 9721SOL    HW140382   1.746   1.603   0.988  0.4940  2.2612 -0.0124
 9721SOL    HW240383   1.671   1.643   1.128 -0.3039 -0.0191  0.2351
 9722SOL     OW40384   1.657   1.029   1.633  0.2245 -0.2623  0.1470
 9722SOL    HW140385   1.751   1.065   1.629  0.1684  0.1124  1.6565
 9722SOL    HW240386   1.595   1.104   1.656 -0.3115 -0.7143  0.1584
 9723SOL     OW40387   4.683   9.713   3.640  0.5777 -0.6492  0.0541
 9723SOL    HW140388   4.610   9.676   3.582 -0.3817  0.0900  0.7613
 9723SOL    HW240389   4.765   9.657   3.631 -0.0871 -1.5050 -0.7473
 9724SOL     OW40390   4.727   1.870   3.446 -0.0443  0.4245 -0.4402
 9724SOL    HW140391   4.768   1.831   3.528  1.5525  0.0790 -1.3811
 9724SOL    HW240392   4.773   1.956   3.423 -1.5924  1.3837 -0.0396
 9725SOL     OW40393   8.358   9.974   4.672  0.3947  0.1043 -0.3586
 9725SOL    HW140394   8.402   9.893   4.634  1.8691  0.9639 -0.5012
 9725SOL    HW240395   8.334  10.037   4.598  1.3539  0.8304 -0.0566
 9726SOL     OW40396   3.372   6.468   5.190 -0.6540 -0.7914 -0.1746
 9726SOL    HW140397   3.435   6.545   5.203 -1.1322 -0.4054 -0.0989
 9726SOL    HW240398   3.283   6.492   5.229 -1.0880 -1.0076 -1.0142
 9727SOL     OW40399   2.847   9.148   0.316 -0.3075  0.4896 -0.1142
 9727SOL    HW140400   2.942   9.135   0.287 -0.7914 -2.8353 -0.4562
 9727SOL    HW240401   2.833   9.104   0.405 -1.9394 -0.6335 -0.9045
 9728SOL     OW40402   7.165   8.042   3.559  0.3421  0.2569  0.4247
 9728SOL    HW140403   7.160   7.944   3.573  0.2254  0.1648 -0.2478
 9728SOL    HW240404   7.084   8.086   3.599  0.4529  0.0952  0.8272
 9729SOL     OW40405   0.456   6.871   0.850 -0.1318  1.1202 -0.8017
 9729SOL    HW140406   0.390   6.853   0.777 -1.4358  2.8779 -0.0867
 9729SOL    HW240407   0.427   6.824   0.933  0.8831 -0.1593 -1.1534
 9730SOL     OW40408   8.891   6.905   5.748 -0.4301  0.3766 -0.1116
 9730SOL    HW140409   8.932   6.993   5.723 -0.0240  0.4470  0.7982
 9730SOL    HW240410   8.957   6.851   5.800  0.1927 -1.4542 -2.6816
 9731SOL     OW40411   3.102   8.689   2.144 -0.2710  0.7732 -0.4054
 9731SOL    HW140412   3.069   8.703   2.238 -0.1978 -0.7951 -0.1268
 9731SOL    HW240413   3.133   8.775   2.106  1.6040  1.0769  1.7434
 9732SOL     OW40414   9.376   4.376   1.335 -0.4087 -0.4364  0.3576
 9732SOL    HW140415   9.438   4.453   1.352 -1.4996  0.2192  1.4467
 9732SOL    HW240416   9.417   4.292   1.369  1.0084 -0.4352 -1.2904
 9733SOL     OW40417   8.343   7.879   2.126  0.0973  0.9232  0.2239
 9733SOL    HW140418   8.381   7.788   2.140 -2.2518 -0.1961 -0.4297
 9733SOL    HW240419   8.251   7.883   2.165 -0.9211  2.1485 -2.2028
 9734SOL     OW40420   5.565   1.130   3.443 -0.1866  0.1527 -0.1959
 9734SOL    HW140421   5.614   1.043   3.439 -0.9279 -0.3377  0.8005
 9734SOL    HW240422   5.500   1.136   3.368 -0.9392 -0.6746  0.3781
 9735SOL     OW40423   3.860   3.119   4.641 -0.0181 -0.1279  0.2730
 9735SOL    HW140424   3.921   3.186   4.683 -0.7413  0.9373 -0.3509
 9735SOL    HW240425   3.785   3.167   4.594 -1.3171 -1.3987  0.9978
 9736SOL     OW40426   0.316   9.601   0.218 -0.3810 -0.0866 -0.4411
 9736SOL    HW140427   0.386   9.537   0.250  0.3927  0.9431 -0.0585
 9736SOL    HW240428   0.225   9.561   0.234 -0.0376  0.3290  3.0366
 9737SOL     OW40429   9.730   6.342   2.130 -0.1577 -0.1458  0.0864
 9737SOL    HW140430   9.726   6.277   2.206 -1.5139  0.7970  0.8366
 9737SOL    HW240431   9.768   6.429   2.163 -4.0579  1.4801  0.6323
 9738SOL     OW40432   8.789   8.455   3.707 -0.1320 -0.2642  0.6527
 9738SOL    HW140433   8.819   8.362   3.685 -1.7171 -0.5260 -0.4207
 9738SOL    HW240434   8.697   8.452   3.744 -0.6604  0.9857 -0.5380
 9739SOL     OW40435   0.536   2.976   4.065 -0.2612 -0.3686  0.2354
 9739SOL    HW140436   0.569   2.936   4.150  0.5756  0.0749  0.1334
 9739SOL    HW240437   0.585   3.062   4.048 -0.2295 -0.5830 -0.8176
 9740SOL     OW40438   1.778   1.419   0.719 -0.1085  0.4186  0.4987
 9740SOL    HW140439   1.833   1.430   0.802  0.8137 -1.1700  0.1038
 9740SOL    HW240440   1.702   1.485   0.721  0.4346  1.0224  2.1572
 9741SOL     OW40441   3.174   4.813   0.978 -0.3771 -0.0833 -0.2874
 9741SOL    HW140442   3.166   4.713   0.984 -0.0644 -0.1518 -0.8689
 9741SOL    HW240443   3.150   4.854   1.065 -1.0939 -0.6327 -0.2200
 9742SOL     OW40444   9.608   2.877   1.528  0.4221 -0.1334 -0.5845
 9742SOL    HW140445   9.676   2.897   1.457 -0.7255 -1.7761 -2.1953
 9742SOL    HW240446   9.518   2.869   1.486 -0.8069  1.9939  1.5357
 9743SOL     OW40447   4.283   5.163   4.744 -0.2546 -0.1462  0.4300
 9743SOL    HW140448   4.269   5.211   4.658  0.5259  0.7353  0.7838
 9743SOL    HW240449   4.335   5.221   4.807  0.0625 -1.1641  1.1317
 9744SOL     OW40450   3.908   0.618   2.994  0.6541 -0.7303 -0.0760
 9744SOL    HW140451   3.872   0.576   3.078 -0.0177 -2.8153 -1.3709
 9744SOL    HW240452   3.834   0.664   2.946  1.1403  0.8974  0.7026
 9745SOL     OW40453   3.697   7.799   2.239 -0.1765  0.3651 -0.0314
 9745SOL    HW140454   3.765   7.777   2.169  1.1019  0.6789  1.0931
 9745SOL    HW240455   3.661   7.891   2.223  1.0517  0.9391  0.4529
 9746SOL     OW40456   3.286   6.743   2.102 -0.0711 -0.0218  0.4477
 9746SOL    HW140457   3.276   6.714   2.197 -1.6690 -0.9547  0.0092
 9746SOL    HW240458   3.196   6.762   2.063  0.3132 -2.5151 -1.7666
 9747SOL     OW40459   8.729   5.637   6.338 -0.2060 -0.3101 -0.1319
 9747SOL    HW140460   8.754   5.565   6.402 -1.2005 -0.4119  0.1555
 9747SOL    HW240461   8.717   5.723   6.387  0.3602 -0.0848 -0.3829
 9748SOL     OW40462   0.272   6.959   2.780  0.2314 -0.1841 -0.1949
 9748SOL    HW140463   0.284   6.889   2.850  0.6741 -0.2744 -0.3595
 9748SOL    HW240464   0.178   6.957   2.746 -0.2884  0.5416  1.1313
 9749SOL     OW40465   2.172   1.702   2.715  0.1195  0.5159  0.4714
 9749SOL    HW140466   2.175   1.792   2.672  0.7060  0.1129 -0.3534
 9749SOL    HW240467   2.092   1.651   2.682  0.2057  0.4548  0.3555
 9750SOL     OW40468   1.998   3.942   5.944  0.2776 -0.5031 -0.2417
 9750SOL    HW140469   2.040   4.033   5.950 -1.0958  0.1241  0.0784
 9750SOL    HW240470   1.901   3.949   5.969  0.4079 -2.2378  0.7757
 9751SOL     OW40471   1.318   9.994   1.127 -0.4706 -0.0852 -0.2811
 9751SOL    HW140472   1.386  10.064   1.149 -0.1588 -0.6715  0.6477
 9751SOL    HW240473   1.346   9.906   1.166  0.6176 -1.4248 -3.9242
 9752SOL     OW40474   1.057   6.870   1.438 -0.3660 -0.2427  0.5349
 9752SOL    HW140475   1.120   6.877   1.515 -2.3786 -0.1839  2.2325
 9752SOL    HW240476   1.047   6.960   1.394 -0.3366  0.0439  1.1177
 9753SOL     OW40477   2.236   7.665   1.131 -0.3557 -0.3676 -0.0289
 9753SOL    HW140478   2.228   7.765   1.142 -1.7191 -0.5118  0.3761
 9753SOL    HW240479   2.311   7.632   1.187 -1.5279  0.1078  1.8530
 9754SOL     OW40480   0.025   3.687   0.133 -0.1656 -0.1899  0.0056
 9754SOL    HW140481  -0.009   3.622   0.065  1.1417 -2.1609  1.2235
 9754SOL    HW240482   0.125   3.688   0.132 -0.1501  0.7737  0.9807
 9755SOL     OW40483   3.776   9.860   1.121 -0.2472  0.2847 -0.1897
 9755SOL    HW140484   3.856   9.876   1.063  0.4274 -0.4442  0.5316
 9755SOL    HW240485   3.704   9.817   1.066  0.2338 -0.0171 -0.5890
 9756SOL     OW40486   2.398   4.898   5.091  0.1775 -0.0079  0.1618
 9756SOL    HW140487   2.483   4.879   5.140 -0.9085 -0.8942  1.7482
 9756SOL    HW240488   2.419   4.926   4.998  2.1904 -0.5636  0.4225
 9757SOL     OW40489   6.437   8.830   4.494 -0.2347 -0.0303 -0.3044
 9757SOL    HW140490   6.360   8.810   4.433 -1.2728  0.5885  0.7836
 9757SOL    HW240491   6.416   8.796   4.586  1.1763 -0.6558 -0.1944
 9758SOL     OW40492   0.307   6.204   3.626 -0.1080 -0.2649  0.3983
 9758SOL    HW140493   0.356   6.164   3.703 -0.1671  0.6734  0.9293
 9758SOL    HW240494   0.247   6.277   3.659  0.6974  0.8976 -0.6615
 9759SOL     OW40495   8.341   0.219   3.360  0.1469 -0.0647  0.1473
 9759SOL    HW140496   8.306   0.274   3.436  0.3362  2.5596 -1.5969
 9759SOL    HW240497   8.265   0.181   3.309  0.0022 -0.6162  0.7594
 9760SOL     OW40498   5.235   9.921   2.714  0.1705  0.3727  0.0125
 9760SOL    HW140499   5.330   9.892   2.728  0.3226  1.5183  1.4952
 9760SOL    HW240500   5.214   9.922   2.616  1.9212  0.8294 -0.3714
 9761SOL     OW40501   8.305   6.777   0.456  0.2954  0.1574  0.6282
 9761SOL    HW140502   8.293   6.686   0.416 -1.9384  0.6347  0.1508
 9761SOL    HW240503   8.376   6.773   0.526 -0.5687 -2.2370  1.4420
 9762SOL     OW40504   2.323   4.409   1.578  0.0196 -0.2278 -0.3345
 9762SOL    HW140505   2.304   4.479   1.509  1.3806 -1.7089 -2.2695
 9762SOL    HW240506   2.409   4.430   1.624  0.2678 -0.4544 -0.6939
 9763SOL     OW40507   8.156   0.727   6.467  0.1193  0.1713  0.0469
 9763SOL    HW140508   8.210   0.811   6.468  0.3472  0.0205  1.1886
 9763SOL    HW240509   8.203   0.657   6.413  0.8466  0.1830  0.6656
 9764SOL     OW40510   4.483   9.305   2.621  0.1425 -0.2280 -0.0027
 9764SOL    HW140511   4.485   9.328   2.524  1.1587 -0.9634 -0.1631
 9764SOL    HW240512   4.538   9.223   2.637  1.0254  0.6106  1.3746
 9765SOL     OW40513   3.401   5.825   5.109 -0.0379 -0.5003  0.1172
 9765SOL    HW140514   3.420   5.918   5.078 -3.5344  0.0436 -0.5607
 9765SOL    HW240515   3.367   5.827   5.203 -1.7969 -0.9032 -0.4942
 9766SOL     OW40516   1.612   1.807   5.168 -0.1829 -0.3845  0.3297
 9766SOL    HW140517   1.517   1.791   5.140  0.0188 -0.1900 -0.5042
 9766SOL    HW240518   1.636   1.746   5.243 -1.3013  0.3253  1.2703
 9767SOL     OW40519   4.185   4.549   1.172 -0.2409 -0.3344 -0.0974
 9767SOL    HW140520   4.134   4.466   1.146 -2.1795  1.2820 -1.6150
 9767SOL    HW240521   4.152   4.626   1.118  1.1791  1.5546  1.6733
 9768SOL     OW40522   3.931   2.101   3.165  0.3317  0.3676 -0.1382
 9768SOL    HW140523   3.933   2.011   3.209 -2.5841  0.1600 -0.2961
 9768SOL    HW240524   3.924   2.172   3.235  0.1791  0.3135 -0.0974
 9769SOL     OW40525   7.600   4.930   6.473  0.3850  0.4801  0.4032
 9769SOL    HW140526   7.502   4.943   6.480 -0.0650 -1.8420 -0.9643
 9769SOL    HW240527   7.642   5.009   6.430 -0.6794  2.0839  2.2413
 9770SOL     OW40528   4.379   2.293   1.397 -0.8749  0.3788  1.0321
 9770SOL    HW140529   4.286   2.291   1.434 -1.0701 -0.4685  0.5100
 9770SOL    HW240530   4.435   2.225   1.444 -0.7366  0.3387  0.8115
 9771SOL     OW40531   3.011   3.078   3.614 -0.3387  0.3611  0.6226
 9771SOL    HW140532   3.070   3.145   3.569  1.5239 -0.7821  1.2964
 9771SOL    HW240533   3.060   3.037   3.692 -2.3416  0.0059  1.7268
 9772SOL     OW40534   0.556   6.614   1.618 -0.2239  0.7080 -0.4295
 9772SOL    HW140535   0.642   6.660   1.597  0.6768  1.0264  3.5867
 9772SOL    HW240536   0.496   6.676   1.669 -2.4279  0.1017 -2.1586
 9773SOL     OW40537   9.301   8.292   2.524 -0.0818  0.3128  0.1284
 9773SOL    HW140538   9.349   8.378   2.536  0.2224  0.3114 -1.0810
 9773SOL    HW240539   9.283   8.276   2.427  2.0371 -2.1350  0.0685
 9774SOL     OW40540   9.187   7.137   3.409  0.4607 -0.0811 -0.1800
 9774SOL    HW140541   9.281   7.165   3.389  0.5265 -0.7290 -0.7871
 9774SOL    HW240542   9.124   7.211   3.384  0.7619  0.1211 -0.3423
 9775SOL     OW40543   1.007   4.515   4.837 -0.5534  0.0031 -0.2083
 9775SOL    HW140544   0.913   4.488   4.859 -0.4478  0.4791  0.8984
 9775SOL    HW240545   1.051   4.549   4.920  0.9353 -1.1700 -0.5079
 9776SOL     OW40546   8.269   1.707   2.125 -0.1985 -0.3513 -0.2104
 9776SOL    HW140547   8.179   1.669   2.102 -1.3328  1.4517  1.1067
 9776SOL    HW240548   8.263   1.756   2.212  1.8522  0.6324 -0.5947
 9777SOL     OW40549   5.000   5.797   1.403  0.1358  1.2762 -0.0942
 9777SOL    HW140550   4.921   5.767   1.349  1.9550 -0.5355 -1.8494
 9777SOL    HW240551   5.032   5.885   1.369  0.4874  0.7520 -1.1419
 9778SOL     OW40552   2.320   1.089   3.738  0.1556 -0.2504  0.4557
 9778SOL    HW140553   2.252   1.157   3.767  0.2881 -0.7832  2.0582
 9778SOL    HW240554   2.411   1.122   3.761  0.2074 -1.0551  1.4372
 9779SOL     OW40555   2.299   6.514   1.048  0.3922 -1.2602 -0.2487
 9779SOL    HW140556   2.379   6.500   1.106  0.3849 -2.0157 -0.4034
 9779SOL    HW240557   2.219   6.532   1.105  0.7677  0.0142 -0.1154
 9780SOL     OW40558   6.910   3.314   0.646  0.0591  0.4023  0.0303
 9780SOL    HW140559   6.835   3.364   0.690 -0.0608 -0.6561  1.0406
 9780SOL    HW240560   6.974   3.379   0.606 -1.6557  1.3134 -1.2780
 9781SOL     OW40561   3.746   5.261   6.500  0.3352 -0.5724 -0.1852
 9781SOL    HW140562   3.693   5.243   6.416 -0.1894 -0.6686  0.1652
 9781SOL    HW240563   3.767   5.359   6.505 -0.0338 -0.4896 -0.1946
 9782SOL     OW40564   1.204   8.320   1.819 -0.1001 -0.2553  0.4579
 9782SOL    HW140565   1.210   8.331   1.918  0.2564 -0.2936  0.4415
 9782SOL    HW240566   1.239   8.230   1.793  0.9379  0.2216  0.1781
 9783SOL     OW40567   9.720   2.156   5.995 -0.3476  0.4378 -0.3218
 9783SOL    HW140568   9.803   2.126   6.040 -0.7534 -1.5635 -0.8533
 9783SOL    HW240569   9.730   2.251   5.965  2.4572 -0.3421 -2.0463
 9784SOL     OW40570   8.952   9.256   2.942 -0.0111  0.5920  0.0230
 9784SOL    HW140571   8.886   9.209   3.001  1.5428 -1.3270  0.2889
 9784SOL    HW240572   8.933   9.235   2.846 -0.3171  0.7424  0.0517
 9785SOL     OW40573   2.890   1.847   1.781  0.5137  0.0405 -0.3763
 9785SOL    HW140574   2.829   1.768   1.787  1.2474 -0.4527  0.6311
 9785SOL    HW240575   2.980   1.817   1.746  0.6344  0.5203 -0.4823
 9786SOL     OW40576   1.921   0.717   0.012  0.3302  0.4033  0.0728
 9786SOL    HW140577   2.015   0.747   0.028  0.2841 -0.6109  2.3145
 9786SOL    HW240578   1.918   0.617   0.008 -0.3423  0.4856 -2.1166
 9787SOL     OW40579   4.728   1.678   2.740  0.4166 -0.5401  0.5092
 9787SOL    HW140580   4.691   1.587   2.722 -2.5080  0.9328 -1.5070
 9787SOL    HW240581   4.713   1.702   2.836  0.9157 -2.0445  0.9649
 9788SOL     OW40582   9.509   3.446   6.348 -0.8903 -0.3910 -0.5234
 9788SOL    HW140583   9.585   3.510   6.357 -0.0657 -1.1730 -1.7800
 9788SOL    HW240584   9.448   3.478   6.275 -2.1275  0.5718  0.9021
 9789SOL     OW40585   5.346   0.120   0.874 -0.2020 -0.2925  0.3264
 9789SOL    HW140586   5.428   0.072   0.903 -0.3591 -0.0341  1.2325
 9789SOL    HW240587   5.370   0.191   0.807  0.0903 -1.2966 -0.6459
 9790SOL     OW40588   8.107   5.717   1.513 -0.0819 -0.7152 -0.1737
 9790SOL    HW140589   8.092   5.650   1.586 -0.1932 -1.8216 -1.2049
 9790SOL    HW240590   8.193   5.765   1.530 -0.9335  0.2629  1.6092
 9791SOL     OW40591   1.588   5.676   2.820  0.2604 -0.2531  0.0320
 9791SOL    HW140592   1.536   5.639   2.743  2.2137  0.7461 -1.8020
 9791SOL    HW240593   1.558   5.770   2.838 -1.0360 -0.8819  1.3204
 9792SOL     OW40594   8.501   7.397   2.373 -0.1492  0.3206 -0.0484
 9792SOL    HW140595   8.450   7.415   2.458 -0.1663 -2.4161  0.5721
 9792SOL    HW240596   8.598   7.388   2.394 -0.0585  0.4143 -0.4326
 9793SOL     OW40597   2.233   3.925   5.019  0.5303 -0.0276  0.7076
 9793SOL    HW140598   2.321   3.971   5.009  1.3982 -1.5550  1.0318
 9793SOL    HW240599   2.244   3.828   4.995 -0.9776 -0.3189  1.1398
 9794SOL     OW40600   0.070   2.076   0.237 -0.1340 -0.0271 -0.0849
 9794SOL    HW140601   0.105   2.166   0.264 -0.5611  0.2131 -0.3234
 9794SOL    HW240602   0.085   2.063   0.139 -2.3966  0.8670 -0.5765
 9795SOL     OW40603   4.580   7.670   5.950 -0.3289 -0.1117 -0.5158
 9795SOL    HW140604   4.547   7.731   6.023  1.7626  0.9128 -0.4092
 9795SOL    HW240605   4.513   7.670   5.876 -0.6666  1.8666 -0.2585
 9796SOL     OW40606   0.761   3.703   4.396 -0.7950  0.2445  0.3007
 9796SOL    HW140607   0.707   3.713   4.312  0.0399 -0.4945 -0.3345
 9796SOL    HW240608   0.858   3.697   4.372 -0.6427 -1.1371  1.2306
 9797SOL     OW40609   4.269   0.841   3.219 -0.3800 -0.1182  0.3802
 9797SOL    HW140610   4.263   0.817   3.122  1.8845  1.9063 -0.3199
 9797SOL    HW240611   4.266   0.758   3.274  1.0240 -1.5240 -1.5760
 9798SOL     OW40612   5.827   1.621   2.934  0.2303 -0.0754  0.2624
 9798SOL    HW140613   5.811   1.541   2.993 -1.0867 -0.6823 -0.8945
 9798SOL    HW240614   5.790   1.604   2.843  3.8538  0.1589 -1.3323
 9799SOL     OW40615   1.466   7.498   3.409  0.4332  0.1248  0.5189
 9799SOL    HW140616   1.464   7.425   3.341 -1.8250 -0.4644  1.1820
 9799SOL    HW240617   1.535   7.477   3.478  2.1336  0.3008 -1.0788
 9800SOL     OW40618   4.471   2.494   3.918 -0.5671  0.6292 -0.2440
 9800SOL    HW140619   4.415   2.577   3.909 -0.8564  0.4335 -0.2534
 9800SOL    HW240620   4.411   2.415   3.932 -0.2212  0.6262  1.2108
 9801SOL     OW40621   2.079   9.010   5.647 -0.2285 -0.1765 -0.1389
 9801SOL    HW140622   2.062   8.979   5.741 -1.5152 -2.9613 -1.2115
 9801SOL    HW240623   2.164   8.968   5.614 -1.0490 -1.1947 -1.0055
 9802SOL     OW40624   8.419   5.593   5.871 -0.4411  0.5719  0.1038
 9802SOL    HW140625   8.390   5.500   5.894 -2.1728  1.5492  2.0069
 9802SOL    HW240626   8.492   5.621   5.934 -0.7550  0.9265  0.3113
 9803SOL     OW40627   9.113   3.596   6.600 -0.0570 -0.4197 -0.3716
 9803SOL    HW140628   9.161   3.523   6.649  1.8681 -0.5070 -2.3223
 9803SOL    HW240629   9.057   3.557   6.528  2.0362  0.0694 -2.3070
 9804SOL     OW40630   0.461   0.487   6.182  0.4832  0.6526  0.2374
 9804SOL    HW140631   0.427   0.415   6.122  0.7828  1.5292 -1.0021
 9804SOL    HW240632   0.556   0.508   6.159  0.2982  1.6680  0.3686
 9805SOL     OW40633   0.327   9.675   6.492  0.3997 -0.3721 -0.9546
 9805SOL    HW140634   0.321   9.737   6.413  0.8806 -0.6164 -1.1842
 9805SOL    HW240635   0.259   9.702   6.560  0.0741 -0.0691 -1.3919
 9806SOL     OW40636   0.215   0.538   0.229 -0.4096 -0.0099  0.2127
 9806SOL    HW140637   0.248   0.453   0.269 -1.2247 -0.6430 -0.4434
 9806SOL    HW240638   0.163   0.589   0.298 -2.6417 -1.5555 -0.2736
 9807SOL     OW40639   6.113   0.809   3.924  0.5579 -0.2831 -0.1483
 9807SOL    HW140640   6.071   0.756   3.850 -2.1815  1.1260  0.3553
 9807SOL    HW240641   6.068   0.787   4.010  3.3315 -1.4717  1.0890
 9808SOL     OW40642   2.675   4.753   4.897  0.4729  0.1764  0.0772
 9808SOL    HW140643   2.737   4.720   4.968  0.2864 -0.7659 -0.1831
 9808SOL    HW240644   2.631   4.675   4.852  0.9198  0.7413 -1.3728
 9809SOL     OW40645   7.836   1.974   2.878 -0.7434 -0.8980  0.3077
 9809SOL    HW140646   7.757   1.934   2.925 -1.5820 -2.3722 -2.2560
 9809SOL    HW240647   7.805   2.049   2.820  0.1938  0.4801  1.5547
 9810SOL     OW40648   1.242   7.931   4.667 -0.7538 -0.4954  0.1285
 9810SOL    HW140649   1.317   7.883   4.712 -0.2176  1.1230  1.0134
 9810SOL    HW240650   1.218   7.883   4.582  0.2379 -1.8908  0.6200
 9811SOL     OW40651   9.940   3.176   3.722  0.0533 -0.5315 -0.0303
 9811SOL    HW140652   9.856   3.193   3.672  0.1609  0.4119  0.0955
 9811SOL    HW240653   9.969   3.081   3.708 -0.1355 -0.3883 -1.4188
 9812SOL     OW40654   3.282   4.881   6.098 -0.5676  0.6933 -1.1547
 9812SOL    HW140655   3.289   4.978   6.075  3.1988  0.6958 -0.4058
 9812SOL    HW240656   3.266   4.828   6.014 -0.7927  1.8147 -1.8261
 9813SOL     OW40657   1.726   0.720   1.553  0.5595 -0.0235 -0.6796
 9813SOL    HW140658   1.700   0.639   1.500 -0.3776 -0.2242  0.0699
 9813SOL    HW240659   1.776   0.784   1.494 -1.3677  0.2361 -2.1013
 9814SOL     OW40660   3.873   3.725   6.743  0.2301 -0.0946 -0.6469
 9814SOL    HW140661   3.793   3.714   6.685  0.1791 -0.2497 -0.5498
 9814SOL    HW240662   3.849   3.779   6.824 -0.3361 -1.9633  0.4688
 9815SOL     OW40663   1.106   2.263   1.134 -0.0781 -0.1530  0.0845
 9815SOL    HW140664   1.068   2.202   1.203 -2.5067  0.6383 -0.4915
 9815SOL    HW240665   1.147   2.343   1.179  1.5974 -1.3626  0.7488
 9816SOL     OW40666   4.320   1.807   3.826 -0.1123 -0.2765 -0.4868
 9816SOL    HW140667   4.299   1.722   3.874 -0.4990  1.1804  1.9960
 9816SOL    HW240668   4.236   1.857   3.807  0.2771  0.7475  0.3821
 9817SOL     OW40669   4.543   4.241   1.137  0.7226 -1.0125  0.8343
 9817SOL    HW140670   4.558   4.183   1.216 -0.2867 -0.1134  1.7093
 9817SOL    HW240671   4.551   4.187   1.053 -0.2038 -2.4113  1.6278
 9818SOL     OW40672   1.711   6.826   6.062  0.1235 -0.2001 -0.3727
 9818SOL    HW140673   1.806   6.803   6.046  0.4602 -1.0717  2.5605
 9818SOL    HW240674   1.651   6.763   6.012  1.0725 -1.1519 -0.3085
 9819SOL     OW40675   1.847   2.561   5.844  0.0838  0.1478 -0.0142
 9819SOL    HW140676   1.852   2.479   5.901  0.0640 -0.2735 -0.6099
 9819SOL    HW240677   1.774   2.621   5.878 -1.6477 -1.2774 -1.1041
 9820SOL     OW40678   5.615   1.299   5.450 -0.0931  0.1939  0.2454
 9820SOL    HW140679   5.569   1.245   5.520 -0.6110  0.6428  0.2532
 9820SOL    HW240680   5.548   1.356   5.401  0.0590 -1.0721 -1.4985
 9821SOL     OW40681   4.041   1.126   4.078  0.1871  0.6797  0.0700
 9821SOL    HW140682   4.037   1.201   4.145  1.8618  0.5775  0.3044
 9821SOL    HW240683   4.100   1.054   4.113 -1.0360 -0.5526 -0.3767
 9822SOL     OW40684   1.569   4.058   1.212  0.4796 -0.7347  0.4471
 9822SOL    HW140685   1.516   4.139   1.187  1.1177 -0.6024 -0.4999
 9822SOL    HW240686   1.511   3.977   1.206  0.0236 -0.4328  0.7339
 9823SOL     OW40687   0.173   1.328   4.221  0.1112 -0.2409 -0.6569
 9823SOL    HW140688   0.245   1.281   4.171  0.6251  1.5161 -1.5929
 9823SOL    HW240689   0.183   1.308   4.319  0.9396 -1.2435 -0.9350
 9824SOL     OW40690   1.824   8.065   3.251 -0.2791 -0.0329 -0.6611
 9824SOL    HW140691   1.829   8.148   3.306  0.2514 -1.0695  0.8581
 9824SOL    HW240692   1.756   8.003   3.290 -0.2186 -0.5955 -1.4327
 9825SOL     OW40693   9.444   2.557   3.513  0.2139  0.1931 -0.0489
 9825SOL    HW140694   9.440   2.638   3.455  0.1002  1.1921  1.3429
 9825SOL    HW240695   9.539   2.531   3.527  0.2177 -0.5679 -1.3672
 9826SOL     OW40696   8.014   4.334   3.084 -0.5652 -0.3646 -0.0925
 9826SOL    HW140697   8.002   4.320   3.182  1.4651  0.6875  0.3479
 9826SOL    HW240698   8.039   4.430   3.067 -0.1850 -0.7083 -1.5610
 9827SOL     OW40699   1.634   1.224   3.282  0.2173  0.3749 -0.1267
 9827SOL    HW140700   1.696   1.146   3.292  1.1979  1.0092 -1.2053
 9827SOL    HW240701   1.655   1.292   3.352 -1.1053 -0.6084  1.2721
 9828SOL     OW40702   6.832   2.986   2.737 -0.7564  0.4224 -0.0747
 9828SOL    HW140703   6.752   2.932   2.710 -1.4783  1.2063  0.4753
 9828SOL    HW240704   6.816   3.026   2.827 -0.6920  2.4915 -0.9706
 9829SOL     OW40705   5.488   9.917   3.317 -0.6346  0.1204  0.4223
 9829SOL    HW140706   5.522   9.934   3.225 -1.0375  0.6525  0.3702
 9829SOL    HW240707   5.556   9.865   3.368 -0.1019  0.4405  0.0472
 9830SOL     OW40708   1.304   9.325   5.776 -0.0435 -0.0045  0.2829
 9830SOL    HW140709   1.376   9.364   5.719  1.0120  0.3465  1.8601
 9830SOL    HW240710   1.334   9.237   5.813 -0.6313 -0.1086  0.5210
 9831SOL     OW40711   8.284   7.803   2.846 -0.1045  0.3470 -0.1103
 9831SOL    HW140712   8.314   7.755   2.928  0.7029  3.3235  1.4227
 9831SOL    HW240713   8.345   7.782   2.770 -1.0859 -2.7392 -0.0964
 9832SOL     OW40714   8.405   7.587   0.888 -0.3973  0.5292  0.6496
 9832SOL    HW140715   8.408   7.504   0.831 -1.0848  0.8165  0.1863
 9832SOL    HW240716   8.382   7.562   0.981  0.6765  0.0588  0.7969
 9833SOL     OW40717   4.734   9.064   3.879 -0.1098  0.4771  0.1453
 9833SOL    HW140718   4.729   9.028   3.972  0.0210  0.5294  0.1730
 9833SOL    HW240719   4.747   8.988   3.815  2.9127  0.6848  0.4426
 9834SOL     OW40720   8.010   0.264   4.525  0.7555  0.2436  0.0879
 9834SOL    HW140721   8.064   0.347   4.511 -2.0436  2.1431  0.1446
 9834SOL    HW240722   8.051   0.189   4.473  2.8983  1.8405 -0.6125
 9835SOL     OW40723   0.109   9.371   1.257 -0.2299 -1.0317  0.2939
 9835SOL    HW140724   0.076   9.334   1.170 -0.1607 -0.9009  0.2131
 9835SOL    HW240725   0.206   9.351   1.267 -0.0469 -0.3362 -0.0307
 9836SOL     OW40726   9.384   1.816   2.812  0.1869 -0.2241  0.1583
 9836SOL    HW140727   9.346   1.726   2.833 -0.1987 -0.0314  0.2962
 9836SOL    HW240728   9.478   1.806   2.780  0.6712 -0.5665  1.6268
 9837SOL     OW40729   3.390   3.276   2.795 -0.0391 -0.6450  0.2743
 9837SOL    HW140730   3.463   3.250   2.857 -0.6986 -1.4998  0.7050
 9837SOL    HW240731   3.367   3.199   2.736  1.2149  0.4524 -1.6738
 9838SOL     OW40732   7.037   9.774   4.212 -0.0856  0.4169 -0.5073
 9838SOL    HW140733   7.010   9.842   4.280 -0.5356 -0.2894  0.0295
 9838SOL    HW240734   7.135   9.782   4.193 -0.0890  1.0384 -0.2518
 9839SOL     OW40735   2.434   5.099   0.976 -0.2677 -0.3598 -0.1859
 9839SOL    HW140736   2.466   5.005   0.961  1.3118  0.1426 -0.1285
 9839SOL    HW240737   2.374   5.101   1.056  1.3620 -1.0105  1.0998
 9840SOL     OW40738   5.196   8.895   6.345  1.0356 -0.0898 -0.1266
 9840SOL    HW140739   5.211   8.925   6.439  1.5955 -0.9386  0.0615
 9840SOL    HW240740   5.282   8.897   6.295  0.6617  0.7785 -0.7542
 9841SOL     OW40741   1.169   3.867   5.206 -0.3227  0.2659 -0.4918
 9841SOL    HW140742   1.156   3.963   5.183  1.2101  0.5102 -0.3577
 9841SOL    HW240743   1.080   3.821   5.210 -1.0847  1.7529 -0.2249
 9842SOL     OW40744   2.749   6.331   3.547 -0.4106 -0.1029 -1.1579
 9842SOL    HW140745   2.714   6.344   3.455 -1.2823  1.1045 -0.6553
 9842SOL    HW240746   2.675   6.343   3.614  0.1134 -1.3795 -0.3102
 9843SOL     OW40747   3.694   8.931   2.577 -0.0122  0.0907 -0.4364
 9843SOL    HW140748   3.704   9.027   2.554  1.0203  0.2302  0.5555
 9843SOL    HW240749   3.603   8.899   2.551 -0.3190  1.3076 -0.8456
 9844SOL     OW40750   1.639   6.342   1.924  0.3645 -0.0895  0.3294
 9844SOL    HW140751   1.734   6.312   1.921  0.5890  0.5515  0.8193
 9844SOL    HW240752   1.607   6.362   1.831  0.8071 -0.0162  0.1939
 9845SOL     OW40753   8.948   7.202   1.114  0.3376 -0.1364 -0.1505
 9845SOL    HW140754   9.017   7.139   1.149 -1.5028 -1.3066  1.4625
 9845SOL    HW240755   8.951   7.287   1.165  0.8404 -0.0308 -0.3510
 9846SOL     OW40756   3.409   8.142   2.356 -0.0327 -0.2116 -0.4501
 9846SOL    HW140757   3.430   8.044   2.351 -0.7762 -0.3843 -0.1833
 9846SOL    HW240758   3.482   8.189   2.406  0.5858 -0.5474 -1.0280
 9847SOL     OW40759   7.709   3.160   4.801 -0.0696  0.1855 -0.0212
 9847SOL    HW140760   7.689   3.245   4.850  0.2155  0.0573  0.3195
 9847SOL    HW240761   7.732   3.089   4.867  0.2566 -0.0060 -0.3434
 9848SOL     OW40762   4.283   2.754   4.706  0.5661  0.3123 -0.3408
 9848SOL    HW140763   4.358   2.818   4.690 -0.5547  1.1157 -2.5411
 9848SOL    HW240764   4.288   2.679   4.640 -1.0572  0.8387 -1.0961
 9849SOL     OW40765   9.151   5.477   5.111  0.0519 -0.3737  0.3465
 9849SOL    HW140766   9.188   5.451   5.200  0.9574 -0.8255 -0.1559
 9849SOL    HW240767   9.197   5.560   5.078 -0.9142  0.3134  0.7019
 9850SOL     OW40768   0.140   9.033   0.791  0.3074  0.0233 -0.6160
 9850SOL    HW140769   0.162   8.936   0.790  1.1575  0.1914  1.1132
 9850SOL    HW240770   0.222   9.086   0.811 -0.3477  1.0426 -0.5922
 9851SOL     OW40771   2.205   6.436   6.615  0.3776  0.1022  0.4137
 9851SOL    HW140772   2.123   6.493   6.614  1.1782  1.2866  1.1179
 9851SOL    HW240773   2.183   6.346   6.577 -1.7354 -0.2615  2.3834
 9852SOL     OW40774   4.513   3.836   2.066  0.3641 -0.2204  0.4736
 9852SOL    HW140775   4.515   3.935   2.049  1.0844 -0.3308 -0.1110
 9852SOL    HW240776   4.550   3.788   1.986 -0.9303 -1.0179  0.3343
 9853SOL     OW40777   4.543   2.246   2.313 -0.5186  0.4786 -0.0863
 9853SOL    HW140778   4.550   2.338   2.273  1.4914  0.4899  0.2233
 9853SOL    HW240779   4.464   2.242   2.374 -1.7899  1.4034 -1.6326
 9854SOL     OW40780   1.250   7.480   3.220  0.5838  0.0233 -0.3070
 9854SOL    HW140781   1.293   7.488   3.310  0.5778 -2.6603 -0.0428
 9854SOL    HW240782   1.234   7.572   3.183  3.8964  1.1233  0.8131
 9855SOL     OW40783   9.289   8.920   1.475  0.0985 -0.9514  0.2585
 9855SOL    HW140784   9.309   8.989   1.544  0.0366  0.4653 -1.1332
 9855SOL    HW240785   9.190   8.904   1.472 -0.1259  0.5752 -0.9951
 9856SOL     OW40786   1.369   4.576   3.819  0.5052 -0.7027 -0.2692
 9856SOL    HW140787   1.426   4.518   3.877  1.2205 -1.1374 -1.3875
 9856SOL    HW240788   1.369   4.669   3.855  0.3704 -1.1070  0.8181
 9857SOL     OW40789   1.811   0.032   4.076 -0.0638 -0.2503  0.5026
 9857SOL    HW140790   1.747   0.006   4.004 -0.8104 -1.1160  1.4621
 9857SOL    HW240791   1.763   0.087   4.145  0.3784 -0.3399  0.8889
 9858SOL     OW40792   9.970   4.774   1.737 -0.2191 -0.0022  0.4386
 9858SOL    HW140793   9.947   4.811   1.647 -1.5519 -2.2933 -0.2104
 9858SOL    HW240794   9.906   4.808   1.805  0.1752  0.9388  0.3478
 9859SOL     OW40795   2.360   1.826   6.202 -0.0511 -0.0795  0.0932
 9859SOL    HW140796   2.452   1.788   6.193 -0.2426 -0.9162  1.5596
 9859SOL    HW240797   2.293   1.752   6.188 -0.4340 -0.2729  2.7442
 9860SOL     OW40798   2.785   6.671   2.235  0.2771  0.3556 -0.2209
 9860SOL    HW140799   2.696   6.624   2.232 -0.1255  1.1195 -0.3714
 9860SOL    HW240800   2.845   6.633   2.165 -0.0766  0.1328 -0.4062
 9861SOL     OW40801   0.328   6.065   3.382  0.7594  0.4534 -0.0438
 9861SOL    HW140802   0.414   6.020   3.407  0.6774  0.6358  0.5448
 9861SOL    HW240803   0.285   6.103   3.463 -1.1526 -1.8526  0.0855
 9862SOL     OW40804   9.135   9.550   0.776 -0.5181  0.1123  0.3343
 9862SOL    HW140805   9.193   9.630   0.760  0.4427 -0.8136 -1.0223
 9862SOL    HW240806   9.125   9.535   0.874  1.9688  0.0344  0.6226
 9863SOL     OW40807   3.467   9.416   2.613 -0.0105 -0.0320 -0.4455
 9863SOL    HW140808   3.478   9.328   2.660 -2.6293 -0.6400 -0.9098
 9863SOL    HW240809   3.457   9.400   2.515 -1.6744  0.6738 -0.3969
 9864SOL     OW40810   0.894   0.642   4.957 -0.2984 -0.1555  0.0316
 9864SOL    HW140811   0.848   0.730   4.946  1.3477  0.3478 -3.2511
 9864SOL    HW240812   0.980   0.655   5.007 -1.1324 -0.3157  1.5678
 9865SOL     OW40813   3.100   7.472   0.077  0.2514 -0.3253  0.1553
 9865SOL    HW140814   3.088   7.529   0.158  0.8283  1.1992 -0.8222
 9865SOL    HW240815   3.117   7.377   0.106  0.2569  0.1596  1.8070
 9866SOL     OW40816   1.865   1.124   6.160  0.4521 -0.3760 -0.2039
 9866SOL    HW140817   1.900   1.136   6.067 -0.0147 -0.9812 -0.4596
 9866SOL    HW240818   1.773   1.164   6.167  0.2479 -0.8488 -0.1636
 9867SOL     OW40819   5.114   9.951   4.123 -0.8748 -0.0635  0.0354
 9867SOL    HW140820   5.166   9.975   4.041  0.9656 -2.9178  0.2888
 9867SOL    HW240821   5.176   9.942   4.201 -1.6959 -3.3946  0.3891
 9868SOL     OW40822   0.318   0.847   5.741  0.6978 -0.4921 -0.6293
 9868SOL    HW140823   0.411   0.875   5.719  1.0306 -0.0351  1.2366
 9868SOL    HW240824   0.319   0.786   5.820 -0.8196  2.1792  1.5257
 9869SOL     OW40825   1.756   2.689   3.785  0.8757  0.4853  0.0515
 9869SOL    HW140826   1.743   2.621   3.857 -2.9618 -0.6628 -1.6015
 9869SOL    HW240827   1.780   2.643   3.699  1.0199  1.4761 -0.4475
 9870SOL     OW40828   3.381   8.698   1.928 -0.1317  0.0332  0.1339
 9870SOL    HW140829   3.384   8.601   1.950 -0.3539  0.1698  0.7772
 9870SOL    HW240830   3.465   8.724   1.880  1.0291  0.0283  2.0995
 9871SOL     OW40831   1.514   0.336   6.450  0.2726  0.4503 -0.2404
 9871SOL    HW140832   1.599   0.350   6.400  0.5711 -1.8098 -0.3854
 9871SOL    HW240833   1.495   0.239   6.459 -3.5137  0.9012 -2.2289
 9872SOL     OW40834   9.085   8.318   0.199 -0.6390  0.1289 -0.1058
 9872SOL    HW140835   9.123   8.292   0.288 -2.2836  0.5480  0.7507
 9872SOL    HW240836   9.157   8.358   0.142  0.2085  0.8578  1.4344
 9873SOL     OW40837   2.851   4.342   0.711 -0.4392 -0.2151  0.5108
 9873SOL    HW140838   2.878   4.430   0.673 -0.5762  0.2669  1.5123
 9873SOL    HW240839   2.770   4.308   0.663  0.2605 -0.3230 -0.6039
 9874SOL     OW40840   9.126   4.399   1.405 -0.2057  0.6285  0.2967
 9874SOL    HW140841   9.221   4.410   1.375 -1.4415 -0.1861 -4.2553
 9874SOL    HW240842   9.091   4.488   1.435  1.5142  1.2419  0.5847
 9875SOL     OW40843   0.142   2.472   1.216 -0.5299  0.2522 -0.5487
 9875SOL    HW140844   0.092   2.540   1.270 -1.7816 -0.8105 -0.3507
 9875SOL    HW240845   0.105   2.471   1.123  0.1937  0.5701 -0.8430
 9876SOL     OW40846   9.908   7.539   0.804 -0.1591  0.6015 -0.1078
 9876SOL    HW140847   9.817   7.556   0.842  0.4016  1.4943  0.8892
 9876SOL    HW240848   9.950   7.462   0.852 -0.6884 -0.3142 -1.1018
 9877SOL     OW40849   3.330   6.547   4.429 -0.3760  0.0754 -0.0753
 9877SOL    HW140850   3.427   6.570   4.420 -0.1982 -0.9643 -0.9726
 9877SOL    HW240851   3.277   6.595   4.359 -0.4916  0.5314  0.3233
 9878SOL     OW40852   9.766   6.771   3.575 -0.6554  0.0510  0.0091
 9878SOL    HW140853   9.806   6.735   3.659  1.5215  0.3417 -0.8642
 9878SOL    HW240854   9.732   6.695   3.519  1.4770 -0.5197 -0.5993
 9879SOL     OW40855   9.460   5.779   4.927 -0.2093 -0.0584  1.2292
 9879SOL    HW140856   9.556   5.758   4.905 -1.7656 -4.5920 -2.0273
 9879SOL    HW240857   9.428   5.854   4.868  0.9974  0.7812  1.6177
 9880SOL     OW40858   7.862   1.053   1.539  0.2403  0.1330 -0.0081
 9880SOL    HW140859   7.905   1.142   1.524  1.9661 -0.4540  1.2168
 9880SOL    HW240860   7.836   1.014   1.451  3.3070  0.0341 -0.9468
 9881SOL     OW40861   0.384   9.710   2.096 -0.0751  0.2706 -0.3979
 9881SOL    HW140862   0.376   9.645   2.172  0.4787 -0.2599 -0.7827
 9881SOL    HW240863   0.309   9.696   2.031 -0.8594  1.0930  0.3228
 9882SOL     OW40864   3.073   1.618   6.471  0.6979 -0.1208 -0.3908
 9882SOL    HW140865   3.091   1.709   6.433  0.9773  0.0902  0.2406
 9882SOL    HW240866   3.001   1.625   6.540 -0.6688 -0.6912 -1.7213
 9883SOL     OW40867   0.367   5.075   0.711 -0.0637  0.0065 -0.2016
 9883SOL    HW140868   0.291   5.053   0.772 -0.4981  2.5771  0.2748
 9883SOL    HW240869   0.331   5.108   0.624  0.4408  1.8635  0.2598
 9884SOL     OW40870   3.471   3.633   5.268 -0.4274  0.5519 -0.5717
 9884SOL    HW140871   3.571   3.640   5.269 -0.4922  1.3535  0.5622
 9884SOL    HW240872   3.435   3.651   5.359 -1.5227 -1.2537 -0.6219
 9885SOL     OW40873   2.609   8.554   2.267 -0.3638 -0.7262  0.4265
 9885SOL    HW140874   2.608   8.462   2.226  0.4124 -0.4484 -0.2210
 9885SOL    HW240875   2.681   8.559   2.336  0.0149 -0.4133  0.0113
 9886SOL     OW40876   5.122   9.710   6.128 -0.7063 -0.3199 -0.6931
 9886SOL    HW140877   5.214   9.671   6.139 -0.4835  0.0166 -1.3839
 9886SOL    HW240878   5.119   9.801   6.169  0.2354  1.0959 -3.6679
 9887SOL     OW40879   2.835   4.362   5.389  0.2619 -0.5670  0.4414
 9887SOL    HW140880   2.806   4.448   5.430  0.3954 -1.0646  1.5845
 9887SOL    HW240881   2.918   4.329   5.433 -0.4647 -1.8958  0.8679
 9888SOL     OW40882   9.251   7.771   5.169  0.0492  0.2336 -0.2987
 9888SOL    HW140883   9.183   7.697   5.174 -1.1666  1.2639 -1.5259
 9888SOL    HW240884   9.205   7.859   5.163  1.5042  1.0370  0.0300
 9889SOL     OW40885   8.858   8.815   3.018 -0.1318  0.4418 -0.0467
 9889SOL    HW140886   8.890   8.909   3.037  1.2117 -0.1839  0.8997
 9889SOL    HW240887   8.901   8.752   3.083  0.1823 -1.0389 -1.6505
 9890SOL     OW40888   0.017   8.198   6.406 -0.1902 -0.2483 -0.1769
 9890SOL    HW140889   0.100   8.152   6.375 -0.7317 -0.3682 -1.5198
 9890SOL    HW240890  -0.009   8.162   6.496  0.7952 -0.7457 -0.0817
 9891SOL     OW40891   6.547   2.310   3.909  0.1161 -0.3410 -0.7753
 9891SOL    HW140892   6.607   2.331   3.987 -0.2240  0.2034 -0.6591
 9891SOL    HW240893   6.501   2.223   3.925  1.8735 -1.4386 -1.4586
 9892SOL     OW40894   0.089   0.903   0.871  0.1236 -0.1061 -0.0112
 9892SOL    HW140895   0.099   0.915   0.772 -0.4267  1.0631  0.0633
 9892SOL    HW240896  -0.008   0.909   0.895  0.4203  1.4941  0.8231
 9893SOL     OW40897   3.929   7.952   4.919  0.3220  0.3924  0.1121
 9893SOL    HW140898   3.897   8.024   4.857 -1.4352 -0.9233 -0.5587
 9893SOL    HW240899   4.016   7.915   4.885  0.4239  1.1000 -0.4082
 9894SOL     OW40900   4.082   3.043   6.321 -0.6053  0.1226 -0.0155
 9894SOL    HW140901   4.098   2.977   6.248  0.0365 -0.3034  0.5090
 9894SOL    HW240902   4.052   3.130   6.281 -1.7799 -0.5714 -0.6872
 9895SOL     OW40903   6.275   1.148   1.692  0.1493 -0.1974 -0.3637
 9895SOL    HW140904   6.184   1.127   1.655  0.2530  0.2594 -0.8870
 9895SOL    HW240905   6.277   1.244   1.721 -0.8060 -1.2206  3.4143
 9896SOL     OW40906   3.052   8.877   3.360  0.2334  0.2320  0.1697
 9896SOL    HW140907   3.013   8.884   3.451 -0.3818 -2.0833  0.1194
 9896SOL    HW240908   3.129   8.813   3.361  1.5139  1.7314 -0.5400
 9897SOL     OW40909   9.919   8.968   2.314  0.3148  0.0794 -0.2663
 9897SOL    HW140910   9.837   8.934   2.360 -0.8258  0.0853 -2.1992
 9897SOL    HW240911   9.982   9.007   2.381 -0.6187 -1.2522  1.4107
 9898SOL     OW40912   8.651   3.792   5.195  0.2936  0.3977 -0.3166
 9898SOL    HW140913   8.564   3.744   5.189 -0.0450  0.9296  0.2776
 9898SOL    HW240914   8.694   3.773   5.283  1.0991 -0.3908 -0.8647
 9899SOL     OW40915   2.459   8.511   6.523  0.6192 -0.2430  0.0362
 9899SOL    HW140916   2.486   8.602   6.493  2.1059 -0.9141 -0.7098
 9899SOL    HW240917   2.414   8.518   6.612 -1.2308  1.4355 -0.9903
 9900SOL     OW40918   1.676   4.325   0.414 -0.4588  0.3630  0.1805
 9900SOL    HW140919   1.619   4.406   0.426 -1.5291 -0.3983  0.3426
 9900SOL    HW240920   1.721   4.329   0.325 -1.7094  0.4011 -0.4593
 9901SOL     OW40921   8.416   1.947   4.030 -0.5201 -0.0425 -0.7178
 9901SOL    HW140922   8.389   1.853   4.010  0.1821 -0.1939 -0.9552
 9901SOL    HW240923   8.493   1.974   3.972  0.6589 -0.0253  0.7870
 9902SOL     OW40924   1.851   6.305   5.128  0.1522  0.0385  0.1369
 9902SOL    HW140925   1.821   6.276   5.038 -1.1934 -1.1274  0.9411
 9902SOL    HW240926   1.784   6.366   5.168  0.8883  0.7905  0.2283
 9903SOL     OW40927   3.595   4.440   5.558 -0.3293 -0.2439 -0.7164
 9903SOL    HW140928   3.665   4.417   5.491 -1.1839 -0.4811 -1.5374
 9903SOL    HW240929   3.532   4.363   5.569  0.2127 -0.4672  0.8812
 9904SOL     OW40930   6.437   9.847   4.646  0.4039 -0.3463  0.6371
 9904SOL    HW140931   6.358   9.804   4.604  0.0681 -0.6943  1.6359
 9904SOL    HW240932   6.475   9.788   4.717  1.0609  0.1788  0.7348
 9905SOL     OW40933   1.843   5.206   3.045 -0.0198 -0.1733 -0.5626
 9905SOL    HW140934   1.805   5.140   2.980 -1.1909  2.1568 -2.2847
 9905SOL    HW240935   1.815   5.180   3.138 -0.3912 -2.1351 -1.1940
 9906SOL     OW40936   3.950   0.774   3.440  0.1421 -0.0249 -0.4479
 9906SOL    HW140937   4.050   0.772   3.444  0.2954 -0.0995 -3.2459
 9906SOL    HW240938   3.913   0.706   3.502  1.8040  0.2716  0.9203
 9907SOL     OW40939   8.322   1.267   1.128  0.3061  0.0780 -0.1334
 9907SOL    HW140940   8.351   1.284   1.033 -1.7013 -0.7977 -0.9284
 9907SOL    HW240941   8.240   1.320   1.147  0.2811 -0.3225  0.8824
 9908SOL     OW40942   7.189   7.835   4.418 -0.3125  0.4861 -0.3957
 9908SOL    HW140943   7.276   7.844   4.467  0.7914  1.0507 -2.4181
 9908SOL    HW240944   7.129   7.910   4.445  0.6729  1.3883 -0.6543
 9909SOL     OW40945   8.296   8.517   3.082  0.2368  0.0656  0.6217
 9909SOL    HW140946   8.205   8.548   3.112  1.3430  0.8451  3.3167
 9909SOL    HW240947   8.354   8.596   3.063  0.2414 -0.4309 -1.5336
 9910SOL     OW40948   9.977   2.778   1.696 -0.6254  0.0514 -0.2649
 9910SOL    HW140949   9.959   2.683   1.719 -1.0527 -0.2157 -1.6733
 9910SOL    HW240950   9.947   2.796   1.602  1.8660  0.8935 -0.9275
 9911SOL     OW40951   4.424   8.363   5.280  0.2472 -0.9505  0.2241
 9911SOL    HW140952   4.405   8.460   5.293 -0.3726 -1.2054  1.3361
 9911SOL    HW240953   4.338   8.312   5.278  0.6545 -1.7653  2.1878
 9912SOL     OW40954   9.210   4.377   2.698  0.6065 -0.0269  0.0835
 9912SOL    HW140955   9.154   4.294   2.693  0.2489  0.1613  0.8441
 9912SOL    HW240956   9.151   4.456   2.717  1.1274  0.1563  0.9824
 9913SOL     OW40957   1.758   1.441   5.517  0.3121  0.4424  0.1185
 9913SOL    HW140958   1.754   1.539   5.498 -1.2902  0.7551  1.8636
 9913SOL    HW240959   1.676   1.414   5.567  0.1786 -2.0266 -1.3316
 9914SOL     OW40960   4.379   2.331   5.504 -0.3888  0.5019  0.0066
 9914SOL    HW140961   4.381   2.430   5.489  0.2144  0.3565 -0.9100
 9914SOL    HW240962   4.329   2.287   5.429 -0.1524  0.0599  0.1063
 9915SOL     OW40963   9.048   4.856   1.116 -0.2033 -0.0723  0.1354
 9915SOL    HW140964   9.112   4.793   1.159 -1.0748 -1.5886 -0.7562
 9915SOL    HW240965   9.098   4.934   1.079  0.8121  0.0656  1.7682
 9916SOL     OW40966   4.633   9.566   1.448 -0.1673  0.0777 -0.1197
 9916SOL    HW140967   4.698   9.527   1.513 -0.6529  0.5727  0.6754
 9916SOL    HW240968   4.580   9.492   1.405 -0.9549 -0.1540  1.2367
 9917SOL     OW40969   2.550   2.065   3.736  0.0667 -0.4005 -0.1331
 9917SOL    HW140970   2.558   1.966   3.738 -0.6948 -0.5133 -1.7049
 9917SOL    HW240971   2.581   2.099   3.646 -0.4291  0.7124  0.1056
 9918SOL     OW40972   1.829   2.456   2.180 -0.2186 -0.2343  0.1042
 9918SOL    HW140973   1.848   2.553   2.195 -3.4647  0.5647 -0.5691
 9918SOL    HW240974   1.915   2.408   2.161  1.3826  2.5860 -0.0832
 9919SOL     OW40975   1.999   3.177   6.006  0.0461  0.1490  0.6974
 9919SOL    HW140976   1.954   3.167   6.095 -2.1048 -2.7563 -0.6501
 9919SOL    HW240977   2.014   3.087   5.966  0.2858  1.4613 -2.2297
 9920SOL     OW40978   9.755   1.017   1.300  0.3375  0.1129 -0.0537
 9920SOL    HW140979   9.815   0.938   1.299  0.8655  0.4810  1.5470
 9920SOL    HW240980   9.743   1.051   1.206  0.4111 -1.6067 -0.7015
 9921SOL     OW40981   1.461   4.947   6.105  0.0736 -0.0015  0.0355
 9921SOL    HW140982   1.383   4.983   6.156  0.1500  1.9078 -1.1412
 9921SOL    HW240983   1.428   4.905   6.020  0.1371 -1.2397  0.6138
 9922SOL     OW40984   4.757   9.000   5.826  0.1219 -0.1223  0.5790
 9922SOL    HW140985   4.801   8.983   5.914  0.4612 -2.2750  0.0066
 9922SOL    HW240986   4.809   9.069   5.775  1.2097 -0.5219  1.1344
 9923SOL     OW40987   7.923   2.625   5.208 -0.1801  0.1153 -0.1095
 9923SOL    HW140988   7.942   2.677   5.291  1.3690  0.6240 -0.7690
 9923SOL    HW240989   7.838   2.657   5.167 -0.4380  0.5280  0.7417
 9924SOL     OW40990   9.260   4.262   4.882  0.4324  0.4414  0.9690
 9924SOL    HW140991   9.188   4.324   4.914  0.6964  2.2675 -1.7406
 9924SOL    HW240992   9.275   4.190   4.949 -1.6591  1.8888  3.0657
 9925SOL     OW40993   0.638   5.889   5.677  0.5731  0.1858 -0.2641
 9925SOL    HW140994   0.548   5.926   5.656  0.0726 -1.0497 -0.2804
 9925SOL    HW240995   0.635   5.839   5.763  1.5155  1.1275  0.3275
 9926SOL     OW40996   3.493   7.932   0.305 -0.3096  0.3085  0.4626
 9926SOL    HW140997   3.572   7.872   0.316 -0.4317  0.2360  0.9470
 9926SOL    HW240998   3.417   7.898   0.361 -0.0978  1.4154  1.4458
 9927SOL     OW40999   7.287   2.747   1.747  0.2109 -0.0569 -0.0936
 9927SOL    HW141000   7.297   2.807   1.668 -0.2309  0.1147 -0.0185
 9927SOL    HW241001   7.263   2.801   1.827  1.0492 -0.1841  0.2457
 9928SOL     OW41002   3.642   5.851   0.662  0.1842 -0.4248  0.2677
 9928SOL    HW141003   3.559   5.825   0.614  0.3198 -1.2682  0.4677
 9928SOL    HW241004   3.623   5.925   0.726 -0.3352 -0.3868  0.0664
 9929SOL     OW41005   1.571   2.668   2.307  0.0099  0.1036  0.4084
 9929SOL    HW141006   1.590   2.672   2.209  1.2670 -1.6318  0.5585
 9929SOL    HW241007   1.541   2.758   2.339  1.8462  1.2873 -1.1033
 9930SOL     OW41008   2.371   3.257   5.051 -0.4180 -0.4332  0.2489
 9930SOL    HW141009   2.299   3.220   4.992 -0.2067 -0.0927 -0.2221
 9930SOL    HW241010   2.360   3.356   5.060  0.0539 -0.3675  0.0965
 9931SOL     OW41011   3.275   4.529   1.248 -0.1678 -0.6167 -0.2937
 9931SOL    HW141012   3.190   4.554   1.202  0.0741 -0.1429 -0.4822
 9931SOL    HW241013   3.335   4.483   1.183 -1.0026 -2.5990  0.2909
 9932SOL     OW41014   4.837   4.520   3.649 -0.0759 -0.6106 -0.3710
 9932SOL    HW141015   4.856   4.448   3.582  0.7591 -0.5233 -0.2377
 9932SOL    HW241016   4.910   4.522   3.717 -0.1093  0.3312 -0.3503
 9933SOL     OW41017   1.906   2.155   4.268  0.6236 -0.0851  0.5504
 9933SOL    HW141018   1.894   2.057   4.250 -0.3607 -0.1899  1.7337
 9933SOL    HW241019   1.919   2.170   4.366  1.4214  0.9106  0.2959
 9934SOL     OW41020   2.544   9.820   0.688 -0.0121 -0.0633 -0.3980
 9934SOL    HW141021   2.462   9.855   0.642  0.2484 -0.5924 -1.2857
 9934SOL    HW241022   2.623   9.875   0.662  0.7657 -2.4781 -3.4297
 9935SOL     OW41023   8.707   6.230   4.092 -0.0521 -0.5325  0.8982
 9935SOL    HW141024   8.754   6.312   4.125  0.3268 -0.9656  1.4459
 9935SOL    HW241025   8.763   6.185   4.022 -0.3919 -0.1704  0.3892
 9936SOL     OW41026   1.642   5.889   1.277  0.0923  0.1002 -0.2670
 9936SOL    HW141027   1.687   5.833   1.347  0.0094 -0.1527 -0.4157
 9936SOL    HW241028   1.543   5.870   1.279  0.3962 -1.8755 -2.2319
 9937SOL     OW41029   1.585   2.182   0.883 -0.1412  0.1118 -0.1070
 9937SOL    HW141030   1.632   2.186   0.971  1.1524 -1.6587 -0.6737
 9937SOL    HW241031   1.615   2.101   0.833 -0.7251  1.1671 -2.2536
 9938SOL     OW41032   6.770   4.749   0.577 -0.3320  0.0846  0.3570
 9938SOL    HW141033   6.703   4.699   0.630  1.1768 -0.3609  1.8904
 9938SOL    HW241034   6.790   4.836   0.621 -0.3706  0.5020 -0.4322
 9939SOL     OW41035   4.492   4.274   4.968 -0.3889 -0.4046  0.0456
 9939SOL    HW141036   4.458   4.352   5.021  1.1501  0.3818 -0.0807
 9939SOL    HW241037   4.521   4.305   4.878 -0.7124 -1.3092 -0.3704
 9940SOL     OW41038   9.096   8.066   3.470 -0.4538  0.1163  0.1894
 9940SOL    HW141039   9.159   8.076   3.547 -1.1065 -2.6652  1.1255
 9940SOL    HW241040   9.133   7.999   3.406 -3.3164 -3.0633  1.7314
 9941SOL     OW41041   9.046   5.482   0.263 -0.0741  0.1936 -0.0071
 9941SOL    HW141042   9.105   5.403   0.243 -0.0063 -0.1108  1.3545
 9941SOL    HW241043   8.988   5.501   0.183 -0.3060 -1.4332 -0.2491
 9942SOL     OW41044   2.728   4.393   2.590  0.1142  0.3071 -0.4857
 9942SOL    HW141045   2.639   4.436   2.576  0.0277 -0.3368 -2.0977
 9942SOL    HW241046   2.728   4.302   2.549  0.5505 -0.9299  2.2111
 9943SOL     OW41047   1.028   8.636   6.562 -0.3801 -0.3133  0.1493
 9943SOL    HW141048   1.078   8.672   6.484 -0.8478 -1.1484 -0.5478
 9943SOL    HW241049   0.977   8.554   6.534  0.2417 -1.1990  1.5692
 9944SOL     OW41050   1.147   3.918   0.538  0.1429 -0.2871  0.1221
 9944SOL    HW141051   1.098   3.999   0.507 -0.0198 -0.0027  1.0835
 9944SOL    HW241052   1.122   3.840   0.481 -2.8734 -0.5509  1.6872
 9945SOL     OW41053   2.009   5.753   3.605  0.4940  0.2780  0.0921
 9945SOL    HW141054   1.963   5.836   3.572 -1.7387 -0.6409  0.7529
 9945SOL    HW241055   2.086   5.778   3.663  0.1588  1.8990 -0.1429
 9946SOL     OW41056   0.502   4.664   4.446  0.1403  0.1088 -0.1317
 9946SOL    HW141057   0.475   4.760   4.456  1.2302  0.4410 -0.3021
 9946SOL    HW241058   0.601   4.656   4.459  0.3036 -0.7445 -1.7938
 9947SOL     OW41059   4.895   3.840   0.985 -0.4392 -0.5063  0.5057
 9947SOL    HW141060   4.860   3.933   0.993 -2.2074 -0.9712 -1.3436
 9947SOL    HW241061   4.994   3.842   0.967 -1.1955  1.2558 -4.2596
 9948SOL     OW41062   1.875   7.103   0.705  0.1012  0.2460  0.4543
 9948SOL    HW141063   1.897   7.180   0.644  2.5986  0.3383  1.3949
 9948SOL    HW241064   1.777   7.100   0.721 -0.2538  2.0553 -1.1695
 9949SOL     OW41065   2.124   3.917   1.869  0.5000 -0.2355  0.2787
 9949SOL    HW141066   2.136   4.002   1.818  0.6353 -1.1233 -1.1876
 9949SOL    HW241067   2.152   3.930   1.964  1.6421  1.0184 -0.2315
 9950SOL     OW41068   1.827   7.850   5.964 -0.3722  0.2419 -0.1307
 9950SOL    HW141069   1.895   7.922   5.948  0.9604 -0.9656 -0.0557
 9950SOL    HW241070   1.763   7.846   5.888  0.9568 -0.0163 -1.2488
 9951SOL     OW41071   0.478   4.693   0.580  0.4714 -0.1323 -0.1415
 9951SOL    HW141072   0.428   4.703   0.494 -3.2909  2.3254  2.1786
 9951SOL    HW241073   0.533   4.775   0.596 -0.8119  0.5599  0.9066
 9952SOL     OW41074   0.851   2.797   4.181 -0.1650  0.5307  0.3368
 9952SOL    HW141075   0.824   2.701   4.182  1.1910  0.1355  2.0345
 9952SOL    HW241076   0.776   2.854   4.215 -0.4247 -0.1053  0.8312
 9953SOL     OW41077   7.006   4.191   1.000 -0.0835  0.5220  0.0168
 9953SOL    HW141078   7.093   4.239   0.997  0.9339 -1.2838 -0.6597
 9953SOL    HW241079   6.966   4.198   1.091  1.2914  0.5001  0.6241
 9954SOL     OW41080   9.482   5.599   5.720  0.2037 -0.2061 -0.4288
 9954SOL    HW141081   9.437   5.685   5.745 -0.8279 -1.4056  1.9684
 9954SOL    HW241082   9.419   5.523   5.734  2.3078 -1.7301  1.0740
 9955SOL     OW41083   7.836   3.985   6.244 -0.4399 -0.2811  0.2381
 9955SOL    HW141084   7.826   3.922   6.167  0.8294 -3.0901  2.2877
 9955SOL    HW241085   7.924   3.970   6.288 -1.6033  0.5328  2.9077
 9956SOL     OW41086   6.147   4.831   6.721  0.4516  0.9313 -0.7237
 9956SOL    HW141087   6.055   4.870   6.724  0.5066  1.0718 -0.8406
 9956SOL    HW241088   6.202   4.869   6.796  0.0140 -0.1785  0.1653
 9957SOL     OW41089   7.326   1.738   3.153  0.4174 -0.5710  0.3574
 9957SOL    HW141090   7.386   1.818   3.149  0.2239 -0.3729  1.2724
 9957SOL    HW241091   7.248   1.759   3.212 -0.6082 -0.7905 -0.8911
 9958SOL     OW41092   1.526   1.848   0.771  0.7859  0.9544  0.7944
 9958SOL    HW141093   1.519   1.819   0.867  1.9572  0.8848  0.8686
 9958SOL    HW241094   1.552   1.770   0.715  1.6763  1.3305  0.6624
 9959SOL     OW41095   6.093   1.866   4.820 -0.1774  0.4071 -0.2955
 9959SOL    HW141096   6.127   1.788   4.767  0.4677  0.0657  0.6059
 9959SOL    HW241097   6.043   1.928   4.759  1.0984  0.3569 -1.4258
 9960SOL     OW41098   2.174   0.736   1.765 -0.3574  0.1752  0.1203
 9960SOL    HW141099   2.224   0.650   1.769  0.1448  0.3516 -1.6687
 9960SOL    HW241100   2.078   0.719   1.747  0.0020  0.0213 -1.7547
 9961SOL     OW41101   6.628   9.419   2.512  0.0332  0.2437 -0.0606
 9961SOL    HW141102   6.580   9.498   2.473 -0.4305  0.1039  0.2149
 9961SOL    HW241103   6.583   9.335   2.481 -0.0161  0.1180  0.3494
 9962SOL     OW41104   2.218   4.034   0.084 -0.1128  0.5067  0.1192
 9962SOL    HW141105   2.134   3.984   0.063 -0.1618  0.6178  0.0519
 9962SOL    HW241106   2.287   3.970   0.116  0.4587  0.1061 -1.8316
 9963SOL     OW41107   8.824   5.559   0.450  0.0457 -0.0421 -0.0758
 9963SOL    HW141108   8.838   5.564   0.549  1.5542 -1.0025 -0.2153
 9963SOL    HW241109   8.890   5.495   0.410 -0.1496  0.7755 -1.7820
 9964SOL     OW41110   5.695   9.330   4.501 -0.4637  0.1811  0.7982
 9964SOL    HW141111   5.779   9.294   4.541 -1.3266 -0.9049  1.6630
 9964SOL    HW241112   5.648   9.388   4.567  0.6819  2.5979 -0.4273
 9965SOL     OW41113   0.999   6.694   1.019 -0.4222  0.4615  0.0980
 9965SOL    HW141114   0.906   6.720   1.045 -1.1162 -1.5090 -0.3185
 9965SOL    HW241115   1.044   6.649   1.096 -1.3317 -2.4264 -1.0157
 9966SOL     OW41116   9.266   0.639   1.729  0.4734 -1.0034 -0.0679
 9966SOL    HW141117   9.262   0.736   1.753  0.4605 -0.7355 -1.1305
 9966SOL    HW241118   9.312   0.628   1.641 -0.9821 -1.8106 -0.7567
 9967SOL     OW41119   1.777   6.307   6.178  0.2667 -0.0006  0.0895
 9967SOL    HW141120   1.772   6.210   6.155  0.3061  0.1420 -0.5447
 9967SOL    HW241121   1.862   6.345   6.141 -1.0006  0.8769 -2.0364
 9968SOL     OW41122   9.909   4.354   0.947  1.0550 -0.3763 -0.5727
 9968SOL    HW141123   9.824   4.405   0.929  2.1131  2.1805  1.4348
 9968SOL    HW241124   9.971   4.366   0.870  1.1226  1.0511 -0.3090
 9969SOL     OW41125   8.054   9.115   1.434 -0.6383  0.6576 -0.3943
 9969SOL    HW141126   7.964   9.101   1.391 -1.4012  0.7005  1.1563
 9969SOL    HW241127   8.062   9.210   1.465 -0.2538  0.5272 -0.0922
 9970SOL     OW41128   1.509   9.564   0.762 -0.2008 -0.3485 -0.1092
 9970SOL    HW141129   1.546   9.501   0.694  1.2979  0.5347 -0.1471
 9970SOL    HW241130   1.483   9.513   0.844 -2.9899 -1.5567 -1.6879
 9971SOL     OW41131   9.056   0.223   2.294  0.6998 -0.5006 -0.3311
 9971SOL    HW141132   9.022   0.276   2.372 -0.5863  0.0272 -1.2245
 9971SOL    HW241133   9.056   0.126   2.317 -1.1631 -0.4971 -0.1795
 9972SOL     OW41134   3.390   3.978   4.492  0.3398  0.0460 -0.3885
 9972SOL    HW141135   3.295   3.959   4.518  0.4261  0.2479  0.0918
 9972SOL    HW241136   3.393   4.060   4.435  0.3521  0.7965  0.6709
 9973SOL     OW41137   1.360   5.595   4.158 -0.4086 -0.2729  0.5960
 9973SOL    HW141138   1.443   5.564   4.203  0.8969  1.9709 -0.1612
 9973SOL    HW241139   1.378   5.609   4.060 -1.7535 -0.0886  0.3581
 9974SOL     OW41140   2.206   7.949   1.167  0.7828  0.6451  0.3172
 9974SOL    HW141141   2.204   7.957   1.267  1.5970 -1.8782  0.5910
 9974SOL    HW241142   2.116   7.971   1.130  0.2986  1.0052  1.6706
 9975SOL     OW41143   1.098   3.255   1.965  0.0463 -0.0245  0.3017
 9975SOL    HW141144   1.042   3.337   1.978  1.2864  0.6500  1.6036
 9975SOL    HW241145   1.040   3.177   1.943 -0.9921  1.6965 -3.6025
 9976SOL     OW41146   2.245   9.741   2.716 -0.1102 -0.1441  0.5059
 9976SOL    HW141147   2.203   9.705   2.633 -0.8910  0.2506  0.7256
 9976SOL    HW241148   2.174   9.757   2.785  0.2451  1.5227  0.5113
 9977SOL     OW41149   2.283   3.988   0.903 -0.1869 -0.5832 -0.4703
 9977SOL    HW141150   2.333   3.911   0.943 -0.2622 -0.5643 -0.3407
 9977SOL    HW241151   2.207   4.013   0.963  0.5804  0.4013  0.1167
 9978SOL     OW41152   2.101   4.936   1.524  0.1503 -0.1676 -0.1557
 9978SOL    HW141153   2.157   5.018   1.536 -0.7747  0.4821 -0.2169
 9978SOL    HW241154   2.085   4.922   1.427 -0.3267  0.0127 -0.1026
 9979SOL     OW41155   4.491   4.506   2.717 -0.9547 -0.5260 -0.3060
 9979SOL    HW141156   4.436   4.424   2.700 -1.7533 -0.2595  0.9054
 9979SOL    HW241157   4.580   4.496   2.674 -0.6482 -2.4979  0.7402
 9980SOL     OW41158   2.179   1.648   6.145 -0.0881 -0.0669  0.1046
 9980SOL    HW141159   2.220   1.577   6.087  0.7424  1.5335 -1.2965
 9980SOL    HW241160   2.080   1.639   6.143 -0.0019 -0.9975 -0.3208
 9981SOL     OW41161   8.819   2.885   4.079  0.3498 -0.2158 -0.9725
 9981SOL    HW141162   8.902   2.857   4.030  1.1417 -0.3420  0.3895
 9981SOL    HW241163   8.805   2.824   4.157 -0.1117  0.7989 -0.2502
 9982SOL     OW41164   0.212   8.778   0.751  0.1651 -0.2675  0.0404
 9982SOL    HW141165   0.238   8.742   0.661  0.9728  0.3201  0.0296
 9982SOL    HW241166   0.265   8.732   0.822 -0.4254 -0.6856  0.2085
 9983SOL     OW41167   1.484   9.814   1.903  0.4764  0.1607  0.3709
 9983SOL    HW141168   1.475   9.862   1.816 -2.7435 -1.7203 -0.4418
 9983SOL    HW241169   1.460   9.718   1.890  1.9937 -0.6130  2.9406
 9984SOL     OW41170   8.309   1.779   2.400 -0.4390 -0.0116  0.4287
 9984SOL    HW141171   8.307   1.684   2.432 -0.4971  0.7606  2.8750
 9984SOL    HW241172   8.256   1.836   2.463  1.9605  2.1071  0.6228
 9985SOL     OW41173   0.847   6.462   2.636  0.5369  0.1101 -0.7447
 9985SOL    HW141174   0.829   6.497   2.728 -0.2239 -0.6924 -0.5830
 9985SOL    HW241175   0.917   6.518   2.592  0.7769  0.6037  0.2582
 9986SOL     OW41176   4.090   5.291   2.106  0.0189  0.2260  0.3260
 9986SOL    HW141177   4.089   5.196   2.073 -0.1886 -0.3092  1.8612
 9986SOL    HW241178   4.003   5.312   2.150  0.6249  0.6436  1.3455
 9987SOL     OW41179   2.460   5.106   1.322  0.4987  0.0660 -0.8311
 9987SOL    HW141180   2.362   5.090   1.323  0.6663 -1.0220  1.4236
 9987SOL    HW241181   2.494   5.115   1.416  2.8682 -1.7519 -1.4400
 9988SOL     OW41182   7.298   0.302   3.973  0.1807  0.2866  0.1355
 9988SOL    HW141183   7.244   0.260   4.047  1.2161  0.6993  1.1382
 9988SOL    HW241184   7.236   0.349   3.910 -0.7926 -0.7984  0.2517
 9989SOL     OW41185   3.557   8.841   3.185  0.6370  0.1158  0.0766
 9989SOL    HW141186   3.652   8.871   3.182  0.9191 -0.6067  1.2976
 9989SOL    HW241187   3.497   8.916   3.157  1.5214  0.7971 -0.0093
 9990SOL     OW41188   7.925   9.423   2.175 -0.2890  0.0778  0.2445
 9990SOL    HW141189   8.020   9.409   2.151 -0.1204 -0.4009  1.1542
 9990SOL    HW241190   7.892   9.508   2.135  1.3581  1.7271  2.2936
 9991SOL     OW41191   3.627   1.404   1.372 -0.1583 -0.0760  0.6229
 9991SOL    HW141192   3.653   1.362   1.459  0.0696 -1.0138  0.1104
 9991SOL    HW241193   3.612   1.333   1.304  0.1303  0.6703 -0.2344
 9992SOL     OW41194   1.811   7.909   0.366 -0.8731 -0.1508  1.0063
 9992SOL    HW141195   1.835   7.816   0.337  0.5080  0.6605 -0.5433
 9992SOL    HW241196   1.727   7.938   0.319 -0.2585  0.0734  0.0317
 9993SOL     OW41197   7.517   8.850   5.512  0.2903  0.5047 -0.3408
 9993SOL    HW141198   7.520   8.787   5.589  0.3159  0.7373 -0.1510
 9993SOL    HW241199   7.585   8.922   5.525 -0.0579  0.8344 -0.3307
 9994SOL     OW41200   7.709   9.734   0.645 -0.6583  0.5888  0.6285
 9994SOL    HW141201   7.805   9.732   0.618 -0.8894  2.3199 -0.3501
 9994SOL    HW241202   7.691   9.658   0.709  0.8235 -1.1011 -0.9077
 9995SOL     OW41203   2.517   1.328   2.317  0.1682 -0.1520 -0.3771
 9995SOL    HW141204   2.512   1.231   2.340 -0.6811 -0.0837 -0.2665
 9995SOL    HW241205   2.598   1.345   2.261 -0.5368 -1.2022 -1.7378
 9996SOL     OW41206   0.863   4.088   0.228  0.0128  0.1910 -0.2214
 9996SOL    HW141207   0.823   3.997   0.218  1.1858 -0.2822 -0.8222
 9996SOL    HW241208   0.791   4.156   0.231 -0.8337 -0.6286 -1.3298
 9997SOL     OW41209   0.968   9.725   0.208 -0.0269  0.0338 -0.0407
 9997SOL    HW141210   0.931   9.644   0.255  0.8308 -0.0357  0.5229
 9997SOL    HW241211   0.895   9.768   0.154 -1.5351  1.1478  2.7597
 9998SOL     OW41212   3.100   3.856   5.556  0.7616 -0.0124  0.2079
 9998SOL    HW141213   3.055   3.899   5.477 -0.8429 -0.3348  0.9339
 9998SOL    HW241214   3.125   3.927   5.622 -1.1572 -0.0786  1.0360
 9999SOL     OW41215   3.354   8.362   5.328  0.1930 -0.3387  0.5507
 9999SOL    HW141216   3.444   8.329   5.355  0.2411  0.1087  0.9463
 9999SOL    HW241217   3.291   8.355   5.406  0.0361 -0.1097  0.4463
10000SOL     OW41218   8.730   2.631   2.376 -0.1775 -0.1913 -0.3831
10000SOL    HW141219   8.687   2.635   2.466 -2.5102 -0.4888 -1.4332
10000SOL    HW241220   8.763   2.538   2.359  0.3606 -0.1103  0.1969
10001SOL     OW41221   2.833   2.338   0.788  0.3509  0.0538  0.6935
10001SOL    HW141222   2.893   2.314   0.864 -0.2819 -2.0437  0.5607
10001SOL    HW241223   2.779   2.258   0.761 -0.5555  1.1814 -0.9489
10002SOL     OW41224   4.249   2.270   2.084  0.3868  0.1671 -0.1006
10002SOL    HW141225   4.217   2.184   2.044 -0.0778  0.9292 -1.3980
10002SOL    HW241226   4.347   2.280   2.067  0.7363 -0.7543  1.2743
10003SOL     OW41227   2.304   2.581   3.448  0.0856 -0.5269 -0.4950
10003SOL    HW141228   2.320   2.584   3.546  0.8829  0.3705 -0.6440
10003SOL    HW241229   2.243   2.504   3.426 -0.1655 -0.6757  0.6976
10004SOL     OW41230   6.316   7.808   2.171  0.3459  0.0974 -0.4272
10004SOL    HW141231   6.337   7.714   2.197 -0.2173  0.2801  0.7310
10004SOL    HW241232   6.337   7.869   2.247  1.6373  1.0391 -1.5150
10005SOL     OW41233   1.942   7.899   3.507  0.0481 -0.5522  0.1680
10005SOL    HW141234   2.027   7.946   3.527  1.3348 -0.8095 -4.1830
10005SOL    HW241235   1.955   7.800   3.516 -0.1158 -0.5377  0.5804
10006SOL     OW41236   1.096   3.107   1.290 -0.4120 -0.0399  0.3145
10006SOL    HW141237   1.102   3.008   1.302 -0.9392  0.0187  1.1272
10006SOL    HW241238   1.178   3.151   1.326 -0.2852 -0.1661  0.1765
10007SOL     OW41239   6.822   0.560   6.155  0.2227 -0.1111  0.1231
10007SOL    HW141240   6.737   0.603   6.185 -0.0793 -0.9841  0.5279
10007SOL    HW241241   6.896   0.627   6.157  0.1535 -0.0702  2.5154
10008SOL     OW41242   0.331   7.108   3.400 -0.0680 -0.0224 -0.0593
10008SOL    HW141243   0.257   7.063   3.350 -0.0480 -0.8803  0.6641
10008SOL    HW241244   0.418   7.089   3.354 -0.4034  1.9785 -1.5922
10009SOL     OW41245   3.110   7.395   0.894 -0.5263  0.1293  0.0744
10009SOL    HW141246   3.207   7.400   0.917 -0.6892 -0.7588  1.0213
10009SOL    HW241247   3.097   7.413   0.797  0.5866  0.2778 -0.0460
10010SOL     OW41248   9.515   5.960   5.155  0.0879 -0.3927 -0.3809
10010SOL    HW141249   9.501   5.885   5.090  1.3789 -0.9712  0.0058
10010SOL    HW241250   9.447   5.953   5.229  0.1957 -1.1683 -0.3550
10011SOL     OW41251   0.199   2.205   4.397  0.0187  0.0131  0.3530
10011SOL    HW141252   0.277   2.143   4.412  0.7348  0.1236 -2.6539
10011SOL    HW241253   0.233   2.292   4.361 -1.3848  0.5559  0.3295
10012SOL     OW41254   4.139   7.830   5.801 -0.2251 -0.1406 -0.3060
10012SOL    HW141255   4.226   7.797   5.763 -0.1028  0.2024 -0.3311
10012SOL    HW241256   4.064   7.772   5.769 -0.2625  0.8116 -2.0174
10013SOL     OW41257   3.062   8.301   2.923 -0.2208 -0.2909  0.0814
10013SOL    HW141258   2.970   8.329   2.896  0.4386  1.9426  0.0607
10013SOL    HW241259   3.111   8.267   2.843 -1.0779 -1.6832  0.1311
10014SOL     OW41260   8.743   4.187   4.514  0.4397 -0.1796  0.0006
10014SOL    HW141261   8.822   4.137   4.549  2.2416  1.1353 -2.0552
10014SOL    HW241262   8.707   4.247   4.586  1.5726 -0.4772  0.8309
10015SOL     OW41263   8.173   8.630   3.632  0.4183  0.9088  1.0813
10015SOL    HW141264   8.207   8.538   3.653  2.7130  1.8698  1.6680
10015SOL    HW241265   8.250   8.688   3.604 -1.0337  2.6259  0.6032
10016SOL     OW41266   3.059   1.695   3.365  0.1063 -0.1847  0.2314
10016SOL    HW141267   2.971   1.700   3.412 -0.7132 -1.3855 -1.1203
10016SOL    HW241268   3.045   1.656   3.274  2.3783 -2.6827  0.9097
10017SOL     OW41269   3.154   3.407   4.575  0.8172 -0.1245 -0.3866
10017SOL    HW141270   3.227   3.370   4.518 -0.1203 -1.3764 -0.7939
10017SOL    HW241271   3.104   3.332   4.618  1.2651  0.7878  1.7973
10018SOL     OW41272   3.410   0.312   2.562 -0.3030 -0.0756  0.1597
10018SOL    HW141273   3.465   0.271   2.490  0.8135  0.8009  0.5057
10018SOL    HW241274   3.358   0.241   2.608 -0.6977 -0.6987 -1.2214
10019SOL     OW41275   2.726   3.874   6.440  0.3904 -0.2235  0.2528
10019SOL    HW141276   2.660   3.834   6.376  0.0061  1.6309 -0.5246
10019SOL    HW241277   2.689   3.959   6.477  1.7430  0.0721  0.9459
10020SOL     OW41278   2.681   0.060   4.163 -0.4632  0.0585 -0.1779
10020SOL    HW141279   2.590   0.075   4.124 -0.4418 -1.3304 -0.7745
10020SOL    HW241280   2.749   0.110   4.109 -0.9927  2.1039  0.9990
10021SOL     OW41281   9.087   8.566   1.070  0.7153 -0.6519 -0.1480
10021SOL    HW141282   9.022   8.558   0.995  1.4655 -2.4481 -0.6385
10021SOL    HW241283   9.066   8.497   1.140  0.9012  0.0557  0.6128
10022SOL     OW41284   6.521   9.000   2.943  0.0966 -0.1053  0.4664
10022SOL    HW141285   6.542   9.053   3.025  0.3322  1.6694 -0.7092
10022SOL    HW241286   6.601   8.999   2.883 -0.0669 -1.4035  0.2713
10023SOL     OW41287   9.572   7.832   2.194  0.2433  0.2022 -0.1499
10023SOL    HW141288   9.562   7.844   2.096 -0.2239 -1.2482 -0.2829
10023SOL    HW241289   9.482   7.824   2.237  0.4959 -2.0320  0.0162
10024SOL     OW41290   4.775   3.150   0.631  0.2277  0.3203  0.0966
10024SOL    HW141291   4.684   3.190   0.620 -0.2891 -0.9111 -0.2807
10024SOL    HW241292   4.769   3.051   0.620  1.5242  0.1623  0.6783
10025SOL     OW41293   8.769   3.747   0.763  0.8805  0.0953 -0.5298
10025SOL    HW141294   8.750   3.701   0.850  1.9574 -1.1750 -0.9421
10025SOL    HW241295   8.700   3.720   0.695 -0.1448  1.3351 -0.0008
10026SOL     OW41296   4.976   9.003   0.497 -0.9083  0.1479  0.0507
10026SOL    HW141297   5.037   9.033   0.424 -0.7321  3.5716  1.5003
10026SOL    HW241298   4.897   8.956   0.458  0.5079 -0.4658 -2.1330
10027SOL     OW41299   0.314   3.221   0.457 -0.1168 -0.3186  0.4416
10027SOL    HW141300   0.382   3.166   0.409  0.3954 -0.5415  1.4106
10027SOL    HW241301   0.360   3.286   0.517 -0.7363 -1.8308  2.6463
10028SOL     OW41302   3.817   8.312   1.818  0.3460  0.6043  0.3113
10028SOL    HW141303   3.898   8.369   1.805  1.6043 -0.9238  1.2255
10028SOL    HW241304   3.767   8.304   1.732  2.1566  0.1063 -0.7334
10029SOL     OW41305   9.107   7.650   6.645 -0.7482 -0.0872  0.3125
10029SOL    HW141306   9.130   7.615   6.736  0.7665  0.8198  0.2915
10029SOL    HW241307   9.083   7.747   6.652 -1.6459 -0.2849 -0.1031
10030SOL     OW41308   2.827   0.099   1.831  0.1846 -0.8315 -0.0826
10030SOL    HW141309   2.877   0.175   1.874 -1.7506 -0.0400  0.8262
10030SOL    HW241310   2.849   0.014   1.880  1.3926 -0.6598 -0.3114
10031SOL     OW41311   5.786   9.130   5.853 -0.0529 -0.1581  0.4899
10031SOL    HW141312   5.750   9.078   5.930 -0.3333 -0.3687  0.2214
10031SOL    HW241313   5.863   9.185   5.883 -0.8860  0.6475  1.1708
10032SOL     OW41314   2.102   7.186   4.850  0.3807 -0.5014 -0.3925
10032SOL    HW141315   2.098   7.259   4.782  0.1301 -0.0889  0.0621
10032SOL    HW241316   2.197   7.173   4.879  0.1666  1.0702  1.0532
10033SOL     OW41317   8.299   8.796   3.849  0.4621  0.1263  0.1012
10033SOL    HW141318   8.281   8.811   3.751  0.7706  2.1746  0.3318
10033SOL    HW241319   8.216   8.763   3.894 -0.0087  0.3032 -0.6328
10034SOL     OW41320   3.396   2.216   0.641  0.0820 -0.3165 -0.3204
10034SOL    HW141321   3.377   2.314   0.649  1.3420 -0.2403  1.9414
10034SOL    HW241322   3.339   2.166   0.706 -1.0584 -1.1839 -1.9416
10035SOL     OW41323   8.630   2.442   3.227 -0.0935  0.1699 -0.0794
10035SOL    HW141324   8.684   2.362   3.255 -1.7751 -0.0784  2.5588
10035SOL    HW241325   8.562   2.413   3.159 -0.3042 -0.5226  0.4217
10036SOL     OW41326   0.964   6.348   5.808  0.0047 -0.6662  0.2967
10036SOL    HW141327   1.042   6.337   5.747 -0.7385 -1.2708 -0.5713
10036SOL    HW241328   0.882   6.314   5.763 -1.0557  1.4580  0.5547
10037SOL     OW41329   9.384   5.880   6.236  0.1551 -0.2094 -0.0800
10037SOL    HW141330   9.293   5.910   6.207  0.5888 -0.3268 -1.6558
10037SOL    HW241331   9.437   5.856   6.155  0.8011 -2.4125  0.9846
10038SOL     OW41332   3.392   7.335   4.525  0.3835  0.5219 -0.2015
10038SOL    HW141333   3.440   7.310   4.609  1.0132  2.4734  0.0226
10038SOL    HW241334   3.298   7.301   4.529  0.4403  0.5257  1.2529
10039SOL     OW41335   0.226   8.880   2.272 -0.2669 -0.0349 -0.5127
10039SOL    HW141336   0.297   8.826   2.228 -0.4916  0.1377 -1.0809
10039SOL    HW241337   0.177   8.823   2.338 -0.0039 -0.3122 -0.5549
10040SOL     OW41338   9.857   9.655   3.172 -0.5527 -0.7003 -0.1763
10040SOL    HW141339   9.787   9.613   3.115 -1.2594 -0.6491  0.6426
10040SOL    HW241340   9.817   9.680   3.260  0.1972  0.4175 -0.1432
10041SOL     OW41341   9.552   6.307   3.923 -0.2472 -0.1855 -0.4783
10041SOL    HW141342   9.617   6.366   3.875  0.7125 -1.9581 -1.4102
10041SOL    HW241343   9.462   6.313   3.880 -0.3559  1.1621 -0.0887
10042SOL     OW41344   3.525   1.862   5.844 -0.5547 -0.5126 -0.0714
10042SOL    HW141345   3.531   1.765   5.824 -1.6463 -0.4366 -0.8078
10042SOL    HW241346   3.602   1.910   5.801 -0.2355 -0.9927 -0.0330
10043SOL     OW41347   2.689   3.834   2.806  0.3470  0.0881  0.5801
10043SOL    HW141348   2.729   3.925   2.819 -0.5876  0.3305  1.8601
10043SOL    HW241349   2.734   3.770   2.869  0.8840 -0.3073 -0.1976
10044SOL     OW41350   4.322   1.032   2.578 -0.0132  0.1315 -0.5274
10044SOL    HW141351   4.224   1.010   2.579 -0.1580  0.6342 -2.1252
10044SOL    HW241352   4.372   0.961   2.528  0.2099  0.7026 -1.1311
10045SOL     OW41353   2.790   4.664   0.005  0.0964  0.5909  0.0456
10045SOL    HW141354   2.731   4.666   0.086 -2.8619 -0.6055 -1.9990
10045SOL    HW241355   2.846   4.581   0.007  1.0263  1.2389  1.5091
10046SOL     OW41356   2.555   2.095   6.462  0.3520 -0.1123  0.3684
10046SOL    HW141357   2.465   2.104   6.505 -0.0372 -0.3008 -0.4137
10046SOL    HW241358   2.606   2.021   6.506 -0.6381 -1.3330 -0.5452
10047SOL     OW41359   0.983   7.973   4.374 -0.3353  0.2833 -0.4922
10047SOL    HW141360   1.031   8.052   4.337 -2.4038  0.9871 -1.7713
10047SOL    HW241361   1.049   7.902   4.399  1.5605  2.3822  0.6674
10048SOL     OW41362   1.036   2.069   3.072 -0.5380 -0.3291 -0.0728
10048SOL    HW141363   1.134   2.049   3.061 -0.6103 -1.1666  0.7602
10048SOL    HW241364   1.003   2.118   2.992  1.0066  1.6754  0.4606
10049SOL     OW41365   1.277   8.501   5.650  0.6515 -0.2443  0.1020
10049SOL    HW141366   1.294   8.587   5.698  1.8414 -0.7893  0.6832
10049SOL    HW241367   1.250   8.521   5.555  0.9688  0.7702  0.2150
10050SOL     OW41368   8.723   0.274   6.028 -0.1382  0.6540  0.2499
10050SOL    HW141369   8.755   0.179   6.024  1.2619  1.1881 -2.1056
10050SOL    HW241370   8.799   0.335   6.051  0.1449  1.6890 -3.1741
10051SOL     OW41371   2.839   7.381   5.991  0.3294  0.3578  0.2006
10051SOL    HW141372   2.830   7.430   5.904  0.8691  0.6283  0.2936
10051SOL    HW241373   2.749   7.351   6.022  0.1368  0.2244 -0.4745
10052SOL     OW41374   2.363   7.395   6.039  0.6358 -0.3027  0.0935
10052SOL    HW141375   2.338   7.430   6.129 -0.4924 -2.4640  0.6509
10052SOL    HW241376   2.383   7.472   5.978 -1.0707  1.2796  1.4739
10053SOL     OW41377   2.932   3.907   2.560 -0.2777  0.3280 -0.2350
10053SOL    HW141378   2.979   3.863   2.484 -1.2957 -0.7009 -0.2813
10053SOL    HW241379   2.833   3.902   2.546 -0.4598  0.5810  0.9047
10054SOL     OW41380   1.368   0.326   2.966  0.2786 -0.4792 -0.3059
10054SOL    HW141381   1.370   0.278   3.053 -2.4583  0.5736  0.3687
10054SOL    HW241382   1.462   0.350   2.939  1.1425 -0.8426  2.2882
10055SOL     OW41383   9.501   2.444   2.923 -0.3106 -0.2636  0.3493
10055SOL    HW141384   9.599   2.428   2.912  0.1152  1.2272  1.7785
10055SOL    HW241385   9.469   2.506   2.851 -0.1073 -0.3884  0.1514
10056SOL     OW41386   5.815   9.418   1.294 -0.1342  0.4694  0.2764
10056SOL    HW141387   5.748   9.437   1.221 -0.4549  0.3818  0.5462
10056SOL    HW241388   5.826   9.500   1.350  0.4058  0.6582 -0.1041
10057SOL     OW41389   8.204   0.934   2.193 -0.1758 -0.2374 -0.2154
10057SOL    HW141390   8.237   0.865   2.129 -1.0747  0.5495 -1.5412
10057SOL    HW241391   8.108   0.952   2.176 -1.1686 -1.9193  3.0768
10058SOL     OW41392   7.141   8.802   3.364 -0.0794  0.1459  0.3262
10058SOL    HW141393   7.101   8.755   3.442  0.2123 -0.2868  0.2165
10058SOL    HW241394   7.102   8.894   3.356  0.4629  0.4738  1.4320
10059SOL     OW41395   9.419   9.981   0.248  0.0734 -0.3475 -0.1455
10059SOL    HW141396   9.344   9.965   0.313 -0.7589 -0.4349 -1.1188
10059SOL    HW241397   9.453   9.893   0.215  0.2131 -0.2921 -0.1512
10060SOL     OW41398   2.639   5.563   5.479 -0.7602 -0.1658 -0.5336
10060SOL    HW141399   2.656   5.559   5.380 -1.2224 -0.1051 -0.6142
10060SOL    HW241400   2.597   5.478   5.509  0.0379 -0.4743 -0.2617
10061SOL     OW41401   4.899   4.995   0.362 -0.1400  0.2644  0.5167
10061SOL    HW141402   4.828   5.064   0.349 -0.4416 -0.0282  0.6017
10061SOL    HW241403   4.939   4.971   0.274 -0.4187  0.1397  0.4247
10062SOL     OW41404   5.034   0.298   5.331 -0.7480  0.7271 -0.0780
10062SOL    HW141405   5.034   0.395   5.356  0.6602  0.6567  0.2113
10062SOL    HW241406   5.006   0.289   5.235  1.0122  1.6048 -0.7035
10063SOL     OW41407   5.380   0.294   3.260  0.5113  0.1794  0.2986
10063SOL    HW141408   5.308   0.254   3.204  0.6955  0.5554 -0.2075
10063SOL    HW241409   5.377   0.253   3.352  1.1634 -1.5271 -0.4206
10064SOL     OW41410   8.864   9.492   5.638 -1.1045  0.8506 -0.0277
10064SOL    HW141411   8.956   9.526   5.620 -0.6417 -0.1690  0.3640
10064SOL    HW241412   8.802   9.569   5.652 -0.1577  1.5377  0.4429
10065SOL     OW41413   0.341   1.830   2.376  0.3832 -0.0697 -0.5014
10065SOL    HW141414   0.312   1.926   2.378 -1.7131 -0.6768 -0.5058
10065SOL    HW241415   0.371   1.807   2.283 -0.8146  0.1153 -0.9483
10066SOL     OW41416   6.004   0.454   1.116  0.1489  0.1434  0.6426
10066SOL    HW141417   6.066   0.410   1.181 -0.2250  1.5761  2.0210
10066SOL    HW241418   5.976   0.543   1.152  0.0162  1.0290 -1.5592
10067SOL     OW41419   3.264   6.158   1.936 -0.0727 -0.2528  0.1457
10067SOL    HW141420   3.243   6.245   1.981  0.4617 -0.1631  0.2298
10067SOL    HW241421   3.303   6.176   1.846 -3.1024 -0.4614 -1.2643
10068SOL     OW41422   7.630   4.640   0.198 -0.0517 -0.2317 -0.3050
10068SOL    HW141423   7.542   4.609   0.233 -0.4131  1.6797  0.5785
10068SOL    HW241424   7.615   4.713   0.131  0.8542  0.9743  0.7655
10069SOL     OW41425   2.511   1.266   3.292  0.1601 -0.0291  0.0420
10069SOL    HW141426   2.565   1.296   3.213 -0.4142 -0.3294 -0.4704
10069SOL    HW241427   2.434   1.210   3.260 -2.6095  3.3863  0.4231
10070SOL     OW41428   0.607   9.865   2.561 -0.2546  0.3150 -0.5944
10070SOL    HW141429   0.640   9.930   2.493  4.3370 -0.1171  1.0361
10070SOL    HW241430   0.600   9.910   2.650  0.8652 -0.8795  0.1103
10071SOL     OW41431   5.933   2.069   3.109 -0.2010 -0.0950  0.8371
10071SOL    HW141432   5.920   1.987   3.054  0.7550 -0.2006  0.7627
10071SOL    HW241433   5.957   2.146   3.050 -1.5381  0.3474  0.8588
10072SOL     OW41434   1.126   4.410   5.883  0.4880  0.6333 -0.8339
10072SOL    HW141435   1.038   4.397   5.838  0.7160  3.1998 -2.1304
10072SOL    HW241436   1.112   4.461   5.968  0.5171 -0.8030  0.0571
10073SOL     OW41437   8.448   2.905   6.712  0.4225  0.3724 -0.0782
10073SOL    HW141438   8.429   2.819   6.760 -2.3627 -0.3870 -2.3547
10073SOL    HW241439   8.415   2.982   6.766 -0.7947 -0.3197  0.1877
10074SOL     OW41440   0.291   1.164   3.395  0.1438 -0.1411 -0.3519
10074SOL    HW141441   0.277   1.129   3.302 -1.1315 -1.2708  0.2429
10074SOL    HW241442   0.216   1.133   3.454  0.9489  0.5431  1.0597
10075SOL     OW41443   5.226   3.552   3.129 -0.1374 -0.1828  0.0631
10075SOL    HW141444   5.265   3.572   3.039  0.7581 -0.0636  0.4703
10075SOL    HW241445   5.258   3.463   3.160  0.4214  0.2377  0.7217
10076SOL     OW41446   2.360   2.034   0.366 -0.6610 -0.5443  0.1880
10076SOL    HW141447   2.451   2.004   0.340  0.2452  1.0784  1.4340
10076SOL    HW241448   2.308   2.059   0.284 -0.1074 -1.7535 -0.5371
10077SOL     OW41449   7.769   3.794   2.727  0.5048  0.2119 -0.7256
10077SOL    HW141450   7.855   3.838   2.754 -0.0453  0.6602  0.2766
10077SOL    HW241451   7.763   3.704   2.769 -0.1309  0.7189  0.2850
10078SOL     OW41452   0.105   7.043   5.246 -0.0075  0.3125 -0.3723
10078SOL    HW141453   0.049   7.018   5.167  0.5867  1.8906 -1.3174
10078SOL    HW241454   0.148   7.132   5.229  0.9677  0.1683  1.2929
10079SOL     OW41455   0.693   7.201   2.696  0.3322  0.1138 -0.1168
10079SOL    HW141456   0.713   7.151   2.612  0.0619 -0.2848  0.0541
10079SOL    HW241457   0.757   7.277   2.706  0.9849 -0.4216 -0.1897
10080SOL     OW41458   7.426   8.222   2.617  0.5269 -0.5674 -0.2176
10080SOL    HW141459   7.377   8.138   2.596  0.8527 -0.8011 -0.0498
10080SOL    HW241460   7.360   8.295   2.635  0.2420 -0.7787 -0.3856
10081SOL     OW41461   7.533   1.551   1.085 -0.1432 -0.2139  0.1958
10081SOL    HW141462   7.495   1.562   1.177  0.3675 -0.1358  0.4046
10081SOL    HW241463   7.550   1.454   1.067 -1.0726 -0.3090 -0.1593
10082SOL     OW41464   7.086   9.379   5.194 -0.1410  0.4444  0.2058
10082SOL    HW141465   7.125   9.290   5.215  0.2969  0.8782  1.3041
10082SOL    HW241466   7.139   9.422   5.121 -0.4308 -0.2405 -0.4126
10083SOL     OW41467   7.435   9.758   2.490  0.4488  0.6012  0.4815
10083SOL    HW141468   7.431   9.794   2.397 -0.5162 -0.5849  0.0586
10083SOL    HW241469   7.358   9.697   2.506 -0.9933  2.9861  3.0031
10084SOL     OW41470   8.230   1.396   4.719  0.1866  0.2314  0.2225
10084SOL    HW141471   8.318   1.415   4.675  0.7560  1.1876  1.7333
10084SOL    HW241472   8.200   1.477   4.770 -0.0214 -1.1351  2.3028
10085SOL     OW41473   0.057   6.600   1.473 -0.8468  0.2349 -0.6213
10085SOL    HW141474  -0.032   6.631   1.504 -0.8957  0.2556 -0.7837
10085SOL    HW241475   0.114   6.576   1.552 -1.5637 -1.3554 -0.5847
10086SOL     OW41476   8.968   1.129   1.862  0.0730 -0.0390  0.5601
10086SOL    HW141477   9.057   1.166   1.834  0.3931  0.3425  2.0750
10086SOL    HW241478   8.904   1.140   1.786  1.5853 -1.3305 -0.9638
10087SOL     OW41479   7.294   0.027   1.304 -0.4198 -0.0194  0.6799
10087SOL    HW141480   7.260  -0.054   1.353 -1.2477  0.5143  0.9962
10087SOL    HW241481   7.385   0.007   1.267 -0.4453 -0.9622  1.0902
10088SOL     OW41482   3.686   9.579   5.226 -0.1353  0.0171  0.0176
10088SOL    HW141483   3.599   9.630   5.225 -0.5614 -0.6958  0.5873
10088SOL    HW241484   3.670   9.487   5.190  0.5683  0.1612 -0.6876
10089SOL     OW41485   3.250   1.984   1.896 -0.0977  0.9707  0.0426
10089SOL    HW141486   3.350   1.985   1.908 -0.2085  0.8355  0.9886
10089SOL    HW241487   3.207   2.031   1.973 -0.8332 -0.0630  0.2610
10090SOL     OW41488   7.472   8.676   2.343  0.1491  0.2334  0.0604
10090SOL    HW141489   7.478   8.759   2.399 -0.0952  1.5904 -1.8836
10090SOL    HW241490   7.550   8.617   2.364  0.5592  1.1483  1.1789
10091SOL     OW41491   2.488   5.300   5.157  0.0622 -0.4932 -0.5204
10091SOL    HW141492   2.474   5.398   5.169  1.0268 -0.0723 -2.6218
10091SOL    HW241493   2.560   5.268   5.220 -0.2947  0.1147  0.2043
10092SOL     OW41494   0.429   4.942   6.638 -0.4555  0.0991  0.3050
10092SOL    HW141495   0.503   5.007   6.626 -0.3737  0.1905  1.2860
10092SOL    HW241496   0.359   4.958   6.568  1.0436 -0.8434 -1.4704
10093SOL     OW41497   8.105   5.713   2.610  0.2989  0.1519  0.3441
10093SOL    HW141498   8.110   5.633   2.670 -0.3137 -0.7280 -0.7587
10093SOL    HW241499   8.178   5.708   2.542  1.7047  1.7253  1.6796
10094SOL     OW41500   1.694   0.934   0.353  0.1363  0.3580  0.4386
10094SOL    HW141501   1.687   0.953   0.451 -4.1214 -1.1270  0.5365
10094SOL    HW241502   1.622   0.983   0.305  0.6575 -0.8673 -1.6273
10095SOL     OW41503   1.487   3.560   6.187 -0.2137 -0.4136  0.5183
10095SOL    HW141504   1.462   3.469   6.154  1.4734  0.0837 -2.3368
10095SOL    HW241505   1.408   3.621   6.181 -1.1090 -1.4662  1.5894
10096SOL     OW41506   9.553   0.237   1.656  0.2888  0.1388 -0.0312
10096SOL    HW141507   9.631   0.299   1.646  0.0043  0.3390 -1.0695
10096SOL    HW241508   9.553   0.171   1.581  0.7407 -1.3099  1.2183
10097SOL     OW41509   4.478   8.838   2.898 -0.5172  0.4498  0.5381
10097SOL    HW141510   4.439   8.795   2.980 -2.6371 -0.2735 -0.8167
10097SOL    HW241511   4.428   8.807   2.817  1.7992  0.8606 -1.0881
10098SOL     OW41512   1.012   6.570   0.377 -0.0997 -0.0708 -0.2922
10098SOL    HW141513   1.071   6.563   0.458  0.8772  0.8501 -0.9138
10098SOL    HW241514   0.926   6.524   0.395 -0.1616  0.7062  1.5404
10099SOL     OW41515   0.227   4.246   6.477 -0.1486 -0.2730  0.0603
10099SOL    HW141516   0.203   4.207   6.566  0.4921 -1.6453 -0.3488
10099SOL    HW241517   0.292   4.320   6.490 -0.3025 -0.2539  0.7586
10100SOL     OW41518   3.827   3.171   0.009 -0.0066 -0.3310  0.1228
10100SOL    HW141519   3.766   3.104   0.050  0.8929 -1.7868 -0.8946
10100SOL    HW241520   3.922   3.143   0.023  0.4094  1.2062  0.4868
10101SOL     OW41521   3.660   6.046   6.210  0.0230 -0.5852 -0.0947
10101SOL    HW141522   3.684   6.053   6.113 -0.4681 -1.7141 -0.3056
10101SOL    HW241523   3.627   5.953   6.229 -0.9584 -0.0326  0.9157
10102SOL     OW41524   3.485   2.911   3.403  0.5218 -0.1834 -0.2345
10102SOL    HW141525   3.445   2.953   3.484  2.4895  0.0517  0.6541
10102SOL    HW241526   3.512   2.817   3.424  0.3220 -0.3811 -0.8553
10103SOL     OW41527   3.604   4.366   3.545  0.2878  0.0959  0.0324
10103SOL    HW141528   3.624   4.464   3.535  1.2253  0.0106  1.0106
10103SOL    HW241529   3.576   4.329   3.457 -2.6158  1.8134  0.1666
10104SOL     OW41530   9.462   0.906   1.497 -0.0466  0.3242 -0.2196
10104SOL    HW141531   9.476   0.886   1.594 -0.4421 -1.4692 -0.5104
10104SOL    HW241532   9.507   0.992   1.474  0.8516  0.2934  1.3383
10105SOL     OW41533   1.874   2.844   2.981 -0.2036 -0.0926  0.2615
10105SOL    HW141534   1.889   2.798   2.893  0.6664  1.2783 -0.3379
10105SOL    HW241535   1.841   2.779   3.048 -0.0751 -1.3406 -0.8688
10106SOL     OW41536   2.052   3.365   6.547 -0.2676 -0.3514 -0.0161
10106SOL    HW141537   2.124   3.330   6.488 -0.3663 -0.7921  0.1190
10106SOL    HW241538   2.091   3.426   6.616 -0.3353  1.3419 -1.4332
10107SOL     OW41539   0.800   9.064   0.269  0.4327 -0.5520  0.5615
10107SOL    HW141540   0.856   9.095   0.346 -0.3729 -1.0333  1.3517
10107SOL    HW241541   0.857   9.055   0.187  1.3737 -0.4070  1.1965
10108SOL     OW41542   9.994   9.758   2.195 -0.4757 -0.2798 -0.0429
10108SOL    HW141543   9.909   9.714   2.223 -1.0872  1.5074  0.9188
10108SOL    HW241544  10.068   9.728   2.254 -0.7631 -0.5109  0.1993
10109SOL     OW41545   0.150   3.931   4.132 -0.3410 -0.1209 -0.5714
10109SOL    HW141546   0.192   3.871   4.200 -0.8940 -0.8923 -0.9035
10109SOL    HW241547   0.210   4.009   4.114 -0.1303  0.0191  0.7010
10110SOL     OW41548   4.368   0.804   1.108 -0.0118 -0.3196 -0.2488
10110SOL    HW141549   4.300   0.824   1.037 -1.4626 -2.1965  0.5645
10110SOL    HW241550   4.333   0.733   1.169  2.5612 -1.1016  0.3979
10111SOL     OW41551   2.481   9.651   5.883 -0.1270  0.1058 -0.4260
10111SOL    HW141552   2.519   9.593   5.955 -1.0689  0.7215  0.6011
10111SOL    HW241553   2.444   9.735   5.924 -0.6065  0.5023 -1.6381
10112SOL     OW41554   6.040   4.282   6.506 -0.1337 -0.6456 -0.3215
10112SOL    HW141555   6.019   4.187   6.531 -1.0866  0.3641  2.9880
10112SOL    HW241556   5.967   4.342   6.538  1.9306  1.5834  0.3808
10113SOL     OW41557   8.614   2.150   2.932  0.5617 -0.3026  0.1752
10113SOL    HW141558   8.684   2.178   2.999 -0.6056 -1.1108  1.7600
10113SOL    HW241559   8.578   2.061   2.958 -1.6302  0.4687 -0.1808
10114SOL     OW41560   4.963   9.233   5.223  0.0012  0.1243  0.7942
10114SOL    HW141561   5.020   9.303   5.180  0.9838 -1.0464  0.1570
10114SOL    HW241562   4.867   9.253   5.207  0.3427 -0.9656 -3.0905
10115SOL     OW41563   9.951   9.457   1.715 -0.5177  0.2461 -0.2340
10115SOL    HW141564   9.994   9.524   1.776  0.1945 -0.3586 -0.0639
10115SOL    HW241565  10.006   9.447   1.632 -1.0248  0.4266 -0.5961
10116SOL     OW41566   0.878   2.228   5.494  0.1531 -0.6363  0.5054
10116SOL    HW141567   0.780   2.210   5.483  0.4336 -1.7875 -0.1852
10116SOL    HW241568   0.903   2.309   5.441 -0.6181  0.2774  1.5131
10117SOL     OW41569   3.674   1.521   0.460 -0.3524 -0.3300  0.1507
10117SOL    HW141570   3.701   1.606   0.505  0.2938 -0.9281  0.9121
10117SOL    HW241571   3.599   1.478   0.511 -0.2261 -0.5510  0.1536
10118SOL     OW41572   1.667   9.759   2.590  0.2083 -0.0520  1.1049
10118SOL    HW141573   1.629   9.747   2.498  0.5024 -0.8857  1.0877
10118SOL    HW241574   1.594   9.747   2.657  0.3683 -1.3595  1.0574
10119SOL     OW41575   0.471   5.491   1.106  0.5152 -0.1881 -0.2728
10119SOL    HW141576   0.427   5.580   1.106  1.5052  0.3122 -1.1382
10119SOL    HW241577   0.555   5.495   1.052  0.9562 -1.4540  0.2907
10120SOL     OW41578   0.523   3.542   6.745  0.5936 -0.5084  0.2046
10120SOL    HW141579   0.570   3.544   6.834  0.7039 -0.0533  0.1355
10120SOL    HW241580   0.556   3.463   6.693 -0.5708 -1.6409  1.1607
10121SOL     OW41581   8.205   3.315   4.603  0.0301  0.7290  0.5337
10121SOL    HW141582   8.145   3.245   4.642  1.2097  0.2302  1.5031
10121SOL    HW241583   8.271   3.272   4.541  0.5450  1.0193  0.8720
10122SOL     OW41584   2.205   4.458   6.338 -0.4123  0.1843 -0.2275
10122SOL    HW141585   2.294   4.418   6.360 -0.4010 -2.1082 -3.9835
10122SOL    HW241586   2.134   4.411   6.389  0.3483  0.8990  1.5237
10123SOL     OW41587   5.188   6.021   2.241  0.2445  0.0509  0.6171
10123SOL    HW141588   5.284   6.024   2.214  0.4273 -0.1729  1.2301
10123SOL    HW241589   5.146   5.938   2.206  0.2980  0.1032  0.4272
10124SOL     OW41590   5.963   0.298   3.861  0.3730 -0.5112 -0.3906
10124SOL    HW141591   5.985   0.201   3.873  0.3082 -1.0025 -3.7515
10124SOL    HW241592   6.048   0.351   3.857  0.5810 -0.9705 -2.4596
10125SOL     OW41593   0.895   4.131   0.700 -0.1000 -0.3068  0.0843
10125SOL    HW141594   0.863   4.039   0.681 -1.7381  0.2281  0.2286
10125SOL    HW241595   0.881   4.153   0.796  1.8728 -0.5063  0.4499
10126SOL     OW41596   3.517   3.638   4.722  0.3782  0.4379  0.3570
10126SOL    HW141597   3.530   3.656   4.819 -1.8736 -1.2923  1.0237
10126SOL    HW241598   3.560   3.551   4.698  0.2617  0.4837 -0.0238
10127SOL     OW41599   4.267   8.749   0.438 -0.5393  0.1550 -0.0468
10127SOL    HW141600   4.187   8.777   0.491  0.3593  1.9402  0.3931
10127SOL    HW241601   4.335   8.709   0.500 -0.1371  0.7996 -0.0666
10128SOL     OW41602   8.828   0.752   1.713 -0.2297  0.2791 -0.0226
10128SOL    HW141603   8.768   0.831   1.728 -0.6924 -0.2038  0.6953
10128SOL    HW241604   8.849   0.745   1.615 -2.7026 -0.4932 -0.5538
10129SOL     OW41605   1.075   0.275   5.675 -0.5985  0.3901 -0.3959
10129SOL    HW141606   1.119   0.358   5.708  0.0095 -0.5775  1.3344
10129SOL    HW241607   1.136   0.226   5.614 -0.1343  0.1842  0.2247
10130SOL     OW41608   3.701   4.867   6.222  0.0516 -0.3999 -0.3656
10130SOL    HW141609   3.650   4.781   6.226 -0.8895  0.1169 -1.0376
10130SOL    HW241610   3.723   4.888   6.127  0.4992 -0.0314 -0.1803
10131SOL     OW41611   2.357   2.776   6.274 -0.7510  0.5058  0.1370
10131SOL    HW141612   2.396   2.825   6.352 -0.2281 -0.8094  0.7180
10131SOL    HW241613   2.373   2.828   6.190 -0.4083  1.4313  0.7669
10132SOL     OW41614   5.068   1.517   4.108 -0.7270  0.7757  0.3234
10132SOL    HW141615   5.046   1.579   4.183 -1.5489 -1.2352  1.7869
10132SOL    HW241616   5.126   1.442   4.142 -1.6312 -0.5003 -0.8948
10133SOL     OW41617   1.708   8.465   0.591  0.0561 -0.0403  0.8616
10133SOL    HW141618   1.754   8.514   0.517  0.7195  2.2025  2.6587
10133SOL    HW241619   1.609   8.470   0.578  0.1559  0.7107  0.3349
10134SOL     OW41620   5.606   9.221   4.236  0.2743  0.2962 -0.1099
10134SOL    HW141621   5.526   9.268   4.274 -0.0868 -0.2556 -0.1897
10134SOL    HW241622   5.689   9.265   4.271 -0.0620  1.4198 -0.7250
10135SOL     OW41623   9.199   7.369   5.303  0.7067 -0.2837 -0.5856
10135SOL    HW141624   9.270   7.412   5.358  0.1030 -0.7543  0.5568
10135SOL    HW241625   9.111   7.376   5.349  0.1542 -0.4613 -1.5992
10136SOL     OW41626   6.889   2.622   2.741  0.2830 -0.4343 -0.3782
10136SOL    HW141627   6.941   2.704   2.716 -0.5186  0.7827  1.8525
10136SOL    HW241628   6.853   2.579   2.658  0.0738  1.8851 -1.5162
10137SOL     OW41629   4.119   2.588   6.053  0.0089 -0.3044  0.0971
10137SOL    HW141630   4.059   2.604   5.975  0.0662  0.4120  0.1924
10137SOL    HW241631   4.148   2.492   6.055 -0.0750 -0.3445 -0.6966
10138SOL     OW41632   9.557   0.422   2.408  0.4922 -0.8328  0.2423
10138SOL    HW141633   9.581   0.350   2.343  0.6867 -1.1877  0.7063
10138SOL    HW241634   9.462   0.411   2.437  0.1276 -0.1500 -0.6542
10139SOL     OW41635   5.002   3.395   4.697  0.1834 -0.2275 -0.1929
10139SOL    HW141636   5.034   3.486   4.720 -1.9948  0.4879  0.1674
10139SOL    HW241637   4.953   3.398   4.610  0.2933 -1.1046 -0.2921
10140SOL     OW41638   7.603   2.941   2.843 -0.1489  0.4320 -0.2009
10140SOL    HW141639   7.623   3.037   2.820 -0.1086  0.6874  0.8985
10140SOL    HW241640   7.652   2.916   2.926 -1.0337 -0.2285  0.1228
10141SOL     OW41641   2.112   8.920   5.150 -0.2555  0.3148  0.1505
10141SOL    HW141642   2.075   8.880   5.066  0.1794  0.2579 -0.0124
10141SOL    HW241643   2.211   8.905   5.154 -0.0375  1.6965 -0.0849
10142SOL     OW41644   9.584   1.161   3.823  0.6313  0.2135  0.5063
10142SOL    HW141645   9.512   1.108   3.867  0.7468  0.1114  0.5708
10142SOL    HW241646   9.557   1.257   3.819  0.7680  0.2797  1.1037
10143SOL     OW41647   8.451   9.136   3.080  0.3005 -0.5362 -0.0258
10143SOL    HW141648   8.463   9.131   2.981  1.3556 -0.4759  0.0921
10143SOL    HW241649   8.373   9.194   3.101 -0.5570 -1.3839 -0.8468
10144SOL     OW41650   8.040   3.185   6.549 -0.9384  0.7344  0.0756
10144SOL    HW141651   7.955   3.159   6.502  0.1944 -1.7782 -0.6417
10144SOL    HW241652   8.048   3.132   6.634  0.5439  0.0109 -0.5123
10145SOL     OW41653   7.807   1.299   5.744 -0.0105  0.5882  0.2942
10145SOL    HW141654   7.738   1.302   5.671 -0.4783 -2.2513  0.5590
10145SOL    HW241655   7.761   1.282   5.832  0.9441 -0.3329  0.6159
10146SOL     OW41656   9.434   1.227   3.123 -0.1570  0.2038  0.4889
10146SOL    HW141657   9.517   1.277   3.146  0.2640  0.0198 -0.6018
10146SOL    HW241658   9.380   1.211   3.206  0.4260  1.1565  1.0577
10147SOL     OW41659   7.056   7.848   5.165 -0.2961 -0.1424 -0.0256
10147SOL    HW141660   6.987   7.794   5.116 -0.9363  0.2190  0.4745
10147SOL    HW241661   7.126   7.786   5.202  0.1329 -0.4334 -1.2828
10148SOL     OW41662   8.731   4.028   2.934  0.2045  0.0389 -0.1362
10148SOL    HW141663   8.666   4.062   3.002  0.2444  0.9245 -0.5361
10148SOL    HW241664   8.686   4.020   2.845  0.1616 -1.0872 -0.0280
10149SOL     OW41665   2.288   0.550   1.406 -0.4269 -0.6276  0.0122
10149SOL    HW141666   2.222   0.525   1.477 -1.1150  2.7936  0.6600
10149SOL    HW241667   2.381   0.527   1.438 -0.9369 -1.4960  0.9110
10150SOL     OW41668   8.959   3.630   1.524 -0.6371 -0.2214 -0.1287
10150SOL    HW141669   8.901   3.641   1.443 -0.4512  1.9128 -0.0227
10150SOL    HW241670   8.906   3.652   1.605  0.1035  1.0593  0.0247
10151SOL     OW41671   3.491   7.660   2.078  0.3311 -0.2860 -0.5479
10151SOL    HW141672   3.418   7.639   2.142 -1.0910  0.4458 -1.9076
10151SOL    HW241673   3.558   7.720   2.122 -1.8511  2.1454 -0.4767
10152SOL     OW41674   7.835   1.699   1.132  0.1430 -0.1613  0.3580
10152SOL    HW141675   7.757   1.685   1.194  0.0263  0.6180  0.3957
10152SOL    HW241676   7.801   1.702   1.038 -0.1645  2.1294  0.4938
10153SOL     OW41677   4.708   8.977   1.411  0.1085 -0.4314 -0.3514
10153SOL    HW141678   4.744   8.884   1.398 -0.9040 -0.7817 -0.7312
10153SOL    HW241679   4.780   9.044   1.394  0.8080 -1.1441 -0.2289
10154SOL     OW41680   4.984   9.676   6.590  0.0128  0.4225  0.0851
10154SOL    HW141681   5.022   9.607   6.527 -1.5667 -0.3794 -0.0193
10154SOL    HW241682   4.915   9.730   6.541  0.1525  1.0653  0.6035
10155SOL     OW41683   0.789   3.088   2.515 -0.3841 -0.8120  0.5556
10155SOL    HW141684   0.849   3.166   2.531  0.2972 -1.5566  1.6243
10155SOL    HW241685   0.696   3.121   2.500  0.2621  0.3461 -1.1160
10156SOL     OW41686   1.728   5.929   3.343  0.6785 -0.1843  0.0785
10156SOL    HW141687   1.636   5.960   3.367  0.2083 -0.7450 -0.9643
10156SOL    HW241688   1.783   6.008   3.315  0.7941  0.2713  1.5449
10157SOL     OW41689   4.048   5.326   0.719 -0.6431  0.6530 -0.0586
10157SOL    HW141690   4.077   5.272   0.640 -1.6741 -1.1861  0.7919
10157SOL    HW241691   3.955   5.360   0.705 -1.4879 -1.1139  1.0474
10158SOL     OW41692   4.974   5.172   3.698 -0.4204 -0.5111 -0.0835
10158SOL    HW141693   4.906   5.236   3.661 -1.6166 -1.7397 -0.0661
10158SOL    HW241694   4.929   5.106   3.759  0.8647 -1.0578  0.3040
10159SOL     OW41695   0.318   0.140   3.476  0.1716  0.3061  0.1778
10159SOL    HW141696   0.234   0.099   3.441  0.8457 -0.4982 -0.5251
10159SOL    HW241697   0.319   0.238   3.454  0.4890 -0.1340 -1.9317
10160SOL     OW41698   0.240   4.736   4.033  0.0563  0.3469 -0.3476
10160SOL    HW141699   0.229   4.827   4.074  0.7462  0.3860 -0.2397
10160SOL    HW241700   0.250   4.668   4.106  2.0418  0.5119 -0.4206
10161SOL     OW41701   9.067   1.029   0.760  1.1794  0.2693 -0.1619
10161SOL    HW141702   9.119   0.982   0.832  1.2112  2.4323  1.2581
10161SOL    HW241703   9.050   0.965   0.685  2.9885 -1.4311  0.8175
10162SOL     OW41704   7.896   9.406   5.405 -0.7521  0.0078 -0.3641
10162SOL    HW141705   7.910   9.386   5.502 -1.5691 -2.1311 -0.6516
10162SOL    HW241706   7.806   9.448   5.393 -1.4198 -1.3658 -0.3609
10163SOL     OW41707   2.797   8.525   3.472  0.2891 -0.0173 -0.5530
10163SOL    HW141708   2.877   8.541   3.414  1.5271  2.1949  1.6385
10163SOL    HW241709   2.733   8.601   3.462  0.5517  0.4340  0.9807
10164SOL     OW41710   8.596   4.649   2.243 -0.2054 -0.1545  0.3589
10164SOL    HW141711   8.617   4.636   2.146  1.5152  1.3443  0.5128
10164SOL    HW241712   8.682   4.656   2.295 -1.1115  0.8817  1.7364
10165SOL     OW41713   0.744   5.591   6.621  0.0845  0.3350  0.0075
10165SOL    HW141714   0.660   5.589   6.565  0.8123 -1.6778 -1.0803
10165SOL    HW241715   0.761   5.684   6.651 -2.8689  0.7070  0.7402
10166SOL     OW41716   4.574   7.669   2.747 -0.0327  0.2584  0.0378
10166SOL    HW141717   4.479   7.652   2.718  0.0628 -0.5596  0.1729
10166SOL    HW241718   4.603   7.594   2.807  1.1594 -0.2071 -1.1035
10167SOL     OW41719   7.600   8.711   2.853  0.3106 -0.5707 -0.0031
10167SOL    HW141720   7.551   8.797   2.843  1.7317  0.1931 -0.5697
10167SOL    HW241721   7.589   8.656   2.770  0.2654 -0.4791 -0.0568
10168SOL     OW41722   5.019   3.791   0.061 -0.5824 -0.4912  0.0425
10168SOL    HW141723   5.039   3.888   0.075 -2.0313 -0.2905  0.8877
10168SOL    HW241724   4.948   3.763   0.126  0.9926 -2.5334  0.9356
10169SOL     OW41725   7.933   1.779   6.741 -0.6653 -0.5232 -1.0388
10169SOL    HW141726   7.866   1.803   6.671 -1.9424  1.0008  0.6788
10169SOL    HW241727   8.017   1.833   6.727 -0.4568 -1.1063 -2.0912
10170SOL     OW41728   2.291   6.347   3.728 -0.5127 -0.3931 -0.2016
10170SOL    HW141729   2.358   6.389   3.666  0.8343  0.6566  1.8943
10170SOL    HW241730   2.339   6.311   3.809 -2.5263  0.9301  1.6386
10171SOL     OW41731   9.027   2.029   6.069  0.2362  0.3216  0.4573
10171SOL    HW141732   9.020   2.042   6.168  0.1642 -1.9810  0.7949
10171SOL    HW241733   9.121   2.007   6.045  0.6107  2.5728 -0.2404
10172SOL     OW41734   8.643   3.126   4.350  0.1266  0.6706  0.0942
10172SOL    HW141735   8.725   3.108   4.404  0.3944 -0.9367 -0.8109
10172SOL    HW241736   8.599   3.039   4.326 -1.7829  1.4981  0.4621
10173SOL     OW41737   2.842   8.435   0.310  0.1086 -0.2694 -0.4640
10173SOL    HW141738   2.924   8.391   0.275 -1.2072 -0.7347 -3.0557
10173SOL    HW241739   2.781   8.367   0.349  1.1058  0.1299  1.8966
10174SOL     OW41740   4.270   9.643   3.736 -0.2022  0.1772  0.2337
10174SOL    HW141741   4.218   9.728   3.740 -0.3517  0.0762  0.4427
10174SOL    HW241742   4.343   9.646   3.804 -0.6703 -0.1665  0.7539
10175SOL     OW41743   9.141   8.025   5.123 -0.1506  0.1508 -0.0141
10175SOL    HW141744   9.189   8.024   5.035 -0.1633  0.8447 -0.0265
10175SOL    HW241745   9.182   8.094   5.183 -1.3364  0.9739 -0.1322
10176SOL     OW41746   9.989   7.100   0.335 -0.1763  0.2999 -0.4210
10176SOL    HW141747   9.927   7.174   0.361 -0.4934 -0.3598  0.7324
10176SOL    HW241748  10.057   7.135   0.270 -1.8450  0.9685 -1.8167
10177SOL     OW41749   9.317   8.773   3.321 -0.0566  0.0738 -0.7035
10177SOL    HW141750   9.218   8.757   3.326 -0.4301  2.3062 -0.7542
10177SOL    HW241751   9.365   8.688   3.345 -1.9734 -1.2673 -1.4881
10178SOL     OW41752   3.285   4.134   1.933  0.5991 -0.5605 -0.7100
10178SOL    HW141753   3.370   4.130   1.986  1.3084  0.8509 -1.6974
10178SOL    HW241754   3.301   4.096   1.842  0.8173  1.7624 -1.6787
10179SOL     OW41755   1.816   1.733   3.760  0.2818  0.0758 -0.3162
10179SOL    HW141756   1.824   1.827   3.794 -0.8224 -0.5765  1.8415
10179SOL    HW241757   1.873   1.673   3.816 -1.1744 -0.9550  0.0827
10180SOL     OW41758   8.061   4.485   1.329 -0.4405 -0.3270 -0.0632
10180SOL    HW141759   7.998   4.563   1.317  0.5268  0.5199  0.3076
10180SOL    HW241760   8.149   4.518   1.361 -0.2135 -1.6565  0.7213
10181SOL     OW41761   4.426   3.321   3.651  0.6349  0.0615 -0.2436
10181SOL    HW141762   4.440   3.269   3.735  2.3856  0.0072 -0.5531
10181SOL    HW241763   4.406   3.259   3.576 -0.5650  0.0853  0.0396
10182SOL     OW41764   7.777   0.430   5.358 -1.0117 -0.3337 -0.3150
10182SOL    HW141765   7.728   0.348   5.328 -0.1154 -0.8168 -0.5055
10182SOL    HW241766   7.851   0.403   5.420 -1.0372  0.3862  0.0351
10183SOL     OW41767   6.578   2.074   4.133 -0.0129 -0.2182  0.0530
10183SOL    HW141768   6.585   2.015   4.214 -0.2214 -1.5894 -0.9091
10183SOL    HW241769   6.492   2.056   4.086  0.7282 -0.4560 -1.2492
10184SOL     OW41770   9.195   0.335   2.634  0.1284 -0.4459  0.0210
10184SOL    HW141771   9.109   0.376   2.604  0.6635 -0.7446 -2.0249
10184SOL    HW241772   9.188   0.235   2.630  0.1566 -0.5047  1.1205
10185SOL     OW41773   0.125   3.957   6.409 -0.1335  0.2885  0.2886
10185SOL    HW141774   0.095   3.911   6.492 -1.6039  1.4271  0.4113
10185SOL    HW241775   0.168   4.044   6.433 -0.6043  0.6430 -0.1331
10186SOL     OW41776   4.100   8.978   2.535  0.2908  0.0734  0.1558
10186SOL    HW141777   4.178   8.915   2.532 -1.0212 -1.5308 -1.3162
10186SOL    HW241778   4.110   9.046   2.462 -0.0247 -0.5748 -0.5042
10187SOL     OW41779   8.357   4.944   0.399  0.1123  0.1175  0.1711
10187SOL    HW141780   8.438   4.924   0.344 -0.2981 -1.3775  0.0902
10187SOL    HW241781   8.360   4.890   0.484 -0.2724  0.8639  0.6642
10188SOL     OW41782   4.160   6.302   0.718  0.1365 -0.6264 -0.0531
10188SOL    HW141783   4.170   6.209   0.684  0.0472 -0.5928 -0.1686
10188SOL    HW241784   4.242   6.328   0.770 -0.4766 -1.3181  1.2780
10189SOL     OW41785   1.827   9.417   5.953 -0.2508 -0.8417  0.6685
10189SOL    HW141786   1.751   9.354   5.967 -1.0987 -0.7024 -2.8637
10189SOL    HW241787   1.791   9.510   5.939  0.7125 -0.4160  0.9556
10190SOL     OW41788   2.091   1.251   3.787 -0.1040 -0.2161  0.4316
10190SOL    HW141789   2.017   1.204   3.739 -0.6781  0.4435  0.6610
10190SOL    HW241790   2.121   1.329   3.732 -2.0868  1.7126  1.9946
10191SOL     OW41791   2.485   0.885   1.391 -0.2098 -0.3973 -0.3435
10191SOL    HW141792   2.410   0.846   1.337  0.2554 -2.2243  0.2640
10191SOL    HW241793   2.460   0.882   1.488  0.2397 -0.0756 -0.2173
10192SOL     OW41794   2.916   6.539   3.649 -0.0449 -1.0271 -0.0725
10192SOL    HW141795   2.905   6.634   3.619  0.1381 -0.9169  0.2026
10192SOL    HW241796   2.829   6.506   3.685  0.2192 -0.5294  1.0438
10193SOL     OW41797   3.010   5.562   5.923 -0.0687  0.4349  0.1864
10193SOL    HW141798   3.035   5.501   5.998  1.2473 -0.4760 -0.9849
10193SOL    HW241799   2.916   5.545   5.896 -0.5003  0.6545  1.5245
10194SOL     OW41800   2.137   0.056   0.545  0.1762 -0.5006 -0.2913
10194SOL    HW141801   2.052   0.096   0.512  1.3522  1.9756 -0.4489
10194SOL    HW241802   2.148   0.076   0.642  1.0876  0.1346 -0.5214
10195SOL     OW41803   1.308   5.183   0.632 -0.2528  0.1018 -0.2429
10195SOL    HW141804   1.351   5.195   0.722  1.2047 -3.0089 -0.4693
10195SOL    HW241805   1.364   5.228   0.562  0.3033 -0.2139 -0.0003
10196SOL     OW41806   4.562   4.281   4.696 -0.2634  0.3002  0.3101
10196SOL    HW141807   4.654   4.287   4.659  0.0887 -2.5727  0.6267
10196SOL    HW241808   4.499   4.250   4.625  0.0785 -3.3500  1.4868
10197SOL     OW41809   3.363   6.661   3.180  0.2728  0.3572  0.0556
10197SOL    HW141810   3.293   6.651   3.109  2.6725 -0.4001 -2.2856
10197SOL    HW241811   3.360   6.582   3.242  1.3285 -1.4595 -2.1515
10198SOL     OW41812   2.335   9.854   0.498 -0.2706 -0.3514  0.3751
10198SOL    HW141813   2.259   9.918   0.503  0.2094  0.1213  1.9795
10198SOL    HW241814   2.300   9.761   0.493 -0.9483 -0.1524  1.3741
10199SOL     OW41815   7.213   4.228   1.428  0.0917  0.3240 -0.7772
10199SOL    HW141816   7.192   4.301   1.364 -0.5059  0.1392 -0.7898
10199SOL    HW241817   7.286   4.257   1.490  0.0675  0.8137 -0.9818
10200SOL     OW41818   6.500   9.674   3.077 -0.2050 -0.0342  0.2683
10200SOL    HW141819   6.564   9.657   3.002 -2.1207 -0.7122 -1.2559
10200SOL    HW241820   6.527   9.756   3.125  1.0713  0.4216 -1.1686
10201SOL     OW41821   0.525   8.688   0.779  0.0468 -0.1712 -0.0819
10201SOL    HW141822   0.569   8.628   0.847  1.1213  0.3630 -0.3073
10201SOL    HW241823   0.479   8.631   0.710  2.0893 -0.7556 -0.9742
10202SOL     OW41824   2.803   5.086   0.035 -0.2732  0.3672  0.2041
10202SOL    HW141825   2.879   5.021   0.037  1.0669  1.9375  0.5702
10202SOL    HW241826   2.759   5.082  -0.055  0.3625 -0.3979 -0.0783
10203SOL     OW41827   7.962   6.336   2.917 -0.2408  0.3143 -0.1157
10203SOL    HW141828   8.046   6.355   2.867 -1.5242  1.7638 -1.8073
10203SOL    HW241829   7.908   6.421   2.924 -0.1128  0.2035  3.7711
10204SOL     OW41830   3.521   9.506   4.450  0.3445  0.2693 -0.3882
10204SOL    HW141831   3.516   9.586   4.390 -0.5316 -0.5725 -1.4558
10204SOL    HW241832   3.571   9.433   4.404 -1.1927 -0.7307 -0.4982
10205SOL     OW41833   4.656   9.012   5.167  0.4666  0.1095 -0.1786
10205SOL    HW141834   4.606   9.045   5.087 -0.0505  1.1611  0.5713
10205SOL    HW241835   4.652   9.081   5.240 -0.8385 -1.7192  1.5062
10206SOL     OW41836   2.101   8.954   3.228 -0.8966  0.0261  0.2305
10206SOL    HW141837   2.100   9.013   3.147  2.5302  1.0440  0.8897
10206SOL    HW241838   2.154   8.872   3.208  1.3036  1.0067  1.8946
10207SOL     OW41839   1.932   1.303   3.045  0.2217 -0.1627 -0.3635
10207SOL    HW141840   1.854   1.241   3.047  0.2220 -0.1651 -0.4080
10207SOL    HW241841   1.901   1.396   3.026  0.1904 -0.0976  0.0046
10208SOL     OW41842   4.969   7.239   1.888 -0.0855 -0.0218  0.3664
10208SOL    HW141843   5.005   7.278   1.803 -1.0079  1.0164  0.4325
10208SOL    HW241844   4.961   7.311   1.957  1.3969 -1.0118  1.6017
10209SOL     OW41845   2.598   4.379   4.059 -0.8427  0.1394  0.0878
10209SOL    HW141846   2.647   4.339   3.982  1.0700 -1.0739  1.8800
10209SOL    HW241847   2.652   4.454   4.098 -2.3272  1.5162 -0.4297
10210SOL     OW41848   1.090   7.550   5.584  0.4929 -0.0408 -0.2865
10210SOL    HW141849   1.094   7.454   5.611  0.2892  0.7664  2.8085
10210SOL    HW241850   1.002   7.589   5.612  0.5424  1.0267 -1.5850
10211SOL     OW41851   1.630   9.352   2.269  0.3713 -0.2233  0.5488
10211SOL    HW141852   1.554   9.366   2.333  0.3792  0.5783  0.3768
10211SOL    HW241853   1.648   9.254   2.261  1.6436 -0.2411  3.2534
10212SOL     OW41854   8.373   9.755   1.172  0.0144  0.2235 -1.0165
10212SOL    HW141855   8.305   9.806   1.224 -1.1266 -0.9177 -1.3678
10212SOL    HW241856   8.462   9.800   1.181 -0.4288  0.7831  0.8370
10213SOL     OW41857   2.895   0.373   5.484 -0.3024  0.2642 -0.4779
10213SOL    HW141858   2.983   0.335   5.456 -1.4150 -0.3889 -3.2126
10213SOL    HW241859   2.867   0.332   5.571  2.4759  1.1486  0.8819
10214SOL     OW41860   8.526   3.609   5.737  0.2569  0.1486  0.3167
10214SOL    HW141861   8.621   3.577   5.731  0.3081  0.5271 -1.1148
10214SOL    HW241862   8.525   3.700   5.777  0.4101 -0.2370  1.2134
10215SOL     OW41863   1.320   7.557   2.554 -0.2962  0.2496 -0.7733
10215SOL    HW141864   1.342   7.614   2.476  0.4786 -0.2503 -0.9202
10215SOL    HW241865   1.227   7.521   2.544 -0.1086 -0.0089 -1.5759
10216SOL     OW41866   4.941   5.877   2.392  0.2000 -0.1002  0.8539
10216SOL    HW141867   4.874   5.874   2.467  0.3326  0.7787  1.0141
10216SOL    HW241868   4.912   5.944   2.324  1.2734  0.8209  1.2795
10217SOL     OW41869   3.823   9.409   3.950 -0.1145 -0.6342 -0.2232
10217SOL    HW141870   3.909   9.440   3.910  0.0184 -1.7840 -0.8631
10217SOL    HW241871   3.821   9.432   4.047  0.8139 -0.3901 -0.2558
10218SOL     OW41872   0.940   3.094   4.005  0.8591 -0.7587 -0.4120
10218SOL    HW141873   0.874   3.108   4.078  1.4460 -1.6592  0.3102
10218SOL    HW241874   0.922   3.157   3.930  1.0621  1.0815  1.0643
10219SOL     OW41875   0.963   7.582   1.723  0.0977  0.2076  0.4799
10219SOL    HW141876   1.013   7.550   1.642  0.5796  1.8602  0.1230
10219SOL    HW241877   1.020   7.569   1.804 -0.1212 -0.8219  0.4742
10220SOL     OW41878   2.503   4.136   0.819  0.1543  0.2351 -0.6294
10220SOL    HW141879   2.417   4.098   0.852 -1.4193  2.6291 -1.8557
10220SOL    HW241880   2.546   4.190   0.891 -0.1442  0.3395 -0.5335
10221SOL     OW41881   7.554   2.227   6.039  0.0522 -0.0686  1.3193
10221SOL    HW141882   7.590   2.311   5.997  0.5081 -0.7995  0.2206
10221SOL    HW241883   7.629   2.180   6.087 -0.2167  0.1665  1.9831
10222SOL     OW41884   3.242   9.646   1.950  0.1178 -0.7179  0.6680
10222SOL    HW141885   3.322   9.590   1.971  0.6566  0.1203  0.8759
10222SOL    HW241886   3.175   9.637   2.024 -0.7278 -2.7530 -0.3083
10223SOL     OW41887   5.136   7.693   3.241  0.3168  0.2164 -0.2366
10223SOL    HW141888   5.181   7.722   3.325  0.3721 -1.2261  0.2330
10223SOL    HW241889   5.046   7.657   3.261  0.4870 -0.5051 -0.7527
10224SOL     OW41890   3.455   0.199   1.161 -0.9276  0.4529  0.3174
10224SOL    HW141891   3.438   0.186   1.063  0.8370  0.3596  0.0166
10224SOL    HW241892   3.537   0.149   1.187 -0.9309  1.1567  1.6850
10225SOL     OW41893   2.617   4.275   0.595 -0.1751  0.3492  0.8494
10225SOL    HW141894   2.597   4.217   0.516  1.1161 -0.5079  1.1260
10225SOL    HW241895   2.567   4.242   0.674 -1.6152  1.3181  0.3733
10226SOL     OW41896   4.549   0.723   3.534  0.1577 -0.3988  0.3734
10226SOL    HW141897   4.648   0.733   3.529  0.0600 -0.2702 -1.8475
10226SOL    HW241898   4.520   0.645   3.478 -0.9378 -0.9040  1.6032
10227SOL     OW41899   3.534   1.595   5.760  0.0090 -0.4153  0.4907
10227SOL    HW141900   3.573   1.506   5.783 -0.1101 -0.1081  1.9521
10227SOL    HW241901   3.453   1.582   5.702 -1.4907 -1.4317  2.7304
10228SOL     OW41902   8.088   1.953   2.167  0.1861  0.1455  0.4779
10228SOL    HW141903   8.069   2.045   2.202  0.4926 -0.0928  1.2701
10228SOL    HW241904   8.099   1.958   2.067 -1.6626  0.6607  0.2812
10229SOL     OW41905   8.077   7.021   6.273 -0.2822 -0.3930  0.3846
10229SOL    HW141906   8.092   7.023   6.372  2.3700  2.5876  0.0069
10229SOL    HW241907   8.162   7.046   6.226 -2.2134  0.9219 -2.5470
10230SOL     OW41908   5.148   1.859   0.369  0.0004  0.0869  0.3052
10230SOL    HW141909   5.120   1.809   0.287  0.9945 -0.6127  0.3825
10230SOL    HW241910   5.171   1.794   0.441  2.4902  0.6164  0.0140
10231SOL     OW41911   3.744   1.693   5.575  0.8166 -0.1691 -0.3678
10231SOL    HW141912   3.676   1.677   5.646  1.2058  0.3159  0.1237
10231SOL    HW241913   3.808   1.617   5.571  0.5583 -0.3802 -0.4689
10232SOL     OW41914   5.215   8.579   1.803  0.1910 -0.1103 -0.3782
10232SOL    HW141915   5.170   8.545   1.885 -0.2209  1.2584 -0.0219
10232SOL    HW241916   5.314   8.572   1.814  0.1359  0.0518  0.2238
10233SOL     OW41917   3.760   1.235   3.807  0.3091 -1.0184  0.8627
10233SOL    HW141918   3.668   1.211   3.840 -0.0837 -0.7377  0.0040
10233SOL    HW241919   3.782   1.178   3.728 -0.1437  0.6021 -0.4607
10234SOL     OW41920   2.625   4.617   4.402 -0.7202 -0.1932 -0.1357
10234SOL    HW141921   2.573   4.695   4.437 -2.1270 -0.8802 -0.6398
10234SOL    HW241922   2.667   4.567   4.478 -1.0157  0.2256  0.3003
10235SOL     OW41923   1.050   4.011   1.754  0.0199  0.3210 -0.0358
10235SOL    HW141924   1.022   4.087   1.695 -0.1558 -2.0346 -3.1014
10235SOL    HW241925   1.141   3.980   1.726  0.1623 -0.4752  1.3039
10236SOL     OW41926   0.261   6.805   0.668  0.2892 -0.2148  0.0687
10236SOL    HW141927   0.304   6.860   0.596 -0.4947  0.8853  0.4208
10236SOL    HW241928   0.212   6.729   0.626 -0.1957  0.4409 -0.5794
10237SOL     OW41929   7.858   2.148   6.161 -0.6142 -0.1186 -0.3379
10237SOL    HW141930   7.821   2.115   6.248  1.4261 -0.5084  0.4011
10237SOL    HW241931   7.957   2.150   6.165 -0.4504 -0.7101 -2.8860
10238SOL     OW41932   2.727   6.008   6.328 -0.5479  0.4267  0.1147
10238SOL    HW141933   2.646   5.992   6.271 -0.3903 -1.2924  0.3455
10238SOL    HW241934   2.707   6.079   6.395 -1.2517  1.3440 -1.0527
10239SOL     OW41935   6.765   1.126   4.058  0.4264  0.6445  0.0100
10239SOL    HW141936   6.818   1.046   4.031  1.4440  2.0710 -2.4870
10239SOL    HW241937   6.813   1.176   4.130  1.1792  0.5130 -0.3993
10240SOL     OW41938   8.182   2.552   4.727 -0.7344  0.1049 -1.1902
10240SOL    HW141939   8.133   2.521   4.646 -1.4477 -1.1549 -0.2982
10240SOL    HW241940   8.274   2.512   4.728  0.0047  1.7281 -2.3878
10241SOL     OW41941   0.926   6.005   0.180  0.1526  0.1506  0.6371
10241SOL    HW141942   0.989   6.065   0.229  1.5176 -1.8050  1.3448
10241SOL    HW241943   0.885   5.940   0.244 -0.2631 -0.5717 -0.3453
10242SOL     OW41944   9.490   9.328   1.919  0.3459 -0.5406 -0.0989
10242SOL    HW141945   9.418   9.376   1.969  0.7927  1.5226 -1.3688
10242SOL    HW241946   9.561   9.297   1.982  0.8963  2.0038  0.5715
10243SOL     OW41947   9.719   8.855   1.410  0.6165  0.2677 -0.1491
10243SOL    HW141948   9.772   8.889   1.333  0.0116 -1.0399 -1.1582
10243SOL    HW241949   9.686   8.932   1.465  0.3624  1.2371 -1.6435
10244SOL     OW41950   1.619   0.489   4.398 -0.5436  0.6828 -0.4928
10244SOL    HW141951   1.593   0.436   4.478  0.8832  0.1199 -0.3841
10244SOL    HW241952   1.632   0.585   4.423  2.2794  0.0993  0.5093
10245SOL     OW41953   1.988   9.667   5.128  0.2400 -0.4058  0.5100
10245SOL    HW141954   2.027   9.642   5.039 -1.1892 -1.8370  0.2730
10245SOL    HW241955   2.029   9.753   5.159  0.7794  0.0926 -1.5085
10246SOL     OW41956   4.715  10.000   6.202 -0.4085  0.4168 -0.1704
10246SOL    HW141957   4.752   9.918   6.245 -0.4690 -0.0126 -0.9148
10246SOL    HW241958   4.783  10.040   6.141 -0.4271  0.8487  0.0867
10247SOL     OW41959   8.399   8.868   6.662  0.1318 -0.5357  0.3060
10247SOL    HW141960   8.432   8.954   6.700  1.6645  0.5800 -3.3013
10247SOL    HW241961   8.442   8.792   6.711  1.0093  0.8034  1.6581
10248SOL     OW41962   4.083   2.167   4.274  0.2968 -0.0277  0.0998
10248SOL    HW141963   4.094   2.258   4.313  1.0559  0.0034 -0.1835
10248SOL    HW241964   4.165   2.142   4.222  0.3630 -1.1384  0.7181
10249SOL     OW41965   6.504   0.164   3.089  0.0723 -0.0482 -0.1795
10249SOL    HW141966   6.603   0.149   3.089  0.1117 -0.3286  3.1305
10249SOL    HW241967   6.457   0.078   3.066  0.5874 -0.4116  0.1168
10250SOL     OW41968   3.698   1.803   2.694 -0.6730  0.0887  0.2734
10250SOL    HW141969   3.639   1.820   2.773 -0.8720  1.7829 -0.2338
10250SOL    HW241970   3.782   1.857   2.702 -0.7578  0.3796 -0.7321
10251SOL     OW41971   3.003   2.263   4.689 -0.4903 -0.0630 -0.0499
10251SOL    HW141972   3.018   2.178   4.741 -0.5205 -0.7872 -1.2095
10251SOL    HW241973   3.008   2.243   4.591  0.3685  1.4453 -0.3199
10252SOL     OW41974   5.402   0.451   3.825  0.1644  0.5590 -0.0113
10252SOL    HW141975   5.460   0.511   3.770  0.7445 -0.6291 -0.7148
10252SOL    HW241976   5.367   0.376   3.768 -1.3788  0.7816  0.6055
10253SOL     OW41977   3.625   4.750   0.908 -0.0876  0.5255  0.6651
10253SOL    HW141978   3.680   4.731   0.827  0.2856 -1.5279  1.3710
10253SOL    HW241979   3.563   4.674   0.925 -0.7755  1.3279  1.8080
10254SOL     OW41980   0.895   1.590   1.952  0.0881 -0.4388  0.6509
10254SOL    HW141981   0.928   1.561   2.042 -0.3516 -1.6570  0.4317
10254SOL    HW241982   0.971   1.595   1.888  0.8658  3.1497  1.7502
10255SOL     OW41983   5.110   5.193   1.497 -0.1119  0.6378 -0.2523
10255SOL    HW141984   5.180   5.160   1.560  0.6287 -0.4582 -1.6430
10255SOL    HW241985   5.130   5.288   1.473  0.8098  0.3747 -0.5297
10256SOL     OW41986   4.828   5.830   1.020  0.2175  0.0985  0.1934
10256SOL    HW141987   4.738   5.797   0.990 -0.7488  0.3484  2.6652
10256SOL    HW241988   4.824   5.929   1.034  1.2607  0.3062 -0.9518
10257SOL     OW41989   8.440   5.371   0.873  0.1239 -0.2932  0.0961
10257SOL    HW141990   8.527   5.332   0.845 -1.0066 -1.7540 -1.5663
10257SOL    HW241991   8.387   5.396   0.792 -0.8264  0.9744  1.0808
10258SOL     OW41992   5.950   0.575   5.983 -0.1725 -0.0760  0.1295
10258SOL    HW141993   5.900   0.661   5.993 -1.0097 -0.5706  0.2658
10258SOL    HW241994   6.043   0.586   6.019  0.1566  1.1461 -1.0744
10259SOL     OW41995   3.752   7.424   4.760 -0.2966 -0.3636  0.3107
10259SOL    HW141996   3.716   7.433   4.667  1.5929  0.3358 -0.3812
10259SOL    HW241997   3.775   7.515   4.796 -1.4377 -0.5886  1.6389
10260SOL     OW41998   7.792   9.568   4.133 -0.3145 -0.5605  0.5473
10260SOL    HW141999   7.867   9.578   4.068  0.1198 -1.8519  0.8432
10260SOL    HW242000   7.708   9.543   4.084 -0.2247 -0.5138  0.3692
10261SOL     OW42001   0.737   2.103   3.504 -0.1292 -0.6300  0.2138
10261SOL    HW142002   0.645   2.106   3.543  0.5839 -0.4765  1.9611
10261SOL    HW242003   0.798   2.057   3.568  1.6225  1.8507  0.4110
10262SOL     OW42004   8.946   2.311   6.001 -0.0051  0.3134  0.4567
10262SOL    HW142005   9.012   2.382   6.025  1.2920 -0.7491  0.0876
10262SOL    HW242006   8.990   2.222   6.005 -1.8660 -0.5759  1.8659
10263SOL     OW42007   8.764   7.504   0.097  0.1926  0.4465 -0.3866
10263SOL    HW142008   8.820   7.491   0.015 -0.0003  1.3454 -0.6595
10263SOL    HW242009   8.782   7.430   0.162  0.1657 -0.4096 -1.3448
10264SOL     OW42010   3.278   8.857   4.306 -0.1040  0.3504 -0.2485
10264SOL    HW142011   3.282   8.758   4.301  2.4196  0.4215 -0.3537
10264SOL    HW242012   3.236   8.893   4.222  3.1873 -0.4409 -2.2972
10265SOL     OW42013   4.292   3.743   3.940 -0.1920 -0.9048  0.3157
10265SOL    HW142014   4.337   3.669   3.892 -0.1089  0.4972 -1.8363
10265SOL    HW242015   4.225   3.706   4.005 -1.3860 -2.8177 -1.9598
10266SOL     OW42016   6.706   8.767   2.107  0.1638  0.5167 -0.1526
10266SOL    HW142017   6.613   8.743   2.081  0.1631  0.2902  0.0490
10266SOL    HW242018   6.721   8.865   2.095 -0.6738  0.8754  1.5548
10267SOL     OW42019   3.075   7.985   6.146  0.0566  0.2553 -0.1006
10267SOL    HW142020   3.116   7.895   6.164  1.4540  1.0372  0.7331
10267SOL    HW242021   2.976   7.978   6.147  0.1570 -1.3562 -0.4313
10268SOL     OW42022   2.146   8.374   5.640  0.2738  0.2352  0.3204
10268SOL    HW142023   2.213   8.341   5.574  0.7823  1.8222  0.0164
10268SOL    HW242024   2.147   8.474   5.642 -1.7153  0.2759  0.7107
10269SOL     OW42025   7.512   4.807   5.726 -0.2466  0.4595 -0.4779
10269SOL    HW142026   7.483   4.843   5.815 -0.6117  0.2694 -0.5179
10269SOL    HW242027   7.607   4.833   5.709  0.6623 -1.6662  1.1022
10270SOL     OW42028   2.910   0.601   4.371  0.5960 -0.1991  0.5109
10270SOL    HW142029   2.920   0.511   4.330  0.6851  0.0342  0.0162
10270SOL    HW242030   2.898   0.669   4.299  0.0469  0.1210  0.9071
10271SOL     OW42031   3.778   2.720   4.446 -0.3628 -0.3015  0.7498
10271SOL    HW142032   3.795   2.809   4.403  1.6151 -1.4669 -0.9785
10271SOL    HW242033   3.684   2.717   4.480  0.0723  3.0901  2.4603
10272SOL     OW42034   0.206   8.998   1.185 -0.1593 -0.2925  0.1428
10272SOL    HW142035   0.162   8.969   1.270  0.1287 -1.2244 -0.0181
10272SOL    HW242036   0.294   8.952   1.176  1.2971  2.2371  0.9103
10273SOL     OW42037   6.701   9.573   5.740  0.3958 -0.5381 -0.4225
10273SOL    HW142038   6.657   9.484   5.754 -1.4615  0.4072  0.0158
10273SOL    HW242039   6.661   9.640   5.802  1.5729  0.6775 -0.9380
10274SOL     OW42040   4.124   8.331   1.817 -0.2132  0.3273  0.1556
10274SOL    HW142041   4.147   8.265   1.745 -1.0076 -1.7569  1.7480
10274SOL    HW242042   4.206   8.381   1.843  0.7358 -1.0481 -0.1007
10275SOL     OW42043   6.259   9.672   3.932 -0.0228  0.1191 -0.0581
10275SOL    HW142044   6.264   9.747   3.998 -0.4176  0.0526  0.0464
10275SOL    HW242045   6.206   9.700   3.852  0.7468  0.3189 -0.5091
10276SOL     OW42046   9.232   8.514   0.478 -0.2737 -0.3707 -0.1688
10276SOL    HW142047   9.307   8.540   0.540 -1.0664  0.2976  0.5096
10276SOL    HW242048   9.145   8.546   0.515 -1.0596 -2.2623 -0.3057
10277SOL     OW42049   3.718   1.886   4.239  0.6680  0.1931 -0.3351
10277SOL    HW142050   3.673   1.892   4.328 -0.6417  1.7143 -1.0704
10277SOL    HW242051   3.677   1.813   4.186 -0.2085  0.8620 -0.5890
10278SOL     OW42052   0.486   1.457   1.635 -0.5740  0.5994 -0.0141
10278SOL    HW142053   0.401   1.412   1.661  0.6186 -1.3719  0.5570
10278SOL    HW242054   0.531   1.492   1.717  1.0680 -1.8248  0.1687
10279SOL     OW42055   5.262   0.265   2.021 -0.2673  0.1386  0.0586
10279SOL    HW142056   5.180   0.315   1.996  1.0373  1.2429 -2.1168
10279SOL    HW242057   5.276   0.271   2.120 -2.6189  0.1551  0.4159
10280SOL     OW42058   1.133   4.378   5.299 -0.0467 -0.4038  0.7504
10280SOL    HW142059   1.225   4.378   5.340  0.0136  2.4410  0.7143
10280SOL    HW242060   1.080   4.453   5.337 -1.4525 -0.3511 -1.2473
10281SOL     OW42061   0.995   5.516   0.745 -0.2501 -0.4464 -0.2502
10281SOL    HW142062   1.068   5.579   0.720 -1.9310  0.8327 -2.1249
10281SOL    HW242063   0.995   5.502   0.844  1.6619  0.5688 -0.0831
10282SOL     OW42064   9.816   5.835   3.369 -0.5792 -0.6639 -0.8637
10282SOL    HW142065   9.831   5.737   3.355 -1.3889 -1.1130  1.3097
10282SOL    HW242066   9.722   5.851   3.396 -0.7258  0.8420 -2.2205
10283SOL     OW42067   7.981   9.479   0.289 -0.5113 -0.4270 -0.0096
10283SOL    HW142068   7.881   9.481   0.291 -0.4938  0.4642  0.8131
10283SOL    HW242069   8.013   9.522   0.205 -0.8166  0.5701  0.3665
10284SOL     OW42070   8.052   9.242   4.208 -0.4168 -0.3772  0.0786
10284SOL    HW142071   8.027   9.158   4.160 -1.6550 -0.1584  0.3018
10284SOL    HW242072   7.977   9.268   4.269  0.5659  0.0859  1.1102
10285SOL     OW42073   3.825   3.975   6.011  0.2100 -0.1565 -0.3632
10285SOL    HW142074   3.802   4.069   6.037 -0.3464 -0.7890  1.5190
10285SOL    HW242075   3.924   3.962   6.019  0.0196 -0.4074  1.7383
10286SOL     OW42076   9.647   5.144   5.875  0.6027  0.6321 -0.3975
10286SOL    HW142077   9.585   5.112   5.803  0.2124 -1.5843  0.8799
10286SOL    HW242078   9.614   5.231   5.911 -0.7560  0.3848 -1.0190
10287SOL     OW42079   6.793   9.543   5.048 -0.2807 -0.3287  0.2693
10287SOL    HW142080   6.861   9.561   5.119 -0.0122 -0.4763  0.0493
10287SOL    HW242081   6.838   9.541   4.959 -0.6054 -0.2285  0.1032
10288SOL     OW42082   5.631   1.587   0.791  0.1195  0.0996  0.1290
10288SOL    HW142083   5.623   1.687   0.789 -0.2132  0.0665 -0.1946
10288SOL    HW242084   5.692   1.561   0.866 -0.2230  0.5186  0.5598
10289SOL     OW42085   1.275   6.986   2.354 -0.0266 -0.7339  0.0567
10289SOL    HW142086   1.318   7.045   2.423 -0.0991 -1.4536  0.7143
10289SOL    HW242087   1.266   7.038   2.269  2.3841 -0.6389 -0.1954
10290SOL     OW42088   7.183   9.150   2.928  0.3361 -0.0471 -0.4448
10290SOL    HW142089   7.140   9.189   3.009  0.5991 -0.7149  0.0193
10290SOL    HW242090   7.114   9.135   2.857 -0.2488 -1.3615  0.3901
10291SOL     OW42091   7.574   0.340   1.057  0.2417 -0.6136 -0.9916
10291SOL    HW142092   7.618   0.377   1.139  2.4947 -1.4963 -1.7696
10291SOL    HW242093   7.618   0.254   1.031 -0.9322 -0.7243 -2.7014
10292SOL     OW42094   8.769   7.306   2.288 -0.5793 -0.0323  0.3925
10292SOL    HW142095   8.730   7.341   2.203  2.0235  1.1471 -0.3595
10292SOL    HW242096   8.838   7.369   2.322 -1.9403 -0.2390  3.7042
10293SOL     OW42097   0.913   4.865   0.759  0.1558  0.2014  0.7096
10293SOL    HW142098   0.913   4.767   0.744  1.2802  0.1121  1.2390
10293SOL    HW242099   0.842   4.889   0.825 -1.9802  0.1007 -1.4923
10294SOL     OW42100   2.529   0.944   0.671 -0.2208  0.1013 -0.3410
10294SOL    HW142101   2.519   0.845   0.665 -0.6886  0.1244  0.0212
10294SOL    HW242102   2.469   0.988   0.604  1.3298  0.0921 -1.7573
10295SOL     OW42103   5.046   8.126   4.151 -0.0357  0.0569 -0.2562
10295SOL    HW142104   5.145   8.130   4.138  0.3231  0.2163  2.3455
10295SOL    HW242105   5.020   8.033   4.177 -0.2463  0.5579  1.3848
10296SOL     OW42106   8.734   2.635   5.824  0.2121 -0.0525  0.5775
10296SOL    HW142107   8.827   2.663   5.850  0.2411 -0.2524  0.6876
10296SOL    HW242108   8.681   2.616   5.906 -0.0595  0.4871  0.5271
10297SOL     OW42109   8.485   7.731   4.618 -0.0221  0.2256  0.2065
10297SOL    HW142110   8.504   7.673   4.697  0.6313 -0.6381 -0.5630
10297SOL    HW242111   8.561   7.794   4.604  0.1788 -0.0797 -0.1154
10298SOL     OW42112   7.372   0.676   6.703  0.3850  0.2438 -0.3712
10298SOL    HW142113   7.352   0.756   6.647  1.7840  1.2061  0.4615
10298SOL    HW242114   7.458   0.635   6.672  0.7779  0.3375  0.5753
10299SOL     OW42115   8.341   5.440   2.280 -0.1270 -0.1738 -0.1542
10299SOL    HW142116   8.333   5.347   2.315  1.6627  0.0723  1.0079
10299SOL    HW242117   8.430   5.451   2.235 -1.0325  0.4825 -1.8484
10300SOL     OW42118   7.989   3.395   1.525 -0.3530  0.6290  0.0738
10300SOL    HW142119   8.084   3.422   1.529 -0.1770  0.0619 -0.1629
10300SOL    HW242120   7.982   3.295   1.532 -0.7958  0.5079 -1.7468
10301SOL     OW42121   6.416   4.469   0.961 -0.0903 -0.0754  1.1739
10301SOL    HW142122   6.442   4.545   0.901 -0.4967 -1.2847 -0.5534
10301SOL    HW242123   6.497   4.437   1.010 -0.1007  2.1484  2.7442
10302SOL     OW42124   3.177   2.454   0.329 -0.1611 -0.1079  0.9724
10302SOL    HW142125   3.270   2.487   0.343  0.0377  0.3145 -1.1091
10302SOL    HW242126   3.112   2.525   0.357  0.1476 -0.2933  2.1601
10303SOL     OW42127   7.852   2.314   5.927 -1.0798  0.7950 -0.0835
10303SOL    HW142128   7.949   2.330   5.910 -1.3149  0.8468 -1.3855
10303SOL    HW242129   7.842   2.253   6.006  0.0453 -0.0188 -0.5568
10304SOL     OW42130   0.166   1.980   0.950  0.3044  0.0802 -0.3533
10304SOL    HW142131   0.105   2.040   0.898 -0.3693 -0.2984 -0.0008
10304SOL    HW242132   0.160   1.887   0.913 -0.2561 -0.2102  0.4668
10305SOL     OW42133   8.163   6.683   4.166  0.5372  0.1677 -0.1013
10305SOL    HW142134   8.137   6.777   4.146  0.6968  0.0189 -1.0326
10305SOL    HW242135   8.105   6.647   4.239  2.2132  1.8324  2.0777
10306SOL     OW42136   5.165   2.728   4.263 -0.1263 -0.3935 -0.2162
10306SOL    HW142137   5.121   2.817   4.255  0.5627 -0.0545 -0.2568
10306SOL    HW242138   5.105   2.665   4.313 -0.4462  0.2023  0.1504
10307SOL     OW42139   8.490   9.052   5.585  0.4086 -0.3904  0.4017
10307SOL    HW142140   8.465   8.967   5.540  0.8170  0.1785 -0.9307
10307SOL    HW242141   8.426   9.071   5.660 -0.6109 -1.0658 -0.2941
10308SOL     OW42142   6.701   1.237   0.465  0.7710  0.0907  0.1867
10308SOL    HW142143   6.798   1.213   0.461  1.7435  3.7055 -0.1062
10308SOL    HW242144   6.675   1.253   0.561  0.4311 -0.9669  0.2737
10309SOL     OW42145   2.750   5.243   5.684 -0.5396 -0.4704  0.2281
10309SOL    HW142146   2.666   5.298   5.680  0.2406  0.9516  2.3668
10309SOL    HW242147   2.734   5.161   5.738 -0.4881 -0.0573  0.8760
10310SOL     OW42148   2.116   5.443   4.872 -0.5276 -1.1155 -0.0312
10310SOL    HW142149   2.197   5.385   4.858 -1.2572 -1.7436 -1.8732
10310SOL    HW242150   2.115   5.477   4.966  2.0322 -0.8578 -0.0536
10311SOL     OW42151   3.014   1.621   2.237 -0.3106 -0.8860 -0.6479
10311SOL    HW142152   3.060   1.538   2.206  0.5404 -0.2688 -1.0576
10311SOL    HW242153   3.045   1.698   2.182 -0.9270 -0.2593 -0.1159
10312SOL     OW42154   2.737   9.947   0.559 -0.1201 -0.1617 -0.0450
10312SOL    HW142155   2.710   9.945   0.463  1.3318  1.3545 -0.4937
10312SOL    HW242156   2.769  10.038   0.583  0.9562 -0.9253  1.4793
10313SOL     OW42157   9.661   1.294   1.248 -0.1466 -0.1732  0.1524
10313SOL    HW142158   9.581   1.315   1.192 -0.4229 -2.3939 -0.3447
10313SOL    HW242159   9.635   1.232   1.321  0.9951 -0.3709  0.4021
10314SOL     OW42160   7.799   0.735   4.777 -0.1401  0.3780 -0.0738
10314SOL    HW142161   7.778   0.830   4.798 -1.2850 -0.1601  1.2381
10314SOL    HW242162   7.869   0.732   4.705 -0.0612  2.1971 -0.0980
10315SOL     OW42163   3.910   8.850   3.748 -0.0449 -0.0229 -0.5981
10315SOL    HW142164   3.842   8.910   3.790  0.8463  1.7563 -1.6272
10315SOL    HW242165   3.927   8.772   3.808 -0.4010  1.3313  1.3135
10316SOL     OW42166   9.557   8.041   5.969  0.1008  0.5501  0.3412
10316SOL    HW142167   9.478   7.981   5.977  0.9362 -0.4402  1.2734
10316SOL    HW242168   9.566   8.096   6.053  0.9501 -0.0339  0.6436
10317SOL     OW42169   9.203   9.870   0.402 -0.0969 -0.1051  0.6503
10317SOL    HW142170   9.225   9.783   0.447 -1.1389 -0.3405  0.7200
10317SOL    HW242171   9.123   9.911   0.447 -0.8423 -0.1030 -0.6637
10318SOL     OW42172   0.899   4.400   5.752 -0.3026 -0.3257 -0.0003
10318SOL    HW142173   0.881   4.480   5.696  0.7614  0.5231  0.8632
10318SOL    HW242174   0.881   4.317   5.698 -0.5427  0.4775 -1.1709
10319SOL     OW42175   4.865   1.653   0.247  0.4070  0.1048  0.3504
10319SOL    HW142176   4.830   1.740   0.282 -0.0941 -0.0806  0.3163
10319SOL    HW242177   4.965   1.655   0.245  0.4803 -0.2630  2.7986
10320SOL     OW42178   3.336   6.893   1.414 -0.7413  0.2099 -0.0540
10320SOL    HW142179   3.392   6.921   1.492 -1.4314 -1.2140  0.9773
10320SOL    HW242180   3.255   6.950   1.409 -0.1592  1.0175 -0.3941
10321SOL     OW42181   4.720   5.851   2.544 -0.5026 -0.1510  0.2232
10321SOL    HW142182   4.661   5.903   2.606 -1.3108 -0.3366 -0.3761
10321SOL    HW242183   4.690   5.755   2.544 -0.2826 -0.2179 -0.1919
10322SOL     OW42184   0.593   0.945   5.674 -0.6593 -0.1024  0.1807
10322SOL    HW142185   0.673   0.954   5.734  0.0775 -0.2262 -0.7865
10322SOL    HW242186   0.615   0.979   5.583 -1.6175 -0.4248 -0.1787
10323SOL     OW42187   8.761   8.362   5.559  0.0580  0.2201  0.5417
10323SOL    HW142188   8.817   8.445   5.561 -0.3178  0.4611  1.3976
10323SOL    HW242189   8.664   8.388   5.567 -0.1859 -0.1962 -0.8358
10324SOL     OW42190   2.207   3.354   4.261 -0.0504  0.3405  0.0608
10324SOL    HW142191   2.136   3.286   4.277  1.1930 -0.7781  0.9657
10324SOL    HW242192   2.277   3.315   4.201  0.0505  1.2554 -0.4175
10325SOL     OW42193   9.947   2.081   6.142  0.7250 -0.0769 -0.2583
10325SOL    HW142194   9.900   2.060   6.228  0.7625 -0.5106 -0.3464
10325SOL    HW242195  10.003   2.003   6.114 -1.3481 -0.9401 -2.0697
10326SOL     OW42196   0.764   6.900   6.479  0.6527 -0.3608 -0.1935
10326SOL    HW142197   0.697   6.944   6.419  1.0152 -0.7388 -0.8721
10326SOL    HW242198   0.716   6.854   6.554  0.0489 -1.9419 -1.5201
10327SOL     OW42199   6.217   0.495   3.208  0.4614  0.2932  0.4756
10327SOL    HW142200   6.253   0.532   3.122 -0.2562 -1.5562 -0.6499
10327SOL    HW242201   6.122   0.468   3.195  0.3008  0.1571  1.9057
10328SOL     OW42202   1.519   6.897   0.502 -0.3407 -0.0126 -0.1091
10328SOL    HW142203   1.527   6.928   0.407  1.8456 -0.3277 -0.0670
10328SOL    HW242204   1.500   6.799   0.503  1.6751 -0.4327 -0.2563
10329SOL     OW42205   4.544   2.439   4.773 -0.0474 -0.2503 -0.8031
10329SOL    HW142206   4.484   2.432   4.853  2.2551  0.8208  1.0719
10329SOL    HW242207   4.599   2.356   4.766 -0.7270 -0.6293 -1.6860
10330SOL     OW42208   2.137   0.607   2.776  0.4673  0.8828 -0.2091
10330SOL    HW142209   2.189   0.693   2.777  1.0968  0.5219 -0.8249
10330SOL    HW242210   2.190   0.536   2.822 -0.3589  0.9850  0.9233
10331SOL     OW42211   0.268   6.663   5.054  0.2841 -0.3556 -0.1786
10331SOL    HW142212   0.299   6.758   5.051 -1.0730  0.1597  1.2380
10331SOL    HW242213   0.325   6.612   5.117 -0.5850  0.1687  1.0636
10332SOL     OW42214   1.990   9.696   1.191  0.4297  0.1252 -0.3421
10332SOL    HW142215   1.923   9.639   1.239  0.5514  1.0212  0.9402
10332SOL    HW242216   1.973   9.693   1.093 -1.2977  0.0701 -0.0597
10333SOL     OW42217   2.569   3.890   3.148  0.4888  0.2021 -0.0078
10333SOL    HW142218   2.546   3.831   3.070 -0.7027  2.1219 -1.1482
10333SOL    HW242219   2.649   3.945   3.125  0.6050  0.2141  0.4351
10334SOL     OW42220   6.163   0.493   1.517  0.6796 -0.1599  0.3352
10334SOL    HW142221   6.251   0.446   1.517  0.8795  0.2058 -0.5413
10334SOL    HW242222   6.176   0.588   1.543  0.3883 -0.3686  1.2739
10335SOL     OW42223   0.092   1.127   5.702  0.2951 -0.2537 -0.6950
10335SOL    HW142224   0.103   1.185   5.782  3.4144  0.2285 -1.4303
10335SOL    HW242225   0.044   1.043   5.728 -3.8530  2.3018  0.4900
10336SOL     OW42226   8.865   0.521   3.160 -0.3593  0.2406  0.3876
10336SOL    HW142227   8.827   0.603   3.204 -0.4255  1.2228 -1.4268
10336SOL    HW242228   8.932   0.549   3.091 -0.0776 -1.2750  0.0282
10337SOL     OW42229   3.440   5.788   0.448  0.0659 -0.1778  0.0198
10337SOL    HW142230   3.365   5.731   0.481  0.8681 -1.1445  0.2113
10337SOL    HW242231   3.408   5.882   0.438 -1.0890 -0.5174  0.3752
10338SOL     OW42232   9.927   7.038   5.444  0.3082  0.0599 -0.5907
10338SOL    HW142233   9.985   7.046   5.363  1.6073 -2.7067  0.0202
10338SOL    HW242234   9.848   6.980   5.423 -0.5549  1.1673 -0.4851
10339SOL     OW42235   0.495   5.368   5.227  0.2441  0.3703  0.4015
10339SOL    HW142236   0.405   5.325   5.224 -0.3294  1.6292 -1.3617
10339SOL    HW242237   0.533   5.360   5.319 -1.4378 -0.6321  1.0275
10340SOL     OW42238   0.523   3.729   2.984  0.0453  0.5551 -0.0472
10340SOL    HW142239   0.488   3.685   2.902 -0.1495 -2.4758  1.5961
10340SOL    HW242240   0.619   3.704   2.996  0.1493  1.2114  0.5221
10341SOL     OW42241   9.937   2.491   5.478  0.0718  0.4188 -0.0964
10341SOL    HW142242   9.941   2.436   5.394  1.9522 -0.7564  0.7023
10341SOL    HW242243   9.842   2.513   5.500 -0.5625 -0.7555 -1.5835
10342SOL     OW42244   5.990   0.008   3.956 -0.0712  0.6040  0.3076
10342SOL    HW142245   6.065  -0.041   4.002 -1.0825  0.5183  1.9057
10342SOL    HW242246   5.917  -0.057   3.935  0.4495  0.6161 -1.6015
10343SOL     OW42247   4.164   6.843   1.308  0.3864 -0.0328  0.5059
10343SOL    HW142248   4.260   6.833   1.282 -0.0820 -0.4072 -1.1783
10343SOL    HW242249   4.130   6.932   1.277  0.8684  1.2001  3.3960
10344SOL     OW42250   9.101   7.799   2.793 -0.2999 -0.0879  0.2107
10344SOL    HW142251   9.029   7.730   2.791  0.2390 -0.6639  0.4812
10344SOL    HW242252   9.183   7.761   2.836 -0.2268  0.9409  1.0117
10345SOL     OW42253   3.769   7.481   3.533 -0.1428  0.0489 -0.9223
10345SOL    HW142254   3.680   7.494   3.491  0.6861 -0.2856 -2.8119
10345SOL    HW242255   3.837   7.460   3.463  1.6903  1.5739  0.3358
10346SOL     OW42256   2.806   6.093   3.364  0.0440 -0.1810  0.1527
10346SOL    HW142257   2.871   6.141   3.424 -0.5398 -0.8685  1.3593
10346SOL    HW242258   2.833   5.997   3.357  1.4260  0.3563 -2.5590
10347SOL     OW42259   4.872   0.110   2.211 -0.3373  0.7385 -0.0137
10347SOL    HW142260   4.779   0.134   2.184 -0.2871  0.2594 -0.6331
10347SOL    HW242261   4.915   0.188   2.256 -0.8717  1.1216 -0.1656
10348SOL     OW42262   9.870   2.066   3.223 -0.3305 -0.4019 -0.0603
10348SOL    HW142263   9.907   2.058   3.315 -0.8568 -0.3719  0.1577
10348SOL    HW242264   9.771   2.047   3.225 -0.3617 -0.3121 -0.5999
10349SOL     OW42265   2.655   6.287   6.083  0.1795 -0.1152  0.3924
10349SOL    HW142266   2.753   6.282   6.100  0.0701 -0.8517  0.8425
10349SOL    HW242267   2.614   6.196   6.097 -0.7124  0.4015  1.2001
10350SOL     OW42268   9.299   3.724   3.576  0.1556 -0.3285  0.0018
10350SOL    HW142269   9.222   3.767   3.624 -0.3597 -0.8339 -0.3527
10350SOL    HW242270   9.274   3.630   3.551  0.3773 -0.0521 -1.3205
10351SOL     OW42271   8.149   5.850   1.935 -0.6486 -0.0191 -1.2732
10351SOL    HW142272   8.094   5.831   2.017  0.0597  0.5059 -0.6731
10351SOL    HW242273   8.158   5.766   1.882  1.2375 -1.0538  0.6209
10352SOL     OW42274   5.034   4.750   6.432  0.1114 -0.1245 -0.8563
10352SOL    HW142275   5.057   4.805   6.352 -0.7085  0.5109 -0.6594
10352SOL    HW242276   4.936   4.754   6.449  0.2761 -0.2556  0.1819
10353SOL     OW42277   0.059   5.716   0.213 -0.0584 -0.1101 -0.2433
10353SOL    HW142278   0.142   5.733   0.266 -0.6040  0.2100  0.5085
10353SOL    HW242279   0.081   5.657   0.135  1.3086  1.7387 -1.2868
10354SOL     OW42280   8.235   7.985   3.467  0.1118  0.3292  0.5064
10354SOL    HW142281   8.157   8.036   3.430  0.3380  1.3014  1.3491
10354SOL    HW242282   8.283   8.042   3.533  1.2948 -0.4232  0.3002
10355SOL     OW42283   7.827   3.116   4.203  0.5056 -0.0901  0.2152
10355SOL    HW142284   7.831   3.153   4.110 -0.7800  0.1541  0.2581
10355SOL    HW242285   7.913   3.069   4.224  0.4849 -0.8718 -1.3969
10356SOL     OW42286   1.137   9.628   6.448 -0.3079  0.2573  0.2827
10356SOL    HW142287   1.115   9.673   6.362 -0.1202  3.0643  1.6075
10356SOL    HW242288   1.097   9.537   6.451 -4.3931  1.9208 -0.8408
10357SOL     OW42289   8.227   0.594   1.192 -0.0373 -0.0940  0.6964
10357SOL    HW142290   8.178   0.669   1.237  0.8174  0.5324  0.5908
10357SOL    HW242291   8.269   0.628   1.108 -1.0969 -1.1079 -0.2648
10358SOL     OW42292   6.028   1.417   2.455 -0.4647 -0.4524 -0.3579
10358SOL    HW142293   5.991   1.341   2.507 -1.7899 -0.3070 -1.0636
10358SOL    HW242294   6.064   1.486   2.517 -0.4590 -1.0664  0.3172
10359SOL     OW42295   1.123   9.403   6.713  0.3862  0.4778 -0.0759
10359SOL    HW142296   1.074   9.341   6.774  1.1348  2.0589  2.2154
10359SOL    HW242297   1.057   9.460   6.664 -0.2729 -1.6493 -1.7290
10360SOL     OW42298   5.779   1.237   4.478 -0.0798 -0.1938 -0.0127
10360SOL    HW142299   5.745   1.319   4.523  1.3550  0.5907 -0.3513
10360SOL    HW242300   5.733   1.157   4.517 -0.4559  0.6436  1.3165
10361SOL     OW42301   5.925   5.007   1.211  0.0913 -0.1064  0.0427
10361SOL    HW142302   5.993   4.946   1.172  0.0106  0.0607 -0.3635
10361SOL    HW242303   5.963   5.052   1.292  1.3738  1.8598 -1.5771
10362SOL     OW42304   2.129   3.984   5.610 -0.0879 -0.2611 -0.0574
10362SOL    HW142305   2.153   3.910   5.673 -0.2422 -0.0614  0.2385
10362SOL    HW242306   2.161   3.961   5.518 -2.3117 -1.8122 -0.4925
10363SOL     OW42307   3.612   6.754   5.669  0.3754 -0.5924  0.1732
10363SOL    HW142308   3.590   6.734   5.764 -1.0526 -0.3461 -0.0852
10363SOL    HW242309   3.552   6.700   5.609  0.6289 -0.0663 -0.5662
10364SOL     OW42310   0.998   1.199   4.987 -0.1151 -0.4104  0.1431
10364SOL    HW142311   1.095   1.175   4.986  0.5033  1.6639  3.0476
10364SOL    HW242312   0.947   1.129   5.038  0.1897 -0.3772  0.4938
10365SOL     OW42313   7.492   7.654   4.756  0.5068 -0.5025  0.4472
10365SOL    HW142314   7.413   7.638   4.814 -0.0251 -0.3020 -0.2201
10365SOL    HW242315   7.532   7.566   4.729  0.5925 -0.6004  0.8762
10366SOL     OW42316   0.763   4.921   2.858 -0.0918 -0.2198  0.7978
10366SOL    HW142317   0.859   4.890   2.855 -0.7320 -2.3885  1.5005
10366SOL    HW242318   0.706   4.848   2.897 -2.1756  0.7080 -0.4486
10367SOL     OW42319   9.442   3.879   4.391 -0.1930  0.2577 -0.7471
10367SOL    HW142320   9.343   3.890   4.387 -0.4887 -1.4065  1.2719
10367SOL    HW242321   9.467   3.791   4.349  0.1372 -0.5870  1.1770
10368SOL     OW42322   6.185   0.809   2.393 -0.2541  0.0407  0.0902
10368SOL    HW142323   6.230   0.800   2.481 -0.8763 -0.1596  0.3955
10368SOL    HW242324   6.133   0.726   2.373 -1.5862  0.7881  0.3799
10369SOL     OW42325   9.532   4.325   1.768  0.3065 -0.2893  0.6069
10369SOL    HW142326   9.469   4.249   1.759  1.1149 -0.8854 -0.0452
10369SOL    HW242327   9.609   4.313   1.706  1.3786  0.1171  1.8245
10370SOL     OW42328   8.112   1.923   1.678 -0.8669 -0.5808  0.1086
10370SOL    HW142329   8.119   1.867   1.595 -0.9232 -1.2888  0.5781
10370SOL    HW242330   8.187   1.900   1.740 -2.7085 -2.4798  1.7160
10371SOL     OW42331   6.789   1.007   4.726 -0.1840 -0.2277  0.0756
10371SOL    HW142332   6.806   1.101   4.696  0.9700 -0.4110  0.1357
10371SOL    HW242333   6.720   1.007   4.798 -1.4806  0.4095 -1.1272
10372SOL     OW42334   6.949   4.670   6.383  0.5639  0.0218 -0.1078
10372SOL    HW142335   6.857   4.701   6.408  0.8270  1.7213 -1.1474
10372SOL    HW242336   6.979   4.599   6.446 -0.7327  0.7700  1.3794
10373SOL     OW42337   3.465   2.054   0.956  0.2667 -0.0329  0.0450
10373SOL    HW142338   3.452   1.971   0.903  0.8031 -0.1416  0.0772
10373SOL    HW242339   3.561   2.061   0.984  0.3715  0.9009 -0.4883
10374SOL     OW42340   0.785   4.402   1.268  0.0469 -0.8499 -0.5643
10374SOL    HW142341   0.799   4.464   1.345  0.1762 -0.2243 -1.0821
10374SOL    HW242342   0.724   4.328   1.295 -1.9485  0.7526 -0.6126
10375SOL     OW42343   9.540   9.885   3.375 -0.0426 -0.0615  0.3654
10375SOL    HW142344   9.619   9.863   3.318 -0.8092 -0.6568 -0.4929
10375SOL    HW242345   9.556   9.854   3.468  1.1101  0.6587  0.4084
10376SOL     OW42346   1.033   4.518   0.898  0.1621 -0.0372  0.3360
10376SOL    HW142347   1.097   4.500   0.972 -0.9543 -0.0621  1.3205
10376SOL    HW242348   1.083   4.543   0.815  1.4693 -1.1501  0.7711
10377SOL     OW42349   8.832   0.669   5.332 -0.3839  0.3188  0.0737
10377SOL    HW142350   8.912   0.696   5.384  0.4570 -0.4437 -0.8083
10377SOL    HW242351   8.804   0.577   5.359  0.5088 -0.3854 -1.3277
10378SOL     OW42352   9.004   4.381   0.599  0.0960  0.5248  0.2748
10378SOL    HW142353   8.930   4.380   0.666 -1.5639  0.6234 -1.5149
10378SOL    HW242354   8.989   4.309   0.532  1.2226  1.0496 -0.5570
10379SOL     OW42355   2.353   6.308   2.590 -0.3620  0.0831  0.5546
10379SOL    HW142356   2.318   6.382   2.647 -0.8217 -0.8734  1.5220
10379SOL    HW242357   2.450   6.325   2.570 -0.3077  0.6360  1.2669
10380SOL     OW42358   1.689   2.171   2.187  0.1525  0.0701 -0.9206
10380SOL    HW142359   1.726   2.264   2.182  0.1603  0.0119 -2.1003
10380SOL    HW242360   1.667   2.139   2.095  2.1508 -1.9057 -0.7430
10381SOL     OW42361   4.920   7.844   3.933  0.2800  0.1341  0.2558
10381SOL    HW142362   4.998   7.800   3.890  0.9052  0.1173  1.3938
10381SOL    HW242363   4.873   7.901   3.866  1.1135 -0.0657 -0.5021
10382SOL     OW42364   4.056   3.297   4.698 -0.3361 -0.0725 -0.0721
10382SOL    HW142365   4.021   3.335   4.783  0.4352  1.1060 -0.2763
10382SOL    HW242366   4.015   3.346   4.620 -1.1925 -1.2708 -0.3911
10383SOL     OW42367   7.063   9.326   3.816  0.4786 -0.2589  0.0859
10383SOL    HW142368   7.050   9.228   3.834  0.9751 -0.1669  0.9837
10383SOL    HW242369   7.108   9.338   3.728 -0.4804 -0.7978 -0.4861
10384SOL     OW42370   2.079   2.492   3.292  0.0873  0.2936  0.8953
10384SOL    HW142371   2.114   2.479   3.200 -0.2537  0.3268  0.7583
10384SOL    HW242372   2.086   2.589   3.317 -0.0097  0.3181  0.8267
10385SOL     OW42373   6.459   0.323   3.702 -0.2300 -0.4895 -0.2453
10385SOL    HW142374   6.474   0.355   3.795 -1.0713 -3.0437  0.8020
10385SOL    HW242375   6.375   0.364   3.665 -1.1410 -1.2551  0.9633
10386SOL     OW42376   2.870   2.552   4.318  0.3296  0.1919  0.0998
10386SOL    HW142377   2.845   2.485   4.248  2.0969  1.0611 -1.4177
10386SOL    HW242378   2.868   2.509   4.408 -0.3381 -1.4050 -0.6677
10387SOL     OW42379   0.911   5.221   1.571 -0.0042  0.0350 -0.3281
10387SOL    HW142380   0.948   5.217   1.664 -1.6061 -2.0024  0.2712
10387SOL    HW242381   0.985   5.211   1.505  1.1490  1.5136  0.7195
10388SOL     OW42382   6.388   0.695   3.343  0.4752 -0.0651  0.1586
10388SOL    HW142383   6.313   0.672   3.281 -0.0487 -0.2028  0.8324
10388SOL    HW242384   6.417   0.789   3.327 -1.5732  0.8560  1.6308
10389SOL     OW42385   0.566   0.195   1.709 -0.0650 -0.2279  0.0136
10389SOL    HW142386   0.642   0.148   1.665  0.7414 -0.1230  1.2738
10389SOL    HW242387   0.542   0.276   1.657  1.5391  0.4415  0.2886
10390SOL     OW42388   4.180   7.942   2.840  0.2735  0.0127 -0.1197
10390SOL    HW142389   4.278   7.945   2.822  0.6352  0.9594  1.8818
10390SOL    HW242390   4.130   7.981   2.762  1.5678  0.9846 -0.4762
10391SOL     OW42391   3.183   9.861   6.409  0.1650 -0.5475 -0.1585
10391SOL    HW142392   3.139   9.827   6.326 -2.2538  2.0137  0.0038
10391SOL    HW242393   3.113   9.899   6.470  2.4910  2.7809  0.5579
10392SOL     OW42394   0.348   8.019   3.558 -0.4683 -0.3599 -0.1769
10392SOL    HW142395   0.316   7.934   3.517 -0.8972  0.4016 -1.4762
10392SOL    HW242396   0.430   8.050   3.510 -1.5303  1.0476 -1.1382
10393SOL     OW42397   1.758   6.395   3.569  0.8073  0.7218  0.4073
10393SOL    HW142398   1.705   6.454   3.508  2.5318 -0.5465 -2.3882
10393SOL    HW242399   1.851   6.431   3.578  0.9015  0.2524  1.3715
10394SOL     OW42400   1.544   3.096   6.076 -0.1020  0.1825 -0.4512
10394SOL    HW142401   1.634   3.123   6.111 -0.5158  1.7518 -0.5344
10394SOL    HW242402   1.541   3.111   5.977 -0.8092  1.2214 -0.2865
10395SOL     OW42403   8.808   6.100   3.709  0.5803  0.1005  0.2176
10395SOL    HW142404   8.847   6.010   3.730  0.5647 -0.3448 -1.6184
10395SOL    HW242405   8.709   6.098   3.723  0.8117  0.4135  2.0788
10396SOL     OW42406   5.501   0.072   4.079 -0.4295 -0.0396  0.1086
10396SOL    HW142407   5.426   0.135   4.100  0.1167 -0.0477  2.1328
10396SOL    HW242408   5.588   0.116   4.097  0.0540 -0.3392 -1.4052
10397SOL     OW42409   8.592   8.927   3.232  0.1734  0.3085 -0.1790
10397SOL    HW142410   8.541   8.987   3.171 -0.6720  1.7873  1.8989
10397SOL    HW242411   8.586   8.963   3.326  1.7885 -1.6433  0.7033
10398SOL     OW42412   1.807   0.424   4.136  0.3318 -0.0343  0.0170
10398SOL    HW142413   1.898   0.383   4.146  0.7547  0.5513 -1.2697
10398SOL    HW242414   1.815   0.523   4.146 -0.2579 -0.0408  0.5096
10399SOL     OW42415   7.650   5.178   0.742 -0.4817 -0.8953  0.2026
10399SOL    HW142416   7.747   5.154   0.748 -0.3731 -0.2785  0.8901
10399SOL    HW242417   7.596   5.094   0.728  0.4528 -0.9226 -3.9535
10400SOL     OW42418   4.704   0.717   0.454 -0.0833 -0.0714  0.3816
10400SOL    HW142419   4.735   0.767   0.373  0.5391  0.7842  1.1361
10400SOL    HW242420   4.778   0.659   0.487 -0.4059 -0.5752  0.2252
10401SOL     OW42421   5.842   9.013   4.260  0.1388  0.4794  0.5554
10401SOL    HW142422   5.810   9.031   4.167  1.1516 -1.8453 -0.2954
10401SOL    HW242423   5.766   9.023   4.324 -1.0072  0.3467 -0.7548
10402SOL     OW42424   3.513   1.053   0.892  0.0936  0.1546  0.3158
10402SOL    HW142425   3.469   1.137   0.860  0.1447 -0.2645 -0.8550
10402SOL    HW242426   3.475   1.029   0.981 -1.4222  0.2828 -0.2809
10403SOL     OW42427   1.708   6.300   4.887 -0.3300 -0.1001 -0.2748
10403SOL    HW142428   1.640   6.368   4.860 -0.1038  0.1292 -0.2705
10403SOL    HW242429   1.752   6.263   4.805 -1.9567 -1.8103 -0.4047
10404SOL     OW42430   7.726   9.123   4.593  0.5707  0.1534 -0.7830
10404SOL    HW142431   7.708   9.030   4.624 -0.2223  0.5550  0.0077
10404SOL    HW242432   7.808   9.158   4.638 -1.3538  1.2305  2.0657
10405SOL     OW42433   5.708   9.511   5.109  0.1864 -0.1250 -0.1315
10405SOL    HW142434   5.613   9.526   5.082  0.5657  0.5106 -1.1391
10405SOL    HW242435   5.768   9.527   5.030  1.1595 -0.1513  0.5964
10406SOL     OW42436   1.243   5.217   3.720  0.3812  0.4872  0.0264
10406SOL    HW142437   1.256   5.312   3.692  0.5488  0.5982  0.4764
10406SOL    HW242438   1.145   5.200   3.737  0.4122  0.7312  0.4714
10407SOL     OW42439   1.277   0.048   4.339  0.2198 -0.4101 -0.6779
10407SOL    HW142440   1.330  -0.028   4.378  0.9964 -0.1068 -1.1300
10407SOL    HW242441   1.317   0.075   4.252 -0.6831 -0.1608 -1.0143
10408SOL     OW42442   6.514   1.078   4.250  0.4791 -0.2252 -0.1194
10408SOL    HW142443   6.561   1.142   4.188  0.4315 -0.8453 -0.8051
10408SOL    HW242444   6.541   1.097   4.344  0.9523  0.3939 -0.3740
10409SOL     OW42445   6.316   1.322   4.500 -0.0652  0.0573  0.2815
10409SOL    HW142446   6.346   1.234   4.465  0.3414  0.8587 -1.4302
10409SOL    HW242447   6.302   1.386   4.424 -0.3668  1.4682  1.4852
10410SOL     OW42448   8.711   7.686   2.512 -0.0702  0.1032  0.3909
10410SOL    HW142449   8.774   7.751   2.553  2.7358 -1.8880 -0.5493
10410SOL    HW242450   8.739   7.668   2.417 -1.7729 -1.1633  0.1060
10411SOL     OW42451   3.371   3.937   5.465 -0.2682 -0.6604 -0.0834
10411SOL    HW142452   3.273   3.921   5.472 -0.0487 -0.7105  4.7730
10411SOL    HW242453   3.419   3.870   5.521  2.5041 -0.0470 -1.6388
10412SOL     OW42454   1.343   1.815   2.313 -0.4047  0.6314  0.0541
10412SOL    HW142455   1.425   1.842   2.262 -1.9821  0.3886 -2.6957
10412SOL    HW242456   1.341   1.716   2.324 -1.2641  0.4697 -1.5316
10413SOL     OW42457   0.354   1.286   2.879 -0.3617  0.2447  0.5741
10413SOL    HW142458   0.397   1.373   2.854 -3.1299  1.8898  1.3050
10413SOL    HW242459   0.423   1.224   2.915  1.6493  2.2214  0.2238
10414SOL     OW42460   9.864   9.510   2.370 -0.5580  0.0093  0.3274
10414SOL    HW142461   9.783   9.565   2.349 -0.6008 -0.4441 -0.7629
10414SOL    HW242462   9.858   9.423   2.320  0.3242 -0.2592  0.6913
10415SOL     OW42463   1.730   4.662   1.460 -0.1324  0.0699  0.3917
10415SOL    HW142464   1.765   4.721   1.533  1.1382  0.0928 -0.2197
10415SOL    HW242465   1.698   4.718   1.384 -1.0205  0.0302  0.7296
10416SOL     OW42466   5.333   8.143   4.077  0.0474 -0.0266  0.2186
10416SOL    HW142467   5.342   8.187   3.987  1.1954 -0.6254  0.0317
10416SOL    HW242468   5.385   8.196   4.144  1.5673 -1.1601 -0.0373
10417SOL     OW42469   8.878   4.948   3.625 -0.0401 -0.1702 -0.0684
10417SOL    HW142470   8.961   4.893   3.638 -2.1776 -3.8629 -1.2350
10417SOL    HW242471   8.881   4.991   3.535  0.0629 -1.3302 -0.6280
10418SOL     OW42472   2.299   6.017   2.169 -0.3062 -0.0284 -0.4103
10418SOL    HW142473   2.298   6.047   2.074  1.1658 -0.5302 -0.5925
10418SOL    HW242474   2.380   6.053   2.215 -1.4395  0.9384  0.9048
10419SOL     OW42475   4.094   6.795   2.821  0.0350 -0.2847 -0.3359
10419SOL    HW142476   4.179   6.744   2.806 -0.3094 -0.7822 -0.6386
10419SOL    HW242477   4.084   6.864   2.750  0.8459  0.6776  0.4723
10420SOL     OW42478   0.583   5.960   0.004 -0.3243 -0.1939  0.1303
10420SOL    HW142479   0.534   5.881   0.040 -0.7300  0.2490  0.5742
10420SOL    HW242480   0.518   6.035  -0.010  0.1864  0.3101  0.4620
10421SOL     OW42481   9.273   2.226   4.911 -0.1382  0.3223 -0.6474
10421SOL    HW142482   9.274   2.163   4.988  1.8074  1.6409  0.4636
10421SOL    HW242483   9.186   2.219   4.862 -1.5815 -0.2335  1.9230
10422SOL     OW42484   1.798   2.983   2.065  0.4110  0.2050  0.2740
10422SOL    HW142485   1.850   3.046   2.007 -0.0588  0.7428  0.4371
10422SOL    HW242486   1.861   2.926   2.117  0.8412 -0.3417 -0.8274
10423SOL     OW42487   9.564   3.058   1.746  0.0975  0.1571 -0.3980
10423SOL    HW142488   9.466   3.063   1.728 -0.3209  0.5940  1.8385
10423SOL    HW242489   9.607   2.996   1.680 -1.9571 -1.3691 -0.3675
10424SOL     OW42490   9.768   1.408   4.799 -0.1604  0.2228  0.1213
10424SOL    HW142491   9.840   1.404   4.868  0.1373  0.5427 -0.1703
10424SOL    HW242492   9.697   1.341   4.821  0.2780 -0.1695  0.3514
10425SOL     OW42493   8.250   0.077   0.060 -0.2293 -0.2959  0.5908
10425SOL    HW142494   8.244   0.011  -0.015  0.6311 -1.1699  1.2702
10425SOL    HW242495   8.344   0.110   0.067 -0.4393  0.2309  0.9039
10426SOL     OW42496   3.175   6.535   4.938 -0.5318  0.3288  0.4686
10426SOL    HW142497   3.212   6.453   4.982 -0.7619 -0.1121 -0.1586
10426SOL    HW242498   3.111   6.508   4.866 -1.5533  1.0710  1.0792
10427SOL     OW42499   8.406   0.457   0.264 -0.4791 -0.1845  0.0607
10427SOL    HW142500   8.422   0.428   0.169  1.0818  0.5014  0.1098
10427SOL    HW242501   8.435   0.384   0.326  2.4878  0.9902  0.1443
10428SOL     OW42502   8.643   2.007   6.739  0.3869  0.2125 -0.5773
10428SOL    HW142503   8.586   1.999   6.821  0.4670 -0.4070 -0.5781
10428SOL    HW242504   8.592   1.974   6.659  1.1835 -1.5991 -0.3770
10429SOL     OW42505   8.580   8.069   6.229  0.1330  0.6210  0.1085
10429SOL    HW142506   8.590   8.136   6.302 -0.1502 -0.4449  1.1369
10429SOL    HW242507   8.495   8.018   6.243  0.7232 -0.4585 -0.2462
10430SOL     OW42508   4.800   3.170   4.202 -0.1546  0.5156  0.2166
10430SOL    HW142509   4.728   3.143   4.138 -0.8654 -0.1306  1.2874
10430SOL    HW242510   4.818   3.268   4.192 -0.0093  0.3527 -1.2231
10431SOL     OW42511   3.571   9.041   2.313  0.7234 -0.2038  0.0524
10431SOL    HW142512   3.653   9.051   2.257  0.2543 -0.3720 -0.6736
10431SOL    HW242513   3.515   8.965   2.279 -1.1133  1.6591 -1.2135
10432SOL     OW42514   0.475   0.770   2.129  0.4843 -0.1628  0.3916
10432SOL    HW142515   0.559   0.740   2.173  0.0631 -0.3122  1.1026
10432SOL    HW242516   0.411   0.804   2.198  0.7697  1.9308 -0.3556
10433SOL     OW42517   2.448   7.413   4.870  0.0140 -0.2748 -0.5971
10433SOL    HW142518   2.538   7.415   4.827  0.2099  0.8792 -0.1550
10433SOL    HW242519   2.415   7.319   4.874  2.1004 -0.9736  1.0846
10434SOL     OW42520   0.155   2.486   1.619  0.2584  0.1773 -0.0369
10434SOL    HW142521   0.135   2.397   1.658 -0.5574  1.0916  1.6605
10434SOL    HW242522   0.230   2.529   1.669  1.3393  0.0242 -1.4950
10435SOL     OW42523   4.373   8.207   4.356 -0.1670  0.6282  0.0758
10435SOL    HW142524   4.328   8.150   4.425  0.1811  0.7821  0.4253
10435SOL    HW242525   4.401   8.150   4.278  1.5507  0.0514  1.0909
10436SOL     OW42526   1.481   1.123   2.170  0.2857  0.0453 -0.1895
10436SOL    HW142527   1.525   1.089   2.088  1.0108 -1.0076  0.6299
10436SOL    HW242528   1.539   1.106   2.250  0.3442  2.5518  0.3358
10437SOL     OW42529   0.670   7.181   1.329  0.5849  0.0465 -0.0564
10437SOL    HW142530   0.679   7.159   1.232  0.1303  1.3022 -0.3968
10437SOL    HW242531   0.659   7.280   1.339 -0.8506 -0.2325  1.1642
10438SOL     OW42532   9.157   3.937   4.433  0.0574  0.5364 -0.3821
10438SOL    HW142533   9.072   3.974   4.396 -0.2942 -0.4064 -0.5242
10438SOL    HW242534   9.145   3.917   4.530  0.0046  0.0726 -0.4827
10439SOL     OW42535   2.775   6.722   3.259 -0.2433 -0.9814 -0.4708
10439SOL    HW142536   2.872   6.698   3.246  0.3793  0.3873  1.3812
10439SOL    HW242537   2.746   6.695   3.351 -1.1811  0.0353 -0.4656
10440SOL     OW42538   8.483   6.817   2.733  0.3958 -0.5276  0.5430
10440SOL    HW142539   8.482   6.729   2.687 -0.4268  0.1063 -0.6787
10440SOL    HW242540   8.396   6.863   2.719  0.8864  0.5591  1.0006
10441SOL     OW42541   8.614   0.876   0.634  0.0532 -0.8734  0.0340
10441SOL    HW142542   8.696   0.897   0.581  0.1827 -3.1645 -0.7288
10441SOL    HW242543   8.533   0.901   0.581  0.2224  0.9346  0.5890
10442SOL     OW42544   1.432   7.686   3.615  0.7170  0.6799  0.1984
10442SOL    HW142545   1.358   7.651   3.672  0.5142 -1.3074 -1.2154
10442SOL    HW242546   1.435   7.633   3.529  3.6064  0.8989  0.1311
10443SOL     OW42547   9.954   8.210   2.915 -0.4023  0.2812  0.0633
10443SOL    HW142548   9.942   8.111   2.903  0.0380  0.2940 -0.5392
10443SOL    HW242549  10.048   8.235   2.890 -0.9351  1.0542 -1.2310
10444SOL     OW42550   0.027   7.828   5.349 -0.2660  1.0057  0.0475
10444SOL    HW142551   0.096   7.767   5.387 -1.0254 -1.0332 -1.7007
10444SOL    HW242552   0.063   7.872   5.267 -0.8110  0.3646 -0.5493
10445SOL     OW42553   0.829   0.294   2.241 -0.4487 -0.2083 -0.3713
10445SOL    HW142554   0.895   0.220   2.253  0.0877  0.4780  1.0523
10445SOL    HW242555   0.791   0.319   2.330 -0.9535  0.9240 -0.9022
10446SOL     OW42556   1.078   9.604   4.620  0.1064  0.5372 -0.3418
10446SOL    HW142557   0.995   9.590   4.674  0.2042 -0.6983 -0.5118
10446SOL    HW242558   1.145   9.653   4.676  0.3417 -1.0566  0.7921
10447SOL     OW42559   2.074   6.975   3.548 -0.1747 -0.3458  0.5261
10447SOL    HW142560   2.049   7.072   3.548 -1.2399 -0.6110  0.6951
10447SOL    HW242561   2.012   6.925   3.488 -0.5795 -1.1472  1.5818
10448SOL     OW42562   6.281   0.708   2.624 -0.6152 -0.0520  0.3800
10448SOL    HW142563   6.318   0.759   2.701  1.0271  1.3988 -1.3044
10448SOL    HW242564   6.335   0.624   2.612 -0.8598 -0.2697  0.8014
10449SOL     OW42565   0.037   9.958   4.116 -0.5391 -0.5143  0.1839
10449SOL    HW142566   0.115   9.909   4.076 -1.2067 -0.5282 -1.1080
10449SOL    HW242567  -0.042   9.897   4.122 -0.6346 -0.3225  0.9280
10450SOL     OW42568   1.742   5.092   2.267 -0.1213  0.2419  0.1453
10450SOL    HW142569   1.740   5.159   2.342  1.3589  1.1621 -0.6066
10450SOL    HW242570   1.813   5.024   2.285 -1.9113 -1.4287  1.1215
10451SOL     OW42571   6.181   9.982   1.755  0.1134 -0.9777 -0.2595
10451SOL    HW142572   6.264   9.939   1.791  2.2223  2.8642 -0.2299
10451SOL    HW242573   6.121  10.007   1.831  1.2958  0.7504  0.1395
10452SOL     OW42574   2.825   2.701   5.945 -0.0776  0.2795 -0.0866
10452SOL    HW142575   2.824   2.637   5.867  3.3519  1.6536 -1.3607
10452SOL    HW242576   2.886   2.665   6.016  0.8437  1.4836 -0.2580
10453SOL     OW42577   8.727   2.431   4.418 -0.0015 -0.0181 -0.1610
10453SOL    HW142578   8.701   2.396   4.509 -1.2430 -1.4208 -1.0258
10453SOL    HW242579   8.677   2.380   4.348  3.1761 -0.9753 -1.7951
10454SOL     OW42580   1.045   6.598   5.009  0.3617 -0.5999 -0.1496
10454SOL    HW142581   1.138   6.633   5.017 -0.2380  0.7108  1.4579
10454SOL    HW242582   0.988   6.639   5.080 -1.8083 -0.2245 -2.0530
10455SOL     OW42583   4.469   9.341   6.534 -0.0328  0.0042  0.7629
10455SOL    HW142584   4.492   9.408   6.463 -0.9952 -1.7040 -1.2382
10455SOL    HW242585   4.552   9.292   6.562  0.2310  0.1313  0.2112
10456SOL     OW42586   1.701   5.420   4.820 -0.1042 -0.1196  0.0736
10456SOL    HW142587   1.635   5.374   4.761  0.1961  1.6127 -1.6536
10456SOL    HW242588   1.664   5.508   4.849  0.3799 -0.2971  1.2666
10457SOL     OW42589   9.718   5.168   1.806 -0.5920  0.0667  0.4434
10457SOL    HW142590   9.700   5.160   1.708 -1.5017 -0.2323  0.6285
10457SOL    HW242591   9.770   5.251   1.824  1.9604 -1.2692 -0.5994
10458SOL     OW42592   3.297   4.329   6.085  0.4557 -0.2866 -0.1276
10458SOL    HW142593   3.230   4.269   6.042  1.0019 -0.0916 -1.2553
10458SOL    HW242594   3.352   4.375   6.015 -0.5229  2.2208  0.7094
10459SOL     OW42595   8.713   5.625   5.612  0.4134 -0.2995 -0.1483
10459SOL    HW142596   8.699   5.531   5.584  0.5304 -0.4073  0.1474
10459SOL    HW242597   8.746   5.627   5.707 -1.5343  0.1119  0.5527
10460SOL     OW42598   3.347   6.453   3.343  0.1593  0.2122  0.2067
10460SOL    HW142599   3.262   6.401   3.346  0.0191  0.3719 -0.6987
10460SOL    HW242600   3.375   6.477   3.435 -0.5325 -0.2474  0.5393
10461SOL     OW42601   2.500   5.274   6.489  0.1644 -0.4064 -0.7213
10461SOL    HW142602   2.466   5.182   6.467  1.1052 -0.8485 -0.3399
10461SOL    HW242603   2.477   5.336   6.414  1.6919 -1.4892 -2.1382
10462SOL     OW42604   0.423   7.723   5.708  0.1922  0.1339  0.4692
10462SOL    HW142605   0.323   7.725   5.710  0.0790  0.0162 -2.3272
10462SOL    HW242606   0.453   7.651   5.645  2.0583 -0.1957  1.6935
10463SOL     OW42607   4.097   9.335   6.406  0.1804  0.0834 -0.2944
10463SOL    HW142608   4.014   9.284   6.382 -0.5854  0.6907  0.9724
10463SOL    HW242609   4.169   9.271   6.434 -1.3024 -0.2938  2.9196
10464SOL     OW42610   9.924   7.298   1.904  0.4139 -0.2874  0.3690
10464SOL    HW142611  10.004   7.245   1.876  0.6778  0.5402 -0.4523
10464SOL    HW242612   9.849   7.236   1.927  0.3190 -0.9867 -1.7649
10465SOL     OW42613   8.831   1.582   3.383 -0.2946  0.2214 -0.2179
10465SOL    HW142614   8.744   1.596   3.336 -1.1416 -2.3086  0.5320
10465SOL    HW242615   8.846   1.656   3.448 -2.1643  0.4008  0.0352
10466SOL     OW42616   7.730   3.165   0.539 -0.1466 -0.0961 -0.5810
10466SOL    HW142617   7.642   3.185   0.497  0.4317  0.4169 -1.5744
10466SOL    HW242618   7.745   3.227   0.616 -0.9657 -0.6677  0.0457
10467SOL     OW42619   3.050   9.635   2.150 -0.1738  0.1187 -0.3639
10467SOL    HW142620   2.956   9.602   2.153  0.5011 -1.8289  0.3486
10467SOL    HW242621   3.111   9.565   2.187  1.5179  1.5140 -0.4394
10468SOL     OW42622   8.944   8.162   0.966  0.4702  0.0465 -0.0464
10468SOL    HW142623   8.969   8.097   1.038 -0.3770  0.5012  0.6609
10468SOL    HW242624   8.873   8.224   1.000 -1.2372 -0.8787 -1.8609
10469SOL     OW42625   6.885   7.702   4.289 -0.1074  0.5541 -0.6667
10469SOL    HW142626   6.978   7.665   4.290 -0.1514  0.4571  1.7814
10469SOL    HW242627   6.859   7.723   4.194  2.2065  0.1204 -1.4379
10470SOL     OW42628   3.574   9.484   3.323  0.1938 -0.1277  0.2111
10470SOL    HW142629   3.617   9.417   3.263  0.5389 -1.4280  1.9002
10470SOL    HW242630   3.476   9.489   3.303  0.1159 -1.3522  0.2904
10471SOL     OW42631   4.653   9.765   2.093 -0.4221 -0.2675 -0.5088
10471SOL    HW142632   4.567   9.816   2.094 -0.5207 -0.4416  0.1492
10471SOL    HW242633   4.718   9.810   2.032 -0.1559  1.2123  0.8444
10472SOL     OW42634   9.594   5.897   3.717  0.1201  0.2688 -0.1571
10472SOL    HW142635   9.499   5.873   3.738 -0.2945  0.1704 -2.0358
10472SOL    HW242636   9.637   5.936   3.798 -1.6268  0.6456  0.6230
10473SOL     OW42637   7.722   9.540   4.665 -0.2085 -0.2254 -0.0671
10473SOL    HW142638   7.752   9.602   4.738 -0.9618 -0.3099  0.3244
10473SOL    HW242639   7.782   9.460   4.663 -0.8382 -0.7524  1.2039
10474SOL     OW42640   1.166   5.281   0.356  0.0077  0.2591  0.3320
10474SOL    HW142641   1.131   5.362   0.309 -1.3983 -0.6781 -0.2867
10474SOL    HW242642   1.152   5.291   0.454 -2.4502 -0.2549  0.0747
10475SOL     OW42643   1.925   0.649   3.185  0.3080 -0.3922 -0.3026
10475SOL    HW142644   1.845   0.653   3.245 -0.3540 -2.6147 -0.9816
10475SOL    HW242645   1.954   0.742   3.162 -1.0738  0.4614  1.2639
10476SOL     OW42646   3.253   5.908   5.844  0.0074 -0.3672  0.1598
10476SOL    HW142647   3.329   5.875   5.902  1.1579  2.6208  0.4261
10476SOL    HW242648   3.168   5.906   5.897  0.6857  0.3595  1.3141
10477SOL     OW42649   0.599   4.201   2.116  0.3327 -0.1887 -0.9251
10477SOL    HW142650   0.589   4.123   2.176  0.5579  0.6350  0.1985
10477SOL    HW242651   0.536   4.192   2.039  0.6052 -1.6283 -0.9859
10478SOL     OW42652   4.271   3.660   3.453  0.0905  0.4290  0.1098
10478SOL    HW142653   4.234   3.604   3.527 -0.6787 -2.0857 -2.1134
10478SOL    HW242654   4.198   3.687   3.391  0.9370  1.3411 -0.5167
10479SOL     OW42655   8.771   6.323   1.999 -0.0916 -0.1353  0.0749
10479SOL    HW142656   8.779   6.290   2.093  0.2220 -0.1309  0.0530
10479SOL    HW242657   8.786   6.248   1.935 -0.5395 -0.1844  0.0308
10480SOL     OW42658   5.304   2.840   3.497  0.5553 -0.8495  0.0375
10480SOL    HW142659   5.297   2.802   3.589  2.1418  0.6039  0.7854
10480SOL    HW242660   5.356   2.776   3.439 -0.3008 -1.6889  0.1795
10481SOL     OW42661   8.456   1.497   1.995 -0.5474 -0.4113  0.2827
10481SOL    HW142662   8.392   1.527   2.066 -1.0658 -1.8238  0.4337
10481SOL    HW242663   8.546   1.537   2.012 -1.2903  1.2988  0.2860
10482SOL     OW42664   5.406   8.636   2.353 -0.3779 -0.3247 -0.8481
10482SOL    HW142665   5.420   8.538   2.339  0.8259 -0.1038 -1.2330
10482SOL    HW242666   5.366   8.651   2.443  2.1141 -0.9898  0.4207
10483SOL     OW42667   1.333   1.686   1.712 -0.1823  0.2338  0.5084
10483SOL    HW142668   1.372   1.728   1.794  0.5914  1.8268 -0.6437
10483SOL    HW242669   1.276   1.753   1.665  0.8131 -0.1082 -1.1961
10484SOL     OW42670   9.258   3.214   6.688 -0.7384  0.1783 -0.2414
10484SOL    HW142671   9.289   3.269   6.765  0.2203 -0.8803  0.1337
10484SOL    HW242672   9.158   3.218   6.684 -0.8180  0.0574  1.1898
10485SOL     OW42673   1.251   5.659   1.030 -0.3760  0.4389 -0.5014
10485SOL    HW142674   1.307   5.625   0.955  0.8972 -0.2210  0.7139
10485SOL    HW242675   1.168   5.603   1.038 -0.5160  0.5109 -1.3937
10486SOL     OW42676   4.889   4.672   1.449  0.3206  0.0580  0.0750
10486SOL    HW142677   4.819   4.656   1.380  1.6518 -0.3319 -1.2028
10486SOL    HW242678   4.868   4.617   1.530 -0.2171 -0.9532 -0.7318
10487SOL     OW42679   2.804   9.787   6.746 -0.0601  0.2078 -0.0192
10487SOL    HW142680   2.732   9.732   6.703 -0.0491  0.7710 -0.7613
10487SOL    HW242681   2.763   9.867   6.790  0.0861  0.4229 -0.2707
10488SOL     OW42682   6.862   0.662   0.083 -0.2683  0.2099 -0.5302
10488SOL    HW142683   6.948   0.616   0.103 -0.6342 -0.7589 -1.1211
10488SOL    HW242684   6.837   0.646  -0.013 -0.0367  2.2644 -0.9496
10489SOL     OW42685   3.526   4.316   4.675  0.3492  0.6791 -0.1174
10489SOL    HW142686   3.512   4.218   4.665  0.7824  0.4975  1.0417
10489SOL    HW242687   3.459   4.353   4.740  0.2400  1.1462 -0.4859
10490SOL     OW42688   6.531   1.744   4.841  0.9578 -0.1680  0.3166
10490SOL    HW142689   6.466   1.668   4.838  0.3818  0.3382  0.0162
10490SOL    HW242690   6.623   1.708   4.862  0.2415 -0.6782  2.7782
10491SOL     OW42691   8.257   6.948   2.686 -0.4814 -0.6394 -0.1793
10491SOL    HW142692   8.229   6.958   2.781  1.8369  0.1408  0.4398
10491SOL    HW242693   8.275   7.038   2.647  4.2794 -1.2179  0.4310
10492SOL     OW42694   1.573   0.588   3.097  0.3520  0.5976  0.0945
10492SOL    HW142695   1.496   0.648   3.118  1.6447  2.6464 -0.9000
10492SOL    HW242696   1.627   0.627   3.023  1.6429 -1.4582 -0.0934
10493SOL     OW42697   2.627   0.084   2.422  0.5294  0.0194  0.0542
10493SOL    HW142698   2.542   0.038   2.396  1.5160 -1.4106 -0.6779
10493SOL    HW242699   2.626   0.101   2.521  0.1163 -1.4905  0.3174
10494SOL     OW42700   6.702   0.413   2.033  0.6917  0.4210  0.0244
10494SOL    HW142701   6.623   0.359   2.004  1.6276 -0.5136 -0.8293
10494SOL    HW242702   6.734   0.381   2.122  0.9587 -0.1389 -0.2702
10495SOL     OW42703   2.551   8.091   5.687  0.6321  0.4090  0.3941
10495SOL    HW142704   2.470   8.140   5.721 -0.2299 -0.6415 -0.1371
10495SOL    HW242705   2.612   8.156   5.642  0.3402  1.2997  1.2496
10496SOL     OW42706   3.085   1.388   1.334  0.7976 -0.7212  0.3057
10496SOL    HW142707   3.113   1.437   1.416  1.1857 -0.0664 -0.2128
10496SOL    HW242708   3.161   1.388   1.268 -0.4348  1.1598 -1.1554
10497SOL     OW42709   8.150   2.913   5.826  0.2654  0.4057  0.4160
10497SOL    HW142710   8.068   2.969   5.829  0.8067  1.1466  1.4164
10497SOL    HW242711   8.158   2.860   5.910  0.9847  0.5861  0.4654
10498SOL     OW42712   3.661   0.794   1.180 -0.0153 -0.2220  0.0868
10498SOL    HW142713   3.746   0.835   1.215 -0.4277 -0.7144  1.7096
10498SOL    HW242714   3.666   0.694   1.190  0.0749 -0.4237 -1.8016
10499SOL     OW42715   4.538   4.103   0.887  0.2847  0.3972  0.1719
10499SOL    HW142716   4.534   4.003   0.884 -0.7721  0.4600 -1.2604
10499SOL    HW242717   4.599   4.136   0.815  0.5216  0.7805  0.5495
10500SOL     OW42718   0.652   2.301   5.979  0.5470  0.3552 -0.3998
10500SOL    HW142719   0.695   2.212   5.995  0.0150  0.0614 -0.6066
10500SOL    HW242720   0.619   2.339   6.066  0.9234  0.4312 -0.2885
10501SOL     OW42721   8.684   4.331   4.764 -0.2805  0.5590 -0.6022
10501SOL    HW142722   8.694   4.406   4.830  2.9477  0.1519 -0.5460
10501SOL    HW242723   8.606   4.274   4.790 -0.1453  1.4166  1.8606
10502SOL     OW42724   6.106   8.536   3.131  0.9687 -0.5309  0.1232
10502SOL    HW142725   6.130   8.628   3.099 -0.5988  0.3372  1.3570
10502SOL    HW242726   6.102   8.536   3.231  1.8593 -2.1823  0.1651
10503SOL     OW42727   1.650   3.973   5.962 -0.1321  0.9082  0.0717
10503SOL    HW142728   1.557   4.006   5.976 -0.4661  0.7130 -1.5951
10503SOL    HW242729   1.650   3.873   5.956  0.2112  0.8953  0.2723
10504SOL     OW42730   4.460   9.866   5.756  0.1476  0.2377 -0.0074
10504SOL    HW142731   4.395   9.864   5.831 -0.7815  2.2850 -0.7244
10504SOL    HW242732   4.529   9.794   5.769 -0.7986 -0.3234  2.0471
10505SOL     OW42733   4.738   9.852   6.643 -0.0338 -0.2185  0.1541
10505SOL    HW142734   4.751   9.791   6.721 -2.0256 -0.3762  0.4021
10505SOL    HW242735   4.664   9.817   6.585  0.9090  0.3012 -1.4126
10506SOL     OW42736   6.727   0.963   1.482 -1.0522 -0.1995  0.3267
10506SOL    HW142737   6.801   0.941   1.546 -0.8480 -0.8177 -0.1156
10506SOL    HW242738   6.695   1.056   1.499 -0.6519 -0.1777  0.9891
10507SOL     OW42739   4.297   9.066   5.695  0.0421  0.0898 -0.2670
10507SOL    HW142740   4.361   9.072   5.771 -0.7823 -0.1467  0.4478
10507SOL    HW242741   4.258   8.974   5.690 -1.9430  0.8596  0.6999
10508SOL     OW42742   0.553   3.539   5.445 -0.1967 -0.0786  0.1396
10508SOL    HW142743   0.481   3.470   5.457  1.0896 -1.6398 -0.8642
10508SOL    HW242744   0.642   3.493   5.436  0.9288  1.8026  1.2213
10509SOL     OW42745   2.036   9.976   3.005  0.1326  0.4457  0.1424
10509SOL    HW142746   2.102  10.046   3.030  0.4872 -0.1343  0.8538
10509SOL    HW242747   1.967  10.015   2.944  0.5738  1.2959  0.1800
10510SOL     OW42748   9.011   8.379   1.291 -0.1619  0.0818 -1.0016
10510SOL    HW142749   9.012   8.289   1.335  2.1387  0.4428 -0.2812
10510SOL    HW242750   8.916   8.405   1.273 -0.9274 -1.9380 -0.1025
10511SOL     OW42751   3.981   7.059   4.381 -0.0530 -0.8270 -0.0742
10511SOL    HW142752   3.940   6.982   4.331  2.6715 -1.2386 -1.7426
10511SOL    HW242753   4.019   7.026   4.468 -0.5283 -1.0023  0.0699
10512SOL     OW42754   7.033   0.737   6.144  0.1888  0.1688  0.2951
10512SOL    HW142755   6.986   0.818   6.109 -0.8239  0.1460  1.5688
10512SOL    HW242756   7.132   0.753   6.141  0.0248  1.1748 -0.1258
10513SOL     OW42757   4.297   1.306   6.234  0.2486  0.3998 -0.1874
10513SOL    HW142758   4.292   1.243   6.157 -1.8071  0.2712  0.0315
10513SOL    HW242759   4.391   1.338   6.244  1.4431 -2.8842 -0.0964
10514SOL     OW42760   4.673   7.382   2.549 -0.1838  0.3583  0.5310
10514SOL    HW142761   4.660   7.321   2.627 -1.0594  0.6147  0.5945
10514SOL    HW242762   4.767   7.416   2.548 -0.0896  0.1326  1.3136
10515SOL     OW42763   3.121   9.127   4.355 -0.0642  0.5038  0.1214
10515SOL    HW142764   3.080   9.177   4.279 -0.5023  1.1872  0.8040
10515SOL    HW242765   3.066   9.046   4.375 -1.5281  1.8097  1.5174
10516SOL     OW42766   0.141   6.628   0.983  0.0008  0.0768  0.0360
10516SOL    HW142767   0.107   6.607   1.075  2.3716 -0.8507  0.7409
10516SOL    HW242768   0.150   6.543   0.931 -1.9900  0.6678 -1.3198
10517SOL     OW42769   8.028   9.961   3.623  0.0854 -0.1237  0.3863
10517SOL    HW142770   8.028   9.942   3.525  0.7581 -1.0528  0.5538
10517SOL    HW242771   8.122   9.959   3.658 -0.1736 -0.1140  1.1092
10518SOL     OW42772   1.060   9.133   2.020  0.0993 -0.4595 -0.4111
10518SOL    HW142773   1.047   9.218   2.071 -0.2368 -1.2777  0.8583
10518SOL    HW242774   0.982   9.072   2.033  0.2942 -0.9442 -1.3927
10519SOL     OW42775   0.436   9.388   4.360 -0.4678 -0.6661 -0.3073
10519SOL    HW142776   0.453   9.312   4.424 -0.3665 -0.0555  0.4027
10519SOL    HW242777   0.494   9.466   4.385 -0.4983 -0.3886 -1.0930
10520SOL     OW42778   3.609   2.524   0.744  0.1360  0.0869 -0.3882
10520SOL    HW142779   3.650   2.511   0.654 -0.4932  0.0932 -0.6746
10520SOL    HW242780   3.509   2.521   0.737  0.0019  2.4621 -0.0767
10521SOL     OW42781   9.372   8.328   3.228 -0.1564  0.6435 -0.6589
10521SOL    HW142782   9.277   8.299   3.234 -0.0869  0.6051  0.3950
10521SOL    HW242783   9.432   8.254   3.259  0.0300  1.8181  1.9903
10522SOL     OW42784   9.301   0.304   4.864 -0.0953 -0.4365 -0.7907
10522SOL    HW142785   9.277   0.212   4.895 -2.2385 -0.1097 -1.3521
10522SOL    HW242786   9.292   0.309   4.765  1.5440 -0.0302 -0.9356
10523SOL     OW42787   0.485   2.022   0.804  0.0633  0.1254 -0.7309
10523SOL    HW142788   0.475   1.978   0.894 -1.1435  2.5985  0.4051
10523SOL    HW242789   0.403   2.005   0.750 -1.5271  2.9585  0.6644
10524SOL     OW42790   7.994   9.569   6.740 -0.1420  0.4335  0.1271
10524SOL    HW142791   7.910   9.598   6.694  0.4364  0.1131 -1.1547
10524SOL    HW242792   7.995   9.469   6.748 -0.2149  0.4861  0.7979
10525SOL     OW42793   3.281   5.654   1.832 -0.1550 -0.4063 -1.0502
10525SOL    HW142794   3.258   5.750   1.820 -1.1061 -0.4548  0.2565
10525SOL    HW242795   3.198   5.602   1.851  0.4924 -1.3034 -0.6369
10526SOL     OW42796   4.273   9.232   6.004  0.4725 -0.6560 -0.4135
10526SOL    HW142797   4.257   9.316   6.056 -0.0006 -1.2215  0.3671
10526SOL    HW242798   4.369   9.227   5.977  0.4392  0.2825 -0.7180
10527SOL     OW42799   1.057   2.070   1.424 -0.3190 -0.0804  0.3381
10527SOL    HW142800   0.968   2.045   1.462 -2.6045  2.8088 -2.8142
10527SOL    HW242801   1.090   2.153   1.469 -0.7660  0.6321 -0.6204
10528SOL     OW42802   2.669   1.127   5.190  0.1428  0.2708  0.0228
10528SOL    HW142803   2.587   1.143   5.245  0.1363 -0.0507  0.1107
10528SOL    HW242804   2.750   1.152   5.243  0.1505 -0.2634  0.2724
10529SOL     OW42805   1.123   2.871   1.476  0.2855  0.2319 -0.0884
10529SOL    HW142806   1.052   2.831   1.535 -0.0836  0.5503 -0.3171
10529SOL    HW242807   1.197   2.805   1.465  1.5301  1.0669  2.7315
10530SOL     OW42808   1.142   7.855   3.745 -0.4367  0.3256  0.0523
10530SOL    HW142809   1.156   7.762   3.777  0.9225  0.2129 -0.8183
10530SOL    HW242810   1.103   7.854   3.653  1.1195  0.5719 -0.6366
10531SOL     OW42811   7.875   1.588   4.690 -0.5482 -0.1340 -0.0977
10531SOL    HW142812   7.926   1.643   4.624 -1.7293  3.0122  1.5212
10531SOL    HW242813   7.842   1.505   4.645 -0.1702  1.2563 -3.1115
10532SOL     OW42814   9.638   8.036   0.134  0.0689  0.1189  0.1420
10532SOL    HW142815   9.613   8.121   0.087 -1.2833 -0.6259 -0.5055
10532SOL    HW242816   9.733   8.042   0.165  0.2257  1.5666 -0.5832
10533SOL     OW42817   1.117   9.529   0.584  0.4113  0.5312 -0.0183
10533SOL    HW142818   1.024   9.544   0.617 -0.7077 -1.7770 -1.9757
10533SOL    HW242819   1.158   9.452   0.633  0.5540  0.2695 -0.5465
10534SOL     OW42820   2.792   0.676   2.565 -0.1618  0.0975  0.0195
10534SOL    HW142821   2.741   0.676   2.479 -0.4153 -1.2023  0.1594
10534SOL    HW242822   2.828   0.768   2.582 -0.7190  0.5398 -1.1060
10535SOL     OW42823   0.953   0.737   6.562 -0.1072 -0.6770  0.0210
10535SOL    HW142824   1.011   0.670   6.517 -0.3042  0.1272 -1.4745
10535SOL    HW242825   0.916   0.699   6.647  2.6936 -1.1327  1.0622
10536SOL     OW42826   1.892   3.944   5.243  0.6334  0.4543  0.3202
10536SOL    HW142827   1.886   4.014   5.314 -0.7294  3.1391 -2.3478
10536SOL    HW242828   1.801   3.929   5.203  1.7585  0.6096 -2.3674
10537SOL     OW42829   1.846   8.277   2.674  0.5840  0.4415  0.1957
10537SOL    HW142830   1.827   8.323   2.761  1.2709  0.1933  0.4811
10537SOL    HW242831   1.824   8.180   2.682  0.4839  0.4515  0.0382
10538SOL     OW42832   2.318   0.172   2.532  0.2392 -0.5771 -0.3864
10538SOL    HW142833   2.265   0.088   2.529  1.0010 -1.1360  1.4128
10538SOL    HW242834   2.401   0.158   2.586  0.8907  1.0395 -0.9265
10539SOL     OW42835   8.725   8.412   6.207  0.8454 -0.0023 -0.0738
10539SOL    HW142836   8.702   8.503   6.171  2.3479 -0.1523 -1.4476
10539SOL    HW242837   8.712   8.344   6.135 -0.0575 -0.8643  0.8915
10540SOL     OW42838   0.646   3.591   1.192  0.0219 -0.6902  0.0462
10540SOL    HW142839   0.574   3.576   1.260 -1.0197 -0.9281 -1.0913
10540SOL    HW242840   0.647   3.687   1.165  0.1739 -0.6775  0.0960
10541SOL     OW42841   7.332   1.507   3.008 -0.3246  0.5887  0.0353
10541SOL    HW142842   7.325   1.600   3.042 -1.4564  0.0189  1.4362
10541SOL    HW242843   7.288   1.501   2.918  0.9555  1.6872 -0.6680
10542SOL     OW42844   1.653   6.555   3.383 -0.2265 -0.1970  0.2695
10542SOL    HW142845   1.645   6.638   3.327 -1.0948 -0.4439  0.0240
10542SOL    HW242846   1.623   6.476   3.330  0.6183 -0.6795  0.5015
10543SOL     OW42847   1.385   8.715   1.829  0.0696  0.7131  0.0984
10543SOL    HW142848   1.316   8.786   1.817 -1.5972 -1.0935 -1.2285
10543SOL    HW242849   1.376   8.675   1.921  0.6018  1.7487  0.6124
10544SOL     OW42850   7.497   1.107   2.317 -0.0405  0.0087 -0.0599
10544SOL    HW142851   7.465   1.045   2.246  0.6073 -0.2553 -0.1170
10544SOL    HW242852   7.560   1.059   2.378 -0.2058  0.3709  0.4007
10545SOL     OW42853   2.711   0.839   6.530 -0.3410 -0.3351  0.6039
10545SOL    HW142854   2.769   0.918   6.511  0.4922 -0.6831  1.6996
10545SOL    HW242855   2.672   0.847   6.621 -1.0990 -0.6722  0.3121
10546SOL     OW42856   9.436   2.166   2.361  0.3420  0.5550 -0.3314
10546SOL    HW142857   9.486   2.089   2.322  0.7632  0.0489  1.1716
10546SOL    HW242858   9.490   2.250   2.348  0.0594  0.5589 -1.6173
10547SOL     OW42859   1.529   8.352   0.123  0.0042 -0.3832 -0.7905
10547SOL    HW142860   1.590   8.324   0.050 -0.8577  1.8339 -2.4177
10547SOL    HW242861   1.486   8.439   0.100 -3.4792 -1.6504  0.4575
10548SOL     OW42862   8.742   9.662   5.391  0.2582 -0.1096  0.3331
10548SOL    HW142863   8.725   9.565   5.407  0.7628 -0.5571 -1.6699
10548SOL    HW242864   8.656   9.713   5.399 -1.0211 -1.4759 -3.6531
10549SOL     OW42865   6.283   1.794   4.061 -0.6669  0.3394 -0.0399
10549SOL    HW142866   6.201   1.737   4.052  0.7270 -1.6530 -0.2846
10549SOL    HW242867   6.307   1.803   4.158  0.4414 -1.4249 -0.1400
10550SOL     OW42868   9.942   9.747   1.927 -0.2404 -0.1802 -0.6785
10550SOL    HW142869   9.849   9.779   1.910  0.3896  1.2851 -1.4330
10550SOL    HW242870   9.965   9.760   2.023 -0.5460  0.1682 -0.6534
10551SOL     OW42871   2.524   9.546   0.576 -0.0851 -0.2715 -0.0361
10551SOL    HW142872   2.435   9.545   0.530 -0.0209  0.7984 -0.2092
10551SOL    HW242873   2.531   9.629   0.632  0.7681 -0.3895  0.0431
10552SOL     OW42874   7.295   8.862   3.587  0.1167 -0.5772 -0.2269
10552SOL    HW142875   7.269   8.937   3.525  1.4783  0.1849  0.1093
10552SOL    HW242876   7.212   8.813   3.615 -1.0359  1.9338  0.9647
10553SOL     OW42877   5.703   0.646   3.868  0.4598 -0.1015  0.0201
10553SOL    HW142878   5.783   0.621   3.814 -0.4030 -1.6270 -0.5623
10553SOL    HW242879   5.626   0.667   3.807  0.1839  0.6130  0.5977
10554SOL     OW42880   1.528   2.670   1.061 -0.3732 -0.6507  0.4538
10554SOL    HW142881   1.524   2.594   0.996  0.5879 -0.6363  0.3772
10554SOL    HW242882   1.589   2.647   1.136 -2.5181 -1.2194  2.0872
10555SOL     OW42883   8.197   9.717   3.781 -0.2938  0.1913 -0.0810
10555SOL    HW142884   8.221   9.658   3.704 -0.7960  0.9650 -0.8431
10555SOL    HW242885   8.210   9.812   3.755 -1.1522  0.4885  0.5449
10556SOL     OW42886   9.624   3.621   0.098 -0.0579  0.2866 -0.1813
10556SOL    HW142887   9.606   3.558   0.023 -2.8537  1.1601 -0.3093
10556SOL    HW242888   9.688   3.691   0.068  0.9373 -0.9122 -0.8951
10557SOL     OW42889   1.222   1.740   4.154 -0.3234  0.0447 -0.4404
10557SOL    HW142890   1.205   1.753   4.251  1.4112 -1.1887  0.0407
10557SOL    HW242891   1.291   1.806   4.123 -1.0371  0.5895 -0.9049
10558SOL     OW42892   7.830   8.981   5.200 -0.2679  0.7296  0.0067
10558SOL    HW142893   7.858   8.905   5.258 -0.5722  1.2935  0.8971
10558SOL    HW242894   7.901   9.051   5.199 -1.4812  2.0276  2.0324
10559SOL     OW42895   0.686   6.545   3.874 -0.0346  0.5432  0.4435
10559SOL    HW142896   0.688   6.462   3.929  1.2195 -0.1911 -0.6706
10559SOL    HW242897   0.695   6.625   3.934  0.8385 -0.2204  1.3416
10560SOL     OW42898   4.035   6.436   1.881 -0.4465  0.5092  0.0389
10560SOL    HW142899   4.024   6.426   1.782 -0.0059 -1.4788  0.1718
10560SOL    HW242900   4.009   6.529   1.908 -2.1388  0.5807 -1.7105
10561SOL     OW42901   2.747   9.874   3.664  0.3908 -0.1328 -0.1083
10561SOL    HW142902   2.779   9.812   3.735 -0.0438 -0.3430 -0.0926
10561SOL    HW242903   2.662   9.839   3.624 -1.1939  1.6520  1.5876
10562SOL     OW42904   0.501   5.983   4.633  0.1292 -0.4444  0.1334
10562SOL    HW142905   0.502   5.889   4.599 -3.5693 -0.5475  0.1407
10562SOL    HW242906   0.485   5.982   4.732 -3.6227  0.2329 -0.4085
10563SOL     OW42907   9.206   3.638   4.012 -0.1862  0.2798  0.4907
10563SOL    HW142908   9.153   3.642   4.097 -0.1940  0.0029  0.4995
10563SOL    HW242909   9.165   3.570   3.951  0.4936 -0.3593  0.7308
10564SOL     OW42910   8.816   3.714   1.769 -0.5711  0.7649 -0.0050
10564SOL    HW142911   8.745   3.662   1.816 -1.2068  0.3488 -1.3804
10564SOL    HW242912   8.788   3.810   1.761 -0.9346  0.6226 -0.4520
10565SOL     OW42913   4.922   3.467   3.046  0.1503  0.1618  0.3358
10565SOL    HW142914   4.903   3.565   3.037 -0.0460  0.0623 -0.3204
10565SOL    HW242915   4.950   3.448   3.140  0.3658  0.8800  0.4242
10566SOL     OW42916   0.706   2.525   2.356 -0.1109  0.2193 -0.5558
10566SOL    HW142917   0.735   2.618   2.333  0.4324 -0.0630 -1.0316
10566SOL    HW242918   0.781   2.477   2.403 -0.1473 -0.1923 -0.9127
10567SOL     OW42919   0.479   9.892   5.336 -0.7725 -0.5079  0.4688
10567SOL    HW142920   0.417   9.909   5.260 -0.4614 -0.6528  0.1786
10567SOL    HW242921   0.493   9.976   5.388 -0.1842 -0.1601 -0.2405
10568SOL     OW42922   0.238   3.071   2.351  0.3251  0.4029 -0.0034
10568SOL    HW142923   0.176   2.992   2.349  0.4572  0.3397 -2.9676
10568SOL    HW242924   0.194   3.146   2.401  0.3944 -1.6515  3.2721
10569SOL     OW42925   6.842   4.689   0.915  0.1481 -0.1926  0.0929
10569SOL    HW142926   6.782   4.722   0.842 -0.8115  1.9578  1.8179
10569SOL    HW242927   6.937   4.710   0.892 -0.2611  1.6878  0.0906
10570SOL     OW42928   9.308   3.551   4.937 -0.7459 -0.2250 -0.0961
10570SOL    HW142929   9.266   3.604   4.864 -0.1117  0.1232 -0.2132
10570SOL    HW242930   9.387   3.501   4.900  1.4792  2.3764  1.0048
10571SOL     OW42931   8.996   0.428   6.071 -0.5055 -0.0810 -0.4607
10571SOL    HW142932   9.056   0.401   5.995 -0.9582 -2.0958 -0.1099
10571SOL    HW242933   9.048   0.430   6.156 -0.6977 -0.7808 -0.3290
10572SOL     OW42934   7.726   8.337   4.285  0.2331 -0.0070  0.4409
10572SOL    HW142935   7.691   8.272   4.218  2.9376 -1.2373  0.1387
10572SOL    HW242936   7.795   8.395   4.242 -0.5296  1.5469  1.2904
10573SOL     OW42937   4.301   9.517   1.043  0.1538  0.1323 -0.0356
10573SOL    HW142938   4.310   9.428   1.000  1.5850  0.3146 -0.1313
10573SOL    HW242939   4.355   9.585   0.993  0.3633  0.7254  0.9618
10574SOL     OW42940   5.811   9.408   5.356  1.0519  0.4199  0.4987
10574SOL    HW142941   5.793   9.463   5.275 -0.9857 -0.5755  0.2613
10574SOL    HW242942   5.780   9.457   5.437 -2.0899 -0.9017  0.1703
10575SOL     OW42943   5.434   1.595   1.249  0.2461 -0.0399 -0.4406
10575SOL    HW142944   5.459   1.657   1.324 -1.3993  1.0257 -0.7263
10575SOL    HW242945   5.472   1.505   1.266  1.4907  0.6856  0.7233
10576SOL     OW42946   2.011   5.902   1.902  0.8528 -0.0082  0.1854
10576SOL    HW142947   2.084   5.835   1.916  0.4147 -0.5585 -0.1308
10576SOL    HW242948   1.963   5.917   1.988  1.1807  0.1810  0.3407
10577SOL     OW42949   2.397   9.556   2.823  0.4700  0.0166 -0.2104
10577SOL    HW142950   2.353   9.623   2.763  1.7121 -0.7841 -2.0573
10577SOL    HW242951   2.492   9.584   2.839  0.4449 -0.3216  0.5285
10578SOL     OW42952   2.283   6.713   6.001  0.3601  0.3729 -0.5941
10578SOL    HW142953   2.220   6.772   5.951  0.0640  0.1346 -0.5079
10578SOL    HW242954   2.372   6.757   6.008  1.0679 -0.5326 -3.2722
10579SOL     OW42955   1.244   5.115   6.199  0.3908 -0.2062 -0.3548
10579SOL    HW142956   1.169   5.056   6.170 -0.1167  0.6797 -0.8802
10579SOL    HW242957   1.208   5.206   6.220  1.3225  0.2315 -0.6463
10580SOL     OW42958   9.917   4.783   3.390 -0.2955 -0.9364  0.1044
10580SOL    HW142959   9.904   4.768   3.292 -0.5234  0.3327 -0.0773
10580SOL    HW242960   9.936   4.696   3.435 -1.5871 -1.7295 -0.8518
10581SOL     OW42961   4.861   3.941   1.522  0.0334  0.8335 -0.1436
10581SOL    HW142962   4.828   4.033   1.503 -0.1591  1.0372  1.1563
10581SOL    HW242963   4.878   3.893   1.435 -1.5300  1.4762 -0.8238
10582SOL     OW42964   2.145   2.429   2.364  0.0865  0.3026  0.0004
10582SOL    HW142965   2.143   2.505   2.430 -0.1174  0.6916 -0.4539
10582SOL    HW242966   2.163   2.343   2.413 -1.9797  0.3173  0.8233
10583SOL     OW42967   2.680   0.459   4.803  0.1425  0.0595 -0.0703
10583SOL    HW142968   2.697   0.368   4.766 -0.9375 -0.2110  0.1009
10583SOL    HW242969   2.768   0.506   4.815  0.7864 -1.2680  0.6279
10584SOL     OW42970   1.819   6.828   5.322 -0.4869 -0.3328 -0.1039
10584SOL    HW142971   1.884   6.759   5.291  0.7481  0.7457  0.0387
10584SOL    HW242972   1.754   6.787   5.385 -1.0281 -1.8190 -1.6129
10585SOL     OW42973   2.167   4.854   4.600 -0.1408 -0.0700 -0.2880
10585SOL    HW142974   2.114   4.930   4.636  0.2261  0.6654 -1.2906
10585SOL    HW242975   2.175   4.862   4.501  1.0915 -0.6592 -0.2497
10586SOL     OW42976   0.822   0.376   6.446  0.0225 -0.3002 -0.1673
10586SOL    HW142977   0.815   0.307   6.373  0.3665 -2.8310  2.0857
10586SOL    HW242978   0.870   0.456   6.411 -1.3027 -0.7530 -3.1855
10587SOL     OW42979   3.082   4.163   0.012  0.0377 -0.3066 -0.1613
10587SOL    HW142980   3.075   4.149   0.111  1.0813  0.0110 -0.0320
10587SOL    HW242981   3.036   4.088  -0.035 -0.2542 -0.5940  0.5662
10588SOL     OW42982   8.134   6.096   1.507 -0.5403  0.5158 -0.4518
10588SOL    HW142983   8.077   6.019   1.476 -0.9667  1.2616 -1.5392
10588SOL    HW242984   8.134   6.099   1.607 -2.2289  0.3517 -0.4316
10589SOL     OW42985   0.442   5.860   6.286 -0.1733 -0.0843 -0.2902
10589SOL    HW142986   0.506   5.904   6.224  0.2216  2.4774  1.8727
10589SOL    HW242987   0.492   5.820   6.363 -0.8722 -1.1615 -0.3842
10590SOL     OW42988   6.091   4.267   0.305  0.0614  0.3637 -0.1635
10590SOL    HW142989   6.093   4.207   0.385  0.5801 -0.5812 -0.8671
10590SOL    HW242990   6.058   4.357   0.331 -1.1374 -0.3533  0.8385
10591SOL     OW42991   4.888   6.844   2.809 -0.4375 -0.3881  0.1116
10591SOL    HW142992   4.817   6.910   2.788 -0.1571  0.4061  1.6083
10591SOL    HW242993   4.883   6.768   2.744 -1.8929  0.2234 -0.5128
10592SOL     OW42994   3.098   0.450   0.903  0.7987  0.3543  0.1166
10592SOL    HW142995   3.182   0.421   0.858 -0.0833 -2.2235  0.0275
10592SOL    HW242996   3.083   0.395   0.985 -2.3439 -1.4236 -1.5389
10593SOL     OW42997   0.711   7.228   0.287  0.3558 -0.6270  0.1483
10593SOL    HW142998   0.810   7.242   0.284  0.3464 -0.3970  0.7994
10593SOL    HW242999   0.667   7.290   0.223  0.6393 -0.7675 -0.1850
10594SOL     OW43000   5.103   8.562   5.122 -0.4083 -0.5356 -0.2055
10594SOL    HW143001   5.038   8.550   5.047  0.3532  1.3685 -1.2225
10594SOL    HW243002   5.187   8.513   5.101 -0.1813  0.0282 -0.6154
10595SOL     OW43003   9.648   5.453   2.145 -0.2461 -0.1402  0.0284
10595SOL    HW143004   9.588   5.373   2.152  1.7075 -1.5031  1.7521
10595SOL    HW243005   9.734   5.426   2.100 -0.4393  1.5346 -1.4202
10596SOL     OW43006   3.035   4.578   1.157  0.0311  0.1385 -0.3833
10596SOL    HW143007   2.977   4.646   1.201 -0.7049  0.0391 -1.2120
10596SOL    HW243008   2.984   4.529   1.087  0.6970 -0.9317 -0.1423
10597SOL     OW43009   8.006   6.409   5.366  0.2425 -0.0856 -0.3057
10597SOL    HW143010   8.038   6.492   5.411 -2.1473 -0.7199  2.7797
10597SOL    HW243011   8.068   6.334   5.388  1.9711  0.6839 -2.4489
10598SOL     OW43012   7.748   4.165   2.528 -0.0996  0.7713 -0.2141
10598SOL    HW143013   7.769   4.213   2.443  1.5608  1.1668  0.4061
10598SOL    HW243014   7.720   4.071   2.507  0.0514  0.9372 -1.2000
10599SOL     OW43015   7.156   2.718   1.329 -0.0641  0.0111  0.6019
10599SOL    HW143016   7.164   2.807   1.373  2.1751 -0.1678  0.6443
10599SOL    HW243017   7.156   2.646   1.399  3.1016 -0.2517  0.4322
10600SOL     OW43018   0.756   9.571   6.142 -0.1485  0.1754  0.0388
10600SOL    HW143019   0.693   9.641   6.175  0.8980  0.3570  1.7122
10600SOL    HW243020   0.849   9.608   6.138  0.0171 -0.3478 -1.5854
10601SOL     OW43021   2.533   1.206   4.080  0.2140  1.0174 -0.1740
10601SOL    HW143022   2.466   1.138   4.110 -0.9984  1.2514 -2.2265
10601SOL    HW243023   2.489   1.295   4.072  1.2354  1.5708  0.2553
10602SOL     OW43024   1.320   7.571   1.752  0.1456  0.3430 -0.0400
10602SOL    HW143025   1.419   7.560   1.744  0.1748  0.7515 -0.2544
10602SOL    HW243026   1.300   7.642   1.820 -0.0193 -0.3216  0.6180
10603SOL     OW43027   1.211   7.607   4.063 -0.1428  0.4075 -0.6463
10603SOL    HW143028   1.118   7.625   4.098  0.3119 -0.4299  1.0334
10603SOL    HW243029   1.271   7.682   4.090  0.4948 -0.8375  1.5486
10604SOL     OW43030   3.020   9.886   3.874  0.8654 -0.4030  0.5800
10604SOL    HW143031   2.942   9.825   3.889  0.1960  0.7185  1.7523
10604SOL    HW243032   3.039   9.936   3.958  1.9739  0.3442 -0.1126
10605SOL     OW43033   1.035   9.681   6.172  0.3260 -0.0382 -0.6182
10605SOL    HW143034   1.086   9.667   6.087 -0.4290 -0.3119 -1.0267
10605SOL    HW243035   0.998   9.774   6.174 -0.7080 -0.4374 -1.1549
10606SOL     OW43036   2.498   8.704   5.716  0.5839  0.6891 -0.1806
10606SOL    HW143037   2.555   8.651   5.653  2.1301  2.4236 -0.2997
10606SOL    HW243038   2.408   8.719   5.675 -0.3886 -2.9154  0.4137
10607SOL     OW43039   5.679   8.730   3.736  0.6210 -0.5099 -0.1752
10607SOL    HW143040   5.709   8.637   3.755  0.1371 -0.7751 -0.6790
10607SOL    HW243041   5.736   8.771   3.665  0.3131 -0.7109 -0.5341
10608SOL     OW43042   7.773   1.554   6.284  0.2125  0.3276 -0.4200
10608SOL    HW143043   7.710   1.476   6.276 -2.1191  2.1143  0.0020
10608SOL    HW243044   7.829   1.559   6.201 -1.7147 -0.0412 -1.7974
10609SOL     OW43045   9.575   2.355   0.292 -0.4175 -0.1152 -0.1401
10609SOL    HW143046   9.548   2.441   0.334 -1.5758 -0.3288 -0.4307
10609SOL    HW243047   9.668   2.363   0.255 -0.2665  0.7806  0.4412
10610SOL     OW43048   7.952   1.919   1.259  0.0397 -0.1469  0.2621
10610SOL    HW143049   7.934   1.838   1.204 -0.2624  0.1318 -0.0508
10610SOL    HW243050   7.865   1.960   1.288  0.1966 -0.3013  0.9520
10611SOL     OW43051   9.101   3.305   1.189  0.0597 -0.6710 -1.0013
10611SOL    HW143052   9.174   3.351   1.240  0.7898 -0.2886 -2.3665
10611SOL    HW243053   9.065   3.229   1.243 -1.6267  1.8921  1.5825
10612SOL     OW43054   0.125   6.046   0.792 -0.0570  0.0503  0.2394
10612SOL    HW143055   0.125   6.068   0.694  2.2685  1.0898  0.4527
10612SOL    HW243056   0.175   6.117   0.842  0.0315 -1.2400  2.0126
10613SOL     OW43057   8.981   1.261   6.236  0.4761 -0.3008 -0.1863
10613SOL    HW143058   8.896   1.308   6.216  0.8645  0.0110 -1.1621
10613SOL    HW243059   8.963   1.182   6.295 -0.3636  0.2475  0.2992
10614SOL     OW43060   0.913   1.023   5.209 -0.8856 -0.0162 -0.0649
10614SOL    HW143061   0.949   0.933   5.234  0.0340  0.1601 -0.7426
10614SOL    HW243062   0.813   1.021   5.215 -0.8403 -0.8941  0.5456
10615SOL     OW43063   7.338   0.495   0.980  0.1363 -0.2483 -0.3212
10615SOL    HW143064   7.423   0.452   1.010  0.7551  0.1151 -1.4964
10615SOL    HW243065   7.332   0.489   0.880 -0.9013  0.3163 -0.2956
10616SOL     OW43066   2.705   5.171   1.873  0.5801 -0.2970 -0.4834
10616SOL    HW143067   2.731   5.084   1.832 -2.6859 -1.4941 -0.2232
10616SOL    HW243068   2.707   5.163   1.973 -1.8339 -0.8250 -0.4450
10617SOL     OW43069   8.507   0.892   2.524 -0.4283  0.1925 -0.4189
10617SOL    HW143070   8.590   0.866   2.474  0.0353  1.0632 -0.1030
10617SOL    HW243071   8.478   0.817   2.583 -0.0122 -0.2086 -0.7246
10618SOL     OW43072   4.596   9.551   2.875  0.0990 -0.0568 -0.3345
10618SOL    HW143073   4.557   9.462   2.852  0.4769 -0.0782 -0.9103
10618SOL    HW243074   4.678   9.538   2.931 -0.1488 -0.0526  0.0261
10619SOL     OW43075   7.903   1.028   3.488  0.0015  0.7249 -0.1217
10619SOL    HW143076   7.865   0.973   3.563 -0.0152  1.4882  0.4375
10619SOL    HW243077   7.983   0.983   3.451 -0.7953 -0.3450 -0.5587
10620SOL     OW43078   2.274   9.901   0.119 -0.1375  0.6982  0.0887
10620SOL    HW143079   2.307   9.884   0.026 -1.2415  0.4946 -0.2828
10620SOL    HW243080   2.302   9.826   0.179 -0.7738  0.0179 -0.4464
10621SOL     OW43081   0.607   0.176   0.882  0.4237 -0.7216 -0.5332
10621SOL    HW143082   0.579   0.114   0.955 -1.6953  0.0209 -0.6835
10621SOL    HW243083   0.604   0.270   0.915  0.5159 -0.4638 -1.2528
10622SOL     OW43084   0.832   5.217   4.615 -0.2053 -0.5348 -0.3370
10622SOL    HW143085   0.845   5.118   4.625  1.7600 -0.4285 -1.6402
10622SOL    HW243086   0.741   5.235   4.579  0.0821 -1.9961 -1.8478
10623SOL     OW43087   5.452   2.434   4.152 -0.2955  0.4105  0.2781
10623SOL    HW143088   5.420   2.483   4.071 -0.7004  0.4414  0.4559
10623SOL    HW243089   5.483   2.343   4.127 -1.7333 -0.0949  0.2961
10624SOL     OW43090   2.401   2.164   4.212 -0.2157  0.0412  0.2856
10624SOL    HW143091   2.441   2.133   4.125  2.3339  1.8932  0.7461
10624SOL    HW243092   2.380   2.261   4.206 -2.5159 -0.3973  0.8761
10625SOL     OW43093   0.002   7.138   5.678  0.2595 -0.1183  0.1562
10625SOL    HW143094   0.077   7.201   5.660 -0.3013  0.3302 -0.6772
10625SOL    HW243095  -0.017   7.083   5.596 -0.6830  0.1685  0.1704
10626SOL     OW43096   3.393   7.839   1.665 -0.2116 -0.4273  0.7023
10626SOL    HW143097   3.432   7.913   1.720 -0.8832 -0.6477  1.4910
10626SOL    HW243098   3.353   7.770   1.726 -1.8252 -0.2035 -0.0915
10627SOL     OW43099   0.732   2.731   5.059 -0.2471  0.3326  0.4633
10627SOL    HW143100   0.668   2.718   5.136  1.5159 -0.1786  1.8748
10627SOL    HW243101   0.819   2.766   5.094  0.5173  0.2458 -1.3383
10628SOL     OW43102   8.701   7.178   4.130  0.1389 -0.3838 -0.3605
10628SOL    HW143103   8.782   7.191   4.073  0.5087 -3.6026 -0.6622
10628SOL    HW243104   8.720   7.210   4.223  0.0942  3.3261 -1.5580
10629SOL     OW43105   8.160   9.959   4.856 -0.1045  0.1819  0.1091
10629SOL    HW143106   8.179  10.008   4.941  1.6271  0.0725 -0.1934
10629SOL    HW243107   8.233   9.977   4.789  1.8705 -4.5097  0.7393
10630SOL     OW43108   0.529   1.016   0.519  0.3018 -0.2290  0.3594
10630SOL    HW143109   0.622   1.052   0.502 -0.1675  0.8548 -0.0053
10630SOL    HW243110   0.482   1.077   0.582 -0.3220 -0.5165  0.1668
10631SOL     OW43111   0.160   6.758   2.970 -0.0204 -0.3357 -0.5566
10631SOL    HW143112   0.254   6.770   3.000 -0.7540 -1.0543  2.1886
10631SOL    HW243113   0.150   6.667   2.929  0.3972 -0.4129 -0.4888
10632SOL     OW43114   5.164   2.261   3.348 -0.1833  0.0504 -0.0296
10632SOL    HW143115   5.113   2.207   3.281  0.8061 -1.1610  0.1590
10632SOL    HW243116   5.107   2.279   3.428 -0.1853 -1.6479  0.3640
10633SOL     OW43117   4.100   1.375   3.128 -0.0667  0.2034  0.1697
10633SOL    HW143118   4.068   1.381   3.033  0.3040 -1.2653 -0.0747
10633SOL    HW243119   4.030   1.332   3.184 -0.0734  0.5793  0.4488
10634SOL     OW43120   2.709   0.440   5.313  0.0786  0.1547  0.3788
10634SOL    HW143121   2.758   0.416   5.229 -0.5188  0.8273 -0.1674
10634SOL    HW243122   2.767   0.420   5.392  1.4539  1.4677 -0.2867
10635SOL     OW43123   1.733   7.250   3.429  0.1827  0.4426  0.7035
10635SOL    HW143124   1.708   7.317   3.499 -0.4375  1.7161 -0.7185
10635SOL    HW243125   1.651   7.223   3.378  0.7693  0.1987 -0.1176
10636SOL     OW43126   9.908   1.558   3.059  0.2199  0.7346  0.2813
10636SOL    HW143127   9.850   1.612   3.120  0.6664 -0.5073  1.8492
10636SOL    HW243128   9.938   1.475   3.106  0.1154 -0.5531 -1.8218
10637SOL     OW43129   7.587   9.967   2.894 -0.2592  0.0159 -0.2829
10637SOL    HW143130   7.549   9.880   2.864  1.0156 -0.6367 -0.0673
10637SOL    HW243131   7.645  10.005   2.822  1.5252 -0.7757  0.6734
10638SOL     OW43132   2.147   1.024   3.524  0.1830 -0.5272  0.1450
10638SOL    HW143133   2.218   1.027   3.594 -0.4817 -0.6473  0.8354
10638SOL    HW243134   2.156   0.941   3.470  1.6704  0.3302 -0.9513
10639SOL     OW43135   1.479   4.022   2.363  0.0822 -0.5846 -0.0789
10639SOL    HW143136   1.461   4.111   2.404  0.1531 -0.6580  0.1138
10639SOL    HW243137   1.395   3.987   2.320 -0.6507 -1.5831  2.0837
10640SOL     OW43138   2.050   5.488   1.877 -0.2583  0.8659  0.0709
10640SOL    HW143139   1.952   5.471   1.890  0.4029 -1.8179  2.0721
10640SOL    HW243140   2.081   5.556   1.944 -0.3433  0.1240  0.8705
10641SOL     OW43141   0.915   5.137   6.547 -0.6814 -0.2523  0.2889
10641SOL    HW143142   0.825   5.166   6.515 -0.4525 -1.1935 -1.2630
10641SOL    HW243143   0.916   5.037   6.557 -0.0347 -0.1807  1.0565
10642SOL     OW43144   6.969   9.467   4.824 -0.2104  0.4750  0.6090
10642SOL    HW143145   7.060   9.462   4.864 -0.3175  0.7146  0.8779
10642SOL    HW243146   6.977   9.483   4.725  0.0192  1.5510  0.8030
10643SOL     OW43147   0.780   2.064   0.853  0.2262 -0.0198  0.2086
10643SOL    HW143148   0.685   2.074   0.821  0.0473 -1.8174  0.1349
10643SOL    HW243149   0.802   1.967   0.861  1.9356  0.3964  0.6443
10644SOL     OW43150   3.193   9.116   2.870  0.5517 -0.8143 -0.5612
10644SOL    HW143151   3.121   9.182   2.846  0.6111 -0.3608  0.5131
10644SOL    HW243152   3.164   9.061   2.948  2.3757  1.0710  1.5047
10645SOL     OW43153   9.915   0.548   4.479  0.0911  0.5125  0.1373
10645SOL    HW143154   9.888   0.620   4.415 -1.0783  1.5813  1.8032
10645SOL    HW243155   9.864   0.464   4.459 -0.3519  0.8769 -0.2620
10646SOL     OW43156   9.525   3.177   6.218 -0.3885 -0.4996 -0.3350
10646SOL    HW143157   9.505   3.185   6.121  1.9533 -2.5981 -1.0349
10646SOL    HW243158   9.549   3.268   6.255 -0.7890  0.2156 -1.8249
10647SOL     OW43159   6.948   0.161   5.676 -0.5439  0.1465 -0.0486
10647SOL    HW143160   6.857   0.129   5.650 -0.0459 -2.6846  1.5611
10647SOL    HW243161   7.017   0.106   5.629  0.3395  0.5235  0.8082
10648SOL     OW43162   7.819   2.665   0.093  0.1150  0.6769  0.2761
10648SOL    HW143163   7.907   2.697   0.129  0.5091 -0.2157  0.1268
10648SOL    HW243164   7.827   2.651  -0.006 -0.3788  1.1784  0.1616
10649SOL     OW43165   8.811   3.363   1.804 -0.1113  0.1124  0.5660
10649SOL    HW143166   8.798   3.328   1.712 -0.6679 -2.1079  1.4595
10649SOL    HW243167   8.908   3.359   1.828 -0.1272 -0.4782  0.5318
10650SOL     OW43168   9.940   4.512   3.535 -0.4789 -0.1755  0.6194
10650SOL    HW143169   9.844   4.514   3.564 -0.1441 -2.9844  2.0724
10650SOL    HW243170   9.966   4.419   3.512  2.6134  0.0954  2.6872
10651SOL     OW43171   8.994   7.470   2.305  0.8800 -0.6623  0.0731
10651SOL    HW143172   9.047   7.385   2.313  2.2956  0.2089  0.2395
10651SOL    HW243173   9.043   7.543   2.352 -0.4135  0.2179  0.0717
10652SOL     OW43174   5.024   8.230   3.840 -0.4145  0.1745  0.1913
10652SOL    HW143175   4.966   8.166   3.789 -1.5643  1.3443  0.0066
10652SOL    HW243176   5.015   8.212   3.938  0.8360 -1.2557  0.0699
10653SOL     OW43177   3.254   1.845   5.574  0.8262 -0.1495 -0.9333
10653SOL    HW143178   3.255   1.806   5.666 -0.4905  0.9651 -0.4365
10653SOL    HW243179   3.177   1.809   5.523 -0.0600  1.3191 -0.6676
10654SOL     OW43180   1.526   6.087   5.115 -0.1364  0.0117 -0.2134
10654SOL    HW143181   1.466   6.149   5.165 -0.2577 -1.2617  1.2557
10654SOL    HW243182   1.507   6.094   5.017 -1.5826  0.7689  0.1105
10655SOL     OW43183   1.979   8.015   5.100  0.0156  0.3081 -0.1492
10655SOL    HW143184   1.911   8.078   5.138  0.9556 -0.3856  2.7805
10655SOL    HW243185   2.062   8.018   5.155  1.6081 -0.4625 -2.4339
10656SOL     OW43186   1.610   8.642   2.172  0.0453  0.6062 -0.0400
10656SOL    HW143187   1.528   8.611   2.124  1.4336 -1.0209 -1.4111
10656SOL    HW243188   1.645   8.724   2.127  0.6889 -0.2560 -1.1423
10657SOL     OW43189   0.083   8.586   4.099 -0.4520 -0.2457  0.4987
10657SOL    HW143190   0.137   8.587   4.183 -0.3744 -0.5113  0.4530
10657SOL    HW243191   0.033   8.672   4.091  0.4654  0.2753  0.2157
10658SOL     OW43192   0.054   8.216   5.448  0.0011  0.3968 -0.3387
10658SOL    HW143193   0.001   8.138   5.481  2.7486 -0.3816  2.4867
10658SOL    HW243194   0.012   8.301   5.481 -0.9994 -0.0665 -0.4068
10659SOL     OW43195   9.974   5.189   1.151  0.6412 -0.5019 -0.5247
10659SOL    HW143196  10.035   5.253   1.105  2.2866 -0.0356  2.2127
10659SOL    HW243197  10.028   5.125   1.206 -1.2547 -1.1397  0.6356
10660SOL     OW43198   4.288   5.285   2.353  0.0281  0.3521 -0.2981
10660SOL    HW143199   4.225   5.208   2.346 -0.9191  0.9438  1.3435
10660SOL    HW243200   4.240   5.369   2.327  0.2895  0.7321  0.4313
10661SOL     OW43201   9.015   0.946   2.427 -0.4837 -0.4834  0.3777
10661SOL    HW143202   9.052   0.902   2.345 -0.1726  0.6403 -0.0933
10661SOL    HW243203   8.936   1.002   2.402 -0.0099  0.3600  0.7452
10662SOL     OW43204   6.074   8.763   5.832  0.0044 -0.0372 -0.1583
10662SOL    HW143205   6.130   8.846   5.831  0.7228 -0.4982  0.7189
10662SOL    HW243206   5.978   8.787   5.825  0.2104  0.8656  0.0300
10663SOL     OW43207   7.004   9.103   5.975 -0.4380 -0.3339 -0.2105
10663SOL    HW143208   6.977   9.194   6.008  0.6881 -0.0012 -0.1858
10663SOL    HW243209   6.964   9.033   6.034 -0.3310  0.1808  0.4731
10664SOL     OW43210   7.429   8.528   5.745 -0.7829  0.4018  0.3522
10664SOL    HW143211   7.481   8.586   5.808 -0.3523 -2.5916  2.8304
10664SOL    HW243212   7.333   8.523   5.775 -0.6859 -0.6524  0.4888
10665SOL     OW43213   4.133   3.786   5.004  0.2955  0.2721  0.0550
10665SOL    HW143214   4.203   3.856   4.985  0.3340  0.3150  0.3581
10665SOL    HW243215   4.178   3.702   5.034  0.3138 -0.2079 -1.2727
10666SOL     OW43216   1.832   5.702   2.987 -0.4830 -0.1294 -0.3516
10666SOL    HW143217   1.912   5.659   2.945 -0.9939 -1.3200 -0.1214
10666SOL    HW243218   1.749   5.661   2.950 -0.9818  0.6998 -0.1552
10667SOL     OW43219   0.533   8.456   0.400 -0.3302 -0.1341  0.0165
10667SOL    HW143220   0.546   8.554   0.384 -0.2684 -0.2892 -0.8951
10667SOL    HW243221   0.540   8.438   0.498  2.7233  0.3403 -0.0389
10668SOL     OW43222   8.799   4.337   3.581 -0.0467 -0.0102 -0.2580
10668SOL    HW143223   8.784   4.240   3.563 -1.2375  0.0667  0.2277
10668SOL    HW243224   8.747   4.392   3.517 -1.3911  0.2784  1.0466
10669SOL     OW43225   2.688   9.422   4.937 -0.3490  0.3278 -0.1039
10669SOL    HW143226   2.748   9.457   5.010 -1.1606 -2.0429  1.7587
10669SOL    HW243227   2.595   9.456   4.952 -0.5116 -0.1445 -0.0352
10670SOL     OW43228   8.738   4.079   3.562 -0.7246 -0.5862  0.7661
10670SOL    HW143229   8.779   4.022   3.633 -1.0207 -0.2337  1.2270
10670SOL    HW243230   8.653   4.037   3.530  0.0812 -1.4087 -0.3193
10671SOL     OW43231   4.711   7.991   2.975  0.7036  0.7059  0.1441
10671SOL    HW143232   4.701   8.034   3.065 -2.2720  1.7867 -0.6320
10671SOL    HW243233   4.698   7.892   2.984 -1.7228  1.0345  0.6432
10672SOL     OW43234   3.281   9.908   5.727 -0.3411 -0.2624  0.3111
10672SOL    HW143235   3.305   9.907   5.824 -0.7815 -0.4350  0.4220
10672SOL    HW243236   3.361   9.933   5.672  0.2228 -1.3388  0.6264
10673SOL     OW43237   4.151   3.508   3.656 -0.3898 -0.3227 -0.8716
10673SOL    HW143238   4.126   3.495   3.752  0.1159 -0.5809 -0.7736
10673SOL    HW243239   4.177   3.420   3.616 -0.4365 -0.1882 -1.2025
10674SOL     OW43240   1.189   8.106   3.510  0.2379  0.6677  0.0359
10674SOL    HW143241   1.283   8.084   3.484  0.3964  1.7174 -0.3096
10674SOL    HW243242   1.128   8.033   3.481  0.9976 -0.2182  0.6242
10675SOL     OW43243   5.056   7.781   4.991 -0.0922  0.5670  0.0176
10675SOL    HW143244   5.139   7.825   4.956 -0.5048  1.3220 -0.0206
10675SOL    HW243245   5.074   7.746   5.084  0.2152  0.8792  0.0778
10676SOL     OW43246   7.700   0.489   3.016  0.0455  0.2485 -0.6365
10676SOL    HW143247   7.753   0.569   3.045 -1.6959  0.5368  1.9148
10676SOL    HW243248   7.704   0.419   3.088 -2.3047 -0.0725 -0.7966
10677SOL     OW43249   1.479   4.841   2.768 -0.6004  0.0977 -0.0846
10677SOL    HW143250   1.573   4.818   2.792 -0.3504  0.4605 -0.7238
10677SOL    HW243251   1.466   4.940   2.770 -0.9770  0.0488  0.0340
10678SOL     OW43252   7.999   8.467   5.202  0.0044  0.2328 -0.2621
10678SOL    HW143253   8.092   8.450   5.236 -0.2928  1.0618  0.9828
10678SOL    HW243254   7.957   8.381   5.175  0.7512 -0.2768  0.1737
10679SOL     OW43255   1.747   6.397   0.782 -0.0752  0.2696 -0.5485
10679SOL    HW143256   1.705   6.479   0.743  2.2005  1.7372 -0.0593
10679SOL    HW243257   1.728   6.393   0.880  1.9111  1.6728 -0.0512
10680SOL     OW43258   9.923   1.151   0.014 -0.7757  0.3263 -0.8893
10680SOL    HW143259   9.931   1.061   0.057  1.5251  0.1010 -1.7140
10680SOL    HW243260   9.992   1.212   0.051 -0.6363  0.9860 -2.2019
10681SOL     OW43261   8.305   3.514   0.564  0.5076  0.0046 -0.1992
10681SOL    HW143262   8.250   3.552   0.490  1.9047  2.2866 -0.0829
10681SOL    HW243263   8.264   3.539   0.652  0.0011 -0.9623 -0.1508
10682SOL     OW43264   6.638   9.975   5.053  0.5154  0.5749  0.8405
10682SOL    HW143265   6.586   9.993   5.137  0.6151 -1.0853  1.2858
10682SOL    HW243266   6.727   9.937   5.077 -0.0114 -1.2695 -0.0204
10683SOL     OW43267   7.356   9.485   4.042 -0.2555  0.4951  0.2880
10683SOL    HW143268   7.440   9.500   3.990  0.2481  1.2183  1.2856
10683SOL    HW243269   7.343   9.561   4.107 -2.1330  0.8319 -0.4463
10684SOL     OW43270   9.847   3.321   3.930 -0.3436  0.9138  0.2915
10684SOL    HW143271   9.862   3.419   3.936 -1.0630  1.2828 -2.9966
10684SOL    HW243272   9.905   3.282   3.858 -2.6713 -0.4251 -0.9327
10685SOL     OW43273   6.897   8.211   3.287 -0.3048  0.1809 -0.1954
10685SOL    HW143274   6.981   8.160   3.267  0.0257  1.7006 -3.0420
10685SOL    HW243275   6.921   8.297   3.333 -0.3382  0.4308 -0.6446
10686SOL     OW43276   3.898   6.904   1.713 -0.5142 -0.1346 -0.5156
10686SOL    HW143277   3.991   6.908   1.749 -0.7076 -1.8809  0.2312
10686SOL    HW243278   3.901   6.900   1.613  0.1318  1.6642 -0.5861
10687SOL     OW43279   9.631   7.309   0.634  0.1251  0.2461 -0.1439
10687SOL    HW143280   9.613   7.230   0.693  1.2492  0.3962  0.4207
10687SOL    HW243281   9.555   7.373   0.640 -0.9843 -0.9546 -0.9052
10688SOL     OW43282   0.763   8.323   1.139 -0.4867  0.2951  0.0511
10688SOL    HW143283   0.676   8.275   1.148 -0.5378  0.4629  0.4747
10688SOL    HW243284   0.827   8.268   1.086 -1.2811  0.7264 -1.3872
10689SOL     OW43285   8.458   9.108   4.180  0.3100  0.0023  0.1759
10689SOL    HW143286   8.472   9.117   4.278 -1.9203 -0.9741  0.6010
10689SOL    HW243287   8.424   9.195   4.143 -0.0136  0.0074  0.4827
10690SOL     OW43288   2.936   5.551   5.035  0.2105  0.2818 -0.0829
10690SOL    HW143289   2.969   5.505   5.117  0.9790  0.0756 -0.5069
10690SOL    HW243290   2.877   5.628   5.062  2.6400  1.9284  0.7623
10691SOL     OW43291   3.753   3.662   5.253 -0.2003  0.0175  0.0396
10691SOL    HW143292   3.790   3.653   5.346 -0.4282  1.5990  0.3012
10691SOL    HW243293   3.787   3.747   5.212  1.3525 -1.5506 -2.0105
10692SOL     OW43294   2.287   5.894   6.502  0.6232  0.0591 -0.1267
10692SOL    HW143295   2.350   5.817   6.504  0.5705 -0.0691 -2.2162
10692SOL    HW243296   2.338   5.977   6.478  0.1015  0.0397 -1.3406
10693SOL     OW43297   0.759   7.356   1.810 -0.2241 -0.6336  0.3811
10693SOL    HW143298   0.852   7.388   1.791 -0.3125  1.3059  3.0892
10693SOL    HW243299   0.696   7.396   1.743  0.3514  1.0688  0.8444
10694SOL     OW43300   1.834   3.383   3.630 -0.1624  0.0531 -0.5947
10694SOL    HW143301   1.915   3.377   3.688  1.2794  1.9401 -2.3470
10694SOL    HW243302   1.758   3.423   3.682  0.4552 -0.3074  0.6100
10695SOL     OW43303   9.178   3.513   0.826 -0.2604  0.2137 -0.0344
10695SOL    HW143304   9.270   3.551   0.831  0.6327 -1.7674 -0.9384
10695SOL    HW243305   9.117   3.579   0.780  0.6548  1.5770  0.6800
10696SOL     OW43306   0.048   7.245   6.041 -0.0394 -0.0330 -0.3088
10696SOL    HW143307   0.044   7.324   6.102 -1.2932  0.2760 -0.7598
10696SOL    HW243308   0.049   7.276   5.946 -0.7910 -0.5425 -0.4945
10697SOL     OW43309   2.950   1.266   5.910  0.3325  0.0536  0.5026
10697SOL    HW143310   2.927   1.185   5.857  0.5705  1.2950 -1.5422
10697SOL    HW243311   2.902   1.346   5.873  3.4672  1.6455 -0.3256
10698SOL     OW43312   0.640   8.190   4.851 -0.0882  0.2724 -0.2666
10698SOL    HW143313   0.727   8.233   4.873 -1.3074  1.7906  1.8283
10698SOL    HW243314   0.617   8.123   4.922  0.2709 -1.5509 -1.8319
10699SOL     OW43315   5.407   0.330   0.696 -0.5157 -0.5583  0.7194
10699SOL    HW143316   5.468   0.406   0.718 -0.3184 -0.3312 -0.5749
10699SOL    HW243317   5.320   0.366   0.664 -0.2670 -0.8595 -0.3260
10700SOL     OW43318   0.291   3.529   4.757 -0.4777 -0.4181 -0.3048
10700SOL    HW143319   0.322   3.476   4.678 -0.6377  0.1127 -0.7270
10700SOL    HW243320   0.310   3.626   4.741  0.0221 -0.3742  0.5611
10701SOL     OW43321   3.912   5.659   2.322 -0.1215  0.0057 -0.0371
10701SOL    HW143322   3.896   5.635   2.226  0.3062  1.2040 -0.4258
10701SOL    HW243323   3.922   5.759   2.329  0.8735 -0.1688  1.1048
10702SOL     OW43324   1.105   0.729   1.698  0.5480  0.3437  0.6783
10702SOL    HW143325   1.074   0.680   1.780  1.0326  0.4732  0.9349
10702SOL    HW243326   1.171   0.673   1.648 -0.8648 -0.3793 -0.4303
10703SOL     OW43327   3.988   3.999   2.149 -0.3490  0.1404 -0.0621
10703SOL    HW143328   4.086   4.010   2.138  0.0241 -2.2236  0.7624
10703SOL    HW243329   3.962   4.024   2.242 -0.5186  0.5716 -0.2208
10704SOL     OW43330   7.851   9.290   4.368  0.2768 -0.0940  0.5452
10704SOL    HW143331   7.819   9.230   4.442 -1.0943  0.4936  0.4351
10704SOL    HW243332   7.774   9.316   4.311  1.0114  1.0975  0.0903
10705SOL     OW43333   5.113   2.036   2.362 -0.0029 -0.1369 -0.1090
10705SOL    HW143334   5.130   2.016   2.266 -1.7027 -1.6970 -0.1188
10705SOL    HW243335   5.128   1.953   2.416 -0.5362  0.3272  0.7713
10706SOL     OW43336   2.632   5.960   4.565  0.1954  0.4024  0.0064
10706SOL    HW143337   2.669   5.973   4.474  2.2162  1.3058  0.9213
10706SOL    HW243338   2.588   6.044   4.596 -2.4455 -0.5914 -0.9780
10707SOL     OW43339   2.969   4.697   3.093  0.0685  0.0997  0.3435
10707SOL    HW143340   2.963   4.660   3.001 -0.3499  1.8805 -0.3797
10707SOL    HW243341   3.047   4.656   3.141  0.9498 -0.0522 -1.1778
10708SOL     OW43342   6.398   0.978   3.261  0.0093  0.1385 -0.0387
10708SOL    HW143343   6.352   0.997   3.348 -0.8713 -0.2004 -0.4269
10708SOL    HW243344   6.332   0.940   3.196  1.2899 -2.3199  0.0486
10709SOL     OW43345   2.432   8.407   4.379  0.1011  0.3731  0.0564
10709SOL    HW143346   2.370   8.382   4.453  0.2357 -0.0148  0.0401
10709SOL    HW243347   2.381   8.451   4.305  0.0480  1.2682  0.6212
10710SOL     OW43348   2.953   1.926   1.466 -0.1019 -0.3795 -0.2295
10710SOL    HW143349   3.008   1.936   1.549 -0.0038 -0.2481 -0.3108
10710SOL    HW243350   2.973   1.838   1.423  3.0372  1.3012 -2.4417
10711SOL     OW43351   3.831   7.436   4.284  0.0123 -0.6197  0.8185
10711SOL    HW143352   3.790   7.480   4.204 -0.1013 -2.1243  0.0230
10711SOL    HW243353   3.902   7.494   4.322  0.0532  0.1206 -0.3737
10712SOL     OW43354   5.654   1.530   4.226 -0.2161 -0.1864  0.3922
10712SOL    HW143355   5.588   1.569   4.162 -1.0618 -0.7550  0.9143
10712SOL    HW243356   5.654   1.583   4.311 -0.5566 -0.6538  0.6814
10713SOL     OW43357   8.424   4.878   0.923 -0.2637 -0.3938 -0.1232
10713SOL    HW143358   8.442   4.819   1.002 -2.2899 -0.1923  0.5148
10713SOL    HW243359   8.355   4.947   0.948 -0.3542  0.1505 -1.8458
10714SOL     OW43360   1.307   0.934   5.777  1.0039  0.3426 -0.4663
10714SOL    HW143361   1.295   0.884   5.863 -0.4793 -0.4696 -1.1249
10714SOL    HW243362   1.275   1.028   5.789  0.5912  0.1704 -0.1872
10715SOL     OW43363   8.240   3.966   3.634  0.5825 -0.6431 -0.0109
10715SOL    HW143364   8.140   3.966   3.640  0.6457 -2.4777  1.0428
10715SOL    HW243365   8.279   3.975   3.725  1.3982  1.5204 -0.5441
10716SOL     OW43366   0.699   4.789   5.663  0.2969 -0.2914 -0.2550
10716SOL    HW143367   0.685   4.723   5.589 -0.6081  0.4411 -0.7413
10716SOL    HW243368   0.626   4.857   5.661  0.8959  0.3772  0.6182
10717SOL     OW43369   0.169   4.321   5.300  0.3345  0.2764  0.0736
10717SOL    HW143370   0.117   4.263   5.237 -0.4246  0.5910  0.4094
10717SOL    HW243371   0.118   4.405   5.319  1.2432  0.8708 -0.0804
10718SOL     OW43372   8.702   3.960   6.139 -0.4846  0.0309  0.1288
10718SOL    HW143373   8.603   3.949   6.128 -0.6708  0.3522  1.4025
10718SOL    HW243374   8.722   4.003   6.227  0.8791 -1.5491  0.6194
10719SOL     OW43375   3.984   8.325   6.113 -0.5005 -0.8140  0.2453
10719SOL    HW143376   3.960   8.249   6.172 -0.0342  0.7198  2.4693
10719SOL    HW243377   4.081   8.321   6.089 -0.9488 -2.0884 -1.4164
10720SOL     OW43378   2.330   2.246   5.483 -0.1889  0.3711  0.2243
10720SOL    HW143379   2.403   2.280   5.543  0.6001 -2.5584  1.0076
10720SOL    HW243380   2.368   2.181   5.418 -2.2666 -2.2787  1.5557
10721SOL     OW43381   9.283   0.061   4.957  0.3932  0.3355 -0.0533
10721SOL    HW143382   9.294   0.081   5.054 -2.6368  4.6291 -0.4722
10721SOL    HW243383   9.196   0.014   4.942  0.0405  1.2328 -0.8608
10722SOL     OW43384   2.472   8.520   3.046  0.3314  0.2408  0.1419
10722SOL    HW143385   2.408   8.508   2.970  1.2372 -1.4409 -0.3894
10722SOL    HW243386   2.426   8.499   3.132 -1.1367  3.6445  0.2686
10723SOL     OW43387   5.451   8.193   2.844  0.1283 -0.4018  0.0124
10723SOL    HW143388   5.459   8.097   2.871 -1.3964 -0.4234  0.4145
10723SOL    HW243389   5.414   8.246   2.920  0.0273  0.3357 -0.5536
10724SOL     OW43390   1.618   9.981   5.254  0.2901  0.1181 -0.3285
10724SOL    HW143391   1.657   9.921   5.184 -1.6130 -1.3330 -0.1567
10724SOL    HW243392   1.586   9.927   5.331 -1.5368  1.3224 -0.2081
10725SOL     OW43393   2.803   5.525   1.061 -0.1822 -0.0908  0.1904
10725SOL    HW143394   2.703   5.533   1.069 -0.2702  0.9852 -1.6716
10725SOL    HW243395   2.833   5.573   0.979  2.1593  1.7634  2.0694
10726SOL     OW43396   8.676   5.383   5.501 -0.2431 -0.1078 -0.3847
10726SOL    HW143397   8.629   5.325   5.568  3.1941 -0.3005  2.0095
10726SOL    HW243398   8.680   5.336   5.413  0.7575 -2.7449  1.0058
10727SOL     OW43399   5.801   0.668   5.308  0.1137 -0.0116 -0.1326
10727SOL    HW143400   5.869   0.740   5.316  0.3860 -0.0159 -2.2077
10727SOL    HW243401   5.752   0.659   5.395  0.3288  2.4056  0.2804
10728SOL     OW43402   9.995   7.330   1.575 -0.2968  0.2215  0.3404
10728SOL    HW143403   9.959   7.284   1.493  1.2955  0.8573 -0.7392
10728SOL    HW243404   9.936   7.407   1.599 -1.0562 -0.2784  0.1000
10729SOL     OW43405   9.598   7.354   6.217  0.8306 -0.0369 -0.0312
10729SOL    HW143406   9.624   7.439   6.172  0.9133  0.5834  1.1877
10729SOL    HW243407   9.591   7.281   6.148  2.4918  0.5406 -0.8315
10730SOL     OW43408   4.670   0.230   1.151 -0.0068  0.1306 -0.2180
10730SOL    HW143409   4.639   0.137   1.172 -0.8904  0.3261 -0.6158
10730SOL    HW243410   4.704   0.233   1.057 -1.6657  0.5988 -0.8301
10731SOL     OW43411   2.368   5.371   6.277 -0.3803 -0.0388 -0.0951
10731SOL    HW143412   2.286   5.428   6.273 -0.3359  0.1042  0.9380
10731SOL    HW243413   2.355   5.290   6.220 -0.8550  0.4775 -0.7215
10732SOL     OW43414   1.931   5.705   1.691 -0.2056  0.2258  0.3629
10732SOL    HW143415   1.985   5.628   1.658  0.0390  1.0105 -1.1215
10732SOL    HW243416   1.971   5.740   1.776  0.0807 -0.8411  0.6709
10733SOL     OW43417   6.418   0.513   5.311  0.2032 -0.3812  0.2185
10733SOL    HW143418   6.448   0.550   5.399  1.8404  0.4087 -0.6396
10733SOL    HW243419   6.376   0.585   5.256  0.2727 -0.5896 -0.1131
10734SOL     OW43420   7.927   1.395   0.935 -0.2308 -0.4600  0.5340
10734SOL    HW143421   7.876   1.355   1.011 -1.0816 -0.3866  0.0078
10734SOL    HW243422   7.936   1.328   0.861 -1.8018  0.3505 -0.4136
10735SOL     OW43423   4.223   7.310   5.138 -0.3510  0.2165  0.1071
10735SOL    HW143424   4.190   7.217   5.124 -0.4114 -0.0858  2.1320
10735SOL    HW243425   4.163   7.374   5.091 -0.1313 -0.7646 -1.5593
10736SOL     OW43426   4.614   7.122   1.792  0.2876 -0.7514  0.2807
10736SOL    HW143427   4.684   7.053   1.809  2.8156  1.9506  1.3114
10736SOL    HW243428   4.634   7.168   1.705 -0.8186 -0.6861  0.0579
10737SOL     OW43429   1.754   8.796   3.794 -0.0774  0.3663 -0.1432
10737SOL    HW143430   1.820   8.821   3.723  0.3939  1.8269  0.7735
10737SOL    HW243431   1.772   8.851   3.876 -1.5233 -0.2673  0.6061
10738SOL     OW43432   9.599   3.824   2.600  0.5104 -0.2544  0.1950
10738SOL    HW143433   9.538   3.871   2.664  0.2051  1.7137 -1.4630
10738SOL    HW243434   9.546   3.760   2.545 -0.0201  1.0311 -0.8445
10739SOL     OW43435   7.836   2.866   3.085 -0.2825 -0.4441 -0.5397
10739SOL    HW143436   7.924   2.879   3.041 -0.6382  0.6420 -0.9481
10739SOL    HW243437   7.836   2.779   3.136  0.6338 -0.9679 -1.4303
10740SOL     OW43438   8.660   0.677   0.981  0.2378  0.4034  0.2465
10740SOL    HW143439   8.672   0.773   0.960 -1.6437  1.3370  3.1462
10740SOL    HW243440   8.724   0.650   1.054  1.6596 -0.9086 -1.4346
10741SOL     OW43441   4.168   9.861   3.443  0.0501 -0.1767 -0.4119
10741SOL    HW143442   4.160   9.880   3.541 -0.2118 -2.4025  0.0216
10741SOL    HW243443   4.262   9.832   3.422 -0.2987 -1.2610 -0.5172
10742SOL     OW43444   3.074   9.078   2.400  0.0573  0.4257  0.1234
10742SOL    HW143445   3.051   9.175   2.395  1.1992  0.7803  1.3693
10742SOL    HW243446   3.014   9.034   2.468  0.3299  0.5171  0.4269
10743SOL     OW43447   9.832   9.426   5.425 -0.7405  0.0389  0.4046
10743SOL    HW143448   9.915   9.453   5.474 -0.3999  0.4427 -0.3830
10743SOL    HW243449   9.857   9.379   5.340 -1.3172 -0.2183  0.3721
10744SOL     OW43450   4.886   3.189   1.712  0.2491 -0.3532 -0.1499
10744SOL    HW143451   4.913   3.235   1.797 -1.3125  0.4318 -0.0524
10744SOL    HW243452   4.873   3.092   1.729 -0.8872 -0.0596  0.7382
10745SOL     OW43453   0.474   9.777   3.920 -0.0521 -0.0674  0.1062
10745SOL    HW143454   0.490   9.839   3.843 -1.6147  0.3147  0.0716
10745SOL    HW243455   0.484   9.683   3.889  0.0223  0.1018 -0.3983
10746SOL     OW43456   1.979   9.183   4.006  0.3623 -0.2227  0.2489
10746SOL    HW143457   2.050   9.253   4.019  1.1140 -0.5043 -2.1141
10746SOL    HW243458   1.890   9.220   4.034  0.9334  1.3253  0.0559
10747SOL     OW43459   0.570   2.703   5.862 -0.1741  0.2439 -0.1320
10747SOL    HW143460   0.475   2.722   5.884 -0.4426  0.4318 -1.4041
10747SOL    HW243461   0.619   2.790   5.850 -0.4031  0.1747 -1.7599
10748SOL     OW43462   2.888   2.409   5.061  0.2070 -0.2234 -0.3718
10748SOL    HW143463   2.971   2.360   5.086 -0.0003 -0.9596 -1.0936
10748SOL    HW243464   2.812   2.377   5.117  0.5772  1.0666  0.8883
10749SOL     OW43465   9.789   6.077   6.512 -0.1224  0.0826  0.5878
10749SOL    HW143466   9.870   6.049   6.562  0.5493 -1.0417 -1.0964
10749SOL    HW243467   9.720   6.005   6.516 -0.2679  0.2038  0.3385
10750SOL     OW43468   2.200   2.090   0.126 -0.2890  0.0680 -0.0262
10750SOL    HW143469   2.201   2.188   0.105  1.6167 -0.3615 -2.0925
10750SOL    HW243470   2.203   2.038   0.041  1.1943 -1.7761  1.1225
10751SOL     OW43471   5.437   4.861   6.471  0.1649  0.5369  0.4019
10751SOL    HW143472   5.381   4.780   6.484 -1.4361  1.5331 -0.1587
10751SOL    HW243473   5.493   4.850   6.389 -1.2739  0.6590 -0.6153
10752SOL     OW43474   4.646   2.279   4.491 -0.0291  0.0207 -0.1816
10752SOL    HW143475   4.554   2.245   4.471 -0.1441  0.1573  0.1115
10752SOL    HW243476   4.669   2.261   4.587 -0.4975  1.6760  0.2640
10753SOL     OW43477   1.861   2.235   0.583  0.4984 -0.2969  0.6926
10753SOL    HW143478   1.945   2.185   0.565 -0.0977 -1.4046  0.9047
10753SOL    HW243479   1.787   2.170   0.601 -0.2419  0.6718  1.2157
10754SOL     OW43480   5.599   1.496   2.255  0.0691 -0.0097 -0.0519
10754SOL    HW143481   5.590   1.396   2.253 -1.1009  0.1034 -0.6849
10754SOL    HW243482   5.577   1.529   2.346 -0.3659 -0.2556 -0.0650
10755SOL     OW43483   3.903   0.148   5.664 -0.2539  0.2095 -0.1537
10755SOL    HW143484   3.893   0.188   5.755  2.1096  0.0768  0.2001
10755SOL    HW243485   3.943   0.216   5.602  0.6379 -0.5363 -0.4106
10756SOL     OW43486   3.049   7.944   3.355  0.1666 -0.3311  0.4240
10756SOL    HW143487   2.952   7.924   3.343 -0.2754  1.3484  1.1228
10756SOL    HW243488   3.099   7.859   3.372 -1.0924 -1.2632 -0.4515
10757SOL     OW43489   9.480   8.537   2.114  0.4658 -0.0808 -0.5188
10757SOL    HW143490   9.393   8.492   2.092  0.7151 -0.1375 -1.4098
10757SOL    HW243491   9.554   8.492   2.064  0.7647  1.1138 -1.1759
10758SOL     OW43492   3.757   3.236   5.067 -0.0604 -0.1582  0.0454
10758SOL    HW143493   3.676   3.293   5.084 -0.5550 -0.5455 -0.9809
10758SOL    HW243494   3.729   3.143   5.044  0.7120 -0.5210  0.5410
10759SOL     OW43495   9.579   5.099   0.807  0.7592  0.2080 -0.0527
10759SOL    HW143496   9.609   5.004   0.805 -1.2451 -0.4851  1.1718
10759SOL    HW243497   9.615   5.143   0.890  0.9724  0.2583 -0.1738
10760SOL     OW43498   4.155   8.404   5.545 -0.2675  0.7568 -0.2543
10760SOL    HW143499   4.222   8.425   5.615 -1.6077 -0.2777  1.3720
10760SOL    HW243500   4.191   8.333   5.484  0.2776  0.4988  0.3630
10761SOL     OW43501   0.272   9.632   1.745  0.0571 -0.0642 -0.2696
10761SOL    HW143502   0.234   9.724   1.750 -1.2792 -0.5751 -0.8286
10761SOL    HW243503   0.221   9.571   1.806  1.1349 -0.3675  0.3323
10762SOL     OW43504   0.013   4.030   6.167  0.5572 -0.6610 -0.0236
10762SOL    HW143505   0.048   3.997   6.255 -1.7584 -0.1168  1.1533
10762SOL    HW243506   0.049   3.974   6.093  2.9312 -0.8260  1.2351
10763SOL     OW43507   6.401   9.900   1.888 -0.4702 -0.1843  0.2439
10763SOL    HW143508   6.459   9.961   1.942 -0.5528  1.3165 -1.3487
10763SOL    HW243509   6.342   9.848   1.950  2.2754 -1.5176  1.8964
10764SOL     OW43510   1.234   8.545   4.901  0.2827  0.2933 -0.3331
10764SOL    HW143511   1.326   8.509   4.914  0.7627  0.4687 -3.0539
10764SOL    HW243512   1.170   8.469   4.891  0.2533  0.1832  0.6015
10765SOL     OW43513   7.575   1.919   6.406 -0.1692 -0.1250  0.3474
10765SOL    HW143514   7.557   1.851   6.335 -1.0156  1.4412 -0.9711
10765SOL    HW243515   7.545   2.009   6.374  0.8340  0.8535  2.1053
10766SOL     OW43516   9.812   4.027   1.677 -0.1201 -0.1448  0.2823
10766SOL    HW143517   9.770   3.946   1.637  0.2378  0.0926 -0.5905
10766SOL    HW243518   9.911   4.015   1.681 -0.2090 -0.4174  1.6794
10767SOL     OW43519   0.114   0.689   6.433 -0.4336  0.6106  0.4872
10767SOL    HW143520   0.213   0.675   6.422 -0.8176 -0.7557 -1.4627
10767SOL    HW243521   0.085   0.657   6.523  0.8387  0.6875  0.9306
10768SOL     OW43522   3.379   0.065   3.013  0.2850 -0.4974  0.1087
10768SOL    HW143523   3.435   0.049   2.932  0.2522  0.0725 -0.0315
10768SOL    HW243524   3.298   0.117   2.988 -0.6896 -1.9615  0.1885
10769SOL     OW43525   8.172   1.496   3.757 -0.2600  0.1200  0.2922
10769SOL    HW143526   8.122   1.463   3.677 -0.7116 -1.5784  1.2395
10769SOL    HW243527   8.267   1.515   3.732 -0.8250  1.2509 -1.0233
10770SOL     OW43528   3.469   3.294   5.064 -0.4956  0.1701  0.3187
10770SOL    HW143529   3.452   3.223   4.995  0.7891 -0.2095  0.3791
10770SOL    HW243530   3.382   3.328   5.098 -1.1410 -1.1460  0.0459
10771SOL     OW43531   0.354   8.811   0.250 -0.1868 -0.8538  0.4705
10771SOL    HW143532   0.285   8.751   0.210 -2.4362  0.5627  2.1526
10771SOL    HW243533   0.346   8.903   0.212 -2.0007  0.3796  3.6362
10772SOL     OW43534   3.882   9.176   6.356 -0.4736 -0.3664  0.0065
10772SOL    HW143535   3.828   9.195   6.438  1.8693 -4.6421  2.7835
10772SOL    HW243536   3.870   9.080   6.331  1.8766 -0.0890 -2.3371
10773SOL     OW43537   5.370   9.561   6.144 -0.2785  0.1671 -0.0700
10773SOL    HW143538   5.408   9.561   6.051 -0.7636  0.2950 -0.2703
10773SOL    HW243539   5.370   9.467   6.179 -0.7107  0.0169 -0.4586
10774SOL     OW43540   2.046   1.783   3.149  0.1880  0.2427 -0.1633
10774SOL    HW143541   2.052   1.773   3.248 -0.2558 -2.0768 -0.3606
10774SOL    HW243542   2.137   1.772   3.108  0.0288 -0.9063 -0.2014
10775SOL     OW43543   3.312   0.551   6.105  0.0935  0.0174 -0.6305
10775SOL    HW143544   3.273   0.595   6.186  1.2100 -1.5045  0.7416
10775SOL    HW243545   3.239   0.504   6.055 -0.4174  0.0629  0.0567
10776SOL     OW43546   2.313   2.825   0.652 -0.3580 -0.2068 -0.0234
10776SOL    HW143547   2.375   2.903   0.660 -0.5541 -0.1589  1.0726
10776SOL    HW243548   2.266   2.829   0.564 -0.4262  0.9557  0.0590
10777SOL     OW43549   9.356   6.321   2.288 -0.1707  0.1876 -0.1464
10777SOL    HW143550   9.430   6.305   2.354  0.2062  0.1702 -0.5679
10777SOL    HW243551   9.334   6.234   2.242 -0.7699  0.0995  0.3096
10778SOL     OW43552   2.304   7.256   6.509  1.0924  1.1907 -0.0323
10778SOL    HW143553   2.264   7.218   6.426  1.3958  1.6953 -0.4137
10778SOL    HW243554   2.231   7.293   6.567  0.7770 -0.1134  0.4249
10779SOL     OW43555   8.246   0.011   5.785  0.1388 -0.2959  0.1395
10779SOL    HW143556   8.325   0.018   5.847 -0.7142  1.0164  1.0997
10779SOL    HW243557   8.174  -0.043   5.829 -0.0937 -0.1776 -0.0954
10780SOL     OW43558   3.727   8.627   2.446 -0.0570 -0.0131  0.0797
10780SOL    HW143559   3.722   8.590   2.539 -0.2524  2.3387  1.0529
10780SOL    HW243560   3.817   8.669   2.432 -0.0261 -0.3679 -0.8085
10781SOL     OW43561   8.450   2.558   4.153  0.3604 -0.1643 -0.1758
10781SOL    HW143562   8.403   2.645   4.169 -0.2520 -0.8217  1.9089
10781SOL    HW243563   8.396   2.503   4.089 -0.6080 -0.0327  0.5070
10782SOL     OW43564   3.906   9.210   0.511  0.0795  0.0803 -0.5397
10782SOL    HW143565   3.831   9.271   0.536 -0.5924 -0.5588 -0.9876
10782SOL    HW243566   3.917   9.209   0.411  0.7107  0.2014 -0.4759
10783SOL     OW43567   8.704   2.630   3.790 -0.3064 -0.0797  0.3324
10783SOL    HW143568   8.795   2.639   3.749 -0.2084 -0.3749  0.4756
10783SOL    HW243569   8.675   2.718   3.828 -0.1001  0.0271  0.2424
10784SOL     OW43570   3.058   1.138   2.176 -0.3913 -0.1010  0.3282
10784SOL    HW143571   3.010   1.202   2.235  0.3072 -0.2547  1.0830
10784SOL    HW243572   2.993   1.073   2.137 -0.8417 -0.0816  1.0355
10785SOL     OW43573   6.357   0.915   3.863 -0.6312 -0.4843  0.0594
10785SOL    HW143574   6.376   0.867   3.777 -2.7166  0.4190 -0.9341
10785SOL    HW243575   6.258   0.918   3.879 -0.5502  2.9662  0.3625
10786SOL     OW43576   9.380   9.113   2.063  0.0246  0.2603  0.3668
10786SOL    HW143577   9.401   9.041   2.129  0.2500  1.6929  1.9106
10786SOL    HW243578   9.447   9.111   1.989  0.5615 -0.5370  0.8640
10787SOL     OW43579   8.259   9.054   4.875  0.4815 -0.0560 -0.4021
10787SOL    HW143580   8.170   9.009   4.871 -0.1156  1.1265 -0.7019
10787SOL    HW243581   8.288   9.078   4.782  0.6991  0.3818 -0.2197
10788SOL     OW43582   0.189   8.808   5.290 -0.5459 -0.7129  0.0740
10788SOL    HW143583   0.126   8.877   5.255 -0.1314 -0.5465 -0.3492
10788SOL    HW243584   0.249   8.777   5.216 -1.4059 -2.2746  0.0007
10789SOL     OW43585   9.785   9.810   4.162  0.5526  0.1427 -0.6328
10789SOL    HW143586   9.775   9.735   4.096  1.8768  1.6519 -2.5824
10789SOL    HW243587   9.694   9.843   4.187  0.0233 -0.6795 -1.4123
10790SOL     OW43588   3.827   0.632   0.974 -0.1575 -0.2753 -0.2936
10790SOL    HW143589   3.864   0.583   0.896 -2.9862 -1.6112 -0.8681
10790SOL    HW243590   3.854   0.586   1.059  0.4354 -0.5682 -0.6449
10791SOL     OW43591   6.374   8.167   2.999 -0.2686  1.0022  0.2256
10791SOL    HW143592   6.365   8.122   3.088  0.6579 -0.6415 -0.4854
10791SOL    HW243593   6.283   8.191   2.965 -0.7800 -0.1827  0.7140
10792SOL     OW43594   3.916   0.103   4.582 -0.4116 -0.0872 -0.0810
10792SOL    HW143595   3.941   0.016   4.624  1.3379  0.0941 -0.6954
10792SOL    HW243596   3.901   0.090   4.484  0.1480  0.3476 -0.2286
10793SOL     OW43597   3.939   9.172   0.047 -0.1823  0.3556  0.1727
10793SOL    HW143598   3.947   9.133   0.138 -2.9502  0.6942  0.5975
10793SOL    HW243599   3.976   9.265   0.047  0.1283  0.2350  0.8457
10794SOL     OW43600   8.451   2.997   5.283  0.3455 -0.0267  0.1391
10794SOL    HW143601   8.530   2.970   5.229  0.4286 -0.4790  0.4809
10794SOL    HW243602   8.413   2.917   5.329  0.6550  0.4446  1.2418
10795SOL     OW43603   7.325   1.137   4.904  0.2328  0.6363  0.2050
10795SOL    HW143604   7.281   1.062   4.855  0.6928  0.6591 -0.2366
10795SOL    HW243605   7.265   1.168   4.978 -0.3651  0.4662 -0.2097
10796SOL     OW43606   2.583   1.441   6.598  0.0768 -0.0512  0.1339
10796SOL    HW143607   2.550   1.485   6.515  1.1542  0.1804 -0.1788
10796SOL    HW243608   2.683   1.442   6.599  0.0869 -1.0839  0.8778
10797SOL     OW43609   1.358   8.136   2.967 -0.1933 -0.2132 -0.1106
10797SOL    HW143610   1.392   8.230   2.975 -1.8229  0.6394 -2.7028
10797SOL    HW243611   1.258   8.135   2.980 -0.0382 -1.7960  1.1885
10798SOL     OW43612   1.100   4.952   3.787  0.4255  0.0850  0.6304
10798SOL    HW143613   1.183   4.970   3.839  0.2755  0.6978  0.6703
10798SOL    HW243614   1.027   5.013   3.820 -0.1870 -0.8205  0.9600
10799SOL     OW43615   8.983   4.559   5.852 -0.3293  0.0356 -0.2216
10799SOL    HW143616   9.066   4.612   5.832  0.6409 -0.8572  1.3611
10799SOL    HW243617   8.921   4.615   5.907  0.4102 -0.2292  0.8935
10800SOL     OW43618   5.638   9.610   2.692 -0.1508  0.1818  0.3530
10800SOL    HW143619   5.718   9.656   2.729  0.2844  0.2763 -0.6890
10800SOL    HW243620   5.641   9.612   2.592 -0.5429 -1.3555  0.2876
10801SOL     OW43621   2.028   6.626   6.144 -0.1797  0.2311  0.0486
10801SOL    HW143622   2.019   6.540   6.094  1.7829 -0.3182  0.6024
10801SOL    HW243623   2.075   6.693   6.086  0.8005  0.0419  0.6067
10802SOL     OW43624   8.326   1.485   2.978  0.2069  0.1626 -0.1425
10802SOL    HW143625   8.356   1.490   2.883 -1.6617 -0.9272 -0.7989
10802SOL    HW243626   8.269   1.564   2.999  0.5930  0.3868  0.0615
10803SOL     OW43627   0.149   9.444   0.883 -0.1202  0.3896  0.0778
10803SOL    HW143628   0.069   9.449   0.824 -0.5073 -0.4845  0.5124
10803SOL    HW243629   0.143   9.362   0.940  0.4464  1.0073  1.0413
10804SOL     OW43630   3.485   0.781   5.484  0.2355 -0.2878  0.2793
10804SOL    HW143631   3.497   0.747   5.390 -0.9093  0.0661 -0.0018
10804SOL    HW243632   3.534   0.868   5.494 -0.1985  0.0139 -0.1893
10805SOL     OW43633   8.545   2.247   2.683 -0.2427  0.2844 -0.3682
10805SOL    HW143634   8.530   2.170   2.622  1.9620  1.8600 -3.0058
10805SOL    HW243635   8.582   2.213   2.770 -0.0328 -1.7115 -1.1993
10806SOL     OW43636   7.639   2.433   6.423  0.2725 -0.0930 -0.1676
10806SOL    HW143637   7.654   2.357   6.359 -0.7602 -0.7431  0.3584
10806SOL    HW243638   7.568   2.408   6.489  0.7172  0.9064  0.7030
10807SOL     OW43639   5.333   1.435   5.561  0.1724  0.1540 -0.0211
10807SOL    HW143640   5.288   1.462   5.646  0.1855 -2.0245  0.7232
10807SOL    HW243641   5.399   1.363   5.580  1.0088  0.4582 -1.7220
10808SOL     OW43642   8.706   9.875   6.322  0.0424 -0.1942  0.2389
10808SOL    HW143643   8.787   9.860   6.266  1.6309 -0.1178  2.4689
10808SOL    HW243644   8.664   9.786   6.343  0.2702 -0.3293  0.1239
10809SOL     OW43645   3.420   9.344   1.642  0.1886  0.0296 -0.1832
10809SOL    HW143646   3.374   9.299   1.566 -0.6535  0.9910 -0.2643
10809SOL    HW243647   3.405   9.292   1.726 -3.1730  1.5673  0.2693
10810SOL     OW43648   3.679   8.107   3.457 -0.3368 -0.3792  0.1932
10810SOL    HW143649   3.671   8.021   3.508 -1.8704  0.0605  0.6992
10810SOL    HW243650   3.635   8.181   3.508  1.7014  0.8977  0.1544
10811SOL     OW43651   2.686   0.620   2.310 -0.4849 -0.4029 -0.6038
10811SOL    HW143652   2.784   0.621   2.289 -0.4968 -1.2245 -0.6892
10811SOL    HW243653   2.638   0.561   2.246 -0.9873 -0.2890 -0.3363
10812SOL     OW43654   9.496   2.921   3.666  0.8930  0.2059 -0.3876
10812SOL    HW143655   9.539   3.002   3.626 -0.5064  0.4775 -1.3885
10812SOL    HW243656   9.524   2.839   3.615  1.8288  0.1251  0.2451
10813SOL     OW43657   3.323   3.846   1.078 -0.1891  0.1375 -0.3222
10813SOL    HW143658   3.301   3.943   1.067 -1.5018 -0.0536  0.5580
10813SOL    HW243659   3.301   3.797   0.994 -1.8145  0.1987  0.0553
10814SOL     OW43660   4.761   9.987   2.876 -0.4087 -0.5780 -0.3123
10814SOL    HW143661   4.835   9.934   2.833 -0.6535 -0.5875 -0.7344
10814SOL    HW243662   4.691   9.924   2.910 -0.7916 -0.5263 -0.9843
10815SOL     OW43663   3.756   4.752   5.236  0.4821  0.0984  0.1828
10815SOL    HW143664   3.722   4.801   5.316  1.2877  0.4433  0.3139
10815SOL    HW243665   3.854   4.735   5.245  0.3101 -1.1264 -0.0707
10816SOL     OW43666   0.858   2.068   5.014 -0.2359 -0.0600  0.4507
10816SOL    HW143667   0.805   2.018   5.082  0.0688 -1.4705 -0.3095
10816SOL    HW243668   0.799   2.093   4.937 -0.1351 -0.2835  0.2996
10817SOL     OW43669   4.531   9.284   2.337 -0.0055  0.2186  0.0735
10817SOL    HW143670   4.493   9.193   2.317  0.2832  0.5730 -2.1715
10817SOL    HW243671   4.620   9.293   2.294 -0.1351  1.6586  0.0957
10818SOL     OW43672   1.166   6.029   1.427 -0.0593  0.2545  0.0487
10818SOL    HW143673   1.211   6.110   1.463 -1.2084  1.0786 -0.3179
10818SOL    HW243674   1.116   5.982   1.501  0.8665 -0.3023  0.3243
10819SOL     OW43675   6.997   9.545   3.214  0.1428  0.1248  0.4867
10819SOL    HW143676   7.059   9.590   3.278  1.0871 -1.7902  0.9618
10819SOL    HW243677   7.035   9.457   3.187 -1.8307 -0.5793 -0.1054
10820SOL     OW43678   2.599   6.131   5.423 -0.3589  0.2698 -0.1823
10820SOL    HW143679   2.642   6.046   5.392 -1.3546 -0.5365  0.6205
10820SOL    HW243680   2.548   6.115   5.507 -0.0657  1.8068  0.3091
10821SOL     OW43681   4.279   5.347   1.827 -0.3723  0.6582  0.2930
10821SOL    HW143682   4.337   5.357   1.908  0.9678  1.3532 -0.7194
10821SOL    HW243683   4.189   5.386   1.845  0.0194  1.0770  1.3561
10822SOL     OW43684   4.268   1.519   0.505  0.3638  0.0706 -0.7355
10822SOL    HW143685   4.345   1.552   0.560  0.7840 -1.5034 -0.3710
10822SOL    HW243686   4.206   1.466   0.563 -0.0182 -0.2610 -1.4446
10823SOL     OW43687   9.891   6.953   5.102 -0.3331  0.0489 -0.2201
10823SOL    HW143688   9.805   7.002   5.117 -0.6111  0.2516 -2.3202
10823SOL    HW243689   9.873   6.872   5.046  0.9270  0.3510 -1.0685
10824SOL     OW43690   3.237   5.184   2.438 -0.9159 -0.6158  0.0529
10824SOL    HW143691   3.211   5.279   2.457 -0.4023 -0.7357  1.4371
10824SOL    HW243692   3.272   5.142   2.522 -0.6277 -1.8666 -0.6832
10825SOL     OW43693   2.304   5.011   3.717  0.1352  0.2457 -0.3439
10825SOL    HW143694   2.302   5.065   3.633 -0.4871  0.9492  0.1137
10825SOL    HW243695   2.382   5.040   3.773 -0.2437  0.7446 -0.0624
10826SOL     OW43696   2.466   9.645   4.456  0.1286  0.4796  0.1747
10826SOL    HW143697   2.493   9.549   4.455  0.2944  0.5265  0.3749
10826SOL    HW243698   2.476   9.683   4.364  0.5863  0.4535  0.2123
10827SOL     OW43699   7.961   5.438   1.745 -0.0943  0.4848 -0.2824
10827SOL    HW143700   7.957   5.381   1.827 -1.0515  0.7736 -0.1184
10827SOL    HW243701   8.013   5.391   1.674 -2.0222 -1.2324 -0.6134
10828SOL     OW43702   3.362   4.609   1.857  0.0321 -0.0968  0.5091
10828SOL    HW143703   3.324   4.661   1.935 -0.1055  0.3327  0.1567
10828SOL    HW243704   3.316   4.520   1.852  1.2410 -0.8232  1.9557
10829SOL     OW43705   0.809   9.793   1.989 -0.3541  0.3903  0.1963
10829SOL    HW143706   0.733   9.809   1.926 -0.5033 -2.4140 -0.3700
10829SOL    HW243707   0.895   9.797   1.938 -0.1919  2.0928  0.5717
10830SOL     OW43708   3.559   5.163   5.355 -0.2709  0.3598 -0.2591
10830SOL    HW143709   3.535   5.197   5.446 -1.0536  1.8951 -1.0253
10830SOL    HW243710   3.653   5.191   5.333  0.5884 -1.5534  0.7753
10831SOL     OW43711   2.619   8.405   3.313  0.4754  0.1177  0.8498
10831SOL    HW143712   2.543   8.470   3.307 -0.3279 -0.7557  1.2059
10831SOL    HW243713   2.679   8.431   3.388 -0.0265  0.2628  1.2078
10832SOL     OW43714   3.248   0.399   2.114  0.5559 -0.5703  0.3590
10832SOL    HW143715   3.309   0.324   2.089  1.1216  0.2134 -0.6107
10832SOL    HW243716   3.156   0.380   2.078  1.1770  0.1766 -1.6704
10833SOL     OW43717   6.074   8.823   3.078  0.1431 -0.0052 -1.0762
10833SOL    HW143718   6.106   8.830   3.172  1.5030 -0.6716 -1.4721
10833SOL    HW243719   5.992   8.879   3.065  0.4693  0.7707  0.2688
10834SOL     OW43720   9.004   0.933   4.689  0.0425  0.8519 -0.0144
10834SOL    HW143721   9.064   0.880   4.629 -0.0584  1.0024 -0.2479
10834SOL    HW243722   9.059   0.984   4.755  0.0269 -1.6536  1.9712
10835SOL     OW43723   2.660   7.334   0.601 -0.7051  0.2076  0.1885
10835SOL    HW143724   2.664   7.385   0.686 -2.0258  0.5760  0.0392
10835SOL    HW243725   2.569   7.342   0.561 -1.1011 -2.6245  0.3830
10836SOL     OW43726   4.235   9.078   1.801  0.4777 -0.5364 -0.5628
10836SOL    HW143727   4.302   9.138   1.845  2.6921 -2.7569 -0.8188
10836SOL    HW243728   4.177   9.035   1.870  0.8212 -0.3646 -0.1683
10837SOL     OW43729   8.265   5.565   3.281  0.0923  0.2860  0.1683
10837SOL    HW143730   8.179   5.616   3.283  0.7553  1.4218  3.5885
10837SOL    HW243731   8.256   5.482   3.336  0.3550 -1.1068 -1.8279
10838SOL     OW43732   6.236   0.768   1.200 -0.6272  0.3004 -0.5405
10838SOL    HW143733   6.296   0.736   1.126 -1.4796  0.3130 -1.2368
10838SOL    HW243734   6.287   0.766   1.286 -0.4221 -2.3076 -0.6665
10839SOL     OW43735   1.984   3.613   1.991 -0.0647  0.1799 -0.1506
10839SOL    HW143736   2.074   3.596   1.950 -0.3518  1.9650 -1.5825
10839SOL    HW243737   1.957   3.707   1.973 -1.5831  0.0778  1.5537
10840SOL     OW43738   5.417   3.690   0.206 -0.1120  0.2464 -0.8174
10840SOL    HW143739   5.339   3.639   0.171  0.1255  0.3125 -1.4507
10840SOL    HW243740   5.451   3.752   0.135  0.0231  0.7948 -0.2854
10841SOL     OW43741   3.132   5.987   0.394  0.1530 -0.1518 -0.1599
10841SOL    HW143742   3.131   5.966   0.492 -1.9357  1.3019  0.1601
10841SOL    HW243743   3.226   6.008   0.366  1.3114 -3.7142  0.8013
10842SOL     OW43744   3.642   8.095   1.027  1.0337 -0.3133  0.1028
10842SOL    HW143745   3.544   8.115   1.028  0.6954 -1.7952 -1.4660
10842SOL    HW243746   3.692   8.170   1.072 -0.7360  0.8285  0.2101
10843SOL     OW43747   0.029   3.316   3.006 -0.5947  0.1333 -0.1444
10843SOL    HW143748   0.086   3.380   2.955 -0.7601  0.8280  0.5381
10843SOL    HW243749   0.083   3.271   3.076 -1.0644  1.4201  1.0678
10844SOL     OW43750   4.453   8.875   6.501 -0.4716 -0.4151  0.2471
10844SOL    HW143751   4.493   8.950   6.448  0.7765 -0.8947  0.4998
10844SOL    HW243752   4.379   8.910   6.558  0.1465  0.6328  0.4104
10845SOL     OW43753   9.111   8.179   2.249  0.0487 -0.1965  0.0999
10845SOL    HW143754   9.069   8.250   2.305 -0.9335 -1.8067  1.4633
10845SOL    HW243755   9.211   8.188   2.252 -0.0461  0.5435  1.0180
10846SOL     OW43756   8.452   1.237   3.122 -0.2737  0.1997  0.0137
10846SOL    HW143757   8.513   1.210   3.047 -0.2551 -0.1704  0.1602
10846SOL    HW243758   8.396   1.315   3.093  0.1043  0.3951 -0.2020
10847SOL     OW43759   8.013   6.554   4.755  0.0809  0.4012  0.2204
10847SOL    HW143760   7.949   6.494   4.707 -0.7748  0.8908  0.7218
10847SOL    HW243761   8.062   6.611   4.689  0.4834 -0.4418 -0.2141
10848SOL     OW43762   1.670   4.718   3.818  0.2676 -0.3209  0.2982
10848SOL    HW143763   1.589   4.661   3.824 -0.6061  1.0801  2.4701
10848SOL    HW243764   1.729   4.701   3.897  1.1854 -0.0112 -0.3136
10849SOL     OW43765   4.393   1.108   4.052 -0.0054 -0.5145 -0.5933
10849SOL    HW143766   4.333   1.046   4.103 -1.2202 -0.8766 -2.3974
10849SOL    HW243767   4.480   1.063   4.034  0.0924 -0.7145  0.3770
10850SOL     OW43768   4.560   9.197   0.274  0.5087 -0.6891  0.1880
10850SOL    HW143769   4.630   9.251   0.227  0.9502 -1.2360  0.2204
10850SOL    HW243770   4.555   9.225   0.369  0.2634 -0.2288  0.0407
10851SOL     OW43771   4.901   6.678   2.349 -0.2055 -0.4871  0.1126
10851SOL    HW143772   4.831   6.724   2.293  0.0168  0.5797  0.6897
10851SOL    HW243773   4.900   6.580   2.330 -0.9112 -0.2927 -0.9180
10852SOL     OW43774   2.003   1.033   1.352 -0.4282  0.5072  0.4572
10852SOL    HW143775   1.956   0.951   1.320  1.8341 -0.3862 -0.7077
10852SOL    HW243776   1.986   1.108   1.287 -0.5987  0.3060  0.2688
10853SOL     OW43777   3.902   1.939   0.449  0.1880  0.4673  0.0861
10853SOL    HW143778   3.957   1.905   0.373  0.4376  1.5351 -0.2127
10853SOL    HW243779   3.887   2.037   0.439 -1.2701  0.3057  0.4800
10854SOL     OW43780   7.073   9.174   5.710  0.0167  0.0544 -0.3535
10854SOL    HW143781   7.053   9.144   5.803  1.4134 -0.3933 -0.1830
10854SOL    HW243782   6.995   9.156   5.651 -1.0869  0.8432  0.8449
10855SOL     OW43783   0.710   1.936   5.186 -0.7600  0.5098 -0.1900
10855SOL    HW143784   0.625   1.948   5.238 -0.9831 -0.0030 -0.4332
10855SOL    HW243785   0.692   1.881   5.104 -0.1314  0.1140 -0.0692
10856SOL     OW43786   9.381   2.136   1.071  0.0104  0.2420  0.3746
10856SOL    HW143787   9.433   2.142   1.156 -0.7753 -1.4123  0.9829
10856SOL    HW243788   9.289   2.174   1.085 -0.2057 -0.2638  0.3410
10857SOL     OW43789   1.786   8.379   4.541  0.3302 -0.1954  0.2221
10857SOL    HW143790   1.811   8.349   4.449  0.0161  0.6413 -0.1375
10857SOL    HW243791   1.848   8.338   4.608  0.4718 -0.9155 -0.3463
10858SOL     OW43792   0.116   8.074   4.749 -0.2768  0.2277 -0.4227
10858SOL    HW143793   0.211   8.045   4.753 -0.7427 -1.2692  0.1706
10858SOL    HW243794   0.109   8.169   4.780  0.9504  0.1768  0.0252
10859SOL     OW43795   3.281   5.927   5.338  0.2797  0.7176  0.5053
10859SOL    HW143796   3.227   5.961   5.415 -0.6431  0.3011  0.0394
10859SOL    HW243797   3.265   5.985   5.258 -0.3373 -0.0687  0.0549
10860SOL     OW43798   1.787   6.899   6.480 -0.0838  0.0377 -0.0829
10860SOL    HW143799   1.881   6.876   6.453 -0.1556 -2.0595  1.3642
10860SOL    HW243800   1.735   6.815   6.496 -2.2320  1.1785 -0.8752
10861SOL     OW43801   1.823   4.369   5.836 -0.7464  0.2034  0.1887
10861SOL    HW143802   1.851   4.460   5.805 -0.6026  0.3451  0.7375
10861SOL    HW243803   1.904   4.310   5.843 -1.0394 -0.4774 -1.8413
10862SOL     OW43804   1.506   0.349   5.821  0.0102  0.3424  0.0588
10862SOL    HW143805   1.533   0.445   5.810  1.5635 -0.0298  0.5000
10862SOL    HW243806   1.463   0.337   5.911 -1.5152  0.9006 -0.5751
10863SOL     OW43807   4.510   8.183   5.053 -0.0851 -0.0719 -0.5578
10863SOL    HW143808   4.514   8.249   4.979  0.5883  0.6664  0.1320
10863SOL    HW243809   4.533   8.227   5.140  0.7588 -1.2869 -0.1461
10864SOL     OW43810   8.520   7.326   4.639  0.1089 -1.2185  0.5512
10864SOL    HW143811   8.433   7.283   4.663  0.5725 -1.1268  2.4934
10864SOL    HW243812   8.595   7.272   4.678  0.8301 -0.3937  0.3034
10865SOL     OW43813   6.743   1.527   2.577 -0.3539 -0.0070 -0.6529
10865SOL    HW143814   6.726   1.609   2.631 -3.2477 -1.6639  1.0873
10865SOL    HW243815   6.808   1.468   2.626  0.4509  0.4868 -1.1184
10866SOL     OW43816   4.032   7.909   3.390  0.5434 -0.1491 -0.0958
10866SOL    HW143817   4.079   7.944   3.470 -1.9356 -1.2993  1.9464
10866SOL    HW243818   4.077   7.825   3.359 -0.3747 -1.5050  2.1231
10867SOL     OW43819   3.326   4.964   4.181 -0.2026  0.2917 -0.0916
10867SOL    HW143820   3.289   4.926   4.266  1.2560  1.0526  0.9017
10867SOL    HW243821   3.357   4.890   4.122  1.2804 -0.1267  1.2054
10868SOL     OW43822   0.353   7.012   4.812 -0.9279  0.0692  0.2978
10868SOL    HW143823   0.303   6.952   4.750  2.4859  0.4239 -3.0391
10868SOL    HW243824   0.399   6.958   4.882 -1.0221 -0.8694 -0.3568
10869SOL     OW43825   2.869   4.849   5.272 -0.1643  0.1518  0.0614
10869SOL    HW143826   2.935   4.910   5.228 -0.9930 -0.2936 -1.9041
10869SOL    HW243827   2.888   4.843   5.370  2.5633  0.1943 -0.4141
10870SOL     OW43828   1.155   6.015   6.717 -0.0489 -0.0927 -0.3481
10870SOL    HW143829   1.210   5.931   6.716 -0.7741 -0.6101  1.0211
10870SOL    HW243830   1.060   5.991   6.736  0.2150  1.2638  2.9585
10871SOL     OW43831   7.590   8.857   3.943  0.0704 -0.3001  0.1106
10871SOL    HW143832   7.571   8.783   4.008 -0.8806  0.9249  1.2429
10871SOL    HW243833   7.659   8.826   3.878  1.0643 -1.5506  1.7055
10872SOL     OW43834   2.408   9.565   6.235 -0.0408  0.3076  0.2819
10872SOL    HW143835   2.326   9.514   6.210  0.3100 -0.0857 -0.0926
10872SOL    HW243836   2.470   9.567   6.157 -1.1807  3.6184 -0.5864
10873SOL     OW43837   1.404   3.304   2.533  0.4924 -0.1951  0.4803
10873SOL    HW143838   1.434   3.328   2.625 -0.8070  1.5076  0.4946
10873SOL    HW243839   1.413   3.206   2.519 -0.5252 -0.6630  2.8793
10874SOL     OW43840   3.301   8.679   0.742  0.1119 -0.9896  0.2122
10874SOL    HW143841   3.260   8.599   0.698  0.5456 -1.7044  1.0970
10874SOL    HW243842   3.331   8.743   0.671 -0.6899 -1.3659 -0.4937
10875SOL     OW43843   3.117   8.389   2.105  0.0939  0.2421 -0.6452
10875SOL    HW143844   3.104   8.487   2.123 -0.6007  0.0137  0.0870
10875SOL    HW243845   3.064   8.364   2.024  1.0261  0.6674 -1.4004
10876SOL     OW43846   4.415   7.431   2.476  0.2875  0.2243 -0.4550
10876SOL    HW143847   4.513   7.419   2.495  0.4713  1.9103 -0.2597
10876SOL    HW243848   4.389   7.372   2.399  1.2803 -0.7843 -0.0507
10877SOL     OW43849   3.300   9.149   2.082 -0.1831 -0.2529 -0.2758
10877SOL    HW143850   3.298   9.049   2.089  0.8696 -0.1901  0.9781
10877SOL    HW243851   3.381   9.177   2.031  0.6330  0.0508  1.1713
10878SOL     OW43852   6.007   8.881   3.980  0.5078  0.0771 -0.0162
10878SOL    HW143853   5.926   8.827   4.004 -0.1510  0.2879 -1.7327
10878SOL    HW243854   6.019   8.954   4.047 -2.2515  1.6781 -1.2038
10879SOL     OW43855   0.114   9.931   1.042  0.3067 -0.3749  0.4251
10879SOL    HW143856   0.164   9.998   0.988  0.6691 -1.6226 -0.7957
10879SOL    HW243857   0.162   9.915   1.129  1.3003 -0.5744 -0.1624
10880SOL     OW43858   9.120   0.297   0.173  0.5253 -0.4990 -0.0602
10880SOL    HW143859   9.149   0.302   0.077 -0.3933 -1.2415 -0.3916
10880SOL    HW243860   9.200   0.298   0.233  1.2224 -2.4815 -0.9367
10881SOL     OW43861   3.953   3.624   1.830 -0.0284 -0.4106 -0.2166
10881SOL    HW143862   3.896   3.551   1.791  1.7012 -0.7958 -2.0900
10881SOL    HW243863   3.945   3.623   1.930 -2.7100 -0.9265 -0.3863
10882SOL     OW43864   8.646   6.842   3.801  0.1508 -0.2248 -0.3201
10882SOL    HW143865   8.655   6.743   3.796  2.0735 -0.0960  0.4606
10882SOL    HW243866   8.590   6.866   3.880  1.0146 -0.6141  0.4081
10883SOL     OW43867   3.480   0.685   1.468  0.3084  0.3008  0.4524
10883SOL    HW143868   3.461   0.710   1.563  0.9028  0.0652  0.6325
10883SOL    HW243869   3.574   0.708   1.445  0.0807  0.6235 -0.1692
10884SOL     OW43870   2.568   1.520   4.861  0.1710  0.0474  0.1496
10884SOL    HW143871   2.575   1.540   4.959  1.0163  0.0153  0.0952
10884SOL    HW243872   2.589   1.602   4.809 -2.3297  0.6323  0.0185
10885SOL     OW43873   3.095   1.447   5.355  0.3493  0.6616  0.1741
10885SOL    HW143874   3.092   1.492   5.445 -1.6618  0.1331  0.4068
10885SOL    HW243875   3.008   1.463   5.308  1.2403  0.5946 -1.5310
10886SOL     OW43876   0.523   4.492   3.069 -0.0611 -0.3431 -0.0489
10886SOL    HW143877   0.591   4.551   3.113 -0.9570 -0.6198  1.7774
10886SOL    HW243878   0.524   4.402   3.113  1.3867 -1.7536 -2.9014
10887SOL     OW43879   0.674   5.981   1.274  0.2282 -0.0563 -0.2585
10887SOL    HW143880   0.668   5.886   1.305 -3.1343 -0.4210 -1.7452
10887SOL    HW243881   0.646   6.041   1.349 -0.0368 -0.3985 -0.0775
10888SOL     OW43882   1.596   2.668   3.468 -0.1682  0.6295  0.1759
10888SOL    HW143883   1.531   2.602   3.505 -0.7847  2.3179  2.2344
10888SOL    HW243884   1.561   2.761   3.482  0.2383  1.4310 -3.5033
10889SOL     OW43885   2.344   5.193   5.458 -0.5287 -0.2707 -0.1087
10889SOL    HW143886   2.402   5.214   5.380  0.7979 -1.8338  0.4480
10889SOL    HW243887   2.349   5.096   5.479 -2.3767 -0.2088  0.7321
10890SOL     OW43888   8.323   7.492   5.914  0.4903 -0.3677  0.1514
10890SOL    HW143889   8.391   7.419   5.926  0.1732 -0.5562  0.8869
10890SOL    HW243890   8.369   7.580   5.911  0.7420 -0.4439  1.2390
10891SOL     OW43891   1.184   7.586   1.309  0.3501 -0.4118 -0.0499
10891SOL    HW143892   1.204   7.638   1.393 -0.0341 -1.2677  0.5756
10891SOL    HW243893   1.216   7.638   1.230 -0.9614  1.2559  0.4941
10892SOL     OW43894   1.650   8.065   6.342  0.4654 -0.1422 -1.2991
10892SOL    HW143895   1.630   8.025   6.252 -1.3989  0.3341 -1.1070
10892SOL    HW243896   1.699   8.151   6.330 -0.0073  0.0475 -1.8550
10893SOL     OW43897   6.680   1.209   1.555 -0.0419  0.0482 -0.0049
10893SOL    HW143898   6.580   1.213   1.553  0.0208  1.5565 -2.4204
10893SOL    HW243899   6.713   1.245   1.642 -1.6067 -0.9281  1.0105
10894SOL     OW43900   9.026   4.977   2.132 -0.0179  0.4047  0.4455
10894SOL    HW143901   9.094   4.904   2.122 -0.2563  0.0853  1.1196
10894SOL    HW243902   9.035   5.042   2.056 -0.0723 -0.5383 -0.3689
10895SOL     OW43903   3.080   2.199   5.507 -1.1275 -0.5171 -0.1663
10895SOL    HW143904   3.032   2.283   5.530  1.3951  0.9516 -0.0460
10895SOL    HW243905   3.137   2.214   5.426  0.6728 -1.5787  0.8800
10896SOL     OW43906   3.628   9.673   4.931  0.4317 -0.0354 -0.1238
10896SOL    HW143907   3.708   9.674   4.990  2.4399 -1.8953 -2.7084
10896SOL    HW243908   3.604   9.579   4.908 -2.4195  0.4974  0.4586
10897SOL     OW43909   0.707   7.695   5.489 -0.6868  0.1804 -0.4767
10897SOL    HW143910   0.633   7.633   5.516 -0.7970 -0.5921 -2.4722
10897SOL    HW243911   0.706   7.776   5.548 -0.0993 -1.9893  2.6540
10898SOL     OW43912   2.660   5.694   0.783  0.4904 -0.0437 -0.0402
10898SOL    HW143913   2.754   5.661   0.771  0.1734 -0.1866 -2.4312
10898SOL    HW243914   2.599   5.642   0.723 -0.8507  1.1729  0.2607
10899SOL     OW43915   8.252   6.066   5.776  0.1389  0.0613 -0.5941
10899SOL    HW143916   8.311   5.994   5.814 -0.8856  0.2221  1.3894
10899SOL    HW243917   8.290   6.156   5.800  0.4536  0.1754 -1.5181
10900SOL     OW43918   0.379   5.480   4.618  0.0366 -0.5314  0.3804
10900SOL    HW143919   0.367   5.411   4.690 -1.6041 -0.1746  0.4859
10900SOL    HW243920   0.290   5.521   4.597  0.9013  1.1507 -0.0861
10901SOL     OW43921   8.117   3.972   0.532  0.0377 -0.2069  0.1885
10901SOL    HW143922   8.141   4.040   0.462  0.2979 -2.0711 -1.5913
10901SOL    HW243923   8.200   3.940   0.577  0.2088 -1.2626 -0.8384
10902SOL     OW43924   8.553   3.301   5.677  0.3362  0.5841 -0.7058
10902SOL    HW143925   8.499   3.227   5.717  0.1597  0.5313 -1.0358
10902SOL    HW243926   8.565   3.374   5.744 -0.5778  0.8179 -0.7882
10903SOL     OW43927   1.822   7.614   3.681  0.0165 -0.0815 -0.2227
10903SOL    HW143928   1.905   7.643   3.634 -0.6060  1.9333 -0.1157
10903SOL    HW243929   1.807   7.670   3.762 -0.6930 -1.3632  0.5621
10904SOL     OW43930   7.555   1.855   2.860  0.5363 -0.2460  0.4271
10904SOL    HW143931   7.556   1.766   2.906 -1.3502  0.1948  1.3835
10904SOL    HW243932   7.593   1.846   2.768  0.1136 -2.1005  0.4166
10905SOL     OW43933   9.124   4.617   0.554  0.1645 -0.6243  0.2880
10905SOL    HW143934   9.215   4.612   0.596 -0.5192 -2.2346  1.5854
10905SOL    HW243935   9.072   4.535   0.576 -0.9897 -0.5117 -1.9262
10906SOL     OW43936   2.719   8.814   2.246 -0.3449  0.6571  0.4824
10906SOL    HW143937   2.816   8.800   2.266 -0.2394 -1.4319 -1.3090
10906SOL    HW243938   2.675   8.725   2.229 -2.2477  1.6971 -0.1956
10907SOL     OW43939   0.901   1.140   5.564  0.3882 -0.1528 -0.3697
10907SOL    HW143940   0.978   1.167   5.506  1.4432  1.5923  1.7886
10907SOL    HW243941   0.920   1.051   5.605  1.5643  0.5563  0.6536
10908SOL     OW43942   1.815   8.027   1.584 -0.3994 -0.1301  0.5378
10908SOL    HW143943   1.846   7.962   1.653  2.1061  0.8741  0.4412
10908SOL    HW243944   1.894   8.079   1.550 -1.5612 -0.5560 -3.0588
10909SOL     OW43945   8.266   0.101   6.256 -0.0393 -0.7983  0.1215
10909SOL    HW143946   8.354   0.142   6.281 -0.2970  0.3496 -0.7897
10909SOL    HW243947   8.203   0.108   6.333  0.5350 -1.2549  0.6407
10910SOL     OW43948   3.982   6.478   1.604 -0.3654  0.1043 -0.0666
10910SOL    HW143949   3.911   6.459   1.536  1.2288  0.9989 -2.0560
10910SOL    HW243950   4.050   6.541   1.564  1.5680 -0.7680  1.7542
10911SOL     OW43951   6.452   9.791   2.636  0.1401  0.0078  0.3159
10911SOL    HW143952   6.549   9.791   2.613  0.4721 -0.5415  1.6658
10911SOL    HW243953   6.419   9.697   2.642 -0.0850  0.1494  1.4375
10912SOL     OW43954   3.102   3.045   1.880  0.0508  0.3169 -0.4761
10912SOL    HW143955   3.022   3.097   1.852 -0.2313 -0.5622 -1.3453
10912SOL    HW243956   3.173   3.107   1.913 -1.5079  1.0187  1.6576
10913SOL     OW43957   4.723   8.463   5.312 -0.0774 -0.0874 -0.1323
10913SOL    HW143958   4.760   8.379   5.351 -0.5985 -0.8433 -1.2500
10913SOL    HW243959   4.624   8.453   5.298 -0.0091  0.4157 -1.0296
10914SOL     OW43960   3.358   6.037   6.636 -0.1868 -0.1556 -0.5989
10914SOL    HW143961   3.333   5.972   6.709 -1.7330  0.7486 -0.3090
10914SOL    HW243962   3.318   6.007   6.550  0.3636 -0.3926 -0.7757
10915SOL     OW43963   0.484   7.710   0.722 -0.0285 -0.2726 -0.3081
10915SOL    HW143964   0.552   7.671   0.784  0.8976  0.0193 -1.1217
10915SOL    HW243965   0.440   7.788   0.766 -0.7791 -1.2616  0.7235
10916SOL     OW43966   8.840   1.889   5.645  0.6128  0.3477  0.0814
10916SOL    HW143967   8.832   1.798   5.685  0.2492  0.0120 -0.7489
10916SOL    HW243968   8.755   1.940   5.662  0.5586  0.2965 -0.0346
10917SOL     OW43969   8.204   1.902   3.508  0.0880 -0.7730 -0.0585
10917SOL    HW143970   8.252   1.886   3.594  0.1250  0.6765  0.2023
10917SOL    HW243971   8.139   1.978   3.520  2.4009  1.6248 -2.1505
10918SOL     OW43972   9.002   3.269   6.546 -0.1645 -0.4505  0.0895
10918SOL    HW143973   8.992   3.368   6.531 -1.8300 -0.7776 -1.0255
10918SOL    HW243974   9.041   3.227   6.464  1.1787 -0.6416  0.8079
10919SOL     OW43975   0.921   6.166   3.402 -0.2970 -0.4029  0.3970
10919SOL    HW143976   0.997   6.103   3.387  0.8834  1.2869 -0.7853
10919SOL    HW243977   0.880   6.146   3.491  3.0737  0.2112  2.1918
10920SOL     OW43978   1.959   3.958   3.887  0.5618 -0.1830 -0.2220
10920SOL    HW143979   2.010   3.893   3.944 -1.3646 -2.6521 -1.2192
10920SOL    HW243980   1.973   3.934   3.791  0.6956  1.5917 -0.6529
10921SOL     OW43981   4.543   8.714   4.729  0.0436 -0.4414 -0.1926
10921SOL    HW143982   4.498   8.681   4.812 -0.6570  0.8265 -0.0634
10921SOL    HW243983   4.640   8.730   4.748 -0.4761  1.6099  0.9178
10922SOL     OW43984   9.690   2.773   0.839 -0.4157  0.1302 -0.2254
10922SOL    HW143985   9.658   2.705   0.905 -0.5339  1.3265  0.9909
10922SOL    HW243986   9.668   2.865   0.874  0.9318  0.8314 -1.1898
10923SOL     OW43987   4.243   8.063   4.552  0.1030 -0.4857  0.4169
10923SOL    HW143988   4.148   8.072   4.525 -0.4267 -0.7677  2.1046
10923SOL    HW243989   4.276   7.971   4.529 -0.5251 -0.9351  1.2680
10924SOL     OW43990   8.785   8.750   3.832  0.0588 -0.7167  0.2055
10924SOL    HW143991   8.854   8.797   3.887 -2.4102  1.2867  1.7055
10924SOL    HW243992   8.801   8.652   3.834  1.9348 -0.3972  1.7972
10925SOL     OW43993   0.570   7.258   6.375 -0.0468  0.3392  0.3374
10925SOL    HW143994   0.487   7.275   6.429 -0.7747 -1.1591 -0.2980
10925SOL    HW243995   0.643   7.227   6.436 -0.3085  0.4800  0.7290
10926SOL     OW43996   0.127   0.922   0.132 -0.7689 -0.1203  0.1468
10926SOL    HW143997   0.073   0.863   0.191 -1.7747  1.3438  0.7088
10926SOL    HW243998   0.196   0.970   0.186 -0.1988 -0.4845 -0.2475
10927SOL     OW43999   9.916   4.856   1.462  0.3348 -0.3009  0.3105
10927SOL    HW144000   9.817   4.845   1.452  0.5439 -1.2074 -0.7945
10927SOL    HW244001   9.964   4.786   1.409  1.5759  0.0165  0.9791
10928SOL     OW44002   2.974   5.070   3.464  0.1656 -0.3695  0.7927
10928SOL    HW144003   3.050   5.040   3.406 -0.1675 -1.0563  0.7059
10928SOL    HW244004   2.924   5.143   3.418  1.0761  0.4529  1.0716
10929SOL     OW44005   2.943   7.784   3.815 -0.3374  0.1503  0.5132
10929SOL    HW144006   2.950   7.748   3.908  0.5638  0.6941  0.6644
10929SOL    HW244007   3.021   7.844   3.797 -1.1988  1.0725 -0.1535
10930SOL     OW44008   9.187   0.842   4.218 -0.2583 -0.0319 -0.3328
10930SOL    HW144009   9.206   0.810   4.125 -0.7641 -1.0778 -0.0883
10930SOL    HW244010   9.096   0.811   4.245  0.2311 -0.4722  0.8340
10931SOL     OW44011   0.359   8.821   1.430  0.1233 -0.3627 -0.1428
10931SOL    HW144012   0.308   8.761   1.368 -1.5969  2.1961 -1.3180
10931SOL    HW244013   0.299   8.894   1.462  1.8360  0.0674  2.1881
10932SOL     OW44014   4.066   2.344   5.602 -0.3375  0.6157  0.4580
10932SOL    HW144015   4.046   2.355   5.505 -1.0086  0.3835  0.5680
10932SOL    HW244016   4.096   2.431   5.640 -0.3386  0.7701  0.1033
10933SOL     OW44017   2.247   9.292   5.534  0.0495 -0.2470 -0.1970
10933SOL    HW144018   2.303   9.264   5.456  0.7868 -0.1795  0.3020
10933SOL    HW244019   2.292   9.368   5.581 -2.9128  3.2786 -2.7670
10934SOL     OW44020   3.702   5.234   5.890 -1.0141  0.3690 -0.4929
10934SOL    HW144021   3.739   5.241   5.983  0.5133  0.8460 -1.1293
10934SOL    HW244022   3.694   5.326   5.851  2.1540 -0.0753 -2.3039
10935SOL     OW44023   0.741   1.589   4.846 -0.6964 -0.5602 -0.6910
10935SOL    HW144024   0.729   1.618   4.751 -1.4803  1.5742  0.0213
10935SOL    HW244025   0.659   1.612   4.898  0.2443 -0.5065  0.7891
10936SOL     OW44026   0.813   7.607   3.919 -0.2859 -0.1652 -0.6059
10936SOL    HW144027   0.773   7.692   3.883 -2.1665 -0.2678  1.1615
10936SOL    HW244028   0.747   7.533   3.910  0.5960 -0.9965 -0.2657
10937SOL     OW44029   9.644   8.680   0.876  0.3182  0.0930 -0.9354
10937SOL    HW144030   9.702   8.665   0.957  0.0019  0.1039 -0.7051
10937SOL    HW244031   9.553   8.642   0.893 -0.8899  3.3400  0.1548
10938SOL     OW44032   5.935   9.739   5.136  0.2707  0.0447 -0.0847
10938SOL    HW144033   6.011   9.686   5.099  1.2018  1.1405  0.2223
10938SOL    HW244034   5.878   9.773   5.061 -0.4545 -1.5298 -0.2767
10939SOL     OW44035   6.581   1.148   4.527 -0.3605  0.4972 -0.2456
10939SOL    HW144036   6.567   1.231   4.581 -0.6249  0.2619  0.0473
10939SOL    HW244037   6.544   1.069   4.576  2.4620 -0.2389  0.8087
10940SOL     OW44038   0.833   1.265   1.058  0.1069  0.6102  0.2815
10940SOL    HW144039   0.805   1.302   1.146 -0.7179 -0.9769  0.7023
10940SOL    HW244040   0.923   1.223   1.066 -0.4163 -0.4585  0.6342
10941SOL     OW44041   3.877   7.855   1.055 -0.3940  0.0851  1.0953
10941SOL    HW144042   3.969   7.882   1.028 -0.7023 -0.2891 -0.3776
10941SOL    HW244043   3.814   7.931   1.037 -0.7164 -0.4157  0.0808
10942SOL     OW44044   2.547   1.370   5.493  0.2681 -0.2636  0.2493
10942SOL    HW144045   2.544   1.288   5.550 -0.1232 -0.6532 -0.3193
10942SOL    HW244046   2.471   1.430   5.518 -0.9904 -1.2732 -1.0862
10943SOL     OW44047   5.427   0.759   2.584 -0.3863  0.1541 -0.2658
10943SOL    HW144048   5.413   0.761   2.485 -1.0540  0.2053 -0.1696
10943SOL    HW244049   5.390   0.674   2.621  1.2383 -0.5743 -0.2633
10944SOL     OW44050   7.905   3.745   5.587  0.1516 -0.3543  0.6128
10944SOL    HW144051   7.869   3.682   5.656  0.5071 -0.3607  0.7911
10944SOL    HW244052   7.873   3.716   5.496 -0.2740 -0.3719  0.7681
10945SOL     OW44053   4.075   9.181   4.846  0.2380  0.4766 -0.1982
10945SOL    HW144054   4.136   9.237   4.903 -0.8735  1.4256  0.0752
10945SOL    HW244055   3.982   9.186   4.881 -0.5035  1.2433 -2.2023
10946SOL     OW44056   9.043   9.407   4.224  0.4559 -0.0095  0.0809
10946SOL    HW144057   9.052   9.400   4.124  1.4970 -0.4830  0.2040
10946SOL    HW244058   9.003   9.322   4.259  1.0151 -0.2350  0.1740
10947SOL     OW44059   1.341   4.885   1.028 -0.1608 -0.1468  0.6150
10947SOL    HW144060   1.357   4.982   1.046 -0.2783 -0.1848  0.9369
10947SOL    HW244061   1.287   4.874   0.945  1.0914  0.0032 -0.2248
10948SOL     OW44062   5.886   4.835   6.540 -0.2516 -0.0570 -0.2610
10948SOL    HW144063   5.949   4.767   6.502  0.4377 -0.0518  0.8584
10948SOL    HW244064   5.883   4.827   6.639 -0.9321  0.8874 -0.1953
10949SOL     OW44065   7.360   1.763   0.321  0.2613 -0.1110 -0.2294
10949SOL    HW144066   7.380   1.855   0.287  0.9142  0.6918  2.2092
10949SOL    HW244067   7.271   1.764   0.368 -0.0879 -0.9202 -0.8618
10950SOL     OW44068   1.341   8.271   4.006  0.4565 -0.2100  0.7275
10950SOL    HW144069   1.263   8.236   3.954  1.2344 -0.4108 -0.3254
10950SOL    HW244070   1.315   8.355   4.053 -0.4090 -0.3039  0.4271
10951SOL     OW44071   4.512   9.809   6.067 -0.3763  0.9737 -0.4524
10951SOL    HW144072   4.571   9.881   6.103 -0.2649  0.1786  1.0178
10951SOL    HW244073   4.419   9.821   6.103 -0.1698 -0.0690  0.4510
10952SOL     OW44074   1.673   1.722   2.939  0.3726 -0.8028  0.5210
10952SOL    HW144075   1.724   1.791   2.990 -0.4838 -0.8886  1.5136
10952SOL    HW244076   1.606   1.767   2.879  0.9672 -0.7232 -0.0909
10953SOL     OW44077   0.351   0.079   6.488 -0.2269  0.1225  0.1244
10953SOL    HW144078   0.327   0.170   6.454 -1.3493  0.2516  1.2276
10953SOL    HW244079   0.294   0.011   6.442 -3.2054  0.4722  3.1033
10954SOL     OW44080   4.834   1.679   1.959 -0.7233 -0.1279  0.0779
10954SOL    HW144081   4.852   1.593   2.006 -2.1568  0.5478  1.9849
10954SOL    HW244082   4.826   1.752   2.027  0.0982  1.4399 -1.4773
10955SOL     OW44083   3.572   8.002   5.942  0.5647  0.0872 -0.2273
10955SOL    HW144084   3.529   7.926   5.893 -1.1675  0.8897  0.0143
10955SOL    HW244085   3.629   8.054   5.880  0.9439 -0.7993 -0.6323
10956SOL     OW44086   7.886   8.870   3.015  0.2362  0.3352 -0.1444
10956SOL    HW144087   7.851   8.950   2.966  0.3541  0.8675  0.6237
10956SOL    HW244088   7.811   8.828   3.066  0.7128  1.5422  1.5914
10957SOL     OW44089   2.034   1.652   4.476 -0.1635  0.7031  0.2239
10957SOL    HW144090   2.035   1.750   4.494  1.5993  0.7694 -0.0706
10957SOL    HW244091   2.097   1.606   4.540  0.3671  0.0026 -0.7787
10958SOL     OW44092   3.282   8.874   5.769  0.3098  0.4225  0.4587
10958SOL    HW144093   3.247   8.818   5.845  2.8196 -0.0096  1.3552
10958SOL    HW244094   3.308   8.814   5.693 -1.1626  0.7671 -0.3295
10959SOL     OW44095   3.870   4.732   2.197  0.5071  0.1435 -0.1935
10959SOL    HW144096   3.869   4.726   2.097 -1.0794 -0.0007 -0.1911
10959SOL    HW244097   3.902   4.822   2.225 -1.9583  1.2907 -0.9238
10960SOL     OW44098   1.283   4.888   6.460  0.1202 -0.0941  0.2515
10960SOL    HW144099   1.372   4.885   6.415  0.9594  2.4313  1.6048
10960SOL    HW244100   1.234   4.970   6.431 -1.5009 -1.1402  0.0004
10961SOL     OW44101   5.821   0.069   4.161  0.0312 -0.7662 -0.1580
10961SOL    HW144102   5.832   0.159   4.203 -0.8377 -1.1412  0.9239
10961SOL    HW244103   5.897   0.051   4.098  0.4926  0.4915  0.0297
10962SOL     OW44104   7.222   6.685   4.605 -0.7541  0.2104 -0.4429
10962SOL    HW144105   7.223   6.718   4.700  0.1431  1.9618 -1.0293
10962SOL    HW244106   7.311   6.645   4.583 -0.8443  0.1227 -0.6448
10963SOL     OW44107   8.916   0.823   3.598  0.2403 -0.1559  0.0208
10963SOL    HW144108   8.824   0.820   3.558  0.4213  1.1993 -0.5049
10963SOL    HW244109   8.983   0.847   3.528  1.0728 -1.5976  0.3021
10964SOL     OW44110   7.818   3.208   6.374  0.0843  0.5373  0.3091
10964SOL    HW144111   7.762   3.154   6.311  1.7880 -0.6188 -0.2472
10964SOL    HW244112   7.887   3.259   6.322  0.5011  0.7938  1.1099
10965SOL     OW44113   3.211   6.079   3.093  0.5338 -0.3340 -1.0808
10965SOL    HW144114   3.183   5.994   3.049  1.2687 -0.9246 -0.4343
10965SOL    HW244115   3.310   6.092   3.081  0.5202  0.1357 -0.6918
10966SOL     OW44116   2.665   1.174   6.034 -0.0832 -0.1330 -0.1510
10966SOL    HW144117   2.577   1.126   6.024  0.1081 -0.5154  0.0104
10966SOL    HW244118   2.723   1.153   5.955  0.2843 -0.7651  0.2805
10967SOL     OW44119   9.618   2.081   2.653  0.1094  0.3877  0.0300
10967SOL    HW144120   9.653   2.064   2.745  0.6753 -0.3311 -0.3149
10967SOL    HW244121   9.670   2.156   2.611  0.0622  0.5013  0.1720
10968SOL     OW44122   8.058   0.959   0.687 -0.6537  0.4321  0.3238
10968SOL    HW144123   8.155   0.981   0.696 -0.7761  1.2473 -0.2774
10968SOL    HW244124   8.003   1.036   0.721 -1.0809  0.2807 -0.0165
10969SOL     OW44125   1.454   8.962   4.779  0.3377  0.3277  0.3446
10969SOL    HW144126   1.479   8.914   4.695  3.3883  1.5229  0.4926
10969SOL    HW244127   1.475   9.059   4.770 -2.0150  0.9743  1.4871
10970SOL     OW44128   9.213   0.521   6.453 -0.3288 -0.1084  0.0042
10970SOL    HW144129   9.225   0.495   6.357  0.9059  0.0839  0.1058
10970SOL    HW244130   9.298   0.559   6.489 -0.8428  0.0141  1.1216
10971SOL     OW44131   1.186   1.357   3.368 -0.0273  0.1065  0.1460
10971SOL    HW144132   1.127   1.387   3.293  0.1017  1.6356  0.6357
10971SOL    HW244133   1.232   1.272   3.343 -3.7320 -2.0703  0.4184
10972SOL     OW44134   4.635   0.325   2.104  0.8483  0.0708 -0.1442
10972SOL    HW144135   4.690   0.400   2.142  0.6745 -0.5705  1.3740
10972SOL    HW244136   4.539   0.338   2.129  0.1418  1.5027 -3.2632
10973SOL     OW44137   9.283   9.737   4.176  0.4581  0.1387  0.0817
10973SOL    HW144138   9.279   9.783   4.265  0.1875 -0.0156  0.1502
10973SOL    HW244139   9.207   9.768   4.120 -0.3487 -1.0382  0.5206
10974SOL     OW44140   3.630   0.349   1.725  0.1077  0.9116  0.4516
10974SOL    HW144141   3.639   0.445   1.753  1.0754  1.3910 -1.3990
10974SOL    HW244142   3.544   0.336   1.676  0.0689  0.8777  0.5284
10975SOL     OW44143   1.069   2.212   4.029 -0.0010 -1.0790  0.1147
10975SOL    HW144144   0.998   2.177   3.968  0.8499 -2.8877  0.1469
10975SOL    HW244145   1.093   2.143   4.097  1.6376 -0.4227  0.2372
10976SOL     OW44146   4.549   3.239   1.674 -0.2194  0.3604 -0.0016
10976SOL    HW144147   4.506   3.153   1.646  1.0195  0.2317 -1.6364
10976SOL    HW244148   4.645   3.222   1.695 -1.1309  0.4351  4.6940
10977SOL     OW44149   5.802   2.520   3.353  0.7796  1.3114  0.6578
10977SOL    HW144150   5.709   2.492   3.377  1.9408 -0.7314  3.0380
10977SOL    HW244151   5.827   2.601   3.407 -0.2240  2.9404 -1.2938
10978SOL     OW44152   3.261   7.170   4.283  0.1099  0.2555 -0.1212
10978SOL    HW144153   3.356   7.158   4.254  0.1903 -2.3384  1.0846
10978SOL    HW244154   3.225   7.082   4.316 -2.0350  1.6674  1.4085
10979SOL     OW44155   3.489   0.179   2.095  0.6067 -0.1667 -0.2511
10979SOL    HW144156   3.571   0.180   2.038  0.0738 -0.6134 -1.0467
10979SOL    HW244157   3.440   0.093   2.080 -0.5673  0.5486 -0.6061
10980SOL     OW44158   3.933   6.845   3.396  0.7570 -0.0284 -1.0668
10980SOL    HW144159   4.004   6.775   3.388  0.2548 -0.4061 -2.4699
10980SOL    HW244160   3.848   6.811   3.355 -1.3339 -0.9422  3.7457
10981SOL     OW44161   8.866   2.041   5.289 -0.0432 -0.4771  0.1426
10981SOL    HW144162   8.812   2.049   5.206  0.0900 -1.4446 -0.0378
10981SOL    HW244163   8.884   1.945   5.309  1.3070 -0.1830  0.4009
10982SOL     OW44164   0.535   3.793   2.225 -0.6216 -0.2651  0.3305
10982SOL    HW144165   0.532   3.786   2.325 -0.2045  0.5401  0.4036
10982SOL    HW244166   0.624   3.762   2.192  0.1693  1.7871  0.4265
10983SOL     OW44167   0.684   5.057   5.317 -0.1679  0.2473 -0.6517
10983SOL    HW144168   0.687   5.096   5.225 -1.1171 -3.1924 -2.2513
10983SOL    HW244169   0.692   4.958   5.311 -2.3567 -0.2426  2.7978
10984SOL     OW44170   8.762   6.020   2.277 -0.2848  0.0292 -0.2621
10984SOL    HW144171   8.795   6.114   2.278 -2.3121  0.8633 -2.8307
10984SOL    HW244172   8.767   5.984   2.184 -2.2601 -1.3560  0.1246
10985SOL     OW44173   1.548   3.915   5.650  0.4023  0.4421  0.0090
10985SOL    HW144174   1.646   3.902   5.633  0.0393  0.2583 -2.0902
10985SOL    HW244175   1.509   3.972   5.578 -1.0898  0.2888  0.6784
10986SOL     OW44176   4.334   6.587   2.749  0.1172  0.3086 -0.3592
10986SOL    HW144177   4.411   6.632   2.704 -1.0466  1.7012 -0.9893
10986SOL    HW244178   4.308   6.506   2.696  1.3080 -0.3185  0.0019
10987SOL     OW44179   3.739   9.210   2.711  0.4270 -0.3260 -0.5646
10987SOL    HW144180   3.825   9.208   2.762  0.6342 -0.6856 -0.9182
10987SOL    HW244181   3.665   9.176   2.769  0.1027  2.0586  0.4846
10988SOL     OW44182   1.212   8.324   4.313  0.4202  0.0033 -0.0483
10988SOL    HW144183   1.302   8.364   4.298  1.0944 -0.5078  2.3624
10988SOL    HW244184   1.141   8.393   4.295  1.2851  0.4892 -1.6784
10989SOL     OW44185   1.168   9.486   3.015  0.5428 -0.2732  0.3368
10989SOL    HW144186   1.132   9.543   2.942 -0.7348 -1.3712  0.0818
10989SOL    HW244187   1.128   9.515   3.103  1.0951  0.2303  0.4188
10990SOL     OW44188   2.592   2.541   3.772  0.0892 -0.6869 -0.5862
10990SOL    HW144189   2.610   2.468   3.838  0.2077 -0.8897 -0.8446
10990SOL    HW244190   2.678   2.585   3.747 -0.0594 -0.0075  0.0924
10991SOL     OW44191   0.321   7.380   3.407  0.2316 -0.0704 -0.5088
10991SOL    HW144192   0.314   7.280   3.412  0.4425 -0.1370 -1.3697
10991SOL    HW244193   0.232   7.421   3.427  0.2622 -0.4072  0.3320
10992SOL     OW44194   9.462   8.506   2.605 -0.1629 -0.2323 -0.0374
10992SOL    HW144195   9.555   8.485   2.636 -0.0246 -0.9076 -0.8763
10992SOL    HW244196   9.410   8.546   2.680  0.3911 -1.1149  0.8254
10993SOL     OW44197   1.481   2.455   5.912 -0.0718  0.1476  0.3309
10993SOL    HW144198   1.399   2.454   5.968  0.1982 -1.2955  0.7164
10993SOL    HW244199   1.525   2.545   5.919 -1.4800  0.8433  0.2997
10994SOL     OW44200   3.291   0.190   3.879  0.1312  0.1817 -0.4048
10994SOL    HW144201   3.307   0.113   3.817  3.2239  0.4803 -0.0432
10994SOL    HW244202   3.313   0.275   3.832  1.5999  0.4764  0.7789
10995SOL     OW44203   2.728   8.128   5.305 -0.1902  0.3043  0.0356
10995SOL    HW144204   2.729   8.064   5.229 -1.0484 -2.0309  1.9420
10995SOL    HW244205   2.821   8.138   5.341 -0.0925 -0.0688 -0.1108
10996SOL     OW44206   9.955   6.746   5.899  0.1188  0.3072  0.4176
10996SOL    HW144207   9.953   6.759   5.998  1.3312 -0.9745  0.6361
10996SOL    HW244208   9.993   6.828   5.855 -0.6367  0.9651  0.9832
10997SOL     OW44209   4.250   3.305   2.749 -0.2455 -0.0545 -0.3682
10997SOL    HW144210   4.278   3.254   2.667 -2.6163 -1.7137 -0.2093
10997SOL    HW244211   4.162   3.349   2.732 -0.4164  0.1700  1.0470
10998SOL     OW44212   0.069   7.469   0.108  0.2334  0.4383 -0.2408
10998SOL    HW144213   0.105   7.527   0.181  0.3325  1.2819 -0.9589
10998SOL    HW244214   0.133   7.394   0.091  0.0190 -0.0033  0.8121
10999SOL     OW44215   3.257   0.448   2.387  0.1856 -0.1422  0.0403
10999SOL    HW144216   3.275   0.405   2.299 -1.7363  1.0721 -0.9625
10999SOL    HW244217   3.306   0.398   2.459  0.9703 -1.7312 -1.5721
11000SOL     OW44218   2.418   5.361   3.067  0.0616  0.0412  0.1523
11000SOL    HW144219   2.494   5.301   3.044 -0.3755 -0.5083  0.1231
11000SOL    HW244220   2.335   5.306   3.078  0.1316  0.3321  2.4252
11001SOL     OW44221   7.978   9.594   1.321 -0.6824  0.1053 -0.3943
11001SOL    HW144222   8.023   9.667   1.269 -1.4296  3.1302  2.9928
11001SOL    HW244223   7.881   9.616   1.333 -0.5770 -0.5970  2.0524
11002SOL     OW44224   9.640   6.620   0.867 -0.0999  0.0961  0.2109
11002SOL    HW144225   9.667   6.710   0.833 -1.4283  0.3059 -0.3094
11002SOL    HW244226   9.596   6.630   0.956  0.3914 -0.1184  0.4811
11003SOL     OW44227   2.130   3.626   6.737 -0.2594 -0.0105  0.1210
11003SOL    HW144228   2.209   3.610   6.678  0.4549  1.8281  0.5666
11003SOL    HW244229   2.155   3.607   6.832  0.4477  3.0542  0.5954
11004SOL     OW44230   4.229   4.920   0.680  0.0740 -0.4477  0.4330
11004SOL    HW144231   4.182   4.954   0.761 -1.3594 -2.6699  0.6000
11004SOL    HW244232   4.195   4.968   0.599 -0.0119  0.3313  0.9323
11005SOL     OW44233   1.656   1.932   4.679  0.2500 -0.5444 -0.0746
11005SOL    HW144234   1.674   1.969   4.770 -0.3862 -0.7764  0.1459
11005SOL    HW244235   1.685   1.836   4.675 -0.2938 -0.7114  0.0649
11006SOL     OW44236   5.069   2.350   1.011 -0.2099  0.0627 -0.0581
11006SOL    HW144237   5.021   2.369   1.096  0.2284  0.6281  0.0673
11006SOL    HW244238   5.018   2.389   0.934 -0.9094 -0.9617 -0.1180
11007SOL     OW44239   3.414   8.504   3.429 -0.0557  0.1068 -0.1497
11007SOL    HW144240   3.480   8.579   3.415 -1.3603  1.1560 -0.8267
11007SOL    HW244241   3.416   8.444   3.350 -1.4649  1.3694 -1.1651
11008SOL     OW44242   0.883   4.023   4.178  0.0390 -0.0135  0.9050
11008SOL    HW144243   0.893   4.084   4.100 -0.4631  0.2177  1.0152
11008SOL    HW244244   0.864   3.930   4.146  0.8405 -0.1205  0.7372
11009SOL     OW44245   9.254   5.739   5.106  0.3259  0.0288 -0.2539
11009SOL    HW144246   9.289   5.740   5.012  1.6555  1.0125  0.2467
11009SOL    HW244247   9.195   5.818   5.120  0.5082  0.1395 -0.1141
11010SOL     OW44248   2.115   3.950   1.342  0.0708 -0.4661 -0.0165
11010SOL    HW144249   2.040   3.903   1.389  0.2177 -0.2117  0.4730
11010SOL    HW244250   2.151   4.023   1.400  0.7410 -0.6247 -0.2205
11011SOL     OW44251   3.325   5.826   3.834 -0.6029  0.2411 -0.3143
11011SOL    HW144252   3.420   5.836   3.806 -0.2480  0.7889  1.0216
11011SOL    HW244253   3.303   5.729   3.843 -0.5637  0.0823 -1.9133
11012SOL     OW44254   9.747   4.602   4.164  1.2349  0.5994 -0.5012
11012SOL    HW144255   9.822   4.633   4.222 -0.0263 -1.0580  2.1323
11012SOL    HW244256   9.702   4.523   4.207 -2.2825  1.8044 -1.7628
11013SOL     OW44257   3.766   3.113   0.353 -0.1835  0.2076  0.2964
11013SOL    HW144258   3.773   3.048   0.278 -1.5413 -0.2933  0.5892
11013SOL    HW244259   3.848   3.169   0.357  1.2950 -1.9149  0.4226
11014SOL     OW44260   9.875   3.841   5.837 -0.0524  0.1771  0.3444
11014SOL    HW144261   9.787   3.813   5.875  0.4969 -0.7576  0.9627
11014SOL    HW244262   9.924   3.760   5.803  1.3581  0.4321  1.7115
11015SOL     OW44263   5.970   0.717   1.180 -0.2874  0.3369  0.2645
11015SOL    HW144264   6.066   0.735   1.200 -0.2564 -1.1152  1.5368
11015SOL    HW244265   5.912   0.761   1.249 -0.3529 -1.6341  1.5061
11016SOL     OW44266   3.026   8.510   3.344  0.2872  0.4205 -0.2630
11016SOL    HW144267   3.054   8.423   3.303  0.6067 -0.1150  1.0634
11016SOL    HW244268   3.088   8.582   3.314  0.8879 -0.0835 -0.2412
11017SOL     OW44269   2.159   0.522   3.206  0.2266  0.7181 -0.0642
11017SOL    HW144270   2.067   0.562   3.203  0.5952  1.8938  3.0838
11017SOL    HW244271   2.153   0.428   3.239  0.2279  1.0613  0.9201
11018SOL     OW44272   2.826   6.865   6.570 -0.2186 -0.2979  0.0879
11018SOL    HW144273   2.731   6.843   6.552 -0.0158 -0.1839 -1.1557
11018SOL    HW244274   2.833   6.958   6.605 -0.7489 -1.0002  2.1713
11019SOL     OW44275   1.324   8.786   5.009 -0.1863  0.4026 -0.1243
11019SOL    HW144276   1.305   8.717   4.939  2.0936 -1.2034  0.7709
11019SOL    HW244277   1.407   8.836   4.984  1.0491 -0.6621  1.7410
11020SOL     OW44278   2.646   1.747   3.065  0.4828  0.4691  0.5400
11020SOL    HW144279   2.628   1.790   2.977  1.0653 -1.0987 -0.3649
11020SOL    HW244280   2.579   1.674   3.082  1.2081 -0.1634  0.7414
11021SOL     OW44281   3.673   6.809   0.374  0.3045 -0.0108  0.1748
11021SOL    HW144282   3.672   6.857   0.286 -0.5983 -0.2537  0.0430
11021SOL    HW244283   3.751   6.748   0.378  1.0381  0.9125  0.0338
11022SOL     OW44284   5.988   7.772   3.497  0.0647 -0.3751 -0.2737
11022SOL    HW144285   6.017   7.725   3.413  0.8389  1.0048 -0.7825
11022SOL    HW244286   5.990   7.871   3.483 -1.3670 -0.1648  0.8677
11023SOL     OW44287   1.743   2.301   2.478 -0.4036  0.2114  0.6018
11023SOL    HW144288   1.796   2.335   2.400 -1.9376  2.6588  0.5856
11023SOL    HW244289   1.801   2.300   2.559  0.0722  1.5634  0.2900
11024SOL     OW44290   5.708   1.366   1.873  0.1772 -0.1686  0.1701
11024SOL    HW144291   5.661   1.280   1.892  0.2451  0.1270  1.7956
11024SOL    HW244292   5.800   1.363   1.913 -0.8609  1.7196  2.8737
11025SOL     OW44293   0.595   5.432   5.470 -0.9022 -0.3018 -0.2721
11025SOL    HW144294   0.635   5.348   5.507 -0.9786 -0.0248  0.4488
11025SOL    HW244295   0.666   5.503   5.466 -1.2077  0.0660  0.6177
11026SOL     OW44296   8.521   0.457   0.613 -0.1953  0.1593  0.0298
11026SOL    HW144297   8.558   0.445   0.705 -1.2050  0.0385  0.4312
11026SOL    HW244298   8.442   0.518   0.617 -0.3308  0.0395 -0.7385
11027SOL     OW44299   9.810   1.941   0.845  0.1226 -0.2537  0.2460
11027SOL    HW144300   9.818   1.872   0.773 -2.6710  0.3973 -0.7388
11027SOL    HW244301   9.713   1.953   0.869  0.7656  1.7196  1.9785
11028SOL     OW44302   2.052   6.125   3.346  0.2382 -0.0560 -0.2683
11028SOL    HW144303   2.069   6.144   3.443 -1.7885 -1.0664  0.3249
11028SOL    HW244304   1.959   6.155   3.322 -0.1662 -2.0243 -1.2622
11029SOL     OW44305   2.546   5.933   0.238 -0.1556 -0.5344 -0.4763
11029SOL    HW144306   2.631   5.986   0.247  0.2873 -1.3687  0.2607
11029SOL    HW244307   2.562   5.839   0.267 -1.2102 -0.8255 -0.8209
11030SOL     OW44308   5.974   0.667   2.912 -0.0755 -0.3793  0.1714
11030SOL    HW144309   5.948   0.675   2.816 -0.9542  0.3154  0.4532
11030SOL    HW244310   6.042   0.595   2.923 -1.9520 -2.3087 -0.5869
11031SOL     OW44311   1.334   5.987   2.585  0.2855 -0.1233 -0.1970
11031SOL    HW144312   1.287   5.948   2.664  0.2675  0.5573  0.1391
11031SOL    HW244313   1.267   6.009   2.514  0.3331 -0.9752 -0.5025
11032SOL     OW44314   5.306   7.403   4.032 -0.1425 -0.0122  0.7219
11032SOL    HW144315   5.383   7.457   4.067 -0.8729  1.2980  0.3373
11032SOL    HW244316   5.336   7.349   3.954  0.5454 -0.0143  0.9823
11033SOL     OW44317   0.776   2.613   1.398  0.0509  0.1543 -0.2899
11033SOL    HW144318   0.779   2.595   1.299 -0.1601  2.1834 -0.6912
11033SOL    HW244319   0.689   2.656   1.421  0.8184  1.3139  0.4863
11034SOL     OW44320   4.606   0.637   5.079  0.2607  0.5126 -0.4717
11034SOL    HW144321   4.529   0.575   5.098  1.8653 -1.8296 -1.3806
11034SOL    HW244322   4.573   0.731   5.076 -2.4960 -0.4057 -0.4093
11035SOL     OW44323   0.193   1.740   0.827  0.0169  0.2814  0.2384
11035SOL    HW144324   0.144   1.669   0.777 -0.4446  0.6850  0.1096
11035SOL    HW244325   0.281   1.704   0.860 -0.3869 -0.4612  0.5145
11036SOL     OW44326   9.820   0.081   2.299 -0.6443 -0.6264 -0.1508
11036SOL    HW144327   9.836  -0.018   2.297 -0.0643 -0.5330 -0.2358
11036SOL    HW244328   9.723   0.098   2.317 -0.8721 -1.2159 -0.7700
11037SOL     OW44329   4.269   2.301   3.069  0.2683  0.0126  0.6927
11037SOL    HW144330   4.183   2.287   3.019  0.8308 -0.7671 -0.0599
11037SOL    HW244331   4.291   2.219   3.122  1.5799 -0.5680 -0.7095
11038SOL     OW44332   1.786   7.550   6.171  0.1679 -0.8459 -0.2741
11038SOL    HW144333   1.858   7.564   6.240 -1.7705 -1.4259  1.9472
11038SOL    HW244334   1.716   7.621   6.181 -0.3118 -1.1559 -1.4116
11039SOL     OW44335   1.730   4.360   1.312  0.4369 -0.4616 -0.1460
11039SOL    HW144336   1.791   4.374   1.234  1.0115 -2.4330 -0.0719
11039SOL    HW244337   1.725   4.444   1.366  1.1779  0.4639 -1.4833
11040SOL     OW44338   9.467   6.650   3.870 -0.6308  0.2282  0.4809
11040SOL    HW144339   9.451   6.575   3.934  0.4826  2.0373  2.9179
11040SOL    HW244340   9.548   6.630   3.815 -0.1656 -0.1866  1.3240
11041SOL     OW44341   0.816   5.930   6.086  0.1057  0.0903 -0.2688
11041SOL    HW144342   0.869   6.014   6.080 -0.4513  0.5401  0.9518
11041SOL    HW244343   0.864   5.857   6.038  1.7003  0.5584  0.5776
11042SOL     OW44344   0.325   9.115   3.305  0.9013 -0.4629  0.5696
11042SOL    HW144345   0.339   9.179   3.380  0.3496 -0.6195  0.8094
11042SOL    HW244346   0.383   9.141   3.228  1.7068 -0.4919  1.1626
11043SOL     OW44347   3.026   2.083   0.687 -0.2520 -0.4193  0.6912
11043SOL    HW144348   3.042   2.138   0.605  1.5351  0.4487  1.5864
11043SOL    HW244349   2.928   2.083   0.709 -0.4845  1.0215 -0.2714
11044SOL     OW44350   1.341   0.691   3.211  0.1184  0.1590 -0.1871
11044SOL    HW144351   1.298   0.778   3.184 -0.2438  0.2440  0.6427
11044SOL    HW244352   1.371   0.698   3.306  0.5462 -0.4550 -0.2801
11045SOL     OW44353   4.821   1.943   2.713 -0.3190  0.3115 -0.3657
11045SOL    HW144354   4.907   1.947   2.765 -0.4373  0.7345 -0.1996
11045SOL    HW244355   4.784   1.850   2.718  0.1626  0.1099 -0.4935
11046SOL     OW44356   8.849   5.324   5.830  0.3972 -0.3032 -0.1363
11046SOL    HW144357   8.833   5.422   5.817 -0.4442 -0.4072  0.1367
11046SOL    HW244358   8.868   5.305   5.926  0.9495 -0.3581 -0.2520
11047SOL     OW44359   1.440   6.629   0.505 -0.6072  0.4150  0.4693
11047SOL    HW144360   1.359   6.592   0.551 -0.1625  2.1133  2.7018
11047SOL    HW244361   1.516   6.565   0.515 -1.2853 -0.5621 -0.4694
11048SOL     OW44362   4.681   2.907   3.867  0.0907 -0.1182  0.2573
11048SOL    HW144363   4.672   2.818   3.823 -4.0291  0.3643 -0.0732
11048SOL    HW244364   4.663   2.980   3.801 -1.8747  0.7298  1.6433
11049SOL     OW44365   8.262   3.653   2.010  0.8354 -0.4507 -0.3860
11049SOL    HW144366   8.235   3.744   1.980  0.6029 -0.1293  0.7708
11049SOL    HW244367   8.255   3.647   2.110  0.9191 -1.7058 -0.4429
11050SOL     OW44368   1.948   8.355   4.047  0.1601 -0.6491 -0.0987
11050SOL    HW144369   2.042   8.354   4.082  0.0809  1.0082  0.1824
11050SOL    HW244370   1.944   8.413   3.965 -0.5922 -0.8409 -0.2002
11051SOL     OW44371   4.346   5.173   0.294  0.0921 -0.0976  0.5529
11051SOL    HW144372   4.331   5.075   0.304 -0.6297 -0.1138 -0.6425
11051SOL    HW244373   4.344   5.216   0.385 -0.1875 -1.1030  1.0269
11052SOL     OW44374   1.684   6.078   6.653  0.0873 -0.0998 -0.0133
11052SOL    HW144375   1.613   6.139   6.689  0.8674  0.6584  0.2737
11052SOL    HW244376   1.751   6.059   6.726  0.8742  0.2398 -0.6405
11053SOL     OW44377   2.812   7.124   6.662  0.1255  0.0725  0.5304
11053SOL    HW144378   2.726   7.170   6.637 -1.3086 -3.1721 -0.8072
11053SOL    HW244379   2.816   7.112   6.761 -1.3541 -0.3971  0.5534
11054SOL     OW44380   3.815   5.073   5.687  0.2804  1.1578  0.4249
11054SOL    HW144381   3.908   5.045   5.711 -0.1132 -1.7925 -1.2612
11054SOL    HW244382   3.799   5.167   5.718  1.9504 -0.1356  5.6279
11055SOL     OW44383   9.813   0.839   5.851 -1.0141  0.0260 -0.0520
11055SOL    HW144384   9.778   0.746   5.859  0.7106 -0.7075 -0.8249
11055SOL    HW244385   9.789   0.876   5.761 -0.6531 -0.1061 -0.2012
11056SOL     OW44386   0.971   5.751   5.940  0.3191  0.0646  0.8167
11056SOL    HW144387   1.060   5.728   5.979  0.7733  0.9440  0.3204
11056SOL    HW244388   0.928   5.668   5.905  1.4721 -0.1867 -0.0346
11057SOL     OW44389   8.676   8.041   1.831  0.4403  0.2661 -0.2974
11057SOL    HW144390   8.598   7.981   1.811 -0.2272  0.9884  0.1406
11057SOL    HW244391   8.666   8.126   1.779  1.1307  0.2052 -0.5291
11058SOL     OW44392   1.647   1.298   2.629 -0.4431 -0.5449 -0.0348
11058SOL    HW144393   1.690   1.218   2.670  2.6421  1.4319  0.7316
11058SOL    HW244394   1.625   1.364   2.700 -2.6523 -0.5160 -0.7083
11059SOL     OW44395   2.938   5.549   0.419 -0.2072  0.1669  0.1128
11059SOL    HW144396   2.863   5.483   0.423 -0.2234  0.1427 -0.5359
11059SOL    HW244397   2.920   5.624   0.483 -0.2525 -0.3844  0.7554
11060SOL     OW44398   2.558   6.685   5.211 -0.0960  0.1319  0.2111
11060SOL    HW144399   2.615   6.718   5.286  0.2926  0.2422 -0.1328
11060SOL    HW244400   2.537   6.760   5.149 -0.2208 -0.0081  0.0823
11061SOL     OW44401   9.520   7.127   3.439  0.5214 -0.4643  0.3289
11061SOL    HW144402   9.503   7.088   3.348 -0.5137 -0.9847  0.7460
11061SOL    HW244403   9.497   7.224   3.438 -0.1099 -0.6109  0.2034
11062SOL     OW44404   4.173   0.689   2.992 -0.4262 -0.2414  0.3681
11062SOL    HW144405   4.235   0.613   3.013 -1.5054 -0.6688  2.1215
11062SOL    HW244406   4.079   0.656   2.987 -0.6599  0.5783 -1.2936
11063SOL     OW44407   0.203   6.338   6.671 -0.5808  0.4170  0.8779
11063SOL    HW144408   0.174   6.430   6.698 -1.9287  0.5415 -0.8371
11063SOL    HW244409   0.301   6.328   6.686 -0.4233  2.1147  1.1578
11064SOL     OW44410   3.911   7.915   6.637  0.6697  0.3587  0.0413
11064SOL    HW144411   3.885   7.850   6.565 -2.5936  0.6981  0.8334
11064SOL    HW244412   3.964   7.989   6.596  2.0108 -1.3095 -1.3577
11065SOL     OW44413   9.911   4.037   0.960  0.1079  0.0550  0.1028
11065SOL    HW144414  10.005   4.024   0.992  0.1737  1.6297  0.5684
11065SOL    HW244415   9.897   4.133   0.934 -2.0269  0.3419  2.1694
11066SOL     OW44416   1.804   7.668   2.826 -0.1544 -0.3248  0.0588
11066SOL    HW144417   1.876   7.676   2.895 -1.3647  0.0273  1.3035
11066SOL    HW244418   1.736   7.601   2.856 -0.0816 -1.0476 -1.3473
11067SOL     OW44419   2.341   1.790   3.419 -0.2626 -0.0304  0.2985
11067SOL    HW144420   2.384   1.842   3.345 -0.9056 -1.2590 -0.9488
11067SOL    HW244421   2.352   1.692   3.402 -1.7838 -0.3351  1.0106
11068SOL     OW44422   1.925   1.903   6.637  0.1200 -0.1241  0.6957
11068SOL    HW144423   1.925   2.001   6.656  0.0875  0.0669 -0.2550
11068SOL    HW244424   1.954   1.887   6.543  1.6475 -1.1297  1.3229
11069SOL     OW44425   7.663   9.278   4.173 -0.9124 -0.2218 -0.3282
11069SOL    HW144426   7.666   9.178   4.173 -0.5825 -0.2127  0.0804
11069SOL    HW244427   7.569   9.308   4.156 -0.8910 -0.5902 -1.1402
11070SOL     OW44428   7.494   2.018   2.229  0.0819  0.0637 -0.0759
11070SOL    HW144429   7.438   1.977   2.157  0.2289  1.4087 -0.9688
11070SOL    HW244430   7.547   2.094   2.192  0.4611  0.5246  1.3603
11071SOL     OW44431   8.040   7.093   2.144 -0.0092  0.6127 -0.0778
11071SOL    HW144432   8.123   7.038   2.131  0.9978  2.1042 -0.0034
11071SOL    HW244433   7.964   7.032   2.171  0.8263 -0.8740 -0.9869
11072SOL     OW44434   0.786   7.922   5.087  0.3050  0.2298  0.1262
11072SOL    HW144435   0.802   7.930   4.989  0.0086  0.2091  0.0762
11072SOL    HW244436   0.698   7.877   5.103  1.1409 -1.3328  0.4039
11073SOL     OW44437   9.791   9.822   4.679 -0.5588  0.0969 -0.5225
11073SOL    HW144438   9.811   9.840   4.582  0.4738 -2.2005 -0.7611
11073SOL    HW244439   9.846   9.883   4.736  2.3981 -1.7051 -1.3258
11074SOL     OW44440   8.063   1.337   1.188  0.2194  0.0172 -0.2820
11074SOL    HW144441   7.970   1.302   1.181  0.2156 -0.0441  0.0687
11074SOL    HW244442   8.070   1.424   1.139 -0.9624  1.8497  2.6633
11075SOL     OW44443   1.332   9.550   3.415  0.0327  0.0995  0.0762
11075SOL    HW144444   1.399   9.530   3.343 -1.3111 -0.8038 -0.9515
11075SOL    HW244445   1.276   9.469   3.431  0.1441  0.3873  1.9726
11076SOL     OW44446   1.196   9.821   3.605  0.0670 -0.0604 -0.1385
11076SOL    HW144447   1.163   9.781   3.520  2.2221 -1.3147 -0.4333
11076SOL    HW244448   1.177   9.759   3.681  0.5386 -0.1827 -0.1167
11077SOL     OW44449   0.773   6.051   2.761 -0.6250 -0.5542 -0.1342
11077SOL    HW144450   0.742   6.120   2.825  2.6356 -0.1623  1.1127
11077SOL    HW244451   0.838   6.091   2.696 -0.3213 -1.9644 -0.7394
11078SOL     OW44452   4.273   1.138   6.007 -0.1818 -0.2991 -0.1503
11078SOL    HW144453   4.292   1.044   5.980  0.3243 -0.1317 -0.3722
11078SOL    HW244454   4.314   1.201   5.942  1.7543  0.1177  1.4421
11079SOL     OW44455   9.757   1.742   0.105  0.5474 -0.0100  0.0928
11079SOL    HW144456   9.776   1.696   0.191 -0.9207  0.8025  0.8705
11079SOL    HW244457   9.789   1.837   0.110 -0.5085  0.3571  0.1667
11080SOL     OW44458   8.231   2.473   3.005 -0.4447 -0.1061  0.2813
11080SOL    HW144459   8.148   2.422   2.983  0.8934 -1.8180 -0.9742
11080SOL    HW244460   8.284   2.423   3.074  0.4818 -0.0186 -0.3559
11081SOL     OW44461   7.792   3.618   6.642  0.8013 -0.0368 -0.4187
11081SOL    HW144462   7.840   3.622   6.554 -2.5904  0.3165 -2.3495
11081SOL    HW244463   7.782   3.710   6.678  0.1329  0.0539 -0.8354
11082SOL     OW44464   4.015   6.721   3.105  0.1674 -0.2773  0.8507
11082SOL    HW144465   4.048   6.760   3.019  1.3103  0.0876  1.4455
11082SOL    HW244466   3.925   6.681   3.090  0.0295  0.4329 -0.3436
11083SOL     OW44467   4.863   0.716   5.237 -0.6905  0.1737 -0.0641
11083SOL    HW144468   4.783   0.703   5.179 -1.7715  1.1101  1.1937
11083SOL    HW244469   4.863   0.649   5.311  0.2299 -0.4573 -0.6124
11084SOL     OW44470   9.036   6.703   4.051  0.5090 -0.1930 -0.5106
11084SOL    HW144471   9.031   6.797   4.018  0.4384 -0.1425 -0.3555
11084SOL    HW244472   9.093   6.698   4.132  0.3904 -0.2592 -0.4307
11085SOL     OW44473   4.490   9.055   1.289  0.2760  0.4834  0.1215
11085SOL    HW144474   4.554   9.041   1.213  1.1274 -1.0652  1.1120
11085SOL    HW244475   4.536   9.036   1.376 -0.9077  1.5204  0.9914
11086SOL     OW44476   3.104   1.754   2.009  0.3492  0.4565  0.3093
11086SOL    HW144477   3.088   1.849   1.982 -0.2965 -0.1411 -1.4385
11086SOL    HW244478   3.199   1.730   1.989 -0.0873  0.0594 -1.3216
11087SOL     OW44479   7.199   0.052   1.839  0.0974  0.1488  0.4972
11087SOL    HW144480   7.298   0.042   1.829  0.4956  2.7100  1.3167
11087SOL    HW244481   7.158   0.074   1.750 -0.0217 -2.7447 -0.1940
11088SOL     OW44482   8.520   5.133   3.228 -0.1316 -1.1813 -0.8643
11088SOL    HW144483   8.587   5.201   3.257 -0.1930 -1.5535  0.1544
11088SOL    HW244484   8.510   5.063   3.299 -1.8458 -0.9447 -0.8632
11089SOL     OW44485   8.488   0.631   4.345 -0.2753  0.0371  0.6024
11089SOL    HW144486   8.514   0.720   4.380 -1.1630  0.5125  0.0880
11089SOL    HW244487   8.534   0.614   4.258 -0.5345  0.2415  0.4227
11090SOL     OW44488   2.194   8.047   3.983  0.6629  0.1306 -0.0633
11090SOL    HW144489   2.179   8.030   4.081 -0.3611 -0.7170 -0.3556
11090SOL    HW244490   2.177   8.143   3.963 -0.3339  0.0559  0.3762
11091SOL     OW44491   0.002   8.340   0.066  0.1926  0.3369 -0.2004
11091SOL    HW144492   0.081   8.329   0.006 -0.5433 -1.5345 -0.8415
11091SOL    HW244493  -0.013   8.438   0.082  2.5217  0.7365 -0.1943
11092SOL     OW44494   0.558   7.979   0.144 -0.0174 -0.6252  0.0758
11092SOL    HW144495   0.539   8.073   0.174 -1.6165 -0.7765 -0.4514
11092SOL    HW244496   0.629   7.980   0.073 -0.0772  0.1862  0.0255
11093SOL     OW44497   1.823   7.396   6.638  0.3148 -0.2341  0.7180
11093SOL    HW144498   1.827   7.465   6.565 -0.8093  1.1778  1.9441
11093SOL    HW244499   1.915   7.381   6.675  1.1301 -2.0045 -1.8961
11094SOL     OW44500   3.941   3.913   2.528  0.4265 -0.1524  0.3621
11094SOL    HW144501   4.030   3.952   2.551  1.3552 -0.9205 -1.8306
11094SOL    HW244502   3.886   3.982   2.480  1.1181 -0.7170 -1.2665
11095SOL     OW44503   1.408   5.746   6.227 -0.3584  0.0145 -0.3252
11095SOL    HW144504   1.379   5.840   6.205 -0.5981 -0.0967 -0.4849
11095SOL    HW244505   1.442   5.743   6.321  1.8603  0.7598 -1.0848
11096SOL     OW44506   9.805   9.298   2.553 -0.5565  0.0900  0.0933
11096SOL    HW144507   9.800   9.293   2.453 -0.4562  0.7219  0.0542
11096SOL    HW244508   9.843   9.386   2.580 -0.9384  0.0704  0.7021
11097SOL     OW44509   1.836   9.972   0.789  0.0241 -0.1764  0.6392
11097SOL    HW144510   1.765  10.042   0.790 -0.4080 -0.5457 -1.9625
11097SOL    HW244511   1.794   9.882   0.796  0.3349 -0.3373  0.4460
11098SOL     OW44512   0.946   7.122   4.724  0.6832 -0.1749  0.4323
11098SOL    HW144513   0.849   7.142   4.705  0.8268 -0.1928 -0.3294
11098SOL    HW244514   0.957   7.101   4.821  0.4398  2.9688  1.1917
11099SOL     OW44515   4.543   1.605   6.659 -0.8129  0.4071 -0.1194
11099SOL    HW144516   4.527   1.506   6.658 -0.6951  0.3567  1.5749
11099SOL    HW244517   4.619   1.625   6.720 -0.8406  1.5445 -0.4603
11100SOL     OW44518   0.028   2.429   0.973 -0.4523 -0.0237 -0.2677
11100SOL    HW144519   0.033   2.331   0.956  0.3328 -0.1852  0.9121
11100SOL    HW244520  -0.065   2.453   1.001 -0.7841 -0.3381 -1.0894
11101SOL     OW44521   0.777   7.487   6.666  0.1280  0.4459  0.3532
11101SOL    HW144522   0.759   7.409   6.605  1.2531  0.6205 -0.2150
11101SOL    HW244523   0.814   7.563   6.612 -1.9132  1.7536  0.7324
11102SOL     OW44524   8.561   8.291   2.741  0.1182 -0.4117  0.4326
11102SOL    HW144525   8.542   8.329   2.832  1.7410 -0.2629  0.7199
11102SOL    HW244526   8.475   8.263   2.698 -0.8308  1.1043  1.3086
11103SOL     OW44527   4.989   1.022   0.589  0.1278  0.8478 -1.1113
11103SOL    HW144528   4.894   1.040   0.614  0.1314  0.6094 -0.9288
11103SOL    HW244529   5.023   1.097   0.531  1.1973  3.2159  2.3711
11104SOL     OW44530   1.193   5.163   0.985  0.0002  0.3662 -0.5864
11104SOL    HW144531   1.193   5.150   1.084  0.5039 -1.0110 -0.7549
11104SOL    HW244532   1.101   5.189   0.955 -0.6194 -1.0455  0.0350
11105SOL     OW44533   3.134   3.261   2.183 -0.3283 -0.2345 -0.2844
11105SOL    HW144534   3.095   3.176   2.220  1.3969 -0.0560  2.0853
11105SOL    HW244535   3.233   3.259   2.194 -0.0747  1.2371 -2.0875
11106SOL     OW44536   9.610   4.759   1.655  0.3743  0.4504  0.2332
11106SOL    HW144537   9.667   4.707   1.592  1.2906 -0.1469  1.5129
11106SOL    HW244538   9.537   4.701   1.690 -1.2914  1.3365 -1.7184
11107SOL     OW44539   4.456   3.822   1.116 -0.7175  0.1006  0.9687
11107SOL    HW144540   4.373   3.818   1.172 -0.7625 -2.0820  0.8131
11107SOL    HW244541   4.525   3.878   1.162 -1.1035 -0.8413  2.7398
11108SOL     OW44542   4.296   5.234   3.486 -0.2489  0.4187 -0.3594
11108SOL    HW144543   4.255   5.294   3.555  0.4418  0.8557 -0.3275
11108SOL    HW244544   4.395   5.233   3.497 -0.3132 -1.3276  0.1178
11109SOL     OW44545   8.082   0.462   0.869  0.3710 -0.0241 -0.1234
11109SOL    HW144546   8.101   0.366   0.845  0.4654  0.0383 -0.2997
11109SOL    HW244547   8.142   0.522   0.816 -0.8337  0.2053 -1.2287
11110SOL     OW44548   4.282   8.555   0.234  0.2404  0.5005  0.6631
11110SOL    HW144549   4.232   8.596   0.158  0.0838  0.5981  0.8176
11110SOL    HW244550   4.249   8.594   0.320 -0.7354 -0.8046  0.8968
11111SOL     OW44551   4.443   9.542   3.534 -0.0685 -0.2212  0.4943
11111SOL    HW144552   4.414   9.466   3.476  1.3943  0.2312 -0.8457
11111SOL    HW244553   4.377   9.553   3.609 -1.7189 -1.1123 -0.7783
11112SOL     OW44554   1.609   8.768   4.597 -0.1375  0.4360  0.6758
11112SOL    HW144555   1.582   8.673   4.584 -0.4597  0.2986  2.2422
11112SOL    HW244556   1.699   8.783   4.555  0.6299 -0.9653  1.7609
11113SOL     OW44557   7.931   9.291   4.723 -0.0361 -0.0264  0.3866
11113SOL    HW144558   7.955   9.298   4.820 -1.2546  1.7534  0.5885
11113SOL    HW244559   8.010   9.317   4.668  0.6720 -1.0635  0.8893
11114SOL     OW44560   8.342   7.904   2.464  0.1786 -0.0688 -0.3115
11114SOL    HW144561   8.300   7.881   2.377  1.0993 -4.2987  0.2552
11114SOL    HW244562   8.273   7.941   2.526 -1.1941 -0.2790 -1.6864
11115SOL     OW44563   8.645   8.241   6.428 -0.1950 -0.2859  0.1284
11115SOL    HW144564   8.681   8.308   6.363  0.2426 -1.2545 -0.6565
11115SOL    HW244565   8.604   8.288   6.506  1.7291  0.8597  0.4802
11116SOL     OW44566   9.095   1.867   1.298 -0.0630  0.2682 -0.5669
11116SOL    HW144567   9.163   1.939   1.314 -0.0917 -0.0454  0.9881
11116SOL    HW244568   9.120   1.786   1.350 -1.2341 -0.1091 -0.5892
11117SOL     OW44569   0.447   2.019   4.356  0.2458 -0.3054 -0.6268
11117SOL    HW144570   0.494   2.105   4.334 -2.2313  1.1013 -0.6184
11117SOL    HW244571   0.418   1.974   4.271  0.3470 -0.4454 -0.5870
11118SOL     OW44572   9.858   1.211   3.887 -0.2584  0.7875  0.2281
11118SOL    HW144573   9.858   1.220   3.987  0.3975  0.5789  0.2527
11118SOL    HW244574   9.765   1.201   3.854 -0.4601  0.6179  0.8442
11119SOL     OW44575   8.312   6.570   1.605  0.5550 -0.1781 -0.2218
11119SOL    HW144576   8.388   6.506   1.610 -0.1701 -1.0359 -0.0689
11119SOL    HW244577   8.308   6.610   1.514  1.7474  0.5807  0.0408
11120SOL     OW44578   9.998   6.215   3.776 -0.4225  0.0994  0.4124
11120SOL    HW144579  10.047   6.289   3.729 -0.1189  0.1219  0.7610
11120SOL    HW244580   9.952   6.157   3.708  1.7865 -1.1318 -0.0916
11121SOL     OW44581   5.755   9.502   3.147  0.5218  0.2789  0.5435
11121SOL    HW144582   5.710   9.430   3.094 -0.0532  1.5855 -0.7924
11121SOL    HW244583   5.853   9.503   3.125  0.4598  0.1402  0.2567
11122SOL     OW44584   1.478   5.902   1.671 -0.4922 -0.1615  0.4110
11122SOL    HW144585   1.387   5.875   1.700 -0.7319  1.0553  0.8147
11122SOL    HW244586   1.532   5.928   1.751 -0.0273 -0.1658  0.1010
11123SOL     OW44587   4.943   4.916   0.633  0.2789  0.0690 -0.2776
11123SOL    HW144588   4.924   4.986   0.702  1.1466 -0.1240  0.1694
11123SOL    HW244589   4.920   4.952   0.543  0.4538  0.8328 -0.0255
11124SOL     OW44590   0.422   4.916   2.351 -0.1173 -0.4735 -0.3292
11124SOL    HW144591   0.340   4.878   2.394 -0.2385  0.4627  0.2907
11124SOL    HW244592   0.488   4.843   2.335  0.0943 -0.7896  1.8151
11125SOL     OW44593   4.645   2.083   0.114 -0.7009  0.1066  0.1284
11125SOL    HW144594   4.633   2.129   0.026  1.7452 -0.9663 -0.8329
11125SOL    HW244595   4.606   1.991   0.108  0.9723 -0.5841 -0.4299
11126SOL     OW44596   7.877   2.299   1.222  0.0922  0.3376 -0.2046
11126SOL    HW144597   7.965   2.316   1.267 -0.0761  0.2216  0.1711
11126SOL    HW244598   7.847   2.206   1.241  0.9914 -0.3927 -2.2444
11127SOL     OW44599   1.723   1.649   5.769  0.0138  0.5564 -0.0115
11127SOL    HW144600   1.704   1.632   5.672 -1.7784 -0.9539  0.5733
11127SOL    HW244601   1.686   1.738   5.796 -0.6931  0.3762 -0.3877
11128SOL     OW44602   0.296   9.570   1.330  0.2820  0.9282  0.0039
11128SOL    HW144603   0.203   9.537   1.313  1.3908 -1.0665 -2.5524
11128SOL    HW244604   0.341   9.510   1.397  0.3609  0.7512 -0.2086
11129SOL     OW44605   0.510   4.940   5.513  0.2042  0.1267  0.0394
11129SOL    HW144606   0.428   4.989   5.484  0.0863  1.1583  2.1030
11129SOL    HW244607   0.588   5.002   5.511 -0.0745  0.6234  3.3607
11130SOL     OW44608   9.020   7.313   4.439 -0.6175  0.1039 -0.1602
11130SOL    HW144609   9.103   7.263   4.410 -0.9940  0.6138 -2.1766
11130SOL    HW244610   9.024   7.406   4.404 -2.7607 -0.3196 -1.6251
11131SOL     OW44611   0.831   9.692   3.125  0.6508  0.6406  0.0818
11131SOL    HW144612   0.771   9.716   3.049  1.2358 -0.6924 -0.8166
11131SOL    HW244613   0.828   9.765   3.194 -0.3220  1.5918 -0.9419
11132SOL     OW44614   4.012   0.798   2.480  0.1413  0.1991 -0.1977
11132SOL    HW144615   3.914   0.800   2.459 -0.4948 -0.7327  2.3896
11132SOL    HW244616   4.027   0.743   2.563  2.8019  0.7850 -0.2376
11133SOL     OW44617   4.483   1.014   3.091 -0.0308 -0.2167  0.0606
11133SOL    HW144618   4.527   0.952   3.026  0.4420  2.3693 -2.2171
11133SOL    HW244619   4.397   1.048   3.051 -0.6149  0.0729  1.5490
11134SOL     OW44620   1.397   2.359   3.304  0.4674 -0.3809  0.1048
11134SOL    HW144621   1.376   2.370   3.207 -0.0328  0.3826  0.2913
11134SOL    HW244622   1.313   2.339   3.354  0.5324  0.3947  0.5374
11135SOL     OW44623   8.711   4.279   6.016 -0.3382  0.0181  0.3354
11135SOL    HW144624   8.767   4.297   6.097  1.1787  0.2641 -0.7338
11135SOL    HW244625   8.674   4.365   5.981  1.2770  0.2903 -0.7990
11136SOL     OW44626   0.081   3.478   4.103 -0.7742  0.4009 -0.3773
11136SOL    HW144627   0.117   3.557   4.054 -0.5135  0.9432  0.6892
11136SOL    HW244628   0.004   3.506   4.161 -0.1175  0.0440  0.6802
11137SOL     OW44629   1.868   3.199   4.937 -0.1286  0.3845  0.1498
11137SOL    HW144630   1.774   3.168   4.926 -0.0578 -0.4897  1.7890
11137SOL    HW244631   1.869   3.289   4.981 -0.2154  0.8097 -0.7102
11138SOL     OW44632   8.861   4.895   3.117 -0.4496 -0.1734  0.5477
11138SOL    HW144633   8.769   4.865   3.143 -0.5335 -1.5715 -1.2411
11138SOL    HW244634   8.869   4.893   3.017  1.2683  0.7380  0.6543
11139SOL     OW44635   3.210   9.471   4.023  0.0786  0.9456 -0.1155
11139SOL    HW144636   3.204   9.563   3.985 -2.0230  0.4190 -1.1184
11139SOL    HW244637   3.300   9.433   4.002  0.1441  1.9195 -1.6871
11140SOL     OW44638   8.067   2.350   2.714  0.2309  0.2197 -0.6808
11140SOL    HW144639   8.102   2.287   2.783  1.6849  0.0645 -1.5360
11140SOL    HW244640   8.125   2.432   2.712  1.0596 -0.3966 -2.6962
11141SOL     OW44641   1.003   5.761   2.810  0.1698 -0.2181  0.2905
11141SOL    HW144642   0.972   5.721   2.723  1.0976 -1.0431  0.3251
11141SOL    HW244643   1.076   5.704   2.848  1.8664  1.7567  0.1230
11142SOL     OW44644   3.602   8.206   5.371 -0.1814 -0.0338  0.4530
11142SOL    HW144645   3.619   8.113   5.338  0.7987  1.0520 -2.2548
11142SOL    HW244646   3.689   8.255   5.379 -0.7590  0.9117  1.0385
11143SOL     OW44647   7.642   0.545   6.156  0.1874 -0.5608 -0.6970
11143SOL    HW144648   7.667   0.635   6.119  0.0180  0.0455  0.6402
11143SOL    HW244649   7.645   0.477   6.082  0.6722  0.4665 -1.6452
11144SOL     OW44650   4.577   2.701   2.689  0.4983 -0.3148 -0.1556
11144SOL    HW144651   4.609   2.665   2.602  1.8412 -0.2787  0.3107
11144SOL    HW244652   4.483   2.734   2.679  0.0448 -1.8704 -1.1428
11145SOL     OW44653   1.290   3.431   4.367 -0.4358 -0.0366 -0.2017
11145SOL    HW144654   1.207   3.375   4.355 -0.4546  0.2289 -1.3478
11145SOL    HW244655   1.342   3.432   4.282  1.1265 -0.7816  0.7256
11146SOL     OW44656   7.994   1.805   0.737  0.2719 -0.2299 -0.2014
11146SOL    HW144657   7.996   1.785   0.639 -0.4920 -1.0479 -0.0505
11146SOL    HW244658   7.925   1.748   0.782  2.2541 -1.6109  1.2004
11147SOL     OW44659   1.483   2.417   2.424 -0.4728 -0.5676  0.4834
11147SOL    HW144660   1.522   2.505   2.397 -0.2886  0.1413  3.0090
11147SOL    HW244661   1.553   2.346   2.419 -0.1756 -0.2513  0.1555
11148SOL     OW44662   4.199   5.082   5.356 -0.5639 -0.2108 -0.7753
11148SOL    HW144663   4.148   5.119   5.434  1.3030  0.7842  0.0057
11148SOL    HW244664   4.169   5.127   5.272 -0.0106  1.3823 -0.1432
11149SOL     OW44665   2.654   8.730   3.388  0.2523 -0.2962  0.0569
11149SOL    HW144666   2.649   8.738   3.288  1.7460 -0.8585 -0.0845
11149SOL    HW244667   2.588   8.791   3.430 -0.5091 -0.1733 -1.2867
11150SOL     OW44668   1.470   5.576   2.604  0.3333  0.2321  0.0589
11150SOL    HW144669   1.398   5.606   2.542  0.0102 -0.5930  0.0266
11150SOL    HW244670   1.433   5.507   2.667  0.7064  0.9157  1.0361
11151SOL     OW44671   1.570   1.889   2.189 -0.1481 -0.1361  0.1428
11151SOL    HW144672   1.645   1.822   2.189 -0.4331 -0.4579 -0.2062
11151SOL    HW244673   1.601   1.974   2.146 -0.1028 -0.4067 -0.3671
11152SOL     OW44674   9.976   0.609   5.458 -0.6049 -0.2312  0.5529
11152SOL    HW144675   9.898   0.645   5.408  0.0547 -2.5212 -2.2615
11152SOL    HW244676  10.000   0.672   5.532 -1.8938  3.1051 -1.7203
11153SOL     OW44677   3.835   3.361   1.010 -0.3066  0.0084 -0.0967
11153SOL    HW144678   3.836   3.273   0.962  0.6390  0.0210 -0.1201
11153SOL    HW244679   3.859   3.434   0.945 -1.0654  0.2808 -0.0722
11154SOL     OW44680   3.588   5.108   6.327  0.3947 -0.1228  0.0086
11154SOL    HW144681   3.541   5.082   6.411  0.1802 -0.8579 -0.3335
11154SOL    HW244682   3.629   5.027   6.285  2.6443  0.6245  0.7006
11155SOL     OW44683   6.884   9.865   5.116 -0.1991 -0.3049 -0.0105
11155SOL    HW144684   6.965   9.910   5.078 -0.6611  0.1715 -0.4379
11155SOL    HW244685   6.911   9.779   5.159  0.3856 -0.6635 -1.0839
11156SOL     OW44686   5.454   8.010   1.841  0.2479  0.0471 -0.2623
11156SOL    HW144687   5.378   8.070   1.863  0.2208 -0.0541 -0.0850
11156SOL    HW244688   5.419   7.919   1.816  0.3338 -0.1204  0.2243
11157SOL     OW44689   8.672   6.313   4.753 -0.3419  0.5214 -0.2856
11157SOL    HW144690   8.574   6.312   4.732 -0.5077 -2.3033  0.4353
11157SOL    HW244691   8.685   6.326   4.852  0.0954  2.4505 -0.5684
11158SOL     OW44692   8.723   9.209   0.241  0.0422 -0.4234 -0.4523
11158SOL    HW144693   8.741   9.296   0.195  1.4173  0.3828  1.5135
11158SOL    HW244694   8.808   9.156   0.245 -0.4957 -1.2996 -0.4634
11159SOL     OW44695   9.329   8.461   3.815  0.4297 -0.5622 -0.3247
11159SOL    HW144696   9.343   8.527   3.889 -0.5136 -1.0443  0.3052
11159SOL    HW244697   9.235   8.425   3.820  0.8980 -1.8680 -0.7030
11160SOL     OW44698   3.009   5.657   3.846 -0.2820  0.2520  0.2143
11160SOL    HW144699   3.000   5.744   3.798 -0.8270  0.5654  0.8610
11160SOL    HW244700   2.980   5.669   3.941 -2.6562 -1.1780 -0.2712
11161SOL     OW44701   2.505   2.674   5.428 -0.5083 -0.0491  0.0244
11161SOL    HW144702   2.514   2.766   5.391  1.1282  0.2179  1.0389
11161SOL    HW244703   2.412   2.640   5.411 -1.3337  2.0355  0.2393
11162SOL     OW44704   2.833   7.585   4.879  0.4184 -0.3966 -0.3675
11162SOL    HW144705   2.842   7.667   4.937  2.0302 -1.1992  0.5459
11162SOL    HW244706   2.744   7.587   4.833  0.0530  1.4090  0.3560
11163SOL     OW44707   1.146   3.525   5.001 -0.1677 -0.2402  0.4808
11163SOL    HW144708   1.226   3.513   5.060 -0.6693  0.1448  1.2478
11163SOL    HW244709   1.072   3.566   5.054  0.3094  2.8356 -1.1344
11164SOL     OW44710   7.907   3.959   5.017  0.5444 -0.0536  0.6811
11164SOL    HW144711   7.987   4.019   5.027 -0.7425  1.5146  1.7437
11164SOL    HW244712   7.851   3.992   4.941 -0.8042  0.8526  2.0464
11165SOL     OW44713   9.781   7.347   2.807  0.3229  0.3767 -0.5832
11165SOL    HW144714   9.711   7.338   2.878 -1.5896 -0.3050 -2.5014
11165SOL    HW244715   9.788   7.443   2.778 -0.7943  0.2257 -1.3527
11166SOL     OW44716   2.295   6.869   4.950  0.0310 -0.5439 -0.4212
11166SOL    HW144717   2.379   6.867   5.005 -0.1368  0.7948 -0.1058
11166SOL    HW244718   2.225   6.813   4.994  0.4414 -0.8592 -0.1661
11167SOL     OW44719   0.903   3.252   1.416 -0.2691  0.0877  0.1780
11167SOL    HW144720   0.965   3.210   1.350 -1.7298  1.0829 -1.8768
11167SOL    HW244721   0.820   3.197   1.423 -1.3768  1.5618 -1.0873
11168SOL     OW44722   3.397   5.101   3.449 -0.6513  0.2368  0.5381
11168SOL    HW144723   3.332   5.156   3.502 -0.1502  0.6019  0.7748
11168SOL    HW244724   3.347   5.045   3.383 -1.1884  0.7048  0.5474
11169SOL     OW44725   0.156   1.955   1.243 -0.2257  0.1242  0.2298
11169SOL    HW144726   0.157   1.968   1.144  1.3050  0.5201  0.2795
11169SOL    HW244727   0.227   2.012   1.285 -0.0509 -0.9575  1.4408
11170SOL     OW44728   6.169   9.270   3.476 -0.3101 -0.0111 -0.2060
11170SOL    HW144729   6.142   9.358   3.517 -0.4981 -0.0512 -0.2434
11170SOL    HW244730   6.208   9.285   3.386  1.7940  0.2340  0.7250
11171SOL     OW44731   2.462   1.888   0.743  0.2277 -0.1264  0.0560
11171SOL    HW144732   2.494   1.973   0.702  2.0467  0.4997  2.6331
11171SOL    HW244733   2.368   1.900   0.776  0.1776  0.6017 -0.3403
11172SOL     OW44734   9.527   0.525   5.430  0.4191 -0.2387 -0.5224
11172SOL    HW144735   9.499   0.588   5.502  0.7674  0.0396 -0.6290
11172SOL    HW244736   9.557   0.577   5.350 -0.1378 -0.5469 -0.9337
11173SOL     OW44737   3.145   9.359   4.483 -0.6016  0.3441 -0.1988
11173SOL    HW144738   3.127   9.274   4.433 -0.0739 -0.5766  1.1644
11173SOL    HW244739   3.099   9.356   4.571  0.8104  0.7558  0.5603
11174SOL     OW44740   1.625   0.361   3.931  0.2190 -0.4464  0.1309
11174SOL    HW144741   1.646   0.265   3.911 -0.1562 -0.4362 -0.3264
11174SOL    HW244742   1.689   0.396   3.999  1.5438 -0.4817 -1.0748
11175SOL     OW44743   0.615   6.636   1.963  0.2444 -0.0179 -0.4787
11175SOL    HW144744   0.597   6.548   1.917  2.3139 -0.2516 -0.8836
11175SOL    HW244745   0.531   6.691   1.963 -0.2463 -0.6866 -3.0910
11176SOL     OW44746   8.682   5.786   0.668  0.3252 -0.8643  0.3571
11176SOL    HW144747   8.688   5.838   0.754  0.4586 -0.1027 -0.1122
11176SOL    HW244748   8.714   5.693   0.684  0.8741 -0.5727  1.0178
11177SOL     OW44749   0.936   4.907   3.094 -0.5134  0.2147 -0.6217
11177SOL    HW144750   1.033   4.886   3.082 -0.5156  0.4069 -0.9908
11177SOL    HW244751   0.884   4.823   3.105 -0.4372  0.0627 -1.4184
11178SOL     OW44752   6.976   1.868   2.354  0.4080 -0.0883 -0.0880
11178SOL    HW144753   6.972   1.857   2.454 -1.4462  0.2137 -0.1149
11178SOL    HW244754   6.905   1.933   2.325  0.2494 -0.9760 -1.7150
11179SOL     OW44755   8.073   9.985   4.496 -0.3844 -0.2889  0.2597
11179SOL    HW144756   8.060   9.912   4.563  1.8138 -0.7227  0.2745
11179SOL    HW244757   8.103   9.946   4.409 -1.6807  0.3965 -0.5059
11180SOL     OW44758   7.601   9.535   3.904 -0.2992 -0.7104 -0.4517
11180SOL    HW144759   7.648   9.473   3.840 -0.5337  0.0537 -1.3729
11180SOL    HW244760   7.594   9.625   3.863 -1.6722 -0.5611  0.1110
11181SOL     OW44761   8.015   4.169   3.774 -0.0070  0.1316  1.6494
11181SOL    HW144762   7.954   4.100   3.814  0.5929 -1.4664 -0.1030
11181SOL    HW244763   8.097   4.177   3.831  0.7525 -1.9786  0.9187
11182SOL     OW44764   8.600   5.016   1.206  0.2769 -0.3392  0.5205
11182SOL    HW144765   8.671   5.087   1.204 -0.4961  0.4054 -2.8392
11182SOL    HW244766   8.641   4.929   1.232  2.1510  0.3545 -0.0187
11183SOL     OW44767   1.128   6.036   1.986  0.3633  0.3408  0.1354
11183SOL    HW144768   1.122   6.134   2.004  0.3537  0.4282 -0.3490
11183SOL    HW244769   1.203   5.997   2.040  3.0406  1.3502 -2.7414
11184SOL     OW44770   3.761   2.071   0.708  0.1064  0.1382 -0.1477
11184SOL    HW144771   3.696   2.008   0.667 -1.4080 -0.6044  3.1815
11184SOL    HW244772   3.849   2.025   0.721 -0.3765 -0.6523  0.3652
11185SOL     OW44773   8.049   4.331   3.351 -0.3223  0.3946  0.3309
11185SOL    HW144774   7.956   4.355   3.378 -0.8856 -0.6412 -0.6373
11185SOL    HW244775   8.103   4.305   3.432 -0.5518  2.0342  1.0203
11186SOL     OW44776   1.116   3.102   2.700 -0.2445  0.3875  0.0511
11186SOL    HW144777   1.078   3.019   2.660  0.9465 -0.7885  1.3019
11186SOL    HW244778   1.076   3.182   2.655 -2.8932 -0.8036  0.1770
11187SOL     OW44779   3.504   7.356   6.515  0.6068 -0.2822  0.5131
11187SOL    HW144780   3.502   7.303   6.431  0.6918  1.1095 -0.3856
11187SOL    HW244781   3.523   7.296   6.593  2.7077 -1.2515 -0.7217
11188SOL     OW44782   9.029   8.601   1.667 -0.2296  0.3872  0.5665
11188SOL    HW144783   9.002   8.593   1.763  0.9871  0.4184  0.9309
11188SOL    HW244784   9.059   8.695   1.649  2.3231 -0.3035  0.9477
11189SOL     OW44785   3.931   6.361   2.925 -0.0110  0.4130 -0.0198
11189SOL    HW144786   3.914   6.450   2.881  1.0550  1.4280  1.5670
11189SOL    HW244787   4.026   6.357   2.956 -0.0338 -1.3184 -0.1242
11190SOL     OW44788   1.517   0.018   4.736  0.3628 -0.1532 -0.0080
11190SOL    HW144789   1.550  -0.048   4.803 -1.1488 -0.6324  0.2892
11190SOL    HW244790   1.546  -0.010   4.644 -0.8610 -1.6353  0.0346
11191SOL     OW44791   0.968   3.019   3.338 -0.3521 -0.5781  0.0672
11191SOL    HW144792   1.018   3.050   3.258  0.3333  1.6656  1.3188
11191SOL    HW244793   0.887   2.968   3.309 -1.3199  2.0766 -2.1041
11192SOL     OW44794   9.842   6.350   4.938  0.5737 -0.0641 -0.3834
11192SOL    HW144795   9.769   6.281   4.936 -1.2347  1.7815 -0.3569
11192SOL    HW244796   9.875   6.359   5.032  0.4809 -0.5382 -0.2997
11193SOL     OW44797   6.402   7.442   4.508 -0.2188 -0.3573 -0.1458
11193SOL    HW144798   6.353   7.354   4.509 -0.9317  0.0459  0.7066
11193SOL    HW244799   6.359   7.505   4.573  0.3552  0.5946 -0.6804
11194SOL     OW44800   4.497   0.576   1.684 -0.0077 -0.6264 -0.1594
11194SOL    HW144801   4.562   0.613   1.750 -1.5261  0.5698  0.6963
11194SOL    HW244802   4.538   0.577   1.592  1.3588 -0.3850  0.4427
11195SOL     OW44803   4.951   8.379   4.129  0.3700 -0.5678  0.2047
11195SOL    HW144804   4.994   8.292   4.151 -0.6253 -0.9429  0.7288
11195SOL    HW244805   4.907   8.416   4.211 -3.9120 -2.2522 -1.2014
11196SOL     OW44806   6.453   0.582   4.490  0.0886  0.6036 -0.0022
11196SOL    HW144807   6.418   0.670   4.457 -1.7392  0.6272  1.8430
11196SOL    HW244808   6.548   0.593   4.520 -0.1623  2.0019  0.3238
11197SOL     OW44809   4.237   4.792   3.815 -0.3910 -0.3481  0.3335
11197SOL    HW144810   4.139   4.798   3.833 -0.0983  0.8535  1.6014
11197SOL    HW244811   4.258   4.841   3.730 -0.8040 -0.0388  0.4049
11198SOL     OW44812   0.870   3.624   2.736 -0.4851  0.3224  0.1123
11198SOL    HW144813   0.794   3.581   2.687  0.3048 -1.5890  0.5096
11198SOL    HW244814   0.842   3.644   2.830 -0.8727  0.6894 -0.0841
11199SOL     OW44815   0.654   2.003   1.263  0.3479  0.7455 -0.3071
11199SOL    HW144816   0.752   1.983   1.264 -0.1167 -1.5262  1.1591
11199SOL    HW244817   0.640   2.099   1.289  2.1094  0.8834  0.2018
11200SOL     OW44818   3.145   8.686   5.913  0.1239  0.4642  0.7992
11200SOL    HW144819   3.191   8.609   5.956  0.7385  1.1365  1.3512
11200SOL    HW244820   3.048   8.663   5.899  0.1761 -0.1875  1.4708
11201SOL     OW44821   7.903   1.662   0.239 -0.2229  0.3041 -0.0075
11201SOL    HW144822   7.923   1.732   0.170 -0.7165  0.4355 -0.0209
11201SOL    HW244823   7.815   1.621   0.219 -0.4221  0.4290  0.6183
11202SOL     OW44824   8.978   3.150   2.776  0.1153 -0.0797  0.0510
11202SOL    HW144825   8.947   3.236   2.815 -0.5971 -0.0570 -0.5454
11202SOL    HW244826   8.901   3.086   2.771  1.1178 -1.5309  2.5480
11203SOL     OW44827   2.664   5.895   5.333  0.5274  0.0039  0.7818
11203SOL    HW144828   2.720   5.844   5.398 -1.8123 -2.0830  1.2553
11203SOL    HW244829   2.567   5.877   5.352 -0.3835  4.1955  0.5663
11204SOL     OW44830   2.417   7.576   3.300 -0.0247 -0.0662  0.4604
11204SOL    HW144831   2.415   7.556   3.399  1.3579  0.3462  0.5899
11204SOL    HW244832   2.512   7.569   3.268 -0.4547 -0.0454 -0.8129
11205SOL     OW44833   1.859   4.107   3.256 -0.3087 -0.1569 -0.3690
11205SOL    HW144834   1.912   4.036   3.209  1.1249 -0.2052  1.2515
11205SOL    HW244835   1.881   4.196   3.217  1.8350 -0.0525  0.9597
11206SOL     OW44836   7.684   1.814   0.672  0.1045  0.0430 -0.3915
11206SOL    HW144837   7.700   1.912   0.678  0.6421 -0.0394 -0.4175
11206SOL    HW244838   7.672   1.788   0.576 -0.5015  0.1528 -0.3463
11207SOL     OW44839   9.950   0.818   1.920  0.1948  0.1735 -0.2273
11207SOL    HW144840   9.967   0.878   1.998 -0.6287 -2.4612  2.0598
11207SOL    HW244841  10.037   0.777   1.890  0.3693  0.4187 -0.0668
11208SOL     OW44842   3.661   6.303   1.626 -0.6261  0.4423 -0.0245
11208SOL    HW144843   3.682   6.399   1.646  0.1832  0.3554 -0.4168
11208SOL    HW244844   3.600   6.267   1.697 -1.5482  1.4521 -0.2913
11209SOL     OW44845   9.225   9.690   3.749 -0.1919  0.1424 -0.4734
11209SOL    HW144846   9.232   9.753   3.825 -1.1384 -0.5304  0.1826
11209SOL    HW244847   9.197   9.739   3.666 -0.0065  0.7253 -0.1859
11210SOL     OW44848   9.582   7.420   5.669 -0.0174  0.3040 -0.1273
11210SOL    HW144849   9.680   7.426   5.646 -0.0483  0.3108 -0.2575
11210SOL    HW244850   9.551   7.326   5.655  0.5599 -0.2875  2.2708
11211SOL     OW44851   4.378   8.281   6.371 -0.2068 -0.2964 -0.0833
11211SOL    HW144852   4.311   8.308   6.301 -2.1425 -1.6230  1.1970
11211SOL    HW244853   4.334   8.280   6.460  1.9621  0.3001  1.0276
11212SOL     OW44854   3.787   8.598   3.267  0.5808 -0.0961  0.3533
11212SOL    HW144855   3.811   8.690   3.238  0.8053 -0.1246  0.4476
11212SOL    HW244856   3.705   8.568   3.219  0.4582  0.1865  0.3876
11213SOL     OW44857   7.213   3.862   1.590  0.4918 -0.0777  0.0405
11213SOL    HW144858   7.244   3.767   1.597 -2.1528 -1.1203 -1.7378
11213SOL    HW244859   7.275   3.912   1.529  0.6771 -1.2265 -0.7373
11214SOL     OW44860   8.324   8.996   1.648  0.3791  0.3207  0.0308
11214SOL    HW144861   8.376   8.920   1.609  0.6763 -0.3576  1.7013
11214SOL    HW244862   8.282   9.050   1.575 -0.9795 -2.2624 -1.1404
11215SOL     OW44863   2.114   4.089   1.095 -0.2653 -0.2610  0.2441
11215SOL    HW144864   2.021   4.117   1.073  0.1838  2.7628  1.8815
11215SOL    HW244865   2.114   4.036   1.180 -0.2622  1.9666  1.6727
11216SOL     OW44866   9.638   0.831   4.187  0.1462  0.6945  0.6360
11216SOL    HW144867   9.580   0.774   4.245 -0.1544 -0.9010 -1.2082
11216SOL    HW244868   9.618   0.814   4.091  2.3130  1.5472 -0.0033
11217SOL     OW44869   0.231   7.241   4.903 -0.3542 -0.1500  0.4572
11217SOL    HW144870   0.284   7.167   4.862 -1.0021 -1.0863  1.2991
11217SOL    HW244871   0.226   7.318   4.839  3.8330  0.8343  1.1197
11218SOL     OW44872   1.319   0.000   5.884 -0.1617 -0.0651  0.1467
11218SOL    HW144873   1.399  -0.056   5.862  0.2485  0.2475  0.8284
11218SOL    HW244874   1.349   0.086   5.926 -0.7555  0.9520 -1.4691
11219SOL     OW44875   3.348   7.487   2.972  0.2001 -0.3299  0.5293
11219SOL    HW144876   3.441   7.451   2.966  1.2301  2.1465  0.9276
11219SOL    HW244877   3.315   7.509   2.881  0.3638 -0.3315  0.4696
11220SOL     OW44878   8.743   9.786   3.761  0.3656  0.0411  0.0096
11220SOL    HW144879   8.759   9.691   3.787  2.4204  0.2751 -0.3469
11220SOL    HW244880   8.819   9.819   3.705 -1.3987  1.2143 -1.7589
11221SOL     OW44881   4.575   0.288   4.274 -0.1059  0.1786  0.4114
11221SOL    HW144882   4.505   0.233   4.228 -1.8181  2.6113  0.0020
11221SOL    HW244883   4.666   0.252   4.254 -1.1577 -2.1955 -0.2035
11222SOL     OW44884   8.025   8.905   6.030 -0.2795 -0.3043 -0.1752
11222SOL    HW144885   7.953   8.946   5.973 -0.2774 -1.0285 -0.7118
11222SOL    HW244886   8.059   8.822   5.985  1.9316  0.8212 -0.6719
11223SOL     OW44887   4.359   4.591   5.524 -0.4168 -0.0977  0.3585
11223SOL    HW144888   4.315   4.680   5.512 -1.9094 -0.9003 -0.2895
11223SOL    HW244889   4.299   4.519   5.490  1.0916 -1.3051  0.1770
11224SOL     OW44890   2.378   0.881   2.551 -0.2305  0.6051  0.3766
11224SOL    HW144891   2.336   0.948   2.613 -0.0331  1.1984 -0.1216
11224SOL    HW244892   2.425   0.929   2.477  0.3838 -0.0782  0.3163
11225SOL     OW44893   0.255   8.188   5.277  0.2811  0.1312  0.1129
11225SOL    HW144894   0.276   8.283   5.257 -3.5826  1.3670  1.5665
11225SOL    HW244895   0.181   8.183   5.344 -0.5035 -3.8701 -0.9119
11226SOL     OW44896   1.945   4.367   4.660 -0.1767  0.0392  0.0406
11226SOL    HW144897   1.974   4.313   4.581 -0.3816  0.8117 -0.5694
11226SOL    HW244898   1.974   4.461   4.648 -1.3411  0.4392  0.2766
11227SOL     OW44899   1.486   3.107   5.806 -0.5465 -0.4271 -0.6930
11227SOL    HW144900   1.565   3.158   5.774 -0.3003  0.0240  0.6000
11227SOL    HW244901   1.402   3.157   5.784 -0.4089 -0.3930 -1.1319
11228SOL     OW44902   8.611   1.057   1.179  0.1112  0.8997  0.6423
11228SOL    HW144903   8.609   0.974   1.122  1.5310  0.4359  1.2465
11228SOL    HW244904   8.521   1.071   1.219 -0.8020  0.9884 -1.3656
11229SOL     OW44905   3.563   0.986   6.371  0.1822 -0.0914  0.5851
11229SOL    HW144906   3.605   1.022   6.454  2.0669 -0.0246 -0.3653
11229SOL    HW244907   3.587   0.890   6.360  0.4362  0.0592 -0.1964
11230SOL     OW44908   9.543   8.472   0.097 -0.8680  0.5430 -0.3874
11230SOL    HW144909   9.560   8.389   0.044 -0.4849  1.0192 -1.0203
11230SOL    HW244910   9.629   8.507   0.134 -1.1354  0.2049  0.5656
11231SOL     OW44911   8.296   4.801   5.721  0.4543  0.2885  0.2738
11231SOL    HW144912   8.255   4.725   5.773  0.7992  0.9478  1.5208
11231SOL    HW244913   8.225   4.868   5.701  0.3546  0.1134  0.0422
11232SOL     OW44914   3.913   4.358   0.392  0.0984 -0.0274 -0.0420
11232SOL    HW144915   3.840   4.391   0.334 -0.6024 -1.2284  0.1309
11232SOL    HW244916   3.914   4.409   0.478 -1.7087 -1.1883  0.7061
11233SOL     OW44917   1.856   7.188   0.263 -0.0607 -0.1975  0.3508
11233SOL    HW144918   1.906   7.121   0.209  2.4579  0.8585  1.2740
11233SOL    HW244919   1.921   7.244   0.315 -2.2579  0.8304  2.0859
11234SOL     OW44920   4.934   0.752   2.773 -0.3309 -0.2404 -0.1806
11234SOL    HW144921   4.916   0.655   2.787 -1.0968 -0.0873 -0.1023
11234SOL    HW244922   4.869   0.789   2.707 -0.5861  0.4136  0.4383
11235SOL     OW44923   9.645   9.683   1.295  0.0166  0.4386  0.3244
11235SOL    HW144924   9.561   9.725   1.331 -0.6513 -1.2134  0.7661
11235SOL    HW244925   9.661   9.597   1.343  1.5060  0.3280 -0.3708
11236SOL     OW44926   1.267   3.264   0.869  0.1598 -0.1626 -0.7119
11236SOL    HW144927   1.226   3.173   0.877 -0.4696  0.0389 -1.6293
11236SOL    HW244928   1.316   3.272   0.782  1.9201 -0.2963  0.2350
11237SOL     OW44929   3.878   4.038   4.586  0.1896  0.3456  0.4402
11237SOL    HW144930   3.821   3.957   4.576 -0.2679  1.0112 -2.7490
11237SOL    HW244931   3.900   4.051   4.683  0.3185 -3.5598  1.0257
11238SOL     OW44932   0.366   9.204   0.842  0.1895  0.1640  0.3779
11238SOL    HW144933   0.397   9.284   0.894  1.6013 -0.2733  0.2430
11238SOL    HW244934   0.384   9.220   0.745 -1.2721  0.4507  0.1368
11239SOL     OW44935   8.567   6.732   4.939 -0.2490  0.3368  0.5992
11239SOL    HW144936   8.490   6.700   4.883  0.1773  0.3737 -0.0067
11239SOL    HW244937   8.595   6.659   5.001  0.0673 -0.1310 -0.0857
11240SOL     OW44938   3.946   0.486   4.416  0.2818  0.7590  0.4722
11240SOL    HW144939   3.911   0.579   4.425 -0.1371  0.7560 -1.0572
11240SOL    HW244940   4.032   0.487   4.366 -0.1374  0.2578 -0.2803
11241SOL     OW44941   1.552   1.087   6.700  0.2244 -0.3223  0.3112
11241SOL    HW144942   1.534   1.147   6.622 -0.4118  0.2214  0.8590
11241SOL    HW244943   1.501   1.002   6.689 -0.1624 -0.0932  0.3025
11242SOL     OW44944   0.531   3.706   1.840  0.2524 -0.5209  0.7688
11242SOL    HW144945   0.607   3.681   1.899 -0.7997 -1.2846  1.8299
11242SOL    HW244946   0.497   3.625   1.793 -1.1411 -0.5423  1.7868
11243SOL     OW44947   2.604   0.791   4.570 -0.3861  0.8892  0.1877
11243SOL    HW144948   2.575   0.791   4.474 -1.4855  1.0245  0.5079
11243SOL    HW244949   2.551   0.723   4.621  0.5609  0.4504  0.6000
11244SOL     OW44950   5.837   4.529   0.132 -0.0687  0.0099 -0.3116
11244SOL    HW144951   5.753   4.479   0.152 -0.5309  0.7607 -0.3344
11244SOL    HW244952   5.897   4.526   0.212 -0.6604  0.5220  0.1622
11245SOL     OW44953   5.753   9.844   4.371  0.1629 -0.3635 -0.1233
11245SOL    HW144954   5.780   9.925   4.319  0.3848  0.0293  0.5951
11245SOL    HW244955   5.653   9.843   4.381  0.3564  1.6099  2.6882
11246SOL     OW44956   8.492   6.992   4.467 -0.5428 -0.5686 -0.1163
11246SOL    HW144957   8.569   7.014   4.406 -0.7575  1.1699  0.2093
11246SOL    HW244958   8.526   6.941   4.546  0.6465  1.9515  1.0553
11247SOL     OW44959   1.493   5.801   0.864 -0.3147  0.1503  0.2664
11247SOL    HW144960   1.569   5.847   0.911 -1.4089  3.8606 -1.4466
11247SOL    HW244961   1.407   5.841   0.892 -1.2738 -0.3920 -1.8042
11248SOL     OW44962   2.858   9.827   3.149 -0.2230  0.4468  0.5985
11248SOL    HW144963   2.866   9.907   3.089 -2.9562 -0.0779 -0.5084
11248SOL    HW244964   2.921   9.756   3.119  0.3993  1.2180  0.0535
11249SOL     OW44965   3.763   1.229   6.445 -0.2863  0.0127  0.1786
11249SOL    HW144966   3.764   1.158   6.374  3.0458  1.0856 -0.9660
11249SOL    HW244967   3.688   1.292   6.427 -0.8305 -0.9819 -1.1443
11250SOL     OW44968   8.714   7.481   1.871 -0.0956  0.5504 -0.2218
11250SOL    HW144969   8.697   7.391   1.911  1.3498  0.4073  0.1041
11250SOL    HW244970   8.688   7.552   1.937 -0.0972  0.3445 -0.0008
11251SOL     OW44971   9.839   0.165   1.964  0.7443  0.0199 -0.5471
11251SOL    HW144972   9.802   0.245   2.010 -0.1580 -1.2993  1.0440
11251SOL    HW244973   9.917   0.193   1.907 -0.0610  2.1374 -0.6672
11252SOL     OW44974   4.223   9.720   1.477  0.0869 -0.5038 -0.5999
11252SOL    HW144975   4.264   9.796   1.527 -1.4799  0.8474 -1.3237
11252SOL    HW244976   4.221   9.639   1.535  1.5858  0.0533  0.2585
11253SOL     OW44977   2.697   6.740   5.444  0.4973 -0.5004 -0.0178
11253SOL    HW144978   2.797   6.748   5.433  0.6924  0.7083  2.4763
11253SOL    HW244979   2.677   6.692   5.529 -1.0908  0.9988  0.4594
11254SOL     OW44980   5.626   9.759   1.382  0.1442  0.1437 -0.3506
11254SOL    HW144981   5.586   9.697   1.315 -1.0619  0.1596  0.3381
11254SOL    HW244982   5.587   9.850   1.371  1.3862  0.6127 -0.8954
11255SOL     OW44983   2.028   6.768   6.376  0.3988 -0.3062  0.2082
11255SOL    HW144984   2.028   6.726   6.285  0.1498 -0.0935  0.1100
11255SOL    HW244985   2.121   6.798   6.399  0.3856  0.0190 -0.1520
11256SOL     OW44986   8.847   5.799   1.682  0.0354 -0.0104 -0.4067
11256SOL    HW144987   8.923   5.733   1.687 -0.5092 -0.7874 -1.9628
11256SOL    HW244988   8.878   5.883   1.638  0.0640 -0.2360 -0.8206
11257SOL     OW44989   1.824   4.712   3.602  0.2731  0.1881 -0.2087
11257SOL    HW144990   1.765   4.741   3.678 -0.0320 -1.5167  0.2299
11257SOL    HW244991   1.767   4.690   3.523  0.4296  0.0364 -0.2782
11258SOL     OW44992   0.552   1.368   0.551 -0.2654  0.2248 -0.1668
11258SOL    HW144993   0.542   1.429   0.629  0.9756  1.3991 -0.8964
11258SOL    HW244994   0.469   1.370   0.496 -0.5353  0.6208  0.2526
11259SOL     OW44995   0.134   1.247   1.237 -0.6952 -0.1475  0.1062
11259SOL    HW144996   0.169   1.329   1.191  1.4138 -0.5595  0.9185
11259SOL    HW244997   0.161   1.166   1.186  0.1199 -0.5113  1.1149
11260SOL     OW44998   8.431   5.314   6.233  0.6710  0.8198  0.1012
11260SOL    HW144999   8.371   5.241   6.264  1.6467  0.2667  0.6725
11260SOL    HW245000   8.462   5.295   6.140 -1.2333  1.8550 -0.7727
11261SOL     OW45001   2.838   9.855   2.815 -0.4165  0.3478  0.0477
11261SOL    HW145002   2.860   9.923   2.885  1.4647  0.6872 -0.8544
11261SOL    HW245003   2.750   9.876   2.774 -0.3070  1.6663  0.4765
11262SOL     OW45004   3.639   8.359   2.007 -0.6511 -0.3090  0.1027
11262SOL    HW145005   3.709   8.342   1.938 -0.3555  1.6172 -0.0818
11262SOL    HW245006   3.680   8.407   2.085 -2.2319  3.1198 -1.0800
11263SOL     OW45007   3.521   7.752   4.547  0.4155  0.2195 -0.2678
11263SOL    HW145008   3.568   7.665   4.561  0.5280  0.2909 -0.1988
11263SOL    HW245009   3.487   7.756   4.453 -2.3388 -1.2109  0.6109
11264SOL     OW45010   3.705   7.848   6.111  0.1120  0.2415 -0.1022
11264SOL    HW145011   3.740   7.895   6.192 -2.2937 -0.8190  1.6208
11264SOL    HW245012   3.640   7.906   6.063 -1.5157 -0.6048  1.0301
11265SOL     OW45013   9.602   6.851   1.980  0.2136  0.0299 -0.2282
11265SOL    HW145014   9.517   6.865   1.929 -0.1315 -0.5038  0.2056
11265SOL    HW245015   9.621   6.753   1.988  1.4004  0.1511 -1.2017
11266SOL     OW45016   3.029   8.276   5.824 -0.2418 -0.2138 -0.3551
11266SOL    HW145017   2.968   8.199   5.801  2.4400 -3.1241  1.9074
11266SOL    HW245018   3.101   8.282   5.755 -0.3545  0.1974 -0.4390
11267SOL     OW45019   2.506   9.363   4.476 -0.1885 -0.0343 -0.3767
11267SOL    HW145020   2.519   9.289   4.410 -0.1850  0.0994 -0.5252
11267SOL    HW245021   2.409   9.369   4.501 -0.0225 -0.8709  0.5435
11268SOL     OW45022   9.934   9.045   1.525 -0.1588 -0.1035 -0.1593
11268SOL    HW145023   9.956   8.952   1.496 -1.1572 -0.8385  1.3529
11268SOL    HW245024   9.836   9.060   1.516 -0.2465  0.2026  1.2346
11269SOL     OW45025   6.217   8.158   5.548  0.5447  0.3337 -0.3516
11269SOL    HW145026   6.140   8.151   5.611 -0.0291 -0.8358 -1.1697
11269SOL    HW245027   6.184   8.184   5.457  1.2779  1.2161 -0.3732
11270SOL     OW45028   7.903   4.490   4.548 -0.0470  0.0303  0.2643
11270SOL    HW145029   7.848   4.523   4.624  1.4164 -0.1008  1.4115
11270SOL    HW245030   7.942   4.568   4.499  0.6937  0.0881  0.9308
11271SOL     OW45031   0.471   6.435   2.374 -0.2065 -0.1433  0.1237
11271SOL    HW145032   0.425   6.521   2.352 -0.0116 -0.2751 -0.8234
11271SOL    HW245033   0.414   6.358   2.344 -0.4555 -0.3436  1.1177
11272SOL     OW45034   1.233   4.520   1.899  0.0550  0.0494  0.2330
11272SOL    HW145035   1.180   4.582   1.957 -0.3220  1.2922 -1.4073
11272SOL    HW245036   1.214   4.425   1.925 -0.4119  0.5758  1.8647
11273SOL     OW45037   9.460   9.559   3.791  0.2057 -0.0321  0.0908
11273SOL    HW145038   9.381   9.612   3.759  2.1739  1.9338 -1.6703
11273SOL    HW245039   9.495   9.503   3.716  1.4689  0.3327  0.4076
11274SOL     OW45040   8.827   2.075   4.790  0.6079  0.4097  0.3956
11274SOL    HW145041   8.925   2.068   4.772  0.3579 -0.4291 -0.6954
11274SOL    HW245042   8.780   2.108   4.708 -0.6093 -3.8855 -0.7753
11275SOL     OW45043   6.779   7.529   5.466  0.4556 -0.4996  0.3173
11275SOL    HW145044   6.777   7.570   5.375 -1.6554  0.8145  0.9174
11275SOL    HW245045   6.714   7.454   5.471  1.3707 -1.2924  0.4251
11276SOL     OW45046   8.712   3.678   3.532 -0.0127 -0.1627  0.1185
11276SOL    HW145047   8.731   3.583   3.506 -1.7986 -0.7887  1.0601
11276SOL    HW245048   8.727   3.689   3.630  0.3544  0.5814 -0.0189
11277SOL     OW45049   3.452   4.018   4.744  0.3393  0.0768 -0.4805
11277SOL    HW145050   3.427   3.994   4.650 -1.7815 -2.7867  0.7416
11277SOL    HW245051   3.512   3.947   4.780  0.0844  0.4917  0.7577
11278SOL     OW45052   7.703   9.062   2.927 -0.3811  0.2945  0.0715
11278SOL    HW145053   7.761   9.124   2.980 -0.7258  1.2213 -0.6311
11278SOL    HW245054   7.714   9.081   2.829  1.9545 -2.8801 -0.3463
11279SOL     OW45055   1.940   2.554   5.171  0.0578  0.3884 -0.2850
11279SOL    HW145056   1.952   2.631   5.234 -1.1990  0.1307  0.2835
11279SOL    HW245057   1.998   2.478   5.201  0.0377  0.5342  0.1257
11280SOL     OW45058   0.698   7.905   5.694  0.1100  0.1658  0.4853
11280SOL    HW145059   0.657   7.991   5.723  1.3504  0.6428  0.8398
11280SOL    HW245060   0.658   7.830   5.747 -3.2244  0.1193 -1.9385
11281SOL     OW45061   7.626   0.948   3.946 -0.2577 -0.2351 -0.1762
11281SOL    HW145062   7.588   0.969   4.036 -1.2505  0.2083 -0.6876
11281SOL    HW245063   7.590   0.860   3.915 -1.1074  0.3248 -0.7910
11282SOL     OW45064   4.365   2.702   6.178  0.2873 -0.4558 -0.7012
11282SOL    HW145065   4.275   2.688   6.138 -0.1123 -1.5472  0.5641
11282SOL    HW245066   4.371   2.794   6.216  0.2130  0.1243 -2.0429
11283SOL     OW45067   4.822   6.630   2.622 -0.2482  0.0652  0.7785
11283SOL    HW145068   4.761   6.553   2.606  0.7747 -0.5834 -0.0855
11283SOL    HW245069   4.881   6.644   2.542  1.0781  0.3439  1.7738
11284SOL     OW45070   9.311   0.864   1.247 -0.4198  0.2523 -0.2247
11284SOL    HW145071   9.355   0.787   1.199  0.5531  0.7774 -0.1850
11284SOL    HW245072   9.363   0.885   1.329  0.1395  1.8761 -0.9795
11285SOL     OW45073   6.588   0.349   6.027 -0.0464 -0.6616 -0.0722
11285SOL    HW145074   6.543   0.268   6.064 -0.1411 -1.0631 -1.0506
11285SOL    HW245075   6.678   0.324   5.991  0.6657  0.0050  1.2277
11286SOL     OW45076   9.142   3.918   1.265  0.1859  0.4197  0.1374
11286SOL    HW145077   9.241   3.929   1.257  0.2117  0.4110  0.4415
11286SOL    HW245078   9.121   3.821   1.282  0.1709  0.5308  0.7522
11287SOL     OW45079   9.370   9.881   6.562  0.4468  0.5443  0.4412
11287SOL    HW145080   9.449   9.819   6.560  0.6218  0.7732 -2.3908
11287SOL    HW245081   9.287   9.830   6.541  0.3664  0.9645 -0.2701
11288SOL     OW45082   2.662   9.961   1.425 -0.7542  0.7709  0.1685
11288SOL    HW145083   2.697  10.048   1.460  1.5510  0.2273 -0.7130
11288SOL    HW245084   2.739   9.904   1.394 -1.8718 -2.9461  3.7735
11289SOL     OW45085   0.513   2.802   2.388  0.4505 -0.0247 -0.1302
11289SOL    HW145086   0.612   2.789   2.382  0.2932 -1.2220 -0.1930
11289SOL    HW245087   0.493   2.900   2.388  1.8890  0.3425  3.9702
11290SOL     OW45088   1.198   5.203   3.258 -0.0837 -0.3188 -0.0183
11290SOL    HW145089   1.224   5.125   3.201  0.1231 -0.1749 -0.1245
11290SOL    HW245090   1.265   5.214   3.332  0.1065 -0.0083 -0.2337
11291SOL     OW45091   0.178   3.072   5.940 -0.1550 -0.0829  0.4517
11291SOL    HW145092   0.250   3.003   5.936  0.2607  0.3741 -0.1178
11291SOL    HW245093   0.089   3.027   5.932  0.0902 -0.5965  0.5480
11292SOL     OW45094   9.272   6.020   3.535 -0.1666 -0.1983 -0.8237
11292SOL    HW145095   9.287   5.951   3.606 -0.5576 -0.0847 -0.6262
11292SOL    HW245096   9.287   6.111   3.575 -0.7837 -0.1141 -0.7781
11293SOL     OW45097   9.059   0.008   1.504 -0.7275 -0.3949 -0.4808
11293SOL    HW145098   9.042   0.096   1.459 -0.2064 -1.0661 -2.0218
11293SOL    HW245099   9.117   0.022   1.584  1.1306  0.3966 -1.9400
11294SOL     OW45100   4.273   3.975   3.375  0.2339 -0.3957 -0.2553
11294SOL    HW145101   4.231   3.885   3.365  2.0063 -1.2795 -0.0123
11294SOL    HW245102   4.318   3.980   3.464 -1.1871  1.3223  0.4036
11295SOL     OW45103   5.176   5.937   2.511 -0.2901 -0.7349 -0.0416
11295SOL    HW145104   5.105   5.870   2.489 -2.8795  1.8872 -0.0117
11295SOL    HW245105   5.190   5.998   2.432  2.0057 -1.2438 -0.0720
11296SOL     OW45106   5.332   8.938   4.079 -0.6098  0.4222 -0.3017
11296SOL    HW145107   5.358   8.946   4.176 -0.8658  0.5637 -0.2429
11296SOL    HW245108   5.287   8.850   4.064 -2.5980  1.3135  0.1930
11297SOL     OW45109   1.823   6.754   5.766  0.0819  0.4270  0.0218
11297SOL    HW145110   1.836   6.657   5.787 -1.1220  0.5950  1.5334
11297SOL    HW245111   1.742   6.765   5.709  0.6643  0.4785 -0.8127
11298SOL     OW45112   3.735   8.524   6.531  0.0676  0.2376  0.4480
11298SOL    HW145113   3.764   8.431   6.553  0.4223  0.5190  1.2168
11298SOL    HW245114   3.741   8.539   6.433 -0.0886 -0.5807  0.3099
11299SOL     OW45115   5.142   8.473   3.750 -0.0537 -0.1771  0.1771
11299SOL    HW145116   5.082   8.394   3.761 -0.8929  0.5394  0.7745
11299SOL    HW245117   5.192   8.465   3.663  1.3442 -2.3276  1.1215
11300SOL     OW45118   5.538   7.686   4.851 -0.0489  0.0689  0.3272
11300SOL    HW145119   5.601   7.760   4.876 -0.7406  0.4967  0.8137
11300SOL    HW245120   5.583   7.598   4.868  1.2447  0.3499 -1.4458
11301SOL     OW45121   4.508   4.164   2.011  0.5058  0.1919  0.0025
11301SOL    HW145122   4.538   4.100   1.940 -0.1274 -1.4128  1.1517
11301SOL    HW245123   4.410   4.179   2.003  0.5545  0.5520  0.0972
11302SOL     OW45124   7.869   3.902   1.873 -0.2373  0.0315 -0.1376
11302SOL    HW145125   7.868   4.002   1.866  0.5569  0.1481  1.2317
11302SOL    HW245126   7.929   3.865   1.802  1.1174  0.6617  0.6660
11303SOL     OW45127   7.825   3.310   4.405  0.5244 -0.0060 -0.6331
11303SOL    HW145128   7.825   3.263   4.316  0.2816  0.5844 -0.9430
11303SOL    HW245129   7.851   3.244   4.476 -0.4860 -0.7809 -0.9704
11304SOL     OW45130   4.874   3.614   5.230  0.1310 -0.2711 -0.2568
11304SOL    HW145131   4.929   3.531   5.218  1.8951  1.0246 -1.5282
11304SOL    HW245132   4.814   3.626   5.151  1.5980  0.8696 -1.2402
11305SOL     OW45133   9.896   9.290   5.150 -0.3093  0.3813  0.3280
11305SOL    HW145134   9.939   9.366   5.100 -0.9483  0.3974 -0.2069
11305SOL    HW245135   9.861   9.222   5.085 -2.3915  1.0760  0.6579
11306SOL     OW45136   2.739   8.875   6.113 -0.3980  0.4752  0.2462
11306SOL    HW145137   2.740   8.856   6.211 -0.8666  1.3479  0.4297
11306SOL    HW245138   2.820   8.928   6.088  0.8657 -1.6322 -0.2490
11307SOL     OW45139   7.875   7.059   6.057 -0.7911  0.6921  0.4646
11307SOL    HW145140   7.904   6.968   6.026  0.1445  1.5545 -1.2470
11307SOL    HW245141   7.904   7.072   6.152 -0.4890 -0.5962  0.5628
11308SOL     OW45142   9.827   2.431   2.919  0.3198 -0.2740 -0.1407
11308SOL    HW145143   9.920   2.394   2.909  0.1151 -0.2011 -2.6258
11308SOL    HW245144   9.794   2.463   2.830 -1.6837  0.7083  0.9199
11309SOL     OW45145   7.901   0.884   1.110  0.1488 -0.1121 -0.0075
11309SOL    HW145146   7.902   0.922   1.018 -0.6842 -0.9161 -0.3604
11309SOL    HW245147   7.852   0.946   1.171 -0.0159  0.0326 -0.2842
11310SOL     OW45148   1.785   1.235   1.920  0.1224  0.1154 -0.4692
11310SOL    HW145149   1.791   1.324   1.875  0.8482  1.6066  2.3960
11310SOL    HW245150   1.877   1.204   1.944 -0.3389  0.4203  1.8373
11311SOL     OW45151   9.246   5.244   4.255  0.5217  0.3118  0.6918
11311SOL    HW145152   9.309   5.199   4.318  0.6681 -0.8794 -0.3037
11311SOL    HW245153   9.282   5.238   4.162 -0.4004  0.8146  0.3002
11312SOL     OW45154   3.418   0.048   4.535 -1.0872 -0.4279 -0.2279
11312SOL    HW145155   3.392  -0.047   4.517 -0.0282 -0.2894 -2.7351
11312SOL    HW245156   3.459   0.054   4.626 -0.3155 -2.5573 -0.4004
11313SOL     OW45157   8.203   9.132   1.860  0.1902  0.3385 -0.1361
11313SOL    HW145158   8.281   9.164   1.914  0.8177  0.4683 -1.1146
11313SOL    HW245159   8.234   9.060   1.797 -0.1327  1.5605 -1.7142
11314SOL     OW45160   2.403   6.175   4.333 -0.3410 -0.3491  0.0623
11314SOL    HW145161   2.465   6.128   4.269  1.0590 -0.7585  1.6747
11314SOL    HW245162   2.444   6.261   4.361 -0.1057 -1.0055  1.7850
11315SOL     OW45163   0.827   5.033   3.581 -0.7930 -0.4873  0.1051
11315SOL    HW145164   0.881   5.032   3.665  1.9114 -2.8440 -1.5828
11315SOL    HW245165   0.821   5.126   3.546  0.5012  0.0920  1.3970
11316SOL     OW45166   2.334   7.046   2.373  0.1842  0.2660  0.0736
11316SOL    HW145167   2.421   7.057   2.325  0.6751 -0.8957  0.6999
11316SOL    HW245168   2.345   7.072   2.469  0.0904 -0.8026  0.3801
11317SOL     OW45169   3.387   2.630   4.905  0.0512 -0.0815  0.5076
11317SOL    HW145170   3.328   2.649   4.827 -0.2883  2.4818  1.3610
11317SOL    HW245171   3.483   2.645   4.879  0.2332 -2.4406 -0.3320
11318SOL     OW45172   0.785   4.657   3.748 -0.4736  0.6377  0.2370
11318SOL    HW145173   0.695   4.700   3.760 -1.2087 -0.7276 -0.3437
11318SOL    HW245174   0.787   4.570   3.797  0.5039  0.6134  0.1568
11319SOL     OW45175   4.888   8.737   2.793 -0.3661 -0.3170 -0.7447
11319SOL    HW145176   4.849   8.692   2.873 -2.3393 -0.3753 -1.7065
11319SOL    HW245177   4.964   8.682   2.758 -0.3021 -0.9377  0.3450
11320SOL     OW45178   3.860   0.223   1.134 -0.1000  0.4663 -0.0687
11320SOL    HW145179   3.845   0.205   1.037 -0.1822  0.1221  0.0060
11320SOL    HW245180   3.786   0.183   1.187 -0.7068  1.7333  0.0503
11321SOL     OW45181   6.851   0.933   3.871 -0.3533  0.7367  0.6305
11321SOL    HW145182   6.836   0.858   3.807  1.1250 -0.2428  1.4157
11321SOL    HW245183   6.819   1.018   3.830 -0.1308 -0.0008 -1.1175
11322SOL     OW45184   6.851   4.659   0.235  0.6649 -0.2047  0.1421
11322SOL    HW145185   6.767   4.632   0.281  0.0189  0.8270 -0.4153
11322SOL    HW245186   6.862   4.759   0.241  1.6641 -0.2941 -0.0875
11323SOL     OW45187   1.542   8.122   4.342 -0.3958 -0.8720  0.5569
11323SOL    HW145188   1.577   8.094   4.253 -1.9295 -1.6392  0.1745
11323SOL    HW245189   1.474   8.056   4.373 -1.3271  0.4590  1.3839
11324SOL     OW45190   3.540   8.373   6.103  0.2161 -0.3065 -0.0053
11324SOL    HW145191   3.634   8.358   6.070  0.6547  0.2283  0.9683
11324SOL    HW245192   3.492   8.286   6.107  0.5680 -0.5485 -0.8106
11325SOL     OW45193   7.850   0.277   0.893 -0.5078  0.2687 -0.2002
11325SOL    HW145194   7.839   0.374   0.917 -4.2500  0.1459 -1.1333
11325SOL    HW245195   7.901   0.230   0.965 -1.3578  2.2959  1.7886
11326SOL     OW45196   3.206   4.886   1.848  0.7210  0.1673  0.3688
11326SOL    HW145197   3.242   4.934   1.768  0.5991 -1.2269 -0.5368
11326SOL    HW245198   3.269   4.897   1.925  0.7468  1.6758  0.1469
11327SOL     OW45199   0.517   6.458   4.592 -0.6422  0.0231 -0.4258
11327SOL    HW145200   0.482   6.377   4.546 -2.7941 -0.2821  1.6431
11327SOL    HW245201   0.441   6.517   4.619  0.7748  1.8381 -0.2597
11328SOL     OW45202   9.674   9.744   5.890 -0.2216  0.0116 -0.3391
11328SOL    HW145203   9.651   9.653   5.925 -0.1845 -0.0487 -0.4661
11328SOL    HW245204   9.680   9.809   5.966  0.3990 -0.2325 -0.1810
11329SOL     OW45205   4.756   2.200   2.616  0.3829  0.3014 -0.2424
11329SOL    HW145206   4.657   2.193   2.608  0.1636  2.5678  0.1539
11329SOL    HW245207   4.792   2.120   2.664 -1.3575 -0.1217  0.3588
11330SOL     OW45208   2.718   2.927   5.109  0.7355  0.0872 -0.0672
11330SOL    HW145209   2.815   2.912   5.131  1.2068  1.4257 -1.2163
11330SOL    HW245210   2.695   3.023   5.124 -0.8070 -0.5277  1.6416
11331SOL     OW45211   7.042   2.871   0.580  0.4917 -0.0203  0.3889
11331SOL    HW145212   7.093   2.947   0.540  0.5258 -0.5903 -0.6632
11331SOL    HW245213   7.085   2.785   0.555 -0.3695 -0.4596  0.3949
11332SOL     OW45214   3.075   4.322   2.767 -0.3940  0.1251 -0.6472
11332SOL    HW145215   2.998   4.344   2.827 -0.3069  1.5327 -1.0389
11332SOL    HW245216   3.103   4.404   2.718  1.3175 -0.3957 -0.5613
11333SOL     OW45217   3.752   2.782   0.356 -0.3464  0.0381 -0.2526
11333SOL    HW145218   3.755   2.870   0.404  0.5082  0.6868 -1.4685
11333SOL    HW245219   3.719   2.712   0.418  1.1102  0.7947  1.4311
11334SOL     OW45220   1.567   9.811   5.937 -0.2477  0.2006 -0.0787
11334SOL    HW145221   1.646   9.766   5.978 -0.5598 -0.2110  0.0672
11334SOL    HW245222   1.520   9.748   5.876  0.6240  1.0110 -1.6432
11335SOL     OW45223   3.759   5.831   4.874 -0.1212  0.0336 -0.0757
11335SOL    HW145224   3.688   5.872   4.818  0.9263  0.1346 -1.3480
11335SOL    HW245225   3.737   5.844   4.971 -1.6023  0.4296 -0.4622
11336SOL     OW45226   0.251   7.771   3.471 -0.1393 -0.0313  0.0931
11336SOL    HW145227   0.292   7.694   3.520  0.6503  0.3350  0.0164
11336SOL    HW245228   0.284   7.771   3.377 -0.2591  0.3134  0.0539
11337SOL     OW45229   1.662   2.575   0.570 -0.0018 -0.1784  0.7555
11337SOL    HW145230   1.627   2.560   0.478  0.8079  0.1900  0.3844
11337SOL    HW245231   1.743   2.519   0.585  1.3725  1.6827  0.3409
11338SOL     OW45232   0.784   5.610   5.510  0.0422  0.1632  0.0063
11338SOL    HW145233   0.769   5.684   5.576 -0.5266 -0.3165  0.4233
11338SOL    HW245234   0.873   5.622   5.466 -0.7955  2.0629 -1.2146
11339SOL     OW45235   2.970   5.754   0.633  0.1596  0.0438  0.2252
11339SOL    HW145236   3.068   5.736   0.621  0.0863 -0.7730  0.8630
11339SOL    HW245237   2.943   5.829   0.573  1.0749 -0.0458 -0.3078
11340SOL     OW45238   9.453   9.875   1.379 -0.0647  0.1297 -0.7424
11340SOL    HW145239   9.421   9.855   1.471 -2.3307  1.8226 -1.1197
11340SOL    HW245240   9.535   9.933   1.384  0.8026 -1.1269  0.1776
11341SOL     OW45241   0.307   8.618   1.751  0.7955 -0.4663  0.0110
11341SOL    HW145242   0.217   8.636   1.789 -0.4736 -1.4723 -2.4409
11341SOL    HW245243   0.353   8.705   1.732  0.0764  0.0569  0.6254
11342SOL     OW45244   5.495   7.408   3.037  0.1358  0.2212 -0.1424
11342SOL    HW145245   5.397   7.424   3.045 -0.3826 -2.2763 -1.1357
11342SOL    HW245246   5.515   7.364   2.949  2.3817  2.2955 -0.7464
11343SOL     OW45247   2.464   7.186   3.703  0.5176  0.7585 -0.3658
11343SOL    HW145248   2.393   7.187   3.773  0.4332  1.8563 -0.4629
11343SOL    HW245249   2.463   7.272   3.653  2.2292  0.9601 -0.0696
11344SOL     OW45250   8.656   5.134   6.292  0.4477  0.7099 -0.2021
11344SOL    HW145251   8.579   5.197   6.303  0.6644  1.2194 -1.6132
11344SOL    HW245252   8.622   5.040   6.300 -0.3969  0.9137 -1.2931
11345SOL     OW45253   2.865   4.502   5.792  0.2872  0.6634 -0.9397
11345SOL    HW145254   2.778   4.546   5.773 -0.4507 -0.5384 -0.4185
11345SOL    HW245255   2.879   4.495   5.890 -0.1879 -1.3537 -0.9989
11346SOL     OW45256   4.309   1.707   6.444 -0.3033  0.4000 -0.1074
11346SOL    HW145257   4.302   1.721   6.543  0.6543 -1.1272  0.1815
11346SOL    HW245258   4.402   1.728   6.414 -0.7265  1.3652 -0.7829
11347SOL     OW45259   4.520   6.679   3.006  0.0912 -0.2927  0.0317
11347SOL    HW145260   4.454   6.656   2.934  0.5068  0.2868 -0.5446
11347SOL    HW245261   4.471   6.715   3.085 -0.3872 -1.1586  0.1293
11348SOL     OW45262   3.232   1.530   4.172 -0.1084  0.1147 -0.5142
11348SOL    HW145263   3.180   1.572   4.098  0.5178 -0.3198 -1.2081
11348SOL    HW245264   3.314   1.487   4.135  1.2929  1.6921  0.7063
11349SOL     OW45265   9.991   1.507   0.654  0.0285  0.4640 -0.3490
11349SOL    HW145266   9.915   1.514   0.718 -0.6203 -1.9895 -0.7874
11349SOL    HW245267   9.999   1.413   0.622  2.8144  0.8326 -0.8729
11350SOL     OW45268   2.097   2.747   4.257 -0.5902 -0.5531 -0.1924
11350SOL    HW145269   2.069   2.792   4.172  2.4074  2.8840  0.5302
11350SOL    HW245270   2.024   2.755   4.325 -2.1570 -1.4608 -1.7210
11351SOL     OW45271   8.479   5.193   4.108  0.5047  0.0420 -0.2786
11351SOL    HW145272   8.439   5.171   4.019  2.4517  1.2321 -1.4748
11351SOL    HW245273   8.484   5.292   4.119  2.6035 -0.0819  0.0701
11352SOL     OW45274   3.612   1.749   3.167  0.2854  0.2373  0.1937
11352SOL    HW145275   3.559   1.685   3.223  0.1217 -0.7690 -1.0736
11352SOL    HW245276   3.676   1.697   3.110 -1.9909  0.9098 -3.1192
11353SOL     OW45277   8.686   4.597   5.453  0.0681 -0.2266  0.1382
11353SOL    HW145278   8.659   4.506   5.484  2.4630 -0.3063  2.2224
11353SOL    HW245279   8.742   4.590   5.371 -1.3533 -0.4567 -0.8346
11354SOL     OW45280   6.015   8.061   3.483  0.0330  0.2430  0.1938
11354SOL    HW145281   6.016   8.058   3.583  1.1950  0.2207  0.1850
11354SOL    HW245282   6.079   8.130   3.451  1.4849 -1.4549 -0.5983
11355SOL     OW45283   2.172   1.979   2.304  0.0345  0.3160  0.5054
11355SOL    HW145284   2.209   1.960   2.395  0.0393 -0.7399  0.2915
11355SOL    HW245285   2.076   2.005   2.312 -0.0846 -0.1956  0.7866
11356SOL     OW45286   9.576   2.307   3.308  0.9172 -0.2502  0.4968
11356SOL    HW145287   9.626   2.279   3.390 -0.0898 -2.7442  0.3041
11356SOL    HW245288   9.547   2.226   3.257 -2.2197  1.1407 -0.0650
11357SOL     OW45289   8.620   8.277   4.693 -0.5535  0.4675 -0.4568
11357SOL    HW145290   8.609   8.367   4.736 -2.3887 -0.7847  1.7860
11357SOL    HW245291   8.531   8.246   4.658 -0.1308 -0.8909 -0.3514
11358SOL     OW45292   7.183   1.823   6.063 -0.1809 -0.3148  0.0485
11358SOL    HW145293   7.274   1.792   6.036 -0.4530 -1.5195  0.4711
11358SOL    HW245294   7.115   1.752   6.040 -0.8485  0.0712  0.7997
11359SOL     OW45295   8.220   5.129   0.249  0.5721  0.0661 -0.2912
11359SOL    HW145296   8.260   5.047   0.288 -0.3243 -0.6591 -0.8743
11359SOL    HW245297   8.268   5.154   0.165 -0.1284 -0.7486 -0.9416
11360SOL     OW45298   7.118   0.393   5.587  0.2715 -0.2213  0.0333
11360SOL    HW145299   7.074   0.428   5.670  0.7928 -0.1426  0.2747
11360SOL    HW245300   7.116   0.293   5.588 -0.4176 -0.2129 -0.2320
11361SOL     OW45301   0.864   6.681   1.480  0.3863 -0.6350 -0.2144
11361SOL    HW145302   0.861   6.660   1.578 -1.0414  0.5209  0.0078
11361SOL    HW245303   0.923   6.760   1.465 -1.1032  0.5444 -0.0051
11362SOL     OW45304   9.568   3.278   3.944 -0.4212 -0.2771  0.1341
11362SOL    HW145305   9.531   3.370   3.932  0.4529 -0.1743 -1.8427
11362SOL    HW245306   9.668   3.282   3.948 -0.3818 -1.1535  0.0274
11363SOL     OW45307   1.286   2.663   1.463  0.0886  0.2416 -0.4569
11363SOL    HW145308   1.376   2.624   1.483 -0.2475  0.1941  1.0960
11363SOL    HW245309   1.215   2.599   1.493 -0.4528  1.0468  0.0103
11364SOL     OW45310   5.421   8.993   1.621  0.1586 -0.1189 -0.5956
11364SOL    HW145311   5.359   9.053   1.569 -0.4917 -0.4638 -0.2197
11364SOL    HW245312   5.371   8.951   1.696  0.7928 -0.5991 -0.4435
11365SOL     OW45313   3.816   2.313   0.983 -0.1030  0.3395  0.2107
11365SOL    HW145314   3.839   2.323   0.886 -0.7470  0.4616  0.0627
11365SOL    HW245315   3.893   2.273   1.032  0.1068 -0.0409 -0.4166
11366SOL     OW45316   2.898   3.023   1.323  0.0381  0.7590  0.1816
11366SOL    HW145317   2.971   3.053   1.262  0.5724 -1.0124 -0.0801
11366SOL    HW245318   2.810   3.037   1.279  0.4530 -1.3518 -1.4429
11367SOL     OW45319   2.435   3.995   1.618 -0.8028  0.1876 -0.1263
11367SOL    HW145320   2.459   3.923   1.553  0.4509  1.2762 -0.8897
11367SOL    HW245321   2.482   3.979   1.705 -0.3737  0.1839 -0.3576
11368SOL     OW45322   4.376   2.292   2.529 -0.0286  0.2143  0.2745
11368SOL    HW145323   4.348   2.386   2.508  0.4835  0.4349  0.5583
11368SOL    HW245324   4.418   2.289   2.620  1.8358  0.1074 -0.5567
11369SOL     OW45325   3.954   9.017   0.267 -0.0223  0.0075  0.1004
11369SOL    HW145326   4.017   9.038   0.343 -0.1035  0.6801 -0.0187
11369SOL    HW245327   3.889   8.947   0.296  1.8733 -1.9877 -0.3197
11370SOL     OW45328   2.615   4.889   3.602 -0.2214 -0.1831  0.1637
11370SOL    HW145329   2.586   4.984   3.590 -3.0643 -1.1577 -1.0391
11370SOL    HW245330   2.596   4.860   3.695  1.1501  0.5617  0.6930
11371SOL     OW45331   7.655   2.809   2.509  0.3630 -0.3377 -0.0393
11371SOL    HW145332   7.699   2.821   2.598 -1.7556  2.3735  0.7047
11371SOL    HW245333   7.581   2.742   2.516  0.2050 -0.1314  0.2383
11372SOL     OW45334   0.443   6.834   6.680  0.9793  0.1917 -0.5203
11372SOL    HW145335   0.490   6.918   6.708  0.0231 -0.0812  1.9984
11372SOL    HW245336   0.356   6.826   6.728  1.4792 -2.7130  0.0304
11373SOL     OW45337   6.620   0.297   4.495  0.5122 -0.1345  0.1881
11373SOL    HW145338   6.635   0.217   4.553  2.0650  0.6609  0.9215
11373SOL    HW245339   6.698   0.310   4.435 -0.8336 -0.6107 -1.7276
11374SOL     OW45340   1.801   7.650   0.247 -0.2660 -0.0294 -0.1353
11374SOL    HW145341   1.900   7.636   0.241 -0.2898 -0.2920  0.0540
11374SOL    HW245342   1.755   7.561   0.249 -0.4086  0.0691  1.2496
11375SOL     OW45343   1.653   9.583   1.413  0.7980  0.0469 -0.0662
11375SOL    HW145344   1.637   9.670   1.366  4.0581  1.1046  0.6647
11375SOL    HW245345   1.680   9.514   1.346 -0.5466 -0.0829 -0.4887
11376SOL     OW45346   1.255   7.173   3.993 -0.2408  0.4417  0.4562
11376SOL    HW145347   1.206   7.154   3.907 -1.0082 -0.4699  1.0849
11376SOL    HW245348   1.290   7.087   4.031  3.7258  1.2933 -1.0538
11377SOL     OW45349   4.475   1.885   5.015  0.8770 -0.0254  0.1689
11377SOL    HW145350   4.548   1.910   5.079  0.5301  1.7968 -0.1137
11377SOL    HW245351   4.516   1.846   4.932  1.2865 -3.2104  1.7880
11378SOL     OW45352   5.108   8.521   6.176 -0.0026  0.0853 -0.0957
11378SOL    HW145353   5.054   8.530   6.259  1.1280  0.5197  0.5993
11378SOL    HW245354   5.053   8.474   6.106 -0.7401 -0.8512  1.0811
11379SOL     OW45355   8.394   5.914   6.519  0.1358  0.6183 -0.0869
11379SOL    HW145356   8.407   5.842   6.587  1.8001  0.9284 -0.0346
11379SOL    HW245357   8.367   5.874   6.432 -0.8443  0.1080  0.4526
11380SOL     OW45358   8.770   9.461   0.981  0.3273  0.7709 -0.8049
11380SOL    HW145359   8.829   9.454   1.061  0.4050 -0.4684 -0.9560
11380SOL    HW245360   8.815   9.516   0.910  1.4886 -0.4982 -1.0784
11381SOL     OW45361   4.577   0.913   0.614  0.0295  0.3252 -0.3437
11381SOL    HW145362   4.639   0.972   0.563  0.1166  2.5349  2.2425
11381SOL    HW245363   4.609   0.818   0.608  1.3159  0.8761 -2.4433
11382SOL     OW45364   0.006   9.017   5.232 -0.6198 -0.0752 -0.6688
11382SOL    HW145365  -0.018   9.049   5.323 -1.0270  0.1568 -0.8548
11382SOL    HW245366   0.001   9.093   5.167  0.5343 -0.0500 -0.7271
11383SOL     OW45367   8.233   0.019   0.315 -0.3044  0.0562  0.0653
11383SOL    HW145368   8.233   0.012   0.215 -1.8432  0.4005  0.0289
11383SOL    HW245369   8.148   0.061   0.346 -1.8673 -4.0522  1.7716
11384SOL     OW45370   1.933   7.631   3.205  0.4483  0.1877 -0.0673
11384SOL    HW145371   1.835   7.646   3.192 -0.0290 -2.9946 -0.5047
11384SOL    HW245372   1.980   7.643   3.118 -0.0296 -1.4693 -0.5773
11385SOL     OW45373   2.492   3.555   0.092  0.0055 -0.1869 -0.0957
11385SOL    HW145374   2.411   3.497   0.108 -0.6817  0.9218  0.4795
11385SOL    HW245375   2.567   3.525   0.150  0.4644 -2.0894 -1.5972
11386SOL     OW45376   0.108   2.583   0.716 -0.0287 -0.3947 -0.3678
11386SOL    HW145377   0.043   2.654   0.687  0.2726 -0.2979 -0.8185
11386SOL    HW245378   0.079   2.545   0.804 -0.0894  0.4261 -0.0237
11387SOL     OW45379   8.999   9.713   4.507  0.0428  0.1585  0.2089
11387SOL    HW145380   8.905   9.680   4.523  0.3206 -1.3983 -1.2221
11387SOL    HW245381   8.997   9.784   4.438 -0.1826  0.8065  0.8739
11388SOL     OW45382   0.647   3.754   4.983  0.5324 -0.4080  0.6484
11388SOL    HW145383   0.653   3.713   4.892  1.2595 -0.2057  0.6001
11388SOL    HW245384   0.739   3.769   5.019  0.2423 -1.1076  1.7032
11389SOL     OW45385   0.214   5.333   0.144  0.3414  0.0337 -0.3229
11389SOL    HW145386   0.184   5.388   0.067 -1.0621  0.2711  0.3842
11389SOL    HW245387   0.278   5.263   0.112 -0.3168  0.0559 -1.7228
11390SOL     OW45388   3.716   9.929   2.280  0.0596 -0.1578 -0.5522
11390SOL    HW145389   3.695  10.024   2.256  0.5547 -0.3687 -1.8794
11390SOL    HW245390   3.812   9.922   2.307 -0.8132  0.3250  2.9456
11391SOL     OW45391   5.126   3.029   3.967  0.2925  0.1296 -0.2286
11391SOL    HW145392   5.064   3.078   4.029 -0.9531 -1.3913 -0.2538
11391SOL    HW245393   5.207   3.086   3.950 -0.1538  1.3025  1.3918
11392SOL     OW45394   0.321   1.977   3.678  0.4331 -0.1520 -0.0934
11392SOL    HW145395   0.386   1.944   3.610  0.5151 -1.5830  0.6573
11392SOL    HW245396   0.240   2.012   3.632  0.6444 -0.7669 -0.9451
11393SOL     OW45397   9.462   1.296   0.089 -0.0199 -0.4182  0.1715
11393SOL    HW145398   9.475   1.394   0.104 -0.8686 -0.3534  0.5340
11393SOL    HW245399   9.537   1.260   0.034  1.2445  0.0745  1.5402
11394SOL     OW45400   9.107   2.257   0.373 -0.4599 -0.7774 -0.0083
11394SOL    HW145401   9.150   2.315   0.442 -0.8804 -1.1887  0.6060
11394SOL    HW245402   9.175   2.228   0.306 -0.0516 -0.3539  0.2195
11395SOL     OW45403   8.627   3.861   5.859 -0.1041 -0.0863  0.6493
11395SOL    HW145404   8.651   3.953   5.830 -0.8431 -0.1243 -0.0859
11395SOL    HW245405   8.566   3.866   5.938 -1.4366  0.0994 -0.3655
11396SOL     OW45406   1.925   9.521   3.046  0.2100  0.2104  0.2816
11396SOL    HW145407   1.893   9.472   2.965  0.4269  1.5228 -0.6241
11396SOL    HW245408   2.017   9.490   3.069  0.2424 -0.0011 -0.1194
11397SOL     OW45409   5.084   1.529   5.186 -0.2288 -0.0166 -0.0229
11397SOL    HW145410   5.128   1.520   5.097 -0.7926 -0.3115 -0.2713
11397SOL    HW245411   5.068   1.438   5.225 -1.0113  0.0790 -0.1227
11398SOL     OW45412   2.066   2.946   5.820 -0.0679  0.5297  0.1467
11398SOL    HW145413   1.968   2.931   5.820 -0.0039  0.1349  0.7293
11398SOL    HW245414   2.109   2.887   5.751 -0.2069  0.5010  0.0854
11399SOL     OW45415   2.365   1.177   5.268 -0.3159  0.9787 -0.5126
11399SOL    HW145416   2.338   1.093   5.315  0.0726  1.3388  0.3740
11399SOL    HW245417   2.383   1.248   5.336  1.3674  1.1925 -1.1640
11400SOL     OW45418   1.847   2.401   3.864  0.0459 -0.2219 -0.5272
11400SOL    HW145419   1.902   2.342   3.922 -1.0302 -0.6834  0.0321
11400SOL    HW245420   1.889   2.408   3.773  1.8534  0.6904  0.3564
11401SOL     OW45421   8.310   1.837   1.842 -0.2433  0.0012  0.3111
11401SOL    HW145422   8.356   1.923   1.823  2.2506 -1.5208 -0.7645
11401SOL    HW245423   8.346   1.798   1.927  0.1250 -0.9478 -0.2687
11402SOL     OW45424   2.394   1.761   2.209  0.1402  0.0308 -0.4182
11402SOL    HW145425   2.372   1.664   2.203 -0.6530  0.1803  0.0211
11402SOL    HW245426   2.310   1.814   2.218  0.5345  0.7989 -1.1508
11403SOL     OW45427   4.799   2.930   3.177 -0.1675 -0.0234  0.5880
11403SOL    HW145428   4.785   2.967   3.085 -0.6564 -1.3432  0.1259
11403SOL    HW245429   4.885   2.880   3.180 -0.3041 -0.2431  0.7710
11404SOL     OW45430   0.974   1.691   4.905 -0.3329  0.5216 -0.4717
11404SOL    HW145431   0.978   1.790   4.918 -0.8773  0.4815  0.0601
11404SOL    HW245432   0.878   1.661   4.905 -0.1684 -0.0190 -0.4657
11405SOL     OW45433   3.890   5.939   2.324 -0.2891 -0.6220  0.2572
11405SOL    HW145434   3.870   5.929   2.226 -1.2101 -0.9100  0.4740
11405SOL    HW245435   3.831   6.010   2.363  1.6262  1.0695  0.1409
11406SOL     OW45436   7.998   0.126   0.462  0.5987 -0.2031  0.1765
11406SOL    HW145437   8.061   0.200   0.481 -0.4318  0.6885  0.1820
11406SOL    HW245438   7.923   0.128   0.529  0.4951 -1.1750  0.1049
11407SOL     OW45439   7.589   9.803   3.787 -0.1206  0.3282 -0.0397
11407SOL    HW145440   7.686   9.792   3.807 -0.4109 -0.4828  1.0057
11407SOL    HW245441   7.575   9.885   3.732  1.1955  0.2177 -0.5502
11408SOL     OW45442   5.194   9.468   2.049  0.3781  0.0489  0.3340
11408SOL    HW145443   5.237   9.382   2.018  0.1851  0.0147  0.1556
11408SOL    HW245444   5.200   9.535   1.975  2.2500  0.8182  1.1445
11409SOL     OW45445   2.250   1.295   5.651  0.6506 -0.1365  0.3068
11409SOL    HW145446   2.251   1.195   5.658  0.9216 -0.1479  0.0806
11409SOL    HW245447   2.175   1.323   5.591 -0.0719 -0.1553  1.1818
11410SOL     OW45448   0.245   5.163   5.170 -0.3783 -0.0221 -0.1298
11410SOL    HW145449   0.156   5.163   5.123 -0.4435 -0.5402 -0.0048
11410SOL    HW245450   0.316   5.135   5.106 -0.3610 -0.0144 -0.1139
11411SOL     OW45451   1.420   6.116  -0.003  0.3194 -0.0984 -0.2321
11411SOL    HW145452   1.356   6.040  -0.013  0.2352  0.0538 -0.8720
11411SOL    HW245453   1.430   6.139   0.093 -0.2153 -0.4397 -0.0954
11412SOL     OW45454   5.262   1.486   1.481 -0.1639  0.5025 -0.3702
11412SOL    HW145455   5.201   1.528   1.415 -1.8401  0.3836  1.0518
11412SOL    HW245456   5.286   1.553   1.552  0.9543  0.4007 -0.6438
11413SOL     OW45457   7.112   1.600   2.190  0.8420 -0.3453  0.2943
11413SOL    HW145458   7.179   1.534   2.223  2.1932 -0.3800 -2.4338
11413SOL    HW245459   7.153   1.691   2.188 -0.1829  0.1630  1.5098
11414SOL     OW45460   8.964   6.348   6.210  0.7744 -0.4969 -0.0275
11414SOL    HW145461   8.979   6.334   6.308 -0.6967 -1.2418  0.1064
11414SOL    HW245462   8.989   6.442   6.186  1.7090 -0.4919  0.9445
11415SOL     OW45463   4.888   4.286   3.457 -0.2683  0.0301 -1.1989
11415SOL    HW145464   4.969   4.228   3.457  0.2328  0.7079  0.1206
11415SOL    HW245465   4.806   4.228   3.462  0.2288 -0.5745  0.3128
11416SOL     OW45466   8.573   4.634   3.791  0.2477 -0.3507 -0.4449
11416SOL    HW145467   8.653   4.580   3.814  0.6070 -0.0056 -0.8789
11416SOL    HW245468   8.547   4.617   3.695  0.0362 -0.1716 -0.4218
11417SOL     OW45469   5.375   0.989   1.486 -0.3436  0.1454  0.0280
11417SOL    HW145470   5.276   0.980   1.497 -0.2731 -1.3867 -0.4265
11417SOL    HW245471   5.399   1.085   1.473 -1.7400  0.5539  0.4355
11418SOL     OW45472   8.554   1.475   6.336  0.0766  0.1080  0.2229
11418SOL    HW145473   8.592   1.567   6.323  0.2012  0.1721  1.0561
11418SOL    HW245474   8.455   1.477   6.317 -0.2201  0.7544  1.7628
11419SOL     OW45475   9.600   7.036   4.810  0.3101  0.4219  0.2073
11419SOL    HW145476   9.586   6.939   4.791  0.1249  0.6869 -1.0192
11419SOL    HW245477   9.519   7.088   4.783  0.5416  0.9582  0.5430
11420SOL     OW45478   4.277   4.847   5.837 -0.5971 -0.0284 -0.3234
11420SOL    HW145479   4.342   4.779   5.872  0.4837 -0.2926 -2.7375
11420SOL    HW245480   4.326   4.931   5.814 -1.3858  0.3451 -0.6502
11421SOL     OW45481   3.515   1.003   2.965  0.2989  0.3167 -0.1826
11421SOL    HW145482   3.587   1.073   2.960  0.0607  0.6086  0.4134
11421SOL    HW245483   3.491   0.987   3.061 -0.3485  0.1334 -0.3750
11422SOL     OW45484   5.647   2.384   2.533  0.4435  0.2745  0.6649
11422SOL    HW145485   5.732   2.422   2.568  0.7963  1.7178 -1.6437
11422SOL    HW245486   5.572   2.411   2.593  1.4173  0.1979  1.9297
11423SOL     OW45487   9.163   0.540   0.542  0.0324 -0.1289  0.2186
11423SOL    HW145488   9.228   0.498   0.478 -0.0938  0.7763 -0.5218
11423SOL    HW245489   9.070   0.510   0.520  0.2275 -1.8358  1.6065
11424SOL     OW45490   1.869   7.012   5.657 -0.3268 -0.2784 -0.1725
11424SOL    HW145491   1.783   7.013   5.606 -0.6823  0.5768  0.4378
11424SOL    HW245492   1.859   6.957   5.739 -0.3466 -0.0368 -0.0116
11425SOL     OW45493   0.220   1.185   6.474  0.2677 -0.3673 -0.0799
11425SOL    HW145494   0.246   1.256   6.540 -0.4567 -0.3908  0.2407
11425SOL    HW245495   0.163   1.117   6.520 -0.5312 -0.1977 -0.8130
11426SOL     OW45496   6.059   0.576   2.334 -0.2850  0.1855  0.3174
11426SOL    HW145497   5.995   0.543   2.403  0.8793 -0.6160  1.0185
11426SOL    HW245498   6.059   0.513   2.256 -1.7645  1.2071 -0.5450
11427SOL     OW45499   0.718   1.222   4.611 -0.0019  0.1683  0.3046
11427SOL    HW145500   0.775   1.159   4.558  1.2277  1.9167 -0.4916
11427SOL    HW245501   0.777   1.286   4.660 -1.2166  0.1598  1.8014
11428SOL     OW45502   8.364   6.846   3.042  0.0222 -0.0300  0.4991
11428SOL    HW145503   8.399   6.934   3.011 -1.2880  0.3022 -0.0738
11428SOL    HW245504   8.424   6.773   3.010  0.4475  0.5680 -0.0740
11429SOL     OW45505   4.012   2.039   4.942 -0.3498 -0.1011 -0.1207
11429SOL    HW145506   4.098   2.090   4.935  0.1323 -0.8423  0.4067
11429SOL    HW245507   3.964   2.067   5.025 -0.5599  0.2243 -0.3518
11430SOL     OW45508   8.480   2.498   1.416 -0.2755 -1.1231 -0.2311
11430SOL    HW145509   8.415   2.560   1.372  0.6723 -0.0603 -0.1286
11430SOL    HW245510   8.487   2.414   1.362 -0.4295 -0.5298 -1.1746
11431SOL     OW45511   8.818   1.158   0.803  0.1806 -0.5103 -0.6867
11431SOL    HW145512   8.912   1.129   0.819  1.2675  1.0344 -3.8114
11431SOL    HW245513   8.815   1.217   0.722 -3.0943  1.6001  0.8891
11432SOL     OW45514   5.169   2.280   3.753  0.5593 -0.1523  0.0489
11432SOL    HW145515   5.252   2.330   3.778  0.0883  0.5803  0.1464
11432SOL    HW245516   5.089   2.339   3.766  0.1062 -0.5386 -0.9767
11433SOL     OW45517   6.842   1.083   2.405 -0.1883 -0.0682 -0.3686
11433SOL    HW145518   6.933   1.041   2.416 -0.4687 -0.7098 -0.4673
11433SOL    HW245519   6.772   1.017   2.433 -0.6796  0.0218 -1.3657
11434SOL     OW45520   8.545   9.379   6.687  0.1376  0.0436 -0.2531
11434SOL    HW145521   8.615   9.357   6.619  0.8394 -0.8217  0.7428
11434SOL    HW245522   8.586   9.431   6.762 -0.1418 -1.1017  0.6921
11435SOL     OW45523   8.362   3.938   4.990  0.3268 -0.6140 -0.2389
11435SOL    HW145524   8.294   3.957   4.919  1.2377 -1.2133 -1.2815
11435SOL    HW245525   8.317   3.899   5.070 -0.3509 -2.7335 -1.6017
11436SOL     OW45526   6.360   0.455   2.759 -0.3794  0.6330 -0.5623
11436SOL    HW145527   6.264   0.427   2.755 -0.5430  1.1098  0.0045
11436SOL    HW245528   6.418   0.375   2.742 -0.8568  0.0351  0.5855
11437SOL     OW45529   1.611   0.093   3.831 -0.1624  0.4148  0.0397
11437SOL    HW145530   1.652   0.105   3.740 -0.8285 -0.3862 -0.3819
11437SOL    HW245531   1.607  -0.005   3.853 -1.3345  0.5092  0.2986
11438SOL     OW45532   3.606   3.542   4.990 -0.5834 -0.1013  0.1018
11438SOL    HW145533   3.641   3.575   5.078  2.3376  0.2551 -1.1402
11438SOL    HW245534   3.569   3.450   5.001  0.1998 -0.2501  1.6034
11439SOL     OW45535   8.803   5.898   2.019 -1.3007 -1.1853 -0.0886
11439SOL    HW145536   8.873   5.826   2.015 -0.8457 -0.7088 -0.8136
11439SOL    HW245537   8.800   5.945   1.931 -1.6632 -0.3703  0.3647
11440SOL     OW45538   9.236   1.561   3.203 -0.6331 -0.0705  0.3541
11440SOL    HW145539   9.182   1.644   3.212 -0.6792 -0.2119  1.3616
11440SOL    HW245540   9.333   1.583   3.220  0.2537  0.9354 -4.8907
11441SOL     OW45541   3.156   5.866   2.922 -0.5893  0.2486  0.1525
11441SOL    HW145542   3.078   5.860   2.984 -1.1437 -0.5276 -0.6117
11441SOL    HW245543   3.125   5.864   2.827  0.3268  0.2434 -0.1572
11442SOL     OW45544   9.963   1.235   2.128 -0.2298  0.1713 -0.3569
11442SOL    HW145545   9.953   1.237   2.029 -1.4895  0.6990 -0.2246
11442SOL    HW245546  10.053   1.271   2.153 -0.6476  1.8872 -1.2161
11443SOL     OW45547   5.613   2.674   3.111 -0.0279  0.4210 -0.4500
11443SOL    HW145548   5.565   2.723   3.039 -0.9840  0.3340  0.1179
11443SOL    HW245549   5.678   2.610   3.070 -1.8615 -0.9472 -1.2964
11444SOL     OW45550   0.397   2.042   6.654  0.0805  0.8349  0.6546
11444SOL    HW145551   0.389   1.960   6.711 -0.4382  0.4359  0.0120
11444SOL    HW245552   0.329   2.039   6.582  0.8843  1.2235 -0.1349
11445SOL     OW45553   4.271   6.517   1.064  0.2373  0.0284  0.2912
11445SOL    HW145554   4.335   6.456   1.017 -0.5082 -0.0624 -0.6215
11445SOL    HW245555   4.315   6.555   1.145  1.5064  0.1126 -0.4276
11446SOL     OW45556   2.186   3.264   6.331 -0.0925 -0.1126 -0.3434
11446SOL    HW145557   2.261   3.208   6.296  1.2493  1.5706 -0.1958
11446SOL    HW245558   2.139   3.307   6.254  0.5208  0.6398 -0.2954
11447SOL     OW45559   3.692   7.898   3.637 -0.8321 -0.3349  0.3077
11447SOL    HW145560   3.696   7.801   3.662  1.3905  0.2281  2.4111
11447SOL    HW245561   3.778   7.942   3.663 -1.1107  1.8338 -2.2822
11448SOL     OW45562   8.646   1.186   2.891 -0.1872  0.1387  0.2753
11448SOL    HW145563   8.589   1.167   2.811 -1.3709  3.4578  0.2550
11448SOL    HW245564   8.736   1.219   2.860  0.1356 -0.6614  0.3357
11449SOL     OW45565   4.165   4.067   1.574 -0.4340 -0.1071 -0.0997
11449SOL    HW145566   4.195   3.973   1.590  1.1869 -0.2436 -3.5103
11449SOL    HW245567   4.132   4.077   1.480 -1.6460  2.4906  0.5301
11450SOL     OW45568   0.502   2.959   3.515  0.1388 -0.6777  0.0415
11450SOL    HW145569   0.514   3.007   3.601 -0.8204 -1.2636  0.5089
11450SOL    HW245570   0.554   2.873   3.516 -0.3535 -0.9773  0.2786
11451SOL     OW45571   3.956   2.588   0.836 -0.2000  0.1701  0.1654
11451SOL    HW145572   3.879   2.534   0.868  0.5899 -0.6449  0.7207
11451SOL    HW245573   4.042   2.543   0.862  0.4784  1.7188  0.6883
11452SOL     OW45574   4.793   7.751   2.587  0.5481 -0.3001  0.2333
11452SOL    HW145575   4.830   7.659   2.573  0.0121 -0.9429  2.7924
11452SOL    HW245576   4.705   7.745   2.633 -1.0366  1.3887 -2.4502
11453SOL     OW45577   3.460   3.769   2.748  0.0220 -0.0683 -0.8291
11453SOL    HW145578   3.557   3.792   2.749 -0.1861  0.7819 -0.3555
11453SOL    HW245579   3.411   3.831   2.687 -0.3241 -0.1019 -0.5890
11454SOL     OW45580   1.326   0.138   3.729  0.2362  0.1205  0.4822
11454SOL    HW145581   1.274   0.220   3.704  0.7171  0.5009  0.7251
11454SOL    HW245582   1.411   0.165   3.773  0.3543 -0.5155  0.6447
11455SOL     OW45583   8.505   4.193   5.631  0.1794 -0.2757  0.5268
11455SOL    HW145584   8.450   4.273   5.653 -0.1186 -0.7003  1.3462
11455SOL    HW245585   8.472   4.114   5.683 -0.8681 -1.4360 -1.7811
11456SOL     OW45586   8.371   8.437   2.280 -0.1814 -0.2813 -0.2744
11456SOL    HW145587   8.322   8.380   2.214 -0.2185  1.2005 -1.5468
11456SOL    HW245588   8.468   8.441   2.255 -0.4241  1.3440 -1.0284
11457SOL     OW45589   3.725   1.542   2.588  0.1895  0.3398  0.2710
11457SOL    HW145590   3.695   1.468   2.649  1.1432 -1.5380 -1.4928
11457SOL    HW245591   3.696   1.630   2.626 -0.3217 -0.8729  2.7901
11458SOL     OW45592   7.898   2.540   2.555 -0.4635 -0.7453  0.2206
11458SOL    HW145593   7.918   2.470   2.623  0.5804 -0.6180  0.0569
11458SOL    HW245594   7.881   2.628   2.600 -1.8924 -1.1231  0.4321
11459SOL     OW45595   5.636   0.679   1.600  0.5649 -0.4166  0.0583
11459SOL    HW145596   5.604   0.704   1.509 -1.6177 -0.2491  0.8402
11459SOL    HW245597   5.604   0.746   1.667  0.3871 -1.6334  1.2357
11460SOL     OW45598   3.900   0.442   4.941 -0.2618 -0.1767 -0.4851
11460SOL    HW145599   3.876   0.402   4.852 -1.0790 -0.2201 -0.2501
11460SOL    HW245600   3.915   0.540   4.930  2.2638 -0.5977 -1.1623
11461SOL     OW45601   5.004   2.994   4.242  0.6743 -0.5559  0.6076
11461SOL    HW145602   4.938   3.067   4.223  0.2728 -1.2572 -0.7514
11461SOL    HW245603   5.025   2.994   4.340 -0.9717 -0.0124  0.9934
11462SOL     OW45604   7.102   1.286   2.076  0.5977 -0.0166 -0.5709
11462SOL    HW145605   7.178   1.311   2.135  0.4980 -1.4919  0.2197
11462SOL    HW245606   7.017   1.322   2.113  0.6257 -0.3410 -0.1861
11463SOL     OW45607   9.006   9.068   0.819 -0.3207 -0.5824 -0.1346
11463SOL    HW145608   9.064   9.003   0.769  1.4953  1.1936 -0.4331
11463SOL    HW245609   9.022   9.059   0.917  0.2298 -0.3334 -0.1985
11464SOL     OW45610   6.897   1.915   4.756 -0.1998  0.4908  0.2724
11464SOL    HW145611   6.891   1.839   4.692 -2.1858  0.1781  0.7874
11464SOL    HW245612   6.993   1.939   4.771  0.4676 -1.9977  0.2278
11465SOL     OW45613   1.990   9.126   6.376  0.8985  0.1176 -0.3023
11465SOL    HW145614   2.063   9.159   6.316  3.2817 -1.3196  1.7147
11465SOL    HW245615   2.009   9.152   6.470 -0.7835 -0.9793  0.3785
11466SOL     OW45616   2.599   8.843   3.656 -0.1875  0.0949 -0.3373
11466SOL    HW145617   2.601   8.773   3.728 -4.0600  0.7341  0.4777
11466SOL    HW245618   2.629   8.931   3.693  0.4584 -0.1665 -0.2354
11467SOL     OW45619   1.684   7.871   3.379 -1.1003  0.6082  0.5888
11467SOL    HW145620   1.680   7.795   3.314  1.7557  2.9660 -2.5348
11467SOL    HW245621   1.758   7.855   3.444 -0.2639  0.8735 -0.2898
11468SOL     OW45622   8.264   9.013   1.300  0.1585 -0.4460  0.8897
11468SOL    HW145623   8.193   9.059   1.353  0.9752  0.1538  1.4730
11468SOL    HW245624   8.241   8.916   1.292 -1.6352  0.0625 -0.4463
11469SOL     OW45625   4.631   4.644   5.419  0.2221 -0.0962 -0.4189
11469SOL    HW145626   4.708   4.617   5.476  0.3210 -1.3251 -1.1137
11469SOL    HW245627   4.546   4.609   5.457  0.3681 -1.5704 -1.4131
11470SOL     OW45628   0.156   7.790   5.694 -1.0783  0.0673  0.0075
11470SOL    HW145629   0.057   7.798   5.701 -1.1240  0.9615 -1.4888
11470SOL    HW245630   0.198   7.881   5.695 -0.3227 -0.2734  0.0024
11471SOL     OW45631   9.925   5.398   3.721 -0.4511  0.5783  0.1715
11471SOL    HW145632   9.953   5.309   3.685  0.1687  0.8363  0.0129
11471SOL    HW245633   9.839   5.426   3.678 -0.9879 -0.2392  0.6980
11472SOL     OW45634   3.208   6.066   1.436  0.2209 -0.1825 -0.1057
11472SOL    HW145635   3.225   6.137   1.368  0.3505 -0.9157 -0.8337
11472SOL    HW245636   3.292   6.015   1.453  0.1976  0.0168  0.6255
11473SOL     OW45637   3.140   6.050   4.234  0.6087 -0.0048 -0.4343
11473SOL    HW145638   3.097   6.078   4.320  2.2745 -0.8201  0.7035
11473SOL    HW245639   3.198   6.124   4.201  0.1005  0.2454 -0.7645
11474SOL     OW45640   3.413   2.267   0.034  0.0611  0.3028 -0.3166
11474SOL    HW145641   3.510   2.290   0.019 -0.0986  1.9434  1.0645
11474SOL    HW245642   3.401   2.233   0.127 -0.8345  1.0306 -0.1582
11475SOL     OW45643   9.173   3.449   5.151  1.1487 -0.6874 -0.2676
11475SOL    HW145644   9.229   3.476   5.073 -1.3638 -0.9845 -2.2620
11475SOL    HW245645   9.087   3.410   5.118 -0.4169  0.1196  2.6489
11476SOL     OW45646   8.859   5.725   5.380 -0.5502  0.4778 -0.0034
11476SOL    HW145647   8.792   5.706   5.452  1.8309 -0.2424  2.1035
11476SOL    HW245648   8.853   5.655   5.309 -1.6060  0.0756  0.4679
11477SOL     OW45649   9.742   6.050   2.520 -0.3370 -0.3670 -0.0431
11477SOL    HW145650   9.704   5.977   2.577  0.0522 -0.0531  0.6267
11477SOL    HW245651   9.839   6.062   2.541  0.5947 -2.3000 -2.9423
11478SOL     OW45652   9.340   1.692   0.790 -0.1338 -0.7165  0.0225
11478SOL    HW145653   9.278   1.616   0.808 -0.6056 -0.4664 -0.5001
11478SOL    HW245654   9.314   1.771   0.845 -1.1165 -0.1882 -1.1659
11479SOL     OW45655   9.449   5.396   0.949 -0.2574 -0.2319  0.1901
11479SOL    HW145656   9.361   5.387   0.995 -0.5991  0.6336 -0.2879
11479SOL    HW245657   9.521   5.404   1.019 -0.9897  3.1447  0.6452
11480SOL     OW45658   8.899   5.254   4.536  0.6922 -0.0721  0.2917
11480SOL    HW145659   8.902   5.155   4.545  0.5271 -0.0152  1.0158
11480SOL    HW245660   8.866   5.294   4.621 -1.5465  0.4834 -0.7974
11481SOL     OW45661   2.033   8.659   5.624  0.4606 -0.1225 -0.0772
11481SOL    HW145662   2.016   8.739   5.682  4.4912 -0.2348  1.4433
11481SOL    HW245663   1.946   8.620   5.596 -1.6299  2.4614  2.4026
11482SOL     OW45664   8.798   9.933   4.779  0.1062 -0.2452  0.3210
11482SOL    HW145665   8.830   9.984   4.700 -0.9437 -1.6233 -1.0163
11482SOL    HW245666   8.877   9.910   4.837  0.8275  1.1332 -0.0785
11483SOL     OW45667   0.715   0.289   4.006  0.4508  0.1808 -0.2451
11483SOL    HW145668   0.751   0.280   3.913  0.4266  0.9168 -0.3246
11483SOL    HW245669   0.780   0.342   4.061  0.8267 -0.8914  0.3605
11484SOL     OW45670   3.491   2.568   2.850 -0.0886  0.3230 -0.2984
11484SOL    HW145671   3.495   2.523   2.760 -0.2430  2.1024 -1.2248
11484SOL    HW245672   3.504   2.666   2.838  1.0771  0.4442  1.7783
11485SOL     OW45673   2.272   8.526   0.713  0.2422  0.9275 -0.2787
11485SOL    HW145674   2.196   8.474   0.675  0.6058 -0.5342  0.9534
11485SOL    HW245675   2.316   8.578   0.640  0.5503 -1.3388 -1.7540
11486SOL     OW45676   4.093   5.215   0.037 -0.5042 -0.5220 -0.3377
11486SOL    HW145677   4.059   5.152  -0.033 -0.8401 -0.4739 -0.2220
11486SOL    HW245678   4.025   5.287   0.052 -0.0658 -0.0591 -0.5606
11487SOL     OW45679   3.530   3.742   1.882 -0.3490 -0.1578  0.5260
11487SOL    HW145680   3.565   3.663   1.832  0.7579  1.1012 -0.7600
11487SOL    HW245681   3.551   3.732   1.979 -0.3623 -1.5173  0.3921
11488SOL     OW45682   0.252   4.635   0.751  0.1000 -0.4451 -0.3487
11488SOL    HW145683   0.268   4.630   0.850  0.3508  1.7666 -0.2503
11488SOL    HW245684   0.339   4.641   0.703 -0.0714  0.2167 -0.5821
11489SOL     OW45685   8.407   5.083   3.853  0.0519 -0.0808 -0.2567
11489SOL    HW145686   8.348   5.099   3.774  0.2754 -2.0208 -0.8335
11489SOL    HW245687   8.497   5.052   3.823  0.4790  0.1677  0.7250
11490SOL     OW45688   5.603   2.203   4.168 -0.2016 -0.2964 -0.0190
11490SOL    HW145689   5.588   2.156   4.255 -0.5479 -0.5738 -0.2236
11490SOL    HW245690   5.687   2.258   4.173 -1.2352  1.2003  1.1070
11491SOL     OW45691   7.029   2.450   4.404  0.4245  0.0646 -0.2992
11491SOL    HW145692   6.945   2.398   4.385  0.7284  0.1952 -2.1401
11491SOL    HW245693   7.106   2.404   4.361  1.3524 -0.1827  1.5980
11492SOL     OW45694   0.187   6.425   4.150 -0.1627  0.2727 -0.2960
11492SOL    HW145695   0.165   6.513   4.110 -0.7099  0.7814  1.0767
11492SOL    HW245696   0.286   6.413   4.155 -0.0952  0.5569 -1.0211
11493SOL     OW45697   1.595   7.952   2.255 -0.4031  0.6468  0.5065
11493SOL    HW145698   1.620   8.043   2.291  2.5269  0.8614 -1.9154
11493SOL    HW245699   1.674   7.892   2.259 -1.8032 -1.2569  0.2674
11494SOL     OW45700   8.502   6.887   5.169  0.1666  0.0828 -0.4840
11494SOL    HW145701   8.527   6.867   5.075  0.0134  1.3663 -0.8125
11494SOL    HW245702   8.480   6.802   5.217 -0.6449 -0.5030 -1.8650
11495SOL     OW45703   2.807   4.939   0.658  0.2577 -0.5931 -0.0677
11495SOL    HW145704   2.771   4.882   0.584 -0.0448  1.6444 -1.6859
11495SOL    HW245705   2.742   5.011   0.680  1.5037  0.3612  0.5507
11496SOL     OW45706   1.772   6.944   3.015 -0.2464 -0.1592  0.3166
11496SOL    HW145707   1.805   6.890   2.937 -0.8911  0.3840 -0.3395
11496SOL    HW245708   1.850   6.978   3.067  0.2860  1.5999 -1.5448
11497SOL     OW45709   1.223   2.345   0.660  0.4000  0.4782 -0.1017
11497SOL    HW145710   1.318   2.319   0.641  0.1548  0.0773 -0.7656
11497SOL    HW245711   1.187   2.287   0.733 -0.2790 -1.3315 -1.8509
11498SOL     OW45712   2.106   4.375   5.149  0.0008  0.1092  0.2559
11498SOL    HW145713   2.041   4.359   5.075 -0.4455  0.6691  0.5245
11498SOL    HW245714   2.104   4.298   5.212  0.5018 -0.4472 -0.4005
11499SOL     OW45715   8.125   4.198   0.883  0.1830  0.4754 -0.8177
11499SOL    HW145716   8.162   4.272   0.939  1.8851 -0.8808 -0.1333
11499SOL    HW245717   8.025   4.194   0.895 -0.0747  3.2374 -1.5927
11500SOL     OW45718   8.549   6.572   0.713  0.0762  0.1776 -0.0896
11500SOL    HW145719   8.602   6.654   0.696  0.6685 -0.1654  0.0724
11500SOL    HW245720   8.601   6.492   0.682 -0.4251 -0.1449 -0.1007
11501SOL     OW45721   5.312   1.652   3.171 -0.2043  0.3380 -0.7394
11501SOL    HW145722   5.241   1.587   3.147 -0.7080  0.8467 -0.6371
11501SOL    HW245723   5.329   1.714   3.095 -1.0829  1.3028 -0.1614
11502SOL     OW45724   2.187   4.202   2.758  0.3818 -0.2917 -0.3458
11502SOL    HW145725   2.247   4.279   2.776 -0.5284  0.2630  0.3298
11502SOL    HW245726   2.233   4.117   2.785  1.0545  0.0819 -0.3085
11503SOL     OW45727   1.699   4.533   2.158 -0.1316 -0.7419  0.1200
11503SOL    HW145728   1.750   4.594   2.098  0.4051 -0.3128  1.0021
11503SOL    HW245729   1.759   4.500   2.231 -1.0284 -0.4335  1.0161
11504SOL     OW45730   0.980   3.323   3.789  0.6611 -0.1188  0.6249
11504SOL    HW145731   0.924   3.402   3.762  0.7331 -0.4318 -0.4369
11504SOL    HW245732   1.004   3.269   3.709  1.9317 -0.3674  1.1481
11505SOL     OW45733   7.965   7.497   4.654  0.1716  0.0113  0.1190
11505SOL    HW145734   7.953   7.403   4.621  2.3233 -0.1527 -0.3309
11505SOL    HW245735   7.908   7.512   4.734  0.3061 -1.9048  0.6040
11506SOL     OW45736   5.862   8.036   4.591  0.0167 -0.2124  0.0661
11506SOL    HW145737   5.846   8.078   4.681  0.8203 -0.1861  0.1992
11506SOL    HW245738   5.943   7.977   4.596  1.4708  1.6034 -1.2316
11507SOL     OW45739   5.438   1.131   5.958 -0.2733  0.5160  0.2070
11507SOL    HW145740   5.371   1.063   5.988 -0.8699  0.9645 -0.0722
11507SOL    HW245741   5.530   1.098   5.976 -0.5265 -0.6998 -0.6320
11508SOL     OW45742   8.824   1.849   6.067 -0.1563  0.1076  0.3811
11508SOL    HW145743   8.821   1.792   5.985 -0.3605 -0.8786  1.0652
11508SOL    HW245744   8.896   1.917   6.057  0.5769 -0.7280 -0.1624
11509SOL     OW45745   0.061   3.094   6.274 -0.4043 -0.3074 -0.1281
11509SOL    HW145746   0.157   3.121   6.274 -0.0722 -1.3016 -3.0830
11509SOL    HW245747   0.054   2.998   6.303 -0.5599 -0.0879  0.5627
11510SOL     OW45748   8.933   9.217   4.370  0.4799 -0.2178  0.0573
11510SOL    HW145749   8.907   9.224   4.466  2.6291 -0.9135  0.7269
11510SOL    HW245750   8.888   9.137   4.330 -1.4512  0.8195  0.1102
11511SOL     OW45751   2.511   8.160   3.394 -0.3690 -0.2289 -0.1791
11511SOL    HW145752   2.549   8.243   3.353  1.9750 -0.3615  1.6154
11511SOL    HW245753   2.451   8.184   3.470  0.9646 -0.1701  0.8735
11512SOL     OW45754   6.017   1.001   3.711  0.2478  0.4890  0.2696
11512SOL    HW145755   6.033   0.925   3.775 -1.1243 -0.7767 -0.8663
11512SOL    HW245756   5.919   1.013   3.698  0.4857 -1.1740 -3.8069
11513SOL     OW45757   2.064   0.052   4.697 -0.1766 -0.1774  0.3974
11513SOL    HW145758   1.973   0.085   4.722 -0.7763 -1.0026 -0.6548
11513SOL    HW245759   2.129   0.077   4.769 -0.9775  1.5626  0.5412
11514SOL     OW45760   0.276   3.344   0.181  0.6022  0.1556  0.2373
11514SOL    HW145761   0.211   3.314   0.250  0.9040 -2.4996 -0.5684
11514SOL    HW245762   0.360   3.292   0.190  1.0429  0.5537 -1.4520
11515SOL     OW45763   3.350   2.818   5.345  0.2036 -0.0362  0.1539
11515SOL    HW145764   3.371   2.740   5.287  0.3205  0.1739 -0.0828
11515SOL    HW245765   3.250   2.830   5.351  0.1577 -0.7492  0.9111
11516SOL     OW45766   9.159   2.297   1.724  0.1076  0.1528  0.3074
11516SOL    HW145767   9.148   2.199   1.707 -1.2296  0.4862 -0.8373
11516SOL    HW245768   9.254   2.323   1.708  0.2610 -0.7794 -0.3161
11517SOL     OW45769   5.092   5.594   2.496  0.0160  0.1187 -1.2273
11517SOL    HW145770   5.064   5.671   2.438 -0.6748  0.5714 -0.2920
11517SOL    HW245771   5.012   5.538   2.517  0.7465 -1.7128 -3.1275
11518SOL     OW45772   9.063   1.231   5.973 -0.1899  0.7705  0.1039
11518SOL    HW145773   8.999   1.283   5.916 -0.9212  0.1603  0.3576
11518SOL    HW245774   9.031   1.230   6.067 -0.9099 -1.2749 -0.1410
11519SOL     OW45775   8.983   8.230   0.561  0.1205 -0.1133  0.0176
11519SOL    HW145776   9.044   8.274   0.627 -1.0164  1.0355  0.3166
11519SOL    HW245777   8.934   8.154   0.606 -0.6686  0.6800  0.5106
11520SOL     OW45778   8.938   9.008   3.361  0.4615  0.3364 -0.6087
11520SOL    HW145779   8.859   9.049   3.406  0.5264  0.5218 -0.6608
11520SOL    HW245780   9.010   9.077   3.352  1.0749 -0.1403  0.5120
11521SOL     OW45781   6.790   7.536   3.873  0.4120  0.0746  0.5597
11521SOL    HW145782   6.796   7.438   3.857 -0.7314  0.0807  0.0357
11521SOL    HW245783   6.695   7.560   3.894  0.3181  1.3493 -1.2546
11522SOL     OW45784   3.744   6.968   2.802  0.4267 -0.2486  0.1070
11522SOL    HW145785   3.795   6.932   2.880 -0.2752  2.2137  1.7596
11522SOL    HW245786   3.654   6.999   2.832  0.3295  1.2068 -1.5696
11523SOL     OW45787   1.287   0.571   4.735 -0.4112 -0.4268  0.1801
11523SOL    HW145788   1.229   0.526   4.804 -0.6620  0.0299  0.2708
11523SOL    HW245789   1.239   0.651   4.699 -0.2614 -0.6438 -0.5004
11524SOL     OW45790   9.569   2.230   4.363 -0.4450 -0.3901 -0.3492
11524SOL    HW145791   9.660   2.206   4.329  0.4160  1.6402  0.4188
11524SOL    HW245792   9.540   2.163   4.431  0.2200 -1.3813 -1.0370
11525SOL     OW45793   9.776   7.432   6.433  0.2182  0.9661  0.0256
11525SOL    HW145794   9.745   7.485   6.513  0.3414 -1.7723  1.9504
11525SOL    HW245795   9.697   7.413   6.374 -0.5670 -0.1306  1.4006
11526SOL     OW45796   5.214   8.797   0.092 -0.3760  0.0392  0.3251
11526SOL    HW145797   5.158   8.724   0.051  1.5195 -1.5801  0.5546
11526SOL    HW245798   5.258   8.762   0.175  0.6589  1.4155  0.3569
11527SOL     OW45799   4.553   5.175   2.729 -0.5128  0.1783 -0.1037
11527SOL    HW145800   4.493   5.251   2.704 -0.5067  0.6634  1.2872
11527SOL    HW245801   4.613   5.203   2.804 -1.3406 -1.5482  1.2561
11528SOL     OW45802   9.603   1.941   4.060  0.0306  0.1518 -0.1689
11528SOL    HW145803   9.685   1.940   4.002 -0.0466  1.2510 -0.2893
11528SOL    HW245804   9.624   1.898   4.147  0.7221  0.3684 -0.2269
11529SOL     OW45805   3.061   2.870   2.700  0.1526 -0.0316  0.7318
11529SOL    HW145806   2.992   2.842   2.634  0.9120 -0.3591  0.0693
11529SOL    HW245807   3.020   2.876   2.791 -0.5682 -0.9564  0.4700
11530SOL     OW45808   5.065   8.997   2.893 -0.1131 -0.0788  0.4593
11530SOL    HW145809   5.014   8.954   2.968  0.7000 -0.0563  1.0333
11530SOL    HW245810   5.067   8.936   2.814  0.8530 -1.0112  1.1934
11531SOL     OW45811   1.089   3.809   5.827 -0.5197  0.1745 -0.4365
11531SOL    HW145812   1.182   3.784   5.800  0.0379  0.9625  0.7235
11531SOL    HW245813   1.085   3.907   5.847 -1.3322 -0.0586  0.5881
11532SOL     OW45814   0.833   1.750   0.844  0.3113 -0.8113 -0.2930
11532SOL    HW145815   0.898   1.679   0.872  0.1059 -1.2272 -0.8584
11532SOL    HW245816   0.740   1.714   0.848  0.1534 -0.3683  0.0438
11533SOL     OW45817   7.980   9.658   0.526  0.3786 -0.1687  0.2436
11533SOL    HW145818   7.983   9.601   0.444  0.3249 -1.7126  1.3032
11533SOL    HW245819   8.074   9.682   0.554  0.4529 -0.7157  0.4665
11534SOL     OW45820   7.852   4.973   1.380  0.3045  0.3349  0.0625
11534SOL    HW145821   7.856   5.019   1.468 -0.7242  0.2994  0.1362
11534SOL    HW245822   7.862   5.039   1.306  1.5036  0.3234  0.1993
11535SOL     OW45823   5.606   7.528   2.396  0.0656  0.0738 -0.2803
11535SOL    HW145824   5.605   7.589   2.476 -0.5507 -0.4926  0.1503
11535SOL    HW245825   5.688   7.472   2.398  0.4557  0.6319 -0.4824
11536SOL     OW45826   9.185   0.828   0.934 -0.5208 -0.4387 -0.1181
11536SOL    HW145827   9.249   0.814   0.859  1.8939 -0.9634  1.9813
11536SOL    HW245828   9.141   0.741   0.957  0.8913 -0.8982  0.9321
11537SOL     OW45829   0.479   5.532   2.010  0.2833  0.1499  0.3213
11537SOL    HW145830   0.454   5.540   2.106 -0.6990 -1.0555  0.1865
11537SOL    HW245831   0.419   5.465   1.966  2.1077 -0.8867 -0.6316
11538SOL     OW45832   3.773   9.647   0.500 -0.9638 -0.5909  0.1733
11538SOL    HW145833   3.781   9.745   0.484  0.6630 -0.7527 -0.0776
11538SOL    HW245834   3.685   9.614   0.464 -0.8995  0.5068 -1.0120
11539SOL     OW45835   6.016   1.120   1.658  0.3977 -0.3626 -0.5381
11539SOL    HW145836   5.942   1.178   1.623  0.5945  0.7035  0.7790
11539SOL    HW245837   5.997   1.095   1.753  1.9808  0.3615 -0.0115
11540SOL     OW45838   2.207   5.247   5.850  0.2151 -0.2466  0.1070
11540SOL    HW145839   2.224   5.341   5.821  0.4408  0.3779  2.1377
11540SOL    HW245840   2.109   5.228   5.849  0.2896 -0.6676 -2.2211
11541SOL     OW45841   6.143   4.600   0.917 -0.3191  0.1620  0.0689
11541SOL    HW145842   6.055   4.589   0.964  1.6930 -0.2758  3.9662
11541SOL    HW245843   6.191   4.512   0.916  1.4167  1.0599  0.9587
11542SOL     OW45844   1.088   9.930   0.342 -0.8903 -0.0482  0.3845
11542SOL    HW145845   1.050   9.843   0.312  0.4564 -0.5494  0.0553
11542SOL    HW245846   1.180   9.914   0.380 -0.5436  1.2579  0.1142
11543SOL     OW45847   6.440   7.534   2.944 -0.1658 -0.0081  0.0900
11543SOL    HW145848   6.378   7.458   2.967 -0.6919  0.7914  1.3838
11543SOL    HW245849   6.436   7.552   2.846 -1.3639 -0.5073  0.0339
11544SOL     OW45850   2.199   1.366   4.485 -0.1690  0.0382  0.0417
11544SOL    HW145851   2.214   1.442   4.547 -1.0744  0.8390 -0.7048
11544SOL    HW245852   2.264   1.293   4.504  0.9515  1.1577  0.5050
11545SOL     OW45853   1.579   4.542   5.770  0.2450 -0.4288  0.1152
11545SOL    HW145854   1.523   4.608   5.719  0.8153 -0.8973 -1.1193
11545SOL    HW245855   1.665   4.585   5.797 -0.5062  0.1561  1.6392
11546SOL     OW45856   0.923   6.245   5.424 -0.1076  0.7490 -0.0105
11546SOL    HW145857   0.921   6.174   5.353  1.9344  0.6208  0.0370
11546SOL    HW245858   0.964   6.208   5.507  1.6688  2.1786 -0.2258
11547SOL     OW45859   3.150   1.360   2.968 -0.7256  0.3187  0.1980
11547SOL    HW145860   3.059   1.319   2.977 -0.6966 -0.1852 -1.5623
11547SOL    HW245861   3.199   1.352   3.055 -2.2957  0.4541  1.1186
11548SOL     OW45862   0.799   7.397   2.282 -0.1983  0.6886 -0.2769
11548SOL    HW145863   0.708   7.366   2.309 -0.2431 -0.7063 -1.8964
11548SOL    HW245864   0.793   7.445   2.194  0.7508 -0.3126 -0.8993
11549SOL     OW45865   3.291   4.117   0.963  0.1398  0.1095 -0.2563
11549SOL    HW145866   3.258   4.171   1.040 -0.4367  2.8207 -2.3206
11549SOL    HW245867   3.381   4.152   0.934  1.1125 -1.9524  0.2031
11550SOL     OW45868   4.204   7.373   1.173  0.2355  0.0449 -1.0050
11550SOL    HW145869   4.196   7.469   1.197  2.0367  0.0376 -0.3160
11550SOL    HW245870   4.141   7.352   1.098 -1.5385  1.2984  0.1002
11551SOL     OW45871   9.399   9.856   2.642 -0.2277 -0.1117 -0.0433
11551SOL    HW145872   9.348   9.770   2.640 -0.3002 -0.0625 -0.6066
11551SOL    HW245873   9.346   9.925   2.692 -0.5603 -0.1602 -0.3230
11552SOL     OW45874   5.431   0.853   1.727  0.6637  0.4476  0.1013
11552SOL    HW145875   5.418   0.920   1.655  1.5602  0.4231 -0.0892
11552SOL    HW245876   5.362   0.866   1.798  1.2984  2.0876  0.4460
11553SOL     OW45877   8.491   1.137   3.631  0.7017  0.7514 -0.1162
11553SOL    HW145878   8.442   1.210   3.584  1.4308  0.2809 -1.6545
11553SOL    HW245879   8.590   1.153   3.623  0.8741 -0.6103 -0.8107
11554SOL     OW45880   8.893   0.334   3.671 -0.5477  0.4953 -0.2968
11554SOL    HW145881   8.824   0.306   3.604 -0.3740  1.5886 -0.9461
11554SOL    HW245882   8.858   0.410   3.725 -1.5765 -1.8157  2.4322
11555SOL     OW45883   9.317   4.835   3.061 -0.5926 -0.2135  0.1081
11555SOL    HW145884   9.382   4.864   3.131 -0.4695  0.4026 -0.2521
11555SOL    HW245885   9.364   4.776   2.995 -0.0648  1.2563 -0.8594
11556SOL     OW45886   1.044   2.520   4.729 -0.0905 -0.1563 -0.4344
11556SOL    HW145887   1.107   2.498   4.654 -1.5458  0.3189 -1.8482
11556SOL    HW245888   1.072   2.605   4.772 -1.0672  1.3309 -2.6153
11557SOL     OW45889   6.346   7.269   5.405 -0.5322 -0.0016  0.2118
11557SOL    HW145890   6.264   7.325   5.390 -0.7692 -0.7481 -1.3944
11557SOL    HW245891   6.341   7.188   5.348  0.7540 -0.6821  1.0526
11558SOL     OW45892   4.494   9.131   5.469  0.1006 -0.1130 -0.1354
11558SOL    HW145893   4.580   9.163   5.508  0.1136 -0.5780  0.2088
11558SOL    HW245894   4.429   9.110   5.542  0.1910 -1.1593 -0.3550
11559SOL     OW45895   0.596   2.743   0.607  0.2051 -0.2258  0.0420
11559SOL    HW145896   0.653   2.724   0.527  1.3045  0.4092  0.6577
11559SOL    HW245897   0.655   2.763   0.685 -0.8788  3.2532  0.0316
11560SOL     OW45898   9.408   2.579   5.535 -0.1231 -0.4303 -0.2715
11560SOL    HW145899   9.365   2.630   5.609 -0.2190  1.1321 -1.3829
11560SOL    HW245900   9.343   2.513   5.497 -0.4094 -0.4999  0.3476
11561SOL     OW45901   4.164   4.767   6.413 -0.4520 -0.6367 -0.0129
11561SOL    HW145902   4.229   4.836   6.445 -1.2179 -0.3119  0.8472
11561SOL    HW245903   4.163   4.691   6.478 -0.6198 -0.8347 -0.2498
11562SOL     OW45904   1.968   7.226   3.582  0.4988  0.2385 -0.5450
11562SOL    HW145905   1.966   7.278   3.666 -0.5166 -0.6696  0.0110
11562SOL    HW245906   1.887   7.246   3.528  1.0037  0.6021 -1.1713
11563SOL     OW45907   3.727   1.359   4.639  0.1570  0.1872 -0.5241
11563SOL    HW145908   3.656   1.317   4.695  1.9215 -1.1461  0.7838
11563SOL    HW245909   3.749   1.449   4.676  0.3354 -0.1067  0.0966
11564SOL     OW45910   4.629   8.523   2.729  0.2393 -0.1836  0.1896
11564SOL    HW145911   4.705   8.525   2.794  0.4592 -2.5859  0.0645
11564SOL    HW245912   4.543   8.518   2.779  0.3985 -1.8352  0.3239
11565SOL     OW45913   7.995   1.044   6.281 -0.1258  0.0803 -0.5520
11565SOL    HW145914   8.081   0.994   6.291  0.4997  1.2873  0.2106
11565SOL    HW245915   7.966   1.041   6.185 -0.1589 -1.8094 -0.5090
11566SOL     OW45916   5.071   1.246   2.191 -0.1222 -0.1041 -0.3313
11566SOL    HW145917   5.168   1.272   2.191 -0.1469  0.0404  0.6919
11566SOL    HW245918   5.060   1.155   2.151  0.2690  0.4338 -1.6791
11567SOL     OW45919   3.842   2.321   0.714 -0.3556  1.0332  0.3125
11567SOL    HW145920   3.819   2.225   0.698  0.6017  0.9370 -0.6062
11567SOL    HW245921   3.771   2.380   0.676  1.2672  0.7724 -3.3601
11568SOL     OW45922   9.976   9.518   4.281 -0.0710  0.3900 -0.4442
11568SOL    HW145923   9.928   9.468   4.209  1.3813  1.2465 -2.0478
11568SOL    HW245924  10.069   9.540   4.249  0.4274  1.1913  1.5186
11569SOL     OW45925   2.508   4.961   3.919 -0.4947 -0.1185  0.3318
11569SOL    HW145926   2.522   4.992   4.013  0.4208 -1.8401  0.7928
11569SOL    HW245927   2.439   4.889   3.918 -0.8948  0.2653 -0.3982
11570SOL     OW45928   6.082   8.086   2.110  0.2085  0.6076  0.3577
11570SOL    HW145929   6.051   7.994   2.133  0.0480  0.7209  0.5875
11570SOL    HW245930   6.030   8.121   2.032  1.9308 -0.4672 -1.3332
11571SOL     OW45931   2.107   3.275   4.572  0.2180  0.0983 -0.3170
11571SOL    HW145932   2.079   3.188   4.532  0.7239 -0.0467 -0.3610
11571SOL    HW245933   2.030   3.339   4.571 -0.2243 -0.4390 -0.0278
11572SOL     OW45934   4.199   6.399   3.296 -0.0455  0.5695 -0.4144
11572SOL    HW145935   4.199   6.359   3.205 -0.8571  0.4585 -0.3711
11572SOL    HW245936   4.215   6.327   3.364  0.4397  0.6327 -0.4643
11573SOL     OW45937   0.023   9.790   2.791 -0.1226 -0.7597  0.2917
11573SOL    HW145938   0.078   9.714   2.756  0.5394 -0.9003  1.6124
11573SOL    HW245939   0.051   9.811   2.885  0.0953  1.4946 -0.2486
11574SOL     OW45940   4.615   3.500   4.643 -0.0659  0.2636  0.1342
11574SOL    HW145941   4.556   3.548   4.707  0.6953 -0.6271  1.5336
11574SOL    HW245942   4.579   3.409   4.626 -0.6135  0.7235 -1.2219
11575SOL     OW45943   4.218   1.834   3.283  0.6546 -0.3376 -0.0061
11575SOL    HW145944   4.244   1.797   3.373 -4.5286 -0.6999  1.5346
11575SOL    HW245945   4.211   1.759   3.217 -0.1868 -0.8054  0.5876
11576SOL     OW45946   6.471   9.643   2.379 -0.4869 -0.0844 -0.2735
11576SOL    HW145947   6.388   9.693   2.357 -0.8803 -0.4512  0.3656
11576SOL    HW245948   6.550   9.688   2.336 -0.9972  0.3138 -0.8056
11577SOL     OW45949   3.436   6.270   3.161 -0.0817  0.0435  0.1650
11577SOL    HW145950   3.392   6.324   3.233  1.3571 -1.4199  2.1981
11577SOL    HW245951   3.518   6.226   3.198  0.5045 -1.0167 -2.2974
11578SOL     OW45952   8.923   9.314   4.620  0.0152  0.3608  0.4558
11578SOL    HW145953   8.892   9.406   4.645 -0.7561 -0.3526  2.2266
11578SOL    HW245954   8.971   9.273   4.697 -1.6189 -1.5660  0.5006
11579SOL     OW45955   0.611   1.521   3.039  0.0477  0.3201  0.2788
11579SOL    HW145956   0.603   1.422   3.036  0.8065  0.2838 -0.8568
11579SOL    HW245957   0.644   1.549   3.129  0.3763 -0.4871  0.4123
11580SOL     OW45958   4.163   3.336   1.241  0.3161 -0.0451 -0.0214
11580SOL    HW145959   4.189   3.416   1.188  1.0093 -0.2324  0.0331
11580SOL    HW245960   4.089   3.360   1.303 -0.2409  0.2725 -0.7954
11581SOL     OW45961   0.253   6.705   0.253  0.9086  0.8376  0.6092
11581SOL    HW145962   0.161   6.723   0.287  1.1119  0.8261  1.1753
11581SOL    HW245963   0.271   6.762   0.173  0.4896  0.9930  0.6238
11582SOL     OW45964   9.826   6.429   2.464 -0.4703 -0.3658 -0.6911
11582SOL    HW145965   9.920   6.461   2.450 -0.5265  0.5633  0.9694
11582SOL    HW245966   9.763   6.501   2.435 -0.6274  0.0022  0.5392
11583SOL     OW45967   3.022   6.764   6.737 -0.1704  0.1801 -0.1791
11583SOL    HW145968   2.952   6.793   6.672  0.6020 -0.2855 -1.2434
11583SOL    HW245969   3.001   6.800   6.828 -2.6872 -1.3240 -0.1204
11584SOL     OW45970   4.875   5.037   0.024  0.7354 -0.0910 -0.1768
11584SOL    HW145971   4.858   5.117  -0.034  2.4724 -0.8468 -1.7920
11584SOL    HW245972   4.974   5.021   0.029  0.4714 -1.2992  1.2980
11585SOL     OW45973   3.629   6.342   3.002 -0.1562  0.0618 -0.0997
11585SOL    HW145974   3.692   6.274   3.038  0.8490  1.6706  1.1988
11585SOL    HW245975   3.542   6.336   3.051  0.6353  1.1141  1.4359
11586SOL     OW45976   4.690   6.337   2.318 -0.2229 -0.5114 -0.0238
11586SOL    HW145977   4.784   6.364   2.300  1.0512 -5.1161 -1.0658
11586SOL    HW245978   4.669   6.350   2.414  0.2823  3.7095 -0.4047
11587SOL     OW45979   6.669   9.327   5.369 -0.0968 -0.0101  0.3194
11587SOL    HW145980   6.675   9.318   5.270  0.8979  2.3353  0.1180
11587SOL    HW245981   6.580   9.366   5.394 -0.2371 -0.3383  0.3378
11588SOL     OW45982   0.081   4.432   3.904  0.5766 -0.2415 -0.1282
11588SOL    HW145983   0.005   4.470   3.852  0.0849 -1.5209 -0.3595
11588SOL    HW245984   0.163   4.430   3.847 -0.0745 -2.0688 -1.0058
11589SOL     OW45985   3.854   1.779   1.960  0.7466 -0.0396 -0.1459
11589SOL    HW145986   3.811   1.730   2.036  0.4331  0.9161  0.2989
11589SOL    HW245987   3.814   1.747   1.874  1.1443 -1.1663  0.0749
11590SOL     OW45988   5.079   7.041   2.270 -0.5315 -0.7465  0.0616
11590SOL    HW145989   5.167   6.996   2.255  0.3085 -0.2464  3.1390
11590SOL    HW245990   5.094   7.130   2.313 -2.5053 -0.1463 -0.4249
11591SOL     OW45991   6.273   8.900   1.945  0.3802 -0.2832 -0.4363
11591SOL    HW145992   6.220   8.955   1.880  2.4959  0.6542 -1.4190
11591SOL    HW245993   6.346   8.957   1.983  1.5082 -1.9259 -0.1312
11592SOL     OW45994   3.009   1.493   4.544 -0.2327  0.0445  0.2924
11592SOL    HW145995   2.980   1.539   4.629  1.0324 -0.4042  0.9723
11592SOL    HW245996   2.960   1.406   4.535 -1.6005  0.8482 -0.2939
11593SOL     OW45997   9.214   8.507   1.434 -0.4329  0.1205 -0.0125
11593SOL    HW145998   9.138   8.463   1.388  0.8336 -1.9157 -0.2203
11593SOL    HW245999   9.180   8.572   1.502 -2.3135  0.7788 -1.5542
11594SOL     OW46000   3.183   5.580   3.084 -0.4663 -0.3230  0.1905
11594SOL    HW146001   3.275   5.611   3.061 -1.6784  2.5309 -1.0398
11594SOL    HW246002   3.149   5.520   3.011  1.1840 -3.2187  1.6983
11595SOL     OW46003   2.986   4.214   4.358  0.0604 -0.6452 -0.5530
11595SOL    HW146004   3.066   4.256   4.399 -0.9574  2.4339 -1.5882
11595SOL    HW246005   2.924   4.182   4.430 -0.6601  2.6726  0.4201
11596SOL     OW46006   4.890   9.066   0.791  0.5220 -0.6397 -0.2579
11596SOL    HW146007   4.961   9.064   0.862  0.7595 -0.7142 -0.4990
11596SOL    HW246008   4.931   9.051   0.702  0.2308 -0.4639 -0.4232
11597SOL     OW46009   0.915   5.229   0.090  0.1387  0.9033 -0.6701
11597SOL    HW146010   0.955   5.319   0.108  2.3436 -0.0636 -0.5967
11597SOL    HW246011   0.946   5.195   0.001  1.1269 -0.7296  0.2674
11598SOL     OW46012   0.710   3.241   3.614  0.9473 -0.5114 -0.1509
11598SOL    HW146013   0.803   3.205   3.611  1.3941  0.6676 -1.0667
11598SOL    HW246014   0.713   3.340   3.630 -0.0016 -0.0497 -2.5124
11599SOL     OW46015   2.340   7.598   4.681  0.8812  0.0197  0.5419
11599SOL    HW146016   2.263   7.646   4.722  2.4013  0.7519  2.6228
11599SOL    HW246017   2.386   7.543   4.751  1.7311 -1.0927 -0.8657
11600SOL     OW46018   1.199   9.626   5.638  0.0055 -0.0632 -0.6870
11600SOL    HW146019   1.136   9.702   5.622  1.3732  0.8016 -2.1874
11600SOL    HW246020   1.195   9.562   5.561 -0.0959 -0.7509 -0.1110
11601SOL     OW46021   8.640   9.275   4.803  0.1694  0.1509 -0.5339
11601SOL    HW146022   8.648   9.203   4.734  0.3460  0.7814 -1.1795
11601SOL    HW246023   8.566   9.337   4.778 -0.8887 -0.5749  0.7374
11602SOL     OW46024   1.418   1.717   1.969  0.7528  0.0314  0.0447
11602SOL    HW146025   1.390   1.622   1.981 -3.5580  1.3392  1.5141
11602SOL    HW246026   1.488   1.740   2.035 -0.6541 -1.2346  2.0296
11603SOL     OW46027   1.321   9.272   3.346 -0.0958 -0.1033  0.6240
11603SOL    HW146028   1.238   9.276   3.401  0.6090  1.5159  1.6125
11603SOL    HW246029   1.299   9.236   3.255 -1.4600 -1.7620  1.5817
11604SOL     OW46030   6.116   8.047   3.134 -0.5334 -0.2110 -0.4712
11604SOL    HW146031   6.031   8.008   3.168 -1.7797  1.3073 -1.7688
11604SOL    HW246032   6.099   8.139   3.099  2.0014  0.8206  0.9049
11605SOL     OW46033   7.687   2.705   5.076 -0.0751 -0.3213  0.2199
11605SOL    HW146034   7.643   2.692   5.165 -0.3490 -0.2121  0.1024
11605SOL    HW246035   7.622   2.681   5.003 -0.7282  1.9789 -0.0153
11606SOL     OW46036   0.787   4.448   4.092 -0.0789 -0.0135  0.3619
11606SOL    HW146037   0.861   4.401   4.044  0.2776 -0.3199  1.1936
11606SOL    HW246038   0.825   4.497   4.171 -0.5966  0.7997  0.1012
11607SOL     OW46039   2.861   8.565   3.112 -0.0456  0.6694 -0.6364
11607SOL    HW146040   2.916   8.506   3.171 -0.7418 -0.0770 -0.7192
11607SOL    HW246041   2.828   8.513   3.034 -2.0524  0.6983  0.1525
11608SOL     OW46042   5.848   0.033   1.753 -0.4778  0.1602 -0.2598
11608SOL    HW146043   5.893   0.097   1.691  1.4074  1.3484  2.2438
11608SOL    HW246044   5.754   0.064   1.770  0.4218  2.3511  0.9384
11609SOL     OW46045   7.493   7.995   3.342 -0.8452  0.1918 -0.2382
11609SOL    HW146046   7.462   7.904   3.314 -1.6254  0.6553 -0.9194
11609SOL    HW246047   7.432   8.064   3.303  1.1714  1.1516 -1.7617
11610SOL     OW46048   4.174   3.398   0.691 -0.2139 -0.4392 -0.3531
11610SOL    HW146049   4.233   3.440   0.623 -0.2546  0.1596 -0.0210
11610SOL    HW246050   4.167   3.300   0.673  2.5018 -0.8988  0.7835
11611SOL     OW46051   0.300   5.622   4.324 -0.1930 -0.0962  0.3572
11611SOL    HW146052   0.269   5.610   4.418 -0.6827 -0.8902  0.1010
11611SOL    HW246053   0.268   5.710   4.290 -0.9847 -0.2909  0.5675
11612SOL     OW46054   9.978   6.991   1.114 -0.2482 -0.7065  0.6252
11612SOL    HW146055   9.960   7.048   1.033  2.0831  1.1266  1.3483
11612SOL    HW246056   9.894   6.944   1.141 -1.7354  0.8238 -1.2103
11613SOL     OW46057   6.200   1.188   3.710  0.3937  0.1428  0.3148
11613SOL    HW146058   6.292   1.151   3.724 -0.7689 -1.5972  4.3454
11613SOL    HW246059   6.137   1.113   3.692 -0.6596  1.0216  0.2985
11614SOL     OW46060   3.122   3.179   6.656 -0.0375  0.1606  0.2403
11614SOL    HW146061   3.030   3.158   6.624 -0.6569  2.6759  0.3313
11614SOL    HW246062   3.187   3.164   6.581 -0.3611 -2.5857  0.4642
11615SOL     OW46063   5.247   7.771   3.597 -0.4404  0.0426 -0.7972
11615SOL    HW146064   5.237   7.870   3.587  0.0353  0.2596  0.7479
11615SOL    HW246065   5.209   7.743   3.685  0.3115 -1.0076 -0.8051
11616SOL     OW46066   3.013   9.128   5.664  0.0954 -0.5948  0.0229
11616SOL    HW146067   3.049   9.200   5.723  0.8713  0.0913 -1.2506
11616SOL    HW246068   3.025   9.155   5.568 -0.7675 -1.8593 -0.4559
11617SOL     OW46069   2.524   6.802   6.218 -0.2984 -0.5736  0.5203
11617SOL    HW146070   2.542   6.704   6.226  1.4982 -0.3886 -0.8542
11617SOL    HW246071   2.610   6.853   6.224 -1.1392  0.8840  0.6262
11618SOL     OW46072   7.004   4.300   0.080  0.5629 -0.3022 -0.4883
11618SOL    HW146073   6.923   4.294   0.139 -0.5508 -0.2912 -1.9910
11618SOL    HW246074   7.068   4.227   0.102  0.4466  0.0688  1.1471
11619SOL     OW46075   0.273   6.584   4.657 -0.3403  0.7509  0.7540
11619SOL    HW146076   0.236   6.524   4.728  0.3193  1.4691  1.7217
11619SOL    HW246077   0.232   6.675   4.664 -0.4992  0.7384  0.0228
11620SOL     OW46078   4.504   8.306   1.166  0.2563 -0.2015  0.3429
11620SOL    HW146079   4.530   8.402   1.178 -1.0376  0.1607  0.2995
11620SOL    HW246080   4.583   8.247   1.187  1.2218  0.8855 -0.1927
11621SOL     OW46081   1.834   9.414   0.101  0.0519 -0.1785  0.4360
11621SOL    HW146082   1.904   9.354   0.140  1.2871  0.7054 -0.3628
11621SOL    HW246083   1.751   9.409   0.156  0.8341 -1.0544  1.5620
11622SOL     OW46084   8.770   6.323   1.104 -0.3019  0.0856 -0.1198
11622SOL    HW146085   8.680   6.340   1.064 -0.0869 -2.7207 -1.9102
11622SOL    HW246086   8.760   6.284   1.195 -0.9351 -0.9695 -0.6355
11623SOL     OW46087   9.966   1.366   1.629  0.4496  0.1467  0.0402
11623SOL    HW146088  10.039   1.431   1.609  1.5617 -1.3048 -0.6533
11623SOL    HW246089   9.948   1.309   1.548 -1.4799  0.5123  0.1813
11624SOL     OW46090   0.627   0.063   1.366 -0.4988 -0.3021 -0.5169
11624SOL    HW146091   0.690   0.029   1.296 -1.1535 -0.2070 -1.1489
11624SOL    HW246092   0.540   0.015   1.359 -0.0494 -1.4226  1.2487
11625SOL     OW46093   2.160   7.981   1.436  0.4049  0.2943  0.4211
11625SOL    HW146094   2.234   7.966   1.502  0.0357 -0.6351  0.6277
11625SOL    HW246095   2.138   8.079   1.433  1.2137  0.4944  0.8205
11626SOL     OW46096   0.786   2.440   4.715 -0.6239 -0.2276 -0.0466
11626SOL    HW146097   0.879   2.475   4.711 -0.9452  0.5558 -0.8442
11626SOL    HW246098   0.781   2.354   4.664 -0.1345 -0.7506  0.7806
11627SOL     OW46099   4.927   0.466   6.507 -0.0230  0.1363  0.4232
11627SOL    HW146100   4.942   0.367   6.503 -1.6679 -0.1908  1.7154
11627SOL    HW246101   4.914   0.494   6.602  1.0175  1.6900  0.1092
11628SOL     OW46102   4.834   0.475   0.031 -0.2787 -0.6902 -1.3441
11628SOL    HW146103   4.799   0.426   0.111 -1.1795  0.1501 -1.2100
11628SOL    HW246104   4.893   0.550   0.061 -0.7115 -0.3020 -1.4627
11629SOL     OW46105   8.925   0.223   5.051  0.6379 -0.0665 -0.3760
11629SOL    HW146106   8.974   0.303   5.018  0.3236  0.2883  0.0202
11629SOL    HW246107   8.894   0.169   4.972  0.5592  0.3736 -0.6500
11630SOL     OW46108   7.829   1.676   3.460 -0.1800  0.7438  0.7003
11630SOL    HW146109   7.917   1.629   3.459 -0.2207  0.6829 -1.4814
11630SOL    HW246110   7.766   1.627   3.521 -0.7535 -3.0733 -2.7865
11631SOL     OW46111   7.760   9.834   2.294 -0.4638  0.0776  0.0040
11631SOL    HW146112   7.702   9.914   2.276 -0.8979 -0.1083  0.5340
11631SOL    HW246113   7.730   9.791   2.379 -0.6694 -1.0497 -0.6355
11632SOL     OW46114   9.801   4.123   5.821  0.3675 -0.0081 -0.4523
11632SOL    HW146115   9.805   4.023   5.824 -0.4841 -0.0280  0.0833
11632SOL    HW246116   9.867   4.156   5.753 -0.1732 -0.9891 -1.4806
11633SOL     OW46117   0.114   0.037   5.644 -0.4443 -0.6367  1.2145
11633SOL    HW146118   0.196   0.003   5.690 -0.0189 -0.4790  0.5838
11633SOL    HW246119   0.123   0.136   5.630  0.7807 -1.1342 -1.8928
11634SOL     OW46120   3.601   1.457   0.177 -0.3662 -0.6722 -0.0995
11634SOL    HW146121   3.511   1.414   0.169  0.6777 -3.0048  0.4241
11634SOL    HW246122   3.626   1.465   0.273 -0.5297  1.1433 -0.1872
11635SOL     OW46123   6.469   8.253   5.173  0.0472  0.1642 -0.2866
11635SOL    HW146124   6.454   8.329   5.237  1.6400  1.2761 -1.1834
11635SOL    HW246125   6.536   8.190   5.212  1.4034  1.1071 -1.0220
11636SOL     OW46126   4.341   4.702   2.107  0.8139  0.0037  0.7249
11636SOL    HW146127   4.411   4.773   2.094  1.4117 -0.4434  1.4449
11636SOL    HW246128   4.320   4.694   2.205 -0.6340  0.4967  0.4708
11637SOL     OW46129   3.619   9.112   5.257 -0.6147 -0.4271  0.6729
11637SOL    HW146130   3.701   9.099   5.201  0.1452  0.1827  1.6247
11637SOL    HW246131   3.540   9.069   5.212 -0.1822  0.7304 -1.2344
11638SOL     OW46132   8.295   9.335   3.656  0.3398  0.5025  0.3047
11638SOL    HW146133   8.211   9.382   3.631  0.8315  1.1670 -0.1338
11638SOL    HW246134   8.340   9.383   3.731  1.5209  1.5176 -1.0286
11639SOL     OW46135   8.416   2.289   3.091  0.0219 -0.4410  0.4571
11639SOL    HW146136   8.492   2.243   3.045 -1.8119 -2.1820 -0.8935
11639SOL    HW246137   8.343   2.223   3.109 -0.6627  0.9253  2.9148
11640SOL     OW46138   5.566   5.204   0.718 -0.1366  0.4068 -0.3090
11640SOL    HW146139   5.575   5.160   0.807  2.0882  0.8067 -0.3171
11640SOL    HW246140   5.516   5.144   0.656 -2.0151  0.2692  1.2727
11641SOL     OW46141   5.444   2.047   4.966  0.4563 -0.3172  0.0685
11641SOL    HW146142   5.445   1.950   4.990  1.1578 -0.3613 -0.1200
11641SOL    HW246143   5.417   2.058   4.870 -0.0135 -0.2995  0.2039
11642SOL     OW46144   8.787   0.304   3.263  0.2660 -0.1518 -0.0888
11642SOL    HW146145   8.836   0.224   3.230 -0.8649 -0.5405 -0.8717
11642SOL    HW246146   8.833   0.387   3.233  2.0358 -0.4736  1.6017
11643SOL     OW46147   3.931   4.790   3.602  0.2047  0.0074  0.6251
11643SOL    HW146148   3.887   4.840   3.527  0.4144 -1.3092 -0.4056
11643SOL    HW246149   4.029   4.787   3.586  0.4072  0.9043  1.6848
11644SOL     OW46150   2.322   8.220   3.574  0.5652  0.7704 -0.1592
11644SOL    HW146151   2.349   8.217   3.670  2.4907  0.4710 -0.6797
11644SOL    HW246152   2.269   8.303   3.557 -0.5244  0.3936  1.3340
11645SOL     OW46153   3.829   4.727   1.131  0.3549 -0.6433  0.1293
11645SOL    HW146154   3.771   4.749   1.052  1.6983  0.3795 -0.5985
11645SOL    HW246155   3.804   4.784   1.209 -2.0808 -2.8061  0.9802
11646SOL     OW46156   3.013   8.802   6.495  0.4465  0.0165  0.1983
11646SOL    HW146157   3.013   8.705   6.468 -0.0871  0.6075 -2.0364
11646SOL    HW246158   3.078   8.816   6.569 -0.0561 -2.2039  1.0954
11647SOL     OW46159   3.536   5.653   5.735  0.0785 -0.0861  0.2105
11647SOL    HW146160   3.488   5.667   5.822  1.4244  0.0942  0.9535
11647SOL    HW246161   3.481   5.688   5.660 -0.5704  0.9059  1.1275
11648SOL     OW46162   9.558   1.222   4.789 -0.2518 -0.0410 -0.2314
11648SOL    HW146163   9.534   1.139   4.840  0.2157  0.4672  0.8223
11648SOL    HW246164   9.483   1.288   4.796 -0.0785  0.1288  0.0132
11649SOL     OW46165   3.409   8.317   0.715 -0.8594 -0.5965 -0.0313
11649SOL    HW146166   3.494   8.354   0.752 -1.6288  1.8047 -0.5919
11649SOL    HW246167   3.332   8.368   0.752 -1.8922 -0.9387 -1.6593
11650SOL     OW46168   9.014   3.500   3.788  0.1034  0.6606 -0.2770
11650SOL    HW146169   8.995   3.478   3.884 -2.9813  0.2679 -0.9177
11650SOL    HW246170   9.068   3.426   3.748 -1.0719 -0.5905  0.4068
11651SOL     OW46171   5.968   1.827   5.075  0.5082  0.4303  0.1238
11651SOL    HW146172   5.922   1.913   5.056  0.6997  0.1844 -1.4795
11651SOL    HW246173   6.026   1.801   4.997  0.3571 -1.2069  0.5255
11652SOL     OW46174   8.345   7.884   1.007  0.2658 -0.8305  0.2817
11652SOL    HW146175   8.269   7.882   1.072 -0.9772 -2.1374 -1.1729
11652SOL    HW246176   8.350   7.797   0.958 -1.0798  1.3014 -3.8713
11653SOL     OW46177   5.225   9.109   5.446 -0.4385  0.1464  0.6896
11653SOL    HW146178   5.275   9.182   5.492 -0.5686  0.0554  0.9811
11653SOL    HW246179   5.200   9.138   5.353 -0.4451  0.4497  0.7870
11654SOL     OW46180   3.323   4.826   6.403 -0.2571 -0.1103  0.2103
11654SOL    HW146181   3.325   4.860   6.309 -1.8618 -0.1127  0.1516
11654SOL    HW246182   3.318   4.726   6.403 -0.0262 -0.1214  0.2951
11655SOL     OW46183   8.553   4.448   2.440 -0.3097 -0.1687 -0.2730
11655SOL    HW146184   8.457   4.419   2.442 -0.6039  0.8357  0.0607
11655SOL    HW246185   8.569   4.505   2.360 -0.1029  0.0372 -0.0866
11656SOL     OW46186  -0.002   3.502   4.706  0.7142  0.0213 -0.1650
11656SOL    HW146187  -0.044   3.498   4.796  0.3457  0.0184 -0.3361
11656SOL    HW246188   0.097   3.516   4.715  0.8039 -0.8404  0.2619
11657SOL     OW46189   5.371   5.121   6.560  0.0670  0.5230  0.5750
11657SOL    HW146190   5.368   5.030   6.518  1.5527 -0.1121  1.7854
11657SOL    HW246191   5.347   5.114   6.657 -0.0054  1.4474  0.6290
11658SOL     OW46192   9.313   0.915   1.933  0.3125 -0.1966 -0.1491
11658SOL    HW146193   9.216   0.919   1.910  0.7750 -1.9635 -2.6255
11658SOL    HW246194   9.325   0.862   2.016 -0.6499 -2.5954 -1.4786
11659SOL     OW46195   9.389   3.738   3.011 -0.0830  0.1529  0.2927
11659SOL    HW146196   9.481   3.710   2.984 -1.0605 -3.0900  0.1395
11659SOL    HW246197   9.382   3.736   3.111  0.1147  0.9033  0.3322
11660SOL     OW46198   4.104   4.414   0.104  0.1602 -0.2122  0.1284
11660SOL    HW146199   4.039   4.388   0.176  0.0893 -0.7200 -0.1202
11660SOL    HW246200   4.069   4.384   0.016  0.2174  0.4684 -0.1308
11661SOL     OW46201   1.280   0.421   0.725 -0.7470  0.6812 -0.3359
11661SOL    HW146202   1.239   0.379   0.805  0.3227  0.9562  0.3677
11661SOL    HW246203   1.325   0.351   0.669  0.0935  0.7261  0.2700
11662SOL     OW46204   1.831   9.137   5.034 -0.5457 -0.2665  0.6483
11662SOL    HW146205   1.807   9.044   5.062  2.5525 -1.2666  0.2164
11662SOL    HW246206   1.881   9.182   5.108  0.6049 -0.0519 -0.2428
11663SOL     OW46207   1.615   6.218   5.775 -0.1289 -0.6708 -0.6617
11663SOL    HW146208   1.608   6.130   5.823 -0.5738 -1.6708 -2.4914
11663SOL    HW246209   1.702   6.221   5.725  0.7371  0.7274  0.8621
11664SOL     OW46210   0.420   0.788   1.051  0.3841  0.0893  0.2634
11664SOL    HW146211   0.512   0.778   1.012 -0.4272  1.0779 -1.9599
11664SOL    HW246212   0.395   0.703   1.099  1.4354 -1.1485 -1.3269
11665SOL     OW46213   7.645   2.126   2.716  0.6759  0.1229 -0.5961
11665SOL    HW146214   7.554   2.085   2.706 -0.0693  1.4913  0.2858
11665SOL    HW246215   7.690   2.132   2.627 -0.0550 -0.6680 -1.0228
11666SOL     OW46216   3.475   0.190   5.885  0.1633  0.2932 -0.4377
11666SOL    HW146217   3.510   0.225   5.973 -0.2107  0.3953 -0.3267
11666SOL    HW246218   3.457   0.092   5.893  0.3294  0.2593 -0.4663
11667SOL     OW46219   1.840   0.689   4.138 -0.2510 -0.2997  0.0097
11667SOL    HW146220   1.822   0.746   4.218 -1.0055 -0.5790  0.0421
11667SOL    HW246221   1.903   0.737   4.076 -1.2024  0.7419 -0.1647
11668SOL     OW46222   4.119   9.714   2.728  0.3062 -0.0045 -0.1820
11668SOL    HW146223   4.049   9.784   2.712  0.5627 -0.4500 -3.6246
11668SOL    HW246224   4.190   9.752   2.787  0.2762  2.6087 -1.7216
11669SOL     OW46225   8.736   5.011   2.531 -0.2257  0.0323  0.4573
11669SOL    HW146226   8.697   4.965   2.610 -1.4332 -0.9548 -0.6929
11669SOL    HW246227   8.713   4.960   2.448 -1.1067  2.4060 -0.7916
11670SOL     OW46228   2.912   8.279   1.410 -0.2187  0.4621 -0.2401
11670SOL    HW146229   2.833   8.226   1.378 -0.0320 -1.3486  2.1244
11670SOL    HW246230   2.995   8.224   1.399  0.3328  1.2833 -0.1383
11671SOL     OW46231   8.304   9.438   1.545 -0.8340  0.6247 -0.1256
11671SOL    HW146232   8.392   9.391   1.553 -0.9724  0.0602 -1.7818
11671SOL    HW246233   8.313   9.531   1.580 -0.2069 -0.1927  1.9238
11672SOL     OW46234   4.162   8.900   1.589 -0.1121 -0.2327 -0.4915
11672SOL    HW146235   4.195   8.983   1.635 -0.2188 -0.9866  0.9647
11672SOL    HW246236   4.156   8.826   1.655 -0.5757 -1.2570 -1.6742
11673SOL     OW46237   2.012   2.771   5.325 -0.4028 -0.4506 -0.2367
11673SOL    HW146238   2.076   2.823   5.269 -0.0739 -0.3363  0.2384
11673SOL    HW246239   2.063   2.703   5.379 -0.6795 -0.3575  0.1444
11674SOL     OW46240   0.170   9.208   5.542  0.0018 -0.2852  0.4659
11674SOL    HW146241   0.225   9.292   5.543 -0.3476 -0.0587  1.0712
11674SOL    HW246242   0.109   9.208   5.622  0.1584 -1.2234  0.5809
11675SOL     OW46243   3.222   1.128   1.322 -0.1747  0.3425  0.4285
11675SOL    HW146244   3.259   1.208   1.275 -0.4295 -0.5365 -1.3059
11675SOL    HW246245   3.133   1.151   1.362  0.5664  1.4169  1.4876
11676SOL     OW46246   1.509   0.640   4.885 -0.0125 -0.0639  0.1173
11676SOL    HW146247   1.428   0.616   4.832 -0.3732  0.4842  0.4169
11676SOL    HW246248   1.565   0.558   4.900  0.3774 -0.1275 -1.5903
11677SOL     OW46249   1.177   9.593   0.337  0.2481  0.5561 -0.2609
11677SOL    HW146250   1.107   9.627   0.274  0.1507 -0.7655 -0.8661
11677SOL    HW246251   1.133   9.563   0.422  0.4916  3.4744  0.9757
11678SOL     OW46252   5.066   1.887   1.273 -0.1581  1.0543  0.3567
11678SOL    HW146253   5.115   1.925   1.194 -0.9171  0.2604 -0.4925
11678SOL    HW246254   5.094   1.792   1.287  0.5365  1.4143  1.5142
11679SOL     OW46255   1.003   3.737   1.843 -0.0251  0.4149  0.0965
11679SOL    HW146256   1.012   3.836   1.850  0.9678  0.3234  0.2259
11679SOL    HW246257   1.006   3.710   1.746  1.2049  0.3953  0.1244
11680SOL     OW46258   1.249   9.427   6.096  0.0731  0.3385  0.1540
11680SOL    HW146259   1.192   9.370   6.155  1.9713 -1.5575  0.1793
11680SOL    HW246260   1.190   9.477   6.032 -1.7819  0.2177  1.7050
11681SOL     OW46261   2.473   2.902   0.121 -0.5237  0.5356 -0.4124
11681SOL    HW146262   2.434   2.928   0.033 -1.0647  0.3590 -0.2267
11681SOL    HW246263   2.532   2.975   0.154 -1.6047  1.2956 -0.1547
11682SOL     OW46264   1.394   0.976   3.577  0.3830  0.3317  0.0329
11682SOL    HW146265   1.471   0.966   3.641  1.1492  0.7476 -0.7999
11682SOL    HW246266   1.334   1.050   3.608 -0.4707 -0.9324  1.4521
11683SOL     OW46267   9.675   5.106   0.517  0.1599 -0.1885  0.5888
11683SOL    HW146268   9.773   5.122   0.503  0.2547 -0.9413  0.3572
11683SOL    HW246269   9.653   5.115   0.614  0.0979  1.8823  0.4089
11684SOL     OW46270   2.113   4.589   5.314  0.0242 -0.1842 -0.3720
11684SOL    HW146271   2.074   4.679   5.294  1.4111  0.4180 -0.4227
11684SOL    HW246272   2.086   4.524   5.243  0.5177  0.6457 -1.3270
11685SOL     OW46273   3.090   8.211   1.667  0.9331 -0.3233 -0.1594
11685SOL    HW146274   3.038   8.251   1.742  0.0903  0.7994 -1.3065
11685SOL    HW246275   3.074   8.113   1.663  0.7904 -0.3508  0.9680
11686SOL     OW46276   8.703   3.581   4.663  0.4361 -0.6300 -0.1437
11686SOL    HW146277   8.620   3.624   4.699  0.0783 -0.4552 -1.1446
11686SOL    HW246278   8.690   3.482   4.658  0.5601 -0.6735  0.3857
11687SOL     OW46279   3.026   4.197   3.318  0.5544 -0.2250  0.2946
11687SOL    HW146280   3.097   4.145   3.272  1.3691 -0.9872  2.3511
11687SOL    HW246281   3.006   4.155   3.407 -2.0092  0.3466  0.0393
11688SOL     OW46282   8.453   3.437   0.140 -0.0161 -0.4490 -0.2918
11688SOL    HW146283   8.454   3.383   0.224 -0.8368  1.3868  0.9303
11688SOL    HW246284   8.358   3.453   0.112  0.2019  0.7739 -0.3525
11689SOL     OW46285   3.567   6.516   2.370 -0.4349 -1.1484  0.4606
11689SOL    HW146286   3.535   6.423   2.387  0.0735 -1.6305 -1.1192
11689SOL    HW246287   3.634   6.515   2.296  1.6202  0.1245  2.2357
11690SOL     OW46288   0.601   0.501   3.807 -0.0743  0.3689  0.2289
11690SOL    HW146289   0.591   0.402   3.815 -2.6860  0.4356 -1.6771
11690SOL    HW246290   0.512   0.545   3.815  0.6928  2.3815 -1.6250
11691SOL     OW46291   1.530   9.635   3.636  0.7271 -0.4966  0.5791
11691SOL    HW146292   1.508   9.622   3.733 -1.2953  0.8439  0.3312
11691SOL    HW246293   1.451   9.608   3.581  1.7307 -0.8831 -0.6813
11692SOL     OW46294   6.273   5.236   0.436 -0.3884 -0.1077  0.0971
11692SOL    HW146295   6.194   5.189   0.474 -0.2642 -1.8839 -1.7635
11692SOL    HW246296   6.355   5.210   0.487 -0.6773 -0.0773  0.5721
11693SOL     OW46297   6.851   9.067   3.564  0.5132 -1.0318  0.0258
11693SOL    HW146298   6.864   8.998   3.635  0.5742 -2.8795 -1.7532
11693SOL    HW246299   6.754   9.077   3.544  0.3114  1.0839  1.8824
11694SOL     OW46300   1.307   3.919   1.710 -0.5653 -0.6303 -0.1711
11694SOL    HW146301   1.244   3.852   1.669  0.8781 -1.7220 -0.6513
11694SOL    HW246302   1.362   3.874   1.780  2.0608 -0.5621 -2.1121
11695SOL     OW46303   2.421   1.059   6.639 -0.4282  0.2604 -0.4467
11695SOL    HW146304   2.459   0.987   6.697 -0.4665  0.6244  0.0288
11695SOL    HW246305   2.323   1.045   6.629  0.0062 -1.4960 -2.8230
11696SOL     OW46306   9.202   4.404   3.038  0.0472  0.1933 -0.6339
11696SOL    HW146307   9.285   4.356   3.011  0.1534  0.1039 -0.1388
11696SOL    HW246308   9.195   4.406   3.137  0.3828  1.7841 -0.6334
11697SOL     OW46309   3.641   2.515   0.224  0.2177 -0.0988  0.2533
11697SOL    HW146310   3.591   2.530   0.138  0.1620  0.1553  0.3282
11697SOL    HW246311   3.689   2.427   0.220 -0.0407 -0.2315  0.0863
11698SOL     OW46312   2.038   1.402   3.308 -0.2639  0.1056 -0.1210
11698SOL    HW146313   2.024   1.498   3.288 -3.5239 -0.2781  0.0750
11698SOL    HW246314   2.018   1.347   3.227 -1.3431 -0.5889  0.5914
11699SOL     OW46315   8.601   5.053   0.635 -0.4449  0.1592 -0.3943
11699SOL    HW146316   8.561   4.983   0.694 -2.1456  1.0169 -0.4910
11699SOL    HW246317   8.529   5.098   0.583  0.7770  1.0639 -1.3402
11700SOL     OW46318   3.725   9.232   6.128  0.0003  0.3054 -0.1644
11700SOL    HW146319   3.763   9.146   6.094  0.7923  1.0075 -1.0845
11700SOL    HW246320   3.763   9.252   6.218 -1.7139 -1.3080  0.9467
11701SOL     OW46321   2.103   6.335   2.468  0.4213  0.1724  0.0361
11701SOL    HW146322   2.124   6.384   2.384  1.1572 -1.4828 -0.7758
11701SOL    HW246323   2.187   6.310   2.515  0.0637 -0.2873  0.4433
11702SOL     OW46324   3.348   2.068   4.930 -0.3525  0.2345 -0.1640
11702SOL    HW146325   3.333   2.167   4.938 -0.6644  0.2401 -0.7481
11702SOL    HW246326   3.445   2.048   4.943 -0.3146  0.6026  0.1280
11703SOL     OW46327   9.804   2.575   0.243 -0.7188  0.0664  0.3879
11703SOL    HW146328   9.831   2.480   0.228  0.4848  0.4406  0.1012
11703SOL    HW246329   9.883   2.628   0.273 -0.8716  1.4092 -1.4444
11704SOL     OW46330   3.346   6.814   4.283 -0.4829  0.4476  0.0280
11704SOL    HW146331   3.422   6.821   4.218 -1.6978  0.2605 -1.4329
11704SOL    HW246332   3.264   6.784   4.235 -1.0700 -1.0553  1.9239
11705SOL     OW46333   0.518   4.881   0.274  0.1167  0.0395  0.0575
11705SOL    HW146334   0.425   4.855   0.300  0.3524  1.1748  2.0664
11705SOL    HW246335   0.549   4.821   0.200 -1.3639 -1.8340  0.9068
11706SOL     OW46336   8.458   5.166   3.554  0.3476 -0.1283 -0.6168
11706SOL    HW146337   8.515   5.248   3.546  1.2805 -0.6454  0.5163
11706SOL    HW246338   8.511   5.086   3.526  0.0100 -0.5555 -0.0462
11707SOL     OW46339   9.412   4.218   2.592 -0.0359 -0.0730  0.2406
11707SOL    HW146340   9.358   4.285   2.643 -0.2687 -0.4080  0.4357
11707SOL    HW246341   9.385   4.126   2.619  0.1426 -0.2484 -0.1750
11708SOL     OW46342   9.189   2.970   6.547 -0.1220  0.2086 -0.2670
11708SOL    HW146343   9.228   2.998   6.634  0.6422 -0.3957 -0.4149
11708SOL    HW246344   9.239   3.014   6.472  0.1456 -0.4008 -0.4496
11709SOL     OW46345   1.717   0.247   2.228 -0.8613 -0.1084 -0.2386
11709SOL    HW146346   1.725   0.241   2.128  1.5493 -0.2785 -0.0562
11709SOL    HW246347   1.800   0.212   2.270 -2.4632 -1.4127  1.8976
11710SOL     OW46348   4.091   4.000   6.113 -0.1122 -0.0433 -0.5706
11710SOL    HW146349   4.099   3.909   6.154 -0.6540  0.2363  0.1806
11710SOL    HW246350   4.173   4.053   6.133 -0.5752  0.2624  0.6223
11711SOL     OW46351   1.187   7.812   0.976  0.6195 -0.2134 -0.2347
11711SOL    HW146352   1.149   7.848   1.062  1.1714  1.1139 -0.5277
11711SOL    HW246353   1.112   7.793   0.912  0.2843 -0.0345  0.0997
11712SOL     OW46354   4.262   9.963   2.589  1.0877  0.0239 -0.1465
11712SOL    HW146355   4.228   9.920   2.505  1.8141  2.3740 -1.6788
11712SOL    HW246356   4.187  10.009   2.636  1.1561  0.8967 -0.8781
11713SOL     OW46357   6.243   1.127   2.510  0.6876 -0.7290 -0.1710
11713SOL    HW146358   6.155   1.144   2.466  1.4034 -1.8075 -2.0570
11713SOL    HW246359   6.298   1.066   2.453  2.2351 -0.9528  1.5095
11714SOL     OW46360   1.080   9.785   1.210 -0.0268 -0.1182 -0.1417
11714SOL    HW146361   1.169   9.740   1.206 -0.5871 -1.2891  0.3526
11714SOL    HW246362   1.068   9.844   1.131  0.4663 -1.3220 -1.1164
11715SOL     OW46363   6.214   8.538   2.463 -0.1809 -0.9067  0.1078
11715SOL    HW146364   6.183   8.605   2.531  2.1075 -1.3063  1.5973
11715SOL    HW246365   6.177   8.448   2.485  1.5984 -1.2943  1.6223
11716SOL     OW46366   3.341   8.313   3.772 -0.1226  0.5423 -0.3784
11716SOL    HW146367   3.377   8.291   3.863 -0.2788 -0.7534 -0.6241
11716SOL    HW246368   3.280   8.392   3.779 -1.8424 -0.8670  1.0052
11717SOL     OW46369   9.778   8.788   5.846 -0.4258  1.1132 -0.3897
11717SOL    HW146370   9.857   8.773   5.785 -0.7601  1.5643 -0.9403
11717SOL    HW246371   9.742   8.700   5.876 -1.2169  0.8328 -2.0961
11718SOL     OW46372   5.450   6.055   1.563  0.7186  0.1323 -0.0701
11718SOL    HW146373   5.516   6.053   1.638 -0.8260 -1.2944  1.2785
11718SOL    HW246374   5.400   6.141   1.565  0.0095 -0.3042  1.1329
11719SOL     OW46375   9.540   1.401   2.211  0.0579  0.4422 -0.4564
11719SOL    HW146376   9.441   1.403   2.228  0.2172  0.5494  0.5137
11719SOL    HW246377   9.566   1.312   2.175 -0.5991  0.8776 -2.0524
11720SOL     OW46378   8.305   1.591   0.464 -0.3161  0.1645 -0.0835
11720SOL    HW146379   8.333   1.625   0.374 -1.5995  1.1977 -0.1170
11720SOL    HW246380   8.323   1.493   0.471  1.4701  0.4246 -0.7904
11721SOL     OW46381   3.099   7.113   5.102  0.6682  0.0947 -0.1937
11721SOL    HW146382   3.098   7.070   5.012 -0.0636  0.2047 -0.2416
11721SOL    HW246383   3.193   7.117   5.136  1.0733  1.0872 -1.4287
11722SOL     OW46384   2.942   4.293   4.941 -0.0057  0.6515  0.1564
11722SOL    HW146385   2.868   4.231   4.967 -0.8134  0.8410 -1.6099
11722SOL    HW246386   2.999   4.249   4.871  1.4382  0.6068  1.3089
11723SOL     OW46387   4.029   7.085   3.324 -0.4987 -0.0335 -0.3148
11723SOL    HW146388   4.112   7.108   3.375 -0.7647  1.9374 -0.7209
11723SOL    HW246389   3.989   7.001   3.361  0.6702  0.0114  1.0975
11724SOL     OW46390   1.558   4.830   6.373  0.0279 -0.3606  0.1827
11724SOL    HW146391   1.647   4.809   6.414  0.0108 -1.0277 -0.1134
11724SOL    HW246392   1.524   4.749   6.325 -1.7932 -0.8705  2.2485
11725SOL     OW46393   9.919   2.786   0.645 -0.2501  0.2264 -0.1424
11725SOL    HW146394   9.831   2.780   0.692  0.8825 -0.1986  1.9988
11725SOL    HW246395   9.976   2.856   0.689 -0.3521  2.1971 -2.9897
11726SOL     OW46396   2.090   1.612   4.198 -0.1466 -0.2256 -0.6866
11726SOL    HW146397   2.045   1.648   4.280 -0.3014 -1.8777 -0.0137
11726SOL    HW246398   2.182   1.651   4.190 -0.1403 -0.0288  0.2701
11727SOL     OW46399   9.136   0.603   4.348  0.1298 -0.5656  0.4598
11727SOL    HW146400   9.055   0.556   4.384 -0.0868 -0.9101 -0.4455
11727SOL    HW246401   9.182   0.543   4.283  2.1104 -1.0460  2.2511
11728SOL     OW46402   0.981   7.864   4.087 -0.0361 -0.3046 -0.0755
11728SOL    HW146403   0.987   7.906   3.996  1.1009  0.4672  0.3455
11728SOL    HW246404   1.001   7.933   4.156 -0.4147 -1.0108  0.7414
11729SOL     OW46405   2.105   4.739   5.944 -0.0029 -0.0128 -0.1588
11729SOL    HW146406   2.096   4.825   5.994  0.3034 -0.3236  0.4343
11729SOL    HW246407   2.122   4.758   5.847  1.0984  0.6037  0.1531
11730SOL     OW46408   5.992   7.847   2.841 -0.2273 -0.2875  0.3863
11730SOL    HW146409   5.902   7.875   2.875 -0.5622 -1.1599  0.2529
11730SOL    HW246410   5.986   7.828   2.743 -0.2719 -1.7833  0.6568
11731SOL     OW46411   8.524   5.524   3.259 -0.5704  0.0154 -0.0534
11731SOL    HW146412   8.571   5.591   3.315 -1.1566 -1.4712  2.2616
11731SOL    HW246413   8.428   5.548   3.250 -0.0969  1.2691 -2.0362
11732SOL     OW46414   4.767   8.679   5.048 -0.0585  0.0328 -0.3927
11732SOL    HW146415   4.733   8.597   5.093  1.1538  0.9324  2.2696
11732SOL    HW246416   4.730   8.760   5.094  1.0457  0.9941 -1.1620
11733SOL     OW46417   9.204   5.032   0.930  0.3402 -0.1824  0.0688
11733SOL    HW146418   9.268   5.034   1.006 -1.7429  2.4473  1.8543
11733SOL    HW246419   9.241   5.082   0.852  0.8613  0.4437  0.7240
11734SOL     OW46420   9.709   8.484   3.150  0.1817 -0.1424  0.1281
11734SOL    HW146421   9.651   8.516   3.224  0.2397 -0.5963  0.3711
11734SOL    HW246422   9.790   8.439   3.188 -1.3043 -3.1953 -0.1643
11735SOL     OW46423   9.684   4.239   4.594 -0.3223 -0.3784 -0.5931
11735SOL    HW146424   9.614   4.196   4.650  0.2032 -0.5450 -0.0550
11735SOL    HW246425   9.681   4.202   4.501 -0.7243 -0.6250 -0.4829
11736SOL     OW46426   8.881   4.771   4.279 -0.3897  0.1620  0.1511
11736SOL    HW146427   8.973   4.802   4.254 -0.2711  0.0962  0.5008
11736SOL    HW246428   8.883   4.732   4.372 -1.1989  2.1354  1.0233
11737SOL     OW46429   1.029   3.649   1.136 -0.3959  0.4767 -0.6083
11737SOL    HW146430   0.978   3.565   1.156 -2.1662  1.5016 -0.7113
11737SOL    HW246431   1.107   3.627   1.078  0.9974 -1.5493  1.9407
11738SOL     OW46432   2.201   1.159   2.406  0.2464  0.2088 -0.2946
11738SOL    HW146433   2.243   1.093   2.344 -0.8572 -0.7927  0.0277
11738SOL    HW246434   2.190   1.246   2.359 -0.6828 -0.5745 -1.5455
11739SOL     OW46435   4.949   3.579   0.963  0.1290 -0.0057  0.3442
11739SOL    HW146436   5.021   3.571   1.032  0.5073 -0.5589 -0.1065
11739SOL    HW246437   4.912   3.671   0.965 -0.3312 -0.2033  1.7453
11740SOL     OW46438   1.078   2.958   6.379  0.3106  0.0376 -0.2581
11740SOL    HW146439   1.174   2.961   6.351  0.9644 -0.7709  1.7844
11740SOL    HW246440   1.054   2.864   6.405 -0.8167  0.3882 -0.0125
11741SOL     OW46441   0.608   2.399   2.647  0.0068 -0.3267  0.2174
11741SOL    HW146442   0.612   2.464   2.722 -0.6435 -0.2270  0.1696
11741SOL    HW246443   0.554   2.438   2.572  0.0118 -0.7262  0.0040
11742SOL     OW46444   2.099   5.864   3.945 -0.3261  0.8192  0.5583
11742SOL    HW146445   2.049   5.948   3.965 -1.4069  0.8653 -2.1251
11742SOL    HW246446   2.132   5.866   3.851 -3.4287 -3.2157 -0.7655
11743SOL     OW46447   3.110   8.156   5.034  0.1143  0.1582  0.6199
11743SOL    HW146448   3.021   8.171   4.992  0.3628 -1.0050 -0.3722
11743SOL    HW246449   3.102   8.159   5.133 -0.3797  3.5669  0.5239
11744SOL     OW46450   8.368   1.668   3.453 -0.0862  0.4651 -0.2222
11744SOL    HW146451   8.456   1.690   3.496  0.4719 -0.9131 -0.6359
11744SOL    HW246452   8.297   1.728   3.490  0.8382  0.9145  0.8500
11745SOL     OW46453   8.584   9.708   1.594  0.6668  0.3488 -0.2293
11745SOL    HW146454   8.661   9.757   1.634 -0.4657  0.9406  1.2561
11745SOL    HW246455   8.498   9.750   1.623 -0.2630 -1.0892 -0.8186
11746SOL     OW46456   3.051   7.964   1.631 -0.0290 -0.0053  0.2481
11746SOL    HW146457   3.085   7.923   1.546 -1.4744  1.1835 -0.9178
11746SOL    HW246458   2.987   7.900   1.674 -1.0093  0.3244 -0.7109
11747SOL     OW46459   9.471   2.219   6.155  0.5090  0.2134 -0.5213
11747SOL    HW146460   9.530   2.192   6.079  0.2630 -0.4983 -0.4650
11747SOL    HW246461   9.510   2.298   6.201  1.0759  0.1512 -0.8913
11748SOL     OW46462   4.957   2.649   2.101  0.2366 -0.0874  0.2063
11748SOL    HW146463   5.044   2.646   2.052 -0.5582 -0.3192 -1.1989
11748SOL    HW246464   4.900   2.571   2.074 -0.4670  0.1359  1.0122
11749SOL     OW46465   9.231   1.466   5.699 -0.2974 -0.0303 -0.5844
11749SOL    HW146466   9.325   1.439   5.719 -0.2564  0.2130 -0.4523
11749SOL    HW246467   9.220   1.564   5.719 -0.1794  0.2786 -1.9956
11750SOL     OW46468   8.016   3.798   1.677  0.0769 -0.3460 -0.1749
11750SOL    HW146469   7.985   3.714   1.723  0.3117 -0.2872  0.0937
11750SOL    HW246470   8.096   3.778   1.621 -0.1586 -0.3999 -0.4957
11751SOL     OW46471   6.879   3.668   0.214  0.4132  0.8729  0.7473
11751SOL    HW146472   6.799   3.686   0.157  0.7521 -1.0347 -0.4018
11751SOL    HW246473   6.851   3.647   0.307 -0.5110 -0.4020  0.2051
11752SOL     OW46474   1.448   0.656   4.072  0.2911 -0.2464 -0.1158
11752SOL    HW146475   1.415   0.728   4.133  1.2800  1.6726 -1.7796
11752SOL    HW246476   1.426   0.566   4.111 -0.4967  0.9355  2.2509
11753SOL     OW46477   4.782   3.302   4.858  0.3129 -0.2640 -0.3892
11753SOL    HW146478   4.845   3.317   4.781  0.5363 -0.7021 -0.2931
11753SOL    HW246479   4.722   3.381   4.867  2.3488  1.1973  0.9640
11754SOL     OW46480   6.967   9.985   3.299  0.2161  0.2091  0.2693
11754SOL    HW146481   7.057   9.972   3.341  1.5104  1.0035 -2.1585
11754SOL    HW246482   6.931   9.897   3.269  0.8238  0.0517  0.0030
11755SOL     OW46483   3.792   6.694   4.640 -0.4458 -0.1653 -0.2783
11755SOL    HW146484   3.819   6.614   4.694 -2.8767 -0.7709  0.0768
11755SOL    HW246485   3.736   6.665   4.563  1.3393  0.9133 -2.0160
11756SOL     OW46486   3.079   0.449   5.986  0.7354  0.3576  0.4713
11756SOL    HW146487   3.028   0.535   5.983 -0.5035 -0.2892  2.0762
11756SOL    HW246488   3.113   0.428   5.894 -0.2039  1.8055 -0.2426
11757SOL     OW46489   8.941   8.487   1.965  0.3149  0.5172  0.2626
11757SOL    HW146490   8.953   8.486   2.065 -0.9014  0.8566  0.4125
11757SOL    HW246491   8.938   8.392   1.932  0.3477  0.3987  0.5900
11758SOL     OW46492   8.726   9.693   4.654 -0.4159 -0.3963  0.5306
11758SOL    HW146493   8.756   9.775   4.702 -2.0001 -0.3310  1.4415
11758SOL    HW246494   8.676   9.634   4.717 -0.2407 -1.5560 -0.3907
11759SOL     OW46495   2.498   3.268   5.496  0.1433  0.1705  0.0595
11759SOL    HW146496   2.552   3.313   5.424  0.1757 -1.1639 -0.7696
11759SOL    HW246497   2.461   3.337   5.558  1.5738  1.2166 -0.2250
11760SOL     OW46498   5.574   4.947   6.727 -0.9559  0.5125  0.4174
11760SOL    HW146499   5.571   4.992   6.638 -0.6580 -0.9757 -0.3530
11760SOL    HW246500   5.548   4.851   6.717  3.5200 -0.8888  1.1486
11761SOL     OW46501   3.771   6.360   1.038 -0.2282 -0.0825  0.4302
11761SOL    HW146502   3.814   6.291   0.979  0.1554  0.1175  0.4768
11761SOL    HW246503   3.838   6.431   1.061 -0.8362  0.7532 -0.3047
11762SOL     OW46504   7.730   0.790   6.417  0.4263 -0.1763  0.1004
11762SOL    HW146505   7.810   0.743   6.453  0.4309 -0.7270 -0.6087
11762SOL    HW246506   7.756   0.880   6.384  0.1596  0.9066  2.7446
11763SOL     OW46507   9.232   3.233   4.200 -0.0401  0.1937 -0.1940
11763SOL    HW146508   9.244   3.197   4.292  0.6884  0.4541 -0.1898
11763SOL    HW246509   9.293   3.185   4.137  0.1605  0.6802 -0.3737
11764SOL     OW46510   2.551   6.549   0.653 -0.8984  0.3878 -0.1638
11764SOL    HW146511   2.520   6.456   0.668 -3.0559  1.0719 -0.2755
11764SOL    HW246512   2.527   6.578   0.560  0.8631  0.6448 -0.5657
11765SOL     OW46513   9.546   8.330   2.906  0.6153  0.4298  0.2485
11765SOL    HW146514   9.608   8.365   2.835  0.5652  0.4880  0.2325
11765SOL    HW246515   9.541   8.396   2.981  0.9278  0.2162  0.4563
11766SOL     OW46516   2.701   3.317   1.825 -0.2834  0.5503 -0.3719
11766SOL    HW146517   2.686   3.357   1.916  0.3931  0.0770 -0.0484
11766SOL    HW246518   2.662   3.377   1.755 -1.6872  0.4419  0.2908
11767SOL     OW46519   0.102   1.844   6.374 -0.1771 -0.0832  0.2192
11767SOL    HW146520   0.003   1.841   6.390 -0.0874 -0.0573  0.7918
11767SOL    HW246521   0.141   1.923   6.422  0.4022 -1.1653  1.5417
11768SOL     OW46522   0.525   7.759   5.079  0.0071 -0.2795 -0.5658
11768SOL    HW146523   0.468   7.703   5.139 -0.9192 -0.4766 -1.6175
11768SOL    HW246524   0.604   7.707   5.049  0.4613 -0.1928  0.4407
11769SOL     OW46525   3.705   2.445   4.361 -0.1003  0.1810 -0.0393
11769SOL    HW146526   3.707   2.539   4.394 -1.8721  0.1079  0.3491
11769SOL    HW246527   3.732   2.384   4.435  1.3728  0.4049 -0.3905
11770SOL     OW46528   9.226   5.452   1.068 -0.9093 -0.1662 -0.8372
11770SOL    HW146529   9.245   5.498   1.154 -0.1759  1.3110 -1.7570
11770SOL    HW246530   9.128   5.430   1.062 -1.4959  2.3469 -0.8563
11771SOL     OW46531   0.327   6.170   2.327  0.1451 -0.3830 -0.0701
11771SOL    HW146532   0.249   6.141   2.383  0.1264 -1.6395 -0.7255
11771SOL    HW246533   0.303   6.163   2.230  0.6701  0.3862 -0.2573
11772SOL     OW46534   9.402   8.010   1.947  0.0191  1.0002  0.4545
11772SOL    HW146535   9.467   8.074   1.989  0.4202 -0.0230  1.4334
11772SOL    HW246536   9.337   7.979   2.016 -0.0533  0.2116  0.0385
11773SOL     OW46537   3.215   1.176   4.965 -0.0633 -0.1250 -0.4680
11773SOL    HW146538   3.116   1.161   4.966 -0.1766  0.5960  0.5903
11773SOL    HW246539   3.234   1.270   4.936  0.2523  0.0976  0.4570
11774SOL     OW46540   9.393   2.612   6.256 -0.1940  0.2011 -0.0946
11774SOL    HW146541   9.388   2.525   6.306 -0.7728  0.7139  0.7583
11774SOL    HW246542   9.392   2.688   6.321  1.1146  0.8344 -0.8047
11775SOL     OW46543   1.737   5.913   1.039  0.3209  0.2140  0.0633
11775SOL    HW146544   1.810   5.850   1.013  1.3113  1.0088  0.8729
11775SOL    HW246545   1.705   5.893   1.131 -0.5507 -0.1811 -0.3155
11776SOL     OW46546   0.780   4.344   5.387  0.2843  0.2472  0.2647
11776SOL    HW146547   0.718   4.315   5.314  1.6567 -0.9221 -0.4676
11776SOL    HW246548   0.782   4.274   5.459  1.2199 -0.0378 -0.0247
11777SOL     OW46549   4.753   1.019   2.086  0.3703  0.2167 -0.0465
11777SOL    HW146550   4.699   0.996   2.005  0.0904  0.4895  0.0600
11777SOL    HW246551   4.693   1.060   2.156  0.8131  1.0776 -0.1595
11778SOL     OW46552   6.266   9.907   5.252 -0.4813  0.3807  0.1904
11778SOL    HW146553   6.323   9.909   5.170  0.2723  0.6951  0.7119
11778SOL    HW246554   6.181   9.957   5.235  0.5626  2.2067  0.2286
11779SOL     OW46555   7.800   4.616   5.121 -0.2784 -0.1068  0.2872
11779SOL    HW146556   7.778   4.578   5.211  0.0253 -0.1019  0.3648
11779SOL    HW246557   7.898   4.639   5.117 -0.3328  0.0913  0.0296
11780SOL     OW46558   2.993   9.629   0.451 -0.4601 -0.5744  0.6257
11780SOL    HW146559   3.042   9.673   0.525  3.2119 -2.2780 -0.6548
11780SOL    HW246560   2.988   9.690   0.372  0.3055 -0.6748  0.4989
11781SOL     OW46561   4.470   0.098   4.091 -0.2819  0.3411 -0.1426
11781SOL    HW146562   4.434   0.014   4.133  1.0798  0.7431  1.8720
11781SOL    HW246563   4.425   0.112   4.002 -2.8194 -0.8315  0.8930
11782SOL     OW46564   9.816   4.566   3.880 -0.0078  0.0604  0.2797
11782SOL    HW146565   9.797   4.470   3.864  3.4491 -0.8113  1.0944
11782SOL    HW246566   9.805   4.587   3.977 -0.0609  0.3384  0.2156
11783SOL     OW46567   0.282   6.899   2.514  0.1789 -0.0010 -0.0002
11783SOL    HW146568   0.276   6.914   2.612 -0.7645 -0.6296  0.0427
11783SOL    HW246569   0.265   6.985   2.466 -0.2381  0.1184  0.3610
11784SOL     OW46570   2.912   0.590   4.802  0.1832  0.5415 -0.1240
11784SOL    HW146571   2.996   0.615   4.755 -0.3077 -0.7256 -1.7354
11784SOL    HW246572   2.872   0.670   4.845  0.3152  1.8765 -2.4247
11785SOL     OW46573   0.904   6.444   3.346  0.0702 -0.3589 -0.4398
11785SOL    HW146574   0.991   6.490   3.361  0.0548 -0.5192  0.1455
11785SOL    HW246575   0.913   6.347   3.365  0.1347 -0.6278 -1.8193
11786SOL     OW46576   8.607   6.142   5.590  0.4857 -0.6179 -0.5808
11786SOL    HW146577   8.516   6.104   5.578  0.2645 -0.1542 -0.3685
11786SOL    HW246578   8.671   6.068   5.611  0.1054 -0.9077 -0.4343
11787SOL     OW46579   6.915   0.324   4.436  0.5867  0.2291  0.3810
11787SOL    HW146580   6.930   0.272   4.519  0.6236  0.3326  0.4398
11787SOL    HW246581   6.975   0.290   4.363 -0.3557 -0.7076  0.0259
11788SOL     OW46582   3.307   5.593   1.197 -0.5705  0.2574  0.0088
11788SOL    HW146583   3.279   5.685   1.170 -0.0788  0.0550 -1.2137
11788SOL    HW246584   3.228   5.543   1.233 -1.0854  0.7599 -0.4263
11789SOL     OW46585   2.093   2.933   2.641 -0.3323 -0.2499 -0.0795
11789SOL    HW146586   2.113   3.000   2.713 -0.9982  0.4530 -0.5411
11789SOL    HW246587   2.041   2.857   2.681  0.9401 -0.7903  0.5671
11790SOL     OW46588   4.601   7.648   4.070  0.2016  0.0126  0.1269
11790SOL    HW146589   4.503   7.658   4.081  0.2523  1.9706 -1.1315
11790SOL    HW246590   4.621   7.560   4.026 -0.8633 -1.0578  1.7307
11791SOL     OW46591   0.140   9.159   2.285  0.3721 -0.0756  0.3308
11791SOL    HW146592   0.190   9.211   2.354 -1.6356  0.0622  1.7259
11791SOL    HW246593   0.173   9.065   2.283  0.5870 -0.0226  1.3206
11792SOL     OW46594   9.723   0.907   6.422 -0.1309  0.1811  0.0473
11792SOL    HW146595   9.790   0.981   6.421 -0.1645  0.2185  0.6889
11792SOL    HW246596   9.762   0.826   6.379  0.3808  0.1517  0.5773
11793SOL     OW46597   4.488   3.831   1.431  0.3422 -0.0867  0.9888
11793SOL    HW146598   4.528   3.743   1.456  0.2097 -0.1893  0.8375
11793SOL    HW246599   4.423   3.859   1.502 -0.6368 -0.7635  0.3772
11794SOL     OW46600   0.967   7.596   3.390 -0.0199  0.0559 -0.0538
11794SOL    HW146601   1.000   7.509   3.426  0.7671 -0.1645 -1.2906
11794SOL    HW246602   0.940   7.584   3.294 -1.5779  0.7587  0.2829
11795SOL     OW46603   9.475   2.177   2.022  0.4859  0.0171 -0.7321
11795SOL    HW146604   9.377   2.168   2.006 -0.1136  0.8595  2.1439
11795SOL    HW246605   9.511   2.253   1.968 -1.4277  2.7633  1.7336
11796SOL     OW46606   2.766   0.672   5.661  0.5417  0.4766 -0.0303
11796SOL    HW146607   2.836   0.736   5.692  0.4314  0.3858  0.3977
11796SOL    HW246608   2.793   0.634   5.572 -0.1218  2.2959 -1.0553
11797SOL     OW46609   5.137   3.053   3.541  0.5007 -0.2985  0.5282
11797SOL    HW146610   5.210   2.989   3.517  0.2782 -1.5914  3.0735
11797SOL    HW246611   5.082   3.014   3.615 -1.1027  1.8449  0.5228
11798SOL     OW46612   9.141   9.381   3.686 -0.2000 -0.1347 -0.2640
11798SOL    HW146613   9.170   9.372   3.590  2.3057  0.2074  0.4404
11798SOL    HW246614   9.144   9.477   3.713  2.1252 -0.5577  1.0604
11799SOL     OW46615   9.899   1.889   2.589  0.9397  0.3502 -0.2482
11799SOL    HW146616   9.953   1.958   2.637  0.7778 -0.5176  1.2411
11799SOL    HW246617   9.805   1.889   2.626  0.3824  0.7325 -1.6583
11800SOL     OW46618   2.783   5.860   4.847  0.4367  0.1514  0.3763
11800SOL    HW146619   2.878   5.883   4.825 -0.0655  0.7300 -1.2573
11800SOL    HW246620   2.744   5.806   4.772 -0.7060  0.4162  0.7773
11801SOL     OW46621   3.799   5.034   3.704  0.1568  0.4340  0.3529
11801SOL    HW146622   3.852   5.118   3.695  1.3527 -0.2214  1.2020
11801SOL    HW246623   3.861   4.956   3.718 -1.0235 -0.3375  1.3958
11802SOL     OW46624   2.781   1.293   6.260  0.0733  0.4643  0.6643
11802SOL    HW146625   2.739   1.257   6.176  1.8308 -1.3246  0.5057
11802SOL    HW246626   2.837   1.373   6.237  2.2690 -1.2828 -0.2678
11803SOL     OW46627   3.211   0.354   1.183  0.1341 -0.5592 -0.3486
11803SOL    HW146628   3.231   0.445   1.220  1.6065 -1.0319  0.0201
11803SOL    HW246629   3.293   0.297   1.185 -1.3210 -2.6833  1.5923
11804SOL     OW46630   0.226   3.998   2.674 -0.1031 -0.0826  0.2180
11804SOL    HW146631   0.163   4.021   2.749  0.4206 -0.8976  0.9250
11804SOL    HW246632   0.313   4.044   2.688 -0.7991  1.7187 -1.2146
11805SOL     OW46633   2.416   5.045   6.378 -0.1411  0.1961 -0.4311
11805SOL    HW146634   2.509   5.014   6.363  0.0166  1.2816 -1.8757
11805SOL    HW246635   2.369   5.053   6.290 -0.9151  1.6834  0.0963
11806SOL     OW46636   3.314   3.935   2.588  0.1327 -0.7450  0.5258
11806SOL    HW146637   3.266   4.000   2.646 -1.8435 -1.4659 -0.2434
11806SOL    HW246638   3.277   3.939   2.495 -0.4726 -3.3529  0.5995
11807SOL     OW46639   4.676   1.919   0.744 -0.5505  0.0036  0.0690
11807SOL    HW146640   4.759   1.972   0.759 -1.9159  1.7944  1.4286
11807SOL    HW246641   4.661   1.858   0.822 -0.7747  0.0151  0.0344
11808SOL     OW46642   0.951   5.596   3.827 -0.5061 -0.1397  0.0510
11808SOL    HW146643   0.884   5.608   3.900 -0.1265 -1.8823  0.7034
11808SOL    HW246644   1.014   5.674   3.826 -1.1021  0.3633  0.9435
11809SOL     OW46645   0.467   3.118   0.769  0.2502 -0.0205  0.2121
11809SOL    HW146646   0.436   3.117   0.864 -2.8054 -0.2067 -0.7240
11809SOL    HW246647   0.450   3.208   0.728 -1.3754 -0.8481 -1.0135
11810SOL     OW46648   8.867   4.053   6.385 -0.1530  0.1294  0.6757
11810SOL    HW146649   8.911   3.967   6.358 -0.2208  0.2295  0.2359
11810SOL    HW246650   8.896   4.077   6.478  1.6530  0.8038 -0.0294
11811SOL     OW46651   2.720   7.200   3.374 -0.2033  0.2637  0.1812
11811SOL    HW146652   2.799   7.214   3.315  0.4823 -0.6418  0.8731
11811SOL    HW246653   2.671   7.118   3.344 -1.6927  1.5927 -1.1208
11812SOL     OW46654   1.747   0.846   5.564 -0.1521  0.2634  0.3282
11812SOL    HW146655   1.682   0.913   5.599  0.8267  1.8729 -0.9183
11812SOL    HW246656   1.805   0.813   5.639 -0.4897  0.9717  0.9005
11813SOL     OW46657   6.876   7.704   4.741  0.3203  0.2351 -0.0897
11813SOL    HW146658   6.970   7.672   4.726  0.4125  0.0309  0.9159
11813SOL    HW246659   6.821   7.684   4.660  1.1637  0.4306 -0.7202
11814SOL     OW46660   3.801   1.083   2.337  0.0388  0.3838 -0.2390
11814SOL    HW146661   3.718   1.121   2.298 -0.4864 -1.0564 -0.5557
11814SOL    HW246662   3.797   0.983   2.334  1.2177  0.2838  0.9221
11815SOL     OW46663   8.428   9.904   1.747  0.4938  0.3705  0.5303
11815SOL    HW146664   8.447   9.880   1.842  1.8345 -0.0737  0.1654
11815SOL    HW246665   8.465   9.995   1.728  0.1644  0.4872  0.4521
11816SOL     OW46666   8.159   5.585   6.545  0.1601  0.1158 -0.6243
11816SOL    HW146667   8.157   5.631   6.456  0.1728  0.2022 -0.5794
11816SOL    HW246668   8.251   5.587   6.582 -0.5568  3.5313  1.1904
11817SOL     OW46669   0.729   0.259   4.758  0.3380  0.1600 -0.4883
11817SOL    HW146670   0.634   0.242   4.729 -0.1973  1.7881  0.2676
11817SOL    HW246671   0.750   0.356   4.747  1.6805 -0.0618  0.0906
11818SOL     OW46672   2.845   9.522   3.246 -0.1626  0.2183  0.2817
11818SOL    HW146673   2.871   9.532   3.342 -0.1582  0.0683  0.2949
11818SOL    HW246674   2.927   9.532   3.189  0.4026 -3.0584  0.4651
11819SOL     OW46675   1.579   6.351   5.445  0.1156  0.0041 -0.2025
11819SOL    HW146676   1.599   6.403   5.362  1.7191  0.2707  0.3329
11819SOL    HW246677   1.526   6.408   5.508  2.1496  1.1478  0.5184
11820SOL     OW46678   5.493   9.902   2.330 -0.4385 -0.4018 -0.7414
11820SOL    HW146679   5.497   9.807   2.301  1.5189 -0.4542 -0.3778
11820SOL    HW246680   5.498   9.962   2.251  2.1576 -0.5765 -0.7481
11821SOL     OW46681   9.747   7.627   6.643 -0.1422 -0.1586 -0.5360
11821SOL    HW146682   9.750   7.555   6.713 -1.8238 -0.2074 -0.4770
11821SOL    HW246683   9.712   7.711   6.684 -0.8439 -0.1041 -1.2432
11822SOL     OW46684   0.950   2.441   5.640  0.0273  0.1729  0.4913
11822SOL    HW146685   1.005   2.419   5.720  0.9345  0.2041 -0.1225
11822SOL    HW246686   0.892   2.363   5.617  1.7381 -0.8385 -0.4489
11823SOL     OW46687   2.457   2.503   2.473 -0.4940  0.6406  0.0885
11823SOL    HW146688   2.518   2.573   2.437  0.2502  0.1277  0.3400
11823SOL    HW246689   2.375   2.546   2.511 -1.0342  1.2304 -1.6990
11824SOL     OW46690   2.680   3.434   2.073 -0.3160 -0.2633  0.0327
11824SOL    HW146691   2.626   3.403   2.151  0.4464  0.4863  0.8628
11824SOL    HW246692   2.776   3.442   2.100  0.4303 -2.5877 -1.6925
11825SOL     OW46693   8.518   5.071   1.507  0.0787  0.1649  0.3272
11825SOL    HW146694   8.597   5.036   1.558 -0.9442 -1.6737  0.6973
11825SOL    HW246695   8.510   5.170   1.521  1.9086  0.2569  0.8320
11826SOL     OW46696   1.498   1.158   5.419  0.2086  0.2060  0.7050
11826SOL    HW146697   1.494   1.244   5.368  1.6611 -0.1438 -0.0463
11826SOL    HW246698   1.407   1.133   5.450 -0.1519  2.3780  1.5481
11827SOL     OW46699   9.236   5.438   5.792  0.2305  0.4011 -0.1738
11827SOL    HW146700   9.179   5.445   5.874 -1.4902 -1.9502 -1.1001
11827SOL    HW246701   9.204   5.503   5.724 -0.1047  0.4340  0.0147
11828SOL     OW46702   5.839   0.920   2.447 -0.4349 -0.1519  0.4796
11828SOL    HW146703   5.770   0.877   2.388 -1.8868  2.2885  0.3191
11828SOL    HW246704   5.911   0.961   2.391  0.5429 -1.6632  0.6042
11829SOL     OW46705   9.517   0.966   4.935 -0.6589 -0.2513 -0.4097
11829SOL    HW146706   9.472   0.886   4.974 -0.5949 -0.5220 -0.8845
11829SOL    HW246707   9.612   0.943   4.912 -0.9796 -0.3690 -1.6144
11830SOL     OW46708   9.115   3.704   2.969  0.0682  0.0621  0.3572
11830SOL    HW146709   9.041   3.715   3.035  0.6729 -0.2179  1.0780
11830SOL    HW246710   9.203   3.708   3.016  0.4960 -0.2122 -0.4171
11831SOL     OW46711   2.186   6.800   2.833  0.1562 -0.2275 -0.0197
11831SOL    HW146712   2.139   6.889   2.832  0.2760 -0.1643 -0.6743
11831SOL    HW246713   2.280   6.813   2.863 -0.3947 -0.4427  1.8788
11832SOL     OW46714   6.312   0.455   2.355  0.1811  0.3633  0.0424
11832SOL    HW146715   6.232   0.514   2.340  0.1147  0.3147  0.2031
11832SOL    HW246716   6.382   0.506   2.404  0.9485  0.9566 -1.6340
11833SOL     OW46717   8.926   7.764   6.181 -0.5561 -0.4698  0.2245
11833SOL    HW146718   8.939   7.842   6.242  0.4824 -0.1135 -0.4509
11833SOL    HW246719   8.829   7.739   6.180 -0.9307  0.9453  0.2770
11834SOL     OW46720   9.348   6.645   1.682  0.5330  0.0380 -0.1016
11834SOL    HW146721   9.439   6.643   1.641  0.4745 -0.6139 -0.2066
11834SOL    HW246722   9.356   6.667   1.779  0.6731  1.5533 -0.4436
11835SOL     OW46723   9.213   5.704   1.891  0.1128  0.0615 -0.0757
11835SOL    HW146724   9.186   5.698   1.987  1.1412  0.6456  0.2535
11835SOL    HW246725   9.313   5.707   1.884  0.0163  3.3033 -0.9359
11836SOL     OW46726   0.905   5.888   5.613  0.6168 -0.1223 -0.2917
11836SOL    HW146727   0.982   5.907   5.674  0.5654 -1.9432  0.3557
11836SOL    HW246728   0.819   5.906   5.660  0.5713 -1.7445  0.2797
11837SOL     OW46729   0.088   1.787   5.195 -0.4239  0.4908  0.0383
11837SOL    HW146730   0.033   1.866   5.223 -0.3545  1.4532 -2.3578
11837SOL    HW246731   0.175   1.819   5.158  1.0740 -0.9354  2.2072
11838SOL     OW46732   4.593   3.662   1.874 -0.2008  0.1200  0.6624
11838SOL    HW146733   4.565   3.575   1.914 -0.1386  0.5193  1.5843
11838SOL    HW246734   4.693   3.665   1.868 -0.2337 -0.1415  0.0274
11839SOL     OW46735   9.090   5.164   3.801  0.0761  0.3947 -0.0660
11839SOL    HW146736   9.070   5.118   3.887 -0.9181  0.2040 -0.3865
11839SOL    HW246737   9.150   5.107   3.745 -0.4384 -0.1328 -0.0913
11840SOL     OW46738   7.721   0.698   4.200  0.3704  0.4293 -0.2471
11840SOL    HW146739   7.653   0.759   4.242  1.5595  1.0464  0.8181
11840SOL    HW246740   7.809   0.744   4.197  2.0269 -2.2379  3.3544
11841SOL     OW46741   9.090   3.324   6.223 -0.0876  0.1486  0.0020
11841SOL    HW146742   9.150   3.252   6.187 -1.0069 -0.4831 -0.2928
11841SOL    HW246743   9.130   3.364   6.305  1.4469  0.7413 -1.0103
11842SOL     OW46744   8.170   3.368   0.185  0.7257  0.4549 -0.2395
11842SOL    HW146745   8.156   3.454   0.234 -0.6828  0.4566 -0.6389
11842SOL    HW246746   8.084   3.317   0.180  1.7078 -1.3481  0.6709
11843SOL     OW46747   4.658   2.550   4.416  0.0216  0.4736 -0.4407
11843SOL    HW146748   4.671   2.461   4.460 -0.2232  0.2432 -0.8410
11843SOL    HW246749   4.723   2.560   4.341 -1.1318 -0.0933 -1.5261
11844SOL     OW46750   4.145   3.912   3.645 -0.0886 -0.5218  0.1025
11844SOL    HW146751   4.125   4.008   3.667 -0.6094 -0.8988  1.3332
11844SOL    HW246752   4.243   3.897   3.647  0.0257  0.0712 -0.5113
11845SOL     OW46753   5.022   7.019   1.625 -0.2525 -0.3948 -0.0732
11845SOL    HW146754   4.963   7.028   1.544 -0.6138  0.6935  0.3020
11845SOL    HW246755   5.080   7.100   1.633 -0.8551 -0.0829  1.2489
11846SOL     OW46756   2.966   9.193   1.357 -0.1676  0.6619  0.3952
11846SOL    HW146757   2.958   9.107   1.409 -2.3520 -0.6140 -1.9132
11846SOL    HW246758   3.062   9.216   1.345  0.6570 -3.3987 -1.9157
11847SOL     OW46759   2.811   6.391   4.306  0.1481  0.4003  0.0724
11847SOL    HW146760   2.911   6.393   4.294 -0.1109  1.4525 -2.1642
11847SOL    HW246761   2.785   6.456   4.377  0.8582  2.0568 -1.1527
11848SOL     OW46762   2.619   9.384   5.769 -0.2637 -0.8123  0.1391
11848SOL    HW146763   2.588   9.340   5.853 -0.4481 -1.3628 -0.2064
11848SOL    HW246764   2.541   9.428   5.724 -0.0221  0.1006  0.6272
11849SOL     OW46765   2.096   7.535   6.193 -0.1344 -0.0702 -0.0780
11849SOL    HW146766   2.034   7.456   6.188  0.1035 -0.2943  0.4665
11849SOL    HW246767   2.182   7.506   6.235  0.9183 -0.1169 -2.2487
11850SOL     OW46768   0.272   0.205   2.168  0.2020 -0.0299  0.0032
11850SOL    HW146769   0.199   0.143   2.139  1.7521 -1.1460 -1.6382
11850SOL    HW246770   0.252   0.298   2.134 -0.5517 -0.2808 -0.2607
11851SOL     OW46771   8.558   0.447   5.276  0.0139  0.1867 -0.0047
11851SOL    HW146772   8.537   0.384   5.350 -0.9329 -0.3182 -0.6946
11851SOL    HW246773   8.623   0.404   5.213  0.2191  0.3220  0.1132
11852SOL     OW46774   2.234   0.577   0.960  0.0147 -0.0374 -0.1758
11852SOL    HW146775   2.308   0.542   1.018 -0.8053 -1.2755  0.1485
11852SOL    HW246776   2.226   0.676   0.973  1.6580  0.1267 -0.2767
11853SOL     OW46777   3.303   8.168   4.211 -0.3964 -0.6355 -0.9481
11853SOL    HW146778   3.240   8.113   4.267 -0.0280 -1.3008 -1.1802
11853SOL    HW246779   3.255   8.205   4.133 -0.8010 -0.1036 -0.4512
11854SOL     OW46780   3.430   3.098   4.868  0.2673 -0.4193 -0.3071
11854SOL    HW146781   3.410   3.100   4.770  1.1082  0.1353 -0.4757
11854SOL    HW246782   3.516   3.050   4.884 -0.0422 -0.8109  0.1921
11855SOL     OW46783   2.430   1.327   2.019 -0.4728 -0.5814 -0.0859
11855SOL    HW146784   2.521   1.321   2.059  0.6574 -1.9174 -2.7230
11855SOL    HW246785   2.432   1.392   1.943 -1.5291 -1.1851 -0.6440
11856SOL     OW46786   2.240   7.022   1.214  0.5079  0.6902 -0.3266
11856SOL    HW146787   2.166   7.053   1.273 -0.5714 -0.8336 -0.8212
11856SOL    HW246788   2.238   7.072   1.128 -0.5299  0.0476 -0.6895
11857SOL     OW46789   3.735   9.530   2.682  0.1595 -0.2700 -0.0660
11857SOL    HW146790   3.682   9.454   2.645 -0.8130  1.2610 -1.8831
11857SOL    HW246791   3.731   9.527   2.782 -1.4960 -1.4889 -0.1438
11858SOL     OW46792   7.414   2.276   1.270  0.1086 -0.2312 -0.1122
11858SOL    HW146793   7.452   2.355   1.317  0.6716 -1.1303  0.9774
11858SOL    HW246794   7.469   2.256   1.189 -0.7375  1.1985 -1.0496
11859SOL     OW46795   3.188   3.356   0.096  0.3790  0.1182  0.1735
11859SOL    HW146796   3.159   3.326   0.186 -0.9054 -1.9985 -0.9179
11859SOL    HW246797   3.152   3.294   0.026  3.0522  0.5365 -1.6530
11860SOL     OW46798   8.728   7.340   5.308  0.3450 -0.1017 -0.2019
11860SOL    HW146799   8.778   7.351   5.222 -0.2982 -0.4118 -0.6150
11860SOL    HW246800   8.630   7.353   5.292  0.1247 -1.0551  0.3152
11861SOL     OW46801   1.308   9.088   2.140  0.1581 -0.3213 -0.5348
11861SOL    HW146802   1.230   9.122   2.087 -1.2328 -1.3776  0.8036
11861SOL    HW246803   1.277   9.019   2.205  1.8379  0.8562  1.5940
11862SOL     OW46804   0.432   9.279   2.115  0.1899  0.0062 -0.4305
11862SOL    HW146805   0.458   9.349   2.181 -2.5201 -1.2566  2.1200
11862SOL    HW246806   0.333   9.284   2.099  0.4221 -1.3332 -2.4897
11863SOL     OW46807   9.106   1.502   2.624 -0.0217 -0.0712 -0.4471
11863SOL    HW146808   9.179   1.553   2.577  1.0945 -1.6380 -0.4367
11863SOL    HW246809   9.124   1.501   2.722  0.2297 -0.9285 -0.5028
11864SOL     OW46810   0.242   2.568   4.693 -0.4923 -0.5899 -0.3641
11864SOL    HW146811   0.295   2.651   4.710 -0.3551 -0.7981  0.2207
11864SOL    HW246812   0.302   2.489   4.693 -0.6826 -0.7345 -0.5292
11865SOL     OW46813   0.780   0.536   1.885  0.2884  0.2530  0.6141
11865SOL    HW146814   0.880   0.535   1.883  0.2958 -1.6240  0.2856
11865SOL    HW246815   0.748   0.478   1.960 -0.5515 -0.7580 -0.5129
11866SOL     OW46816   9.071   0.772   2.211 -0.2043 -0.3702  0.3085
11866SOL    HW146817   9.102   0.696   2.154  2.0229 -0.7312  1.9287
11866SOL    HW246818   9.066   0.856   2.156  1.1284 -0.8789 -0.6040
11867SOL     OW46819   7.733   9.103   2.678  0.0689 -0.1778 -0.3375
11867SOL    HW146820   7.698   9.062   2.594  0.7550 -1.9986  0.2262
11867SOL    HW246821   7.802   9.173   2.655 -2.6655  2.2681 -1.3740
11868SOL     OW46822   4.408   3.057   1.504  0.3290 -0.3978 -0.5414
11868SOL    HW146823   4.316   3.076   1.540  0.3221 -0.0169 -0.7527
11868SOL    HW246824   4.407   2.968   1.457  0.0204 -0.3126 -0.7024
11869SOL     OW46825   5.828   0.613   3.570 -0.1967 -0.4986  0.4419
11869SOL    HW146826   5.739   0.576   3.545 -0.9198  0.0215  2.1393
11869SOL    HW246827   5.891   0.603   3.494 -1.7464 -0.7491 -0.8337
11870SOL     OW46828   6.594   4.981   1.157 -0.0919  1.1912  0.2780
11870SOL    HW146829   6.546   5.013   1.075  0.6100 -1.0774 -1.0887
11870SOL    HW246830   6.692   4.989   1.144  0.0027  2.4155  1.6161
11871SOL     OW46831   7.007   2.151   3.470 -0.3631  0.5856  0.8187
11871SOL    HW146832   7.049   2.230   3.427 -1.1191  0.3049 -0.4513
11871SOL    HW246833   6.966   2.178   3.557 -0.7474  1.6257  0.3186
11872SOL     OW46834   2.619   4.729   1.066  0.2548 -0.2679 -0.3292
11872SOL    HW146835   2.597   4.728   0.968 -0.4891  0.5119 -0.1734
11872SOL    HW246836   2.534   4.735   1.119  0.5905 -1.6124  0.3910
11873SOL     OW46837   1.397   1.553   2.340 -0.3356  0.1567 -0.0811
11873SOL    HW146838   1.353   1.468   2.368  0.9984 -0.6309 -0.2998
11873SOL    HW246839   1.485   1.562   2.388 -1.0298  2.0374  0.8969
11874SOL     OW46840   5.470   8.547   1.888 -0.3471  0.4382  0.1039
11874SOL    HW146841   5.549   8.510   1.839  0.6137  1.4440  0.8688
11874SOL    HW246842   5.486   8.644   1.909 -0.9819  0.1721  1.9094
11875SOL     OW46843   3.558   0.565   4.417 -0.1159  0.2591  0.8041
11875SOL    HW146844   3.576   0.466   4.418 -1.6826 -0.0451  1.8284
11875SOL    HW246845   3.586   0.603   4.329  0.9958 -0.9962  0.5868
11876SOL     OW46846   7.685   1.039   5.544  0.5179  0.0979 -0.5904
11876SOL    HW146847   7.618   1.113   5.549  0.8419  0.2550  2.4332
11876SOL    HW246848   7.654   0.969   5.479 -1.4456  1.2350 -0.9129
11877SOL     OW46849   7.582   6.852   4.122  0.2044  0.6875 -0.3218
11877SOL    HW146850   7.497   6.879   4.077  0.1822  0.0903 -0.6478
11877SOL    HW246851   7.614   6.765   4.084  1.4137  1.3281 -0.8097
11878SOL     OW46852   0.816   0.220   5.654  0.7694  0.0774  0.0310
11878SOL    HW146853   0.911   0.245   5.675  0.9505 -2.0615  1.9150
11878SOL    HW246854   0.758   0.301   5.662  2.0562  0.8831  1.4083
11879SOL     OW46855   8.315   0.168   4.450  0.0638  0.1335  0.1844
11879SOL    HW146856   8.269   0.119   4.376  0.2354  0.8490 -0.4044
11879SOL    HW246857   8.363   0.247   4.413 -2.0741  2.0801  1.3881
11880SOL     OW46858   4.517   5.747   1.487  0.3077  0.1054  0.9959
11880SOL    HW146859   4.479   5.838   1.476 -2.5840 -1.0679  0.8328
11880SOL    HW246860   4.480   5.705   1.570 -0.5692 -1.9288 -0.3732
11881SOL     OW46861   2.627   9.799   4.220 -0.6018 -0.2068 -0.2461
11881SOL    HW146862   2.568   9.774   4.143  0.1426 -0.9543 -0.5867
11881SOL    HW246863   2.664   9.891   4.206  0.2506 -0.6825 -1.2497
11882SOL     OW46864   1.162   8.133   0.234  0.4231  0.3511  0.4697
11882SOL    HW146865   1.252   8.136   0.277  1.4436  1.8074 -1.6693
11882SOL    HW246866   1.119   8.223   0.241  0.6084  0.6200 -1.5062
11883SOL     OW46867   4.866   0.916   4.633 -0.2378 -0.0107  0.9069
11883SOL    HW146868   4.860   0.919   4.534 -1.6204 -1.1575  0.9399
11883SOL    HW246869   4.858   0.821   4.664  1.5692  0.1829  2.0416
11884SOL     OW46870   3.834   9.941   1.992 -0.4400 -0.2153  0.2580
11884SOL    HW146871   3.924   9.953   1.950 -0.6321  0.8283  0.1211
11884SOL    HW246872   3.841   9.877   2.068  0.3850 -0.2604  0.1495
11885SOL     OW46873   3.147   7.901   1.358  0.0034 -0.5225 -0.0914
11885SOL    HW146874   3.120   7.904   1.262 -3.2808 -0.4355  0.7709
11885SOL    HW246875   3.226   7.960   1.372 -0.3321  0.5564 -2.4843
11886SOL     OW46876   2.108   9.936   1.220  0.0717  0.2799 -0.1817
11886SOL    HW146877   2.207   9.930   1.211  0.0741  2.0466 -1.6686
11886SOL    HW246878   2.067   9.851   1.185  0.9163  0.9664 -2.9853
11887SOL     OW46879   2.626   5.432   4.158 -0.1591 -0.3051  0.0037
11887SOL    HW146880   2.624   5.472   4.250  0.8374  0.3596 -0.2587
11887SOL    HW246881   2.712   5.383   4.145  0.6863  1.4554 -1.3275
11888SOL     OW46882   7.617   1.333   6.294  0.0171 -0.6698  0.3420
11888SOL    HW146883   7.537   1.393   6.290  0.8463  0.5422  1.2041
11888SOL    HW246884   7.601   1.260   6.360  0.1188  0.3852  1.5683
11889SOL     OW46885   0.711   5.200   5.085 -0.4042 -0.2740 -0.1774
11889SOL    HW146886   0.658   5.278   5.119 -0.9994 -0.8638  0.2698
11889SOL    HW246887   0.799   5.232   5.052 -1.1549  0.7593 -1.2157
11890SOL     OW46888   2.830   1.990   2.791  0.5953 -0.0640 -0.3886
11890SOL    HW146889   2.877   1.903   2.807 -0.7127 -0.5731  0.8564
11890SOL    HW246890   2.868   2.060   2.851 -1.1310 -0.8305  1.7016
11891SOL     OW46891   2.080   2.636   2.055  0.0164 -0.8936 -0.4996
11891SOL    HW146892   2.059   2.654   1.958  0.0864 -1.6935 -0.6659
11891SOL    HW246893   2.070   2.538   2.073 -0.0042 -0.7418  0.3089
11892SOL     OW46894   1.084   4.130   5.148 -0.8775 -0.1348 -0.0363
11892SOL    HW146895   1.086   4.166   5.055 -2.3292  0.4921  0.1582
11892SOL    HW246896   1.082   4.206   5.213  1.3513 -0.5599  0.5562
11893SOL     OW46897   3.730   4.449   0.196  0.1106  0.0299 -0.6640
11893SOL    HW146898   3.706   4.453   0.099  0.2815  0.8888 -0.6700
11893SOL    HW246899   3.740   4.541   0.232 -2.0080 -0.2342  0.6904
11894SOL     OW46900   6.363   9.464   1.792  0.0226  0.9619  0.0335
11894SOL    HW146901   6.310   9.527   1.736  0.1126 -1.6451 -3.1130
11894SOL    HW246902   6.456   9.457   1.757 -0.1108 -1.2392  0.0365
11895SOL     OW46903   8.744   7.087   6.309  0.0973  0.0798  0.5054
11895SOL    HW146904   8.804   7.162   6.338  0.8804 -0.7626  1.0785
11895SOL    HW246905   8.649   7.118   6.312  0.5724  1.9483 -1.9784
11896SOL     OW46906   8.155   9.416   6.036  0.3138 -0.1094  0.0410
11896SOL    HW146907   8.120   9.341   5.980  1.6504 -0.2461 -0.6462
11896SOL    HW246908   8.250   9.397   6.061  0.3704  0.9254  0.6294
11897SOL     OW46909   1.443   5.116   3.052 -0.3733 -0.3008  0.2516
11897SOL    HW146910   1.475   5.123   2.958 -0.2368  1.2171  0.4056
11897SOL    HW246911   1.515   5.074   3.108 -0.1856 -0.5440 -0.1640
11898SOL     OW46912   1.682   6.594   1.635  0.6294 -0.3037  0.1562
11898SOL    HW146913   1.637   6.517   1.592  2.1736 -1.2773  0.2172
11898SOL    HW246914   1.761   6.622   1.580  1.0338  0.1799  0.9694
11899SOL     OW46915   0.297   0.234   1.416 -0.2742 -0.0743  0.3219
11899SOL    HW146916   0.256   0.235   1.507  0.1767  0.6028  0.5231
11899SOL    HW246917   0.371   0.301   1.412  0.9406 -1.4384  0.0157
11900SOL     OW46918   3.767   8.453   4.053  0.2790 -0.4178  0.2471
11900SOL    HW146919   3.784   8.355   4.043  1.4663 -0.2098  0.0743
11900SOL    HW246920   3.669   8.470   4.063 -0.0055 -1.5501 -0.5580
11901SOL     OW46921   4.241   2.781   2.124  0.4899  0.1044  0.1054
11901SOL    HW146922   4.204   2.872   2.107  0.2284  0.1390  0.8420
11901SOL    HW246923   4.292   2.750   2.044  1.0895  1.1438  0.0773
11902SOL     OW46924   0.056   4.451   4.967  0.1651  0.5836 -0.6719
11902SOL    HW146925   0.042   4.375   5.031  0.5767  1.4818  0.4889
11902SOL    HW246926  -0.026   4.462   4.911 -0.0278 -0.5065 -0.6170
11903SOL     OW46927   6.705   0.002   2.480 -0.8433  0.1261  0.0958
11903SOL    HW146928   6.762  -0.028   2.556  0.0005 -0.6277 -0.8254
11903SOL    HW246929   6.641   0.073   2.512  0.0132  0.3561  1.3232
11904SOL     OW46930   3.882   1.459   3.407 -0.2715  0.7145 -0.3245
11904SOL    HW146931   3.949   1.386   3.420 -1.1641  0.4312  3.0817
11904SOL    HW246932   3.815   1.431   3.339 -0.7680 -1.8035  1.1334
11905SOL     OW46933   3.485   1.726   6.643 -0.0513  0.2429 -0.3177
11905SOL    HW146934   3.399   1.773   6.662 -0.2409 -0.1943 -0.0858
11905SOL    HW246935   3.537   1.778   6.575 -1.3072 -0.3972 -1.8016
11906SOL     OW46936   6.583   9.190   4.679  0.1850 -0.2303 -0.4917
11906SOL    HW146937   6.487   9.170   4.658 -0.2672  0.0894  1.1944
11906SOL    HW246938   6.615   9.130   4.752  0.3288  1.7151  1.0838
11907SOL     OW46939   4.484   0.809   4.712  0.1155  0.4465 -0.5247
11907SOL    HW146940   4.549   0.830   4.639  0.1081  0.3895 -0.5485
11907SOL    HW246941   4.483   0.710   4.728 -0.4811  0.3754 -1.0028
11908SOL     OW46942   5.408   8.047   5.088  0.1778  0.3964 -0.4500
11908SOL    HW146943   5.368   7.964   5.050 -2.0617  0.5467  1.4981
11908SOL    HW246944   5.487   8.023   5.144  0.6372 -0.2278 -1.3390
11909SOL     OW46945   8.766   9.523   4.953  0.0503  0.1002  0.0735
11909SOL    HW146946   8.862   9.529   4.978  0.3048  0.6231 -0.9686
11909SOL    HW246947   8.742   9.428   4.933  0.6144  0.1062 -0.6523
11910SOL     OW46948   8.067   0.277   2.651 -0.1191 -0.5892  0.7639
11910SOL    HW146949   8.073   0.316   2.559  3.5363  0.0020  1.1811
11910SOL    HW246950   7.995   0.323   2.702  0.1335  1.5065 -0.7047
11911SOL     OW46951   3.379   7.396   3.696 -0.0086 -0.4727 -0.0373
11911SOL    HW146952   3.317   7.361   3.767  2.5919 -1.2878  1.9226
11911SOL    HW246953   3.347   7.485   3.665 -0.0193  0.9553  3.8029
11912SOL     OW46954   9.335   7.711   2.294  0.0505  0.5307  0.5398
11912SOL    HW146955   9.369   7.727   2.387  0.7801  1.1485  0.1781
11912SOL    HW246956   9.241   7.743   2.287  0.2976  1.3374  0.8181
11913SOL     OW46957   2.423   9.273   2.871 -0.0877 -0.1094  0.2061
11913SOL    HW146958   2.418   9.372   2.855 -0.0769 -0.1135  0.1768
11913SOL    HW246959   2.513   9.250   2.907  0.0042 -0.1432 -0.0426
11914SOL     OW46960   3.957   7.642   5.672 -0.1411  0.2429  0.0532
11914SOL    HW146961   4.044   7.601   5.645  0.6239  1.4321  0.6752
11914SOL    HW246962   3.887   7.571   5.677  1.2736 -1.0727  1.6212
11915SOL     OW46963   8.835   9.540   2.492 -0.8122 -0.2291  0.3089
11915SOL    HW146964   8.906   9.563   2.558  1.0313 -1.4379 -1.1954
11915SOL    HW246965   8.769   9.477   2.533 -1.8718  2.0151  2.1664
11916SOL     OW46966   4.712   0.602   2.205  0.5009  0.3973 -0.8856
11916SOL    HW146967   4.651   0.678   2.182  0.9809  0.5226 -1.7617
11916SOL    HW246968   4.807   0.630   2.192  0.7577  0.2387  0.5820
11917SOL     OW46969   7.947   8.775   3.554  0.3291 -0.3224  0.2120
11917SOL    HW146970   8.036   8.739   3.583  0.1328 -0.5470  0.5248
11917SOL    HW246971   7.957   8.871   3.528  0.7231 -0.4281 -0.0287
11918SOL     OW46972   8.713   2.983   6.203  0.0901 -0.2532  0.0530
11918SOL    HW146973   8.652   2.966   6.280  0.0497  0.9743  0.3019
11918SOL    HW246974   8.675   3.055   6.145 -0.6421 -2.2143 -1.9845
11919SOL     OW46975   0.399   1.458   4.865  0.5436 -0.1308  0.1851
11919SOL    HW146976   0.319   1.518   4.861  0.3739 -0.4079 -0.7076
11919SOL    HW246977   0.423   1.440   4.961  0.0583  0.6369  0.4543
11920SOL     OW46978   9.352   3.097   0.645 -0.4330  0.1158  0.0934
11920SOL    HW146979   9.265   3.143   0.659  0.3456  1.9738 -0.9454
11920SOL    HW246980   9.427   3.161   0.664  0.6885 -1.2670  0.3643
11921SOL     OW46981   1.459   6.746   4.293  0.0097  0.2892  0.6062
11921SOL    HW146982   1.392   6.692   4.243  0.6345 -0.5744  0.6787
11921SOL    HW246983   1.418   6.781   4.377  0.2954 -2.2233  1.8603
11922SOL     OW46984   6.133   9.766   5.451  0.3833  0.1467  0.4623
11922SOL    HW146985   6.170   9.805   5.367  0.3496 -0.9093 -0.0402
11922SOL    HW246986   6.207   9.753   5.518  0.7280 -0.8423 -0.1073
11923SOL     OW46987   1.789   3.205   6.208  0.0814  0.0380  0.0224
11923SOL    HW146988   1.826   3.294   6.181  1.2051 -0.2397  0.6146
11923SOL    HW246989   1.809   3.189   6.305  0.2793 -1.0464 -0.1978
11924SOL     OW46990   8.525   3.210   3.953 -0.1344  0.2978 -0.1785
11924SOL    HW146991   8.530   3.310   3.948  2.0417  0.2469  0.1184
11924SOL    HW246992   8.618   3.173   3.952 -0.9058 -1.6933  0.2622
11925SOL     OW46993   7.246   2.302   1.981  0.9260 -0.0311  0.6505
11925SOL    HW146994   7.207   2.391   1.959  2.1877  0.6126  0.9888
11925SOL    HW246995   7.346   2.305   1.970  0.8936 -1.6876 -0.3403
11926SOL     OW46996   7.634   3.735   4.315 -0.6541  0.1496 -0.6114
11926SOL    HW146997   7.607   3.643   4.287  0.5538 -0.2411 -0.5064
11926SOL    HW246998   7.598   3.802   4.249 -1.8450 -0.3475 -0.4893
11927SOL     OW46999   9.826   7.553   5.691  0.6177 -0.1513 -0.3239
11927SOL    HW147000   9.755   7.619   5.667  0.5072 -0.3738 -0.6141
11927SOL    HW247001   9.855   7.568   5.786  0.2584  0.0064 -0.2383
11928SOL     OW47002   4.618   5.943   2.823 -0.0876  0.0788  0.6642
11928SOL    HW147003   4.533   5.967   2.777  0.6502  0.1736 -0.6893
11928SOL    HW247004   4.617   5.977   2.917 -1.9328 -0.7788  0.9745
11929SOL     OW47005   3.237   3.187   3.446  0.4409 -0.3546  0.7670
11929SOL    HW147006   3.285   3.123   3.506  0.5738  0.2582  1.3176
11929SOL    HW247007   3.240   3.279   3.485 -0.8542 -0.2359  0.6176
11930SOL     OW47008   1.907   8.011   4.412  1.0789  0.3882  0.1143
11930SOL    HW147009   1.869   7.973   4.496  1.8845 -0.2930  0.1728
11930SOL    HW247010   1.906   7.941   4.341  1.4607  0.6180 -0.1166
11931SOL     OW47011   1.113   1.952   4.991  0.3394 -0.0162 -0.2217
11931SOL    HW147012   1.031   2.009   4.992  0.4316  0.1574  2.8576
11931SOL    HW247013   1.175   1.983   4.919 -0.7508  2.1198 -0.2775
11932SOL     OW47014   2.733   8.205   1.187  0.3100  0.0922  0.2921
11932SOL    HW147015   2.714   8.227   1.092 -1.5372 -0.9621  0.3919
11932SOL    HW247016   2.741   8.106   1.198  0.7124  0.2146  1.2022
11933SOL     OW47017   2.306   7.632   0.508 -0.6417 -0.4751  0.4563
11933SOL    HW147018   2.343   7.724   0.496 -0.9055 -0.4346 -0.0932
11933SOL    HW247019   2.255   7.627   0.594 -1.0948  0.0468  0.2214
11934SOL     OW47020   2.413   3.774   1.000 -0.1961 -0.4715  0.0743
11934SOL    HW147021   2.344   3.754   1.069  0.3797 -0.8828  0.5402
11934SOL    HW247022   2.476   3.843   1.035 -0.1319 -0.4017 -0.1832
11935SOL     OW47023   9.432   7.606   0.227 -0.0448 -0.2517  0.3833
11935SOL    HW147024   9.516   7.577   0.272 -0.2474 -2.1095 -0.3820
11935SOL    HW247025   9.444   7.697   0.188  1.9987 -0.9628 -0.7305
11936SOL     OW47026   9.248   1.956   1.663 -0.3760  0.6887  0.1087
11936SOL    HW147027   9.185   1.878   1.654 -2.0211  1.8491  1.2427
11936SOL    HW247028   9.335   1.924   1.701 -0.9452 -0.6529  0.3231
11937SOL     OW47029   9.873   5.527   5.930  0.3177  0.1596  0.4260
11937SOL    HW147030   9.897   5.597   5.997  2.3429  0.8153 -0.9535
11937SOL    HW247031   9.900   5.437   5.964 -0.0749  0.3063  1.1375
11938SOL     OW47032   9.329   0.237   2.302  0.2944 -0.0041 -0.1207
11938SOL    HW147033   9.335   0.191   2.214 -2.1491  1.2230 -0.9735
11938SOL    HW247034   9.234   0.261   2.321  0.6804 -0.9003  3.2019
11939SOL     OW47035   9.095   4.719   3.199  0.2318  0.3592 -0.1320
11939SOL    HW147036   9.166   4.774   3.154  1.4485 -1.2450 -0.2225
11939SOL    HW247037   9.027   4.692   3.131  1.2914 -0.8324 -0.7445
11940SOL     OW47038   4.907   4.656   0.714  0.5239 -0.0715 -0.0166
11940SOL    HW147039   4.961   4.588   0.664 -0.0111 -0.4963 -0.0210
11940SOL    HW247040   4.932   4.747   0.683 -0.6746 -0.3854 -1.9406
11941SOL     OW47041   7.939   4.018   4.466  0.0729  0.6696  0.2333
11941SOL    HW147042   7.884   3.935   4.478  0.7703  0.1731 -0.0053
11941SOL    HW247043   8.029   3.994   4.429  0.4177  1.4956  0.5233
11942SOL     OW47044   3.225   7.646   3.971 -0.1685  0.3387  0.4137
11942SOL    HW147045   3.180   7.680   4.054  0.4801 -1.4787  1.5406
11942SOL    HW247046   3.303   7.705   3.950  1.4624 -0.8230  2.8439
11943SOL     OW47047   0.890   9.509   1.995 -0.1537  0.8639  0.2456
11943SOL    HW147048   0.850   9.598   1.974 -0.3288  0.8840  0.6666
11943SOL    HW247049   0.818   9.445   2.021  0.0354  0.7734  0.5506
11944SOL     OW47050   5.258   9.342   3.078 -0.1661  0.3032 -0.4754
11944SOL    HW147051   5.302   9.340   3.168 -1.3635  0.5778  0.1249
11944SOL    HW247052   5.288   9.263   3.025 -2.6030 -2.1555  1.6874
11945SOL     OW47053   4.636   2.831   5.056 -0.0191 -0.1705 -0.3206
11945SOL    HW147054   4.608   2.926   5.042  0.7408  0.2198  0.6853
11945SOL    HW247055   4.632   2.782   4.969  0.4635  1.0182 -1.0339
11946SOL     OW47056   8.994   6.988   2.484 -0.1895 -0.2243  0.7620
11946SOL    HW147057   9.013   6.920   2.555  0.9128 -2.0298 -1.1911
11946SOL    HW247058   9.004   6.945   2.394 -1.4585  2.0361 -0.4898
11947SOL     OW47059   0.998   2.931   5.447 -0.6636  0.1576  0.5066
11947SOL    HW147060   1.068   2.970   5.508  1.6907 -2.8805 -0.1311
11947SOL    HW247061   0.910   2.927   5.496  0.2305  1.5578  2.2846
11948SOL     OW47062   4.249   4.550   1.880 -0.6810  0.1752  0.3180
11948SOL    HW147063   4.181   4.477   1.888  1.4983 -2.0210 -0.4784
11948SOL    HW247064   4.284   4.573   1.970  0.6489 -1.8132  0.3447
11949SOL     OW47065   2.960   6.135   2.629  0.0990 -0.5765 -0.1695
11949SOL    HW147066   3.008   6.051   2.656 -0.3944  0.1033  2.9501
11949SOL    HW247067   3.023   6.212   2.635 -0.5368 -0.1392  0.9080
11950SOL     OW47068   0.350   9.599   6.127  0.1931 -0.3894 -0.6483
11950SOL    HW147069   0.433   9.595   6.072  2.2920  0.2143  2.3475
11950SOL    HW247070   0.368   9.561   6.218 -2.0682  2.0133  0.8937
11951SOL     OW47071   8.762   5.593   1.884  0.3909  0.1814 -0.3626
11951SOL    HW147072   8.838   5.594   1.949 -0.3724 -1.9137  0.5910
11951SOL    HW247073   8.748   5.686   1.849  0.7358  1.4063  2.5598
11952SOL     OW47074   1.284   7.133   5.631  0.4905 -0.4187  0.5367
11952SOL    HW147075   1.312   7.078   5.709 -1.1074  0.4073  1.7170
11952SOL    HW247076   1.359   7.195   5.606  0.8720 -0.4290  1.6366
11953SOL     OW47077   7.435   0.394   2.701  0.1270 -0.6950  0.2880
11953SOL    HW147078   7.424   0.450   2.783  1.7679 -0.6222  0.4814
11953SOL    HW247079   7.488   0.445   2.633 -0.8103 -0.9401 -0.6382
11954SOL     OW47080   0.965   5.781   3.410 -0.0172  0.1339 -0.3023
11954SOL    HW147081   0.916   5.854   3.458  0.1694 -0.3517  0.6414
11954SOL    HW247082   0.903   5.705   3.393 -0.7866  1.3593 -3.2186
11955SOL     OW47083   0.100   1.883   6.030 -0.3521  0.3010 -0.2088
11955SOL    HW147084   0.103   1.785   6.049 -0.2896  0.5347  1.0372
11955SOL    HW247085   0.177   1.908   5.972 -0.4796 -0.4194 -0.6991
11956SOL     OW47086   0.665   5.391   4.349 -0.8313  0.3924 -0.2271
11956SOL    HW147087   0.595   5.320   4.338  0.1733 -0.7678  0.6915
11956SOL    HW247088   0.756   5.348   4.345 -0.2317  1.4628  1.4768
11957SOL     OW47089   0.472   2.083   5.000 -0.0370 -0.0386  0.4358
11957SOL    HW147090   0.525   2.071   4.917  1.3716  0.3604  1.2615
11957SOL    HW247091   0.496   2.170   5.043 -0.2185 -0.5607  1.6248
11958SOL     OW47092   6.872   1.044   0.593  0.1918  0.1654 -0.4892
11958SOL    HW147093   6.879   1.016   0.497  0.0494  0.4830 -0.5959
11958SOL    HW247094   6.889   0.966   0.652  0.2826 -0.0327 -0.7754
11959SOL     OW47095   3.927   9.516   1.692  0.3489 -0.7159  0.1830
11959SOL    HW147096   3.832   9.512   1.660 -0.4500  1.3816  2.1518
11959SOL    HW247097   3.967   9.425   1.689 -1.4608 -1.4978 -1.4653
11960SOL     OW47098   9.309   6.391   0.802  0.0372 -0.0751 -0.0463
11960SOL    HW147099   9.293   6.422   0.896 -0.7874 -1.1530  0.1680
11960SOL    HW247100   9.406   6.405   0.780  0.2784  0.0320  1.0173
11961SOL     OW47101   1.707   5.112   5.097 -0.1205  0.1409 -0.1627
11961SOL    HW147102   1.648   5.118   5.017  0.0019  0.0947 -0.2560
11961SOL    HW247103   1.699   5.022   5.138 -0.9121  0.4723  0.4344
11962SOL     OW47104   3.456   7.179   6.295 -0.2475  0.2237  0.0633
11962SOL    HW147105   3.412   7.238   6.227  0.3181 -1.0998 -1.4560
11962SOL    HW247106   3.387   7.147   6.360 -0.9670  0.6813 -0.4627
11963SOL     OW47107   9.631   7.406   5.105  0.1290  0.3193  0.7845
11963SOL    HW147108   9.558   7.473   5.120 -2.5332 -2.3189  0.1446
11963SOL    HW247109   9.672   7.381   5.193 -0.7948  0.6858  1.3262
11964SOL     OW47110   9.467   3.530   3.939 -0.5480  0.7097 -0.0193
11964SOL    HW147111   9.539   3.596   3.959  0.6681 -0.4595 -0.4474
11964SOL    HW247112   9.378   3.568   3.965  0.4747  1.1645  2.9617
11965SOL     OW47113   7.983   8.530   2.771 -0.2452  0.0042 -0.2662
11965SOL    HW147114   7.990   8.625   2.739  1.4791  0.1960  0.6616
11965SOL    HW247115   7.914   8.482   2.717 -1.0414  1.7485 -0.8334
11966SOL     OW47116   8.232   6.588   5.929  0.2842  0.5149  0.8015
11966SOL    HW147117   8.221   6.519   5.857  1.4303  0.5464  0.5814
11966SOL    HW247118   8.182   6.671   5.903  0.9157  0.6261 -0.1004
11967SOL     OW47119   8.766   2.262   6.209 -0.1401 -0.4625 -0.2908
11967SOL    HW147120   8.746   2.338   6.271  1.0163 -1.4812  1.3670
11967SOL    HW247121   8.819   2.296   6.131 -0.4976  0.6007 -0.0872
11968SOL     OW47122   6.875   1.456   0.215 -0.1091  0.7896  0.0480
11968SOL    HW147123   6.779   1.458   0.186  0.0093  1.7475 -0.3205
11968SOL    HW247124   6.881   1.422   0.308 -0.7808  0.4007 -0.0456
11969SOL     OW47125   5.213   8.990   2.070  0.1139 -0.7964 -0.1116
11969SOL    HW147126   5.247   8.910   2.021 -2.1744 -2.1705  0.4971
11969SOL    HW247127   5.218   8.974   2.168  0.2187  0.0687  0.0313
11970SOL     OW47128   8.136   1.893   2.576  0.3649 -0.5000 -0.1050
11970SOL    HW147129   8.140   1.878   2.675  2.3006  0.9763  0.0580
11970SOL    HW247130   8.089   1.979   2.558 -0.1504 -0.8600 -0.4955
11971SOL     OW47131   9.729   8.436   2.703 -0.2837  0.6286  0.1924
11971SOL    HW147132   9.807   8.375   2.689 -0.5866  0.3293 -0.1863
11971SOL    HW247133   9.757   8.512   2.762  0.4749  0.8663 -0.4548
11972SOL     OW47134   2.282   9.010   0.799 -0.2560  0.6033  0.3175
11972SOL    HW147135   2.321   8.971   0.883 -0.0405 -1.0407 -0.5242
11972SOL    HW247136   2.205   8.954   0.769  1.1907 -0.2561 -1.9185
11973SOL     OW47137   5.653   0.870   3.425 -0.2500  0.3459 -0.6174
11973SOL    HW147138   5.560   0.840   3.402 -1.3154  1.4382  2.0457
11973SOL    HW247139   5.699   0.797   3.476 -0.3918  0.5996 -0.1256
11974SOL     OW47140   9.679   6.170   1.627 -0.2995 -0.1234 -0.2302
11974SOL    HW147141   9.588   6.209   1.636  0.3823  1.4738 -0.1273
11974SOL    HW247142   9.726   6.173   1.715  0.8806  1.7187 -0.8761
11975SOL     OW47143   8.158   4.028   3.009  0.1073  0.2921  0.1424
11975SOL    HW147144   8.235   3.991   3.061 -0.6122 -3.5015 -1.3105
11975SOL    HW247145   8.178   4.121   2.980  3.8525 -0.3699  0.4191
11976SOL     OW47146   9.158   2.198   3.493  0.3182  0.1884  0.2373
11976SOL    HW147147   9.199   2.201   3.402 -1.5231 -2.7578 -0.7672
11976SOL    HW247148   9.194   2.119   3.543 -0.0684  0.7374  1.4144
11977SOL     OW47149   4.241   0.707   2.715  0.3265 -0.1536 -0.2871
11977SOL    HW147150   4.216   0.706   2.812 -3.0602  3.0182 -1.0319
11977SOL    HW247151   4.177   0.650   2.663 -0.6810  1.7886 -1.2197
11978SOL     OW47152   0.766   6.284   4.981 -0.0678  0.1927 -0.2162
11978SOL    HW147153   0.820   6.204   4.954  0.2748  0.3245  0.0784
11978SOL    HW247154   0.799   6.365   4.932  1.1452  0.6035  1.2579
11979SOL     OW47155   0.785   8.991   6.113 -0.0914 -0.1251 -0.2011
11979SOL    HW147156   0.688   8.979   6.134 -0.5937  0.6985 -1.9076
11979SOL    HW247157   0.802   9.087   6.088  0.6527 -0.7947 -2.3954
11980SOL     OW47158   7.529   7.822   2.843  0.0493 -0.0978 -0.2982
11980SOL    HW147159   7.530   7.724   2.862  0.7824 -0.1726 -0.6691
11980SOL    HW247160   7.623   7.854   2.831 -0.2648  0.3675 -1.5885
11981SOL     OW47161   1.956   7.658   5.097  0.5777 -0.5952  0.0942
11981SOL    HW147162   1.970   7.607   5.182  0.6980 -0.4136  0.1842
11981SOL    HW247163   1.926   7.751   5.118  1.5217 -0.2557 -0.0345
11982SOL     OW47164   9.194   8.589   6.119  0.6180 -0.0203  0.1475
11982SOL    HW147165   9.155   8.497   6.129 -1.4729  1.0169  1.9548
11982SOL    HW247166   9.254   8.591   6.039 -2.9849 -1.7330 -2.7614
11983SOL     OW47167   3.756   8.945   4.893  0.3946  0.4288 -0.2821
11983SOL    HW147168   3.667   8.988   4.908 -0.5617 -1.3041 -0.7831
11983SOL    HW247169   3.788   8.965   4.800  0.2371  0.5525 -0.3099
11984SOL     OW47170   8.527   9.016   1.386  0.5186 -0.5463  0.1427
11984SOL    HW147171   8.560   9.088   1.325  1.3521  0.0594  1.2988
11984SOL    HW247172   8.432   8.995   1.364  0.6276  0.0711 -0.9799
11985SOL     OW47173   2.973   6.783   6.051  0.2338 -0.1028 -0.0250
11985SOL    HW147174   2.933   6.739   6.132  1.6138 -1.1321  0.1177
11985SOL    HW247175   3.034   6.856   6.079  0.8994 -0.6196 -0.1263
11986SOL     OW47176   2.975   0.912   2.576 -0.4370  0.5169  0.0954
11986SOL    HW147177   3.033   0.833   2.555 -1.1828  0.0795 -0.3470
11986SOL    HW247178   3.027   0.996   2.562  0.3863  0.1080  0.6396
11987SOL     OW47179   8.541   6.835   0.593 -0.1360  0.1055  0.3802
11987SOL    HW147180   8.566   6.897   0.667  2.5509 -0.2799 -0.1195
11987SOL    HW247181   8.615   6.835   0.524 -1.5996 -1.1385 -1.2366
11988SOL     OW47182   4.189   9.316   5.581  0.1602  0.1337  0.1303
11988SOL    HW147183   4.224   9.228   5.612  3.7195  1.2057 -0.6739
11988SOL    HW247184   4.177   9.376   5.660 -1.8972 -0.8900  0.6357
11989SOL     OW47185   1.848   4.995   0.349 -0.3502 -1.0093  0.3462
11989SOL    HW147186   1.873   5.078   0.398 -0.5945 -0.8192  0.1519
11989SOL    HW247187   1.749   4.996   0.331 -0.1126 -0.5973 -1.0315
11990SOL     OW47188   8.441   9.622   5.825  0.3919 -0.8552  0.2870
11990SOL    HW147189   8.425   9.667   5.913 -0.7760 -0.8937  0.0907
11990SOL    HW247190   8.512   9.672   5.776  0.0099  0.0295  0.6237
11991SOL     OW47191   8.040   8.672   5.010 -0.8900 -0.7039 -0.1809
11991SOL    HW147192   8.021   8.587   5.060  0.9161 -0.4275  1.0201
11991SOL    HW247193   8.138   8.677   4.989 -1.1289  0.6705 -1.0269
11992SOL     OW47194   1.835   6.414   2.526  0.2547 -1.1244  0.0995
11992SOL    HW147195   1.912   6.353   2.506  1.5023 -0.0598  1.5587
11992SOL    HW247196   1.861   6.508   2.505 -1.1985 -0.9303 -0.8573
11993SOL     OW47197   8.343   5.884   1.563 -0.0363  0.2156  0.4232
11993SOL    HW147198   8.288   5.960   1.598  0.7782  0.0475  2.1252
11993SOL    HW247199   8.413   5.860   1.630 -0.2420 -1.9885 -0.1091
11994SOL     OW47200   2.982   9.295   3.975 -0.5658  0.3795  0.1226
11994SOL    HW147201   2.958   9.324   3.882 -0.2206  1.3511  0.3353
11994SOL    HW247202   3.068   9.337   4.002 -1.2708  1.0549  1.3329
11995SOL     OW47203   9.244   3.793   1.763  0.6717 -0.2243 -0.5544
11995SOL    HW147204   9.191   3.709   1.766  0.6142 -0.1360  0.8681
11995SOL    HW247205   9.183   3.871   1.748  0.7016 -0.4056 -1.6592
11996SOL     OW47206   2.965   5.694   1.487  0.3949 -0.1472 -0.5250
11996SOL    HW147207   2.981   5.597   1.505  1.2709 -0.0524 -0.7692
11996SOL    HW247208   2.934   5.739   1.571  1.7365 -0.2730  0.0549
11997SOL     OW47209   1.655   7.443   3.609 -0.1119 -0.1309 -0.0191
11997SOL    HW147210   1.577   7.440   3.672  0.5724 -0.9618  0.8040
11997SOL    HW247211   1.715   7.518   3.635 -1.2536  1.3196 -1.4267
11998SOL     OW47212   2.392   4.081   4.695 -0.0643 -0.1257 -0.1672
11998SOL    HW147213   2.370   4.178   4.703 -1.7691 -0.3344 -2.0855
11998SOL    HW247214   2.457   4.067   4.621 -1.8484 -0.7241 -1.6432
11999SOL     OW47215   9.252   0.634   3.234  0.4714  0.4846 -0.0147
11999SOL    HW147216   9.187   0.692   3.283  0.1908  1.1839 -1.1893
11999SOL    HW247217   9.217   0.540   3.229  0.4237  0.4528  0.9632
12000SOL     OW47218   1.995   5.428   3.068  0.5431  0.3687  0.5696
12000SOL    HW147219   1.937   5.350   3.049  0.7488  0.3194  0.1534
12000SOL    HW247220   1.991   5.450   3.166  3.2602 -2.4044  1.3843
12001SOL     OW47221   9.792   6.296   2.730  0.6249 -0.1941 -0.2538
12001SOL    HW147222   9.814   6.294   2.633  0.0696 -1.2381 -0.3600
12001SOL    HW247223   9.830   6.215   2.775 -0.8317 -0.7325  0.0221
12002SOL     OW47224   4.972   0.285   6.210  0.2429  0.5640  0.2133
12002SOL    HW147225   4.874   0.292   6.229 -0.0706 -1.7538 -0.3485
12002SOL    HW247226   5.011   0.376   6.197 -1.6938  1.5421  1.1299
12003SOL     OW47227   8.982   5.315   2.757 -0.4957  0.1831  0.5307
12003SOL    HW147228   8.897   5.366   2.759  0.6224  2.0705  0.6514
12003SOL    HW247229   9.020   5.309   2.849 -0.0786  0.0438  0.3538
12004SOL     OW47230   8.073   2.367   4.259  0.2920 -0.1089  0.7359
12004SOL    HW147231   8.138   2.362   4.184 -0.8149  0.9321 -0.3238
12004SOL    HW247232   7.980   2.350   4.225 -0.3266  1.2169  1.6868
12005SOL     OW47233   9.407   2.123   4.156 -0.3285 -0.4113 -0.2502
12005SOL    HW147234   9.456   2.173   4.227 -1.4131 -2.2555  1.8806
12005SOL    HW247235   9.460   2.043   4.128 -0.6683 -0.6367 -0.2595
12006SOL     OW47236   4.740   4.565   3.007 -0.0261 -0.2348  0.1949
12006SOL    HW147237   4.741   4.519   2.918 -0.9652  0.3063 -0.0969
12006SOL    HW247238   4.676   4.641   3.004  1.0489  0.7117  0.8716
12007SOL     OW47239   1.897   6.070   3.938 -0.0776 -0.1647  0.4527
12007SOL    HW147240   1.855   6.157   3.914  2.2376  1.3912  1.7512
12007SOL    HW247241   1.887   6.054   4.036  1.3178 -0.3150  0.5811
12008SOL     OW47242   2.858   1.572   1.540 -0.2482 -0.0841 -0.5859
12008SOL    HW147243   2.862   1.592   1.442  0.3966  0.5053 -0.4503
12008SOL    HW247244   2.951   1.568   1.577 -0.4120 -1.9162 -0.3057
12009SOL     OW47245   8.209   3.978   4.352  0.3589  0.3614  0.2801
12009SOL    HW147246   8.234   3.963   4.256  0.3905  2.2644 -0.0319
12009SOL    HW247247   8.244   3.903   4.408  0.5303 -0.6592 -1.1562
12010SOL     OW47248   9.268   4.811   0.773  0.0666 -0.0429 -0.0060
12010SOL    HW147249   9.313   4.865   0.702 -0.1639  0.8502  0.5208
12010SOL    HW247250   9.218   4.872   0.835 -2.3634 -1.0456 -0.9223
12011SOL     OW47251   8.714   1.548   3.677  0.1086  0.4109 -0.3011
12011SOL    HW147252   8.784   1.615   3.652 -0.4144  0.6797 -1.0721
12011SOL    HW247253   8.625   1.593   3.682 -0.1721 -0.1334 -0.3387
12012SOL     OW47254   9.024   6.333   0.057  0.1951 -0.2053 -0.4926
12012SOL    HW147255   9.000   6.340   0.154 -0.9543  0.2299 -0.8045
12012SOL    HW247256   8.954   6.280   0.009  0.0264  0.7647 -1.3423
12013SOL     OW47257   8.737   2.990   2.604 -0.1835 -0.0945 -0.4361
12013SOL    HW147258   8.823   2.939   2.597  0.2123  0.5728 -0.4234
12013SOL    HW247259   8.665   2.941   2.554 -0.1934 -1.5159  0.9441
12014SOL     OW47260   7.155   1.688   2.758 -0.2382  0.1023  0.0975
12014SOL    HW147261   7.218   1.765   2.765  0.3878 -0.3651 -0.3589
12014SOL    HW247262   7.187   1.624   2.688 -3.4522  1.9429 -3.2226
12015SOL     OW47263   1.133   4.094   3.150  0.2873  0.0280  0.6957
12015SOL    HW147264   1.179   4.063   3.233  0.7734 -2.7632 -0.5602
12015SOL    HW247265   1.103   4.015   3.097  0.8739  1.7420 -2.3084
12016SOL     OW47266   2.396   6.138   6.418 -0.1862 -0.2752 -0.1441
12016SOL    HW147267   2.435   6.149   6.510  0.6960 -5.5038  0.2426
12016SOL    HW247268   2.301   6.167   6.418 -0.4692 -1.0946  2.6734
12017SOL     OW47269   8.402   2.239   1.277 -0.4699 -0.1246  0.5699
12017SOL    HW147270   8.450   2.230   1.190 -1.0621  0.8075  0.1380
12017SOL    HW247271   8.402   2.151   1.324 -0.7919 -0.8269 -0.7093
12018SOL     OW47272   3.378   7.865   4.749 -0.6320  0.2434  0.5178
12018SOL    HW147273   3.432   7.820   4.678 -1.2075  2.1782 -1.2074
12018SOL    HW247274   3.348   7.797   4.816  1.0587 -1.4053 -0.3350
12019SOL     OW47275   3.381   0.214   1.594 -0.1483 -0.0098  0.6596
12019SOL    HW147276   3.324   0.295   1.591  0.2466  0.2802  0.9726
12019SOL    HW247277   3.361   0.156   1.514  1.1919  1.5132 -0.8287
12020SOL     OW47278   3.945   1.437   5.847  0.4456 -0.3740 -0.2265
12020SOL    HW147279   3.987   1.518   5.888 -1.1451  0.6320 -0.5552
12020SOL    HW247280   3.971   1.356   5.899  1.8477  0.3642  0.2528
12021SOL     OW47281   2.868   3.180   1.032 -0.4218 -0.6832 -0.2163
12021SOL    HW147282   2.848   3.083   1.016 -0.0888 -0.4904 -1.8323
12021SOL    HW247283   2.782   3.231   1.039 -0.5843 -0.9355 -0.3728
12022SOL     OW47284   1.136   6.372   3.576  0.3944 -0.2966  0.6455
12022SOL    HW147285   1.213   6.403   3.632 -0.2963  0.4826  1.1608
12022SOL    HW247286   1.086   6.301   3.624  0.0027  0.1329  0.8713
12023SOL     OW47287   5.009   8.947   2.504  0.4536  0.0282  0.2641
12023SOL    HW147288   5.018   9.034   2.552  0.7743 -1.2372  2.5799
12023SOL    HW247289   4.918   8.908   2.523  0.6875 -0.6125  0.0825
12024SOL     OW47290   5.727   8.992   6.087  0.0896 -0.3071 -0.6095
12024SOL    HW147291   5.800   8.991   6.155 -0.3186 -0.7334 -0.1786
12024SOL    HW247292   5.677   8.906   6.090 -0.3065 -0.0936 -1.0411
12025SOL     OW47293   8.885   6.532   1.901 -0.1073 -0.0481 -0.4108
12025SOL    HW147294   8.837   6.580   1.827  0.2565  1.4473  0.3089
12025SOL    HW247295   8.825   6.463   1.941 -0.2402 -1.0068 -2.2302
12026SOL     OW47296   4.116   1.463   6.625  0.5581 -0.1262 -0.0202
12026SOL    HW147297   4.061   1.443   6.543  0.4868  0.0949 -0.0251
12026SOL    HW247298   4.057   1.500   6.697  0.8661  1.0683 -0.3676
12027SOL     OW47299   2.587   6.002   1.434 -0.3140  0.0733  0.4328
12027SOL    HW147300   2.556   5.981   1.341 -0.0539  1.1748  0.0849
12027SOL    HW247301   2.520   5.967   1.500 -0.8460 -0.1163 -0.1971
12028SOL     OW47302   8.077   0.428   1.867  0.9261  0.4885  0.5483
12028SOL    HW147303   8.022   0.349   1.895 -1.1218  0.9780 -1.9266
12028SOL    HW247304   8.147   0.446   1.936 -0.0541 -2.0534  2.2732
12029SOL     OW47305   9.242   5.762   4.234  0.1142  0.1220 -0.0485
12029SOL    HW147306   9.211   5.676   4.195  0.4240 -0.1129  0.2186
12029SOL    HW247307   9.320   5.797   4.182  0.6589 -0.2974  0.4888
12030SOL     OW47308   9.868   2.771   6.636  0.1381  0.3576 -0.3816
12030SOL    HW147309   9.949   2.789   6.690 -0.0948  0.5352 -0.0901
12030SOL    HW247310   9.842   2.675   6.647 -0.3851  0.5919  0.4756
12031SOL     OW47311   5.395   3.161   3.955  0.3001 -0.4407  0.7191
12031SOL    HW147312   5.432   3.073   3.986  3.2697  0.2517 -0.7075
12031SOL    HW247313   5.465   3.211   3.905 -1.9573  1.9323 -0.1830
12032SOL     OW47314   9.856   9.457   0.993 -0.5477  0.5047  0.4821
12032SOL    HW147315   9.901   9.546   0.997  2.4090 -0.9543  0.8899
12032SOL    HW247316   9.826   9.430   1.084 -0.3698  0.5654  0.5580
12033SOL     OW47317   3.675   1.905   3.561  0.7266  0.9251 -0.3084
12033SOL    HW147318   3.602   1.889   3.495 -0.4862  0.5000  1.1059
12033SOL    HW247319   3.758   1.857   3.532  0.0900  0.4187 -1.2914
12034SOL     OW47320   5.496   7.561   1.923  0.3306 -0.5197  0.3410
12034SOL    HW147321   5.550   7.645   1.910  0.7401 -0.7803  0.3438
12034SOL    HW247322   5.467   7.526   1.834 -2.1617  1.1153  0.4693
12035SOL     OW47323   9.592   3.136   5.804  0.1078  0.2162  0.0093
12035SOL    HW147324   9.502   3.138   5.847  1.4033 -0.8178  2.8582
12035SOL    HW247325   9.615   3.042   5.778 -0.2445  0.6912 -2.0846
12036SOL     OW47326   6.980   7.599   2.863  0.1910 -0.3239  0.2806
12036SOL    HW147327   6.885   7.604   2.894 -0.3991  2.1010 -1.7598
12036SOL    HW247328   6.982   7.578   2.765  1.7480  0.3583  0.1554
12037SOL     OW47329   0.670   5.080   6.686  0.2823 -0.3060 -0.0481
12037SOL    HW147330   0.718   5.154   6.733  0.3046  0.3596 -1.0859
12037SOL    HW247331   0.699   4.992   6.723 -1.1829  0.2550  2.5617
12038SOL     OW47332   8.882   1.019   3.254  0.1962 -0.5312 -0.4131
12038SOL    HW147333   8.802   1.073   3.279  0.4596  0.5672 -1.8835
12038SOL    HW247334   8.934   1.066   3.182 -0.6505 -3.6156 -3.2007
12039SOL     OW47335   1.240   1.929   1.949 -0.4393 -0.2654  0.7966
12039SOL    HW147336   1.212   1.953   2.042  0.0272 -1.9381  1.3838
12039SOL    HW247337   1.304   1.852   1.952 -0.1644 -0.1168 -0.8893
12040SOL     OW47338   9.049   0.825   1.863 -0.2887  0.1060  0.2171
12040SOL    HW147339   8.986   0.750   1.839  0.7671 -0.8107  0.2567
12040SOL    HW247340   8.999   0.911   1.866 -1.0967 -0.2460 -2.0798
12041SOL     OW47341   0.831   8.945   1.691  0.1579  0.2138 -0.3856
12041SOL    HW147342   0.746   8.998   1.690 -0.3388 -0.4902  1.5513
12041SOL    HW247343   0.813   8.855   1.730  1.2632 -0.9401 -2.4224
12042SOL     OW47344   2.312   4.294   2.147 -0.1152  0.0502 -0.3329
12042SOL    HW147345   2.366   4.266   2.227  0.5681 -1.2226 -1.2258
12042SOL    HW247346   2.336   4.388   2.123 -0.1009  0.3376  0.7686
12043SOL     OW47347   3.615   8.049   3.186 -0.2680  0.2220  0.2016
12043SOL    HW147348   3.642   8.072   3.280  1.6321 -1.1578  0.0232
12043SOL    HW247349   3.558   7.967   3.187  1.1040 -0.7515  0.0393
12044SOL     OW47350   9.849   0.475   6.496  0.0760  0.9603  0.0410
12044SOL    HW147351   9.842   0.485   6.595  3.6640 -0.0386  0.4524
12044SOL    HW247352   9.863   0.565   6.454  1.1505  1.1092  0.7057
12045SOL     OW47353   0.590   7.468   1.282  0.2203  0.2663 -0.1979
12045SOL    HW147354   0.616   7.540   1.347 -0.6063  0.2128  0.1964
12045SOL    HW247355   0.510   7.498   1.229 -0.9943 -0.9112  0.9361
12046SOL     OW47356   8.976   2.638   3.756 -0.2137  0.0793 -0.4373
12046SOL    HW147357   9.004   2.653   3.851  1.2198 -0.7482 -0.7102
12046SOL    HW247358   9.054   2.606   3.703 -1.3501 -0.8936 -1.5692
12047SOL     OW47359   4.721   2.532   3.295  0.2460  0.3340 -0.0132
12047SOL    HW147360   4.687   2.440   3.274 -2.5082  1.4463 -0.5984
12047SOL    HW247361   4.802   2.551   3.240  0.5324 -1.5433 -0.2645
12048SOL     OW47362   3.502   0.993   0.629  0.3088 -0.6439  0.1871
12048SOL    HW147363   3.505   1.018   0.726 -1.5581 -2.7520  0.8188
12048SOL    HW247364   3.427   1.042   0.584  0.8511 -0.0642 -0.1081
12049SOL     OW47365   2.644   4.670   0.246  0.6406  0.2332 -0.1206
12049SOL    HW147366   2.664   4.584   0.292 -0.7590  0.0097  0.1058
12049SOL    HW247367   2.692   4.745   0.292 -0.0298 -0.1112  1.1569
12050SOL     OW47368   3.713   2.036   1.102  0.5065  0.5369  0.0653
12050SOL    HW147369   3.739   2.129   1.075  2.3594  0.4739  1.5022
12050SOL    HW247370   3.795   1.979   1.106 -0.6367 -1.2363 -0.9915
12051SOL     OW47371   2.637   0.671   2.829 -0.1588 -0.2590  0.1480
12051SOL    HW147372   2.709   0.696   2.894  0.5453  1.0093 -1.0755
12051SOL    HW247373   2.676   0.671   2.736 -1.3526 -1.1777 -0.3565
12052SOL     OW47374   9.265   0.882   5.298 -0.1514 -0.3088 -0.5684
12052SOL    HW147375   9.254   0.971   5.253  0.9852 -0.4290 -1.1074
12052SOL    HW247376   9.282   0.896   5.395 -2.3283 -0.0353 -0.2122
12053SOL     OW47377   1.696   2.913   0.661 -0.2937 -0.4850 -0.2332
12053SOL    HW147378   1.681   3.002   0.705  0.7064  0.0096 -0.8883
12053SOL    HW247379   1.607   2.870   0.643 -0.7640  0.0670  0.7156
12054SOL     OW47380   0.720   2.027   5.967 -0.5359 -0.8113 -0.2582
12054SOL    HW147381   0.726   1.927   5.973 -0.2975 -0.9380 -2.3054
12054SOL    HW247382   0.752   2.057   5.877 -2.3845  0.9547 -0.3564
12055SOL     OW47383   2.342   4.744   3.691 -0.4339  0.0900  0.3416
12055SOL    HW147384   2.379   4.707   3.606  0.9297  1.1382  0.4684
12055SOL    HW247385   2.336   4.844   3.684 -0.4212  0.1686  1.4328
12056SOL     OW47386   3.392   0.691   0.041 -0.1130  0.3928  0.7863
12056SOL    HW147387   3.298   0.664   0.019  0.5638  0.1206 -1.9027
12056SOL    HW247388   3.454   0.616   0.021  1.0863  1.7926 -0.8694
12057SOL     OW47389   0.207   0.871   2.163 -0.4815  0.1136 -0.1786
12057SOL    HW147390   0.114   0.906   2.178 -1.5349 -2.6584  0.2786
12057SOL    HW247391   0.217   0.842   2.068 -0.4545 -0.5214  0.0102
12058SOL     OW47392   8.090   4.849   5.377 -0.0921  0.3051 -0.6214
12058SOL    HW147393   8.090   4.901   5.463  0.3293  0.3514 -0.6467
12058SOL    HW247394   8.183   4.844   5.342 -0.4009  1.0596 -1.5518
12059SOL     OW47395   1.276   8.897   2.944 -0.0377 -0.1307  0.3036
12059SOL    HW147396   1.274   8.997   2.949 -0.9248 -0.1620  0.7151
12059SOL    HW247397   1.188   8.860   2.974 -0.9296 -0.9304 -3.0864
12060SOL     OW47398   0.299   8.214   4.210 -0.2052 -0.7821 -0.1421
12060SOL    HW147399   0.363   8.149   4.171  2.2863  1.4615  0.0706
12060SOL    HW247400   0.276   8.187   4.303 -1.3072 -2.7617 -0.9582
12061SOL     OW47401   7.802   8.940   5.840 -0.6706  0.2025 -0.0546
12061SOL    HW147402   7.850   8.994   5.771 -1.4042 -0.2843 -0.9544
12061SOL    HW247403   7.721   8.988   5.871 -0.0709  0.6441  0.8442
12062SOL     OW47404   3.337   2.548   3.218 -0.4612 -0.0498  0.3382
12062SOL    HW147405   3.412   2.487   3.195 -0.7154  0.4504 -1.9047
12062SOL    HW247406   3.355   2.591   3.307  1.9428  0.1173 -0.1901
12063SOL     OW47407   1.885   3.670   5.403  0.7302 -0.3579 -0.1665
12063SOL    HW147408   1.960   3.678   5.469 -0.3689  0.0488  1.0546
12063SOL    HW247409   1.873   3.758   5.356  2.1337 -0.9237 -1.6041
12064SOL     OW47410   2.541   2.912   5.349  0.0760  0.7700 -0.3387
12064SOL    HW147411   2.616   2.942   5.291 -1.0263  0.3582 -2.0264
12064SOL    HW247412   2.473   2.986   5.357 -1.1469 -0.1400 -1.9577
12065SOL     OW47413   3.945   7.808   4.586 -0.0775  0.0813  0.3984
12065SOL    HW147414   3.965   7.888   4.529  0.1501  0.0240  0.3965
12065SOL    HW247415   4.015   7.800   4.657  0.7312 -0.9605 -0.4962
12066SOL     OW47416   2.030   6.063   0.740 -0.4673  0.2500  0.0924
12066SOL    HW147417   2.066   5.986   0.688 -0.4823 -0.5897  1.3136
12066SOL    HW247418   1.935   6.045   0.766  0.3145 -0.4686  2.5793
12067SOL     OW47419   2.185   7.898   0.204  0.5152 -0.0531  0.0138
12067SOL    HW147420   2.129   7.970   0.245  1.1404  0.6506 -0.3576
12067SOL    HW247421   2.276   7.933   0.185  0.3251 -0.4251 -1.7218
12068SOL     OW47422   9.111   3.980   2.665  0.2376 -0.2325  0.4245
12068SOL    HW147423   9.067   3.906   2.715 -0.0451  0.4539  1.2007
12068SOL    HW247424   9.064   4.066   2.684  1.2073  0.3230  0.3645
12069SOL     OW47425   2.074   3.330   3.741  0.2139 -0.0560  0.5741
12069SOL    HW147426   2.127   3.403   3.783 -0.0923  1.5282 -1.6820
12069SOL    HW247427   2.122   3.296   3.660 -1.1343 -0.1509 -0.2096
12070SOL     OW47428   2.002   9.090   1.771  0.9667 -0.1135  0.5283
12070SOL    HW147429   1.963   9.155   1.836  0.8449  1.0753 -0.7004
12070SOL    HW247430   2.100   9.109   1.759  0.3975  1.6208 -1.8328
12071SOL     OW47431   4.031   7.612   4.354 -0.5351 -0.3166  0.2281
12071SOL    HW147432   4.085   7.661   4.285  2.2441 -1.1381  1.7202
12071SOL    HW247433   4.026   7.668   4.437  1.5691 -1.9040  1.4983
12072SOL     OW47434   3.839   2.539   3.059  0.1754 -0.1657  0.3943
12072SOL    HW147435   3.831   2.589   3.146  0.4118 -0.9212  0.8599
12072SOL    HW247436   3.854   2.604   2.985  0.4287  0.4619  0.9833
12073SOL     OW47437   3.437   1.717   2.152 -0.5777 -0.4134  0.3531
12073SOL    HW147438   3.395   1.723   2.242 -0.5667 -1.1143  0.4118
12073SOL    HW247439   3.509   1.647   2.153  1.3061  1.4666  0.5231
12074SOL     OW47440   7.171   4.040   0.037  0.1843  0.4093 -0.4084
12074SOL    HW147441   7.078   4.033   0.003 -0.5660  1.0456  1.4716
12074SOL    HW247442   7.189   3.964   0.100  0.7183  0.6733 -0.2372
12075SOL     OW47443   4.171   9.194   2.394 -0.3640 -0.4620  0.0158
12075SOL    HW147444   4.266   9.177   2.368 -0.4934  1.0221 -1.5484
12075SOL    HW247445   4.134   9.267   2.337 -1.9657  0.0633  1.6887
12076SOL     OW47446   0.252   3.321   6.142 -0.0153  0.7085 -0.2909
12076SOL    HW147447   0.200   3.406   6.128 -0.3769  0.9657  2.2406
12076SOL    HW247448   0.207   3.246   6.095 -2.6176  0.9753  1.6453
12077SOL     OW47449   9.292   6.578   4.691  0.1696 -0.0542 -0.1009
12077SOL    HW147450   9.205   6.625   4.674 -0.5182 -1.9771 -2.2501
12077SOL    HW247451   9.283   6.519   4.771  0.5411  2.2427  1.6470
12078SOL     OW47452   0.896   2.564   3.634  0.3749  0.1891 -0.4773
12078SOL    HW147453   0.841   2.489   3.671 -0.6506  1.7715  1.3038
12078SOL    HW247454   0.973   2.582   3.694  1.3269 -0.2273 -1.5517
12079SOL     OW47455   3.035   3.252   4.767  0.3096 -0.1167  0.0064
12079SOL    HW147456   3.098   3.304   4.825 -0.3742 -1.3385  1.8896
12079SOL    HW247457   2.941   3.267   4.798 -0.0687 -0.8576 -0.7485
12080SOL     OW47458   4.234   2.661   2.867 -0.6791  0.5129  0.0766
12080SOL    HW147459   4.145   2.707   2.878 -0.1297  1.5591  0.2435
12080SOL    HW247460   4.228   2.595   2.792 -1.5379  0.7298 -0.0547
12081SOL     OW47461   9.469   7.334   1.469  0.2452 -0.1768 -0.0651
12081SOL    HW147462   9.522   7.351   1.553 -0.2191 -0.7315  0.3408
12081SOL    HW247463   9.392   7.397   1.465 -0.7344 -1.3086  0.7960
12082SOL     OW47464   8.597   4.135   4.297  0.0284  0.3684 -0.0144
12082SOL    HW147465   8.642   4.059   4.250 -1.7046 -0.1240 -0.9422
12082SOL    HW247466   8.626   4.137   4.392  0.8665 -0.8552 -0.2312
12083SOL     OW47467   7.002   8.667   3.931 -0.1809 -0.2289 -0.1060
12083SOL    HW147468   7.097   8.685   3.957  0.5692 -0.3515 -2.5524
12083SOL    HW247469   6.955   8.621   4.006  1.2056  1.3064  1.7623
12084SOL     OW47470   7.678   1.046   4.991 -0.2983 -0.1899 -0.6363
12084SOL    HW147471   7.624   1.125   5.021 -0.2633 -0.0926 -0.8312
12084SOL    HW247472   7.655   0.967   5.048  2.7819  0.9908  2.3717
12085SOL     OW47473   1.391   3.878   2.941 -0.0154  0.5034  0.3015
12085SOL    HW147474   1.408   3.780   2.932  0.9337  0.6128  0.7893
12085SOL    HW247475   1.472   3.929   2.911  0.2613  1.0627  1.9380
12086SOL     OW47476   6.616   2.025   3.404 -0.1543 -0.1440 -0.5367
12086SOL    HW147477   6.636   2.122   3.421  1.7440 -0.5890 -0.1119
12086SOL    HW247478   6.581   1.984   3.488  0.5590 -0.1964 -0.2609
12087SOL     OW47479   8.712   0.759   2.360 -0.2375 -0.2838 -0.6909
12087SOL    HW147480   8.741   0.789   2.269 -1.2362 -0.8004 -1.1800
12087SOL    HW247481   8.783   0.701   2.400 -0.6580 -1.7357 -1.9804
12088SOL     OW47482   3.555   2.992   2.230 -0.4654 -0.5385  0.1622
12088SOL    HW147483   3.471   2.949   2.197 -0.1111 -0.4012 -0.9416
12088SOL    HW247484   3.552   3.090   2.208  0.2024 -0.6279 -0.3136
12089SOL     OW47485   7.024   9.189   4.491  0.0472 -0.5458 -0.3505
12089SOL    HW147486   7.090   9.193   4.566 -0.0600 -0.3555 -0.2651
12089SOL    HW247487   6.942   9.241   4.516 -0.3061 -1.1190 -0.2849
12090SOL     OW47488   6.302   0.785   1.805  0.3086 -0.6950  0.6285
12090SOL    HW147489   6.253   0.830   1.880 -0.3137 -0.1824 -0.0670
12090SOL    HW247490   6.307   0.687   1.822  0.6279 -0.5129  1.5900
12091SOL     OW47491   8.802   2.947   2.271  0.2018  0.2524  0.4418
12091SOL    HW147492   8.756   2.858   2.274  0.4050  0.1718  1.7799
12091SOL    HW247493   8.734   3.020   2.267  0.0286  0.0398 -0.4177
12092SOL     OW47494   3.083   9.948   1.528  0.5872  0.7399  0.6706
12092SOL    HW147495   3.117   9.989   1.443  1.4912 -0.6364  0.3368
12092SOL    HW247496   3.160   9.909   1.579 -0.2136 -0.4082  1.0254
12093SOL     OW47497   2.855   9.936   2.285  0.2094  0.0265 -0.4894
12093SOL    HW147498   2.859   9.841   2.315 -0.3303 -0.5104 -2.0647
12093SOL    HW247499   2.787   9.985   2.340  0.3767 -0.5267  0.2249
12094SOL     OW47500   9.872   6.051   1.501  0.0495 -0.1157  0.2247
12094SOL    HW147501   9.793   6.102   1.533  1.1804  1.9398 -0.1375
12094SOL    HW247502   9.844   5.960   1.471 -2.1052  0.4745  0.3931
12095SOL     OW47503   4.708   7.342   3.998 -0.5974 -0.7745 -0.0786
12095SOL    HW147504   4.776   7.364   3.928  0.1571 -0.5634  0.7063
12095SOL    HW247505   4.752   7.290   4.072 -1.4221 -1.1573  0.1543
12096SOL     OW47506   8.633   2.702   6.728  0.2668  0.3804  0.1928
12096SOL    HW147507   8.680   2.675   6.644  0.5845  0.4260  0.3565
12096SOL    HW247508   8.660   2.795   6.753  1.8480 -0.4222  1.5361
12097SOL     OW47509   1.769   9.257   6.528 -0.5766  0.2882 -0.0810
12097SOL    HW147510   1.855   9.247   6.578 -1.3580 -1.5874  0.9591
12097SOL    HW247511   1.787   9.257   6.430  0.7321  1.3505  0.1495
12098SOL     OW47512   3.264   3.042   2.722 -0.4968  0.5902  0.0868
12098SOL    HW147513   3.188   2.977   2.716 -0.3544  0.0684  2.9486
12098SOL    HW247514   3.294   3.068   2.630 -1.7337 -2.0135 -1.1068
12099SOL     OW47515   3.119   0.675   2.002 -0.4063  0.1632  0.4701
12099SOL    HW147516   3.112   0.694   1.904  0.4753  2.1180  0.7539
12099SOL    HW247517   3.061   0.597   2.025 -2.4876  1.1402 -1.2189
12100SOL     OW47518   9.724   3.502   3.665 -0.2053  0.1216 -0.4219
12100SOL    HW147519   9.752   3.540   3.753 -1.1171  1.4541 -0.6849
12100SOL    HW247520   9.799   3.511   3.599  0.8382 -1.7922  0.4626
12101SOL     OW47521   8.101   2.178   1.594  0.0148 -0.0686  0.8053
12101SOL    HW147522   8.109   2.079   1.602 -0.9697 -0.3025 -0.7542
12101SOL    HW247523   8.012   2.207   1.630 -1.6806 -0.3632 -2.8236
12102SOL     OW47524   8.388   8.195   5.769  0.3726 -0.1260 -0.6313
12102SOL    HW147525   8.427   8.120   5.823  0.3919 -0.5464 -1.2148
12102SOL    HW247526   8.385   8.167   5.673  0.7809  0.7926 -0.9108
12103SOL     OW47527   8.811   5.031   5.005  0.0793  0.2349 -0.3688
12103SOL    HW147528   8.909   5.016   5.011  0.3389  0.6301 -3.1865
12103SOL    HW247529   8.790   5.090   4.928 -2.4729 -0.7825 -0.5229
12104SOL     OW47530   8.244   1.914   0.779 -0.2495 -0.0868 -0.0689
12104SOL    HW147531   8.263   1.937   0.875  0.8197  0.6434 -0.4491
12104SOL    HW247532   8.156   1.867   0.773  0.1306 -1.0168  1.3938
12105SOL     OW47533   8.442   4.585   1.772  0.3696 -0.1746 -0.5692
12105SOL    HW147534   8.365   4.650   1.777  0.2235 -0.2878 -1.2589
12105SOL    HW247535   8.465   4.569   1.676  2.2482  1.0292 -0.3331
12106SOL     OW47536   8.229   3.826   0.209 -0.0829 -0.8857 -0.4348
12106SOL    HW147537   8.315   3.811   0.259 -0.4190  0.0647  0.4398
12106SOL    HW247538   8.249   3.863   0.119  0.4914 -1.9271 -0.7498
12107SOL     OW47539   2.923   9.888   5.346  0.1778  0.2766  0.2373
12107SOL    HW147540   3.010   9.867   5.391  0.5884 -1.7965 -1.4049
12107SOL    HW247541   2.858   9.815   5.365 -0.1647  0.2190 -1.1136
12108SOL     OW47542   6.464   8.999   2.425  0.4104  0.5601  0.0996
12108SOL    HW147543   6.531   8.980   2.497  1.2238 -0.4741 -0.9136
12108SOL    HW247544   6.451   9.098   2.417 -0.9397  0.6361  2.7842
12109SOL     OW47545   7.872   3.486   0.901  0.1270  0.1193  0.5269
12109SOL    HW147546   7.867   3.585   0.895  1.1657  0.1736  0.5271
12109SOL    HW247547   7.911   3.459   0.990 -0.4149 -0.2917  0.6431
12110SOL     OW47548   3.739   2.762   0.819  0.1592 -0.2492  0.4109
12110SOL    HW147549   3.832   2.726   0.808 -0.8824 -2.2187 -2.8121
12110SOL    HW247550   3.673   2.688   0.810 -1.8217  1.4171  0.7046
12111SOL     OW47551   0.538   3.673   4.561 -0.2643  0.6150 -0.2114
12111SOL    HW147552   0.624   3.671   4.509 -0.6447  2.0010 -0.8993
12111SOL    HW247553   0.525   3.585   4.607  0.6467 -0.2155 -1.5320
12112SOL     OW47554   3.365   1.636   1.115 -0.2667  0.2480  0.1693
12112SOL    HW147555   3.278   1.678   1.089 -1.1156 -1.5442 -0.0026
12112SOL    HW247556   3.378   1.644   1.213 -1.5388 -1.0621  0.4746
12113SOL     OW47557   5.493   4.108   0.745  0.0157 -0.4615 -0.1809
12113SOL    HW147558   5.395   4.089   0.732 -0.1560 -0.9394  1.7022
12113SOL    HW247559   5.539   4.026   0.778  0.6845  0.2861  0.7730
12114SOL     OW47560   0.940   7.633   3.123 -0.2574 -0.0050 -0.0623
12114SOL    HW147561   1.024   7.675   3.090  0.1028  0.8082  1.8576
12114SOL    HW247562   0.862   7.676   3.079  0.2747 -0.0373 -1.0561
12115SOL     OW47563   6.760   4.622   6.625 -0.3472 -0.4919  0.0058
12115SOL    HW147564   6.835   4.557   6.635 -1.1297 -1.3046  0.6658
12115SOL    HW247565   6.674   4.578   6.649 -0.7722  1.0947  1.5003
12116SOL     OW47566   1.701   2.976   3.710 -0.2578  0.6652  0.1847
12116SOL    HW147567   1.772   3.004   3.645  0.0605  0.7907  0.5929
12116SOL    HW247568   1.646   2.903   3.669  0.0772  0.5954 -0.1450
12117SOL     OW47569   4.388   1.205   4.771  0.5227 -0.0975  0.2939
12117SOL    HW147570   4.311   1.161   4.726  0.8144 -0.0890 -0.2273
12117SOL    HW247571   4.474   1.169   4.733  0.7775 -0.2782  1.0283
12118SOL     OW47572   3.506   1.261   2.664  0.7365 -0.4132  0.2339
12118SOL    HW147573   3.446   1.181   2.662  1.0235 -0.6290  0.2387
12118SOL    HW247574   3.457   1.339   2.704  1.0723 -1.0968  2.0046
12119SOL     OW47575   2.759   3.054   1.819 -0.5916 -0.1168 -0.2437
12119SOL    HW147576   2.732   3.151   1.824  0.9149  0.3575 -1.2959
12119SOL    HW247577   2.760   3.024   1.724  3.7765  0.2409 -0.4093
12120SOL     OW47578   9.647   6.316   6.467  0.2276 -0.4557 -0.3915
12120SOL    HW147579   9.679   6.348   6.378  1.4320 -1.4848 -0.3389
12120SOL    HW247580   9.679   6.222   6.483 -0.9524 -0.7062  0.6278
12121SOL     OW47581   8.152   9.062   4.398 -0.7550 -0.5864 -0.3957
12121SOL    HW147582   8.112   9.131   4.338  2.3414  2.7937  1.2434
12121SOL    HW247583   8.215   9.004   4.347 -1.1946 -0.3477 -1.2077
12122SOL     OW47584   5.665   9.581   2.410 -0.2256  0.2087 -0.3304
12122SOL    HW147585   5.737   9.603   2.344 -0.5543 -2.1533 -1.5531
12122SOL    HW247586   5.681   9.489   2.446 -1.6170  0.3995  0.7908
12123SOL     OW47587   2.187   2.331   5.253 -0.1839 -0.3758  0.7847
12123SOL    HW147588   2.223   2.287   5.335 -0.3211  0.0075  1.0518
12123SOL    HW247589   2.249   2.315   5.176  0.2402 -0.2489  1.0967
12124SOL     OW47590   2.904   0.179   0.575 -0.0582  0.2729  0.1445
12124SOL    HW147591   2.875   0.263   0.528  0.3660  0.6486  0.5459
12124SOL    HW247592   2.889   0.188   0.673 -1.3307 -0.6775  0.0495
12125SOL     OW47593   3.147   7.356   3.326 -0.2814  0.1080  0.2475
12125SOL    HW147594   3.233   7.364   3.276 -0.6924  2.2626 -0.1462
12125SOL    HW247595   3.166   7.340   3.423  0.5462 -0.3625  0.0135
12126SOL     OW47596   1.175   3.046   4.123 -0.8225  1.0733 -0.2188
12126SOL    HW147597   1.152   3.044   4.221 -0.5815  0.3289 -0.1705
12126SOL    HW247598   1.094   3.025   4.069 -0.6314  0.0355 -0.1139
12127SOL     OW47599   8.697   7.481   6.112 -0.4537 -0.3646  0.8084
12127SOL    HW147600   8.740   7.439   6.192 -0.7249 -0.8973  0.6757
12127SOL    HW247601   8.753   7.463   6.031 -0.6069 -0.5240  0.7392
12128SOL     OW47602   1.873   9.654   4.530  0.8000  0.6174  0.0880
12128SOL    HW147603   1.917   9.722   4.590 -0.4741  2.2433 -0.7701
12128SOL    HW247604   1.791   9.695   4.490 -0.7077 -1.8832  0.5498
12129SOL     OW47605   1.105   1.531   1.806  0.1308 -0.1504 -0.0132
12129SOL    HW147606   1.150   1.494   1.887  0.2179 -2.2805 -0.9740
12129SOL    HW247607   1.170   1.585   1.753  0.8273 -0.9496  0.0026
12130SOL     OW47608   1.639   1.936   1.253  0.0448 -0.2726 -0.4358
12130SOL    HW147609   1.608   2.017   1.303  0.6350  0.5464 -1.3622
12130SOL    HW247610   1.722   1.900   1.296  0.1865  0.0430 -0.4440
12131SOL     OW47611   9.137   4.775   6.053 -0.4891  0.1344  0.1060
12131SOL    HW147612   9.202   4.763   6.128  0.5201  2.0981 -0.4277
12131SOL    HW247613   9.182   4.757   5.966 -0.8493  0.7588 -0.2151
12132SOL     OW47614   9.308   3.123   3.336 -0.3702 -0.4129 -0.3392
12132SOL    HW147615   9.235   3.058   3.317 -0.6904 -0.4934  1.1288
12132SOL    HW247616   9.273   3.197   3.394  0.6955 -0.4473  0.3737
12133SOL     OW47617   4.487   0.541   4.377  0.2275 -0.0268 -0.0490
12133SOL    HW147618   4.523   0.454   4.344 -1.5188 -0.2771 -1.3882
12133SOL    HW247619   4.503   0.612   4.308 -1.2159 -0.0052 -0.3835
12134SOL     OW47620   3.882   3.962   3.425  0.1052 -0.0569 -0.6863
12134SOL    HW147621   3.905   3.994   3.333  0.3918 -0.3398 -0.7146
12134SOL    HW247622   3.947   3.891   3.453  0.8634  1.0200  0.3053
12135SOL     OW47623   2.426   4.819   0.523 -0.3052  0.5690 -0.6978
12135SOL    HW147624   2.416   4.918   0.514  0.1349  0.6401 -0.3928
12135SOL    HW247625   2.348   4.774   0.478 -0.9984  1.0771 -0.0327
12136SOL     OW47626   4.054   2.927   5.397  0.6143 -0.0763 -0.5524
12136SOL    HW147627   4.016   2.983   5.472  0.1981 -0.5969 -0.3690
12136SOL    HW247628   4.058   2.982   5.314 -0.4608  0.0267 -0.5512
12137SOL     OW47629   1.511   8.063   5.453  0.0428  0.0682  0.3587
12137SOL    HW147630   1.413   8.057   5.467  0.2766  0.3739  2.2641
12137SOL    HW247631   1.558   7.999   5.514  1.1264  1.6094  1.2059
12138SOL     OW47632   3.796   6.120   2.080 -0.8775 -0.9677  0.0109
12138SOL    HW147633   3.742   6.056   2.025 -0.9351 -1.4238  0.5862
12138SOL    HW247634   3.755   6.211   2.077 -0.2949 -0.7449 -1.5363
12139SOL     OW47635   3.725   6.397   2.052 -0.0486  0.5116 -0.0157
12139SOL    HW147636   3.644   6.454   2.067 -0.2431  0.5548 -1.2375
12139SOL    HW247637   3.785   6.441   1.985 -0.9569 -1.5065 -2.1809
12140SOL     OW47638   1.469   0.029   1.457  0.0886  0.5026 -0.1296
12140SOL    HW147639   1.511   0.070   1.376 -0.2632  0.4308 -0.3461
12140SOL    HW247640   1.452   0.099   1.526  0.7749  0.4991  0.0480
12141SOL     OW47641   3.901   2.464   4.835 -0.2353  0.9010  0.3967
12141SOL    HW147642   3.991   2.425   4.818  0.4599  2.3992  0.5638
12141SOL    HW247643   3.831   2.407   4.791  0.9572  0.8808 -1.5512
12142SOL     OW47644   0.346   1.839   5.122  0.0140  0.1523  0.7491
12142SOL    HW147645   0.368   1.918   5.064  1.2199 -0.3777  0.4704
12142SOL    HW247646   0.375   1.857   5.216 -1.7519  0.9276  1.1711
12143SOL     OW47647   8.940   4.867   2.863  0.4703 -0.5776 -0.0282
12143SOL    HW147648   8.939   4.866   2.763 -1.5623 -1.1047 -0.0279
12143SOL    HW247649   9.017   4.922   2.895  0.2567  0.8490 -1.8926
12144SOL     OW47650   1.537   9.426   5.617 -0.4800  0.0567  0.3061
12144SOL    HW147651   1.519   9.506   5.561 -0.8272  0.5431  1.1060
12144SOL    HW247652   1.555   9.347   5.558  2.9277  1.3682 -0.5375
12145SOL     OW47653   1.778   0.029   5.032 -0.0871  0.4951  0.5763
12145SOL    HW147654   1.740   0.063   5.118  0.2476  1.1585  0.4645
12145SOL    HW247655   1.876   0.010   5.044 -0.1171  0.2412  0.4371
12146SOL     OW47656   2.999   4.875   6.743 -0.3591  0.0624 -0.3659
12146SOL    HW147657   3.014   4.926   6.658  1.7230 -2.7770 -1.7643
12146SOL    HW247658   2.942   4.795   6.725  0.1415 -0.6040  0.9016
12147SOL     OW47659   7.063   4.746   0.795  0.2188 -0.0467 -0.5230
12147SOL    HW147660   7.126   4.815   0.831  1.6436 -2.3240  1.6212
12147SOL    HW247661   7.110   4.692   0.725 -0.7791  0.9633 -1.9703
12148SOL     OW47662   4.512   1.526   0.772 -0.1010 -0.8501 -0.0191
12148SOL    HW147663   4.517   1.580   0.688  0.3922 -1.4672 -0.3876
12148SOL    HW247664   4.492   1.431   0.749 -0.1090 -0.9916  0.5744
12149SOL     OW47665   7.937   2.566   0.541 -0.2214  0.4327  0.0948
12149SOL    HW147666   7.908   2.596   0.632 -1.1725  0.3383 -0.1766
12149SOL    HW247667   7.909   2.633   0.473  1.0661  0.8277 -0.0661
12150SOL     OW47668   5.095   0.972   1.760 -0.1973  0.0718 -0.8325
12150SOL    HW147669   5.076   0.947   1.665 -1.1856  1.1757 -0.9323
12150SOL    HW247670   5.164   1.045   1.762 -2.1598  1.9584 -0.8324
12151SOL     OW47671   2.615   6.737   1.855 -0.2961  0.0665 -0.3002
12151SOL    HW147672   2.584   6.786   1.936  0.9369 -2.3256  1.7347
12151SOL    HW247673   2.640   6.643   1.881  1.3484 -0.3769 -3.2150
12152SOL     OW47674   2.083   5.075   3.920 -0.5797 -0.1131  0.3269
12152SOL    HW147675   2.081   5.058   3.821 -0.8700 -1.7070  0.5910
12152SOL    HW247676   2.115   5.168   3.937  0.4060 -0.1413 -1.2340
12153SOL     OW47677   8.173   5.062   5.950  0.0716 -0.0455  0.8895
12153SOL    HW147678   8.137   5.149   5.916  1.5721 -0.6330 -2.4550
12153SOL    HW247679   8.098   4.996   5.957 -0.3926  0.2479 -0.9568
12154SOL     OW47680   2.010   4.298   2.122  0.1500  0.2192 -0.0514
12154SOL    HW147681   2.108   4.293   2.140  0.3298  0.9570 -0.7982
12154SOL    HW247682   1.962   4.327   2.204  0.6229  0.4755  0.1306
12155SOL     OW47683   0.922   2.084   5.742  0.6074  0.4539  0.5256
12155SOL    HW147684   1.004   2.027   5.739  1.4603  1.6810 -0.2778
12155SOL    HW247685   0.894   2.107   5.649  0.3190  1.3891  0.8369
12156SOL     OW47686   2.013   4.560   1.240  0.6179  0.1693 -0.1632
12156SOL    HW147687   2.077   4.492   1.276  1.3142  0.8670 -0.0764
12156SOL    HW247688   1.941   4.577   1.308 -0.1776 -1.2900 -0.6343
12157SOL     OW47689   8.707   2.374   0.051  0.2931 -0.2082 -0.2448
12157SOL    HW147690   8.669   2.445   0.110 -0.2573 -0.8501  0.1725
12157SOL    HW247691   8.766   2.313   0.104 -1.1007 -1.4601 -0.1206
12158SOL     OW47692   1.358   9.139   0.869 -0.4361  0.1313 -0.5883
12158SOL    HW147693   1.448   9.119   0.907 -1.6035 -1.3763  1.4588
12158SOL    HW247694   1.297   9.171   0.942 -2.9777 -3.6857 -0.8853
12159SOL     OW47695   8.888   1.020   6.360 -0.0182 -0.5582 -0.1220
12159SOL    HW147696   8.899   1.020   6.460  2.6267  0.6113 -0.3634
12159SOL    HW247697   8.934   0.939   6.322  0.9802  0.2003 -0.5541
12160SOL     OW47698   9.953   8.337   3.670  0.1371 -0.1400 -0.0103
12160SOL    HW147699  10.038   8.287   3.688  0.2743  0.5399  1.3046
12160SOL    HW247700   9.969   8.406   3.600  0.4257 -0.6675 -0.4698
12161SOL     OW47701   6.182   9.236   5.696 -0.0002  0.0771  0.0770
12161SOL    HW147702   6.141   9.237   5.605  0.3428  0.9019 -0.0712
12161SOL    HW247703   6.118   9.275   5.762 -0.3819 -0.8329  0.2498
12162SOL     OW47704   2.546   9.161   4.965 -0.4377 -0.2794  0.0109
12162SOL    HW147705   2.453   9.177   4.934 -0.2575 -3.2122 -2.4126
12162SOL    HW247706   2.605   9.237   4.937 -1.3504 -0.3476 -2.1870
12163SOL     OW47707   2.680   2.249   5.175 -0.3261  0.2600  0.0448
12163SOL    HW147708   2.610   2.320   5.183  1.6080  2.1561  0.6189
12163SOL    HW247709   2.696   2.207   5.264  1.1959  1.7578  0.5033
12164SOL     OW47710   6.288   1.069   1.243 -0.2619 -0.2011 -0.4762
12164SOL    HW147711   6.237   0.990   1.274  1.0569 -0.5486  0.8488
12164SOL    HW247712   6.380   1.041   1.216 -0.0422  0.7512 -0.7570
12165SOL     OW47713   3.104   3.884   1.861  0.0490  0.0799 -0.2246
12165SOL    HW147714   3.155   3.930   1.788 -0.7979 -0.9728 -1.5281
12165SOL    HW247715   3.166   3.856   1.934  0.8866  1.3262 -0.4451
12166SOL     OW47716   3.179   3.345   1.922 -0.2437  0.8472  0.8703
12166SOL    HW147717   3.160   3.300   2.010 -0.3714  0.5842  0.7084
12166SOL    HW247718   3.131   3.432   1.919 -1.4885  0.1619  0.4450
12167SOL     OW47719   2.578   7.697   1.406  0.3053 -0.2310  0.3689
12167SOL    HW147720   2.519   7.643   1.347  0.6465  0.2391 -0.4250
12167SOL    HW247721   2.583   7.791   1.370  0.3218  0.1216  1.2891
12168SOL     OW47722   3.733   0.041   4.229  0.2827 -0.4561  0.3363
12168SOL    HW147723   3.771   0.132   4.240 -1.5236 -0.1026  4.8395
12168SOL    HW247724   3.657   0.044   4.164  0.3991  1.1971  0.2651
12169SOL     OW47725   0.414   4.460   5.623 -0.3580 -0.3037  0.7746
12169SOL    HW147726   0.393   4.379   5.568 -1.2905 -0.6097  1.5754
12169SOL    HW247727   0.332   4.516   5.633  0.5752  1.4681 -0.9086
12170SOL     OW47728   1.164   9.489   5.421  0.0485  0.1544  0.4698
12170SOL    HW147729   1.096   9.480   5.348 -0.3016 -1.0851  0.9368
12170SOL    HW247730   1.238   9.424   5.406 -0.4110 -0.6483  1.6361
12171SOL     OW47731   0.449   2.576   3.789 -0.2420  0.1253 -0.0919
12171SOL    HW147732   0.437   2.646   3.719  0.6796  0.2089 -0.1660
12171SOL    HW247733   0.401   2.603   3.872 -0.7162  0.3747 -0.4444
12172SOL     OW47734   0.533   3.792   2.507 -1.0273 -0.1561 -0.6449
12172SOL    HW147735   0.583   3.765   2.589 -1.7270 -0.5968 -0.3532
12172SOL    HW247736   0.435   3.776   2.521 -1.1753 -0.0143 -1.4789
12173SOL     OW47737   8.341   9.555   4.196  0.2209 -0.3372  0.0954
12173SOL    HW147738   8.343   9.608   4.111 -0.8261 -2.5074 -1.3219
12173SOL    HW247739   8.247   9.528   4.216  0.5948 -0.6578  1.4568
12174SOL     OW47740   0.775   4.652   4.491 -0.2836  0.1369  0.4919
12174SOL    HW147741   0.847   4.584   4.504 -1.4120 -0.6821  2.6407
12174SOL    HW247742   0.814   4.744   4.504  0.4270 -0.2898  1.3946
12175SOL     OW47743   4.629   1.173   5.101 -0.0151 -0.2830 -0.8584
12175SOL    HW147744   4.566   1.212   5.034 -0.0829  1.0613 -0.0339
12175SOL    HW247745   4.618   1.220   5.189  2.3125  0.1652 -0.7648
12176SOL     OW47746   2.515   8.013   6.539  0.0898  0.0989  0.0687
12176SOL    HW147747   2.552   8.021   6.632  0.0428 -1.0248  0.1803
12176SOL    HW247748   2.449   7.938   6.535 -1.1313  1.1762 -0.4796
12177SOL     OW47749   3.064   7.739   4.174 -0.6050 -0.2937 -0.4332
12177SOL    HW147750   3.122   7.686   4.236 -0.4480  1.2296  0.7532
12177SOL    HW247751   2.976   7.758   4.218 -0.4078  0.9963 -0.5686
12178SOL     OW47752   0.020   2.835   6.406  0.0948 -0.3207  0.4322
12178SOL    HW147753  -0.018   2.798   6.321 -0.2548 -0.7890  0.7833
12178SOL    HW247754  -0.045   2.817   6.481 -0.4897  1.7945  0.4563
12179SOL     OW47755   1.502   3.812   4.161 -0.8307  0.3493  0.2046
12179SOL    HW147756   1.424   3.830   4.221 -0.4202  1.5656  0.3715
12179SOL    HW247757   1.566   3.751   4.208 -1.5176 -0.3932  0.1873
12180SOL     OW47758   1.781   5.175   4.500 -0.4737 -0.1471 -0.0264
12180SOL    HW147759   1.836   5.257   4.515 -0.4479 -0.1431 -0.1373
12180SOL    HW247760   1.814   5.101   4.557 -0.8256  0.0670  0.4588
12181SOL     OW47761   6.246   0.620   4.214 -0.0304 -0.1388  0.5002
12181SOL    HW147762   6.321   0.557   4.233  0.4969  0.1379 -0.6262
12181SOL    HW247763   6.282   0.702   4.169 -0.9838  0.0876  0.1370
12182SOL     OW47764   0.355   7.229   1.350  0.0056 -0.7215  0.2172
12182SOL    HW147765   0.294   7.152   1.328 -0.4560  0.1652 -1.7436
12182SOL    HW247766   0.437   7.222   1.293 -0.8596  1.2078 -1.3306
12183SOL     OW47767   9.156   0.972   1.610  0.7265 -0.2191 -0.0019
12183SOL    HW147768   9.231   0.908   1.596 -0.5152 -1.6895 -0.0867
12183SOL    HW247769   9.152   1.036   1.533  1.4976 -0.5322 -0.3053
12184SOL     OW47770   5.863   8.262   5.169 -0.1447 -0.0624 -0.5514
12184SOL    HW147771   5.779   8.227   5.211  0.7003 -0.5590  0.7707
12184SOL    HW247772   5.856   8.361   5.157 -1.9499 -0.4562 -2.8981
12185SOL     OW47773   1.862   4.855   5.570  0.1075  0.7084  0.1817
12185SOL    HW147774   1.861   4.775   5.510  0.3177 -0.0372  1.1597
12185SOL    HW247775   1.935   4.917   5.543  0.3189  0.2841 -0.2198
12186SOL     OW47776   8.919   8.657   0.269  0.1528  0.0785  0.2152
12186SOL    HW147777   9.006   8.643   0.221  0.2042 -0.4241  0.4552
12186SOL    HW247778   8.890   8.752   0.257 -0.6777 -0.4591 -2.2085
12187SOL     OW47779   3.761   5.477   4.149 -0.1585 -0.2916 -0.5459
12187SOL    HW147780   3.796   5.414   4.217  1.5962 -0.7602 -1.8337
12187SOL    HW247781   3.718   5.426   4.075 -0.8144  0.1367 -0.4620
12188SOL     OW47782   1.033   1.332   2.516  0.0530 -0.3765  0.2417
12188SOL    HW147783   0.945   1.368   2.547  0.2384  1.0052 -0.7942
12188SOL    HW247784   1.019   1.242   2.476 -1.0239  0.1162 -0.5493
12189SOL     OW47785   3.269   0.136   0.214 -0.4470 -0.0653 -0.3784
12189SOL    HW147786   3.289   0.061   0.150 -0.8201  0.5498 -1.2235
12189SOL    HW247787   3.219   0.208   0.166 -2.1495 -0.2915  1.0050
12190SOL     OW47788   0.298   3.214   3.674  0.3997 -0.1151 -0.2137
12190SOL    HW147789   0.314   3.298   3.621 -0.1065 -0.3214 -0.7005
12190SOL    HW247790   0.278   3.139   3.611  1.1210 -0.6646  0.2036
12191SOL     OW47791   7.824   9.544   5.718 -0.2644 -0.0172  0.6678
12191SOL    HW147792   7.889   9.573   5.789 -0.2670 -2.3647  1.6551
12191SOL    HW247793   7.779   9.460   5.747 -0.1250 -1.1100 -2.2169
12192SOL     OW47794   5.264   5.398   0.710 -0.1668  0.0699 -0.1570
12192SOL    HW147795   5.356   5.375   0.681  0.3458  0.9090  0.7627
12192SOL    HW247796   5.200   5.382   0.635  1.0970  2.0865 -1.7299
12193SOL     OW47797   3.995   1.370   6.400 -0.0720  0.2082 -0.0841
12193SOL    HW147798   4.051   1.287   6.403  0.3737  0.4058 -2.2361
12193SOL    HW247799   3.898   1.346   6.408  0.1901 -0.2910  1.8081
12194SOL     OW47800   4.427   3.982   3.911  0.0868 -0.7485 -0.0889
12194SOL    HW147801   4.455   4.010   4.003  0.6935  0.1288 -0.5360
12194SOL    HW247802   4.374   3.898   3.917  0.6676 -1.0464  1.0065
12195SOL     OW47803   9.466   1.161   0.894  0.0901  0.1982  0.0602
12195SOL    HW147804   9.415   1.233   0.846 -1.7107 -1.1376 -0.1189
12195SOL    HW247805   9.405   1.115   0.958  0.7167 -2.3195 -1.0955
12196SOL     OW47806   1.156   7.823   4.949 -0.2850  0.1543 -0.1671
12196SOL    HW147807   1.194   7.861   4.865  0.5780  0.0535  0.1750
12196SOL    HW247808   1.221   7.836   5.024 -1.1030  0.3702  0.5173
12197SOL     OW47809   8.782   7.526   1.196 -0.5916  0.4357 -0.1315
12197SOL    HW147810   8.866   7.474   1.208  0.0257  0.7978 -2.4585
12197SOL    HW247811   8.740   7.544   1.285  1.4680 -0.2645  1.0145
12198SOL     OW47812   5.431   1.265   1.524  0.4240  0.1572 -0.3891
12198SOL    HW147813   5.372   1.341   1.495  0.9559  1.0247  0.7822
12198SOL    HW247814   5.522   1.276   1.482  1.2606  1.5309  1.7212
12199SOL     OW47815   8.615   6.641   0.287 -0.0938  0.0638  0.4319
12199SOL    HW147816   8.559   6.601   0.360 -1.0291  0.2564 -0.1727
12199SOL    HW247817   8.655   6.728   0.319 -1.2049  0.5814  0.4211
12200SOL     OW47818   8.314   6.642   4.812 -0.5830 -0.7948  0.4808
12200SOL    HW147819   8.283   6.688   4.729  1.0332  0.1952  0.3904
12200SOL    HW247820   8.281   6.693   4.892 -0.6578 -0.7370  0.4134
12201SOL     OW47821   4.982   6.967   3.011 -0.4804  0.3679  0.1632
12201SOL    HW147822   4.921   6.961   3.091 -0.8240  1.7847  0.0132
12201SOL    HW247823   4.945   6.912   2.937 -1.4042  0.9408  0.1932
12202SOL     OW47824   8.330   8.405   3.686  0.0041  0.3278 -0.2099
12202SOL    HW147825   8.351   8.334   3.619 -1.5765  0.5691 -0.9863
12202SOL    HW247826   8.285   8.364   3.765  0.4965  0.2589  0.0375
12203SOL     OW47827   3.630   5.137   2.664  0.5190  0.2337 -0.0144
12203SOL    HW147828   3.694   5.093   2.727  2.1168 -1.2414 -2.6095
12203SOL    HW247829   3.610   5.075   2.588 -4.8777  0.1708  1.2180
12204SOL     OW47830   9.333   6.146   5.318  0.7756  0.3497  0.4506
12204SOL    HW147831   9.291   6.070   5.368 -0.1447  1.0184  0.7024
12204SOL    HW247832   9.308   6.141   5.222  0.5807  0.4382  0.4982
12205SOL     OW47833   9.448   2.785   6.036 -0.1123  0.6070 -0.1489
12205SOL    HW147834   9.444   2.715   6.108  0.5011  1.1477  0.4166
12205SOL    HW247835   9.380   2.855   6.055  1.1172  1.5785  0.7974
12206SOL     OW47836   6.990   1.280   1.180 -0.0692  0.3393 -0.0004
12206SOL    HW147837   6.896   1.309   1.159 -0.4696 -0.7261  0.2805
12206SOL    HW247838   7.027   1.229   1.102 -0.6574 -1.4513  0.8440
12207SOL     OW47839   2.354   5.806   3.420  0.1074  0.7335  0.1622
12207SOL    HW147840   2.277   5.836   3.363 -0.2886 -0.4047  0.0902
12207SOL    HW247841   2.392   5.722   3.382  1.4481  1.3392  0.1535
12208SOL     OW47842   6.649   8.789   5.343 -0.8660  0.3217  0.5340
12208SOL    HW147843   6.648   8.878   5.299 -1.8692 -0.2481 -0.6275
12208SOL    HW247844   6.744   8.762   5.361 -0.4313  0.6204 -1.1897
12209SOL     OW47845   8.718   0.232   2.383  0.0946  0.1725  0.1320
12209SOL    HW147846   8.786   0.283   2.435 -0.5363  2.7798 -1.5037
12209SOL    HW247847   8.760   0.148   2.347  2.1911  1.2419 -0.0298
12210SOL     OW47848   1.726   2.157   3.308 -0.0028 -0.1260  0.8332
12210SOL    HW147849   1.704   2.062   3.329  0.0503  0.0859  1.8582
12210SOL    HW247850   1.674   2.218   3.367  1.2442  0.4385  1.3746
12211SOL     OW47851   7.196   0.679   5.002 -0.7572  0.6624  0.1679
12211SOL    HW147852   7.207   0.589   5.044  1.0479  0.0776 -1.5361
12211SOL    HW247853   7.100   0.708   5.012 -1.3825 -1.4628  0.6656
12212SOL     OW47854   0.171   9.158   6.341 -0.2980 -0.0035  0.0297
12212SOL    HW147855   0.258   9.207   6.346 -0.3893  0.3037 -1.0877
12212SOL    HW247856   0.166   9.108   6.254 -1.7433  1.0013 -0.4899
12213SOL     OW47857   1.554   3.040   3.172  0.1581  0.1620 -0.3564
12213SOL    HW147858   1.486   2.985   3.219 -0.3894  0.7589 -0.4503
12213SOL    HW247859   1.532   3.043   3.074  0.9928 -0.6343 -0.5815
12214SOL     OW47860   4.580   0.149   5.086 -0.2441  0.2194 -0.3764
12214SOL    HW147861   4.584   0.166   5.185 -0.4156 -1.8945  0.0006
12214SOL    HW247862   4.506   0.203   5.046 -0.4554  0.7413  0.7040
12215SOL     OW47863   1.488   9.315   1.317  0.3965 -0.1734 -0.4460
12215SOL    HW147864   1.438   9.230   1.300 -0.0309  0.2089 -1.1100
12215SOL    HW247865   1.575   9.312   1.267  1.0660 -0.8447  0.7247
12216SOL     OW47866   5.324   2.667   3.731  0.7977  0.3103 -0.4109
12216SOL    HW147867   5.270   2.698   3.809  0.7379  0.6800 -0.5981
12216SOL    HW247868   5.380   2.589   3.758 -1.1354 -1.1917 -0.6589
12217SOL     OW47869   6.531   1.893   4.340 -0.2106  0.2436  0.3058
12217SOL    HW147870   6.528   1.795   4.322  0.9828  0.4721 -1.3174
12217SOL    HW247871   6.516   1.910   4.437 -3.0439 -1.3505  0.1838
12218SOL     OW47872   1.883   8.567   0.312  0.1881 -0.3414 -0.0800
12218SOL    HW147873   1.936   8.649   0.293 -0.0073 -0.4477 -1.1538
12218SOL    HW247874   1.788   8.591   0.327  0.3687 -0.2418  0.9498
12219SOL     OW47875   0.882   1.981   3.705  0.0574  0.6443  0.2593
12219SOL    HW147876   0.878   2.033   3.790 -1.4392 -0.4517  0.8869
12219SOL    HW247877   0.971   1.994   3.662  1.6525 -0.4992  3.0775
12220SOL     OW47878   3.837   8.028   0.166  0.2409 -0.5368  0.1259
12220SOL    HW147879   3.802   8.121   0.153  1.0304 -0.0191  1.5703
12220SOL    HW247880   3.863   7.989   0.078 -0.2521  0.5501 -0.5084
12221SOL     OW47881   8.687   9.130   1.591 -0.2186 -0.6840  0.8368
12221SOL    HW147882   8.638   9.081   1.518  3.6006  1.9494 -3.7298
12221SOL    HW247883   8.644   9.220   1.604 -0.7413 -1.0550  1.7096
12222SOL     OW47884   7.424   9.921   3.986  0.0783 -0.1289  0.0265
12222SOL    HW147885   7.502   9.972   4.022  0.5458 -0.9111  0.1240
12222SOL    HW247886   7.452   9.868   3.906 -0.0827 -1.2797  0.7217
12223SOL     OW47887   4.325   4.254   1.696 -0.1345 -0.3541  0.3509
12223SOL    HW147888   4.299   4.342   1.656  1.5569 -0.3770 -0.8512
12223SOL    HW247889   4.268   4.182   1.657  1.1267 -0.3027 -1.6608
12224SOL     OW47890   1.156   7.902   0.590 -0.5251  0.1319  0.6845
12224SOL    HW147891   1.207   7.988   0.582 -0.2536 -0.1150 -0.3559
12224SOL    HW247892   1.082   7.901   0.522 -0.1793 -0.6833  0.3159
12225SOL     OW47893   8.203   6.267   6.066  0.5554 -0.2442 -0.3589
12225SOL    HW147894   8.274   6.277   6.136 -1.1161 -0.5853  1.4186
12225SOL    HW247895   8.211   6.341   6.000  3.1573 -0.8004 -0.7203
12226SOL     OW47896   4.307   9.876   2.859 -0.1982  0.0379 -0.0087
12226SOL    HW147897   4.308   9.906   2.763  0.9967 -0.6726 -0.2243
12226SOL    HW247898   4.400   9.872   2.894 -0.4992 -1.4094  0.6528
12227SOL     OW47899   2.127   6.525   2.236 -0.2150  0.2877 -0.2853
12227SOL    HW147900   2.205   6.480   2.193  0.0627 -1.5323  2.0307
12227SOL    HW247901   2.043   6.482   2.206 -0.1599  0.4701 -0.6995
12228SOL     OW47902   6.614   1.815   0.453  0.1051  0.3483  0.6701
12228SOL    HW147903   6.530   1.864   0.435 -0.6672 -1.1363  0.1793
12228SOL    HW247904   6.649   1.774   0.369 -1.2182 -2.9660  1.6414
12229SOL     OW47905   7.558   8.993   5.138  0.3355 -0.6387 -0.1841
12229SOL    HW147906   7.653   8.967   5.155 -0.3691 -2.1595  1.6061
12229SOL    HW247907   7.511   9.007   5.225 -1.2110 -0.3508 -1.0458
12230SOL     OW47908   0.642   9.748   4.138  0.0803  0.2996 -0.1292
12230SOL    HW147909   0.693   9.833   4.134  1.9037 -0.8365 -1.4019
12230SOL    HW247910   0.580   9.742   4.060  0.5620  0.0833 -0.4970
12231SOL     OW47911   3.852   1.079   3.598 -0.0193  0.4082  0.0013
12231SOL    HW147912   3.808   0.990   3.582  0.4434  0.2790 -0.5885
12231SOL    HW247913   3.928   1.067   3.663  0.6873  0.1785 -0.8546
12232SOL     OW47914   3.378   8.323   3.223 -0.5053 -0.1610  0.2343
12232SOL    HW147915   3.340   8.364   3.140  0.1285  0.0481  0.0438
12232SOL    HW247916   3.351   8.227   3.228  0.3530 -0.4629 -0.7768
12233SOL     OW47917   8.860   6.607   4.869 -0.7196  0.6239  0.1009
12233SOL    HW147918   8.812   6.633   4.784 -0.5825  0.5807  0.0097
12233SOL    HW247919   8.793   6.582   4.938 -0.7810 -1.7401 -0.7653
12234SOL     OW47920   5.519   8.866   2.198  0.6157  0.5768  0.5622
12234SOL    HW147921   5.472   8.803   2.260  2.6216 -0.5970  0.9391
12234SOL    HW247922   5.505   8.836   2.104  2.6997 -1.3235  0.7987
12235SOL     OW47923   1.889   9.628   2.657  0.1664 -0.4913 -0.0521
12235SOL    HW147924   1.868   9.551   2.717 -0.2629 -1.1217 -1.0116
12235SOL    HW247925   1.805   9.680   2.639  0.0998 -0.9284 -0.9857
12236SOL     OW47926   1.276   1.206   5.832 -0.3600  0.0718  0.2773
12236SOL    HW147927   1.283   1.258   5.747 -1.0872 -1.0538 -0.4897
12236SOL    HW247928   1.182   1.209   5.865 -0.5231 -1.1300 -0.0342
12237SOL     OW47929   8.737   2.027   0.424  0.1132 -0.4456 -0.0992
12237SOL    HW147930   8.654   2.001   0.375  0.1234 -0.3069 -0.1897
12237SOL    HW247931   8.783   2.101   0.375 -0.2662  0.1959  0.5121
12238SOL     OW47932   3.818   6.860   5.027  0.1821 -0.2520  0.1024
12238SOL    HW147933   3.777   6.856   4.936  0.8468 -1.5544 -0.1370
12238SOL    HW247934   3.772   6.796   5.088 -2.3128  2.7402  1.5532
12239SOL     OW47935   0.243   3.190   3.116  1.1408 -0.2503  0.7847
12239SOL    HW147936   0.250   3.107   3.060  1.7910  0.4248 -0.1460
12239SOL    HW247937   0.321   3.249   3.098  0.5591  0.6798  1.2715
12240SOL     OW47938   9.087   3.606   2.521 -0.6312  0.2429 -0.1813
12240SOL    HW147939   9.104   3.515   2.559  0.6658 -0.9822 -3.5677
12240SOL    HW247940   9.068   3.670   2.596 -2.5961 -2.9852  2.1717
12241SOL     OW47941   5.257   6.895   2.701  0.0659  0.2416 -0.0462
12241SOL    HW147942   5.310   6.834   2.642  0.5513  0.2909  0.3397
12241SOL    HW247943   5.280   6.990   2.679 -1.7412  0.3499 -1.6434
12242SOL     OW47944   1.987   7.018   0.925 -0.1370  0.2928  0.2597
12242SOL    HW147945   2.028   6.929   0.907  0.7676  0.6474  0.5496
12242SOL    HW247946   1.949   7.056   0.840  1.5378  0.6649 -0.3418
12243SOL     OW47947   8.010   7.315   3.868 -0.6078  0.3697  0.1126
12243SOL    HW147948   7.954   7.299   3.949  0.3565  2.3048  1.1957
12243SOL    HW247949   7.979   7.399   3.823 -0.7506 -0.3747 -1.1877
12244SOL     OW47950   2.208   1.548   5.768 -0.1833 -0.4931  0.4469
12244SOL    HW147951   2.174   1.456   5.750 -0.0709 -0.8332  1.8790
12244SOL    HW247952   2.131   1.610   5.785 -0.2413 -0.4210 -0.0832
12245SOL     OW47953   9.673   7.749   6.273  0.4428  0.1306 -0.5306
12245SOL    HW147954   9.602   7.723   6.338  0.2269  1.0586 -0.3860
12245SOL    HW247955   9.705   7.668   6.224  1.4109 -0.7639  1.5214
12246SOL     OW47956   1.851   5.663   5.175  0.4552 -0.2264  0.0140
12246SOL    HW147957   1.782   5.666   5.247  1.5367 -1.4977  1.1327
12246SOL    HW247958   1.845   5.746   5.119 -1.4102  0.0534  0.6032
12247SOL     OW47959   0.957   5.289   3.138  0.5058 -0.1633  0.2553
12247SOL    HW147960   0.975   5.387   3.128  0.4044 -0.0314  1.3247
12247SOL    HW247961   1.034   5.245   3.184 -0.1053 -0.3113  1.1556
12248SOL     OW47962   0.411   4.733   1.734  0.2893  0.0140  0.0290
12248SOL    HW147963   0.463   4.691   1.809 -0.3915  1.2311  1.2189
12248SOL    HW247964   0.316   4.744   1.762  0.0533  0.5723 -0.9818
12249SOL     OW47965   8.707   9.991   0.757  0.0317 -0.0799 -0.2028
12249SOL    HW147966   8.677   9.990   0.662 -0.2799  1.4678 -0.1207
12249SOL    HW247967   8.649   9.929   0.811 -1.4107  0.9838 -0.5236
12250SOL     OW47968   1.432   1.579   0.021 -0.0420 -0.0822  0.2432
12250SOL    HW147969   1.409   1.669  -0.015  2.6854  1.1217  1.2934
12250SOL    HW247970   1.410   1.576   0.119  1.1841 -0.0229  0.5314
12251SOL     OW47971   5.605   1.360   0.660  0.4627 -0.5492  0.6972
12251SOL    HW147972   5.510   1.332   0.672 -0.3573  1.2474 -1.4338
12251SOL    HW247973   5.619   1.449   0.702  0.3549  0.6782 -1.7841
12252SOL     OW47974   2.661   2.012   0.339  0.2685  0.1712 -0.0387
12252SOL    HW147975   2.674   1.991   0.243  0.1368 -0.2004  0.0266
12252SOL    HW247976   2.668   2.111   0.353 -0.3178  0.2818 -0.5197
12253SOL     OW47977   3.591   9.841   6.722  0.4797  0.4281  0.2521
12253SOL    HW147978   3.582   9.747   6.690 -2.2861  0.8943 -0.4720
12253SOL    HW247979   3.536   9.901   6.664  1.3502  2.3562  1.3692
12254SOL     OW47980   0.377   7.387   0.556  0.3574  0.6475 -0.3341
12254SOL    HW147981   0.477   7.384   0.550  0.2602 -1.2214 -1.5748
12254SOL    HW247982   0.349   7.370   0.651  1.1879 -0.9682 -0.3499
12255SOL     OW47983   1.011   6.346   0.773  0.1288 -0.3314  0.1945
12255SOL    HW147984   0.979   6.439   0.755 -1.0427 -0.8508 -0.4918
12255SOL    HW247985   0.972   6.313   0.859  0.0139 -0.4354  0.1015
12256SOL     OW47986   0.070   5.331   3.312  0.3523  0.0572 -0.4341
12256SOL    HW147987   0.004   5.405   3.296  0.3196 -0.0799 -0.9195
12256SOL    HW247988   0.047   5.285   3.398 -0.7748 -0.6082 -1.0705
12257SOL     OW47989   2.877   8.490   6.141 -0.1514  0.1797 -0.1207
12257SOL    HW147990   2.873   8.531   6.232  0.5804  2.6153 -1.1606
12257SOL    HW247991   2.917   8.399   6.148 -2.7350 -0.8585  2.3644
12258SOL     OW47992   7.224   6.769   5.615  0.3170  0.4640  0.1577
12258SOL    HW147993   7.197   6.753   5.710 -0.1138  0.8654  0.1035
12258SOL    HW247994   7.267   6.859   5.608 -2.2047  1.6464 -0.5474
12259SOL     OW47995   0.793   2.943   2.909  0.1897  0.2571 -0.5233
12259SOL    HW147996   0.717   2.949   2.844 -0.2037  1.1370  0.0012
12259SOL    HW247997   0.873   2.905   2.863  0.0695  1.3557 -1.6845
12260SOL     OW47998   1.164   7.716   3.051  0.5220  0.3340 -0.2910
12260SOL    HW147999   1.225   7.685   2.978 -0.1209 -0.1947 -0.6137
12260SOL    HW248000   1.209   7.788   3.105  1.5542 -0.2879 -0.3105
12261SOL     OW48001   4.198   5.600   0.193 -0.3293 -0.0112  0.5628
12261SOL    HW148002   4.296   5.583   0.187 -0.3137  0.7632 -2.0697
12261SOL    HW248003   4.175   5.633   0.284  1.7956 -0.5533  1.3142
12262SOL     OW48004   6.214   8.769   2.623 -0.5183  0.7930  0.1147
12262SOL    HW148005   6.286   8.812   2.569 -0.8397  1.1321 -0.0386
12262SOL    HW248006   6.245   8.759   2.717  0.4400 -0.7242 -0.3378
12263SOL     OW48007   2.872   6.606   6.222 -0.4902 -0.1301  0.0014
12263SOL    HW148008   2.848   6.570   6.312 -0.2089 -1.8913 -0.6138
12263SOL    HW248009   2.925   6.538   6.172  0.2444  1.2350 -1.1160
12264SOL     OW48010   6.174   1.280   4.716  0.2971  0.8556  0.3086
12264SOL    HW148011   6.219   1.215   4.777  1.1997  0.6504 -0.5571
12264SOL    HW248012   6.237   1.306   4.643 -0.7364  1.1680 -0.4880
12265SOL     OW48013   1.726   0.498   1.394 -0.4409 -0.1909 -0.1452
12265SOL    HW148014   1.742   0.464   1.301 -0.8464  2.1165 -1.0937
12265SOL    HW248015   1.803   0.472   1.453  1.3130  0.9030 -1.8819
12266SOL     OW48016   2.481   5.770   3.873 -0.3333 -0.4284  0.1549
12266SOL    HW148017   2.563   5.781   3.817 -1.0745 -0.5192 -0.9741
12266SOL    HW248018   2.474   5.675   3.904  0.0515 -0.3920  0.3481
12267SOL     OW48019   3.485   5.374   4.121 -0.0113  1.2479  0.2834
12267SOL    HW148020   3.520   5.286   4.087 -3.5254  0.2811 -1.0681
12267SOL    HW248021   3.542   5.406   4.197  1.1928 -2.3293  0.9772
12268SOL     OW48022   8.669   6.080   6.276  0.1072 -0.0853  0.1754
12268SOL    HW148023   8.708   6.056   6.365 -0.6731  2.0342  1.1133
12268SOL    HW248024   8.645   6.177   6.275  1.9208  0.3936 -3.0320
12269SOL     OW48025   8.973   7.046   2.871 -0.1421 -0.4069 -0.0671
12269SOL    HW148026   8.958   6.967   2.810 -0.6131  1.7808 -2.8764
12269SOL    HW248027   9.070   7.065   2.876 -0.2078  0.4193 -1.5299
12270SOL     OW48028   3.210   1.974   6.115 -0.3757  0.3898 -0.0589
12270SOL    HW148029   3.131   2.027   6.147 -0.3622  0.2964  0.1253
12270SOL    HW248030   3.186   1.877   6.113 -0.2345  0.3538  0.0771
12271SOL     OW48031   4.450   4.966   3.696 -0.4249  0.3482  0.1414
12271SOL    HW148032   4.472   4.952   3.599  2.9639  1.2241  0.7097
12271SOL    HW248033   4.501   4.901   3.752 -2.3138 -0.1114  1.3873
12272SOL     OW48034   1.466   5.475   6.209  0.2710 -0.1049  0.1425
12272SOL    HW148035   1.544   5.453   6.267  0.1130 -0.4112  0.2415
12272SOL    HW248036   1.452   5.574   6.208  0.6282 -0.0542  0.1649
12273SOL     OW48037   4.000   4.803   6.750  0.4670  0.1790 -0.1549
12273SOL    HW148038   3.909   4.764   6.738  0.7260 -0.1987 -0.9002
12273SOL    HW248039   4.024   4.856   6.669  0.6430  0.8420  0.3183
12274SOL     OW48040   0.052   9.139   4.938 -0.1234  0.5499  0.4937
12274SOL    HW148041   0.079   9.114   4.845 -1.1354  2.8638 -0.4692
12274SOL    HW248042   0.128   9.120   5.001  0.4865 -1.2578 -0.7355
12275SOL     OW48043   8.831   9.816   1.690 -0.0804  0.9499 -0.3737
12275SOL    HW148044   8.852   9.862   1.776 -1.3681  0.9216 -0.0210
12275SOL    HW248045   8.907   9.756   1.664  1.1476  2.4519 -0.2799
12276SOL     OW48046   1.890   6.435   2.151 -0.4549 -0.3316 -0.6054
12276SOL    HW148047   1.837   6.360   2.191  0.4621  0.7159  2.7797
12276SOL    HW248048   1.834   6.518   2.150 -0.6730 -0.4944 -2.0970
12277SOL     OW48049   8.123   2.748   2.082  0.2824  0.5646  0.2082
12277SOL    HW148050   8.178   2.832   2.086 -0.0129  0.8153 -0.7551
12277SOL    HW248051   8.097   2.721   2.175  2.4135  0.1751  0.7317
12278SOL     OW48052   3.764   1.304   2.736 -0.6511  0.4351 -0.1668
12278SOL    HW148053   3.671   1.274   2.713 -0.6731  1.4112 -1.3773
12278SOL    HW248054   3.830   1.236   2.704 -0.8677  0.3676 -0.4663
12279SOL     OW48055   2.189   6.509   0.805  0.2013  0.5512  0.2603
12279SOL    HW148056   2.264   6.498   0.870 -0.0767  1.0196  0.6652
12279SOL    HW248057   2.128   6.430   0.809  0.2879  0.4943  0.4328
12280SOL     OW48058   1.155   5.801   3.844 -0.2370 -0.0481 -0.0293
12280SOL    HW148059   1.172   5.803   3.745  0.7358 -1.6138  0.0915
12280SOL    HW248060   1.242   5.799   3.893 -0.7216 -0.1999  0.8353
12281SOL     OW48061   9.709   7.860   2.947  0.2333 -0.1062  0.0071
12281SOL    HW148062   9.638   7.915   2.992 -1.4581 -1.1814 -1.2721
12281SOL    HW248063   9.666   7.788   2.893  2.2709  0.2483 -2.1734
12282SOL     OW48064   9.859   7.956   4.734  0.1701  0.4000 -0.1410
12282SOL    HW148065   9.955   7.982   4.722  0.8356 -1.1757  1.5235
12282SOL    HW248066   9.839   7.950   4.832 -1.2648 -0.6338 -0.4906
12283SOL     OW48067   3.156   2.997   2.303 -0.3242  0.4305  0.0276
12283SOL    HW148068   3.203   2.916   2.267 -0.0764  0.6490 -0.1433
12283SOL    HW248069   3.205   3.031   2.383 -1.1754 -0.3685  0.8970
12284SOL     OW48070   9.062   2.860   3.620 -0.0745  0.9381  0.1182
12284SOL    HW148071   9.080   2.766   3.647  0.9637  0.7455 -1.1813
12284SOL    HW248072   8.965   2.880   3.630 -0.4074 -0.4666 -0.2093
12285SOL     OW48073   6.681   2.254   2.607  0.4432 -0.0101  0.7059
12285SOL    HW148074   6.737   2.173   2.591  1.3246  0.6790  0.2664
12285SOL    HW248075   6.711   2.328   2.547 -1.3060  0.2013  0.0404
12286SOL     OW48076   1.280   9.269   6.502  0.3365 -0.1995 -0.4628
12286SOL    HW148077   1.369   9.314   6.507  1.2970 -2.0677 -0.1759
12286SOL    HW248078   1.228   9.290   6.585  0.5258  0.8606 -0.6068
12287SOL     OW48079   8.679   7.848   0.789  0.4331 -0.3691  0.7604
12287SOL    HW148080   8.701   7.763   0.837 -0.6096 -0.7379  0.5994
12287SOL    HW248081   8.619   7.828   0.712 -1.9364  0.8071  2.2593
12288SOL     OW48082   0.710   1.797   3.614 -0.2778  0.2183 -0.2131
12288SOL    HW148083   0.758   1.730   3.557  0.7029  0.0799  0.7620
12288SOL    HW248084   0.776   1.859   3.656 -0.9634  0.1530  0.9855
12289SOL     OW48085   4.752   1.333   5.758  0.1730 -0.7541  0.3331
12289SOL    HW148086   4.775   1.236   5.765 -0.7638 -1.0604 -0.6719
12289SOL    HW248087   4.701   1.361   5.840 -2.7758 -2.0440 -0.9921
12290SOL     OW48088   9.797   3.613   2.517 -0.4955 -0.0085 -0.4379
12290SOL    HW148089   9.714   3.666   2.503 -0.9092 -0.3190  0.7943
12290SOL    HW248090   9.777   3.515   2.507 -0.3637 -0.1068  0.2204
12291SOL     OW48091   1.323   6.947   5.862 -0.5499 -0.7480  0.3898
12291SOL    HW148092   1.403   6.973   5.915  1.1998 -0.2111 -2.4061
12291SOL    HW248093   1.291   6.856   5.889  1.3941 -1.2263  1.0875
12292SOL     OW48094   1.701   7.198   6.096  0.3501  0.0414 -0.0118
12292SOL    HW148095   1.681   7.197   6.194  1.1483  0.0515  0.1582
12292SOL    HW248096   1.666   7.114   6.054  0.2661 -0.0978  0.3342
12293SOL     OW48097   2.670   8.321   4.300 -0.2148 -0.1871  0.1118
12293SOL    HW148098   2.735   8.289   4.369  1.5483  0.8960 -0.9967
12293SOL    HW248099   2.586   8.351   4.345  0.3806 -0.7998  1.6687
12294SOL     OW48100   3.468   2.270   4.667 -0.3810 -0.2300 -0.3899
12294SOL    HW148101   3.400   2.306   4.604 -0.8702 -0.8846 -0.2370
12294SOL    HW248102   3.467   2.170   4.665 -1.2337 -0.2933  1.5150
12295SOL     OW48103   7.074   0.917   3.445  0.6288  0.2681 -0.3773
12295SOL    HW148104   7.171   0.894   3.437  0.7534  0.6254  0.0755
12295SOL    HW248105   7.030   0.909   3.355  1.0996  0.2115 -0.6031
12296SOL     OW48106   9.970   1.792   0.292 -0.3138 -0.1847 -0.0050
12296SOL    HW148107  10.006   1.885   0.304  0.7738 -0.9781  3.2637
12296SOL    HW248108  10.011   1.752   0.209  0.4785  1.6397 -0.5419
12297SOL     OW48109   6.410   7.589   2.327 -0.1626 -0.5123 -0.2478
12297SOL    HW148110   6.501   7.615   2.358 -0.3093 -0.6723  0.3168
12297SOL    HW248111   6.400   7.490   2.332 -0.5668 -0.4466  0.2418
12298SOL     OW48112   0.508   2.413   5.265  0.1152 -0.6199  0.3063
12298SOL    HW148113   0.409   2.423   5.256  0.2812  0.1375 -0.7744
12298SOL    HW248114   0.546   2.495   5.309  0.3574 -0.4993 -0.1160
12299SOL     OW48115   2.866   7.956   4.250 -0.9631 -0.3070  0.6232
12299SOL    HW148116   2.793   7.913   4.303 -1.5941 -0.5309 -0.4135
12299SOL    HW248117   2.837   7.967   4.155  0.2270 -0.0902  0.2684
12300SOL     OW48118   5.206   8.535   4.016 -0.2143  0.2505 -0.2690
12300SOL    HW148119   5.191   8.492   3.927  1.5914 -1.0576  0.0466
12300SOL    HW248120   5.129   8.513   4.077 -0.7494 -0.0409 -1.0360
12301SOL     OW48121   9.750   3.841   0.835 -0.4628  0.2927 -0.2899
12301SOL    HW148122   9.778   3.928   0.877 -1.5811  0.5350 -0.0348
12301SOL    HW248123   9.805   3.767   0.874  1.0105  0.9670 -1.0515
12302SOL     OW48124   0.261   9.542   4.173 -0.1691 -0.4750  0.2217
12302SOL    HW148125   0.273   9.475   4.100  0.7719 -1.7646  1.5343
12302SOL    HW248126   0.305   9.509   4.257 -0.3265  1.4458  1.0990
12303SOL     OW48127   0.064   8.530   3.106  0.2428 -0.2774 -0.0216
12303SOL    HW148128   0.044   8.433   3.115  0.2724 -0.2508  0.3583
12303SOL    HW248129   0.156   8.548   3.141  0.4457 -0.2024 -0.6027
12304SOL     OW48130   3.645   7.595   2.633 -0.5472  0.0829  0.3001
12304SOL    HW148131   3.679   7.595   2.539 -2.8498  3.4759 -0.6005
12304SOL    HW248132   3.722   7.588   2.696  1.2483  0.4471 -1.7876
12305SOL     OW48133   3.422   0.718   1.724  0.4645  0.9683 -0.0333
12305SOL    HW148134   3.368   0.800   1.707 -1.3612 -0.0492  0.6565
12305SOL    HW248135   3.397   0.680   1.814 -0.8789 -1.9394 -1.5595
12306SOL     OW48136   5.051   3.098   3.262 -0.0627 -0.2886  0.3749
12306SOL    HW148137   5.070   3.003   3.236 -0.0817 -0.5991  1.4599
12306SOL    HW248138   5.086   3.114   3.354  0.5808  0.9751 -0.0900
12307SOL     OW48139   4.294   1.734   3.516  0.0696  0.2472  1.3215
12307SOL    HW148140   4.277   1.637   3.497  0.1535 -0.0168  2.5701
12307SOL    HW248141   4.307   1.747   3.614  1.7032  1.2632  0.9937
12308SOL     OW48142   4.435   7.313   1.295 -0.3767  0.0761 -0.1619
12308SOL    HW148143   4.442   7.398   1.346  0.8522 -0.7031  0.9839
12308SOL    HW248144   4.360   7.320   1.229  0.1765  2.2979 -0.5947
12309SOL     OW48145   7.883   0.124   6.325 -0.0502 -0.4520  0.2544
12309SOL    HW148146   7.839   0.214   6.329  0.2111 -0.3128  0.0325
12309SOL    HW248147   7.976   0.131   6.363  0.4306 -0.3447 -0.9356
12310SOL     OW48148   9.738   4.903   1.831 -0.2664 -0.1742  0.0600
12310SOL    HW148149   9.687   4.862   1.756 -1.9960  0.7825  0.6965
12310SOL    HW248150   9.729   5.002   1.828  0.8754 -0.0412  0.6777
12311SOL     OW48151   0.934   3.701   4.734  0.0886  1.0833 -0.3514
12311SOL    HW148152   0.928   3.766   4.659  1.8319 -0.5483 -1.9502
12311SOL    HW248153   1.020   3.650   4.728  0.1331  0.7173  2.5839
12312SOL     OW48154   3.730   2.556   1.731 -0.7569 -0.3858  0.0154
12312SOL    HW148155   3.791   2.603   1.796 -0.4910 -0.2199 -0.3503
12312SOL    HW248156   3.785   2.519   1.656 -0.9633 -1.2905  0.3048
12313SOL     OW48157   1.796   8.807   4.306  0.5901 -0.0463 -0.3572
12313SOL    HW148158   1.854   8.748   4.362  0.3275 -0.5337 -0.5928
12313SOL    HW248159   1.726   8.751   4.261 -0.8840  0.6972  0.9521
12314SOL     OW48160   8.450   4.288   6.687  0.8896 -0.2040 -0.5479
12314SOL    HW148161   8.385   4.314   6.758  0.7192  0.8560 -1.0814
12314SOL    HW248162   8.532   4.248   6.729  0.9224  0.6937  0.2522
12315SOL     OW48163   1.594   7.136   5.089 -0.8098  0.0437  0.2034
12315SOL    HW148164   1.547   7.082   5.158 -2.4028  2.0609  0.7704
12315SOL    HW248165   1.526   7.189   5.037  0.5098 -0.1923 -1.8005
12316SOL     OW48166   6.437   9.436   4.656  0.3720  0.1789 -0.3387
12316SOL    HW148167   6.454   9.492   4.575  0.5061 -0.8133 -1.0017
12316SOL    HW248168   6.505   9.363   4.661 -0.2836 -0.4014  0.0988
12317SOL     OW48169   0.702   7.626   1.500  0.2759 -0.4387  0.1875
12317SOL    HW148170   0.794   7.587   1.510  0.0108 -1.2990 -0.6910
12317SOL    HW248171   0.639   7.579   1.562  0.1269 -0.8510 -0.2748
12318SOL     OW48172   9.450   4.144   4.733 -0.1086  0.4717 -0.3440
12318SOL    HW148173   9.417   4.052   4.715 -0.4233  0.4713  0.2199
12318SOL    HW248174   9.390   4.188   4.800  0.3676  0.8856 -0.1885
12319SOL     OW48175   7.135   8.862   2.148 -0.5618 -0.0050 -0.3787
12319SOL    HW148176   7.225   8.841   2.110 -0.2999  0.9534 -0.3013
12319SOL    HW248177   7.069   8.796   2.114  0.0088 -0.2016 -1.1283
12320SOL     OW48178   4.064   3.734   2.825 -0.3958 -0.2545 -0.0163
12320SOL    HW148179   4.055   3.807   2.893 -1.5464  1.0232 -1.4949
12320SOL    HW248180   3.973   3.709   2.791  0.2204 -0.1935 -1.7732
12321SOL     OW48181   2.356   1.645   0.260  0.5140 -0.1066  0.0261
12321SOL    HW148182   2.433   1.595   0.299 -0.0978  0.2625  1.7897
12321SOL    HW248183   2.331   1.720   0.321 -2.2441 -1.1985  0.3039
12322SOL     OW48184   2.061   6.984   5.423  0.1914 -0.2113 -0.9006
12322SOL    HW148185   2.022   7.015   5.510  0.9187  0.3322 -0.7601
12322SOL    HW248186   2.011   6.904   5.391  0.4860 -0.9740  0.4893
12323SOL     OW48187   1.318   3.814   4.814  0.2839 -0.6076 -0.1813
12323SOL    HW148188   1.314   3.734   4.873 -1.5130 -0.4241 -0.0194
12323SOL    HW248189   1.388   3.801   4.744  1.4498 -1.4280  1.1160
12324SOL     OW48190   9.323   3.187   5.865 -0.0582 -0.2404 -0.2805
12324SOL    HW148191   9.317   3.150   5.773 -0.1065  0.2634 -0.4825
12324SOL    HW248192   9.270   3.271   5.871 -1.5303 -1.2307  0.7084
12325SOL     OW48193   4.172   2.301   1.824 -0.1916 -0.0063  0.0225
12325SOL    HW148194   4.193   2.335   1.916  0.5285 -1.7711  0.5264
12325SOL    HW248195   4.073   2.296   1.813 -0.3019  1.3918  0.2538
12326SOL     OW48196   4.814   3.995   2.234 -0.7115  0.3210 -0.1891
12326SOL    HW148197   4.767   4.082   2.215 -1.5815 -0.3999 -1.4530
12326SOL    HW248198   4.749   3.931   2.275 -0.1347  0.1895  0.5151
12327SOL     OW48199   1.038   7.297   5.167 -0.0020  0.0121  0.4105
12327SOL    HW148200   1.062   7.344   5.082  1.2103  1.4952  1.5591
12327SOL    HW248201   1.004   7.363   5.234 -3.7955 -1.5094  0.1346
12328SOL     OW48202   9.189   3.402   5.953  0.1490  0.1998  0.3921
12328SOL    HW148203   9.156   3.472   5.889  0.7364  0.8689  0.8110
12328SOL    HW248204   9.111   3.363   6.002 -0.3488 -0.6333 -1.0393
12329SOL     OW48205   1.242   1.038   4.999  0.2561 -0.0858 -0.2529
12329SOL    HW148206   1.280   0.952   5.034  1.4766  0.9357  0.9808
12329SOL    HW248207   1.317   1.095   4.965 -0.0464  2.2174  2.7714
12330SOL     OW48208   2.016   9.193   6.644  0.7864 -0.2172  0.2928
12330SOL    HW148209   2.048   9.268   6.701  0.3656  0.4246 -0.2974
12330SOL    HW248210   2.053   9.107   6.677 -0.9589 -0.0885  2.6812
12331SOL     OW48211   7.529   2.046   5.494 -0.1059  0.1546  0.7092
12331SOL    HW148212   7.479   1.959   5.484 -0.5658  0.4089  0.7788
12331SOL    HW248213   7.532   2.071   5.591  1.4046 -0.5854  0.8590
12332SOL     OW48214   8.410   6.560   4.154  0.3414 -0.2074  0.2692
12332SOL    HW148215   8.310   6.565   4.152  0.4248  1.5461 -0.1154
12332SOL    HW248216   8.440   6.523   4.242 -0.6791 -2.2668 -0.2040
12333SOL     OW48217   5.063   4.704   1.089  0.6323  0.1068 -0.1044
12333SOL    HW148218   4.980   4.756   1.069 -0.3575 -1.3546  0.0665
12333SOL    HW248219   5.138   4.766   1.113 -1.1532  1.3449  2.5049
12334SOL     OW48220   8.728   2.861   5.665  0.2423  0.0660  0.4768
12334SOL    HW148221   8.725   2.763   5.687 -2.6662  0.2502  1.1294
12334SOL    HW248222   8.696   2.914   5.743  1.4639  1.5325  0.0078
12335SOL     OW48223   2.434   5.584   5.942 -0.4316 -0.1609 -0.3659
12335SOL    HW148224   2.502   5.547   6.005 -0.5770 -0.9949 -0.6916
12335SOL    HW248225   2.451   5.681   5.927  1.7816 -0.7376 -1.8223
12336SOL     OW48226   2.600   1.654   1.688 -0.7262 -0.1461  0.1514
12336SOL    HW148227   2.520   1.686   1.637 -0.2912  1.7300  0.5878
12336SOL    HW248228   2.680   1.655   1.628 -0.3127  1.5882  0.6890
12337SOL     OW48229   6.840   8.676   5.005 -0.3454  0.3889 -0.3478
12337SOL    HW148230   6.854   8.769   4.971  1.3850  1.5870  3.3184
12337SOL    HW248231   6.922   8.622   4.989 -0.6528  0.0524 -0.7938
12338SOL     OW48232   0.293   3.622   0.089  0.1433  0.8391  0.0300
12338SOL    HW148233   0.286   3.528   0.120 -0.9910  0.7722 -0.3954
12338SOL    HW248234   0.372   3.632   0.028 -0.4117 -0.1067 -0.8560
12339SOL     OW48235   3.047   1.847   2.975 -0.1925  0.6381 -0.3126
12339SOL    HW148236   3.000   1.771   3.020 -0.0275  0.2764 -0.7477
12339SOL    HW248237   3.020   1.933   3.018 -0.9420  0.3980 -0.3023
12340SOL     OW48238   1.742   7.959   1.232 -0.1839 -0.1561 -0.4591
12340SOL    HW148239   1.701   7.911   1.310  0.6013  0.2261  0.2015
12340SOL    HW248240   1.703   8.050   1.225  1.9520  0.9678  1.4233
12341SOL     OW48241   4.241   4.598   0.207  0.5012  0.1417  0.5741
12341SOL    HW148242   4.190   4.527   0.159  0.6927  0.2550  0.2022
12341SOL    HW248243   4.203   4.687   0.186 -1.7606 -0.0537  3.5277
12342SOL     OW48244   1.910   3.819   1.529 -0.0938 -0.1734  0.6882
12342SOL    HW148245   1.827   3.833   1.476  0.1827 -0.3151  0.2118
12342SOL    HW248246   1.895   3.846   1.623  0.3046  3.0373 -0.1102
12343SOL     OW48247   0.202   7.406   4.693  0.2091  0.1996  0.0322
12343SOL    HW148248   0.261   7.362   4.625  0.9456  1.1838  0.0273
12343SOL    HW248249   0.187   7.501   4.668  0.3764  0.5393  1.1706
12344SOL     OW48250   1.768   3.629   6.235  0.2306 -0.4657  0.3240
12344SOL    HW148251   1.676   3.595   6.220  0.0371  0.7948 -1.3794
12344SOL    HW248252   1.767   3.696   6.310 -0.3889  0.2641 -0.3404
12345SOL     OW48253   9.891   0.254   4.248  0.0040 -0.4934 -0.0927
12345SOL    HW148254   9.961   0.191   4.282  0.3521  0.3398  0.7703
12345SOL    HW248255   9.828   0.277   4.322  0.5624  1.0642 -0.0780
12346SOL     OW48256   2.533   5.202   4.913 -0.1791  0.2548 -0.5159
12346SOL    HW148257   2.620   5.243   4.887  0.1782 -0.1518  0.0365
12346SOL    HW248258   2.497   5.248   4.995  0.2460 -0.5697  0.1312
12347SOL     OW48259   2.338   1.089   3.179 -0.2351  0.0482 -0.5461
12347SOL    HW148260   2.241   1.109   3.172 -0.4443 -0.9069 -0.4449
12347SOL    HW248261   2.374   1.064   3.088 -0.0285  0.6331 -0.6286
12348SOL     OW48262   3.364   3.064   4.481 -0.2059  0.4251  0.3389
12348SOL    HW148263   3.354   3.111   4.393  0.2702  2.7609  1.5122
12348SOL    HW248264   3.282   3.080   4.536 -0.4504 -0.9378  0.3930
12349SOL     OW48265   8.075   6.079   3.783 -0.1212  0.6486  0.0711
12349SOL    HW148266   7.988   6.031   3.769 -0.0665  0.7421 -0.5952
12349SOL    HW248267   8.151   6.016   3.764 -0.0469  0.8386 -0.2479
12350SOL     OW48268   4.916   1.341   0.906 -0.1591 -0.1318 -0.2108
12350SOL    HW148269   4.917   1.280   0.984  0.6031 -0.8195 -0.7532
12350SOL    HW248270   4.982   1.415   0.920  0.4718 -0.6328 -0.4934
12351SOL     OW48271   1.146   6.142   6.024 -0.0815 -0.0853  0.1703
12351SOL    HW148272   1.213   6.217   6.025 -0.0158 -0.1249 -0.7887
12351SOL    HW248273   1.059   6.176   6.059 -0.0477  0.4433 -0.2377
12352SOL     OW48274   4.971   7.511   2.923  0.0016 -0.2766  0.7298
12352SOL    HW148275   4.948   7.514   3.020 -0.1777  0.2546  0.6745
12352SOL    HW248276   4.976   7.416   2.892 -2.6847 -0.4267  0.6193
12353SOL     OW48277   6.287   4.091   0.565  0.2568 -0.1046 -0.0841
12353SOL    HW148278   6.279   4.190   0.559 -0.1240 -0.0622  1.0883
12353SOL    HW248279   6.364   4.067   0.623 -0.4722 -0.4846  0.7391
12354SOL     OW48280   3.336   8.141   6.540 -0.1312 -0.2200 -0.3354
12354SOL    HW148281   3.342   8.117   6.444  0.6636  0.4880 -0.4711
12354SOL    HW248282   3.412   8.098   6.590 -0.0044  0.1695 -0.1907
12355SOL     OW48283   9.306   4.683   3.688 -0.1011  0.1149  0.0238
12355SOL    HW148284   9.294   4.587   3.661 -0.2178  0.3023 -0.5969
12355SOL    HW248285   9.397   4.694   3.728 -0.0210 -0.2203 -0.0563
12356SOL     OW48286   2.229   0.763   6.690  0.4375 -0.2427 -0.1779
12356SOL    HW148287   2.197   0.852   6.722  0.5902 -0.8031  1.5704
12356SOL    HW248288   2.286   0.776   6.609  2.6055  1.5112  1.5465
12357SOL     OW48289   3.376   7.273   1.019  0.2073  0.3493 -0.2172
12357SOL    HW148290   3.377   7.319   1.108 -1.7192  1.5530 -0.7833
12357SOL    HW248291   3.384   7.174   1.033  1.9962  0.6716  1.1569
12358SOL     OW48292   7.895   3.394   0.188  0.3749  0.9492 -0.4697
12358SOL    HW148293   7.850   3.479   0.217 -2.4202 -0.2649 -1.0176
12358SOL    HW248294   7.902   3.332   0.266 -0.4901  0.4759 -0.7647
12359SOL     OW48295   5.593   4.820   0.394  0.0363  0.1829  0.2336
12359SOL    HW148296   5.610   4.755   0.467  0.2565 -1.6606 -1.4098
12359SOL    HW248297   5.525   4.887   0.424  0.5293 -0.2026  2.2849
12360SOL     OW48298   8.037   5.801   1.076 -1.0967 -0.0198  0.5644
12360SOL    HW148299   8.034   5.841   1.167 -0.9400  1.1596  0.0703
12360SOL    HW248300   8.126   5.819   1.035 -1.7868  1.0477 -0.5060
12361SOL     OW48301   9.871   4.337   2.463 -0.0226 -0.0955 -0.2516
12361SOL    HW148302   9.937   4.264   2.446  0.0263  0.2327 -1.5872
12361SOL    HW248303   9.801   4.306   2.526  1.1739 -0.5925  0.8485
12362SOL     OW48304   0.157   5.240   2.119  0.6789 -0.2910 -0.3329
12362SOL    HW148305   0.081   5.194   2.072  1.9706 -0.9965 -1.7659
12362SOL    HW248306   0.171   5.198   2.208 -0.1883 -0.5988 -0.3351
12363SOL     OW48307   1.922   2.569   5.584  0.0529  0.1829 -0.3312
12363SOL    HW148308   1.907   2.568   5.683 -0.2042  0.4669 -0.3662
12363SOL    HW248309   1.856   2.508   5.541 -0.1556  0.4331 -0.3692
12364SOL     OW48310   0.801   4.764   2.611 -0.7888  0.1561 -0.5665
12364SOL    HW148311   0.763   4.857   2.608 -0.1470  0.5666  2.4059
12364SOL    HW248312   0.811   4.736   2.706  3.2478 -1.2157 -1.3252
12365SOL     OW48313   0.182   9.041   2.785 -0.1289 -0.4229  0.4230
12365SOL    HW148314   0.211   9.125   2.830 -1.6861 -0.4870  1.5830
12365SOL    HW248315   0.086   9.049   2.758  0.0682 -1.3520 -0.5950
12366SOL     OW48316   7.164   1.500   3.817  0.2631  0.2875  0.0384
12366SOL    HW148317   7.107   1.567   3.769  0.8568  1.1924  0.5570
12366SOL    HW248318   7.164   1.414   3.768 -1.9731  0.1065  0.3031
12367SOL     OW48319   8.812   6.090   4.595  0.4195  0.3368 -0.0572
12367SOL    HW148320   8.800   6.135   4.506 -2.8324 -2.6681 -1.2612
12367SOL    HW248321   8.795   6.156   4.668  2.6152  2.7242 -1.5942
12368SOL     OW48322   1.324   3.715   0.103  0.7273  0.0006 -0.4152
12368SOL    HW148323   1.394   3.665   0.052  1.8237 -2.3108  3.1527
12368SOL    HW248324   1.367   3.792   0.149  0.1440  0.8550 -1.2924
12369SOL     OW48325   0.955   2.482   6.379 -0.5363  0.2053  0.0514
12369SOL    HW148326   0.885   2.412   6.363  0.3866 -0.7319  0.0674
12369SOL    HW248327   0.967   2.536   6.295 -1.1999  0.3061  0.0152
12370SOL     OW48328   0.879   4.915   4.537 -0.1239  0.1996 -0.1591
12370SOL    HW148329   0.961   4.875   4.577  0.9866  2.1347 -0.4152
12370SOL    HW248330   0.898   4.941   4.442 -0.7168  1.5204  0.0728
12371SOL     OW48331   5.719   0.562   2.533 -0.2037  0.4092  0.3007
12371SOL    HW148332   5.734   0.511   2.448  1.6948 -0.9330  1.4100
12371SOL    HW248333   5.754   0.655   2.522  0.6835  0.0325 -0.1709
12372SOL     OW48334   2.901   2.897   3.444 -0.5733 -0.1682 -0.1654
12372SOL    HW148335   2.940   2.969   3.502 -0.3785  0.1950 -0.7375
12372SOL    HW248336   2.894   2.931   3.350 -1.2915 -0.6028 -0.2657
12373SOL     OW48337   9.756   2.786   2.803 -0.3985 -0.4703 -0.1283
12373SOL    HW148338   9.774   2.693   2.770 -0.6238 -0.8099  0.6931
12373SOL    HW248339   9.700   2.782   2.886  0.0709  0.3795  0.2359
12374SOL     OW48340   8.236   2.405   4.022 -0.2609 -0.6800 -0.0858
12374SOL    HW148341   8.215   2.458   3.939 -2.2546 -3.5841 -1.5479
12374SOL    HW248342   8.239   2.308   3.999  1.1506 -1.3999  2.9212
12375SOL     OW48343   4.363   1.662   0.982 -0.3292 -0.0933  0.2301
12375SOL    HW148344   4.289   1.604   1.017  0.5562 -1.5549 -0.3131
12375SOL    HW248345   4.425   1.608   0.926  1.0025  1.1977  0.4290
12376SOL     OW48346   9.090   3.377   1.955 -0.0003 -0.0711 -0.0247
12376SOL    HW148347   9.020   3.346   2.019 -0.9119 -0.6448 -1.2562
12376SOL    HW248348   9.163   3.423   2.004  0.2244 -2.1075  1.6013
12377SOL     OW48349   9.901   3.635   0.605  0.4404 -0.2867 -0.0051
12377SOL    HW148350   9.901   3.731   0.576 -0.6764 -0.3408 -0.1934
12377SOL    HW248351   9.808   3.599   0.600  0.2244 -0.3704  3.4784
12378SOL     OW48352   2.347   0.928   4.449  0.2232 -0.2969 -0.3386
12378SOL    HW148353   2.403   0.921   4.367  1.1443  0.1157  0.2453
12378SOL    HW248354   2.320   0.836   4.479 -1.9970 -0.3394 -2.3505
12379SOL     OW48355   3.223   4.431   1.500 -0.1715 -0.4502  0.1258
12379SOL    HW148356   3.311   4.387   1.518  1.5170  1.9938 -1.8905
12379SOL    HW248357   3.230   4.486   1.418 -3.4094  0.3936  0.3734
12380SOL     OW48358   3.437   6.263   5.324  0.1297  0.5127 -0.2836
12380SOL    HW148359   3.412   6.329   5.254  0.5562  0.0675 -0.8562
12380SOL    HW248360   3.369   6.265   5.397 -0.1316  1.2196 -0.5427
12381SOL     OW48361   1.047   9.514   1.328  0.3475 -0.4772 -0.6037
12381SOL    HW148362   0.967   9.506   1.387  1.5046 -1.8611  0.8657
12381SOL    HW248363   1.044   9.600   1.279 -0.7550  0.6727  1.3913
12382SOL     OW48364   2.034   3.053   5.416  0.3301  0.1839 -0.0717
12382SOL    HW148365   2.124   3.088   5.390  0.6980 -0.2026  0.6709
12382SOL    HW248366   2.043   2.994   5.497 -0.5050 -0.3325 -0.3499
12383SOL     OW48367   2.568   3.080   1.042  0.3665 -0.5320  0.4119
12383SOL    HW148368   2.619   3.013   1.095  1.2973 -0.4471 -0.3773
12383SOL    HW248369   2.476   3.089   1.081  0.9652 -0.6099  1.8969
12384SOL     OW48370   3.823   8.862   5.450 -0.4346 -0.3059  0.4834
12384SOL    HW148371   3.895   8.923   5.416 -1.6118  1.2415  0.7364
12384SOL    HW248372   3.811   8.877   5.548 -0.2383 -1.4615  0.6858
12385SOL     OW48373   9.234   2.124   3.936 -0.0120  0.2647 -0.5083
12385SOL    HW148374   9.296   2.179   3.880 -0.4287  0.5216 -0.7198
12385SOL    HW248375   9.280   2.099   4.021  0.1263  1.0774 -0.3363
12386SOL     OW48376   0.359   3.080   6.319 -0.1073  0.3319  0.6292
12386SOL    HW148377   0.363   3.173   6.355 -0.2768 -0.0654  1.6933
12386SOL    HW248378   0.444   3.058   6.272 -0.4549  1.3729 -0.4928
12387SOL     OW48379   8.545   3.923   1.233  0.2247  0.1015 -0.1840
12387SOL    HW148380   8.561   3.916   1.331  2.9359 -0.0966 -0.5895
12387SOL    HW248381   8.572   3.837   1.188  0.5939  0.7597 -1.2597
12388SOL     OW48382   9.192   6.776   0.223  0.2255 -0.3707 -0.0895
12388SOL    HW148383   9.261   6.832   0.177  0.9771 -1.0265  0.2252
12388SOL    HW248384   9.179   6.690   0.173 -0.4194 -0.2165 -0.1903
12389SOL     OW48385   1.052   1.048   6.213  0.0590  0.2680 -0.4189
12389SOL    HW148386   1.139   1.098   6.222 -0.6105  1.1926  1.1649
12389SOL    HW248387   0.976   1.113   6.213 -0.6852 -0.5911 -1.0577
12390SOL     OW48388   3.745   1.762   6.131  0.0073 -0.2256  0.8548
12390SOL    HW148389   3.645   1.764   6.136 -0.0451 -0.4848  0.0057
12390SOL    HW248390   3.782   1.849   6.164 -0.4810 -0.2517  1.4847
12391SOL     OW48391   8.353   8.828   3.558  0.6256  0.9291 -0.0753
12391SOL    HW148392   8.410   8.794   3.483  0.0841 -0.0926 -0.0326
12391SOL    HW248393   8.283   8.889   3.522 -0.1374 -0.1891 -0.5180
12392SOL     OW48394   9.893   1.367   5.663 -0.4640  0.0879  0.0473
12392SOL    HW148395   9.935   1.334   5.747  1.8628  0.8188 -0.7939
12392SOL    HW248396   9.884   1.292   5.598 -2.3243 -0.4928  0.9183
12393SOL     OW48397   7.974   4.300   5.591  0.4351 -0.3025  0.1515
12393SOL    HW148398   8.018   4.302   5.501  2.2673 -2.9009  0.9382
12393SOL    HW248399   7.876   4.281   5.580  1.2689 -4.2625 -1.1655
12394SOL     OW48400   7.737   8.708   3.742  0.3895  0.3385  0.2452
12394SOL    HW148401   7.811   8.708   3.675 -0.0195 -0.6648 -0.2202
12394SOL    HW248402   7.661   8.653   3.707 -1.3031  2.7943 -0.0785
12395SOL     OW48403   2.340   3.592   2.673  0.7059 -0.4176  0.3144
12395SOL    HW148404   2.243   3.570   2.679  0.9155 -2.3849 -2.2761
12395SOL    HW248405   2.351   3.691   2.661 -0.9907 -0.2104  0.2910
12396SOL     OW48406   3.177   7.616   4.406  0.1547 -0.4518  0.4964
12396SOL    HW148407   3.152   7.529   4.362  1.8677 -1.1976  0.9776
12396SOL    HW248408   3.148   7.615   4.501  0.0797 -0.4492  0.4732
12397SOL     OW48409   7.464   2.355   4.891  0.3356  0.0054  1.1109
12397SOL    HW148410   7.385   2.415   4.891  0.1136 -0.2836  0.4725
12397SOL    HW248411   7.513   2.365   4.805  0.4170 -0.5771  1.0909
12398SOL     OW48412   2.544   1.123   5.640 -0.1314  0.1009 -0.2934
12398SOL    HW148413   2.451   1.094   5.614 -0.1984  0.2812 -0.2499
12398SOL    HW248414   2.605   1.044   5.634 -0.3709 -0.1125  0.0873
12399SOL     OW48415   8.955   2.917   6.097 -0.4524  0.9606  0.5091
12399SOL    HW148416   8.932   2.841   6.036  0.7124  0.5131  0.6021
12399SOL    HW248417   8.872   2.950   6.143 -1.3210  1.2616 -1.2523
12400SOL     OW48418   2.229   5.770   2.236  0.2356  0.6309 -0.0495
12400SOL    HW148419   2.250   5.864   2.209  1.2768  0.2237 -0.7174
12400SOL    HW248420   2.312   5.714   2.227  0.1930  0.1200  2.4154
12401SOL     OW48421   8.292   1.904   5.622  0.1019 -0.0985 -0.6787
12401SOL    HW148422   8.341   1.871   5.541  0.3434 -0.2594 -0.4680
12401SOL    HW248423   8.304   1.840   5.697  0.5608  0.4541 -0.2719
12402SOL     OW48424   3.965   9.726   5.542 -0.1435 -0.5449  0.5097
12402SOL    HW148425   4.045   9.765   5.589 -0.6325 -2.2444  2.8713
12402SOL    HW248426   3.995   9.668   5.467  0.7594  0.4663  0.0800
12403SOL     OW48427   4.611   3.593   1.472  0.3038 -0.2652  0.1545
12403SOL    HW148428   4.657   3.595   1.383 -0.1953 -0.6147 -0.1111
12403SOL    HW248429   4.670   3.547   1.538  0.7231  0.0908  0.0267
12404SOL     OW48430   0.703   5.045   2.635  0.3898  0.0907  0.2298
12404SOL    HW148431   0.712   4.986   2.716  2.1542 -1.4282 -1.0379
12404SOL    HW248432   0.657   5.130   2.661  1.1167 -0.2808  2.8768
12405SOL     OW48433   4.603   0.370   1.407  0.4476  0.0793  0.2832
12405SOL    HW148434   4.645   0.297   1.353 -1.0719 -0.0494 -0.7647
12405SOL    HW248435   4.572   0.334   1.495  0.5170 -0.3334  0.1385
12406SOL     OW48436   9.797   4.727   2.828 -0.2832  0.7575 -0.7464
12406SOL    HW148437   9.729   4.787   2.786 -0.8741 -0.4456 -1.5102
12406SOL    HW248438   9.781   4.633   2.800  0.3950  0.1685  0.7624
12407SOL     OW48439   9.688   8.334   4.812  0.5420  0.7870 -0.0781
12407SOL    HW148440   9.745   8.258   4.844  0.6777  1.2788  0.8547
12407SOL    HW248441   9.711   8.355   4.717  0.6820 -0.1657 -0.2644
12408SOL     OW48442   2.441   6.819   2.984  0.3753  0.1394 -0.0865
12408SOL    HW148443   2.499   6.887   3.028  0.9411  0.5261 -1.4307
12408SOL    HW248444   2.478   6.728   3.002  0.4710  0.2769  0.4308
12409SOL     OW48445   0.845   8.396   4.032  0.2520  0.2119 -0.2784
12409SOL    HW148446   0.909   8.396   4.109 -1.1533 -1.7378  0.9509
12409SOL    HW248447   0.751   8.401   4.066 -0.3249  1.5621 -1.9911
12410SOL     OW48448   8.162   3.130   0.507  0.0085  0.8003  0.3084
12410SOL    HW148449   8.233   3.154   0.574  0.8672 -0.0373 -0.2904
12410SOL    HW248450   8.100   3.063   0.548  0.8331 -0.1004  0.0988
12411SOL     OW48451   3.605   7.430   2.930  0.1487  0.0981 -0.0045
12411SOL    HW148452   3.661   7.506   2.897  1.8250 -0.5444  1.2850
12411SOL    HW248453   3.598   7.360   2.859 -1.6382  1.5167 -1.3079
12412SOL     OW48454   1.845   0.130   2.834  0.0935  0.0417  0.1226
12412SOL    HW148455   1.895   0.197   2.779  0.0565  0.1746  0.2494
12412SOL    HW248456   1.757   0.110   2.793  0.2354 -0.1652 -0.0825
12413SOL     OW48457   6.771   9.315   4.215 -0.0964  0.0843  0.2735
12413SOL    HW148458   6.808   9.224   4.196 -0.1201  0.5454 -2.1445
12413SOL    HW248459   6.843   9.373   4.252 -0.2041 -1.0374  2.3217
12414SOL     OW48460   0.221   4.535   3.602 -0.6281 -0.6393  0.1201
12414SOL    HW148461   0.121   4.536   3.598 -0.5981 -0.3030 -0.7122
12414SOL    HW248462   0.257   4.493   3.519 -0.0716 -0.4910  0.2831
12415SOL     OW48463   0.356   8.860   4.276  0.1019 -0.5235  0.4153
12415SOL    HW148464   0.294   8.937   4.294  0.1102 -0.1588 -1.0618
12415SOL    HW248465   0.313   8.775   4.306 -0.0550  0.0090  1.7474
12416SOL     OW48466   7.948   0.381   5.590  0.6575  0.1907  0.0194
12416SOL    HW148467   7.880   0.431   5.645 -0.4262 -0.3554 -0.7994
12416SOL    HW248468   7.994   0.315   5.648  0.0513  0.1421  0.4554
12417SOL     OW48469   1.067   5.130   2.876 -0.3190 -0.0765 -0.3349
12417SOL    HW148470   1.042   5.159   2.969  0.0527  1.2272 -0.6435
12417SOL    HW248471   1.050   5.032   2.867  0.9681 -0.4899  1.5496
12418SOL     OW48472   2.613   1.037   3.554 -0.2947  0.0614  0.1292
12418SOL    HW148473   2.544   1.001   3.492  1.0877 -0.8135 -0.9487
12418SOL    HW248474   2.677   1.094   3.502  1.5077 -1.5576  0.5031
12419SOL     OW48475   2.107   0.968   0.777 -0.8622 -0.3258  0.0546
12419SOL    HW148476   2.060   0.896   0.726 -0.1800 -1.4886  1.0205
12419SOL    HW248477   2.148   0.929   0.859 -1.3280  1.3766  1.1251
12420SOL     OW48478   3.677   4.926   3.951 -0.4940  0.1830 -0.1332
12420SOL    HW148479   3.594   4.894   3.905 -0.7815 -0.3243  0.7389
12420SOL    HW248480   3.735   4.973   3.885 -0.9546 -0.4572 -1.0056
12421SOL     OW48481   9.163   7.026   1.151 -0.3290 -0.7648 -0.2171
12421SOL    HW148482   9.235   7.076   1.199 -0.8358  0.1367 -0.4044
12421SOL    HW248483   9.205   6.951   1.099  0.7673  1.2703 -2.3603
12422SOL     OW48484   3.748   8.333   5.933 -0.1842  0.3338 -0.0749
12422SOL    HW148485   3.787   8.273   5.863 -0.6767  0.6640 -0.6401
12422SOL    HW248486   3.798   8.322   6.019 -1.3667 -2.1841  0.3260
12423SOL     OW48487   3.128   6.859   3.302 -0.5406 -0.7423  0.1052
12423SOL    HW148488   3.098   6.939   3.249  2.9255  0.3076 -0.4513
12423SOL    HW248489   3.110   6.776   3.250 -0.9314 -0.0382 -0.9039
12424SOL     OW48490   0.555   2.951   5.020 -0.5971 -0.2740  0.3192
12424SOL    HW148491   0.624   2.879   5.019 -0.7185 -0.4167 -2.0180
12424SOL    HW248492   0.577   3.018   5.090  3.2591  0.9303 -1.8893
12425SOL     OW48493   0.761   6.271   2.091 -0.6650 -0.8520 -0.2459
12425SOL    HW148494   0.730   6.230   2.176  0.6483 -3.5304 -0.9884
12425SOL    HW248495   0.837   6.333   2.109 -0.5766 -1.1943  0.5676
12426SOL     OW48496   8.039   6.053   6.301  0.8155  0.4120  0.7736
12426SOL    HW148497   8.105   6.028   6.230  0.6041 -2.7001  1.6244
12426SOL    HW248498   7.964   6.104   6.260  1.5158  0.0984 -0.9576
12427SOL     OW48499   0.060   5.578   2.369 -0.0916 -0.7369  0.2617
12427SOL    HW148500   0.085   5.625   2.285 -0.1480 -2.7332 -0.9170
12427SOL    HW248501  -0.001   5.635   2.424  1.4474  1.3503 -0.1393
12428SOL     OW48502   0.793   3.230   3.293 -0.3499  0.2520 -0.3570
12428SOL    HW148503   0.846   3.150   3.321 -0.2494  0.1301 -0.8986
12428SOL    HW248504   0.703   3.228   3.336 -0.2068  0.0458 -0.0708
12429SOL     OW48505   4.046   5.968   0.975 -0.1409 -0.2815 -0.6958
12429SOL    HW148506   4.007   5.975   1.067  1.7520  1.7904 -0.0001
12429SOL    HW248507   4.013   5.885   0.930 -2.3844 -0.4546  1.2343
12430SOL     OW48508   7.674   6.548   3.022 -0.1146 -0.4736 -0.5720
12430SOL    HW148509   7.636   6.572   2.933 -0.8201 -0.1971 -0.1951
12430SOL    HW248510   7.753   6.607   3.041 -1.3765  1.0669  0.0175
12431SOL     OW48511   6.997   1.461   3.374  0.5563  0.1714 -0.3010
12431SOL    HW148512   7.086   1.415   3.369  0.0731 -0.9478  1.0762
12431SOL    HW248513   6.994   1.521   3.454  0.5931  1.3764 -1.1827
12432SOL     OW48514   2.186   5.928   2.977  0.1833  0.3218 -0.5399
12432SOL    HW148515   2.187   5.923   3.077 -0.6037  0.8266 -0.5065
12432SOL    HW248516   2.152   5.842   2.939  1.6112 -0.3177 -0.4136
12433SOL     OW48517   9.578   4.255   2.169  0.3150  0.4633 -0.3887
12433SOL    HW148518   9.479   4.264   2.167  0.2827 -0.0620 -1.1171
12433SOL    HW248519   9.618   4.310   2.095  0.5112 -0.0430 -0.6593
12434SOL     OW48520   3.479   3.719   5.562  0.0498 -0.4552  0.3942
12434SOL    HW148521   3.448   3.628   5.591 -0.3348 -0.1287  1.0134
12434SOL    HW248522   3.507   3.771   5.643 -0.0104  0.0839  0.0662
12435SOL     OW48523   2.181   6.387   6.264 -0.2604 -0.4041  0.1162
12435SOL    HW148524   2.272   6.388   6.305 -1.3218 -0.1175  2.6132
12435SOL    HW248525   2.132   6.470   6.289 -0.7077  0.1552 -2.4662
12436SOL     OW48526   9.381   4.677   5.111  0.3831 -0.6679 -0.5134
12436SOL    HW148527   9.300   4.674   5.169 -0.2518  0.1312 -1.3383
12436SOL    HW248528   9.411   4.583   5.090  0.0576 -0.9598  0.3043
12437SOL     OW48529   4.702   0.339   3.506 -0.0874  0.1152  0.4722
12437SOL    HW148530   4.760   0.379   3.435  1.2036 -0.6621  1.0824
12437SOL    HW248531   4.666   0.412   3.565 -0.5149  0.6849 -0.4878
12438SOL     OW48532   1.621   3.896   0.963 -0.2103 -0.2584  0.4168
12438SOL    HW148533   1.592   3.948   1.043 -1.5143  1.0001 -0.8481
12438SOL    HW248534   1.543   3.846   0.926  0.7571 -2.1439  0.8800
12439SOL     OW48535   1.684   0.693   3.341  0.2596  0.6051  0.9127
12439SOL    HW148536   1.621   0.718   3.414  0.8149  1.0326  1.2477
12439SOL    HW248537   1.635   0.638   3.273 -0.1686 -0.0769  1.7637
12440SOL     OW48538   9.981   2.776   5.749 -0.0286  0.3680  0.1764
12440SOL    HW148539   9.894   2.818   5.726 -0.1712 -0.5083 -0.8896
12440SOL    HW248540  10.045   2.786   5.673 -0.2577 -1.8620 -0.3335
12441SOL     OW48541   7.655   9.637   1.131 -0.0715 -0.3802  0.1501
12441SOL    HW148542   7.721   9.712   1.135 -1.2686  0.6196  2.4359
12441SOL    HW248543   7.647   9.595   1.222 -1.1656 -1.7248 -0.5516
12442SOL     OW48544   3.846   0.491   1.220 -0.4835 -0.5146  0.6886
12442SOL    HW148545   3.849   0.393   1.202 -0.6411 -0.7836  2.1109
12442SOL    HW248546   3.767   0.513   1.276 -0.8961  0.5511 -0.2707
12443SOL     OW48547   3.351   2.549   2.095  0.5286  0.0647  0.8949
12443SOL    HW148548   3.444   2.522   2.070  0.9673  0.4818  2.0227
12443SOL    HW248549   3.303   2.471   2.134 -0.6512 -0.9833 -2.5237
12444SOL     OW48550   2.767   1.538   2.306  0.3737 -0.5646  0.6121
12444SOL    HW148551   2.856   1.585   2.311  0.9427 -1.3836 -1.3723
12444SOL    HW248552   2.718   1.568   2.224 -1.0508 -0.3839  1.5073
12445SOL     OW48553   9.527   5.343   5.375 -0.5779  0.1216  0.0773
12445SOL    HW148554   9.540   5.333   5.474 -1.7740  1.8327  0.4395
12445SOL    HW248555   9.432   5.322   5.352 -0.4583  0.3360 -0.6144
12446SOL     OW48556   2.613   1.650   4.444 -0.2651  0.4577 -0.2754
12446SOL    HW148557   2.597   1.555   4.417 -0.2216  0.4004 -0.1027
12446SOL    HW248558   2.526   1.699   4.448 -0.3013  0.3905 -0.2413
12447SOL     OW48559   7.898   0.167   2.928 -0.2340  0.2640  0.3152
12447SOL    HW148560   7.850   0.154   3.015  1.8625 -1.9326  1.1946
12447SOL    HW248561   7.990   0.202   2.946  0.1951 -0.1533 -1.0296
12448SOL     OW48562   0.386   4.729   3.550 -0.1455  0.2168 -0.4070
12448SOL    HW148563   0.333   4.648   3.576 -1.3513  1.2639  0.4770
12448SOL    HW248564   0.453   4.748   3.621  2.3252 -1.8283 -2.0997
12449SOL     OW48565   5.003   1.028   0.876 -0.0128 -0.3903 -0.0951
12449SOL    HW148566   5.023   0.986   0.788 -0.6105  0.5751 -0.6939
12449SOL    HW248567   4.918   1.081   0.870  1.0085  1.3453  0.5034
12450SOL     OW48568   9.674   6.727   4.073  0.5318 -0.2750  0.0996
12450SOL    HW148569   9.724   6.762   4.152  1.8143 -2.8060  0.4466
12450SOL    HW248570   9.594   6.676   4.105  0.2317 -0.0709 -0.3203
12451SOL     OW48571   0.273   3.135   3.409  0.2059 -0.1620  0.5310
12451SOL    HW148572   0.364   3.098   3.426  0.5295  1.2921  2.1028
12451SOL    HW248573   0.271   3.179   3.319  1.2052  0.2126  0.6864
12452SOL     OW48574   1.916   2.200   0.858  0.3236  0.2464 -0.2687
12452SOL    HW148575   1.861   2.141   0.917 -0.2372 -0.4049 -1.4226
12452SOL    HW248576   1.898   2.178   0.762  0.1144  2.2937 -0.7219
12453SOL     OW48577   1.672   7.683   3.171 -0.2005  0.4803 -0.0392
12453SOL    HW148578   1.609   7.718   3.103  0.2517 -1.0183 -1.2606
12453SOL    HW248579   1.637   7.596   3.207  0.6253  0.1926  0.0773
12454SOL     OW48580   0.201   2.085   5.110  0.1668  0.2601 -0.4024
12454SOL    HW148581   0.172   2.100   5.204 -1.1029 -1.7740 -0.4423
12454SOL    HW248582   0.301   2.095   5.105  0.3881 -0.7794  1.3929
12455SOL     OW48583   4.494   0.159   0.476 -0.2620  0.0997  0.2251
12455SOL    HW148584   4.471   0.192   0.385 -2.6844 -0.7694  0.5020
12455SOL    HW248585   4.439   0.078   0.497  1.4558 -0.6805  1.8186
12456SOL     OW48586   9.836   8.474   4.321  0.0633  0.2002  0.0866
12456SOL    HW148587   9.911   8.410   4.332  0.1747  0.0899 -1.2443
12456SOL    HW248588   9.802   8.471   4.226  0.6777  2.7587 -0.2750
12457SOL     OW48589   9.985   6.030   1.141 -0.0533 -1.1427  0.2772
12457SOL    HW148590  10.071   6.068   1.175 -0.2591  0.5854 -1.0790
12457SOL    HW248591   9.911   6.055   1.204 -0.0562  0.0807 -0.1883
12458SOL     OW48592   3.206   1.947   3.358 -0.4837 -0.2334 -0.0811
12458SOL    HW148593   3.154   1.864   3.377  0.8124 -0.8909  0.6445
12458SOL    HW248594   3.300   1.936   3.390 -0.3726  1.6329  0.2952
12459SOL     OW48595   1.697   5.681   5.410 -0.2135  0.6753 -0.6169
12459SOL    HW148596   1.620   5.626   5.377  0.4062  0.0765 -1.0880
12459SOL    HW248597   1.739   5.636   5.489 -0.0451  0.7471 -0.6656
12460SOL     OW48598   1.968   9.174   1.475  0.5063 -0.3195  0.1741
12460SOL    HW148599   1.993   9.156   1.570  1.4826 -0.9732 -0.2019
12460SOL    HW248600   1.869   9.189   1.469  0.4493 -0.1582  1.3018
12461SOL     OW48601   3.295   2.364   4.470  0.2754  0.1971  0.2295
12461SOL    HW148602   3.217   2.321   4.425  0.9055 -1.8585  1.0548
12461SOL    HW248603   3.350   2.412   4.402 -1.0435  0.6532 -0.5321
12462SOL     OW48604   8.044   3.551   5.907 -0.6186 -0.0809  0.0626
12462SOL    HW148605   8.088   3.640   5.900 -2.0920  0.5033 -2.0638
12462SOL    HW248606   8.075   3.492   5.833 -0.6984 -0.8766  0.6516
12463SOL     OW48607   2.458   3.768   5.474 -0.0651  0.0929 -0.3886
12463SOL    HW148608   2.497   3.828   5.404 -0.8476 -1.2416 -1.9916
12463SOL    HW248609   2.524   3.756   5.548  1.3433  0.3291 -1.5863
12464SOL     OW48610   4.248   3.820   5.778  0.3716 -0.2458  0.2664
12464SOL    HW148611   4.343   3.849   5.772  0.5981 -1.1877 -0.7947
12464SOL    HW248612   4.190   3.900   5.792  1.2465  0.4030  0.2438
12465SOL     OW48613   0.531   3.752   3.294 -0.1152 -0.2240 -0.3467
12465SOL    HW148614   0.549   3.734   3.198  1.3761 -1.8998  0.2194
12465SOL    HW248615   0.543   3.849   3.313  1.2287 -0.1463 -1.5103
12466SOL     OW48616   0.652   6.240   2.931  0.1136 -0.2107  0.5547
12466SOL    HW148617   0.687   6.226   3.024 -0.8855  0.9184  1.1134
12466SOL    HW248618   0.686   6.328   2.896 -1.5702  0.5542  0.8283
12467SOL     OW48619   2.879   4.372   6.700  0.3958  0.1382  0.1263
12467SOL    HW148620   2.807   4.335   6.758  0.6068  0.7204  0.7764
12467SOL    HW248621   2.962   4.318   6.711 -0.2900 -1.3119 -1.5928
12468SOL     OW48622   2.419   5.357   2.227 -0.1023 -0.0307 -0.3402
12468SOL    HW148623   2.474   5.437   2.250  0.1898 -0.5116  0.6748
12468SOL    HW248624   2.470   5.274   2.252 -0.8217 -0.5078 -0.4542
12469SOL     OW48625   5.125   5.574   2.070  0.0294  0.5430 -0.3728
12469SOL    HW148626   5.163   5.482   2.075  0.0752  0.6617  2.3989
12469SOL    HW248627   5.180   5.631   2.008  2.0663 -0.3362  0.6065
12470SOL     OW48628   2.816   4.851   6.035  0.2752 -0.8827  0.6144
12470SOL    HW148629   2.820   4.924   6.103 -1.2863 -1.1782  1.0318
12470SOL    HW248630   2.847   4.765   6.076  0.2919 -0.8543  0.6593
12471SOL     OW48631   2.210   5.219   5.142  0.4007  0.0972 -0.1108
12471SOL    HW148632   2.288   5.276   5.115  0.6159  1.1501  2.6238
12471SOL    HW248633   2.125   5.264   5.112  0.6544  1.0120  0.5272
12472SOL     OW48634   4.550   3.911   2.312  0.2290 -0.1127 -0.3602
12472SOL    HW148635   4.563   3.880   2.218 -0.0767  0.1176 -0.4803
12472SOL    HW248636   4.453   3.929   2.328  0.5685  2.1977 -0.7437
12473SOL     OW48637   3.366   6.162   6.225 -0.3270  0.2537  1.1039
12473SOL    HW148638   3.455   6.128   6.195  0.0111 -0.8352  3.2321
12473SOL    HW248639   3.380   6.240   6.286 -0.8021 -0.1207  1.6972
12474SOL     OW48640   0.195   2.092   6.482  0.0458 -0.3048  0.6494
12474SOL    HW148641   0.213   2.151   6.403  0.3514 -1.4910 -0.1937
12474SOL    HW248642   0.140   2.141   6.550  0.7330  1.1061  0.2004
12475SOL     OW48643   9.515   3.458   1.158  0.3375 -0.1884 -0.2561
12475SOL    HW148644   9.508   3.547   1.203  2.2369 -0.9963  1.6966
12475SOL    HW248645   9.550   3.470   1.065 -0.9393  1.2184 -0.5863
12476SOL     OW48646   1.885   0.482   1.793 -0.2313  0.3222 -0.3227
12476SOL    HW148647   1.959   0.492   1.860 -1.2274 -0.9245  1.0130
12476SOL    HW248648   1.807   0.536   1.823 -0.5022  0.1638 -0.7485
12477SOL     OW48649   9.744   3.207   0.189  0.0105 -0.0101  0.2278
12477SOL    HW148650   9.791   3.137   0.242 -1.0083 -1.3163 -0.5790
12477SOL    HW248651   9.762   3.192   0.091 -2.0833 -0.5277 -0.0914
12478SOL     OW48652   8.467   0.100   5.936  0.5766  0.2275  0.9130
12478SOL    HW148653   8.428   0.182   5.977  2.4005  1.4570  0.2847
12478SOL    HW248654   8.560   0.087   5.970  0.9252 -0.6002 -0.3086
12479SOL     OW48655   1.297   6.306   1.830 -0.5087  0.2013 -0.2193
12479SOL    HW148656   1.350   6.360   1.895  1.3477 -0.4258 -1.1630
12479SOL    HW248657   1.207   6.287   1.868  0.0005  1.1388  1.5172
12480SOL     OW48658   9.045   4.509   6.192 -0.8418  0.4130 -1.1891
12480SOL    HW148659   9.084   4.531   6.103  0.4466 -1.9391 -1.2479
12480SOL    HW248660   9.008   4.416   6.191  2.0314 -0.8722  1.5663
12481SOL     OW48661   1.104   5.527   1.831 -0.4249 -0.5765  0.5292
12481SOL    HW148662   1.035   5.458   1.851 -0.8458 -1.0631 -2.3814
12481SOL    HW248663   1.195   5.486   1.839 -0.5980 -0.8275  1.1754
12482SOL     OW48664   8.593   5.563   3.602  0.2206  0.3196 -0.2060
12482SOL    HW148665   8.614   5.465   3.610  1.0518  0.4850 -0.4175
12482SOL    HW248666   8.623   5.610   3.685  2.1207  0.8100 -1.1457
12483SOL     OW48667   3.624   0.842   4.990  0.3176  0.2864  0.1252
12483SOL    HW148668   3.580   0.925   5.026 -2.7490 -1.7722  1.3691
12483SOL    HW248669   3.618   0.842   4.891  2.0604  2.4136 -0.0259
12484SOL     OW48670   8.288   7.260   2.862  0.7045  0.0388 -0.0138
12484SOL    HW148671   8.377   7.242   2.819  1.2755  1.6152  0.4808
12484SOL    HW248672   8.235   7.175   2.865  2.5141 -1.1099  0.4211
12485SOL     OW48673   1.553   7.216   2.024  0.3453  0.5422  0.7964
12485SOL    HW148674   1.584   7.146   2.088 -0.3969  0.5282  1.1459
12485SOL    HW248675   1.632   7.263   1.985  0.8048  0.3651  1.5135
12486SOL     OW48676   4.140   1.267   5.556 -0.1769 -0.0418 -0.8209
12486SOL    HW148677   4.156   1.350   5.503 -1.3157  1.1378  0.6330
12486SOL    HW248678   4.201   1.266   5.636 -1.8455  0.6438  0.5016
12487SOL     OW48679   1.966   4.177   0.850 -0.0459  0.0468 -0.2472
12487SOL    HW148680   1.984   4.275   0.841 -0.7980  0.2105 -0.0309
12487SOL    HW248681   2.027   4.126   0.789 -0.6751  0.7355 -1.4686
12488SOL     OW48682   0.076   8.327   1.663 -0.0731 -0.1413  0.1487
12488SOL    HW148683   0.078   8.326   1.563 -0.3998 -0.6884  0.1427
12488SOL    HW248684  -0.016   8.351   1.693  0.1532  0.5102  0.3195
12489SOL     OW48685   2.578   5.907   6.719 -0.1700 -0.4415 -0.3149
12489SOL    HW148686   2.517   5.967   6.667 -1.4851 -1.3132  0.2092
12489SOL    HW248687   2.575   5.932   6.816  1.2726  0.3251 -0.4567
12490SOL     OW48688   5.947   9.116   3.834  0.6599 -0.1987 -0.4871
12490SOL    HW148689   5.999   9.035   3.863 -0.4755  0.2178  2.9917
12490SOL    HW248690   5.988   9.198   3.874 -0.1191  0.6073 -1.3092
12491SOL     OW48691   1.785   2.604   0.196 -0.3566  0.4127 -0.1232
12491SOL    HW148692   1.790   2.685   0.254 -1.3811 -0.4773  1.2233
12491SOL    HW248693   1.795   2.522   0.252  0.6994 -0.4098 -1.4829
12492SOL     OW48694   1.781   4.973   4.245 -0.9247  0.4996 -0.1631
12492SOL    HW148695   1.851   5.007   4.308 -0.1527 -0.4851 -0.4879
12492SOL    HW248696   1.693   5.013   4.270 -0.7756 -0.4722  2.0312
12493SOL     OW48697   3.779   0.920   0.885  0.0932  0.3445  0.7544
12493SOL    HW148698   3.779   0.830   0.928 -0.4017 -0.1564 -0.3025
12493SOL    HW248699   3.693   0.967   0.904 -0.4173 -0.1648 -0.2942
12494SOL     OW48700   2.722   9.049   0.095 -0.1537 -0.0367  0.0282
12494SOL    HW148701   2.791   9.077   0.162  0.5113  0.1982 -0.7465
12494SOL    HW248702   2.745   9.088   0.005 -0.9868 -0.4238 -0.3577
12495SOL     OW48703   1.091   1.696   5.814 -0.2754 -0.2345  0.0365
12495SOL    HW148704   1.137   1.676   5.900  0.2528 -3.0803 -0.8389
12495SOL    HW248705   0.994   1.675   5.822 -0.6029  1.4506  0.5377
12496SOL     OW48706   4.370   6.991   2.740 -0.0848 -0.8009 -0.2968
12496SOL    HW148707   4.286   7.033   2.774  0.9714  0.2832  1.0404
12496SOL    HW248708   4.432   6.977   2.817  0.1689 -3.4565 -0.9627
12497SOL     OW48709   1.802   1.806   0.120  0.0898 -0.7625 -0.6627
12497SOL    HW148710   1.843   1.811   0.029  0.3251  0.3569 -0.5045
12497SOL    HW248711   1.823   1.717   0.161  1.1448 -0.7560 -1.1606
12498SOL     OW48712   6.597   4.926   0.293 -0.7428 -0.1757 -0.1949
12498SOL    HW148713   6.588   5.001   0.228  0.3208 -0.2242 -0.4073
12498SOL    HW248714   6.532   4.853   0.270  0.5471 -0.7832 -2.0401
12499SOL     OW48715   3.604   2.980   2.499 -0.1606 -0.2523 -0.1242
12499SOL    HW148716   3.589   2.885   2.527 -0.8728 -0.6878 -1.9397
12499SOL    HW248717   3.606   2.985   2.399 -2.1104  1.9334 -0.0781
12500SOL     OW48718   9.960   5.778   6.124 -0.0250 -0.1731 -0.4968
12500SOL    HW148719  10.059   5.770   6.115  0.1013  0.9803 -0.1922
12500SOL    HW248720   9.933   5.744   6.215  0.3684  1.6689  0.3273
12501SOL     OW48721   1.664   2.711   2.599 -0.3463 -0.5432  0.3217
12501SOL    HW148722   1.664   2.627   2.653  4.0275 -1.7776 -1.4141
12501SOL    HW248723   1.608   2.699   2.517  0.8466 -2.0181 -0.2797
12502SOL     OW48724   4.173   9.438   6.148  0.1590  0.1606  0.3224
12502SOL    HW148725   4.157   9.419   6.246 -1.3560  2.1641  0.4843
12502SOL    HW248726   4.085   9.455   6.103  0.8217 -1.1026 -1.4893
12503SOL     OW48727   9.292   4.015   0.665 -0.3784 -0.4348 -0.2845
12503SOL    HW148728   9.227   4.027   0.740 -1.6899 -1.3349 -1.2546
12503SOL    HW248729   9.376   3.973   0.700 -0.5084  0.2560  0.8832
12504SOL     OW48730   7.993   4.354   5.235 -0.0924  0.0978  0.2258
12504SOL    HW148731   7.904   4.386   5.267  0.2428  0.3666  0.9038
12504SOL    HW248732   8.065   4.403   5.284  0.4494  1.4818 -1.8576
12505SOL     OW48733   0.297   1.919   4.563  0.1501 -1.1260 -0.1321
12505SOL    HW148734   0.357   1.954   4.491  4.0640 -3.3271  1.9152
12505SOL    HW248735   0.260   1.831   4.535  1.2486 -1.7338  0.3131
12506SOL     OW48736   4.934   0.652   4.462  0.0514 -0.5278 -0.1564
12506SOL    HW148737   4.906   0.624   4.553  1.4924 -0.3456  0.3599
12506SOL    HW248738   5.034   0.649   4.455 -0.0269 -0.3270 -1.6548
12507SOL     OW48739   8.561   9.272   3.915 -0.1827  0.3254  0.2361
12507SOL    HW148740   8.497   9.203   3.881  1.7247 -0.9392 -0.9628
12507SOL    HW248741   8.654   9.236   3.907  0.7562  2.5607  0.8202
12508SOL     OW48742   2.969   4.951   1.382  0.1796 -0.3695 -0.1367
12508SOL    HW148743   2.924   4.863   1.368 -2.8315  1.4872 -2.8058
12508SOL    HW248744   2.905   5.025   1.363  3.1207  2.4348  0.3604
12509SOL     OW48745   0.113   1.584   5.976 -0.2093 -0.1982 -0.1705
12509SOL    HW148746   0.017   1.582   5.948 -0.1276 -1.0850 -0.4110
12509SOL    HW248747   0.170   1.600   5.896 -0.2129  1.4616  0.1401
12510SOL     OW48748   7.275   2.659   4.304 -0.1107  0.3205  0.1747
12510SOL    HW148749   7.347   2.642   4.236 -0.9822 -0.0243 -0.6812
12510SOL    HW248750   7.276   2.755   4.330  0.5319  0.3598  0.0108
12511SOL     OW48751   9.867   4.758   5.558 -0.1849  0.6669 -0.1587
12511SOL    HW148752   9.961   4.725   5.550 -0.8274 -0.3375 -4.3072
12511SOL    HW248753   9.868   4.855   5.582  1.9144  0.7528 -0.5378
12512SOL     OW48754   3.001   5.142   6.111 -0.5403 -0.4658  0.1265
12512SOL    HW148755   2.998   5.123   6.209 -2.1025 -2.3549 -0.2589
12512SOL    HW248756   2.918   5.190   6.083 -1.2823 -2.1555 -0.6741
12513SOL     OW48757   3.629   0.479   0.616 -0.3176  0.4581 -0.1263
12513SOL    HW148758   3.684   0.534   0.554 -1.0286  1.2531 -0.0593
12513SOL    HW248759   3.583   0.539   0.681 -0.6312 -0.2681  0.3258
12514SOL     OW48760   3.127   1.333   0.931 -0.3683  0.6722 -0.1189
12514SOL    HW148761   3.097   1.392   0.856  1.1051  1.5681 -0.0167
12514SOL    HW248762   3.204   1.277   0.901 -0.8875 -0.2111  0.1988
12515SOL     OW48763   8.033   3.770   3.094  0.0929 -0.0352  0.6574
12515SOL    HW148764   8.050   3.868   3.083 -1.5800  0.2515  0.5040
12515SOL    HW248765   8.052   3.724   3.007 -0.5442  0.3673  0.2989
12516SOL     OW48766   3.627   4.915   6.671 -0.2602 -0.3094  0.1719
12516SOL    HW148767   3.685   4.845   6.630 -0.5293 -0.7349  0.5052
12516SOL    HW248768   3.684   4.986   6.713  0.0716 -1.7388  2.2519
12517SOL     OW48769   3.608   8.789   0.462  0.3048  0.0221  0.2063
12517SOL    HW148770   3.581   8.832   0.376 -0.4531 -0.7614  0.0518
12517SOL    HW248771   3.535   8.801   0.529  0.1639 -0.8656  0.2171
12518SOL     OW48772   3.594   7.494   4.539  0.2906 -0.9857  0.2254
12518SOL    HW148773   3.516   7.431   4.546  0.2500 -1.0865 -0.9776
12518SOL    HW248774   3.629   7.492   4.445  0.6885  0.3173  0.3447
12519SOL     OW48775   9.739   5.506   5.709 -0.1279  0.2788  0.1279
12519SOL    HW148776   9.792   5.517   5.793 -0.2586 -1.0561  0.3853
12519SOL    HW248777   9.656   5.563   5.715  1.3187  2.5129 -0.3508
12520SOL     OW48778   4.575   4.650   1.001  0.0483  0.0405  0.1606
12520SOL    HW148779   4.582   4.618   0.906  1.0791 -1.1666  0.6235
12520SOL    HW248780   4.509   4.594   1.050 -0.2432  0.4511  0.2330
12521SOL     OW48781   3.010   0.076   1.048 -0.0476  0.2025  0.0776
12521SOL    HW148782   3.088   0.074   0.985  1.0237  0.4065  1.3742
12521SOL    HW248783   2.973  -0.017   1.058  0.7395 -0.0879  0.3196
12522SOL     OW48784   4.239   1.825   2.630 -0.2971 -0.5223 -0.0108
12522SOL    HW148785   4.192   1.771   2.560 -2.8979  0.2301  1.0794
12522SOL    HW248786   4.311   1.880   2.588 -0.8506 -1.1909 -1.8582
12523SOL     OW48787   2.476   9.248   0.073 -0.1958 -0.0843 -0.0392
12523SOL    HW148788   2.389   9.230   0.120 -1.1623  2.4250 -0.7588
12523SOL    HW248789   2.552   9.221   0.132 -1.4397 -1.1432  1.1236
12524SOL     OW48790   4.752   9.515   2.148 -0.1435 -0.1034  0.2004
12524SOL    HW148791   4.847   9.546   2.152 -0.9228  2.3717  0.7543
12524SOL    HW248792   4.695   9.590   2.113 -2.3965 -0.2200  3.4292
12525SOL     OW48793   5.004   7.256   2.644 -0.1325  0.0495  0.3250
12525SOL    HW148794   4.971   7.167   2.613 -2.1596  0.7508  0.4350
12525SOL    HW248795   4.989   7.266   2.742  0.5894  0.3086  0.4173
12526SOL     OW48796   1.433   9.570   0.314 -0.5779 -0.3502  0.0183
12526SOL    HW148797   1.461   9.639   0.381  0.9923 -2.1020  1.1957
12526SOL    HW248798   1.334   9.577   0.300 -0.6223  1.3841  0.9684
12527SOL     OW48799   3.193   6.701   6.275 -0.3776 -0.3207 -0.0061
12527SOL    HW148800   3.108   6.665   6.315 -1.3955  0.8618 -1.0591
12527SOL    HW248801   3.213   6.652   6.190 -1.5734  1.3092 -1.2565
12528SOL     OW48802   2.550   3.868   6.230  0.2471  0.1498 -0.2228
12528SOL    HW148803   2.572   3.910   6.142  0.2735  1.2184  0.2846
12528SOL    HW248804   2.462   3.905   6.263 -0.4562 -1.2858 -0.4659
12529SOL     OW48805   2.420   7.874   0.477  0.0398  0.2043  0.1232
12529SOL    HW148806   2.486   7.862   0.552 -0.9942 -0.2936  0.9654
12529SOL    HW248807   2.369   7.958   0.492 -0.5035 -0.1456  0.2404
12530SOL     OW48808   8.273   0.483   1.632 -0.2453  0.2242  0.1299
12530SOL    HW148809   8.193   0.492   1.691  0.3008 -2.0961  1.2515
12530SOL    HW248810   8.355   0.513   1.681  0.0282 -0.4682  0.1019
12531SOL     OW48811   5.470   9.397   3.574  0.2157  0.4506  0.2172
12531SOL    HW148812   5.541   9.434   3.514  2.0441 -1.0662  1.3471
12531SOL    HW248813   5.512   9.331   3.637 -1.9778  0.5803  1.8624
12532SOL     OW48814   4.893   6.436   2.042 -0.9667  0.0983  0.0316
12532SOL    HW148815   4.938   6.476   1.962  2.2463 -1.7036  0.8465
12532SOL    HW248816   4.843   6.354   2.013 -2.5630  1.2679 -0.6251
12533SOL     OW48817   8.842   5.386   4.776  0.2679  0.2703 -0.5519
12533SOL    HW148818   8.906   5.462   4.786 -0.5364  0.6586  1.9611
12533SOL    HW248819   8.875   5.307   4.828 -0.2926 -0.1840 -0.8739
12534SOL     OW48820   5.933   8.187   1.885 -0.3899 -0.0770 -0.3117
12534SOL    HW148821   5.902   8.282   1.885 -1.3947 -0.3803  1.1968
12534SOL    HW248822   5.853   8.126   1.887  0.2527 -0.9107  0.6460
12535SOL     OW48823   1.245   1.445   4.060 -0.2118 -0.2327  0.5070
12535SOL    HW148824   1.194   1.524   4.095 -1.4919 -0.7354 -0.1591
12535SOL    HW248825   1.339   1.471   4.042 -0.8441  1.3930 -0.5708
12536SOL     OW48826   8.026   4.980   6.215 -0.7584  0.1273 -0.5571
12536SOL    HW148827   7.986   4.947   6.129  1.3343 -0.5500 -1.3197
12536SOL    HW248828   8.062   4.902   6.267  1.4243  0.8422 -0.9080
12537SOL     OW48829   8.229   5.907   5.276 -0.1143  0.1175 -0.6056
12537SOL    HW148830   8.149   5.963   5.253  0.7465  1.4465 -0.4148
12537SOL    HW248831   8.203   5.810   5.276 -2.0325  0.6031  0.7484
12538SOL     OW48832   9.561   2.390   2.235 -0.3397 -0.4980 -0.0624
12538SOL    HW148833   9.518   2.341   2.159 -1.8540  1.3959 -0.4698
12538SOL    HW248834   9.526   2.483   2.239 -0.5402 -0.6447  3.1668
12539SOL     OW48835   8.036   5.140   1.165  0.1574 -0.2746  0.2422
12539SOL    HW148836   8.105   5.139   1.093  0.5365  0.3362  0.5953
12539SOL    HW248837   8.035   5.229   1.209  1.5937 -1.3674  2.5883
12540SOL     OW48838   3.147   9.155   0.278 -0.3559  0.1677 -0.1514
12540SOL    HW148839   3.106   9.246   0.287 -1.0252 -0.2168  0.8474
12540SOL    HW248840   3.177   9.123   0.368  0.9775 -0.1034 -0.6758
12541SOL     OW48841   4.279   2.068   4.832 -0.2028 -0.0225  0.3448
12541SOL    HW148842   4.278   2.046   4.735  1.3430 -0.8492  0.4963
12541SOL    HW248843   4.334   2.000   4.881 -1.1019  0.2832  1.8225
12542SOL     OW48844   1.563   1.511   4.452  0.0020  0.7919  0.0401
12542SOL    HW148845   1.506   1.592   4.465 -1.8253 -0.1129 -1.8977
12542SOL    HW248846   1.581   1.499   4.354  1.1145 -0.5384  0.3957
12543SOL     OW48847   5.341   7.671   5.134 -0.2122 -0.0065 -0.2683
12543SOL    HW148848   5.353   7.711   5.043  2.2185 -0.4801 -0.2057
12543SOL    HW248849   5.381   7.579   5.134 -3.0942 -1.2955  0.4024
12544SOL     OW48850   0.079   3.282   2.435 -0.5039 -0.1764 -0.4134
12544SOL    HW148851   0.031   3.348   2.377 -2.2773 -2.2682 -1.4111
12544SOL    HW248852   0.060   3.303   2.531 -1.6880  0.3158 -0.7400
12545SOL     OW48853   2.556   4.685   6.094  0.1627 -0.4379  0.0392
12545SOL    HW148854   2.639   4.695   6.148 -0.5403 -1.9881  1.4879
12545SOL    HW248855   2.557   4.597   6.047 -0.0837  0.0882 -0.9573
12546SOL     OW48856   1.994   2.374   2.670  0.0698  0.1649 -0.0050
12546SOL    HW148857   2.000   2.403   2.766 -0.6289  1.6511 -0.4042
12546SOL    HW248858   2.069   2.311   2.650 -0.2229 -0.7925  1.7325
12547SOL     OW48859   3.238   1.859   6.723  0.1727 -0.4560 -0.0012
12547SOL    HW148860   3.233   1.898   6.815 -0.8377  1.5278 -0.8448
12547SOL    HW248861   3.150   1.816   6.701  0.6855 -1.6520  0.2476
12548SOL     OW48862   7.530   1.175   5.290  0.0693  0.5148  0.4257
12548SOL    HW148863   7.482   1.199   5.205 -1.2992  1.9574  1.5722
12548SOL    HW248864   7.617   1.224   5.294 -0.2417  1.0956  0.2118
12549SOL     OW48865   1.246   8.169   0.555 -0.6147  0.7910  0.7350
12549SOL    HW148866   1.324   8.176   0.494 -1.4501  0.0569 -0.4312
12549SOL    HW248867   1.175   8.233   0.527 -0.7688  0.8764  1.3000
12550SOL     OW48868   8.794   1.839   2.734  0.1795 -0.6411 -0.0030
12550SOL    HW148869   8.854   1.797   2.803  0.5813 -1.5755 -0.9059
12550SOL    HW248870   8.699   1.817   2.755  0.3405 -1.4353 -0.0708
12551SOL     OW48871   9.599   4.641   1.101  0.2724  0.2735  0.4050
12551SOL    HW148872   9.698   4.635   1.106  0.3465  1.4369  0.3104
12551SOL    HW248873   9.566   4.581   1.028  1.0287  1.0189 -0.5623
12552SOL     OW48874   0.534   8.144   2.092  0.1993 -0.0976  0.0116
12552SOL    HW148875   0.470   8.184   2.027 -0.8094 -0.6710  0.6415
12552SOL    HW248876   0.544   8.047   2.073  1.0871  0.0394 -0.2419
12553SOL     OW48877   9.139   9.757   5.979  0.2870 -0.2628  0.3327
12553SOL    HW148878   9.228   9.743   6.024  0.4184 -0.6241 -0.0275
12553SOL    HW248879   9.066   9.743   6.045  0.5396  1.8573  1.0779
12554SOL     OW48880   9.145   4.575   4.225 -0.0988  0.7028  0.1782
12554SOL    HW148881   9.144   4.668   4.187  0.1691  1.1648  1.2729
12554SOL    HW248882   9.059   4.529   4.201  0.4309  0.6524 -1.7280
12555SOL     OW48883   1.808   3.545   1.735  0.1105 -0.1848 -0.2999
12555SOL    HW148884   1.732   3.502   1.783  3.0640 -3.1459  1.9935
12555SOL    HW248885   1.850   3.614   1.795 -0.4839  1.1319 -1.3835
12556SOL     OW48886   1.856   4.837   1.635  0.5183  0.6769 -0.4195
12556SOL    HW148887   1.803   4.866   1.715 -0.8869  1.8676 -1.7351
12556SOL    HW248888   1.917   4.911   1.606  1.6505 -0.0627  0.0520
12557SOL     OW48889   1.917   2.962   4.788 -0.7304 -0.1907 -0.0156
12557SOL    HW148890   1.945   2.882   4.841  2.3082  0.5535 -0.3780
12557SOL    HW248891   1.918   3.043   4.848 -1.2215  0.0104 -0.2755
12558SOL     OW48892   3.275   3.934   4.150 -0.2431 -0.6650 -0.3037
12558SOL    HW148893   3.334   3.949   4.070 -0.9866  1.5200 -0.4749
12558SOL    HW248894   3.203   4.003   4.152  0.0206 -0.4099  2.5012
12559SOL     OW48895   3.058   0.277   4.790 -0.5537  0.3640 -0.3821
12559SOL    HW148896   3.130   0.329   4.836  0.2106 -0.0389 -1.1114
12559SOL    HW248897   3.090   0.248   4.700 -2.2835  1.7813 -1.4938
12560SOL     OW48898   6.753   9.296   4.514 -0.2923  0.4213  0.2179
12560SOL    HW148899   6.713   9.302   4.423 -1.3594 -1.7466  0.5282
12560SOL    HW248900   6.686   9.261   4.579 -0.1538  3.6989  2.2815
12561SOL     OW48901   8.668   8.263   2.414  0.0643  0.7403  0.1355
12561SOL    HW148902   8.603   8.188   2.403  1.2151 -0.0607 -1.3889
12561SOL    HW248903   8.663   8.324   2.335 -0.2387  1.7799  0.9518
12562SOL     OW48904   1.481   9.762   0.053 -0.1143 -0.8492 -0.1667
12562SOL    HW148905   1.433   9.721  -0.025 -0.5950  0.1228 -0.3907
12562SOL    HW248906   1.477   9.699   0.131 -0.2569 -1.5138 -0.7062
12563SOL     OW48907   0.693   1.373   6.385 -0.2394  0.2149  0.1334
12563SOL    HW148908   0.596   1.394   6.376 -0.5764 -0.3362  2.1877
12563SOL    HW248909   0.705   1.304   6.456  1.7124  0.8105  0.4028
12564SOL     OW48910   0.173   8.319   4.013 -0.3229  0.3188 -0.3891
12564SOL    HW148911   0.216   8.265   4.086  1.2584  0.8201 -0.9207
12564SOL    HW248912   0.148   8.409   4.049  0.5170  0.5913 -0.4661
12565SOL     OW48913   4.798   4.692   2.453  0.3358  0.1766 -0.2952
12565SOL    HW148914   4.857   4.740   2.388  1.0358  1.4540  1.2625
12565SOL    HW248915   4.726   4.754   2.485 -0.5877 -0.7401 -0.5703
12566SOL     OW48916   0.981   3.946   5.550  0.2261 -0.1410  0.4145
12566SOL    HW148917   1.054   3.879   5.545 -1.5697 -2.1634  0.3747
12566SOL    HW248918   0.923   3.939   5.469 -0.9682  0.2604  1.2086
12567SOL     OW48919   7.981   5.869   1.353 -0.6096 -0.2465 -0.0166
12567SOL    HW148920   8.035   5.822   1.422  0.8752  1.7583  0.2222
12567SOL    HW248921   7.900   5.814   1.331  1.1764 -3.0381  0.0299
12568SOL     OW48922   2.053   1.975   5.758 -0.0730  0.3859  0.7174
12568SOL    HW148923   2.118   1.964   5.833  0.8992  1.6124  0.0794
12568SOL    HW248924   2.073   2.060   5.709 -0.1977 -0.7823 -1.4251
12569SOL     OW48925   3.802   0.531   5.474 -0.2851  0.6183 -0.3487
12569SOL    HW148926   3.827   0.492   5.385  1.8552 -1.8476  1.2450
12569SOL    HW248927   3.711   0.498   5.500 -0.3628  0.2687 -1.0342
12570SOL     OW48928   2.487   6.658   0.405  0.1462  0.1045  0.3147
12570SOL    HW148929   2.509   6.646   0.308  0.8038 -2.0748  0.7207
12570SOL    HW248930   2.389   6.643   0.419  0.1162  0.0639  0.0689
12571SOL     OW48931   2.122   7.342   5.756 -0.0705  0.1696  0.3337
12571SOL    HW148932   2.064   7.395   5.695  0.0664  0.9638  0.8779
12571SOL    HW248933   2.211   7.328   5.713 -0.5740 -0.8245 -0.3927
12572SOL     OW48934   4.920   2.292   0.534 -0.3503  0.3633  0.1422
12572SOL    HW148935   4.971   2.216   0.495 -1.6940 -1.1473  1.2865
12572SOL    HW248936   4.911   2.365   0.466  1.2871 -0.3128 -0.8283
12573SOL     OW48937   3.123   1.536   1.577  0.2178  0.5693  0.3539
12573SOL    HW148938   3.137   1.635   1.573  0.0466  0.6472  1.4772
12573SOL    HW248939   3.205   1.492   1.614  0.8260  0.1348 -1.4262
12574SOL     OW48940   2.625   1.889   3.316 -0.0543  0.3030 -0.1952
12574SOL    HW148941   2.667   1.861   3.229 -0.1089  0.3249 -0.2288
12574SOL    HW248942   2.644   1.986   3.332 -0.1942  0.3425 -0.2693
12575SOL     OW48943   7.022   0.661   3.563  0.0533 -0.4926 -0.0050
12575SOL    HW148944   7.035   0.753   3.526  1.9566 -0.4417  0.7499
12575SOL    HW248945   6.938   0.621   3.524 -0.8477  1.5843 -0.2507
12576SOL     OW48946   1.556   4.426   3.935 -0.6605 -0.0527 -0.3155
12576SOL    HW148947   1.604   4.468   4.013 -0.9267 -0.3843  0.0291
12576SOL    HW248948   1.568   4.327   3.939 -2.2937 -0.2414  0.3988
12577SOL     OW48949   4.245   8.481   4.742  0.6182 -0.3083 -0.4946
12577SOL    HW148950   4.160   8.509   4.697  0.3451  0.1888  0.3233
12577SOL    HW248951   4.320   8.539   4.711  0.2638  0.6023  0.3504
12578SOL     OW48952   1.510   4.064   6.337 -0.2407  0.4589 -0.1492
12578SOL    HW148953   1.460   4.086   6.253 -0.1425  0.4327 -0.2142
12578SOL    HW248954   1.548   4.148   6.377 -0.9401  0.5748  0.2843
12579SOL     OW48955   3.995   2.954   4.441 -0.1852 -0.1294 -0.1696
12579SOL    HW148956   3.969   2.936   4.536 -2.2594 -2.3379 -1.0939
12579SOL    HW248957   4.070   3.020   4.439 -1.3958  1.4817  2.9214
12580SOL     OW48958   1.159   5.743   0.684 -0.0468  0.2632 -0.3697
12580SOL    HW148959   1.223   5.730   0.609 -0.6615  0.1193 -0.8797
12580SOL    HW248960   1.204   5.790   0.759  0.9233 -0.6973 -0.3384
12581SOL     OW48961   3.394   7.073   0.745 -0.1179 -0.1027 -0.3041
12581SOL    HW148962   3.486   7.036   0.756 -0.7174 -1.5147  0.1348
12581SOL    HW248963   3.337   7.045   0.822 -1.7594 -1.9577 -2.1052
12582SOL     OW48964   9.418   8.559   1.001 -0.0615  0.1339  0.0884
12582SOL    HW148965   9.455   8.530   1.090 -1.1146  1.7494  1.0779
12582SOL    HW248966   9.320   8.573   1.009 -0.0539  0.9754 -1.1658
12583SOL     OW48967   3.162   7.930   5.865 -0.4321  0.5477 -0.1426
12583SOL    HW148968   3.077   7.891   5.829  0.3046 -1.1663 -0.0695
12583SOL    HW248969   3.150   7.954   5.961 -1.7244  3.0731 -0.9025
12584SOL     OW48970   9.697   6.658   5.879  0.0006 -0.0327 -0.5657
12584SOL    HW148971   9.784   6.704   5.898 -1.1460  1.1248  2.0460
12584SOL    HW248972   9.646   6.711   5.811  0.5955  0.1604 -0.8713
12585SOL     OW48973   0.132   6.502   2.885 -0.0211  0.1941  0.0831
12585SOL    HW148974   0.168   6.461   2.969  0.1870  0.1285 -0.0362
12585SOL    HW248975   0.170   6.454   2.806 -0.7410 -0.1713 -0.0364
12586SOL     OW48976   4.548   2.537   6.290  0.0187 -0.1495  0.5788
12586SOL    HW148977   4.605   2.592   6.350 -1.0430  0.7933  0.7572
12586SOL    HW248978   4.464   2.588   6.268 -2.0055 -2.5082  2.4497
12587SOL     OW48979   8.333   3.376   6.069 -0.1809  0.5433  0.2914
12587SOL    HW148980   8.369   3.306   6.130 -0.0076  0.6748  0.3405
12587SOL    HW248981   8.409   3.431   6.032 -0.1766 -0.3438 -1.0439
12588SOL     OW48982   3.173   1.430   0.533 -0.0388  0.2830 -0.1225
12588SOL    HW148983   3.122   1.431   0.448  1.3797 -2.3288 -1.0620
12588SOL    HW248984   3.247   1.497   0.529 -1.5043  1.9515  0.0878
12589SOL     OW48985   2.310   9.875   1.001 -0.3500 -0.4661 -0.5931
12589SOL    HW148986   2.251   9.804   0.963 -3.7595  1.6494  0.4391
12589SOL    HW248987   2.328   9.945   0.932 -0.9885  0.0280 -0.2699
12590SOL     OW48988   9.637   0.980   0.502  0.2915 -0.2802 -0.6458
12590SOL    HW148989   9.640   1.040   0.423 -0.3874 -0.2004 -0.6124
12590SOL    HW248990   9.700   0.904   0.488  0.3045 -0.1738 -1.1813
12591SOL     OW48991   4.337   2.057   3.206  0.2154 -0.4098 -0.1347
12591SOL    HW148992   4.274   1.981   3.221  0.3027 -0.3175  0.7227
12591SOL    HW248993   4.431   2.024   3.205  0.2800 -0.2597  0.6510
12592SOL     OW48994   0.462   1.754   5.813  0.1852  0.2597 -0.0640
12592SOL    HW148995   0.517   1.783   5.891 -0.6382  1.6490  0.0207
12592SOL    HW248996   0.505   1.784   5.728  1.0279 -1.1623 -0.1517
12593SOL     OW48997   6.077   9.356   3.943  0.0849 -0.3506  0.4401
12593SOL    HW148998   6.022   9.418   3.998 -0.4582  0.4037 -0.9336
12593SOL    HW248999   6.174   9.382   3.950 -0.1169  0.5246  0.0290
12594SOL     OW49000   4.099   1.484   0.285  0.1280  0.0966  0.4589
12594SOL    HW149001   4.115   1.552   0.214  1.8208 -0.3832  0.3673
12594SOL    HW249002   4.164   1.497   0.360  0.2220 -1.1772  0.6151
12595SOL     OW49003   4.216   0.107   4.355  0.3360  0.0730 -0.1566
12595SOL    HW149004   4.306   0.066   4.340  0.2655 -0.6991  1.4210
12595SOL    HW249005   4.213   0.147   4.447 -0.6894  0.7724 -0.4803
12596SOL     OW49006   2.541   3.455   4.809 -0.2175  0.8579  0.4194
12596SOL    HW149007   2.448   3.425   4.789  0.0876  0.4879 -0.4667
12596SOL    HW249008   2.539   3.551   4.839 -0.9373  0.6724  0.9809
12597SOL     OW49009   1.808   6.316   1.485  0.3248 -0.1016  0.0344
12597SOL    HW149010   1.810   6.228   1.437  2.4693  0.1984 -0.4455
12597SOL    HW249011   1.774   6.387   1.423 -1.1131 -0.5067  0.3302
12598SOL     OW49012   0.419   7.424   2.944 -0.1404 -0.1783  0.5059
12598SOL    HW149013   0.367   7.339   2.935 -1.7111  1.0087 -2.3342
12598SOL    HW249014   0.512   7.411   2.911 -0.1449 -1.0006  0.8220
12599SOL     OW49015   2.123   5.063   4.899  0.1076  0.2889 -0.4381
12599SOL    HW149016   2.063   5.120   4.955  1.4494  0.6069  0.7230
12599SOL    HW249017   2.173   5.121   4.834  0.0736  0.1810 -0.5613
12600SOL     OW49018   0.484   6.369   3.492  0.0411 -0.1828 -0.4299
12600SOL    HW149019   0.427   6.300   3.537  0.3486 -0.7059 -0.8406
12600SOL    HW249020   0.428   6.450   3.472  0.1809  0.5262  1.9622
12601SOL     OW49021   9.732   4.627   2.134 -0.3626  0.6160 -0.0627
12601SOL    HW149022   9.712   4.563   2.060 -0.7536 -0.4760  0.9787
12601SOL    HW249023   9.668   4.703   2.130 -0.0405  0.8462 -1.1753
12602SOL     OW49024   3.755   5.833   5.481 -0.2207 -0.1357 -0.9893
12602SOL    HW149025   3.714   5.923   5.464 -1.3731 -1.0192 -3.1291
12602SOL    HW249026   3.688   5.775   5.528  0.4178  0.0139  0.1201
12603SOL     OW49027   2.603   8.635   0.871 -0.1488  0.1251  0.3041
12603SOL    HW149028   2.602   8.630   0.771 -2.2590  1.6304  0.2158
12603SOL    HW249029   2.511   8.658   0.904  0.2404 -1.4719  2.6619
12604SOL     OW49030   9.656   7.544   4.845 -0.8589  0.0918 -0.5626
12604SOL    HW149031   9.668   7.477   4.918 -2.7233  0.0049 -0.3252
12604SOL    HW249032   9.568   7.590   4.856  0.0411  1.9979 -1.1996
12605SOL     OW49033   0.929   8.621   6.020 -0.0236  0.1233  0.5460
12605SOL    HW149034   0.959   8.711   5.986 -1.5457  0.8262  1.0236
12605SOL    HW249035   1.008   8.572   6.056  0.9531  0.9701 -0.3932
12606SOL     OW49036   1.776   3.927   0.397  0.2291  0.2057 -0.1349
12606SOL    HW149037   1.707   3.885   0.455  1.7825 -0.9330  0.9494
12606SOL    HW249038   1.772   4.026   0.407 -1.1793  0.1481 -0.0319
12607SOL     OW49039   5.273   3.301   3.229 -0.1984 -0.0538  0.6577
12607SOL    HW149040   5.344   3.290   3.159 -0.1129  0.0600  0.7261
12607SOL    HW249041   5.193   3.246   3.204  0.2118 -0.8028  0.9807
12608SOL     OW49042   8.655   8.038   2.637  0.1181  0.4232 -1.0314
12608SOL    HW149043   8.626   8.124   2.680  0.3934  0.3033 -0.6072
12608SOL    HW249044   8.618   8.033   2.544  0.8860  1.4372 -1.4008
12609SOL     OW49045   2.422   7.526   1.294 -0.1765  0.3717 -0.5098
12609SOL    HW149046   2.385   7.501   1.383  0.5216 -1.4540 -0.7262
12609SOL    HW249047   2.387   7.464   1.224 -0.0848  1.2937 -1.3983
12610SOL     OW49048   9.547   3.395   5.988  0.2635  0.1015 -0.0919
12610SOL    HW149049   9.515   3.377   5.895  0.0225  0.7784 -0.1443
12610SOL    HW249050   9.471   3.428   6.043  0.5928  0.4917  0.1289
12611SOL     OW49051   6.967   8.464   3.441 -0.4852 -0.0516 -0.0147
12611SOL    HW149052   7.036   8.446   3.511 -0.5987 -0.2968  0.0338
12611SOL    HW249053   6.939   8.560   3.446  0.5884  0.3075 -0.6964
12612SOL     OW49054   3.728   9.796   4.603  0.4622  0.0123 -0.2770
12612SOL    HW149055   3.662   9.817   4.675  0.0912 -1.0993 -0.2820
12612SOL    HW249056   3.820   9.821   4.634  0.2072  0.3136  0.2483
12613SOL     OW49057   2.410   4.835   0.207  0.2989 -0.0256  0.9336
12613SOL    HW149058   2.428   4.882   0.121 -1.2288 -2.7921 -1.0070
12613SOL    HW249059   2.492   4.786   0.236  0.8382  0.9604  1.0669
12614SOL     OW49060   8.630   1.808   5.119 -0.4308  0.2130 -0.3708
12614SOL    HW149061   8.721   1.819   5.079 -0.6000 -0.6975 -1.0266
12614SOL    HW249062   8.592   1.898   5.139  0.7882  0.5836  0.3193
12615SOL     OW49063   9.271   6.162   3.296 -0.1358 -0.3790  0.7861
12615SOL    HW149064   9.247   6.253   3.329  0.1536  0.2097 -0.5807
12615SOL    HW249065   9.248   6.094   3.365  0.4301  0.8138  2.1653
12616SOL     OW49066   0.618   8.803   4.255 -0.1246 -0.3803  0.2037
12616SOL    HW149067   0.518   8.802   4.257 -0.1935  1.2709 -1.1852
12616SOL    HW249068   0.650   8.890   4.217  1.8237 -1.5016 -0.8035
12617SOL     OW49069   4.864   5.306   1.617 -0.1255 -0.1644 -0.5007
12617SOL    HW149070   4.904   5.234   1.560 -2.2661 -1.8208  0.0381
12617SOL    HW249071   4.821   5.374   1.559 -0.0702 -0.5168 -0.9592
12618SOL     OW49072   8.721   0.877   4.639  0.0328 -0.0399 -0.1885
12618SOL    HW149073   8.695   0.815   4.712  0.3623  0.1493  0.0872
12618SOL    HW249074   8.811   0.916   4.657 -0.4545  1.0214 -0.0222
12619SOL     OW49075   4.971   4.843   5.972  0.2191 -0.7462 -0.2080
12619SOL    HW149076   4.910   4.789   6.030 -0.9991  0.4046 -0.4023
12619SOL    HW249077   5.063   4.844   6.012 -0.2030 -1.3727  0.8005
12620SOL     OW49078   7.917   5.137   0.691  0.1588  0.6580 -0.3532
12620SOL    HW149079   7.887   5.077   0.617  0.0358  0.2555  0.0189
12620SOL    HW249080   8.013   5.160   0.679  0.2890  0.1264 -0.3231
12621SOL     OW49081   9.271   6.371   5.932  0.4038 -0.0567  0.3818
12621SOL    HW149082   9.206   6.445   5.946  1.0514  0.4056  0.9689
12621SOL    HW249083   9.333   6.394   5.857 -0.6264 -0.8597 -0.7359
12622SOL     OW49084   7.867   9.738   5.148  0.5646 -0.4659  0.1868
12622SOL    HW149085   7.952   9.700   5.183 -0.5911 -1.0560  2.4564
12622SOL    HW249086   7.870   9.838   5.153  1.4358 -0.4549 -0.5215
12623SOL     OW49087   6.061   9.477   3.637 -0.0147 -0.1996  0.4841
12623SOL    HW149088   6.089   9.565   3.674 -0.9257  0.5255 -0.5335
12623SOL    HW249089   5.966   9.458   3.664 -0.2280 -0.3048 -0.3296
12624SOL     OW49090   3.829   8.411   3.665 -0.3237  0.0888  0.4361
12624SOL    HW149091   3.831   8.494   3.721 -2.4420 -1.9124  3.6390
12624SOL    HW249092   3.737   8.398   3.628  0.6353  0.4595 -2.1724
12625SOL     OW49093   4.214   7.524   3.130 -0.5773  0.3713 -0.5434
12625SOL    HW149094   4.128   7.569   3.154 -1.6730 -1.2599 -1.3216
12625SOL    HW249095   4.275   7.590   3.085 -1.9031  1.2342 -1.0989
12626SOL     OW49096   8.308   2.831   0.588  0.5981 -0.0036  0.3995
12626SOL    HW149097   8.256   2.899   0.640 -2.2797 -0.1071 -2.1879
12626SOL    HW249098   8.359   2.878   0.515  0.3437 -0.3809 -0.0226
12627SOL     OW49099   7.488   1.954   0.181  0.1733  0.4073  0.4930
12627SOL    HW149100   7.404   1.943   0.128  0.0099 -0.0986  0.8518
12627SOL    HW249101   7.564   1.976   0.119 -0.1525  0.4990  0.1282
12628SOL     OW49102   6.345   0.032   2.519 -0.6503 -0.4709 -0.2639
12628SOL    HW149103   6.378  -0.051   2.563 -0.4763 -0.4458 -0.3457
12628SOL    HW249104   6.285   0.081   2.582  1.3498  0.7076  0.8167
12629SOL     OW49105   6.823   7.771   4.992  0.2650  0.0067  0.8015
12629SOL    HW149106   6.846   7.734   4.902  0.4493  0.2794  0.7343
12629SOL    HW249107   6.833   7.870   4.991 -0.2805  0.0693  0.9618
12630SOL     OW49108   0.982   9.783   4.366 -0.1194  0.1059  0.0649
12630SOL    HW149109   0.972   9.786   4.466  0.3859  0.7186  0.1001
12630SOL    HW249110   0.969   9.875   4.329  3.1616  0.5424 -0.0924
12631SOL     OW49111   1.857   0.558   5.881 -0.3124 -0.0761  0.0345
12631SOL    HW149112   1.904   0.642   5.907  0.0026 -0.5350  0.9994
12631SOL    HW249113   1.908   0.479   5.916 -1.3903 -0.6073  0.4279
12632SOL     OW49114   9.549   4.446   5.106 -0.4296  0.1417 -0.0336
12632SOL    HW149115   9.535   4.363   5.160 -0.2676 -0.9003 -1.5611
12632SOL    HW249116   9.601   4.424   5.023 -1.2182  1.5836 -0.9367
12633SOL     OW49117   7.924   2.531   3.401 -0.5406 -0.7550  0.3065
12633SOL    HW149118   8.017   2.544   3.365 -0.3608 -0.5020  0.8512
12633SOL    HW249119   7.886   2.620   3.425 -1.4584 -0.7196 -1.2065
12634SOL     OW49120   1.158   5.681   4.738  0.2621 -0.0460 -0.1661
12634SOL    HW149121   1.115   5.724   4.818  0.0340 -0.1879 -0.2134
12634SOL    HW249122   1.203   5.597   4.766 -0.6354 -0.6016 -0.3559
12635SOL     OW49123   5.670   9.586   4.652  0.4028 -0.1214 -0.1226
12635SOL    HW149124   5.617   9.670   4.640  1.6654  0.7305  0.1092
12635SOL    HW249125   5.738   9.579   4.579  0.3340 -0.9090 -0.1064
12636SOL     OW49126   8.603   4.753   4.704 -0.3372 -0.1517 -0.7328
12636SOL    HW149127   8.673   4.756   4.775 -1.6159 -1.9718  0.6577
12636SOL    HW249128   8.602   4.840   4.654 -0.3303  1.7445  2.4304
12637SOL     OW49129   3.329   2.875   2.122  0.0442  0.3215  0.4902
12637SOL    HW149130   3.339   2.777   2.108 -1.3105  0.0837  1.1340
12637SOL    HW249131   3.307   2.919   2.035  0.8573  0.1038  0.1617
12638SOL     OW49132   1.930   5.382   4.553  0.5784  0.2103 -1.0563
12638SOL    HW149133   1.935   5.416   4.647 -2.2970 -0.4426 -0.6030
12638SOL    HW249134   1.925   5.460   4.490  0.3831  0.6614 -0.4935
12639SOL     OW49135   8.720   6.874   6.088 -0.1734 -0.6019 -0.1288
12639SOL    HW149136   8.636   6.824   6.066 -0.6949  0.0547  0.3291
12639SOL    HW249137   8.705   6.928   6.172  0.1974  0.7357 -0.9129
12640SOL     OW49138   0.366   0.987   0.269  0.5852 -0.4605 -0.3093
12640SOL    HW149139   0.382   0.951   0.360 -0.8777 -0.1903  0.0598
12640SOL    HW249140   0.429   1.063   0.252  1.9531 -1.5412 -0.1530
12641SOL     OW49141   3.721   3.936   0.556  0.6574 -0.2380 -0.8415
12641SOL    HW149142   3.698   4.025   0.517 -0.3068  0.0635  0.3578
12641SOL    HW249143   3.749   3.873   0.484  1.9172  1.2183 -1.6356
12642SOL     OW49144   7.837   5.952   5.361 -0.1883  0.4221  0.1747
12642SOL    HW149145   7.774   5.991   5.428  1.6273  0.4638  1.9171
12642SOL    HW249146   7.853   5.856   5.383  1.3875  0.7647  0.5694
12643SOL     OW49147   6.021   9.402   3.068  0.2223 -0.1369  0.4419
12643SOL    HW149148   6.054   9.478   3.013 -1.3998  0.5117  0.3393
12643SOL    HW249149   6.095   9.366   3.124  1.7510 -0.4446 -1.7489
12644SOL     OW49150   2.534   3.873   1.827  0.3660  0.1534 -0.6227
12644SOL    HW149151   2.592   3.792   1.837  1.6209  0.9796 -1.1496
12644SOL    HW249152   2.514   3.911   1.917 -0.5465 -0.9554 -0.3450
12645SOL     OW49153   9.864   1.646   3.926 -0.1268 -0.1548  0.2998
12645SOL    HW149154   9.788   1.637   3.991 -0.6599 -0.7346 -0.3882
12645SOL    HW249155   9.854   1.732   3.875  0.2902  0.2971  0.9824
12646SOL     OW49156   6.290   9.441   4.308  0.1395 -0.1051  0.2652
12646SOL    HW149157   6.219   9.415   4.374  0.3417 -0.4963  0.3355
12646SOL    HW249158   6.313   9.537   4.319  0.7585 -0.3571  1.3377
12647SOL     OW49159   7.793   0.348   6.649 -0.1357  0.0515  0.0164
12647SOL    HW149160   7.702   0.330   6.686 -0.3190  2.4289  0.8130
12647SOL    HW249161   7.851   0.267   6.659 -0.7558  0.0293  3.7910
12648SOL     OW49162   9.757   5.178   6.162 -0.6970 -0.3198  0.8068
12648SOL    HW149163   9.710   5.213   6.243 -0.0714  1.4929  0.4125
12648SOL    HW249164   9.700   5.193   6.081 -0.3679 -0.1019  0.6144
12649SOL     OW49165   1.807   7.411   5.933  0.0944 -0.6495  0.4366
12649SOL    HW149166   1.820   7.479   6.004 -0.3540  0.2964 -0.3691
12649SOL    HW249167   1.762   7.330   5.971  0.0681 -0.2446  1.2663
12650SOL     OW49168   3.398   5.245   4.516 -0.0054 -0.2652  0.1521
12650SOL    HW149169   3.333   5.172   4.496 -0.8562  0.4326  0.3452
12650SOL    HW249170   3.386   5.276   4.610  0.4642  0.0147  0.1231
12651SOL     OW49171   9.706   5.507   2.655  0.4503  0.0237 -0.0094
12651SOL    HW149172   9.740   5.413   2.652  1.4864  0.4392 -2.0491
12651SOL    HW249173   9.782   5.571   2.643 -0.2872  1.1196  1.0318
12652SOL     OW49174   8.597   3.304   5.079  0.5066  0.6174  0.0715
12652SOL    HW149175   8.649   3.346   5.005  2.4941 -2.1743 -0.2214
12652SOL    HW249176   8.636   3.333   5.167 -0.0648  1.7354 -0.0390
12653SOL     OW49177   4.615   4.251   1.707  0.3079 -0.3589  0.3025
12653SOL    HW149178   4.627   4.156   1.737 -0.0339 -0.2505  0.7856
12653SOL    HW249179   4.518   4.269   1.692  0.4125 -0.2065 -0.1985
12654SOL     OW49180   1.930   2.997   0.213  0.4598  0.4980  0.6485
12654SOL    HW149181   1.863   3.055   0.166 -0.1752 -1.0408 -0.3623
12654SOL    HW249182   1.992   2.958   0.145  0.2506 -0.8217  1.2166
12655SOL     OW49183   0.576   8.227   4.576 -0.1877  0.0086  0.1067
12655SOL    HW149184   0.618   8.215   4.666  1.8242 -0.7813 -0.9088
12655SOL    HW249185   0.632   8.181   4.507 -2.2412 -0.2519 -1.4267
12656SOL     OW49186   0.546   7.496   1.688  0.0339 -0.5872 -0.0113
12656SOL    HW149187   0.473   7.429   1.704 -0.1881 -0.0446  1.3581
12656SOL    HW249188   0.517   7.585   1.723  1.3278 -0.3586  0.5055
12657SOL     OW49189   5.202   5.242   0.492  0.0398  0.0865  0.3102
12657SOL    HW149190   5.198   5.163   0.553  1.7747 -0.5974 -0.4215
12657SOL    HW249191   5.112   5.284   0.485 -0.3905 -0.4050  2.5593
12658SOL     OW49192   5.847   8.483   1.811 -0.0419  0.3631  0.2631
12658SOL    HW149193   5.881   8.537   1.735 -0.6076 -0.4661 -0.5876
12658SOL    HW249194   5.898   8.507   1.894  2.0921 -0.2963 -0.8136
12659SOL     OW49195   1.075   6.562   0.110 -0.2789  0.2867 -0.0879
12659SOL    HW149196   1.046   6.554   0.206  0.2948  0.4424  0.1013
12659SOL    HW249197   1.084   6.471   0.070  0.9527  0.1632  0.4546
12660SOL     OW49198   0.957   3.026   2.185  0.0398 -0.3950  0.2247
12660SOL    HW149199   0.987   2.941   2.143 -0.0904 -0.4864  0.3129
12660SOL    HW249200   1.020   3.100   2.162 -2.8598  0.7466 -4.5753
12661SOL     OW49201   4.604   2.141   4.134 -0.2114  0.2070  0.3563
12661SOL    HW149202   4.592   2.071   4.063 -0.3589 -1.0614  1.6148
12661SOL    HW249203   4.660   2.215   4.098 -0.5382 -0.2772 -1.1926
12662SOL     OW49204   5.406   7.516   3.545 -0.5672 -0.7102 -0.2353
12662SOL    HW149205   5.354   7.599   3.527  2.3846  1.2200 -0.2915
12662SOL    HW249206   5.435   7.474   3.459  0.3412 -0.1868 -0.1943
12663SOL     OW49207   0.809   0.028   5.850  0.7157 -0.3712  0.1418
12663SOL    HW149208   0.906   0.020   5.870  0.9507 -0.5441 -1.0268
12663SOL    HW249209   0.796   0.091   5.773 -0.1151 -0.1785  0.4293
12664SOL     OW49210   0.135   2.271   1.756  0.4346  0.4335  1.1221
12664SOL    HW149211   0.171   2.306   1.843  1.9709 -2.6821  1.8392
12664SOL    HW249212   0.043   2.235   1.771  0.4835  0.3967  1.3365
12665SOL     OW49213   5.722   1.822   2.571  0.0919  0.1567 -0.6408
12665SOL    HW149214   5.803   1.866   2.533 -0.3041  2.4312  1.0576
12665SOL    HW249215   5.709   1.851   2.666 -2.3420 -0.6738 -0.6737
12666SOL     OW49216   4.412   5.313   4.921  0.0201  0.1031  0.0628
12666SOL    HW149217   4.510   5.294   4.930  0.1157  0.5112 -0.1258
12666SOL    HW249218   4.399   5.407   4.890 -0.4603  0.3849  1.1120
12667SOL     OW49219   9.168   6.564   0.048 -0.3717 -0.4844 -0.1787
12667SOL    HW149220   9.159   6.606  -0.042 -1.1788  0.5818  0.3856
12667SOL    HW249221   9.104   6.488   0.056 -0.2730 -0.6037 -0.5128
12668SOL     OW49222   9.339   3.174   2.572 -0.1031  0.1500 -0.2995
12668SOL    HW149223   9.308   3.083   2.600  0.3983 -0.0358 -0.3336
12668SOL    HW249224   9.403   3.210   2.640  0.1028  0.2499 -0.5427
12669SOL     OW49225   8.190   2.997   0.766 -0.4563  0.0860  0.2192
12669SOL    HW149226   8.223   2.955   0.850 -1.3073  0.4829  0.7593
12669SOL    HW249227   8.119   3.064   0.788  0.3603  1.2670 -0.6904
12670SOL     OW49228   9.993   9.240   3.821  0.1089 -0.2882  0.2461
12670SOL    HW149229   9.897   9.228   3.799  0.4455 -2.5136 -0.1229
12670SOL    HW249230  10.015   9.337   3.825 -2.7094  0.3294  2.7386
12671SOL     OW49231   4.050   9.062   5.281  0.3275  0.1752 -0.3151
12671SOL    HW149232   4.149   9.049   5.287  0.3986  1.5908  2.3145
12671SOL    HW249233   4.027   9.154   5.311 -1.7323  0.1050 -1.6216
12672SOL     OW49234   4.055   7.353   0.934 -0.7530  0.1953 -0.3955
12672SOL    HW149235   4.084   7.321   0.844  0.3277  3.9017 -1.4691
12672SOL    HW249236   3.955   7.363   0.934 -0.9536 -1.6214 -0.5177
12673SOL     OW49237   0.344   4.890   4.589  0.2882  0.2717 -0.2904
12673SOL    HW149238   0.316   4.841   4.672  0.0410  0.4914 -0.2436
12673SOL    HW249239   0.442   4.907   4.592  0.0317  1.6274  0.6676
12674SOL     OW49240   7.775   0.524   5.727 -0.0747 -0.5487 -0.0172
12674SOL    HW149241   7.810   0.617   5.726 -1.6209  0.0507 -1.1640
12674SOL    HW249242   7.727   0.507   5.812  1.5275 -0.8232  0.8491
12675SOL     OW49243   3.495   6.001   5.720 -0.2197 -0.2669 -0.0194
12675SOL    HW149244   3.397   5.981   5.722 -0.1513 -0.6913 -0.6566
12675SOL    HW249245   3.522   6.026   5.627  0.2467 -0.0045  0.1850
12676SOL     OW49246   4.991   8.302   5.754  0.3745 -0.2286  0.1111
12676SOL    HW149247   5.064   8.249   5.711 -2.3447 -2.1262 -2.3718
12676SOL    HW249248   5.018   8.398   5.759  3.3658 -1.0226  0.0577
12677SOL     OW49249   5.020   8.429   2.298  0.4064 -0.3956 -0.1746
12677SOL    HW149250   4.936   8.398   2.344  0.5139 -0.2045  0.1495
12677SOL    HW249251   5.099   8.382   2.338  0.4744 -0.4158 -0.3361
12678SOL     OW49252   9.718   9.451   6.180 -0.4560 -0.3336 -0.1771
12678SOL    HW149253   9.728   9.353   6.193 -0.6415 -0.2439  0.6491
12678SOL    HW249254   9.660   9.468   6.101  0.0911 -0.8812 -0.7053
12679SOL     OW49255   4.141   1.803   1.119 -0.3588  0.3883  0.4058
12679SOL    HW149256   4.195   1.789   1.036  0.9974  1.2488  1.1370
12679SOL    HW249257   4.045   1.781   1.100 -0.0795  0.6537 -1.4077
12680SOL     OW49258   0.168   5.946   6.361  0.3117  0.0147  0.0960
12680SOL    HW149259   0.162   6.028   6.304  0.3333  1.5229  2.2288
12680SOL    HW249260   0.252   5.896   6.339  1.7242  2.0751  0.7537
12681SOL     OW49261   9.029   7.814   3.779 -0.3650  0.4381  0.0018
12681SOL    HW149262   9.006   7.732   3.832  1.1372  0.7554  1.1657
12681SOL    HW249263   9.013   7.896   3.834 -1.4408  0.9211 -1.0072
12682SOL     OW49264   2.919   0.191   2.699  0.4820  0.4576  0.0078
12682SOL    HW149265   2.927   0.276   2.648  2.7536  1.6246  2.1951
12682SOL    HW249266   2.985   0.124   2.663  1.7960  1.1447  1.0613
12683SOL     OW49267   7.097   0.827   1.227  0.0695  0.4245  0.2284
12683SOL    HW149268   7.187   0.786   1.246 -0.7610 -1.0477  1.1318
12683SOL    HW249269   7.095   0.920   1.262  1.0861  0.2905  0.6735
12684SOL     OW49270   7.678   4.223   6.178 -0.2572  0.9838  0.0651
12684SOL    HW149271   7.723   4.149   6.227 -0.2674  0.3170 -0.9232
12684SOL    HW249272   7.579   4.211   6.184 -0.3222  2.1030  1.7022
12685SOL     OW49273   8.662   0.928   0.902  0.4857  0.3514 -0.0181
12685SOL    HW149274   8.660   0.913   0.803  0.2673  0.0704  0.0276
12685SOL    HW249275   8.709   1.014   0.922 -1.9347  1.8315 -0.5129
12686SOL     OW49276   3.426   4.999   5.182  1.1025 -0.0059 -0.1791
12686SOL    HW149277   3.364   5.048   5.121  1.4641 -0.1055 -0.6318
12686SOL    HW249278   3.433   5.047   5.269 -1.2497 -1.1122  0.6471
12687SOL     OW49279   2.246   6.868   5.615 -0.2554  0.4224 -0.4388
12687SOL    HW149280   2.205   6.929   5.547 -0.5911 -0.7383 -1.2828
12687SOL    HW249281   2.342   6.892   5.628 -0.3018  0.9161 -1.0133
12688SOL     OW49282   4.449   9.803   3.467 -0.0399 -0.4880 -0.2893
12688SOL    HW149283   4.422   9.709   3.488 -0.5168 -0.2914 -0.0260
12688SOL    HW249284   4.501   9.804   3.382 -1.2469 -0.8049 -1.0474
12689SOL     OW49285   2.586   1.468   3.933  0.0554  0.4946  0.3817
12689SOL    HW149286   2.534   1.530   3.874 -1.2463 -0.2624  0.7297
12689SOL    HW249287   2.586   1.376   3.893  2.6524  0.8401 -0.5478
12690SOL     OW49288   0.808   1.353   3.654 -0.1722  0.2575  0.1108
12690SOL    HW149289   0.900   1.374   3.620  0.5507 -0.3030  1.7066
12690SOL    HW249290   0.815   1.298   3.737 -1.9605  0.0262  0.1116
12691SOL     OW49291   0.125   0.043   0.119  0.0149  0.0884 -0.2776
12691SOL    HW149292   0.135   0.015   0.024 -0.7797 -2.2792  0.3275
12691SOL    HW249293   0.189  -0.009   0.176 -0.9166  0.0646  0.7557
12692SOL     OW49294   2.447   5.658   2.140 -0.0417  0.0470  0.1923
12692SOL    HW149295   2.473   5.580   2.082  0.2864 -0.0687  0.4922
12692SOL    HW249296   2.476   5.641   2.234  1.4514  1.2191 -0.0377
12693SOL     OW49297   8.848   5.015   1.435 -0.1048  0.2281 -0.1381
12693SOL    HW149298   8.858   4.932   1.381 -0.8394 -0.5132  0.8406
12693SOL    HW249299   8.809   4.992   1.525 -2.0668  1.8532 -0.5392
12694SOL     OW49300   1.989   5.692   2.335 -0.1745  0.0592 -0.2250
12694SOL    HW149301   1.955   5.617   2.278 -1.7973 -1.6328  2.8778
12694SOL    HW249302   2.081   5.717   2.304 -0.2173 -2.1322 -2.2987
12695SOL     OW49303   7.874   2.805   6.018  0.8473  0.0804  0.1232
12695SOL    HW149304   7.874   2.865   6.099  2.0298 -0.9408  0.8961
12695SOL    HW249305   7.936   2.728   6.034  0.4726 -0.5562 -1.4550
12696SOL     OW49306   4.880   5.421   2.580  0.2070  0.3507 -0.2122
12696SOL    HW149307   4.862   5.323   2.574  1.4141  0.0707  0.6281
12696SOL    HW249308   4.887   5.448   2.676  0.0333  1.2341 -0.4421
12697SOL     OW49309   9.131   6.021   4.361  0.0333 -0.7256 -0.1696
12697SOL    HW149310   9.158   5.971   4.279 -0.8020  0.9071 -1.4741
12697SOL    HW249311   9.041   5.989   4.391  0.8586 -2.1628  0.8420
12698SOL     OW49312   1.576   8.452   3.228  0.0398  0.4572  0.4621
12698SOL    HW149313   1.605   8.362   3.262  1.3619  0.8475  0.4149
12698SOL    HW249314   1.649   8.491   3.172 -0.1376  1.9465  1.2286
12699SOL     OW49315   9.875   3.264   6.365 -0.3878  0.1924  0.2038
12699SOL    HW149316   9.942   3.198   6.332  2.5515  3.1667 -0.0190
12699SOL    HW249317   9.844   3.321   6.289 -0.5896  1.0491  0.9240
12700SOL     OW49318   4.028   1.680   2.760  0.0555 -0.1894 -0.1307
12700SOL    HW149319   4.116   1.717   2.731  1.2609 -1.5587  1.6423
12700SOL    HW249320   3.954   1.738   2.727  1.5912  0.7023 -2.0809
12701SOL     OW49321   4.088   6.558   4.440  0.1371 -0.1917  0.3296
12701SOL    HW149322   4.138   6.494   4.498  0.1170 -0.2364  0.2971
12701SOL    HW249323   4.083   6.647   4.485  2.7590  0.6354 -0.9168
12702SOL     OW49324   8.618   2.936   1.508 -0.0633 -0.0570  0.0529
12702SOL    HW149325   8.569   2.999   1.568 -2.2130 -0.8099 -0.8601
12702SOL    HW249326   8.716   2.938   1.529 -0.3094  2.4297  1.0518
12703SOL     OW49327   0.124   3.659   3.553 -0.6702 -0.5414  0.0403
12703SOL    HW149328   0.092   3.751   3.578  0.3553 -0.0965 -0.2369
12703SOL    HW249329   0.047   3.604   3.522 -2.0527 -1.1896  4.3477
12704SOL     OW49330   4.510   0.905   5.017 -0.0561  0.2607 -0.0516
12704SOL    HW149331   4.545   0.993   5.049 -1.6972  0.8022  0.2947
12704SOL    HW249332   4.542   0.888   4.924  2.0526  0.1929  0.6611
12705SOL     OW49333   6.878   9.856   5.646  0.7624 -0.1391  0.3070
12705SOL    HW149334   6.964   9.903   5.625 -0.2517  1.6137 -0.0116
12705SOL    HW249335   6.879   9.764   5.605  1.6639  0.6159 -1.4089
12706SOL     OW49336   4.038   4.359   5.006 -0.0963  0.1488 -0.4103
12706SOL    HW149337   4.133   4.355   4.973 -0.2828  1.7470 -1.1606
12706SOL    HW249338   3.996   4.444   4.976 -1.5846 -0.2680  0.4665
12707SOL     OW49339   7.964   5.280   0.285  0.1224 -0.4012 -0.1251
12707SOL    HW149340   7.932   5.283   0.380  0.0574 -0.3794 -0.1481
12707SOL    HW249341   8.050   5.229   0.281 -0.0459 -0.6851 -0.1049
12708SOL     OW49342   0.101   1.294   0.171  0.2595  0.1183  0.5839
12708SOL    HW149343   0.027   1.352   0.205 -0.9527  0.0336 -1.8829
12708SOL    HW249344   0.184   1.314   0.224 -0.7288  2.4025  1.3624
12709SOL     OW49345   8.651   9.348   4.363  0.2887  0.0869 -0.4078
12709SOL    HW149346   8.740   9.365   4.406 -1.0264  1.4598  1.8798
12709SOL    HW249347   8.652   9.382   4.269  1.8307  1.1722 -0.0233
12710SOL     OW49348   3.165   4.870   4.367  0.4348  0.0207  0.2753
12710SOL    HW149349   3.091   4.884   4.302  0.0704  0.2904  0.7399
12710SOL    HW249350   3.152   4.783   4.415  0.9261 -0.3725 -0.2989
12711SOL     OW49351   3.547   2.139   5.247 -0.0085 -0.0415 -0.1092
12711SOL    HW149352   3.570   2.045   5.220 -1.2836 -0.7235  1.1084
12711SOL    HW249353   3.595   2.203   5.188  1.0168 -1.4608 -0.8573
12712SOL     OW49354   9.980   5.107   3.070 -0.3134  0.2096  0.0054
12712SOL    HW149355   9.932   5.023   3.094 -0.5285  0.7859  1.6851
12712SOL    HW249356  10.029   5.142   3.150 -0.2136  1.6624 -0.6604
12713SOL     OW49357   7.740   8.559   5.138 -0.7322 -0.3922 -0.3520
12713SOL    HW149358   7.827   8.539   5.184 -0.1176 -0.1275 -1.3792
12713SOL    HW249359   7.669   8.576   5.207  1.2283  4.7268  0.6283
12714SOL     OW49360   7.657   2.105   3.867  0.2598  0.4894 -0.5793
12714SOL    HW149361   7.608   2.103   3.955 -1.0484  1.8637 -1.2542
12714SOL    HW249362   7.613   2.041   3.804  0.1365  0.7678 -0.7758
12715SOL     OW49363   1.692   4.699   6.120 -0.0272 -0.3266  0.3675
12715SOL    HW149364   1.737   4.611   6.135 -1.6784 -0.8224  2.6662
12715SOL    HW249365   1.596   4.684   6.096 -0.6620  0.8403  2.0669
12716SOL     OW49366   3.485   2.616   5.170 -0.0080 -0.0110  0.6356
12716SOL    HW149367   3.544   2.540   5.144  2.6895  2.1066  0.3557
12716SOL    HW249368   3.432   2.646   5.091  2.7006  1.6272 -0.6330
12717SOL     OW49369   1.135   6.822   2.689 -0.4975  0.6983 -0.5615
12717SOL    HW149370   1.105   6.741   2.638  0.9432 -0.2408  0.0580
12717SOL    HW249371   1.076   6.899   2.666 -2.7005 -0.8219 -0.2039
12718SOL     OW49372   4.765   1.067   5.828 -0.3259 -0.2311 -0.2449
12718SOL    HW149373   4.797   0.984   5.782  0.8414  1.7861 -3.1695
12718SOL    HW249374   4.829   1.092   5.900 -0.0211 -1.1565 -0.1858
12719SOL     OW49375   4.709   0.548   6.346 -0.0128 -0.4579  0.0571
12719SOL    HW149376   4.780   0.547   6.417  0.9240  0.1171 -0.8619
12719SOL    HW249377   4.715   0.465   6.291 -0.5818 -0.7879  0.4846
12720SOL     OW49378   6.016   5.032   0.367  0.0795  0.3243  0.2761
12720SOL    HW149379   5.931   5.028   0.313  0.6055  2.2749 -0.7556
12720SOL    HW249380   6.094   5.023   0.306  0.6362 -0.1087  1.0553
12721SOL     OW49381   7.099   0.755   1.926 -0.0795 -0.3600 -0.7042
12721SOL    HW149382   7.041   0.803   1.992  0.7162  0.8186 -0.8427
12721SOL    HW249383   7.148   0.822   1.870  2.0606 -1.3173 -0.0182
12722SOL     OW49384   0.716   8.547   0.959 -0.2447 -0.2012  0.3580
12722SOL    HW149385   0.725   8.636   1.004 -2.8227 -0.9942  2.5926
12722SOL    HW249386   0.740   8.475   1.024 -0.5781 -1.2432 -0.6588
12723SOL     OW49387   4.630   1.430   3.597  0.0044  0.0428  0.3259
12723SOL    HW149388   4.591   1.401   3.510  1.2947 -0.5068 -0.0827
12723SOL    HW249389   4.583   1.512   3.629 -0.3676  0.3468 -0.9726
12724SOL     OW49390   2.107   8.277   5.884 -0.0505 -0.0945 -0.0293
12724SOL    HW149391   2.129   8.330   5.802 -0.9405  0.3650  0.0273
12724SOL    HW249392   2.040   8.326   5.939  0.0642 -0.6976  0.6601
12725SOL     OW49393   4.264   1.408   1.172  0.5047 -0.1683 -0.3339
12725SOL    HW149394   4.333   1.370   1.110  0.1962 -0.8640 -0.2525
12725SOL    HW249395   4.299   1.406   1.265 -0.3821 -2.3935 -0.0101
12726SOL     OW49396   1.054   8.755   4.234  0.4876  0.1481 -0.3827
12726SOL    HW149397   1.057   8.814   4.315  0.1182  1.3561 -1.2186
12726SOL    HW249398   1.034   8.661   4.262 -2.5386  1.0320  0.7334
12727SOL     OW49399   1.029   4.089   2.488 -0.4311 -0.2545  0.3229
12727SOL    HW149400   1.052   4.078   2.391 -1.2196 -1.3538  0.2514
12727SOL    HW249401   0.969   4.014   2.517 -0.7503  0.4374  1.4902
12728SOL     OW49402   2.634   9.310   5.499  0.3890  0.3000 -0.0981
12728SOL    HW149403   2.642   9.355   5.588 -1.6028 -2.5620  1.6162
12728SOL    HW249404   2.685   9.224   5.501 -2.1144 -1.2576 -0.6345
12729SOL     OW49405   5.552   6.412   2.166  0.5489 -0.1074  0.2727
12729SOL    HW149406   5.595   6.490   2.121  0.2871  0.1826  0.5244
12729SOL    HW249407   5.456   6.407   2.140  0.4582 -0.0878  0.6037
12730SOL     OW49408   4.130   4.355   2.471  0.2288  0.2325 -0.3284
12730SOL    HW149409   4.107   4.429   2.408 -1.3956  0.8585  0.9679
12730SOL    HW249410   4.206   4.301   2.433  1.2376  2.3605 -1.4223
12731SOL     OW49411   0.024   1.152   0.432 -0.1589 -0.0355 -0.0532
12731SOL    HW149412   0.085   1.172   0.354 -0.8871  0.8169 -0.4176
12731SOL    HW249413   0.068   1.182   0.516 -0.7001  2.0015 -0.4713
12732SOL     OW49414   0.329   2.139   1.360  0.0041  0.3875 -0.0631
12732SOL    HW149415   0.370   2.152   1.450 -1.7728 -0.7058  0.9413
12732SOL    HW249416   0.260   2.211   1.345  1.4759  1.5862 -1.2936
12733SOL     OW49417   0.215   4.940   3.655 -0.0681  0.3248 -0.2732
12733SOL    HW149418   0.272   4.881   3.598 -1.2535 -0.4245 -0.7254
12733SOL    HW249419   0.152   4.883   3.709  0.0803  1.0936  0.7297
12734SOL     OW49420   8.660   7.367   0.827  0.0214  0.2447 -0.3126
12734SOL    HW149421   8.657   7.377   0.727 -0.6209  0.3925 -0.2822
12734SOL    HW249422   8.666   7.458   0.869 -1.3523  0.2787 -0.1697
12735SOL     OW49423   9.688   7.205   0.146  0.1314 -0.3572 -0.1532
12735SOL    HW149424   9.715   7.301   0.139 -2.1276  0.3295  0.3777
12735SOL    HW249425   9.691   7.176   0.242 -0.5830 -0.4020 -0.1426
12736SOL     OW49426   5.495   0.651   3.664  0.3858  0.0294 -0.5967
12736SOL    HW149427   5.478   0.749   3.658 -2.8722 -0.3672  1.4255
12736SOL    HW249428   5.434   0.602   3.602  0.3571 -0.8694  0.1302
12737SOL     OW49429   1.223   5.503   3.700 -0.6058  0.1334 -0.1213
12737SOL    HW149430   1.136   5.466   3.731  0.4026 -2.8740 -0.7467
12737SOL    HW249431   1.208   5.566   3.624 -2.4279  1.7803  1.5422
12738SOL     OW49432   2.856   7.522   2.073  0.0452 -0.3719 -0.0809
12738SOL    HW149433   2.820   7.435   2.039 -1.4422  0.0288  0.4461
12738SOL    HW249434   2.783   7.573   2.117  0.3515  2.1915 -2.4124
12739SOL     OW49435   9.131   7.770   6.012 -0.5696  0.3088  0.1581
12739SOL    HW149436   9.080   7.722   6.084  1.0104  0.8441  1.6727
12739SOL    HW249437   9.103   7.866   6.009 -1.9376 -0.1041 -1.2009
12740SOL     OW49438   9.324   6.242   4.098 -0.3425  0.5022 -0.0090
12740SOL    HW149439   9.417   6.243   4.060 -1.4536 -0.0050 -2.8315
12740SOL    HW249440   9.317   6.312   4.169  2.0414  0.9282 -0.1505
12741SOL     OW49441   2.814   4.847   0.369 -0.6897 -0.1507 -0.3094
12741SOL    HW149442   2.867   4.838   0.284 -2.9494  1.7327 -1.9575
12741SOL    HW249443   2.877   4.841   0.447  1.8290  0.9492 -2.1652
12742SOL     OW49444   9.995   1.953   4.559  0.0360  0.1363 -0.0662
12742SOL    HW149445   9.918   2.007   4.594  1.3240  0.6066  2.1399
12742SOL    HW249446  10.074   2.014   4.544  0.1318 -0.4042 -1.9608
12743SOL     OW49447   5.978   8.521   4.116 -0.3038 -0.2694  0.5918
12743SOL    HW149448   5.939   8.470   4.192 -0.4561 -0.6291  0.2763
12743SOL    HW249449   5.904   8.554   4.057 -0.2744  1.1905  1.3404
12744SOL     OW49450   8.884   4.199   1.038 -0.1583  0.2754 -0.3045
12744SOL    HW149451   8.797   4.160   1.069 -0.3442 -0.5922 -1.8282
12744SOL    HW249452   8.946   4.124   1.012  0.6272  0.9197 -0.3006
12745SOL     OW49453   3.097   8.933   2.000 -0.3937 -0.5181  0.3672
12745SOL    HW149454   3.107   8.979   1.912  0.0366 -0.9957  0.1672
12745SOL    HW249455   3.026   8.979   2.053 -1.0177 -0.5385 -0.4331
12746SOL     OW49456   2.245   5.354   2.459 -0.2294 -0.0056  0.6321
12746SOL    HW149457   2.260   5.342   2.361 -0.3763  1.0502  0.4847
12746SOL    HW249458   2.154   5.391   2.475  0.1959  0.8606  1.1016
12747SOL     OW49459   8.964   7.424   6.611 -0.0998 -0.4858  0.2533
12747SOL    HW149460   9.033   7.352   6.610  0.4758  0.0564  0.2238
12747SOL    HW249461   9.008   7.512   6.630 -0.7321 -0.0763 -0.1504
12748SOL     OW49462   2.620   3.056   1.322  0.5410  0.1652 -0.3377
12748SOL    HW149463   2.624   3.155   1.332  0.4858 -0.0465  2.1699
12748SOL    HW249464   2.537   3.021   1.366  0.9408 -1.0455 -0.5172
12749SOL     OW49465   1.003   4.587   1.372  0.0330  0.0609 -0.2633
12749SOL    HW149466   1.054   4.537   1.443 -1.6198 -2.4403 -0.7852
12749SOL    HW249467   0.916   4.618   1.410 -0.9890 -1.5431 -1.2492
12750SOL     OW49468   9.184   2.426   5.427 -0.1450  0.0426 -0.1382
12750SOL    HW149469   9.158   2.337   5.387  0.1283 -0.6928  1.3010
12750SOL    HW249470   9.186   2.495   5.355 -3.0985 -0.5216 -0.8345
12751SOL     OW49471   2.080   2.344   2.097 -0.5112  0.1769 -0.9427
12751SOL    HW149472   2.126   2.363   2.184 -0.2914  1.0353 -1.2438
12751SOL    HW249473   2.110   2.255   2.063  0.3830  0.4037 -0.7733
12752SOL     OW49474   8.187   3.469   6.304  0.1835 -0.7114  0.0777
12752SOL    HW149475   8.230   3.479   6.214 -0.0780 -1.7265 -0.1604
12752SOL    HW249476   8.111   3.406   6.298  1.2329 -2.1335  1.3775
12753SOL     OW49477   4.398   1.502   4.728  0.2939  0.7584 -0.1699
12753SOL    HW149478   4.306   1.537   4.747  0.5752  1.5010 -0.1762
12753SOL    HW249479   4.392   1.405   4.705 -0.5897  1.0061 -1.0042
12754SOL     OW49480   9.450   3.003   3.120 -0.0749  0.7802  0.3356
12754SOL    HW149481   9.389   3.036   3.192 -2.0607  0.0082 -0.9587
12754SOL    HW249482   9.461   3.074   3.051 -2.0764 -0.1836 -1.0178
12755SOL     OW49483   2.327   1.813   0.512 -0.0654  0.3718 -0.4308
12755SOL    HW149484   2.380   1.803   0.596 -0.1967 -1.2468 -0.5365
12755SOL    HW249485   2.345   1.903   0.472 -1.1644  1.7809  2.1279
12756SOL     OW49486   5.560   0.080   2.561 -0.5705 -0.4010 -0.6785
12756SOL    HW149487   5.652   0.059   2.595 -1.1863 -1.6176  0.2485
12756SOL    HW249488   5.537   0.017   2.487 -0.1330  0.7836 -1.8468
12757SOL     OW49489   9.228   8.477   4.870 -0.0485 -0.1825  0.0187
12757SOL    HW149490   9.206   8.529   4.952  1.2122  1.1343 -0.4446
12757SOL    HW249491   9.321   8.441   4.876 -0.6750 -1.8510  0.0433
12758SOL     OW49492   7.932   6.904   4.806 -0.0963 -0.6140 -0.0777
12758SOL    HW149493   7.931   6.999   4.836  0.1442 -0.8566  0.6861
12758SOL    HW249494   7.847   6.884   4.755 -0.0029  0.0895 -0.5091
12759SOL     OW49495   8.517   8.995   2.340  0.0878 -0.0531  0.2328
12759SOL    HW149496   8.561   8.905   2.340 -0.7976 -0.5004  0.0289
12759SOL    HW249497   8.428   8.988   2.295 -0.1706  0.8386  0.5898
12760SOL     OW49498   0.107   9.564   3.017  0.1670 -0.9566 -0.4656
12760SOL    HW149499   0.022   9.597   3.059 -0.3029  0.5234 -2.5350
12760SOL    HW249500   0.149   9.496   3.078 -2.2366 -1.3738  0.8090
12761SOL     OW49501   3.586   3.467   6.037 -0.0011 -0.1971  0.5006
12761SOL    HW149502   3.605   3.490   6.132  1.3765  0.6333  0.0297
12761SOL    HW249503   3.496   3.504   6.012  0.3777  1.0775  0.9753
12762SOL     OW49504   9.947   4.535   0.163 -0.0551 -0.0295 -0.3252
12762SOL    HW149505   9.856   4.493   0.161  0.4118 -1.0249 -2.7439
12762SOL    HW249506   9.939   4.632   0.137 -0.4920  0.0310  0.0318
12763SOL     OW49507   3.803   2.011   2.109 -0.6759  0.0311  0.1467
12763SOL    HW149508   3.825   1.969   2.198 -4.6808 -2.1471  0.2176
12763SOL    HW249509   3.816   1.943   2.037  0.4982  1.1666 -0.7349
12764SOL     OW49510   4.772   3.493   2.346  0.0731  0.2244  0.6812
12764SOL    HW149511   4.769   3.517   2.442  0.2409  2.5074  0.1337
12764SOL    HW249512   4.679   3.479   2.312 -0.2001  2.3857  0.4735
12765SOL     OW49513   8.578   8.163   3.269 -0.0584 -0.1812  0.2099
12765SOL    HW149514   8.666   8.166   3.222 -0.4373  1.3440 -0.4261
12765SOL    HW249515   8.591   8.133   3.363  1.5867  3.1180  1.0962
12766SOL     OW49516   2.760   2.798   0.338  0.0640 -0.3362  0.6747
12766SOL    HW149517   2.767   2.843   0.249  0.5667  1.1904  1.4713
12766SOL    HW249518   2.699   2.719   0.330  1.7858 -1.4993 -1.5081
12767SOL     OW49519   4.763   3.718   0.180  0.2162  0.6084  0.5289
12767SOL    HW149520   4.710   3.678   0.105  2.5504 -1.0013 -0.3175
12767SOL    HW249521   4.707   3.719   0.263 -0.8444 -1.9869 -0.0907
12768SOL     OW49522   4.555   2.646   6.581  0.8038  0.4276  0.2005
12768SOL    HW149523   4.615   2.588   6.636  0.3890  1.3044  1.5868
12768SOL    HW249524   4.462   2.641   6.617 -0.1455 -1.4008 -2.2918
12769SOL     OW49525   1.623   8.514   5.994 -0.2019  0.2876  0.3902
12769SOL    HW149526   1.561   8.436   5.986 -1.0098  1.1309 -1.9363
12769SOL    HW249527   1.715   8.482   6.014 -0.8101 -1.1580  0.9294
12770SOL     OW49528   4.238   0.657   3.445  0.1770  0.7075 -1.0630
12770SOL    HW149529   4.289   0.705   3.516 -0.4056  1.5257 -1.1940
12770SOL    HW249530   4.240   0.559   3.464 -0.3974  0.9599  0.3483
12771SOL     OW49531   3.252   9.599   2.653 -0.3144 -0.4474 -0.2222
12771SOL    HW149532   3.317   9.668   2.687  0.2183 -0.7778 -0.5588
12771SOL    HW249533   3.300   9.512   2.641 -1.3995 -1.4103  2.0737
12772SOL     OW49534   9.817   5.067   5.223 -0.2348  0.0574 -0.3096
12772SOL    HW149535   9.741   5.005   5.203 -0.6503 -0.1472  1.8307
12772SOL    HW249536   9.784   5.161   5.230 -0.1476  0.0815 -0.2161
12773SOL     OW49537   4.104   9.902   3.733  0.0638 -0.3400  0.1516
12773SOL    HW149538   4.029   9.892   3.798 -0.9682 -0.9526 -1.0989
12773SOL    HW249539   4.174   9.962   3.771 -0.9004 -0.0412  1.4804
12774SOL     OW49540   4.295   9.335   0.780  0.0891 -0.1377  0.4226
12774SOL    HW149541   4.273   9.245   0.818  1.4474 -1.0716 -0.9107
12774SOL    HW249542   4.260   9.342   0.687 -1.4378  1.3530  1.0910
12775SOL     OW49543   6.722   8.088   5.261  0.0800  0.4485  0.6110
12775SOL    HW149544   6.659   8.015   5.235 -0.1369  0.4264  1.1904
12775SOL    HW249545   6.783   8.109   5.184  0.3783 -0.5867  0.5598
12776SOL     OW49546   4.601   4.603   0.747 -0.1960  0.1396  0.1549
12776SOL    HW149547   4.696   4.623   0.723  0.3098 -2.5510 -0.2003
12776SOL    HW249548   4.547   4.590   0.664 -0.6842  0.7364  0.3720
12777SOL     OW49549   6.654   8.183   4.409  0.4193  0.5627 -0.7116
12777SOL    HW149550   6.624   8.108   4.468 -2.3933 -0.0235 -2.7712
12777SOL    HW249551   6.708   8.248   4.462  0.9491 -1.7317  1.6465
12778SOL     OW49552   8.465   7.914   0.575 -0.2955  0.2648  0.3266
12778SOL    HW149553   8.408   7.893   0.655 -0.3804  0.6899  0.3780
12778SOL    HW249554   8.482   8.013   0.571 -0.7140  0.3141 -0.4608
12779SOL     OW49555   4.129   8.639   5.967  0.4202 -0.0553  0.5041
12779SOL    HW149556   4.082   8.571   5.912  0.6818 -0.0139  0.2281
12779SOL    HW249557   4.224   8.646   5.938  0.5066  0.1174  0.8204
12780SOL     OW49558   4.089   1.077   0.090 -0.0001 -0.1366 -0.1921
12780SOL    HW149559   4.045   1.163   0.115  0.5943  0.0636  0.1691
12780SOL    HW249560   4.036   1.001   0.128 -0.9084  0.0287 -1.0959
12781SOL     OW49561   8.948   5.984   2.612  0.2408 -0.3844 -0.3559
12781SOL    HW149562   9.033   6.020   2.650 -0.7786  0.1273  1.4882
12781SOL    HW249563   8.969   5.915   2.543  2.1352 -0.4300  0.2478
12782SOL     OW49564   2.378   4.286   5.414 -0.6657  0.1194  0.2701
12782SOL    HW149565   2.402   4.380   5.441  1.1471 -1.0506  3.0545
12782SOL    HW249566   2.280   4.271   5.428 -0.4459  0.7397  2.7022
12783SOL     OW49567   0.573   8.543   2.509  0.4211  0.7485  0.1226
12783SOL    HW149568   0.606   8.508   2.422  0.5082  2.8391 -0.7309
12783SOL    HW249569   0.646   8.592   2.556 -0.1215  1.2184  0.4956
12784SOL     OW49570   8.738   8.069   1.393 -0.1470  0.2560  0.2159
12784SOL    HW149571   8.673   8.010   1.442 -0.2312 -0.5806 -0.8789
12784SOL    HW249572   8.807   8.013   1.348  0.1694  1.0292 -0.2844
12785SOL     OW49573   1.812   0.275   5.975  0.7341 -0.1362 -0.3483
12785SOL    HW149574   1.770   0.194   6.017 -0.6421  1.2345  0.9975
12785SOL    HW249575   1.746   0.319   5.915  0.9244  0.8856  0.1796
12786SOL     OW49576   3.041   7.375   5.481 -0.0843  0.4603 -0.2558
12786SOL    HW149577   3.031   7.425   5.395  0.3895  1.7560  0.4297
12786SOL    HW249578   3.137   7.374   5.509 -0.2000 -0.1495  0.1480
12787SOL     OW49579   2.769   2.556   4.855  0.1493 -0.1899 -0.4007
12787SOL    HW149580   2.706   2.628   4.885 -0.7385 -0.7345 -0.9563
12787SOL    HW249581   2.825   2.526   4.933 -1.4512 -0.9008  0.4899
12788SOL     OW49582   3.566   0.090   2.811 -0.1309 -0.0233 -0.3241
12788SOL    HW149583   3.632   0.153   2.853  0.4396  0.7788 -2.3670
12788SOL    HW249584   3.574   0.094   2.712 -1.0502 -2.3135 -0.5394
12789SOL     OW49585   3.280   2.799   3.988 -0.2861  0.4206 -0.1030
12789SOL    HW149586   3.228   2.761   4.063  1.2426 -0.8939  0.3054
12789SOL    HW249587   3.370   2.828   4.020 -0.5654  2.2779 -0.8850
12790SOL     OW49588   8.222   4.269   1.425  0.2948 -0.0485 -0.2091
12790SOL    HW149589   8.128   4.293   1.398  1.6325  3.3326 -2.1405
12790SOL    HW249590   8.264   4.214   1.353  1.0636  1.8443 -1.2576
12791SOL     OW49591   3.298   5.882   0.114  0.0555  0.3674  0.2019
12791SOL    HW149592   3.324   5.941   0.191  0.5441  1.4086 -0.7306
12791SOL    HW249593   3.226   5.819   0.142 -0.8690  1.7928  1.0944
12792SOL     OW49594   3.874   0.385   0.722 -0.3952  0.0843 -0.0782
12792SOL    HW149595   3.953   0.446   0.715 -0.4705  0.2253  0.2899
12792SOL    HW249596   3.794   0.428   0.678 -0.3512  0.0832 -0.1599
12793SOL     OW49597   3.152   8.835   2.762  0.3111  0.3435 -0.4699
12793SOL    HW149598   3.165   8.918   2.816  2.1058 -0.4830  0.4051
12793SOL    HW249599   3.222   8.830   2.691  0.5626 -0.6957 -0.1563
12794SOL     OW49600   3.106   2.315   5.936 -0.1252 -0.4849 -0.5109
12794SOL    HW149601   3.098   2.216   5.921  2.6122 -0.8927  0.3513
12794SOL    HW249602   3.018   2.352   5.964 -1.0380 -2.7953 -0.1987
12795SOL     OW49603   1.873   7.719   2.540 -0.1482 -0.5201 -0.0721
12795SOL    HW149604   1.949   7.666   2.501 -0.7336 -2.0099  0.8001
12795SOL    HW249605   1.852   7.685   2.632 -0.3954  1.3703  0.6097
12796SOL     OW49606   4.872   9.514   3.548  0.3683  0.6551  0.2048
12796SOL    HW149607   4.949   9.484   3.604 -0.2491  0.4349  0.9415
12796SOL    HW249608   4.812   9.437   3.527 -0.5514  1.1251  1.0503
12797SOL     OW49609   4.351   4.960   6.428 -0.0566 -0.4867  0.4919
12797SOL    HW149610   4.380   5.047   6.468 -1.7847 -0.3569  1.5451
12797SOL    HW249611   4.380   4.956   6.333  0.5990  0.9800  0.6113
12798SOL     OW49612   8.144   0.909   3.587 -0.0804  0.1340 -0.2065
12798SOL    HW149613   8.150   0.923   3.488 -0.0470 -1.8802 -0.5069
12798SOL    HW249614   8.199   0.830   3.613 -2.4103 -1.1316  1.0240
12799SOL     OW49615   2.177   2.586   2.837 -0.2037 -0.1237 -0.0119
12799SOL    HW149616   2.271   2.565   2.863 -0.0850  1.0821  0.5894
12799SOL    HW249617   2.114   2.537   2.897  0.0589  0.3751  0.6876
12800SOL     OW49618   2.168   7.337   2.409 -0.9200 -0.0656  0.1768
12800SOL    HW149619   2.116   7.257   2.381 -0.2677  0.5942 -3.1540
12800SOL    HW249620   2.254   7.341   2.358 -0.5964  2.3193  0.8411
12801SOL     OW49621   9.410   7.298   0.964 -0.1920 -0.0951 -0.2278
12801SOL    HW149622   9.494   7.244   0.975  0.6743  0.8641 -1.8511
12801SOL    HW249623   9.387   7.303   0.867 -1.8362  0.1157  0.1605
12802SOL     OW49624   1.383   5.385   1.102 -0.1478  0.3869  0.0336
12802SOL    HW149625   1.326   5.407   1.181 -3.6240 -1.5367 -1.7642
12802SOL    HW249626   1.370   5.455   1.031  0.2124  0.2537 -0.1659
12803SOL     OW49627   6.296   9.139   3.970 -0.2552  0.0097 -0.1363
12803SOL    HW149628   6.251   9.125   4.059  0.8704 -0.5438  0.3563
12803SOL    HW249629   6.351   9.222   3.974 -0.3646  0.0915 -0.3794
12804SOL     OW49630   9.527   9.515   2.513 -0.4100 -0.0441 -0.1226
12804SOL    HW149631   9.512   9.476   2.604  1.6493 -0.6033 -0.0163
12804SOL    HW249632   9.590   9.592   2.519  1.6263 -1.5772 -1.3876
12805SOL     OW49633   2.112   0.815   0.224 -0.4114  0.4316  0.0641
12805SOL    HW149634   2.074   0.899   0.261  0.1499  0.2748  1.0096
12805SOL    HW249635   2.196   0.791   0.273  0.8672  0.7221 -1.9194
12806SOL     OW49636   3.709   3.772   4.579 -0.0678 -0.2211 -0.2854
12806SOL    HW149637   3.664   3.820   4.503  0.3137  0.4805 -0.0738
12806SOL    HW249638   3.640   3.731   4.638 -0.3588 -1.2164 -1.2960
12807SOL     OW49639   2.454   4.691   3.416  0.4196  0.3480  0.4335
12807SOL    HW149640   2.543   4.672   3.374  0.1685  0.6676 -0.2562
12807SOL    HW249641   2.433   4.788   3.405 -0.0009  0.2763  0.6176
12808SOL     OW49642   0.533   9.054   5.575  0.1137 -0.4906  0.2478
12808SOL    HW149643   0.463   9.082   5.509  0.7669 -0.1774 -0.3033
12808SOL    HW249644   0.584   9.134   5.606 -1.0650 -0.4258  2.1598
12809SOL     OW49645   1.797   4.716   4.587 -0.2179 -0.5348 -0.0689
12809SOL    HW149646   1.787   4.812   4.612  0.2035 -0.7069  0.7981
12809SOL    HW249647   1.892   4.688   4.601  0.1736 -0.4843 -2.4768
12810SOL     OW49648   6.310   8.861   3.940 -0.2681 -0.6006 -0.2216
12810SOL    HW149649   6.333   8.958   3.939 -0.2257 -0.6186 -1.9318
12810SOL    HW249650   6.278   8.835   4.032  1.0446  0.6994  0.6276
12811SOL     OW49651   1.558   1.444   3.107  0.2877 -0.0344  0.8473
12811SOL    HW149652   1.590   1.362   3.156  1.3103  0.7902  1.5761
12811SOL    HW249653   1.461   1.457   3.126  0.2648 -0.7169  1.2433
12812SOL     OW49654   9.826   0.680   1.593 -0.0772 -0.0082  0.3904
12812SOL    HW149655   9.866   0.707   1.506  0.6989 -0.0121  0.7377
12812SOL    HW249656   9.814   0.760   1.651  1.7369 -0.3127  1.2208
12813SOL     OW49657   6.360   4.361   0.479  0.1307 -0.2003 -0.5687
12813SOL    HW149658   6.442   4.340   0.532 -0.4779 -1.7250 -0.2254
12813SOL    HW249659   6.382   4.360   0.382 -0.0319 -3.1537 -0.6061
12814SOL     OW49660   8.001   7.806   5.164  0.2298  0.1597  0.5087
12814SOL    HW149661   7.969   7.873   5.097  3.1903 -0.9454 -2.1778
12814SOL    HW249662   7.950   7.721   5.154 -0.9806  0.7819  1.3409
12815SOL     OW49663   1.227   6.170   3.418  0.7046 -0.6577  0.2020
12815SOL    HW149664   1.209   6.207   3.327  1.3471  3.0715  1.4896
12815SOL    HW249665   1.196   6.236   3.487  0.3107 -3.3658  2.7015
12816SOL     OW49666   9.336   9.358   5.925  0.2634 -0.0313 -0.0363
12816SOL    HW149667   9.328   9.262   5.899  1.9323 -0.5808  1.3504
12816SOL    HW249668   9.292   9.372   6.014  0.8541  0.2858  0.2068
12817SOL     OW49669   3.992   3.383   2.177 -0.5790 -0.2937 -0.6655
12817SOL    HW149670   3.909   3.423   2.139 -1.8545 -2.0688  0.1936
12817SOL    HW249671   3.972   3.342   2.266  0.8444 -2.2055 -1.1947
12818SOL     OW49672   9.150   5.920   6.108  0.3844 -0.4311 -0.1423
12818SOL    HW149673   9.144   6.008   6.060 -1.6423 -0.0524  0.7230
12818SOL    HW249674   9.061   5.899   6.148  1.6038 -1.5229  2.0756
12819SOL     OW49675   9.145   0.304   0.946 -0.3309 -0.4133 -0.8436
12819SOL    HW149676   9.118   0.239   1.017 -2.7022  0.4582 -0.8970
12819SOL    HW249677   9.147   0.258   0.857 -0.2279 -0.8274 -0.6289
12820SOL     OW49678   7.410   3.761   2.148 -0.1506 -0.1472  0.4440
12820SOL    HW149679   7.454   3.822   2.081 -1.0025 -0.4878 -0.4340
12820SOL    HW249680   7.427   3.666   2.121  0.0361 -0.2907  1.0685
12821SOL     OW49681   7.445   2.561   4.103  0.1978  0.1619  0.0777
12821SOL    HW149682   7.375   2.495   4.077  0.4371  0.7469 -2.1465
12821SOL    HW249683   7.536   2.520   4.093  0.2082 -0.4499  2.5255
12822SOL     OW49684   1.953   4.352   3.086 -0.6728  0.7335  0.2891
12822SOL    HW149685   2.048   4.327   3.108 -0.5223  0.0716 -1.0099
12822SOL    HW249686   1.922   4.424   3.148  0.4191  0.4173  1.2287
12823SOL     OW49687   8.438   5.599   5.514  0.1732 -0.3357 -0.4946
12823SOL    HW149688   8.532   5.574   5.537  0.5596  0.1155 -1.5449
12823SOL    HW249689   8.420   5.693   5.545 -0.0550 -0.5471  0.0270
12824SOL     OW49690   5.218   8.308   2.431  0.2921 -0.1346 -0.2550
12824SOL    HW149691   5.240   8.365   2.510  0.9625  0.0595 -0.5733
12824SOL    HW249692   5.249   8.214   2.447  3.1621  0.5474 -1.4619
12825SOL     OW49693   0.805   1.687   2.356  0.7387 -0.1046 -0.2731
12825SOL    HW149694   0.807   1.672   2.455  0.9359 -0.2474 -0.2980
12825SOL    HW249695   0.763   1.775   2.336 -0.4110 -0.6075 -0.1184
12826SOL     OW49696   1.203   7.750   1.573 -0.1852 -0.5656  0.3450
12826SOL    HW149697   1.249   7.692   1.640  1.0883 -0.4637 -0.4144
12826SOL    HW249698   1.254   7.836   1.563 -1.8263  0.5163  1.1641
12827SOL     OW49699   2.983   4.945   4.844 -0.1820  0.6530 -0.1472
12827SOL    HW149700   2.999   4.884   4.766 -2.0251  0.7560 -0.6292
12827SOL    HW249701   2.918   5.016   4.817  0.7419  1.9135  0.8876
12828SOL     OW49702   7.099   1.864   1.857  0.1218 -0.5420  0.3228
12828SOL    HW149703   7.144   1.919   1.786 -0.1470  1.0825  1.3812
12828SOL    HW249704   7.168   1.825   1.918  0.3116 -1.3881 -0.4176
12829SOL     OW49705   6.486   7.632   3.209  0.0548  0.0095  0.3279
12829SOL    HW149706   6.438   7.712   3.245  0.6812  1.0120 -1.0012
12829SOL    HW249707   6.450   7.609   3.119  0.7322 -0.4248  0.1649
12830SOL     OW49708   3.648   3.885   4.077 -0.4648  0.1248  0.1003
12830SOL    HW149709   3.702   3.961   4.043 -0.7861  0.1746 -0.3082
12830SOL    HW249710   3.566   3.874   4.020 -0.5121 -0.4099  0.2652
12831SOL     OW49711   3.167   4.619   5.046  0.5192 -0.5042 -0.1669
12831SOL    HW149712   3.080   4.572   5.063  1.1066 -1.4200  0.3263
12831SOL    HW249713   3.193   4.670   5.127  0.0774  0.3669 -0.5696
12832SOL     OW49714   0.573   0.685   4.437  0.1828  0.0779  0.0829
12832SOL    HW149715   0.574   0.785   4.436 -0.3401  0.0751 -0.8206
12832SOL    HW249716   0.497   0.651   4.381 -0.4250 -0.8063  1.3965
12833SOL     OW49717   4.520   2.001   2.168  0.2882  0.1692  0.3085
12833SOL    HW149718   4.545   1.933   2.237 -0.7582  0.7786  1.3132
12833SOL    HW249719   4.531   2.093   2.207  0.8777  0.5623 -0.7568
12834SOL     OW49720   2.249   2.000   4.400  0.5237 -0.3227  0.2842
12834SOL    HW149721   2.267   2.059   4.479 -0.2265  0.8207 -0.3924
12834SOL    HW249722   2.318   2.017   4.330  0.1742 -0.1088 -0.0022
12835SOL     OW49723   4.048   3.765   4.744  0.2154  0.5161  0.0317
12835SOL    HW149724   4.049   3.745   4.842 -0.1321 -1.9233 -0.4354
12835SOL    HW249725   4.138   3.797   4.715 -0.2768  3.4984  1.5482
12836SOL     OW49726   2.162   1.463   1.946 -0.4967 -0.1578  0.3612
12836SOL    HW149727   2.232   1.502   1.885 -0.1458 -1.9823 -0.4422
12836SOL    HW249728   2.086   1.527   1.955  1.1081  1.7279  0.9787
12837SOL     OW49729   8.044   5.404   1.244 -0.2500 -0.0899 -0.4259
12837SOL    HW149730   8.112   5.404   1.170  0.9405  0.8469  0.6473
12837SOL    HW249731   7.985   5.484   1.235  0.7285  0.7261  0.3846
12838SOL     OW49732   6.993   8.295   5.147 -0.3281  0.3306 -0.4043
12838SOL    HW149733   6.923   8.357   5.183 -0.1558  0.0026  0.5166
12838SOL    HW249734   7.002   8.217   5.209  2.9794  1.8147  1.1510
12839SOL     OW49735   9.860   9.731   5.286 -0.4182 -0.2099 -0.5963
12839SOL    HW149736   9.793   9.717   5.213 -1.6068 -2.2550  0.8369
12839SOL    HW249737   9.830   9.683   5.369  2.0324  0.1824  0.5697
12840SOL     OW49738   5.826   0.027   1.397 -0.1594  0.2949 -0.0238
12840SOL    HW149739   5.731   0.041   1.427 -0.0703  3.2880 -0.9701
12840SOL    HW249740   5.886   0.087   1.451  0.8650  0.3349 -1.2127
12841SOL     OW49741   3.615   5.169   3.265 -0.1034 -0.1853  0.0190
12841SOL    HW149742   3.711   5.192   3.278 -0.2305  0.3096  0.0694
12841SOL    HW249743   3.560   5.206   3.340 -0.2608 -0.9302  0.2759
12842SOL     OW49744   4.100   7.288   4.309  0.0395 -0.0019 -0.3564
12842SOL    HW149745   4.068   7.194   4.320 -0.3517  0.0092 -1.4051
12842SOL    HW249746   4.042   7.336   4.244 -0.5516  1.3493  1.1305
12843SOL     OW49747   0.351   9.255   1.285  0.3469  0.3860 -0.5522
12843SOL    HW149748   0.323   9.199   1.207  0.0535 -2.3701  1.4768
12843SOL    HW249749   0.425   9.210   1.334  0.0165  1.7017  1.2177
12844SOL     OW49750   3.799   3.371   5.635  0.3092 -0.6550  0.4350
12844SOL    HW149751   3.799   3.440   5.563 -1.4821 -0.8594  0.1972
12844SOL    HW249752   3.755   3.287   5.600  2.3106 -1.8619  0.7664
12845SOL     OW49753   8.559   8.040   2.357  0.4531 -0.0374  0.0036
12845SOL    HW149754   8.572   8.019   2.261 -2.8087  2.5540 -1.1203
12845SOL    HW249755   8.478   7.992   2.392 -0.1216  1.3019  0.5923
12846SOL     OW49756   1.580   8.550   6.490 -0.5438 -0.3401 -0.2151
12846SOL    HW149757   1.536   8.508   6.410 -2.2525 -0.4115  0.7442
12846SOL    HW249758   1.521   8.622   6.526  1.1178  1.0375 -0.1922
12847SOL     OW49759   5.812   0.340   5.900  0.0369 -0.3360 -0.7340
12847SOL    HW149760   5.729   0.355   5.954  0.8010 -0.8983  0.6095
12847SOL    HW249761   5.868   0.423   5.902  0.7092 -0.8096  0.4803
12848SOL     OW49762   0.284   4.420   2.439  0.3198  0.3423  0.3358
12848SOL    HW149763   0.323   4.359   2.508 -0.0111  0.9854  1.1076
12848SOL    HW249764   0.197   4.455   2.472  0.5161  1.2424 -0.0907
12849SOL     OW49765   4.714   9.691   0.107  0.3406 -0.1857  0.4349
12849SOL    HW149766   4.734   9.769   0.167  0.3926  0.9670 -1.0580
12849SOL    HW249767   4.665   9.622   0.159  0.0163  0.9698  1.7135
12850SOL     OW49768   3.919   2.293   5.832  0.3286 -0.2756 -0.3163
12850SOL    HW149769   3.975   2.310   5.751  0.7717 -1.2626 -0.2248
12850SOL    HW249770   3.899   2.195   5.838 -1.3946  0.0710 -0.3424
12851SOL     OW49771   3.444   2.011   3.795  0.0240  0.1231 -0.3769
12851SOL    HW149772   3.499   2.083   3.839  0.9075  0.7063 -2.3919
12851SOL    HW249773   3.486   1.922   3.811 -0.1933  0.2099  0.7532
12852SOL     OW49774   8.848   7.283   0.271  0.0805 -0.1560 -0.0370
12852SOL    HW149775   8.915   7.224   0.225 -1.3062 -1.5973 -0.2351
12852SOL    HW249776   8.837   7.254   0.366 -2.4054 -1.8318 -0.7828
12853SOL     OW49777   9.863   5.663   0.386  0.1227 -0.3764 -0.4535
12853SOL    HW149778   9.853   5.567   0.359 -0.2288 -0.3771 -0.3321
12853SOL    HW249779   9.939   5.704   0.336 -0.0162 -0.5945 -0.8497
12854SOL     OW49780   9.490   6.525   4.139  0.0656  0.4888  0.6588
12854SOL    HW149781   9.412   6.493   4.193 -0.8750  0.3431 -0.7490
12854SOL    HW249782   9.566   6.462   4.148 -1.0906 -1.1094 -0.5161
12855SOL     OW49783   2.440   4.675   5.740  0.0991  0.2484  0.1570
12855SOL    HW149784   2.536   4.701   5.744 -0.5009  3.2657 -2.3281
12855SOL    HW249785   2.384   4.747   5.782 -1.3009  0.5934 -2.1730
12856SOL     OW49786   8.807   0.958   0.458 -0.0766 -0.4659 -0.4452
12856SOL    HW149787   8.869   0.928   0.531 -0.5559  0.7750  0.4779
12856SOL    HW249788   8.857   1.019   0.395  0.1516 -0.9996 -0.7883
12857SOL     OW49789   6.489   7.714   3.618  0.2768  0.4927  0.4997
12857SOL    HW149790   6.462   7.791   3.560 -0.5077 -0.4114 -0.3496
12857SOL    HW249791   6.578   7.734   3.660  0.1435  1.8050  0.1955
12858SOL     OW49792   3.291   3.562   2.294  0.1856 -0.0338 -0.2565
12858SOL    HW149793   3.347   3.566   2.376 -0.3213 -2.9275  0.3047
12858SOL    HW249794   3.194   3.563   2.320  0.0267 -1.3650 -0.7778
12859SOL     OW49795   2.115   3.945   4.782 -0.7037 -0.5503 -0.2189
12859SOL    HW149796   2.091   3.851   4.757 -1.4030 -0.9843  2.0184
12859SOL    HW249797   2.153   3.947   4.874  1.1043  1.1265 -0.9485
12860SOL     OW49798   2.019   6.135   2.854  0.2820  0.2859 -0.3336
12860SOL    HW149799   2.063   6.070   2.916  0.5216 -0.0179 -0.8196
12860SOL    HW249800   2.019   6.098   2.761 -1.4358  0.0572 -0.2717
12861SOL     OW49801   1.534   5.364   0.082  0.3726  0.1477  0.4340
12861SOL    HW149802   1.497   5.289   0.137  0.9519 -0.2841  0.2458
12861SOL    HW249803   1.556   5.330  -0.010  2.2561  0.1079  0.8681
12862SOL     OW49804   0.012   0.354   5.603 -0.0137  0.2466  0.3466
12862SOL    HW149805  -0.009   0.443   5.563  3.2487 -0.2113 -2.6844
12862SOL    HW249806  -0.007   0.282   5.537  0.9650 -0.9723  1.3623
12863SOL     OW49807   3.274   3.674   3.995  0.6371  0.2516  0.2135
12863SOL    HW149808   3.237   3.675   4.088 -0.8886 -1.8844 -0.3246
12863SOL    HW249809   3.359   3.621   3.994  0.6782  0.3114  0.3803
12864SOL     OW49810   4.579   2.912   0.029 -0.3431 -0.4224 -0.9440
12864SOL    HW149811   4.505   2.958  -0.020  0.3025  0.5489 -1.0204
12864SOL    HW249812   4.663   2.965   0.019 -0.1223 -0.3788  0.9471
12865SOL     OW49813   1.227   3.959   2.286 -0.0672 -0.6577 -0.9591
12865SOL    HW149814   1.233   3.870   2.331  0.4315 -0.6657 -1.0292
12865SOL    HW249815   1.204   3.946   2.189  1.7066 -0.8259 -1.3748
12866SOL     OW49816   6.524   9.264   5.820 -0.8929  0.6237 -0.2854
12866SOL    HW149817   6.499   9.216   5.904  0.6075  1.2226  0.5175
12866SOL    HW249818   6.562   9.199   5.754  0.3023  0.5313  0.4683
12867SOL     OW49819   0.128   3.878   1.266 -0.5301 -0.0343  0.4371
12867SOL    HW149820   0.115   3.780   1.255  0.7198 -0.0014 -1.6813
12867SOL    HW249821   0.119   3.923   1.177  2.9762  1.2288  0.6323
12868SOL     OW49822   8.059   2.943   2.383  0.6484  0.0475 -0.2717
12868SOL    HW149823   8.136   2.977   2.329 -0.0847  0.6047 -0.9732
12868SOL    HW249824   7.984   2.917   2.322 -0.5182  1.5091  0.5101
12869SOL     OW49825   9.755   0.301   3.760 -0.2860  0.1863  0.1075
12869SOL    HW149826   9.834   0.242   3.776 -1.0794 -1.3420 -1.4580
12869SOL    HW249827   9.777   0.394   3.788  1.5243 -0.5360  1.1608
12870SOL     OW49828   7.791   0.212   0.267  0.0955  0.1878  0.0210
12870SOL    HW149829   7.829   0.129   0.307 -0.5546  0.0437  0.3479
12870SOL    HW249830   7.865   0.273   0.239  0.6457 -1.6063 -2.6245
12871SOL     OW49831   1.757   4.311   1.041  0.1875  0.0564  0.2233
12871SOL    HW149832   1.738   4.224   1.087 -2.6677 -0.1631 -1.2294
12871SOL    HW249833   1.781   4.293   0.945 -1.6258  0.8829 -0.4097
12872SOL     OW49834   2.752   1.090   0.731  1.0559  0.5852 -0.1937
12872SOL    HW149835   2.698   1.174   0.740  1.0129  0.4019  1.2518
12872SOL    HW249836   2.691   1.012   0.716  0.8258  0.2281  2.4270
12873SOL     OW49837   4.085   9.757   6.221  0.1095  0.5565  0.4690
12873SOL    HW149838   4.087   9.717   6.313  0.0956 -2.0330 -0.6053
12873SOL    HW249839   3.992   9.753   6.184  0.2238  1.0554  0.1176
12874SOL     OW49840   1.774   6.971   1.359 -0.0087  0.5296  0.0339
12874SOL    HW149841   1.778   6.922   1.272 -3.1963 -0.2916  0.2867
12874SOL    HW249842   1.836   6.928   1.425  0.5966 -0.3477 -1.0964
12875SOL     OW49843   3.686   4.517   3.199  0.1764 -0.5061 -0.1770
12875SOL    HW149844   3.767   4.555   3.154  1.1895 -1.2334  1.0506
12875SOL    HW249845   3.604   4.553   3.153  1.1191  2.5604  0.4344
12876SOL     OW49846   3.944   6.246   0.362 -0.0025  0.1043 -0.3980
12876SOL    HW149847   3.991   6.309   0.423 -2.1001  2.4420 -1.0733
12876SOL    HW249848   3.946   6.153   0.400  2.4542  0.7145  1.0167
12877SOL     OW49849   6.865   9.774   4.759 -0.3752  0.4318  0.4363
12877SOL    HW149850   6.783   9.718   4.747 -0.9657  1.3260  0.2264
12877SOL    HW249851   6.843   9.870   4.740  0.8929  0.5799 -0.3095
12878SOL     OW49852   1.604   4.391   4.736  0.1047 -0.1770 -0.0419
12878SOL    HW149853   1.534   4.416   4.804 -0.2256 -1.6559  0.1857
12878SOL    HW249854   1.665   4.322   4.775  1.6615  1.0397 -0.2793
12879SOL     OW49855   1.519   8.904   3.200  0.2222  0.4293  0.1527
12879SOL    HW149856   1.453   8.902   3.125  0.3817  0.4082  0.0123
12879SOL    HW249857   1.611   8.891   3.164 -0.0667 -4.2183  0.8178
12880SOL     OW49858   1.573   9.192   0.463 -0.3991 -0.5335  0.2727
12880SOL    HW149859   1.479   9.224   0.449  0.1052  0.1874 -1.6959
12880SOL    HW249860   1.580   9.096   0.438 -0.5677 -0.5093  0.1291
12881SOL     OW49861   1.747   2.422   4.573  0.1614  0.1755 -0.4561
12881SOL    HW149862   1.678   2.357   4.605 -1.6293  0.6874 -3.0754
12881SOL    HW249863   1.701   2.499   4.526  2.4226  1.4077 -0.7234
12882SOL     OW49864   9.267   3.075   5.625  0.2132 -0.2767 -0.5876
12882SOL    HW149865   9.168   3.081   5.639  0.3663  0.1262  0.4232
12882SOL    HW249866   9.287   3.067   5.528 -0.8421 -0.8900 -0.7609
12883SOL     OW49867   3.159   5.518   4.895  0.2535  0.2031 -0.4625
12883SOL    HW149868   3.075   5.551   4.938  0.4486  1.0540 -0.7211
12883SOL    HW249869   3.215   5.471   4.963 -0.3362 -0.1787 -0.2417
12884SOL     OW49870   2.081   0.146   0.070  0.4366 -0.1383 -0.6998
12884SOL    HW149871   2.126   0.057   0.070 -1.4997 -1.1799  1.2426
12884SOL    HW249872   2.054   0.170  -0.024 -0.2977 -2.2984 -1.0776
12885SOL     OW49873   6.643   0.319   3.490 -0.5198 -0.0534 -0.0191
12885SOL    HW149874   6.564   0.345   3.435 -1.4123  1.1563  1.7921
12885SOL    HW249875   6.615   0.301   3.584  1.3028  0.0422  0.5795
12886SOL     OW49876   4.974   2.976   4.899 -0.0968  0.1420  0.1089
12886SOL    HW149877   5.033   3.044   4.857  0.5688  0.4087  1.4677
12886SOL    HW249878   4.985   2.978   4.998 -0.2177 -1.7826  0.1940
12887SOL     OW49879   8.038   4.849   6.639 -0.1940  0.2743  0.6060
12887SOL    HW149880   7.993   4.937   6.627 -1.5401 -0.1815  2.1480
12887SOL    HW249881   8.136   4.863   6.652  0.0768  1.3148 -2.2256
12888SOL     OW49882   8.130   8.982   3.415  0.0554  0.6943 -0.2355
12888SOL    HW149883   8.111   8.923   3.336  0.0592 -0.5585  0.6812
12888SOL    HW249884   8.067   9.059   3.414  0.5613  1.1080 -1.8824
12889SOL     OW49885   0.794   9.989   2.795 -0.2819  0.2596 -0.3660
12889SOL    HW149886   0.879   9.964   2.841  0.0352 -0.0233 -1.1016
12889SOL    HW249887   0.757  10.072   2.836  2.3064  2.5284 -2.5123
12890SOL     OW49888   3.677   2.789   6.643  0.3241 -0.2196  0.3335
12890SOL    HW149889   3.689   2.854   6.718  1.8264  0.1284 -0.1964
12890SOL    HW249890   3.741   2.810   6.570  0.1181 -1.6661 -0.2815
12891SOL     OW49891   9.276   8.408   0.047  0.1623 -0.3116 -0.0492
12891SOL    HW149892   9.303   8.436  -0.045  0.6564  1.2547  0.5526
12891SOL    HW249893   9.355   8.413   0.108 -0.1841 -1.2595  0.4764
12892SOL     OW49894   5.420   4.192   1.262 -0.3174 -0.0005 -0.2198
12892SOL    HW149895   5.334   4.201   1.312 -0.0677  0.0090  0.2097
12892SOL    HW249896   5.417   4.248   1.179 -0.8778 -0.3150 -0.4123
12893SOL     OW49897   4.525   0.371   2.926  0.5538  0.3302  0.1367
12893SOL    HW149898   4.561   0.309   2.996 -0.9182 -0.8356 -0.1049
12893SOL    HW249899   4.500   0.318   2.844  2.6485  1.7160 -1.4698
12894SOL     OW49900   5.932   8.406   2.420 -0.6818  0.2846  0.0589
12894SOL    HW149901   5.920   8.492   2.371 -0.7673  0.3054  0.1179
12894SOL    HW249902   6.011   8.357   2.381  0.1939  1.0041  0.8947
12895SOL     OW49903   9.632   3.797   2.294  0.5268 -0.6931 -0.0285
12895SOL    HW149904   9.692   3.843   2.228  0.6841 -0.9395 -0.0577
12895SOL    HW249905   9.633   3.848   2.380  0.9692 -0.8276  0.0487
12896SOL     OW49906   3.585   5.196   1.004 -0.1719  0.1953  0.0177
12896SOL    HW149907   3.588   5.215   1.102 -0.3392 -0.6892  0.1996
12896SOL    HW249908   3.549   5.104   0.989  1.9002 -0.5247 -0.7671
12897SOL     OW49909   1.490   9.113   3.799 -0.6265  0.3757 -0.6274
12897SOL    HW149910   1.524   9.054   3.873 -0.0348  2.2619  0.6355
12897SOL    HW249911   1.494   9.063   3.713  1.8798 -0.7243  0.0770
12898SOL     OW49912   4.955   0.159   0.947  0.2583  0.1361 -0.3226
12898SOL    HW149913   4.883   0.188   0.884 -0.4493  1.4130  1.0476
12898SOL    HW249914   5.018   0.098   0.899 -1.5250 -0.7331 -1.6502
12899SOL     OW49915   2.741   8.552   2.522  0.6378  0.2009 -0.0884
12899SOL    HW149916   2.803   8.474   2.520  2.7708  1.8332  0.5952
12899SOL    HW249917   2.703   8.562   2.615 -0.5227 -0.6990 -0.4648
12900SOL     OW49918   5.916   8.579   2.235 -0.0155 -0.0783 -0.3487
12900SOL    HW149919   5.939   8.660   2.290 -0.2511 -0.2273 -0.0267
12900SOL    HW249920   5.967   8.581   2.149  2.2013 -1.0187  0.8866
12901SOL     OW49921   6.567   1.009   3.508 -0.0919 -0.2587  0.5508
12901SOL    HW149922   6.557   1.045   3.600  0.3325  0.3259  0.3766
12901SOL    HW249923   6.637   1.062   3.459  0.1120 -0.9438  0.0926
12902SOL     OW49924   0.974   6.963   3.593 -0.3473  0.0254 -0.1955
12902SOL    HW149925   1.041   6.889   3.583  0.3431  0.3913  1.6260
12902SOL    HW249926   0.890   6.926   3.633 -0.2832  0.0910 -0.0035
12903SOL     OW49927   0.722   0.794   2.510 -0.2336  0.1295 -0.2057
12903SOL    HW149928   0.781   0.774   2.431 -0.2498 -1.8576  0.2585
12903SOL    HW249929   0.669   0.712   2.533 -0.5814  0.8416  1.5710
12904SOL     OW49930   8.788   3.757   6.488 -0.0653  0.4196 -0.4706
12904SOL    HW149931   8.810   3.824   6.559  1.9988 -1.7894  1.0270
12904SOL    HW249932   8.695   3.724   6.502 -0.6326  1.9763 -0.4377
12905SOL     OW49933   6.528   0.164   2.026 -0.2383  0.2106 -0.1210
12905SOL    HW149934   6.494   0.177   2.119 -0.6311 -0.8602 -0.1112
12905SOL    HW249935   6.604   0.100   2.027  1.1134  1.7665 -0.2845
12906SOL     OW49936   2.298   3.415   4.698 -0.3843 -0.0875  0.3382
12906SOL    HW149937   2.369   3.450   4.637 -2.0883  1.4644 -0.8246
12906SOL    HW249938   2.221   3.381   4.643 -1.7668  0.9587  1.5954
12907SOL     OW49939   1.001   1.577   2.198 -0.0212 -0.4795 -0.1525
12907SOL    HW149940   0.941   1.580   2.278  0.4258  0.3034  0.1686
12907SOL    HW249941   1.053   1.663   2.193  1.8401 -1.5614  0.1840
12908SOL     OW49942   5.338   1.084   2.843 -0.2826 -0.1437 -0.0167
12908SOL    HW149943   5.280   1.009   2.810 -1.0368 -0.9828  3.0516
12908SOL    HW249944   5.321   1.099   2.940  0.3770  3.5930 -0.3977
12909SOL     OW49945   2.905   7.447   5.712  0.3610 -0.8596 -0.5361
12909SOL    HW149946   2.939   7.420   5.622  2.6675 -0.0154  0.0478
12909SOL    HW249947   2.971   7.508   5.756 -0.4902 -1.6515  1.9388
12910SOL     OW49948   8.959   8.863   6.379 -0.5013  0.5322  0.2994
12910SOL    HW149949   9.026   8.790   6.368 -0.2442  0.8644 -0.3809
12910SOL    HW249950   8.980   8.916   6.462  0.3832  0.9542 -0.1925
12911SOL     OW49951   5.089   0.730   0.353 -0.0940  0.8199 -0.0218
12911SOL    HW149952   5.063   0.733   0.257 -1.6724  1.3498  0.4052
12911SOL    HW249953   5.048   0.650   0.397 -0.0627  1.0344  0.4009
12912SOL     OW49954   0.463   2.546   5.657  0.3378 -0.2161  0.3164
12912SOL    HW149955   0.492   2.612   5.726 -0.3751 -0.1903  0.5959
12912SOL    HW249956   0.510   2.566   5.571 -1.6962  2.2233 -0.2996
12913SOL     OW49957   1.254   6.705   5.938  0.5814 -0.5876  0.6016
12913SOL    HW149958   1.190   6.653   5.882  1.7605  0.8192 -2.0929
12913SOL    HW249959   1.222   6.705   6.033 -3.3090 -0.0503 -0.6206
12914SOL     OW49960   1.326   8.362   6.491 -0.5202 -0.2724  0.2630
12914SOL    HW149961   1.304   8.403   6.580 -2.4155 -1.4049  0.3476
12914SOL    HW249962   1.258   8.389   6.424  0.4604 -0.0646 -0.6563
12915SOL     OW49963   2.598   4.871   5.270  0.4603 -0.3823  0.1549
12915SOL    HW149964   2.691   4.847   5.242  1.1329 -1.0478  2.8586
12915SOL    HW249965   2.552   4.790   5.306 -1.2404 -0.0819 -1.2691
12916SOL     OW49966   3.726   1.429   0.793  0.0896 -0.3254 -0.1867
12916SOL    HW149967   3.798   1.373   0.752 -0.5987 -0.1334 -1.6970
12916SOL    HW249968   3.746   1.525   0.778 -0.6521 -0.2813 -0.9001
12917SOL     OW49969   8.861   1.392   3.911  0.5091  0.3627 -0.6393
12917SOL    HW149970   8.764   1.379   3.894  0.1945 -1.6118  2.3973
12917SOL    HW249971   8.886   1.487   3.894 -1.4990  0.4823 -3.3066
12918SOL     OW49972   3.511   4.743   2.710  0.5366  0.0452 -0.2217
12918SOL    HW149973   3.595   4.691   2.722  0.3948 -0.0659  0.2862
12918SOL    HW249974   3.477   4.730   2.616  1.0665  0.0680 -0.4166
12919SOL     OW49975   2.204   4.528   1.893 -0.9120  0.4550  0.2985
12919SOL    HW149976   2.168   4.546   1.802 -1.2595  1.0282  0.5446
12919SOL    HW249977   2.145   4.572   1.962 -0.4170  0.3913  0.7690
12920SOL     OW49978   2.641   6.340   4.080  0.0204 -0.3018  0.0969
12920SOL    HW149979   2.690   6.271   4.026 -0.3466 -1.3304  1.0526
12920SOL    HW249980   2.698   6.368   4.157  0.9178  1.8373 -1.2976
12921SOL     OW49981   4.871   0.368   1.707  0.4687 -0.2081  0.2733
12921SOL    HW149982   4.804   0.314   1.758 -0.7089 -0.0035 -1.0032
12921SOL    HW249983   4.884   0.326   1.617  0.6143  0.8401 -0.1907
12922SOL     OW49984   0.698   1.294   2.814  0.2500  0.1794 -0.2751
12922SOL    HW149985   0.643   1.310   2.896  0.4748  1.5812 -0.3808
12922SOL    HW249986   0.793   1.275   2.840 -0.0316 -1.0700 -0.1432
12923SOL     OW49987   0.454   1.120   1.007 -0.0089 -0.6396 -0.2534
12923SOL    HW149988   0.367   1.074   1.022  0.2194 -1.0922 -0.2863
12923SOL    HW249989   0.494   1.146   1.095  0.1458 -1.0452 -0.2029
12924SOL     OW49990   9.055   1.153   3.108 -0.0812  0.1061  0.0775
12924SOL    HW149991   9.041   1.220   3.181 -0.9943 -0.5505  0.5273
12924SOL    HW249992   9.150   1.156   3.077  0.4998 -0.0517  1.7637
12925SOL     OW49993   3.291   4.695   4.776 -0.1962  0.0886 -0.5384
12925SOL    HW149994   3.260   4.655   4.862  1.0044 -0.0702 -0.1711
12925SOL    HW249995   3.281   4.795   4.780  1.5642  0.2309  0.4880
12926SOL     OW49996   0.609   6.120   2.303  0.1777  0.1828 -0.0673
12926SOL    HW149997   0.509   6.125   2.310  0.1975 -2.2104  2.8824
12926SOL    HW249998   0.635   6.036   2.255  0.8073 -0.1803  0.9043
12927SOL     OW49999   7.703   6.568   5.491 -0.0931  0.7282  0.0027
12927SOL    HW150000   7.774   6.635   5.469 -1.4572  2.0967 -0.3164
12927SOL    HW250001   7.732   6.478   5.458  0.6330  1.6144 -1.8836
12928SOL     OW50002   1.396   7.926   2.532  0.4604 -0.5494  0.0589
12928SOL    HW150003   1.298   7.925   2.551  0.5171  0.5584  0.4640
12928SOL    HW250004   1.418   7.858   2.462 -0.6247 -0.6605 -0.1726
12929SOL     OW50005   0.662   5.510   3.092 -0.0551 -0.0082 -0.0542
12929SOL    HW150006   0.617   5.596   3.114 -1.0240 -0.3385 -0.7420
12929SOL    HW250007   0.734   5.526   3.024  0.2732  0.3699  0.3764
12930SOL     OW50008   5.255   1.213   5.189  0.3815  0.2690  0.8499
12930SOL    HW150009   5.218   1.183   5.101  0.3880 -0.0749  0.9659
12930SOL    HW250010   5.187   1.199   5.261  1.0350 -1.1608  1.2079
12931SOL     OW50011   7.345   8.382   4.865 -0.2131  0.0789  0.2345
12931SOL    HW150012   7.434   8.375   4.819 -0.9090  0.1934 -1.1511
12931SOL    HW250013   7.294   8.459   4.826 -0.4977  0.6681  1.7538
12932SOL     OW50014   2.187   2.974   0.912 -0.6737  0.9327 -0.1621
12932SOL    HW150015   2.138   2.961   0.826 -0.5433  2.4944 -0.4848
12932SOL    HW250016   2.188   2.888   0.963  1.1336 -0.6425 -2.7119
12933SOL     OW50017   2.041   8.699   4.058  0.5336 -0.3496  0.5670
12933SOL    HW150018   2.036   8.615   4.111  1.4031 -0.7392  0.0344
12933SOL    HW250019   2.091   8.768   4.109 -0.8660  0.1147  1.3455
12934SOL     OW50020   0.237   4.826   1.385 -0.1631 -0.6106 -0.1034
12934SOL    HW150021   0.318   4.769   1.389 -0.1197 -0.5557 -0.1991
12934SOL    HW250022   0.237   4.891   1.460  0.7785  0.5919 -1.1237
12935SOL     OW50023   7.114   1.801   6.643 -0.3407 -0.2318  0.2569
12935SOL    HW150024   7.180   1.727   6.652  0.1828 -0.0049 -1.6139
12935SOL    HW250025   7.021   1.763   6.638 -0.0309 -0.8233 -1.2929
12936SOL     OW50026   8.730   5.330   3.268  0.0345  0.0765 -0.0898
12936SOL    HW150027   8.655   5.396   3.276  0.8032  0.9127  0.2971
12936SOL    HW250028   8.761   5.327   3.173  0.4810  0.8289  0.0231
12937SOL     OW50029   2.772   9.413   3.533  0.5921  0.4052 -0.0407
12937SOL    HW150030   2.780   9.338   3.467 -0.5726 -2.1104  2.5477
12937SOL    HW250031   2.695   9.471   3.507  1.9341  1.1728 -2.4721
12938SOL     OW50032   5.498   1.804   3.709  0.4131  0.3854  0.3723
12938SOL    HW150033   5.494   1.771   3.615  0.8701 -0.5377  0.6726
12938SOL    HW250034   5.567   1.752   3.760 -0.9256 -0.1936  1.6312
12939SOL     OW50035   3.644   8.663   4.875  0.3650 -0.1281 -0.0400
12939SOL    HW150036   3.675   8.641   4.968 -1.1854  2.2164  1.0923
12939SOL    HW250037   3.695   8.741   4.840  1.3347 -1.3566 -1.4126
12940SOL     OW50038   9.475   0.406   1.381  0.1481  0.2188 -0.4071
12940SOL    HW150039   9.572   0.382   1.380  0.1440  0.1987 -2.4602
12940SOL    HW250040   9.461   0.490   1.434  1.0984 -0.4755  0.9602
12941SOL     OW50041   9.117   8.044   6.021 -0.6161  0.1384 -0.2192
12941SOL    HW150042   9.081   8.083   6.106  0.1098 -0.5400  0.4029
12941SOL    HW250043   9.181   8.108   5.979 -0.7638  0.3540 -0.1175
12942SOL     OW50044   3.789   9.965   5.994 -0.0791 -0.0025 -0.4297
12942SOL    HW150045   3.831   9.982   6.083 -0.6857 -1.5714  0.1692
12942SOL    HW250046   3.739  10.047   5.966  0.7831  0.7884  0.2873
12943SOL     OW50047   3.023   5.057   2.053 -0.3073 -0.0543  0.2113
12943SOL    HW150048   3.073   5.142   2.036  0.5780 -0.3693  1.2241
12943SOL    HW250049   3.038   4.994   1.977 -1.5906  0.9648 -0.9226
12944SOL     OW50050   3.523   7.600   5.491 -0.2059  0.1070  0.4771
12944SOL    HW150051   3.589   7.532   5.458  0.6418  0.2259  1.8827
12944SOL    HW250052   3.564   7.691   5.486  0.6294 -0.0482  3.4814
12945SOL     OW50053   6.271   0.972   0.749 -0.1739 -1.3653 -0.3297
12945SOL    HW150054   6.227   1.028   0.820 -0.6471 -1.2014 -0.7470
12945SOL    HW250055   6.258   1.016   0.660  0.9614 -1.2345 -0.4507
12946SOL     OW50056   4.200   4.440   5.224 -0.2696  0.0436  0.2788
12946SOL    HW150057   4.238   4.401   5.309  1.3480 -1.1671 -0.9534
12946SOL    HW250058   4.139   4.373   5.181 -0.3535  0.2890  0.0165
12947SOL     OW50059   3.604   7.851   5.530  0.4035  0.4320  0.3239
12947SOL    HW150060   3.694   7.876   5.567  0.5626  0.0016  0.2296
12947SOL    HW250061   3.597   7.882   5.436 -1.2065  4.4166  1.6618
12948SOL     OW50062   9.652   1.404   0.371 -0.0787  0.0599 -0.3093
12948SOL    HW150063   9.691   1.412   0.463 -0.9742 -0.2978  0.1043
12948SOL    HW250064   9.558   1.437   0.371 -0.9453 -2.3130 -0.5061
12949SOL     OW50065   9.779   7.674   5.182  0.4587 -0.5373 -0.5274
12949SOL    HW150066   9.778   7.631   5.092  2.1587 -0.0164 -0.8216
12949SOL    HW250067   9.873   7.677   5.216  0.2498  2.1194 -0.1147
12950SOL     OW50068   1.669   8.974   5.978  0.5192 -0.1043  0.0624
12950SOL    HW150069   1.650   9.050   5.916  2.5861 -0.2175 -0.7453
12950SOL    HW250070   1.733   9.004   6.049 -0.0600 -0.6059  0.8075
12951SOL     OW50071   6.226   8.484   5.180  0.4900  0.1238  0.1281
12951SOL    HW150072   6.160   8.413   5.208 -0.7988  1.1735 -0.1704
12951SOL    HW250073   6.255   8.536   5.260  0.0591  0.3954  0.1140
12952SOL     OW50074   6.725   0.745   2.086 -0.5822  0.1807 -0.0281
12952SOL    HW150075   6.745   0.653   2.052 -0.0078  0.2075  0.2369
12952SOL    HW250076   6.811   0.793   2.102 -0.8393 -0.0139  1.9774
12953SOL     OW50077   8.084   2.443   6.341  0.1238  0.0085 -0.0563
12953SOL    HW150078   8.110   2.533   6.377 -1.3410  0.2169  0.5294
12953SOL    HW250079   8.109   2.372   6.407 -1.6666  0.3024  0.9979
12954SOL     OW50080   7.255   2.392   3.984  0.0563  0.0629 -0.1446
12954SOL    HW150081   7.242   2.296   4.009  0.8941  0.3319  1.3350
12954SOL    HW250082   7.318   2.397   3.907  0.6987 -0.5256  0.3377
12955SOL     OW50083   9.399   8.674   1.878 -0.2699 -0.1438  0.5398
12955SOL    HW150084   9.402   8.628   1.967 -0.4005  0.5506  0.9022
12955SOL    HW250085   9.318   8.732   1.873 -0.5094 -0.5427 -0.2112
12956SOL     OW50086   0.023   7.379   2.921  0.6589 -0.0906 -0.0383
12956SOL    HW150087   0.039   7.313   2.994  0.5589  0.9730  0.9667
12956SOL    HW250088  -0.044   7.343   2.857  0.9173 -1.1306  0.2715
12957SOL     OW50089   0.840   8.535   4.743  0.3741 -0.5674 -0.6975
12957SOL    HW150090   0.877   8.615   4.791 -2.3009  0.5628 -0.4283
12957SOL    HW250091   0.763   8.563   4.687  0.2019 -2.7732 -1.6026
12958SOL     OW50092   5.102   3.128   4.719  0.0603  0.4597 -0.4786
12958SOL    HW150093   5.072   3.223   4.726  0.8240  0.8686 -2.5146
12958SOL    HW250094   5.192   3.124   4.677  0.9694 -1.0531  1.5328
12959SOL     OW50095   9.728   9.418   4.400 -0.2157  0.2077  0.4691
12959SOL    HW150096   9.693   9.451   4.488  0.6192 -1.9294  1.6186
12959SOL    HW250097   9.822   9.449   4.388 -0.7010  1.4812 -0.2365
12960SOL     OW50098   2.020   3.222   1.492  0.5052 -0.0239  0.4598
12960SOL    HW150099   1.949   3.239   1.423  2.1582 -0.2586 -1.3557
12960SOL    HW250100   1.978   3.196   1.578 -1.6490  0.8985 -0.2840
12961SOL     OW50101   6.053   0.523   0.855 -0.2609  0.0701 -1.0784
12961SOL    HW150102   6.146   0.486   0.854  0.0972  0.9027 -0.1120
12961SOL    HW250103   6.011   0.505   0.944 -0.6569  0.5717 -1.1586
12962SOL     OW50104   1.970   3.376   5.579 -0.5898  0.1018 -0.4447
12962SOL    HW150105   2.033   3.341   5.649 -0.7936 -0.5966 -0.6060
12962SOL    HW250106   1.956   3.306   5.509  0.0576  1.0036 -1.4926
12963SOL     OW50107   0.543   0.408   6.514  0.2865  0.1832 -0.5305
12963SOL    HW150108   0.528   0.489   6.570  0.1339  0.9932 -1.7372
12963SOL    HW250109   0.630   0.415   6.467 -0.1262  0.0503 -1.3239
12964SOL     OW50110   8.280   4.579   4.548 -0.9441  0.2023 -0.2655
12964SOL    HW150111   8.201   4.605   4.492  0.0646  0.1587 -1.7397
12964SOL    HW250112   8.311   4.657   4.601 -2.8606 -0.1540  1.4429
12965SOL     OW50113   6.428   1.502   2.124 -0.2459 -0.2722  0.1507
12965SOL    HW150114   6.389   1.421   2.168 -0.1181 -0.7492 -0.5991
12965SOL    HW250115   6.470   1.561   2.194  1.1046 -1.6563  0.5455
12966SOL     OW50116   6.666   1.614   0.681 -0.3314  0.3188  0.0587
12966SOL    HW150117   6.688   1.712   0.679  0.1729  0.1937 -2.4281
12966SOL    HW250118   6.744   1.563   0.716 -0.4561  0.7708  1.0084
12967SOL     OW50119   5.829   9.595   4.432  0.1906  0.5124  0.0274
12967SOL    HW150120   5.804   9.526   4.364 -0.2746 -0.4405  1.1489
12967SOL    HW250121   5.805   9.686   4.399  0.1727  0.0771 -1.1704
12968SOL     OW50122   2.947   4.500   0.349 -0.2862 -0.1052 -0.7379
12968SOL    HW150123   2.953   4.402   0.371 -1.3688 -0.3002 -1.2730
12968SOL    HW250124   3.021   4.525   0.287  1.1320 -0.1606  0.9009
12969SOL     OW50125   1.232   5.660   2.914  0.1231  0.0920  0.2667
12969SOL    HW150126   1.290   5.739   2.934  1.1204 -0.3708 -0.7413
12969SOL    HW250127   1.286   5.576   2.925 -0.3673 -0.3431 -0.6315
12970SOL     OW50128   2.235   1.247   6.043  0.4921 -0.1202 -0.1782
12970SOL    HW150129   2.144   1.242   6.003  0.5373 -0.7754 -0.2079
12970SOL    HW250130   2.271   1.340   6.033 -0.6092  0.4179  0.8075
12971SOL     OW50131   1.013   8.888   5.967 -1.2389  0.3193  0.0122
12971SOL    HW150132   1.021   8.934   5.878  0.4950  2.2338  1.0979
12971SOL    HW250133   0.930   8.919   6.013 -1.2860  0.5980 -0.2595
12972SOL     OW50134   0.734   8.668   4.986  0.4343 -0.3176  0.0214
12972SOL    HW150135   0.816   8.695   4.935  0.8208  3.1291  2.2709
12972SOL    HW250136   0.761   8.630   5.074 -0.3535 -2.0003 -0.4382
12973SOL     OW50137   8.612   2.610   6.088 -0.3395 -0.0425 -0.0501
12973SOL    HW150138   8.675   2.607   6.165  0.5301  0.0505 -0.7450
12973SOL    HW250139   8.518   2.602   6.121 -0.0695  1.5023  1.1420
12974SOL     OW50140   8.582   3.332   3.063  0.0983 -1.0044 -0.4761
12974SOL    HW150141   8.531   3.320   2.978  1.5967 -0.4878 -1.4626
12974SOL    HW250142   8.617   3.243   3.094  1.4189 -0.9077 -1.6107
12975SOL     OW50143   0.206   8.208   0.944  0.4033  0.1592 -0.1716
12975SOL    HW150144   0.302   8.192   0.920  0.0586 -1.8232 -0.3530
12975SOL    HW250145   0.174   8.292   0.899  1.8914  0.5476 -0.5378
12976SOL     OW50146   6.968   1.276   3.033  0.0116  0.7056  0.0284
12976SOL    HW150147   6.919   1.207   3.086 -0.1652  1.1850  0.4899
12976SOL    HW250148   6.999   1.349   3.093 -0.4524  1.4044 -0.5654
12977SOL     OW50149   9.974   6.691   0.338  0.0427  0.0072 -0.2107
12977SOL    HW150150   9.905   6.764   0.334  0.7275  0.5784 -1.8591
12977SOL    HW250151   9.928   6.602   0.343 -0.8717  0.2653 -3.1494
12978SOL     OW50152   7.896   3.615   4.951 -0.2607 -0.1652 -0.0250
12978SOL    HW150153   7.910   3.712   4.970  0.7698  0.1302 -2.1928
12978SOL    HW250154   7.888   3.601   4.852 -1.2268 -2.1912  0.3090
12979SOL     OW50155   7.880   5.105   4.747  0.3519  0.1266  0.4450
12979SOL    HW150156   7.953   5.091   4.680 -1.1476 -0.0768 -1.1744
12979SOL    HW250157   7.846   5.016   4.778  0.3835  0.2198  0.7521
12980SOL     OW50158   4.781   2.074   4.967  0.1342  0.2288 -0.0629
12980SOL    HW150159   4.867   2.113   4.999  0.9703 -0.9664 -0.8238
12980SOL    HW250160   4.741   2.018   5.039  2.0487 -2.5181 -1.0487
12981SOL     OW50161   9.204   1.616   4.633 -0.9290 -0.9821 -0.7624
12981SOL    HW150162   9.132   1.567   4.682 -1.0272 -1.9356 -1.8422
12981SOL    HW250163   9.213   1.579   4.540 -1.6341  1.6342 -1.9201
12982SOL     OW50164   9.640   3.527   0.592  0.4120  0.2714 -0.4960
12982SOL    HW150165   9.644   3.475   0.507  0.5431 -0.7335  0.1045
12982SOL    HW250166   9.593   3.614   0.577  1.1056  0.4367 -1.7566
12983SOL     OW50167   3.947   5.822   5.292  0.6925 -0.5001  0.1813
12983SOL    HW150168   3.975   5.729   5.268  0.4506 -0.4527 -0.2991
12983SOL    HW250169   3.882   5.819   5.368 -0.1202 -0.7943 -0.5199
12984SOL     OW50170   8.251   0.003   3.787 -0.1493  0.2255  0.0470
12984SOL    HW150171   8.346  -0.029   3.784  0.5658  2.2512  0.1168
12984SOL    HW250172   8.249   0.095   3.827 -2.4462 -0.8619  2.6034
12985SOL     OW50173   5.907   8.336   4.723 -0.1245  0.5390  0.2220
12985SOL    HW150174   5.941   8.419   4.766  0.6709 -0.0983  0.8309
12985SOL    HW250175   5.968   8.310   4.648  0.2832 -0.1640  0.8029
12986SOL     OW50176   9.092   0.131   3.541 -0.3344 -0.1886 -0.1940
12986SOL    HW150177   9.188   0.106   3.536  0.0243  1.1113 -0.0701
12986SOL    HW250178   9.077   0.215   3.489 -1.5631 -0.8415 -0.9056
12987SOL     OW50179   1.748   8.060   0.591  0.5547 -0.5893  0.0044
12987SOL    HW150180   1.648   8.060   0.599  0.4147  1.2787 -1.2387
12987SOL    HW250181   1.774   8.012   0.507  0.3891  2.6081 -1.9752
12988SOL     OW50182   7.215   1.147   3.931  0.2507  0.4379 -0.1877
12988SOL    HW150183   7.203   1.051   3.910  0.0247  0.2944  0.5897
12988SOL    HW250184   7.303   1.161   3.978  0.8195  0.7742 -1.3461
12989SOL     OW50185   4.991   8.427   0.048  0.3235 -0.0058  0.9342
12989SOL    HW150186   4.904   8.378   0.040 -0.3474  1.2203  0.5536
12989SOL    HW250187   5.045   8.412  -0.035  0.5586 -0.9064  1.2418
12990SOL     OW50188   1.154   2.499   4.035  0.2950 -0.3622  0.1657
12990SOL    HW150189   1.254   2.493   4.046  0.1815 -1.2249  0.7280
12990SOL    HW250190   1.117   2.409   4.016 -0.4135 -0.0824  0.2057
12991SOL     OW50191   4.073   9.149   3.210  0.1837 -0.0454  0.7227
12991SOL    HW150192   4.101   9.064   3.254  0.3610 -0.8427 -0.8809
12991SOL    HW250193   4.139   9.174   3.139 -1.8394 -0.6407 -1.4274
12992SOL     OW50194   2.547   3.451   2.594  0.2230 -0.5352  0.6452
12992SOL    HW150195   2.472   3.513   2.620 -0.4739 -1.8267  1.8228
12992SOL    HW250196   2.617   3.452   2.665 -0.1201 -1.5995  1.0096
12993SOL     OW50197   4.865   5.900   1.894  0.2822 -0.2672  0.5298
12993SOL    HW150198   4.802   5.862   1.961  1.6922 -1.0392  1.4349
12993SOL    HW250199   4.871   5.839   1.815  0.0637 -0.2992  0.5372
12994SOL     OW50200   2.772   6.937   5.911 -0.6045  0.1279 -0.0609
12994SOL    HW150201   2.686   6.961   5.956 -0.5599 -0.7471  0.5080
12994SOL    HW250202   2.836   6.900   5.978  0.7908  2.1986 -0.2064
12995SOL     OW50203   6.929   8.745   5.369  0.2041 -0.1234  0.2751
12995SOL    HW150204   6.959   8.794   5.287  1.8289  1.2782  1.6598
12995SOL    HW250205   7.008   8.702   5.413 -0.4862 -0.0940  1.5806
12996SOL     OW50206   2.987   6.040   4.476 -0.1743 -0.0207 -1.0345
12996SOL    HW150207   2.899   6.048   4.429 -2.0919 -1.7723  2.0518
12996SOL    HW250208   2.978   5.975   4.552  3.4985  0.6557  0.0782
12997SOL     OW50209   3.822   5.511   2.634 -0.3285  0.0826 -0.1457
12997SOL    HW150210   3.832   5.595   2.580  0.6400  1.8504  2.6904
12997SOL    HW250211   3.895   5.447   2.608  0.1650  0.9304 -0.8940
12998SOL     OW50212   2.073   5.394   1.027  1.0057 -0.1570 -1.4684
12998SOL    HW150213   2.065   5.294   1.027 -0.4565 -0.0820  1.6032
12998SOL    HW250214   2.145   5.421   1.090 -2.0359  0.8868  1.6829
12999SOL     OW50215   5.955   1.522   3.250  0.1139  0.1848  0.1918
12999SOL    HW150216   6.003   1.609   3.243 -1.8107  1.2319 -0.4577
12999SOL    HW250217   6.020   1.449   3.271  1.6485  1.8827  1.4728
13000SOL     OW50218   7.880   9.607   3.178 -0.0317  0.4789  0.4999
13000SOL    HW150219   7.796   9.661   3.185  0.1132  0.8661 -0.7061
13000SOL    HW250220   7.896   9.581   3.083  0.6430 -0.5180  0.8697
13001SOL     OW50221   2.598   9.587   0.150  0.0620  0.0143  0.1754
13001SOL    HW150222   2.626   9.499   0.190 -0.4786 -0.5064 -0.5696
13001SOL    HW250223   2.603   9.581   0.050  1.1466  1.2148  0.1536
13002SOL     OW50224   1.012   3.910   1.036  0.0212  0.1131  0.3824
13002SOL    HW150225   1.042   3.815   1.043  0.4293  0.2262  0.2047
13002SOL    HW250226   1.055   3.964   1.107  1.4126  0.5652 -0.7788
13003SOL     OW50227   5.212   1.491   2.301 -0.1989  0.4468  0.0381
13003SOL    HW150228   5.134   1.552   2.284  0.1849  0.5908 -1.2885
13003SOL    HW250229   5.196   1.439   2.384 -1.8191  0.3013 -0.3503
13004SOL     OW50230   5.209   8.896   2.332 -0.6389 -0.2545  0.0308
13004SOL    HW150231   5.284   8.857   2.385 -0.3611 -1.6846 -1.3895
13004SOL    HW250232   5.131   8.912   2.392 -0.4352 -2.1461  0.8243
13005SOL     OW50233   2.268   5.844   3.694 -0.0085 -0.2068  0.1808
13005SOL    HW150234   2.296   5.858   3.599  0.5617  2.6063  0.7368
13005SOL    HW250235   2.348   5.831   3.751 -0.3005 -0.8263  0.4561
13006SOL     OW50236   9.288   4.560   2.145 -0.2789 -0.1014 -0.2738
13006SOL    HW150237   9.284   4.487   2.077  1.5164 -1.8072  1.3857
13006SOL    HW250238   9.306   4.521   2.235  1.1363  2.4373  0.5892
13007SOL     OW50239   8.056   0.692   2.204 -0.3421 -0.4757  0.5559
13007SOL    HW150240   8.022   0.786   2.212  0.6932 -0.2383  2.3155
13007SOL    HW250241   7.978   0.628   2.202 -0.9820  0.2698  1.4301
13008SOL     OW50242   4.663   8.391   1.694 -0.0530  0.1494 -0.0497
13008SOL    HW150243   4.653   8.315   1.758 -0.4430  0.2220 -0.0239
13008SOL    HW250244   4.574   8.414   1.655  0.0581  0.6201 -0.0263
13009SOL     OW50245   2.224   7.710   6.025  0.6271  0.1232  0.1909
13009SOL    HW150246   2.170   7.635   6.062  1.1363 -0.1242  0.4313
13009SOL    HW250247   2.163   7.780   5.989  0.1452 -0.8295 -0.8841
13010SOL     OW50248   6.978   7.595   2.575  0.4049 -0.2525 -0.1363
13010SOL    HW150249   6.989   7.695   2.573  1.5827 -0.3785 -0.0859
13010SOL    HW250250   7.014   7.557   2.490  1.6051 -0.7998  0.6115
13011SOL     OW50251   6.676   9.068   4.901  0.4760 -0.0577 -0.0599
13011SOL    HW150252   6.767   9.041   4.932  0.7557 -1.6252 -2.1060
13011SOL    HW250253   6.614   8.990   4.907 -0.0522  0.2624 -1.1597
13012SOL     OW50254   9.502   6.238   2.513 -0.1026  0.0572  0.0882
13012SOL    HW150255   9.510   6.317   2.573  1.4687  0.0176 -0.0583
13012SOL    HW250256   9.571   6.170   2.536  0.7996  0.2110 -1.9951
13013SOL     OW50257   8.533   2.906   6.445 -0.2576  0.5817 -0.4416
13013SOL    HW150258   8.455   2.926   6.386  0.6919  0.4239 -1.7699
13013SOL    HW250259   8.506   2.916   6.541 -1.0811  3.4829 -0.9394
13014SOL     OW50260   4.918   4.233   6.704  0.0334  0.0162 -0.5400
13014SOL    HW150261   4.857   4.228   6.783  1.1216  0.4969  0.3302
13014SOL    HW250262   4.965   4.321   6.704  2.3927 -1.2229  0.0148
13015SOL     OW50263   8.520   5.048   6.540  0.8744 -0.2690  0.6625
13015SOL    HW150264   8.448   5.029   6.473  0.4838 -0.8668  1.2526
13015SOL    HW250265   8.525   4.974   6.606  1.3020  0.2875  1.2626
13016SOL     OW50266   7.713   4.536   0.555 -0.4012  0.6156  0.0231
13016SOL    HW150267   7.713   4.565   0.459 -0.0338 -0.2122 -0.2268
13016SOL    HW250268   7.689   4.440   0.561  1.5083  0.1422  0.5938
13017SOL     OW50269   2.483   9.030   3.186 -0.3898  0.0039  0.1924
13017SOL    HW150270   2.564   8.987   3.146  0.5622  1.3586  0.6154
13017SOL    HW250271   2.456   8.981   3.269  1.2348  0.7556  1.1828
13018SOL     OW50272   0.392   4.173   4.508 -0.1744 -0.1882 -0.1269
13018SOL    HW150273   0.426   4.134   4.594  3.0268  1.0491 -0.7719
13018SOL    HW250274   0.387   4.273   4.517 -1.0213 -0.1528 -0.9853
13019SOL     OW50275   7.015   3.035   3.484 -0.3830 -0.1034 -0.1348
13019SOL    HW150276   6.940   3.091   3.449 -0.7557 -0.0581  0.7185
13019SOL    HW250277   6.981   2.975   3.556  1.0542  2.2911  2.6332
13020SOL     OW50278   4.948   2.141   3.189 -0.3771 -0.1243 -0.0166
13020SOL    HW150279   4.923   2.228   3.145 -0.7885 -0.4439 -0.4178
13020SOL    HW250280   4.898   2.132   3.275  2.3696  1.7197  1.8666
13021SOL     OW50281   8.316   6.420   0.691  0.2763  0.1776 -0.2271
13021SOL    HW150282   8.383   6.476   0.739  0.5809 -0.0670 -0.3613
13021SOL    HW250283   8.229   6.469   0.684  0.3573  0.3766  0.2023
13022SOL     OW50284   0.664   6.593   2.242  0.5157 -0.3015 -0.1638
13022SOL    HW150285   0.592   6.543   2.289  0.2310  2.5067  2.5698
13022SOL    HW250286   0.641   6.603   2.145 -1.0054 -2.4801 -0.0542
13023SOL     OW50287   2.884   2.900   2.185 -0.4424  0.1075  0.1127
13023SOL    HW150288   2.927   2.990   2.176  1.7969 -0.9441  0.0102
13023SOL    HW250289   2.926   2.850   2.261 -2.3059 -0.5273  0.7659
13024SOL     OW50290   9.704   5.687   3.866 -0.3656  0.1116 -0.2726
13024SOL    HW150291   9.668   5.659   3.955  0.6933 -2.5099 -0.6024
13024SOL    HW250292   9.642   5.752   3.823 -1.3829  0.6357  1.9585
13025SOL     OW50293   1.122   4.451   1.600  0.2017 -0.3387  0.7139
13025SOL    HW150294   1.163   4.470   1.689  1.0653  1.2724 -0.0162
13025SOL    HW250295   1.193   4.425   1.534 -0.4834 -1.9683  0.5887
13026SOL     OW50296   4.737   9.080   6.249  0.2374 -0.0129  0.2222
13026SOL    HW150297   4.823   9.055   6.205  1.1891  1.7984  1.0077
13026SOL    HW250298   4.737   9.048   6.344 -0.3727 -0.8781 -0.0647
13027SOL     OW50299   7.017   9.407   2.531  0.9425 -0.1985  0.0164
13027SOL    HW150300   7.053   9.322   2.493  1.1875  0.7691 -1.9973
13027SOL    HW250301   6.944   9.441   2.471  0.5462  0.7754  1.0445
13028SOL     OW50302   2.217   6.363   4.383 -0.3362 -0.4500 -0.4865
13028SOL    HW150303   2.193   6.391   4.290  0.7536 -2.2419 -1.3381
13028SOL    HW250304   2.275   6.281   4.379 -0.7284 -0.8656  1.7881
13029SOL     OW50305   9.317   9.156   4.894 -0.0708 -0.7412 -0.2620
13029SOL    HW150306   9.340   9.084   4.960 -0.8558 -0.9998 -0.2644
13029SOL    HW250307   9.380   9.151   4.817 -0.7049 -2.0549 -0.7209
13030SOL     OW50308   8.741   1.593   4.453 -0.4670 -0.1088 -0.0811
13030SOL    HW150309   8.798   1.670   4.426  0.9888 -2.0974 -2.9097
13030SOL    HW250310   8.666   1.582   4.388 -1.0682 -0.6599  0.6910
13031SOL     OW50311   8.796   9.873   2.520  0.1704  0.4093  0.2836
13031SOL    HW150312   8.782   9.807   2.446 -1.7167 -1.1762  1.9775
13031SOL    HW250313   8.836   9.827   2.599  1.3740  1.8940  0.5617
13032SOL     OW50314   1.940   0.174   2.381 -1.1228 -0.0449  0.5575
13032SOL    HW150315   1.974   0.266   2.400 -1.0510 -0.2934  1.7034
13032SOL    HW250316   2.017   0.110   2.374 -1.1137  0.1258 -1.1601
13033SOL     OW50317   9.230   8.821   0.787  0.1169  0.3324  0.2819
13033SOL    HW150318   9.220   8.791   0.882 -2.8400 -1.5718 -0.5578
13033SOL    HW250319   9.272   8.747   0.733  0.7136  0.9698 -0.1375
13034SOL     OW50320   9.750   6.108   1.247  0.0807 -0.1423 -0.0947
13034SOL    HW150321   9.658   6.093   1.211 -0.3766  0.1314  0.9370
13034SOL    HW250322   9.748   6.105   1.347  1.4040 -1.3906 -0.0748
13035SOL     OW50323   2.616   3.664   5.117  0.3666  0.1014 -0.2054
13035SOL    HW150324   2.707   3.630   5.093 -0.0266 -1.1943  0.0839
13035SOL    HW250325   2.623   3.755   5.157  1.3579  0.7631 -1.8877
13036SOL     OW50326   9.208   8.490   4.108  0.2419 -0.4836  0.1845
13036SOL    HW150327   9.200   8.583   4.070 -0.1901 -0.7432 -0.3732
13036SOL    HW250328   9.304   8.469   4.126  0.3743 -0.0635 -0.0330
13037SOL     OW50329   5.641   1.037   4.582 -0.4489  0.4861  0.0066
13037SOL    HW150330   5.561   1.039   4.522 -0.5270 -1.0168  0.0400
13037SOL    HW250331   5.624   0.974   4.658  1.4626 -1.3261 -1.0132
13038SOL     OW50332   1.281   2.686   4.763  0.2380  0.2055 -0.8300
13038SOL    HW150333   1.334   2.646   4.688  0.2091 -0.5117 -0.4653
13038SOL    HW250334   1.272   2.620   4.837 -2.3232 -0.1534 -1.4353
13039SOL     OW50335   8.797   3.015   5.310 -0.3639 -0.3066 -0.0330
13039SOL    HW150336   8.723   2.949   5.324 -0.9140  0.3159  0.0348
13039SOL    HW250337   8.794   3.084   5.382 -0.9807  0.8840 -1.1887
13040SOL     OW50338   0.923   7.548   0.282  0.4221  0.2053 -0.3257
13040SOL    HW150339   0.950   7.600   0.200  2.3974 -1.5371 -0.8226
13040SOL    HW250340   0.943   7.451   0.268 -0.6542 -0.3259  1.6609
13041SOL     OW50341   8.131   9.876   3.371  0.0318  0.1411 -0.0538
13041SOL    HW150342   8.045   9.826   3.381 -0.7709  0.7946 -3.1070
13041SOL    HW250343   8.206   9.812   3.359 -0.2670 -0.3964  0.8843
13042SOL     OW50344   0.976   0.231   5.180 -0.4002 -0.5072  0.3163
13042SOL    HW150345   1.008   0.138   5.163 -0.2914 -0.9643  2.7715
13042SOL    HW250346   0.877   0.235   5.170 -0.8221 -1.7187  3.3256
13043SOL     OW50347   8.941   0.020   2.836 -0.1320  0.2209 -0.1387
13043SOL    HW150348   8.888  -0.060   2.863 -0.1285 -0.2279 -1.4469
13043SOL    HW250349   8.882   0.101   2.836 -0.1655  0.2016  1.0480
13044SOL     OW50350   9.016   0.493   1.702  0.1911 -0.4248  0.3902
13044SOL    HW150351   9.077   0.469   1.777 -0.0240 -0.3031  0.6062
13044SOL    HW250352   9.056   0.567   1.648  1.1302 -1.6557 -0.6348
13045SOL     OW50353   2.836   5.142   5.429  0.2941 -0.1483  0.0046
13045SOL    HW150354   2.833   5.192   5.516  0.3295  1.6865 -1.0159
13045SOL    HW250355   2.916   5.172   5.377  0.1025 -1.0139 -0.7834
13046SOL     OW50356   7.163   1.158   0.236  0.4505  0.3137  0.2176
13046SOL    HW150357   7.190   1.200   0.323  1.9110 -0.2920  0.0852
13046SOL    HW250358   7.141   1.229   0.170  0.0038  0.7984  0.8811
13047SOL     OW50359   1.329   9.972   2.672 -0.3319  0.4662  0.1397
13047SOL    HW150360   1.266   9.980   2.595  1.0050  0.9750 -0.9358
13047SOL    HW250361   1.313  10.046   2.737 -0.3505  1.0278 -0.5057
13048SOL     OW50362   0.751   7.567   5.040  0.0862  0.2403  0.1085
13048SOL    HW150363   0.771   7.479   4.996 -1.2882  0.3941 -0.8487
13048SOL    HW250364   0.836   7.611   5.068  0.8487 -0.8087 -0.5458
13049SOL     OW50365   1.498   2.135   6.589  0.4516  0.3381 -0.4303
13049SOL    HW150366   1.413   2.172   6.626 -0.3081 -0.9274 -0.9044
13049SOL    HW250367   1.576   2.183   6.631 -0.4357  0.2503  1.3595
13050SOL     OW50368   0.984   9.317   5.800  0.4050 -0.2791 -0.1022
13050SOL    HW150369   1.076   9.282   5.781 -0.3071 -0.9077 -2.5941
13050SOL    HW250370   0.991   9.411   5.834  1.9399 -0.0168 -1.0636
13051SOL     OW50371   8.212   3.626   5.473 -0.1238  0.2198 -0.1021
13051SOL    HW150372   8.166   3.547   5.433 -2.4160  1.9407 -0.9661
13051SOL    HW250373   8.217   3.700   5.406  0.3170  1.4647  1.2774
13052SOL     OW50374   2.891   4.569   6.093 -0.1852 -0.2010 -0.2451
13052SOL    HW150375   2.989   4.557   6.106  0.1521 -0.2946 -2.6982
13052SOL    HW250376   2.842   4.501   6.148  1.1621 -1.1505 -0.1960
13053SOL     OW50377   1.682   7.722   5.321  0.5107  0.2471  0.3576
13053SOL    HW150378   1.684   7.822   5.317 -0.6742  0.1891 -3.1916
13053SOL    HW250379   1.589   7.689   5.307  1.0987 -1.4119  0.1814
13054SOL     OW50380   8.501   7.838   1.271 -0.5582  0.4099  0.4783
13054SOL    HW150381   8.596   7.858   1.245 -0.4360  0.4407  0.9289
13054SOL    HW250382   8.443   7.839   1.190  0.0478 -0.8869  0.0056
13055SOL     OW50383   6.739   9.727   4.466  0.2440 -0.5742  0.4647
13055SOL    HW150384   6.723   9.826   4.474  0.4326 -0.4793 -0.2787
13055SOL    HW250385   6.828   9.711   4.424  0.0545 -1.0568  0.2489
13056SOL     OW50386   5.787   8.728   4.017  0.4655 -0.3266 -0.5887
13056SOL    HW150387   5.730   8.758   3.940  0.5738 -0.8802 -0.8866
13056SOL    HW250388   5.773   8.790   4.094 -1.7695 -1.3523 -0.1208
13057SOL     OW50389   3.857   3.334   2.935  0.2107 -0.4650  0.3337
13057SOL    HW150390   3.928   3.332   3.006  0.7397 -0.0904 -0.1751
13057SOL    HW250391   3.888   3.392   2.859  0.3901 -2.2624 -0.9918
13058SOL     OW50392   8.518   5.487   2.963  0.2127 -0.0328 -0.2990
13058SOL    HW150393   8.545   5.486   3.059  0.1269 -0.2668 -0.2744
13058SOL    HW250394   8.418   5.498   2.956 -0.1320 -2.7252 -0.2563
13059SOL     OW50395   4.704   3.443   0.868  0.0788  0.3689 -0.3566
13059SOL    HW150396   4.637   3.484   0.931  0.9158  0.9282  0.1814
13059SOL    HW250397   4.795   3.476   0.891  0.9728 -2.9080  0.9896
13060SOL     OW50398   2.740   6.076   4.339 -0.1519 -0.0442  0.0202
13060SOL    HW150399   2.674   6.060   4.265  2.9685  0.0365 -2.8795
13060SOL    HW250400   2.764   6.173   4.341 -0.9031  0.1183  1.7743
13061SOL     OW50401   2.823   7.793   0.863  0.5694 -0.7408  0.1364
13061SOL    HW150402   2.742   7.843   0.893  1.0734  0.0837  0.1634
13061SOL    HW250403   2.864   7.840   0.785  2.0883 -0.0690  1.3092
13062SOL     OW50404   3.215   0.096   1.321  0.0844 -0.0569 -0.3156
13062SOL    HW150405   3.164   0.159   1.263 -0.2558 -0.0799 -0.0500
13062SOL    HW250406   3.281   0.045   1.266  2.5414  2.7102 -0.0389
13063SOL     OW50407   9.040   1.496   6.599 -0.0052  0.5754  0.0827
13063SOL    HW150408   9.022   1.574   6.539  1.7564  1.8577  1.1628
13063SOL    HW250409   9.107   1.522   6.668  0.2875 -1.7820  0.7421
13064SOL     OW50410   3.149   5.985   6.366  0.2803 -0.5513 -0.1493
13064SOL    HW150411   3.216   6.037   6.312  0.7309 -0.9594  0.0113
13064SOL    HW250412   3.094   6.048   6.420 -0.3078 -0.1176 -1.2245
13065SOL     OW50413   9.698   2.033   2.918  0.2727 -0.6957 -0.2450
13065SOL    HW150414   9.792   2.063   2.937 -0.1548  1.5440 -1.5328
13065SOL    HW250415   9.643   2.043   3.001  0.6020  0.2734 -0.1345
13066SOL     OW50416   4.683   3.611   3.124  0.1930 -0.1702  0.2382
13066SOL    HW150417   4.711   3.515   3.125 -0.9723 -0.5161  0.3728
13066SOL    HW250418   4.733   3.660   3.053 -0.2610 -1.2058 -0.7947
13067SOL     OW50419   2.849   1.043   5.525  0.0321  0.0697  0.1792
13067SOL    HW150420   2.914   0.974   5.555  0.7172  0.8291  0.4649
13067SOL    HW250421   2.799   1.010   5.445  1.1291 -0.3183 -0.3510
13068SOL     OW50422   3.261   3.359   6.035  0.4959 -0.0843 -0.2357
13068SOL    HW150423   3.263   3.459   6.033 -0.7872 -0.0422 -0.1408
13068SOL    HW250424   3.306   3.322   5.954 -0.2173  0.5945 -0.9437
13069SOL     OW50425   1.597   1.597   0.616 -0.5862  0.2744  0.2102
13069SOL    HW150426   1.627   1.656   0.541  0.5408 -0.7680 -0.1861
13069SOL    HW250427   1.518   1.544   0.588 -1.4398  1.3919  0.4779
13070SOL     OW50428   0.775   0.797   0.526 -0.1529  0.1349  0.1221
13070SOL    HW150429   0.789   0.868   0.595 -1.1748  0.5358 -0.0717
13070SOL    HW250430   0.690   0.748   0.545  0.2592 -0.6615 -0.0695
13071SOL     OW50431   8.395   1.333   0.562 -0.1886  0.5299  0.2328
13071SOL    HW150432   8.477   1.356   0.509  1.4947 -1.7929  1.7295
13071SOL    HW250433   8.422   1.284   0.644 -3.1102  0.0177  0.9212
13072SOL     OW50434   9.880   1.456   0.233  0.1495 -0.4677 -0.2544
13072SOL    HW150435   9.858   1.483   0.139  2.4613 -1.3183 -1.0631
13072SOL    HW250436   9.795   1.434   0.282 -1.0846  0.1393 -2.0759
13073SOL     OW50437   4.405   6.997   1.406 -0.0620 -0.0037  0.7952
13073SOL    HW150438   4.332   7.062   1.388  0.5852  0.7605  0.8746
13073SOL    HW250439   4.488   7.047   1.432  1.7334 -0.5902 -3.4008
13074SOL     OW50440   1.867   0.876   4.322  0.3715 -0.1449  0.3629
13074SOL    HW150441   1.874   0.969   4.285 -0.7827 -0.6782 -1.2478
13074SOL    HW250442   1.927   0.868   4.401  1.5315  1.5761 -0.2942
13075SOL     OW50443   1.535   0.811   2.687  0.3130 -0.5466 -0.4401
13075SOL    HW150444   1.516   0.818   2.589 -0.4185 -0.8311 -0.3171
13075SOL    HW250445   1.459   0.851   2.739 -0.5012 -2.7414  0.0763
13076SOL     OW50446   7.281   0.858   6.546  0.3213  0.3671  0.3675
13076SOL    HW150447   7.252   0.946   6.584 -1.0781  0.0820  0.0006
13076SOL    HW250448   7.200   0.804   6.521  1.1727 -0.8341  0.1558
13077SOL     OW50449   4.435   1.773   4.240  0.4836 -0.4540 -0.0841
13077SOL    HW150450   4.485   1.687   4.240 -0.3323 -0.9802  2.2253
13077SOL    HW250451   4.426   1.806   4.334 -2.3442  0.2948 -0.5666
13078SOL     OW50452   0.376   5.267   4.832  0.4061  0.6544  0.5247
13078SOL    HW150453   0.384   5.177   4.875  0.2065  1.6607  2.7621
13078SOL    HW250454   0.404   5.338   4.898  0.0666  2.2696 -1.0212
13079SOL     OW50455   2.387   2.235   3.217  0.5681  0.5883 -0.5174
13079SOL    HW150456   2.356   2.147   3.180 -1.5696  1.0712  0.0737
13079SOL    HW250457   2.335   2.256   3.299  1.3601  2.2309 -0.4319
13080SOL     OW50458   0.367   7.301   4.472  0.1529 -0.3601 -0.0634
13080SOL    HW150459   0.300   7.337   4.408  0.3568 -1.6131 -0.9998
13080SOL    HW250460   0.452   7.353   4.464 -0.2137  0.2612  0.0536
13081SOL     OW50461   8.276   0.553   2.120 -0.3201 -0.1124  0.2146
13081SOL    HW150462   8.348   0.579   2.185 -0.8769  3.3397 -0.4428
13081SOL    HW250463   8.187   0.580   2.157 -0.7500  0.7536 -1.4256
13082SOL     OW50464   8.480   7.461   5.172 -0.6270  0.3200  0.1116
13082SOL    HW150465   8.497   7.555   5.202 -0.7611  0.9822 -1.7760
13082SOL    HW250466   8.400   7.425   5.219 -3.0063  2.6084 -1.9965
13083SOL     OW50467   8.863   6.981   1.991 -0.1748 -0.7903  0.6195
13083SOL    HW150468   8.934   7.033   1.943  0.3028 -0.2935  1.8353
13083SOL    HW250469   8.865   7.004   2.088 -2.8326  0.1584  0.4872
13084SOL     OW50470   0.835   4.211   0.960 -0.0592  0.1137  0.1839
13084SOL    HW150471   0.765   4.282   0.960  0.2282  0.4043  0.8846
13084SOL    HW250472   0.887   4.216   1.046 -0.7562 -1.6460  0.7233
13085SOL     OW50473   0.176   9.791   6.042  0.2736 -0.2407  0.6362
13085SOL    HW150474   0.228   9.832   5.967 -0.3816 -2.5396 -1.1155
13085SOL    HW250475   0.229   9.716   6.082  0.1742  0.3000  1.7958
13086SOL     OW50476   3.120   5.253   5.843 -0.4066 -0.1172  0.3447
13086SOL    HW150477   3.171   5.167   5.833  0.3183  0.4815 -1.2689
13086SOL    HW250478   3.141   5.293   5.932  2.2933  0.3125 -0.4148
13087SOL     OW50479   3.970   9.395   3.080  0.2216  0.0593  0.2367
13087SOL    HW150480   3.969   9.311   3.134 -3.2915  0.7080  1.2931
13087SOL    HW250481   3.987   9.373   2.984 -0.5783 -1.8287  0.5235
13088SOL     OW50482   3.138   0.033   4.967  0.4723 -0.2026  0.1036
13088SOL    HW150483   3.159  -0.043   4.905  0.3924 -0.4404  0.3646
13088SOL    HW250484   3.041   0.055   4.960  1.0777  1.8704 -2.1858
13089SOL     OW50485   2.902   5.698   4.090  0.0889  0.2387  0.3785
13089SOL    HW150486   2.876   5.651   4.175 -1.9444  0.9705  0.1818
13089SOL    HW250487   2.834   5.769   4.069  1.8295  1.6543 -0.6168
13090SOL     OW50488   2.955   0.044   4.479 -0.1645 -0.0284 -0.0568
13090SOL    HW150489   2.876   0.104   4.466 -0.1145 -0.0052 -0.2616
13090SOL    HW250490   3.037   0.100   4.491 -0.5233  0.0100  2.6460
13091SOL     OW50491   7.223   8.392   4.401  0.6638 -0.1673  0.1685
13091SOL    HW150492   7.181   8.358   4.317 -3.2060  1.1175  1.4856
13091SOL    HW250493   7.219   8.321   4.472  2.9185 -0.8576 -0.3468
13092SOL     OW50494   2.117   9.529   0.148  0.4566  0.5380 -0.2901
13092SOL    HW150495   2.034   9.581   0.128  1.1138  0.8074 -2.4037
13092SOL    HW250496   2.098   9.431   0.142  0.2039  0.5961 -0.3997
13093SOL     OW50497   0.862   2.933   6.110 -0.1165 -0.0965 -0.5915
13093SOL    HW150498   0.896   2.978   6.027  0.9306  0.9262  0.3851
13093SOL    HW250499   0.884   2.836   6.106 -1.0964 -0.2795 -2.0383
13094SOL     OW50500   4.911   0.534   3.980  0.0169 -0.5240 -0.4961
13094SOL    HW150501   4.915   0.562   3.884 -0.7838  1.7912  0.1049
13094SOL    HW250502   4.839   0.465   3.992 -0.7532  0.1300 -1.3431
13095SOL     OW50503   0.461   5.945   4.100  0.2481 -0.4565 -0.3431
13095SOL    HW150504   0.516   5.898   4.031 -0.1156 -2.2627  0.5666
13095SOL    HW250505   0.369   5.905   4.102  0.5191 -1.0132  1.7746
13096SOL     OW50506   2.905   3.354   1.561 -0.7062 -0.4148  0.0668
13096SOL    HW150507   2.914   3.419   1.636  0.9045 -0.9557  0.3632
13096SOL    HW250508   2.863   3.270   1.595  1.1945 -1.1530  0.7053
13097SOL     OW50509   8.601   5.056   2.005  0.1910  0.5612  0.4984
13097SOL    HW150510   8.623   5.137   1.950 -0.5636  1.0101  0.8491
13097SOL    HW250511   8.658   4.980   1.975  0.2553  0.9766 -0.4655
13098SOL     OW50512   9.617   7.096   0.804 -0.1018 -0.5006 -0.3433
13098SOL    HW150513   9.600   7.092   0.903  0.8686  0.1076 -0.1517
13098SOL    HW250514   9.636   7.004   0.770  1.3338 -0.4622  0.3497
13099SOL     OW50515   0.471   0.755   0.561 -0.7603  0.2110 -0.1394
13099SOL    HW150516   0.509   0.845   0.537  0.2458 -0.3666 -0.7385
13099SOL    HW250517   0.410   0.765   0.639 -0.4811  1.3915 -0.0612
13100SOL     OW50518   5.086   7.799   2.999 -0.0943 -0.2828  0.1884
13100SOL    HW150519   4.987   7.791   2.985 -0.1242 -1.3613  0.9276
13100SOL    HW250520   5.107   7.779   3.094  0.7862  0.4958  0.1561
13101SOL     OW50521   1.730   3.508   1.278  0.2524  0.4754 -0.1597
13101SOL    HW150522   1.668   3.587   1.285 -2.0279 -1.3793  1.5148
13101SOL    HW250523   1.796   3.511   1.353 -0.2161  0.5040  0.2578
13102SOL     OW50524   6.865   0.943   5.654  0.1495  0.2933 -0.1849
13102SOL    HW150525   6.901   0.926   5.562 -2.1243 -1.4353 -0.7940
13102SOL    HW250526   6.779   0.892   5.667  1.4424 -1.1008  3.6192
13103SOL     OW50527   9.280   6.816   3.373  0.3672 -0.0574 -0.0487
13103SOL    HW150528   9.186   6.850   3.376  0.3288 -0.2253  0.9201
13103SOL    HW250529   9.302   6.774   3.461  1.9156  1.5049  0.3282
13104SOL     OW50530   0.806   0.046   0.724 -0.3351  0.4198  0.2952
13104SOL    HW150531   0.750   0.078   0.801 -0.0593 -1.6409  1.3807
13104SOL    HW250532   0.754  -0.019   0.669  0.8700 -1.3475  1.1887
13105SOL     OW50533   1.417   7.890   4.394  0.1290 -0.2957 -0.2348
13105SOL    HW150534   1.449   7.818   4.456  1.0651 -1.2603 -1.8191
13105SOL    HW250535   1.426   7.859   4.299 -0.9020  1.3271 -0.8757
13106SOL     OW50536   2.751   7.558   3.643  0.3073  0.2987 -0.1337
13106SOL    HW150537   2.714   7.528   3.731 -0.3714  1.2527 -0.0859
13106SOL    HW250538   2.698   7.635   3.609  0.4980 -0.1262 -1.4385
13107SOL     OW50539   0.572   2.989   0.445  0.2323  0.5160  0.2515
13107SOL    HW150540   0.644   2.922   0.457  0.4299  0.5593 -0.6607
13107SOL    HW250541   0.502   2.976   0.516 -0.3517 -1.4411 -0.6512
13108SOL     OW50542   1.375   1.451   1.577  0.1299  0.2538  0.3699
13108SOL    HW150543   1.385   1.548   1.601  0.4738  0.1714  0.5563
13108SOL    HW250544   1.311   1.442   1.501  0.4215  0.6622  0.0765
13109SOL     OW50545   7.708   7.799   4.876  0.3345  0.3068  0.2154
13109SOL    HW150546   7.756   7.848   4.803 -1.1555  0.1928 -0.8498
13109SOL    HW250547   7.631   7.750   4.838  1.0849 -1.9020  1.4834
13110SOL     OW50548   9.785   4.219   6.078 -0.3003  0.6109  0.5169
13110SOL    HW150549   9.766   4.191   5.983  0.0821 -0.0165  0.6205
13110SOL    HW250550   9.857   4.161   6.116 -1.7234 -0.3484  1.7957
13111SOL     OW50551   8.426   3.953   6.028  0.2918  0.0708 -0.2491
13111SOL    HW150552   8.341   3.912   6.062  0.8132  0.4360  1.5419
13111SOL    HW250553   8.408   4.001   5.942 -1.4061  0.4998  0.3323
13112SOL     OW50554   4.439   0.645   0.442 -0.1410  0.4111  0.0230
13112SOL    HW150555   4.533   0.656   0.410 -0.2593  0.0895 -0.4401
13112SOL    HW250556   4.406   0.732   0.480  0.0544  0.7544 -0.5891
13113SOL     OW50557   9.097   9.722   6.578  0.1064  0.7232 -0.2793
13113SOL    HW150558   9.018   9.784   6.580 -0.6470 -0.2331 -0.2215
13113SOL    HW250559   9.135   9.714   6.671 -1.3904 -0.9142  0.2197
13114SOL     OW50560   9.202   2.544   4.329  0.1448  0.1103  0.1329
13114SOL    HW150561   9.156   2.599   4.398  0.0179 -0.7949  0.7828
13114SOL    HW250562   9.280   2.496   4.370  0.6939  0.3711 -0.5874
13115SOL     OW50563   4.731   7.427   4.370  0.1897 -0.1446  0.3330
13115SOL    HW150564   4.750   7.523   4.354 -1.4464 -0.1154 -1.6594
13115SOL    HW250565   4.645   7.419   4.421 -0.6469 -0.5770 -1.1162
13116SOL     OW50566   2.096   1.149   4.034  0.3940 -0.4990  0.3827
13116SOL    HW150567   2.088   1.212   4.112 -1.1965 -0.3708  0.1384
13116SOL    HW250568   2.107   1.202   3.950 -0.3328 -0.5658  0.2459
13117SOL     OW50569   3.465   9.265   5.769 -0.3655  0.3885 -0.0193
13117SOL    HW150570   3.536   9.202   5.740 -0.2062  0.6197 -0.1426
13117SOL    HW250571   3.507   9.343   5.816 -0.6005  0.1515  0.5932
13118SOL     OW50572   3.221   4.283   4.481  0.3564  0.2777  0.7162
13118SOL    HW150573   3.258   4.324   4.564  1.7573  2.6185 -0.9932
13118SOL    HW250574   3.297   4.259   4.419 -0.6576 -1.4782  0.1289
13119SOL     OW50575   1.406   2.741   1.885  0.2388  0.2949 -0.2707
13119SOL    HW150576   1.314   2.703   1.877 -0.1283  1.4449 -1.5926
13119SOL    HW250577   1.448   2.747   1.795  1.4018  0.3066  0.2624
13120SOL     OW50578   5.519   9.126   5.189 -0.0835  0.3379  0.1991
13120SOL    HW150579   5.567   9.146   5.275  0.1420  1.0350 -0.0856
13120SOL    HW250580   5.584   9.132   5.113 -0.4566  0.5222 -0.1042
13121SOL     OW50581   1.525   9.348   6.049 -0.0312  0.1170 -0.4090
13121SOL    HW150582   1.435   9.390   6.055  0.3323  0.9501 -0.7651
13121SOL    HW250583   1.519   9.264   5.994 -0.3935  0.6976 -1.2629
13122SOL     OW50584   7.743   2.368   0.766 -0.0335 -0.6059 -0.5447
13122SOL    HW150585   7.829   2.377   0.815 -1.3453 -1.1302  1.9178
13122SOL    HW250586   7.693   2.454   0.770 -0.0129 -0.5568 -1.2447
13123SOL     OW50587   8.582   2.737   0.656 -0.2590  0.4886  0.7247
13123SOL    HW150588   8.491   2.774   0.639  0.4807  2.6309  1.2773
13123SOL    HW250589   8.586   2.642   0.625 -2.1834  0.8840 -0.8056
13124SOL     OW50590   3.257   5.522   3.762  0.2029 -0.2389 -0.4558
13124SOL    HW150591   3.287   5.481   3.848  0.2204 -1.1302 -0.8811
13124SOL    HW250592   3.174   5.575   3.777  0.9519  0.7261  0.3744
13125SOL     OW50593   1.057   8.415   3.060 -0.0484 -0.1440 -0.0223
13125SOL    HW150594   1.020   8.411   2.967  0.4978 -0.2348 -0.2352
13125SOL    HW250595   1.153   8.443   3.057  0.0187 -0.3116  0.5004
13126SOL     OW50596   8.462   9.935   3.418 -0.1659  0.7325 -0.2609
13126SOL    HW150597   8.413  10.019   3.396 -1.2934  0.2492  0.3570
13126SOL    HW250598   8.407   9.856   3.389  1.6779  0.2148 -2.4984
13127SOL     OW50599   2.734   5.322   3.155  0.2481  0.0497 -0.4472
13127SOL    HW150600   2.747   5.412   3.115  3.0575 -0.4275 -0.7035
13127SOL    HW250601   2.681   5.265   3.091 -2.0911  1.6496 -0.0061
13128SOL     OW50602   5.565   9.153   1.815 -0.3272 -0.2176 -0.1759
13128SOL    HW150603   5.568   9.227   1.749 -3.3299 -0.4950 -0.7074
13128SOL    HW250604   5.607   9.071   1.776 -1.2439 -0.1126 -1.3881
13129SOL     OW50605   5.616   0.264   4.476  0.1991  0.2973 -0.4414
13129SOL    HW150606   5.689   0.284   4.411  0.5954 -0.7969 -0.3373
13129SOL    HW250607   5.537   0.225   4.429  0.6171 -0.8203 -0.2329
13130SOL     OW50608   2.933   4.337   1.471 -0.0975 -0.0493  0.6817
13130SOL    HW150609   3.016   4.281   1.470  1.3998  2.1261 -0.9652
13130SOL    HW250610   2.951   4.422   1.520 -2.2419 -0.7931  2.8426
13131SOL     OW50611   1.472   1.383   6.580 -0.6289  0.2500  0.2351
13131SOL    HW150612   1.385   1.335   6.590 -1.2406  1.3363  0.2013
13131SOL    HW250613   1.477   1.458   6.646  0.4323 -0.0086  0.4685
13132SOL     OW50614   6.341   9.232   5.108 -0.5417 -0.6622  0.3275
13132SOL    HW150615   6.417   9.291   5.136 -0.7098 -1.2660  2.1397
13132SOL    HW250616   6.296   9.196   5.190 -0.6149 -3.0656 -0.7479
13133SOL     OW50617   0.507   3.891   4.118 -0.5793  0.7622  0.0255
13133SOL    HW150618   0.480   3.951   4.043  0.5096  0.2520 -0.7822
13133SOL    HW250619   0.490   3.938   4.205  0.3320  2.2889 -0.5887
13134SOL     OW50620   4.949   2.433   4.761  0.3173  0.5122 -0.0633
13134SOL    HW150621   4.973   2.506   4.825  0.2148  0.7405 -0.2836
13134SOL    HW250622   5.033   2.388   4.730  0.3765  0.4884  0.1270
13135SOL     OW50623   5.612   0.583   2.977 -0.0004 -0.4015 -0.5089
13135SOL    HW150624   5.568   0.671   2.996 -1.0565 -0.8002 -1.0404
13135SOL    HW250625   5.543   0.510   2.979  0.9706 -1.3196  0.5949
13136SOL     OW50626   5.381   4.981   1.756 -0.2255 -0.3874 -0.5437
13136SOL    HW150627   5.385   4.961   1.658 -1.3240  1.3262 -0.9469
13136SOL    HW250628   5.297   4.943   1.795 -1.3485  1.6579 -0.9176
13137SOL     OW50629   9.810   3.178   2.921 -0.4139  0.4745 -0.5789
13137SOL    HW150630   9.827   3.169   2.822 -0.0372  1.4069 -0.5982
13137SOL    HW250631   9.874   3.243   2.960 -0.2111 -0.3038  0.3906
13138SOL     OW50632   9.512   9.138   1.112  0.1084  0.3836 -0.2289
13138SOL    HW150633   9.499   9.052   1.163  0.5042  0.9609  0.8650
13138SOL    HW250634   9.602   9.137   1.068 -0.5781 -0.4792 -1.6489
13139SOL     OW50635   8.588   1.133   4.911  0.1379  0.1925  0.4263
13139SOL    HW150636   8.542   1.059   4.862  0.4416  0.1840  0.1434
13139SOL    HW250637   8.521   1.197   4.947 -0.2086 -1.1129  2.1319
13140SOL     OW50638   2.533   6.883   2.067  0.2093  0.4814  0.6539
13140SOL    HW150639   2.505   6.969   2.109 -0.7232 -0.1644  1.3729
13140SOL    HW250640   2.496   6.807   2.120  0.4004 -0.3556 -0.4098
13141SOL     OW50641   3.242   5.319   0.569 -0.0987 -0.4797 -0.0781
13141SOL    HW150642   3.229   5.338   0.472 -0.9267 -1.9109 -0.2513
13141SOL    HW250643   3.309   5.245   0.581  0.0274 -0.2864  0.4476
13142SOL     OW50644   1.087   4.781   0.346 -0.4767  0.1225  0.4182
13142SOL    HW150645   1.174   4.829   0.358 -0.2636 -0.4489  1.2371
13142SOL    HW250646   1.011   4.845   0.352 -0.1091  0.6176 -0.2437
13143SOL     OW50647   3.468   9.542   2.061 -0.7542 -0.0026  0.0719
13143SOL    HW150648   3.564   9.547   2.034 -1.1163  1.0758 -1.0407
13143SOL    HW250649   3.462   9.520   2.159  0.6218  0.4852  0.2715
13144SOL     OW50650   2.521   0.523   4.384  0.4065  0.4955  0.0367
13144SOL    HW150651   2.603   0.481   4.422  0.6318  1.6284  0.8027
13144SOL    HW250652   2.469   0.453   4.333 -0.3624 -1.2768  3.1326
13145SOL     OW50653   8.026   6.011   6.684 -0.3717 -0.1973  0.3392
13145SOL    HW150654   7.955   6.043   6.747  0.0207  0.3445  0.5104
13145SOL    HW250655   8.107   6.069   6.692 -0.2686 -0.1989 -0.5650
13146SOL     OW50656   9.356   4.291   3.399 -0.0759  0.2259  0.9780
13146SOL    HW150657   9.263   4.309   3.368 -0.6580  1.2633  3.2069
13146SOL    HW250658   9.365   4.194   3.421 -0.9659  0.3141  1.7790
13147SOL     OW50659   4.291   8.557   3.207 -0.5442  0.0846 -0.0153
13147SOL    HW150660   4.341   8.501   3.273 -0.2788  0.3377 -0.0023
13147SOL    HW250661   4.213   8.505   3.172  0.2613 -0.6546 -0.7269
13148SOL     OW50662   6.302   8.262   2.115 -0.0302  0.1833  0.3597
13148SOL    HW150663   6.242   8.189   2.082 -0.1794 -0.6447  2.3754
13148SOL    HW250664   6.389   8.222   2.144  1.0429  1.2142 -1.3385
13149SOL     OW50665   3.675   3.144   5.560 -0.3361 -0.6393 -0.2025
13149SOL    HW150666   3.623   3.130   5.475 -1.6950  0.7330  0.3746
13149SOL    HW250667   3.628   3.099   5.635  0.5415 -1.3277 -0.0631
13150SOL     OW50668   4.534   2.570   1.100 -0.1770 -0.2593 -0.3878
13150SOL    HW150669   4.511   2.666   1.109 -0.2932 -0.4222  1.2619
13150SOL    HW250670   4.616   2.550   1.155 -0.6493 -1.2600 -0.0342
13151SOL     OW50671   1.057   8.089   2.954  0.1479  0.6072  0.0630
13151SOL    HW150672   1.014   7.999   2.962  2.5895 -0.5200  0.9600
13151SOL    HW250673   0.989   8.155   2.922 -1.0875 -2.0237 -3.0047
13152SOL     OW50674   3.050   7.749   2.814  0.2249 -0.1907  0.4419
13152SOL    HW150675   3.140   7.753   2.770  0.4180  0.5899  0.8886
13152SOL    HW250676   3.006   7.839   2.809  0.0730 -0.1984  1.4526
13153SOL     OW50677   7.058   0.636   1.691 -0.0875  0.1793 -0.1654
13153SOL    HW150678   7.074   0.537   1.681  1.2069  0.2443  1.0979
13153SOL    HW250679   7.048   0.658   1.788 -2.1227  1.0539 -0.5471
13154SOL     OW50680   3.693   4.475   5.182 -0.2914  0.6294 -0.0380
13154SOL    HW150681   3.736   4.403   5.236  1.1252  0.1533 -1.7893
13154SOL    HW250682   3.746   4.560   5.190 -0.5599  0.7944  0.0050
13155SOL     OW50683   8.359   4.517   4.200 -0.1860  0.6561  0.8527
13155SOL    HW150684   8.369   4.601   4.255  0.1192  0.7445  0.6616
13155SOL    HW250685   8.339   4.440   4.261  1.3538  0.5309  1.2055
13156SOL     OW50686   6.887   1.918   3.854  0.3810  0.2500  0.3161
13156SOL    HW150687   6.809   1.959   3.809  0.0871 -0.7584 -0.0972
13156SOL    HW250688   6.970   1.969   3.830  0.0853  0.3300 -0.5434
13157SOL     OW50689   8.382   1.748   0.189  0.0785 -0.6823  0.0125
13157SOL    HW150690   8.301   1.793   0.152 -1.1109 -0.2628  2.9242
13157SOL    HW250691   8.383   1.651   0.163 -0.8884 -0.4727 -0.7772
13158SOL     OW50692   1.726   3.200   5.725  0.3392  0.0965  0.2970
13158SOL    HW150693   1.710   3.221   5.629 -1.7390  0.2850  0.6482
13158SOL    HW250694   1.780   3.273   5.767  0.7344  0.3144 -0.5839
13159SOL     OW50695   2.199   1.104   0.246  0.5017  0.1971  0.6357
13159SOL    HW150696   2.216   1.062   0.157  1.1511  4.2818 -1.2810
13159SOL    HW250697   2.101   1.104   0.265  0.3161 -0.2625 -0.3211
13160SOL     OW50698   2.261   8.354   4.570 -0.3254  0.1128 -0.0100
13160SOL    HW150699   2.251   8.316   4.662 -0.2031  0.2183  0.0462
13160SOL    HW250700   2.201   8.433   4.560 -0.3540  0.0896 -0.0274
13161SOL     OW50701   3.741   5.153   0.051  0.3880  0.3800 -0.2821
13161SOL    HW150702   3.821   5.172   0.108 -0.0256  1.1945  0.0406
13161SOL    HW250703   3.749   5.204  -0.035  0.4254  0.1118 -0.4383
13162SOL     OW50704   0.227   1.844   2.755  0.7841  0.2552 -0.3311
13162SOL    HW150705   0.217   1.797   2.843  2.0252  0.5144 -0.0453
13162SOL    HW250706   0.283   1.789   2.693 -2.0388 -1.0423 -1.8153
13163SOL     OW50707   7.066   0.806   4.152  0.0874  0.4964 -0.0211
13163SOL    HW150708   7.100   0.893   4.188 -0.0100  0.2889  0.5791
13163SOL    HW250709   6.979   0.784   4.196  0.1218  0.0907 -0.1580
13164SOL     OW50710   2.287   2.847   2.999  0.2161 -0.0217  0.4696
13164SOL    HW150711   2.222   2.906   3.047  0.2688  1.8294 -1.6643
13164SOL    HW250712   2.328   2.782   3.064 -3.5294 -1.0728  1.9133
13165SOL     OW50713   5.280   0.639   5.425  0.2072  0.0465  0.0806
13165SOL    HW150714   5.313   0.586   5.347  2.2427  0.5680  0.5445
13165SOL    HW250715   5.248   0.728   5.393 -1.1695 -0.6206 -0.4320
13166SOL     OW50716   1.614   3.137   0.793  0.3345 -0.3762  0.0933
13166SOL    HW150717   1.606   3.235   0.776  2.1107 -0.5330 -1.8237
13166SOL    HW250718   1.640   3.122   0.888 -1.0879  0.9443  0.7129
13167SOL     OW50719   2.861   0.423   1.463  0.4239  0.1059 -0.6638
13167SOL    HW150720   2.935   0.379   1.513  0.4610  0.5042 -0.3660
13167SOL    HW250721   2.800   0.353   1.425  2.2037 -0.3278 -2.8461
13168SOL     OW50722   3.215   4.252   1.196 -0.3226  0.3189  0.0662
13168SOL    HW150723   3.217   4.337   1.250  0.3720  1.2315 -1.3665
13168SOL    HW250724   3.256   4.178   1.250  0.6252  1.2793  0.6948
13169SOL     OW50725   4.518   8.730   0.134  0.1630  0.8643  0.8465
13169SOL    HW150726   4.549   8.723   0.039 -3.3927 -0.2678 -0.2716
13169SOL    HW250727   4.557   8.655   0.188  0.5812  0.3761 -0.1345
13170SOL     OW50728   0.428   0.249   1.131 -0.0575 -0.3190 -0.6146
13170SOL    HW150729   0.372   0.262   1.212  0.2645  0.8044 -0.5600
13170SOL    HW250730   0.521   0.281   1.149  0.5921 -2.0688 -0.7353
13171SOL     OW50731   3.647   6.006   0.188 -0.2852 -0.0922  0.6145
13171SOL    HW150732   3.667   6.038   0.096  1.2414 -1.0225  0.6083
13171SOL    HW250733   3.642   6.084   0.251 -1.6298  0.5717 -0.2804
13172SOL     OW50734   2.348   7.496   6.311  0.9533 -0.1827  0.2867
13172SOL    HW150735   2.375   7.406   6.346 -0.4509 -0.5269  0.5345
13172SOL    HW250736   2.421   7.562   6.329  1.2406 -0.8759  1.7329
13173SOL     OW50737   9.593   3.520   4.843  0.1046  0.0485 -0.2035
13173SOL    HW150738   9.648   3.468   4.777  1.5922 -0.9712  1.7691
13173SOL    HW250739   9.605   3.618   4.826 -1.9416 -0.1582 -3.3295
13174SOL     OW50740   2.190   1.947   5.987 -0.2496  0.0310  0.0165
13174SOL    HW150741   2.235   2.028   6.025 -1.1028 -0.5511  2.3379
13174SOL    HW250742   2.219   1.866   6.037 -0.8145 -0.8850 -1.0974
13175SOL     OW50743   3.233   1.205   4.020  0.5085  0.1270  0.6646
13175SOL    HW150744   3.205   1.224   4.115  1.4226  0.6166  0.8405
13175SOL    HW250745   3.309   1.265   3.995  1.0216 -0.7939 -0.0039
13176SOL     OW50746   0.691   5.155   6.351 -0.1698 -0.5905  0.0156
13176SOL    HW150747   0.647   5.240   6.380  0.8635  0.6243 -1.8000
13176SOL    HW250748   0.629   5.105   6.290 -0.8429 -1.2246  1.2162
13177SOL     OW50749   4.879   8.553   1.751  0.6106  0.0251 -0.2158
13177SOL    HW150750   4.787   8.519   1.732  0.5447  0.4190 -0.6168
13177SOL    HW250751   4.932   8.482   1.796 -0.0976  0.0211  0.6335
13178SOL     OW50752   3.692   0.508   6.384  0.3205 -0.0831  0.2609
13178SOL    HW150753   3.692   0.596   6.433  2.2388 -0.3001  0.6810
13178SOL    HW250754   3.650   0.438   6.442 -2.2511  0.7619 -0.5137
13179SOL     OW50755   2.227   0.628   0.674 -0.1092 -0.3798 -0.1891
13179SOL    HW150756   2.205   0.550   0.615  2.0838 -1.2590  0.1102
13179SOL    HW250757   2.184   0.617   0.763 -2.9394  0.6512 -1.3934
13180SOL     OW50758   4.429   5.692   1.749  0.4048  0.0804 -0.3021
13180SOL    HW150759   4.414   5.755   1.825 -0.2747 -0.7084  0.2350
13180SOL    HW250760   4.509   5.636   1.768  0.6517  0.3674 -0.4958
13181SOL     OW50761   0.817   2.182   3.887  0.4236 -0.6180  0.0158
13181SOL    HW150762   0.795   2.267   3.839 -0.8321 -0.1692  1.3186
13181SOL    HW250763   0.738   2.155   3.943  1.8073 -1.1695  1.7278
13182SOL     OW50764   0.456   5.369   3.697 -0.4676  0.6120 -0.1983
13182SOL    HW150765   0.460   5.466   3.676  1.0307  0.2796 -1.5935
13182SOL    HW250766   0.407   5.321   3.625 -1.7758  0.4035  0.8134
13183SOL     OW50767   1.327   6.868   4.496 -0.1917 -0.1801 -0.3645
13183SOL    HW150768   1.352   6.836   4.588 -1.3787  0.5968  0.2544
13183SOL    HW250769   1.263   6.945   4.505  1.3244  1.2953 -1.8226
13184SOL     OW50770   6.050   1.109   3.201  0.2188  0.6553  0.1563
13184SOL    HW150771   6.109   1.179   3.162 -0.9329  0.5898 -1.7868
13184SOL    HW250772   5.987   1.075   3.130 -0.6896 -0.7956  1.6144
13185SOL     OW50773   4.980   0.201   5.041  0.4112 -0.1780  0.1082
13185SOL    HW150774   4.924   0.283   5.037  0.2803 -0.2798 -0.1121
13185SOL    HW250775   5.005   0.172   4.949  2.7337  1.1684  0.2851
13186SOL     OW50776   8.951   3.199   1.540 -0.5602 -0.8633 -0.3303
13186SOL    HW150777   8.971   3.161   1.450 -0.9406 -0.5672 -0.5356
13186SOL    HW250778   8.874   3.261   1.535  2.3651  2.9198 -0.7290
13187SOL     OW50779   4.131   1.071   5.331  0.3718 -0.4430 -0.5653
13187SOL    HW150780   4.131   1.085   5.430 -1.2638 -2.2331 -0.2925
13187SOL    HW250781   4.120   1.160   5.286  1.2681  0.4099  0.8404
13188SOL     OW50782   0.204   3.441   3.265  0.4518 -0.3794  0.4106
13188SOL    HW150783   0.208   3.380   3.186 -0.0899 -1.2736  1.0544
13188SOL    HW250784   0.153   3.524   3.242  0.0552 -0.7631 -0.0903
13189SOL     OW50785   0.819   6.186   1.556  0.7473  0.1829  0.5525
13189SOL    HW150786   0.863   6.098   1.571  0.3247 -0.0668  0.3343
13189SOL    HW250787   0.720   6.173   1.548  1.0163  0.1191 -3.6260
13190SOL     OW50788   8.824   5.234   6.098  0.1580  0.0393 -0.6457
13190SOL    HW150789   8.907   5.255   6.150 -0.9874  0.5980  1.0007
13190SOL    HW250790   8.754   5.197   6.159 -1.5075  1.4838 -1.6117
13191SOL     OW50791   2.209   9.359   4.451 -0.6239 -0.1616 -0.0394
13191SOL    HW150792   2.158   9.443   4.428 -1.5854 -0.7772 -0.1779
13191SOL    HW250793   2.145   9.285   4.467  0.2668 -1.2044 -1.2051
13192SOL     OW50794   2.200   3.583   2.957 -0.1051 -0.1568  0.1025
13192SOL    HW150795   2.109   3.602   2.996  0.2018  1.2613  0.1711
13192SOL    HW250796   2.194   3.584   2.858 -0.7718 -3.1813  0.0827
13193SOL     OW50797   2.994   8.697   5.301  0.6980 -0.0690 -0.2956
13193SOL    HW150798   3.068   8.692   5.234 -0.5040  0.0578 -1.6755
13193SOL    HW250799   3.016   8.765   5.371  2.1351 -0.4631 -0.3489
13194SOL     OW50800   8.168   7.147   5.818 -0.2991  0.2233  0.4264
13194SOL    HW150801   8.108   7.225   5.799 -1.7239 -0.5715  1.5763
13194SOL    HW250802   8.219   7.125   5.735 -2.6344  0.0444 -1.0373
13195SOL     OW50803   2.490   4.417   6.009  0.0961  0.1227 -0.2847
13195SOL    HW150804   2.393   4.438   6.018  0.3745  2.8242 -2.8174
13195SOL    HW250805   2.505   4.364   5.925  0.6574 -1.5495  0.8466
13196SOL     OW50806   1.626   0.713   3.880  0.0618 -0.1484  0.1596
13196SOL    HW150807   1.562   0.676   3.948 -0.3961  1.4225  0.6066
13196SOL    HW250808   1.704   0.753   3.927  0.1985  0.1140 -0.2908
13197SOL     OW50809   0.375   2.148   1.664 -0.6177 -0.4320 -0.3791
13197SOL    HW150810   0.311   2.208   1.711  0.4242  0.7577 -0.4489
13197SOL    HW250811   0.447   2.120   1.728  0.3877  0.5812 -1.0688
13198SOL     OW50812   6.526   0.565   2.490 -0.0713 -0.3249  0.1134
13198SOL    HW150813   6.555   0.613   2.407 -1.8113 -0.4760 -0.5891
13198SOL    HW250814   6.577   0.602   2.568  2.2038 -0.7755 -1.1054
13199SOL     OW50815   9.006   7.638   5.155 -0.1274  0.3337  0.1766
13199SOL    HW150816   8.955   7.555   5.130  1.2342 -0.5074  0.1514
13199SOL    HW250817   8.963   7.717   5.112  0.4954 -0.7462 -2.5722
13200SOL     OW50818   7.508   7.481   4.228  0.0437  0.3754  0.0619
13200SOL    HW150819   7.445   7.519   4.160  0.8944 -0.2965 -1.1261
13200SOL    HW250820   7.523   7.384   4.208 -0.9695 -0.2310  2.1898
13201SOL     OW50821   4.721   4.354   0.339  0.5267  0.0154  0.1654
13201SOL    HW150822   4.673   4.359   0.251  0.6821  1.6336  0.1499
13201SOL    HW250823   4.656   4.374   0.413  0.3754 -1.4382  0.4289
13202SOL     OW50824   7.579   1.190   3.820 -0.5232  0.0151  0.2622
13202SOL    HW150825   7.603   1.096   3.846 -1.0895 -0.5731 -1.2840
13202SOL    HW250826   7.548   1.240   3.901  0.6063 -0.8636  1.2627
13203SOL     OW50827   2.257   4.326   4.703  0.2353 -0.1792 -0.1210
13203SOL    HW150828   2.171   4.278   4.686  0.7114 -0.7108 -1.0719
13203SOL    HW250829   2.272   4.395   4.633  1.0192 -0.7012 -0.4755
13204SOL     OW50830   4.322   4.122   6.183 -0.3172  0.3903 -0.7450
13204SOL    HW150831   4.415   4.101   6.151  0.0791 -0.0991  0.7173
13204SOL    HW250832   4.327   4.164   6.273 -1.6305 -1.4746  0.2149
13205SOL     OW50833   1.217   3.628   3.102 -0.2214  0.0744 -0.3707
13205SOL    HW150834   1.161   3.699   3.146  0.1971  1.6016 -2.2062
13205SOL    HW250835   1.175   3.603   3.015  1.9419  1.3213 -1.8293
13206SOL     OW50836   5.093   1.094   6.391  0.0917  0.4777 -0.0037
13206SOL    HW150837   5.085   1.154   6.311 -1.9740 -0.1664 -0.3102
13206SOL    HW250838   5.118   1.149   6.471 -0.4616  1.5552 -0.5561
13207SOL     OW50839   1.734   4.505   4.173 -0.7233  0.0420  0.1568
13207SOL    HW150840   1.774   4.591   4.142 -1.4059  0.6415  0.9208
13207SOL    HW250841   1.744   4.498   4.273 -1.0788 -0.5416  0.1513
13208SOL     OW50842   5.104   9.444   5.088  0.2763  0.3287 -0.0852
13208SOL    HW150843   5.166   9.512   5.128  1.8445 -1.1421  0.0220
13208SOL    HW250844   5.033   9.491   5.037  2.2053  2.0445 -1.2862
13209SOL     OW50845   0.894   0.404   3.810 -0.5159  0.4915 -0.0879
13209SOL    HW150846   0.992   0.422   3.822 -0.0193 -2.2640  0.4792
13209SOL    HW250847   0.850   0.482   3.766  2.0739  1.4943 -0.9782
13210SOL     OW50848   9.441   1.928   4.804 -0.0370  0.0096  0.1913
13210SOL    HW150849   9.434   1.942   4.903  0.6502  1.5764  0.0354
13210SOL    HW250850   9.471   1.834   4.786  0.4836 -0.0925  1.4959
13211SOL     OW50851   1.545   6.604   4.571 -0.1102 -0.3320 -0.1062
13211SOL    HW150852   1.526   6.511   4.541  0.3518 -0.5003  0.1304
13211SOL    HW250853   1.637   6.630   4.544 -0.4595  0.2825 -0.7394
13212SOL     OW50854   1.936   5.752   0.424  0.3029  0.1259 -0.4321
13212SOL    HW150855   1.979   5.662   0.431  0.8707  0.3042 -1.5289
13212SOL    HW250856   1.870   5.763   0.498 -1.0756 -1.8970 -1.3232
13213SOL     OW50857   2.280   3.179   1.078  0.3171  0.2296 -0.6134
13213SOL    HW150858   2.252   3.262   1.030 -1.3036 -0.1842 -0.4270
13213SOL    HW250859   2.251   3.099   1.025 -0.6285 -0.2244  0.5886
13214SOL     OW50860   1.121   9.270   6.282 -0.0593  0.0185 -0.2483
13214SOL    HW150861   1.119   9.181   6.236 -0.8183 -0.2034  0.2006
13214SOL    HW250862   1.186   9.267   6.358 -1.4482 -0.7378  0.9210
13215SOL     OW50863   3.111   0.749   0.959  0.3194 -0.3177  0.6988
13215SOL    HW150864   3.016   0.764   0.932  1.0934  1.3018 -1.2290
13215SOL    HW250865   3.132   0.651   0.954 -1.0544 -0.6047  0.4760
13216SOL     OW50866   9.644   3.324   1.777 -0.2545 -0.4995  0.2667
13216SOL    HW150867   9.609   3.391   1.711  0.3230 -1.4995 -1.0807
13216SOL    HW250868   9.602   3.235   1.759  2.0696 -1.4640 -0.6488
13217SOL     OW50869   4.820   3.511   1.658 -0.5899  0.1445  0.0902
13217SOL    HW150870   4.791   3.550   1.745 -1.9450  0.4534 -0.4880
13217SOL    HW250871   4.838   3.413   1.670 -3.3624 -0.3960  0.1480
13218SOL     OW50872   8.855   0.025   1.181 -0.0421  0.2341 -0.4229
13218SOL    HW150873   8.867  -0.049   1.247  1.8118 -0.6905 -1.7863
13218SOL    HW250874   8.841   0.111   1.230  1.2428 -0.4569  1.1814
13219SOL     OW50875   2.323   9.237   4.221 -0.0058 -0.0344  0.3991
13219SOL    HW150876   2.279   9.252   4.309 -0.8442 -0.6431  0.0950
13219SOL    HW250877   2.300   9.311   4.158  1.4962  0.9862  1.0172
13220SOL     OW50878   2.192   5.736   0.250  0.3514  0.0489 -0.0302
13220SOL    HW150879   2.197   5.802   0.175 -0.8659  0.1693 -0.0083
13220SOL    HW250880   2.107   5.749   0.301  0.9747 -0.3075  1.1189
13221SOL     OW50881   8.936   2.417   1.238  0.0211  0.2562 -0.2174
13221SOL    HW150882   8.985   2.494   1.197  1.4049  0.1910  1.2593
13221SOL    HW250883   8.893   2.447   1.323 -0.0301 -0.4286 -0.0046
13222SOL     OW50884   1.826   6.615   4.152 -0.1012 -0.0859  0.2795
13222SOL    HW150885   1.763   6.613   4.073 -0.9408 -1.6061  0.9689
13222SOL    HW250886   1.885   6.535   4.149  0.1168  0.0492  1.0043
13223SOL     OW50887   3.598   7.258   3.795  0.5034  0.2701  0.2812
13223SOL    HW150888   3.543   7.320   3.738  1.0966  0.4542 -0.1024
13223SOL    HW250889   3.607   7.296   3.887  0.0903  0.2996  0.3071
13224SOL     OW50890   1.456   1.113   2.524 -0.6671  0.2825  0.3531
13224SOL    HW150891   1.489   1.098   2.431 -0.5975 -2.5728  0.8092
13224SOL    HW250892   1.511   1.184   2.568  2.3375 -1.5706 -0.2439
13225SOL     OW50893   9.288   8.172   3.630 -0.3897  0.1477  0.5569
13225SOL    HW150894   9.256   8.227   3.707 -0.2279  0.4513  0.4131
13225SOL    HW250895   9.382   8.199   3.608 -0.2750 -0.2617  0.5526
13226SOL     OW50896   9.237   8.243   0.453 -0.1453 -0.0762  0.3847
13226SOL    HW150897   9.142   8.220   0.469  0.4581 -1.9166  1.4207
13226SOL    HW250898   9.253   8.339   0.478 -1.4445 -0.1064  1.3633
13227SOL     OW50899   4.581   6.905   3.296 -0.1730  0.1750  0.4435
13227SOL    HW150900   4.610   6.922   3.391 -2.3671 -0.0027  1.1699
13227SOL    HW250901   4.507   6.838   3.296  0.2031 -0.2457 -1.4608
13228SOL     OW50902   3.678   0.075   1.253 -0.5810  0.0467 -0.4659
13228SOL    HW150903   3.681   0.071   1.353 -1.9304  0.2952 -0.4059
13228SOL    HW250904   3.718  -0.009   1.215  0.3867  0.1710  0.2656
13229SOL     OW50905   1.734   5.780   6.542  0.1535 -0.5126 -0.3564
13229SOL    HW150906   1.747   5.866   6.591 -0.8961 -0.8561  0.5381
13229SOL    HW250907   1.732   5.797   6.444 -0.7010  0.5623 -0.1569
13230SOL     OW50908   3.725   4.318   4.935  0.1665  0.2907  0.3334
13230SOL    HW150909   3.727   4.385   5.010  0.1069  0.3069  0.3205
13230SOL    HW250910   3.691   4.362   4.852 -2.8506 -0.5334  1.0695
13231SOL     OW50911   1.073   2.358   5.894  0.6885  0.1672 -0.4084
13231SOL    HW150912   0.991   2.307   5.919  0.5818  0.4973 -0.0849
13231SOL    HW250913   1.121   2.387   5.976  0.5262  0.9481 -0.5839
13232SOL     OW50914   1.717   3.693   5.970 -0.2387 -0.4036 -0.3812
13232SOL    HW150915   1.654   3.618   5.948 -2.3659  1.1296  0.2656
13232SOL    HW250916   1.771   3.669   6.050 -0.3572 -1.5486 -0.6369
13233SOL     OW50917   9.002   3.174   2.167  0.1395 -0.5656 -0.4016
13233SOL    HW150918   9.087   3.121   2.170 -0.2962 -1.2031  0.7351
13233SOL    HW250919   8.962   3.178   2.258 -1.5348 -1.0615 -1.1104
13234SOL     OW50920   4.177   2.688   3.590 -0.3513  0.7337 -0.6841
13234SOL    HW150921   4.245   2.650   3.528  0.7986 -0.6540  1.3554
13234SOL    HW250922   4.094   2.633   3.586  0.5531 -0.7680  0.6893
13235SOL     OW50923   4.060   1.970   0.717  0.2148  0.6356 -0.8005
13235SOL    HW150924   4.052   1.876   0.685 -2.5486  0.9984 -1.2455
13235SOL    HW250925   4.156   1.989   0.739  0.8057 -2.2630 -0.6831
13236SOL     OW50926   4.705   1.889   5.165 -0.2849  0.5579  0.2378
13236SOL    HW150927   4.705   1.906   5.263  0.4444 -0.1368  0.3603
13236SOL    HW250928   4.727   1.793   5.147 -2.2642  0.2201 -0.5288
13237SOL     OW50929   4.016   9.956   5.817  0.0828 -0.5265  0.3356
13237SOL    HW150930   3.980  10.017   5.747  0.3362 -0.8181 -0.0476
13237SOL    HW250931   3.941   9.926   5.876 -0.5686 -2.3333 -1.3715
13238SOL     OW50932   4.165   0.154   6.141 -0.6595  0.2127 -0.4881
13238SOL    HW150933   4.080   0.168   6.090 -0.8504  2.8341  0.4838
13238SOL    HW250934   4.207   0.242   6.163  1.2496 -0.9646  0.8478
13239SOL     OW50935   8.521   2.281   6.577  1.2704  0.1555 -0.2777
13239SOL    HW150936   8.593   2.260   6.644 -0.2523  0.6676  1.5501
13239SOL    HW250937   8.510   2.381   6.570  1.6390  0.1177 -1.5498
13240SOL     OW50938   3.634   6.216   6.433 -0.6988 -0.0741 -0.9064
13240SOL    HW150939   3.540   6.250   6.429 -0.9710 -0.6397  0.3417
13240SOL    HW250940   3.645   6.142   6.367 -0.8144  0.7288 -1.8358
13241SOL     OW50941   8.029   8.425   4.401 -0.0102  0.3059 -0.3424
13241SOL    HW150942   7.986   8.354   4.456 -0.7318  0.7186 -0.3577
13241SOL    HW250943   8.121   8.444   4.435 -0.4949  0.6364  0.7959
13242SOL     OW50944   6.195   9.632   1.647  0.8935  0.0591  0.8036
13242SOL    HW150945   6.180   9.721   1.605 -1.9358 -1.7691 -2.2644
13242SOL    HW250946   6.137   9.624   1.729 -3.5696 -1.0945 -2.2828
13243SOL     OW50947   0.810   4.461   5.034  0.0787 -0.2263 -0.0248
13243SOL    HW150948   0.800   4.366   5.006 -1.5827 -0.1352  0.2267
13243SOL    HW250949   0.895   4.472   5.085  0.1268 -1.6289  0.2060
13244SOL     OW50950   0.039   6.485   5.429 -0.2278 -0.0096 -0.1563
13244SOL    HW150951  -0.032   6.481   5.500 -0.6410 -0.1103 -0.5745
13244SOL    HW250952   0.098   6.405   5.437 -1.0445 -0.6696 -0.7344
13245SOL     OW50953   4.234   2.069   3.536 -0.2625  0.2948 -0.0694
13245SOL    HW150954   4.229   2.029   3.445 -0.9431  0.4735 -0.1157
13245SOL    HW250955   4.249   2.167   3.529 -0.2534  0.2992  0.0064
13246SOL     OW50956   5.975   1.037   0.767 -0.3449 -0.1261  0.3188
13246SOL    HW150957   5.994   1.020   0.670  0.7421  1.6770  0.1754
13246SOL    HW250958   6.006   0.960   0.821 -2.2315 -1.7671 -0.8817
13247SOL     OW50959   3.560   5.595   5.142  0.1242  0.2731  0.2342
13247SOL    HW150960   3.640   5.574   5.085 -0.4489 -0.7252 -0.2176
13247SOL    HW250961   3.524   5.685   5.116  1.7914  1.2508  1.2473
13248SOL     OW50962   1.225   2.364   0.186 -0.3995  0.6792  0.1316
13248SOL    HW150963   1.259   2.419   0.263 -0.2656  1.1430 -0.2568
13248SOL    HW250964   1.155   2.416   0.137 -0.3136  0.4780 -0.2038
13249SOL     OW50965   3.262   0.636   2.715 -0.0244  0.5309  0.4415
13249SOL    HW150966   3.360   0.645   2.698 -0.3020  0.2640 -1.3479
13249SOL    HW250967   3.227   0.720   2.756  1.0630  0.4025  1.6629
13250SOL     OW50968   1.350   4.222   0.880  0.1304 -0.6032  0.1141
13250SOL    HW150969   1.420   4.218   0.809 -1.3462  1.5802 -1.5139
13250SOL    HW250970   1.274   4.161   0.856 -0.6098  0.5374 -0.4537
13251SOL     OW50971   7.385   9.897   5.723  0.0735  0.6312 -0.0942
13251SOL    HW150972   7.351   9.988   5.699  0.8274  0.7428 -0.7713
13251SOL    HW250973   7.479   9.887   5.690  0.7637  0.3799  1.8346
13252SOL     OW50974   8.508   1.855   4.705 -0.3591  0.3793  0.0237
13252SOL    HW150975   8.556   1.935   4.671  0.5373 -0.4787 -0.7782
13252SOL    HW250976   8.476   1.800   4.628 -0.6228 -0.2253  0.5584
13253SOL     OW50977   5.274   0.927   6.073 -0.0268 -0.0015 -0.6213
13253SOL    HW150978   5.317   0.853   6.020  1.8951 -0.1839  1.1268
13253SOL    HW250979   5.210   0.888   6.139 -0.2440  0.0101 -0.8255
13254SOL     OW50980   9.092   7.379   5.664  0.5738 -0.5412  0.4215
13254SOL    HW150981   9.121   7.466   5.704  0.5593 -0.0132 -0.6927
13254SOL    HW250982   9.077   7.391   5.565  1.8428 -2.1210  0.0241
13255SOL     OW50983   1.109   9.127   4.849 -0.5372 -0.5751  0.1403
13255SOL    HW150984   1.199   9.097   4.880 -0.3596  0.0559  0.2530
13255SOL    HW250985   1.110   9.140   4.750 -0.0191  1.0349  0.3431
13256SOL     OW50986   2.326   8.125   0.775  0.6839  0.1178  0.1710
13256SOL    HW150987   2.299   8.139   0.680  0.5560  1.2577  0.3652
13256SOL    HW250988   2.261   8.171   0.835  0.5219 -0.9571  0.8356
13257SOL     OW50989   9.522   3.294   0.722 -0.4168 -0.0907  0.1315
13257SOL    HW150990   9.598   3.330   0.668 -1.9124  1.3024 -1.0896
13257SOL    HW250991   9.507   3.353   0.802 -0.7965  0.1482 -0.1167
13258SOL     OW50992   9.021   8.575   3.757 -0.0404 -0.3113 -0.4721
13258SOL    HW150993   8.940   8.517   3.757 -0.1035 -0.2304 -1.4166
13258SOL    HW250994   9.025   8.627   3.842 -1.9068  0.9938 -1.1584
13259SOL     OW50995   7.317   5.001   0.179  0.3509 -0.7139 -0.3479
13259SOL    HW150996   7.395   5.059   0.154  0.0132  0.1552  0.5846
13259SOL    HW250997   7.346   4.934   0.248  0.8213 -1.8801 -1.6638
13260SOL     OW50998   7.864   8.157   5.197 -0.0504 -0.0502 -0.2960
13260SOL    HW150999   7.766   8.150   5.182 -0.2274  0.2738  0.6419
13260SOL    HW251000   7.913   8.113   5.123 -0.9345 -1.3266 -0.1280
13261SOL     OW51001   0.489   8.219   0.818 -0.3061 -0.6821  0.4392
13261SOL    HW151002   0.535   8.295   0.772  1.1667 -0.2165  2.5951
13261SOL    HW251003   0.465   8.149   0.751 -0.9283  1.3000 -1.4614
13262SOL     OW51004   5.645   4.930   1.192  0.2458  0.1115  0.0172
13262SOL    HW151005   5.604   4.849   1.150  0.0431  0.4959 -0.5355
13262SOL    HW251006   5.744   4.923   1.189  0.2486  0.6328 -1.5207
13263SOL     OW51007   4.821   2.549   4.203  0.1464  0.2397 -0.1465
13263SOL    HW151008   4.834   2.639   4.163 -0.4038  0.2468 -0.3219
13263SOL    HW251009   4.903   2.522   4.253  0.2193  0.9461  0.1245
13264SOL     OW51010   4.282   8.712   6.297 -0.3094  0.2905 -0.3956
13264SOL    HW151011   4.329   8.798   6.278  0.0240  0.1610 -0.1620
13264SOL    HW251012   4.186   8.719   6.269 -0.7550  1.3803  1.3030
13265SOL     OW51013   9.961   2.288   0.598 -0.5179 -0.9873  0.2494
13265SOL    HW151014   9.878   2.245   0.563 -0.0915 -0.1049 -1.9348
13265SOL    HW251015   9.955   2.387   0.585  0.4463 -0.8230  1.0249
13266SOL     OW51016   0.066   0.448   0.975  0.1677  0.6358 -0.6669
13266SOL    HW151017   0.028   0.361   1.006  1.9367  0.0482 -0.0919
13266SOL    HW251018   0.140   0.431   0.911  1.7288  1.6422  0.8160
13267SOL     OW51019   6.977   0.527   4.749 -0.1164  0.4481  0.3255
13267SOL    HW151020   6.882   0.501   4.765 -0.1781 -0.2555 -1.0945
13267SOL    HW251021   6.984   0.626   4.745 -0.9926  0.4846 -0.6871
13268SOL     OW51022   0.300   8.877   6.667  0.1459  0.7421 -0.0485
13268SOL    HW151023   0.374   8.858   6.602 -0.5358  1.0408 -0.9220
13268SOL    HW251024   0.325   8.956   6.724 -0.3901  2.1903 -1.7737
13269SOL     OW51025   8.669   0.211   3.486 -0.0940 -0.2626  0.1485
13269SOL    HW151026   8.724   0.232   3.405 -0.3969 -0.3187 -0.0680
13269SOL    HW251027   8.657   0.112   3.493 -3.1960 -0.0696 -1.7809
13270SOL     OW51028   3.609   1.496   5.087 -0.2112 -0.3835  0.0211
13270SOL    HW151029   3.514   1.473   5.106  0.2646 -1.7810  0.7592
13270SOL    HW251030   3.669   1.451   5.153  1.0630 -0.5739 -1.2192
13271SOL     OW51031   0.356   8.465   0.097  0.4502 -0.3066  0.1064
13271SOL    HW151032   0.424   8.419   0.153 -0.2122 -0.4409  0.8084
13271SOL    HW251033   0.308   8.397   0.041  1.2004 -0.1581 -0.7294
13272SOL     OW51034   4.276   9.428   1.295 -0.3330 -0.1078  0.3675
13272SOL    HW151035   4.283   9.486   1.376 -0.4264  1.8137 -0.9896
13272SOL    HW251036   4.257   9.484   1.215  1.2896 -1.8265 -1.2573
13273SOL     OW51037   8.028   9.020   2.228  0.0041 -0.6193  0.1087
13273SOL    HW151038   7.966   8.970   2.167  0.5169 -0.8512 -0.2267
13273SOL    HW251039   8.120   8.984   2.218  0.3197  0.1866  0.1021
13274SOL     OW51040   3.665   9.303   4.346 -0.1244 -0.3692 -0.2395
13274SOL    HW151041   3.632   9.254   4.265  0.3947  2.6025 -2.3628
13274SOL    HW251042   3.765   9.299   4.348 -0.2175 -2.7052  1.8129
13275SOL     OW51043   2.063   6.841   0.548  0.0030  0.3525 -0.4659
13275SOL    HW151044   1.964   6.850   0.543  0.2089  2.6540 -1.0711
13275SOL    HW251045   2.092   6.847   0.644 -0.3981  0.2981 -0.3416
13276SOL     OW51046   7.323   0.494   3.614  0.0882 -0.2505  0.3396
13276SOL    HW151047   7.257   0.521   3.684  0.7179 -0.8182  1.1679
13276SOL    HW251048   7.408   0.465   3.658  0.5316 -0.5196 -0.6710
13277SOL     OW51049   1.397   8.183   1.409 -0.4911  0.6657  0.4439
13277SOL    HW151050   1.384   8.267   1.462 -0.9144  0.3269  0.8795
13277SOL    HW251051   1.448   8.204   1.326 -2.2125  1.7067 -0.3933
13278SOL     OW51052   6.511   0.238   0.992  0.3916  0.3670  0.5050
13278SOL    HW151053   6.525   0.311   0.924  0.3615 -1.6300 -1.6951
13278SOL    HW251054   6.451   0.272   1.064 -0.3538  2.2529 -0.9434
13279SOL     OW51055   6.854   1.886   0.615  0.3436 -0.1980 -0.2129
13279SOL    HW151056   6.770   1.869   0.564  0.8346  0.0872 -1.1254
13279SOL    HW251057   6.841   1.965   0.676 -0.9805 -1.9328  1.8446
13280SOL     OW51058   1.328   0.759   6.250  0.3748  0.0615 -0.1204
13280SOL    HW151059   1.413   0.811   6.259  0.5959 -0.4163  0.4940
13280SOL    HW251060   1.322   0.691   6.322 -0.6366  0.2394 -0.0309
13281SOL     OW51061   8.755   0.339   6.389  0.5060  0.0717  0.3029
13281SOL    HW151062   8.818   0.359   6.464 -0.0819 -0.5270  0.9726
13281SOL    HW251063   8.745   0.420   6.331  1.7508  0.2183  0.2877
13282SOL     OW51064   4.581   4.790   1.627  0.6335  0.3610 -0.4274
13282SOL    HW151065   4.529   4.706   1.612  0.4214  0.5227 -0.6142
13282SOL    HW251066   4.519   4.868   1.623  0.4130  0.3675  2.1850
13283SOL     OW51067   2.639   9.111   3.702  0.4227  0.1400 -0.0705
13283SOL    HW151068   2.585   9.186   3.740 -1.0126 -0.4309 -0.9638
13283SOL    HW251069   2.669   9.135   3.609  0.0492 -0.3606 -0.3177
13284SOL     OW51070   8.204   6.444   4.421  0.2397 -0.1540  0.5753
13284SOL    HW151071   8.197   6.345   4.437  0.1770 -0.5147 -1.4821
13284SOL    HW251072   8.300   6.470   4.413  0.1927 -0.5083 -1.3849
13285SOL     OW51073   3.283   2.054   5.859 -0.0807  0.3330  0.2126
13285SOL    HW151074   3.326   1.976   5.814  0.0664  0.7409 -0.3644
13285SOL    HW251075   3.243   2.025   5.946 -0.2571 -0.4402 -0.1213
13286SOL     OW51076   5.074   1.930   4.407  0.3692 -0.1280 -0.2878
13286SOL    HW151077   5.082   2.004   4.339  2.3239  0.7925  0.8934
13286SOL    HW251078   5.041   1.968   4.493 -0.0040 -0.9034 -0.0879
13287SOL     OW51079   1.487   8.731   1.044  0.1362 -0.0685  0.3183
13287SOL    HW151080   1.550   8.681   1.104  0.2771  0.5804  0.7145
13287SOL    HW251081   1.525   8.736   0.952  1.0681  1.0598  0.7532
13288SOL     OW51082   0.192   1.638   4.899 -0.1510 -0.2656 -0.1674
13288SOL    HW151083   0.116   1.672   4.844  0.3272 -1.6304 -1.6709
13288SOL    HW251084   0.220   1.709   4.964 -0.8651  1.2699 -1.5140
13289SOL     OW51085   5.085   0.837   5.319  0.0844 -0.1378  0.0981
13289SOL    HW151086   5.017   0.776   5.279  0.4678 -1.5436  1.5478
13289SOL    HW251087   5.045   0.885   5.398  0.4258 -0.1048  0.2531
13290SOL     OW51088   6.205   8.793   3.322 -0.1180 -0.0095 -0.1208
13290SOL    HW151089   6.147   8.720   3.358 -0.0648  0.5538  1.1312
13290SOL    HW251090   6.295   8.755   3.297  0.2391 -0.2045  1.4166
13291SOL     OW51091   2.125   6.675   5.080  0.1468  0.3680  0.2093
13291SOL    HW151092   2.034   6.666   5.121  0.9530  0.7557  2.1612
13291SOL    HW251093   2.185   6.604   5.117  0.8107  0.5409 -0.5419
13292SOL     OW51094   2.908   8.866   3.598 -1.1049  0.4698 -0.0001
13292SOL    HW151095   2.811   8.843   3.596 -1.1531  0.5415  1.2191
13292SOL    HW251096   2.922   8.949   3.651 -0.1106 -0.9980  2.1115
13293SOL     OW51097   9.785   6.387   0.873 -0.5252 -0.2810  0.2377
13293SOL    HW151098   9.859   6.379   0.807  0.1536  0.7982  0.8517
13293SOL    HW251099   9.750   6.481   0.872 -1.6117 -0.6818  0.2426
13294SOL     OW51100   7.731   3.448   1.522 -0.0933 -0.0577 -0.3453
13294SOL    HW151101   7.714   3.481   1.429  1.0625 -1.9985 -1.2803
13294SOL    HW251102   7.830   3.443   1.538 -0.2827  0.9313  1.2446
13295SOL     OW51103   5.396   8.160   1.591  0.5115 -0.3955  0.2758
13295SOL    HW151104   5.407   8.235   1.657  0.0413  0.1915 -0.3038
13295SOL    HW251105   5.462   8.088   1.611  2.1125  0.9159 -0.1970
13296SOL     OW51106   1.995   2.475   1.407  0.2848  0.5283 -0.8461
13296SOL    HW151107   2.042   2.432   1.484 -2.2232  0.6595  0.7987
13296SOL    HW251108   2.037   2.444   1.322  1.2375 -1.9213  0.4611
13297SOL     OW51109   3.498   9.624   3.716  0.0482  0.2726  0.2139
13297SOL    HW151110   3.545   9.613   3.803 -1.8732  0.3644  1.2967
13297SOL    HW251111   3.564   9.620   3.641  1.7423  0.3784  1.6777
13298SOL     OW51112   0.512   4.530   4.844 -0.4180  0.4586  0.3997
13298SOL    HW151113   0.444   4.505   4.913  2.2269 -2.6716  1.9892
13298SOL    HW251114   0.572   4.601   4.880 -0.5920  0.6533  0.3135
13299SOL     OW51115   0.925   3.862   6.183  0.1985 -0.2266 -0.9362
13299SOL    HW151116   0.987   3.788   6.158 -0.3198 -0.5600 -1.2397
13299SOL    HW251117   0.935   3.882   6.281  1.3824  0.2932 -1.1494
13300SOL     OW51118   1.437   3.711   2.020  0.3871  0.0040 -0.6589
13300SOL    HW151119   1.525   3.757   2.022 -0.0097  0.7283  0.5877
13300SOL    HW251120   1.430   3.655   1.937  1.7343  0.4770 -1.0952
13301SOL     OW51121   9.993   8.502   5.815  0.2938 -0.1651  0.1661
13301SOL    HW151122  10.019   8.540   5.726 -0.1027 -1.7067 -0.6312
13301SOL    HW251123  10.073   8.503   5.876  1.1851 -1.1409 -0.9418
13302SOL     OW51124   7.981   3.798   2.133 -0.1917  0.3491  0.2113
13302SOL    HW151125   7.918   3.720   2.140  0.9926 -0.6573 -0.2305
13302SOL    HW251126   7.951   3.858   2.059 -0.8317  0.0731  0.2389
13303SOL     OW51127   9.565   0.774   3.048 -0.3502  0.2632  0.7623
13303SOL    HW151128   9.499   0.827   2.994  1.0783  1.3295  0.0173
13303SOL    HW251129   9.532   0.680   3.059 -0.3885 -0.1692 -2.5670
13304SOL     OW51130   4.093   7.112   1.216 -0.0220  0.1048 -0.1813
13304SOL    HW151131   4.012   7.110   1.157  0.4675 -1.4786 -0.8247
13304SOL    HW251132   4.128   7.205   1.221 -0.8155  0.4800 -1.3942
13305SOL     OW51133   8.822   0.931   3.828  0.7044 -0.0763  0.2170
13305SOL    HW151134   8.860   0.891   3.745  0.0480  0.4946 -0.3633
13305SOL    HW251135   8.863   1.021   3.844  0.3125  0.1191  0.1227
13306SOL     OW51136   1.031   1.334   0.329 -0.3455 -0.2530  0.2575
13306SOL    HW151137   1.028   1.246   0.281 -0.0826 -0.2821  0.2920
13306SOL    HW251138   0.975   1.328   0.411 -2.0019  0.2729 -0.8184
13307SOL     OW51139   2.194   4.752   6.364 -0.2399  0.0767  0.3402
13307SOL    HW151140   2.217   4.656   6.349 -1.1713 -0.1204  0.1697
13307SOL    HW251141   2.215   4.777   6.458 -0.1816 -0.3438  0.4380
13308SOL     OW51142   8.997   3.154   5.679  0.8506  0.2045 -0.6290
13308SOL    HW151143   9.026   3.250   5.680  0.5296  0.2900  0.4911
13308SOL    HW251144   8.928   3.141   5.608  1.8589  0.5080 -1.6989
13309SOL     OW51145   8.636   0.735   4.858  0.1716 -0.5894  0.6467
13309SOL    HW151146   8.626   0.650   4.805 -0.6370 -0.7397  1.0278
13309SOL    HW251147   8.679   0.714   4.945 -1.7346 -0.9396  1.5407
13310SOL     OW51148   2.771   7.188   1.332  0.1133 -0.2390  0.7565
13310SOL    HW151149   2.772   7.282   1.296  0.6698 -0.1856  0.9067
13310SOL    HW251150   2.733   7.127   1.262 -0.1955  0.0911  0.6350
13311SOL     OW51151   9.708   9.951   6.083  0.6499 -0.6107 -0.0723
13311SOL    HW151152   9.799   9.990   6.093  0.4813  0.5448 -2.6393
13311SOL    HW251153   9.646  10.021   6.046 -1.2736 -1.4078  1.5260
13312SOL     OW51154   2.965   1.185   5.280  0.3103  0.1234  0.3306
13312SOL    HW151155   2.992   1.096   5.315  2.0318  0.1356 -0.8636
13312SOL    HW251156   3.031   1.254   5.310  2.2482  0.0269 -3.2999
13313SOL     OW51157   0.591   6.754   2.895  0.1210 -1.1214 -0.1262
13313SOL    HW151158   0.543   6.725   2.812 -1.0197 -1.8736  0.7824
13313SOL    HW251159   0.523   6.776   2.965  1.0286  1.0979  0.0870
13314SOL     OW51160   1.819   0.667   5.021 -0.6565  0.4214  0.0538
13314SOL    HW151161   1.796   0.590   5.081  0.2849 -0.5105 -0.7786
13314SOL    HW251162   1.734   0.711   4.991 -1.2600 -1.0378 -0.4303
13315SOL     OW51163   4.685   9.887   1.448  0.0040 -0.6190  0.2959
13315SOL    HW151164   4.589   9.904   1.473  0.1337 -0.2258  0.5240
13315SOL    HW251165   4.687   9.837   1.361 -0.3939  0.5043 -0.3877
13316SOL     OW51166   2.619   8.570   5.144  0.2844  0.3910  0.0243
13316SOL    HW151167   2.665   8.625   5.213  0.0697  0.5729  0.0236
13316SOL    HW251168   2.679   8.495   5.115  0.6975  0.8080 -0.2047
13317SOL     OW51169   3.213   9.391   5.630  0.2478 -0.0725  0.1984
13317SOL    HW151170   3.162   9.401   5.545  1.3001  2.5246 -0.1846
13317SOL    HW251171   3.309   9.372   5.609  0.6101  1.0564  0.7773
13318SOL     OW51172   8.765   6.840   6.409  0.0769  0.1375 -0.5568
13318SOL    HW151173   8.828   6.832   6.486  1.5605 -1.0775 -1.8575
13318SOL    HW251174   8.732   6.934   6.402  0.2763  0.3660  1.2618
13319SOL     OW51175   8.417   7.711   5.251  0.4237  0.4002  0.3577
13319SOL    HW151176   8.475   7.724   5.332 -1.2724  1.2820  1.4799
13319SOL    HW251177   8.393   7.800   5.213  0.7832 -0.0001 -0.8242
13320SOL     OW51178   8.958   6.913   6.627  0.0028 -0.0789 -0.4541
13320SOL    HW151179   8.893   6.964   6.684  0.7553 -1.0372  1.3135
13320SOL    HW251180   9.028   6.976   6.592 -0.4376  0.5189 -0.2642
13321SOL     OW51181   4.205   4.808   5.436 -0.7181  0.1145 -0.4265
13321SOL    HW151182   4.134   4.757   5.387 -1.9469  1.4548 -0.0784
13321SOL    HW251183   4.219   4.897   5.392  0.4228  0.0511 -0.2107
13322SOL     OW51184   4.829   8.016   3.758  0.3503  0.1071 -0.2610
13322SOL    HW151185   4.732   8.017   3.782  0.7132  0.6764  1.2024
13322SOL    HW251186   4.839   8.018   3.658 -1.1445 -0.5844 -0.4359
13323SOL     OW51187   0.525   3.039   1.628  0.2239  0.2659  0.3687
13323SOL    HW151188   0.426   3.039   1.611  0.7596 -1.5634 -3.4355
13323SOL    HW251189   0.561   3.131   1.614 -0.5697  0.3648 -1.1927
13324SOL     OW51190   4.121   4.312   3.952 -0.0869  0.6563 -0.0632
13324SOL    HW151191   4.196   4.327   4.017 -0.8568 -1.3272  1.3337
13324SOL    HW251192   4.034   4.331   3.998 -0.5514  0.9267 -1.0579
13325SOL     OW51193   8.166   1.220   6.418 -0.5208  0.1123 -0.1499
13325SOL    HW151194   8.175   1.127   6.384 -0.7530 -0.1083  0.3918
13325SOL    HW251195   8.073   1.254   6.400 -1.0184 -0.4382  1.3435
13326SOL     OW51196   9.847   3.191   0.697 -0.4233  0.3130 -0.2989
13326SOL    HW151197   9.878   3.222   0.787  0.3068 -0.0708 -0.4077
13326SOL    HW251198   9.926   3.186   0.635 -0.9938  0.9766 -1.0742
13327SOL     OW51199   1.562   3.352   1.842  0.8746 -0.1099 -0.1458
13327SOL    HW151200   1.470   3.386   1.862  1.2318  0.4665  0.5781
13327SOL    HW251201   1.602   3.315   1.926  1.5912  0.3567 -0.2757
13328SOL     OW51202   2.423   0.098   0.425 -0.0101 -0.6632  0.1327
13328SOL    HW151203   2.376   0.116   0.339  0.5669 -0.2807 -0.1001
13328SOL    HW251204   2.401   0.005   0.455  0.2877 -1.0263 -0.7490
13329SOL     OW51205   9.682   2.474   0.794  0.7521 -0.2043  0.1860
13329SOL    HW151206   9.647   2.381   0.779 -1.0412  0.3525  0.7778
13329SOL    HW251207   9.720   2.509   0.708 -2.6068  0.1368 -1.2485
13330SOL     OW51208   8.908   2.923   1.597  0.0210 -0.6545  0.0780
13330SOL    HW151209   8.946   3.015   1.589 -2.0516  0.2427  0.0212
13330SOL    HW251210   8.918   2.891   1.691 -2.9195  1.3603  1.1435
13331SOL     OW51211   0.895   3.727   2.197 -1.0441  0.4446 -0.4221
13331SOL    HW151212   0.978   3.693   2.153 -0.5841 -1.3579  1.7277
13331SOL    HW251213   0.889   3.826   2.185 -0.0509  0.2429 -2.9682
13332SOL     OW51214   7.239   9.233   4.677  0.1796  0.2571  0.0607
13332SOL    HW151215   7.286   9.320   4.665 -0.9041  0.8571  0.1631
13332SOL    HW251216   7.307   9.159   4.679  1.0950  1.0840 -0.0690
13333SOL     OW51217   1.828   1.570   0.303 -0.0227  0.1036  0.5782
13333SOL    HW151218   1.909   1.540   0.253  0.6559  1.1073  1.0588
13333SOL    HW251219   1.849   1.575   0.401 -0.4889  0.9117  0.6404
13334SOL     OW51220   5.543   7.576   3.935  0.3799  0.1034  0.1165
13334SOL    HW151221   5.591   7.646   3.881 -0.6523  0.7388  0.0044
13334SOL    HW251222   5.593   7.560   4.020  1.1572  0.2626 -0.3052
13335SOL     OW51223   9.753   0.976   1.802  0.3629 -0.0595 -0.0266
13335SOL    HW151224   9.814   0.914   1.851 -0.6668 -1.7340 -0.7990
13335SOL    HW251225   9.789   0.993   1.710  0.8483  0.7960  0.3258
13336SOL     OW51226   3.373   1.811   0.764 -0.3674  0.4733  0.4011
13336SOL    HW151227   3.412   1.743   0.826 -0.8104 -0.4609 -0.3374
13336SOL    HW251228   3.433   1.823   0.685  0.3317  1.8596  1.1169
13337SOL     OW51229   3.799   5.015   1.980 -0.1775 -0.1574 -0.5067
13337SOL    HW151230   3.898   4.996   1.975 -0.3629 -1.1329 -0.5728
13337SOL    HW251231   3.773   5.027   2.076  0.2948  1.7410 -0.5941
13338SOL     OW51232   2.674   4.289   0.125  0.0908  0.4695 -0.2178
13338SOL    HW151233   2.651   4.315   0.219  1.6152  0.4893  0.1556
13338SOL    HW251234   2.594   4.248   0.082 -1.0397  1.7353  0.6291
13339SOL     OW51235   2.401   4.509   0.115  0.0117 -0.7498  0.8542
13339SOL    HW151236   2.359   4.526   0.204  0.1726 -2.0029  1.1689
13339SOL    HW251237   2.497   4.537   0.118 -0.5671  1.3797  0.3678
13340SOL     OW51238   8.557   8.330   6.676 -0.3960  0.2271 -0.7504
13340SOL    HW151239   8.496   8.268   6.726  1.0116 -0.8474 -0.3251
13340SOL    HW251240   8.623   8.370   6.740  0.2322  0.2781 -1.4284
13341SOL     OW51241   9.406   7.037   3.802  0.5468 -0.4984  0.1637
13341SOL    HW151242   9.317   7.057   3.760  0.1163 -2.9737 -0.1732
13341SOL    HW251243   9.474   7.023   3.730  0.3783 -2.1987  0.3146
13342SOL     OW51244   5.524   0.945   3.683 -0.6064  0.3861 -0.3078
13342SOL    HW151245   5.485   0.983   3.767 -1.8355  0.6146 -0.9684
13342SOL    HW251246   5.519   1.013   3.610  2.6564  1.0519  0.0200
13343SOL     OW51247   2.548   9.147   4.315 -0.0240 -0.5449  0.3291
13343SOL    HW151248   2.460   9.162   4.271 -0.3411  1.4834  1.5929
13343SOL    HW251249   2.547   9.059   4.362 -1.5166 -0.3819  0.6368
13344SOL     OW51250   2.146   4.733   2.447 -0.2546 -0.1777  0.0061
13344SOL    HW151251   2.058   4.732   2.494  0.1597 -0.5784  0.7713
13344SOL    HW251252   2.174   4.639   2.426 -0.0549 -0.0464 -0.3208
13345SOL     OW51253   0.013   4.232   3.524 -0.1786  0.3674 -0.2254
13345SOL    HW151254   0.103   4.211   3.485 -0.6686 -1.7718 -0.3041
13345SOL    HW251255   0.011   4.205   3.620 -1.2726 -1.2598 -0.6836
13346SOL     OW51256   4.358   9.769   0.877  0.3144 -0.6747  0.2338
13346SOL    HW151257   4.344   9.854   0.827  0.4265 -1.0360 -0.4242
13346SOL    HW251258   4.456   9.755   0.892  0.2679 -0.4587  0.7512
13347SOL     OW51259   1.671   8.469   1.451 -0.2186  0.4647 -0.2052
13347SOL    HW151260   1.623   8.509   1.529 -0.4217 -0.1881  0.0071
13347SOL    HW251261   1.713   8.541   1.397  0.6382  0.8597  0.9789
13348SOL     OW51262   1.170   1.568   4.781 -0.2751 -0.0026 -0.1388
13348SOL    HW151263   1.099   1.607   4.841 -1.5939 -0.3623 -1.4203
13348SOL    HW251264   1.244   1.532   4.836 -0.6018  1.3260  1.2059
13349SOL     OW51265   3.816   9.799   5.313 -0.9086  0.3477 -0.3065
13349SOL    HW151266   3.801   9.829   5.407 -0.2689  0.7032 -0.3181
13349SOL    HW251267   3.773   9.710   5.299 -1.0052  0.2970  0.3191
13350SOL     OW51268   2.824   5.964   0.241  0.0737  0.4163  0.0284
13350SOL    HW151269   2.868   5.877   0.222  0.2293  0.5494 -0.2309
13350SOL    HW251270   2.871   6.037   0.190  1.2215  0.9400  1.8070
13351SOL     OW51271   9.039   1.324   5.109  0.1994 -0.2850  0.4921
13351SOL    HW151272   8.979   1.386   5.057 -0.0194 -1.2706 -0.4397
13351SOL    HW251273   8.986   1.246   5.142  0.5511 -0.1533  1.3739
13352SOL     OW51274   6.609   1.849   2.940 -0.3613 -0.2106 -0.0130
13352SOL    HW151275   6.642   1.867   3.033 -1.5601 -1.2406  0.6170
13352SOL    HW251276   6.527   1.904   2.923  0.0034  0.1687 -0.5549
13353SOL     OW51277   9.789   0.654   2.228  0.4072 -0.0841  0.5287
13353SOL    HW151278   9.766   0.743   2.266  1.5319  0.1450  0.7019
13353SOL    HW251279   9.733   0.637   2.147 -1.3940 -0.2055  1.7730
13354SOL     OW51280   0.895   4.856   6.495  0.2879 -0.4609  0.1846
13354SOL    HW151281   0.799   4.854   6.524  0.5270 -0.0879  1.0383
13354SOL    HW251282   0.922   4.766   6.464  0.3669 -1.2360  2.3848
13355SOL     OW51283   8.612   2.311   4.655  0.4489  0.3988  0.4815
13355SOL    HW151284   8.639   2.364   4.735  1.6603  0.0180  0.3407
13355SOL    HW251285   8.515   2.288   4.662  0.6341 -0.0055  2.0662
13356SOL     OW51286   7.106   0.837   3.169  0.1339 -0.3390 -0.2799
13356SOL    HW151287   7.076   0.758   3.115 -0.2246  0.1823 -0.8400
13356SOL    HW251288   7.120   0.915   3.110  0.3545  0.0650  0.2997
13357SOL     OW51289   5.554   2.180   2.738 -0.0211 -0.4803 -0.5757
13357SOL    HW151290   5.485   2.169   2.666 -1.9707  0.0967  1.1530
13357SOL    HW251291   5.566   2.277   2.757  0.5966 -0.6280 -0.2125
13358SOL     OW51292   2.091   7.720   1.508  0.1509  0.8142  0.0122
13358SOL    HW151293   2.050   7.659   1.440 -1.5501  0.7783  1.0546
13358SOL    HW251294   2.110   7.809   1.465  1.0654  0.1222 -1.0532
13359SOL     OW51295   8.396   0.581   3.135 -0.2515 -0.0885 -0.3312
13359SOL    HW151296   8.420   0.484   3.131 -1.8065 -0.4655 -0.8151
13359SOL    HW251297   8.342   0.605   3.054  0.0019  1.1491 -0.1399
13360SOL     OW51298   8.008   0.896   2.986 -0.6230  0.3246  0.8478
13360SOL    HW151299   7.960   0.929   2.905  0.3080 -0.6359 -0.1138
13360SOL    HW251300   8.062   0.815   2.962 -1.2063 -0.6250  2.6800
13361SOL     OW51301   8.450   5.814   3.002  0.3534  0.5429 -0.0613
13361SOL    HW151302   8.416   5.720   3.014  0.9720  0.2440 -0.6196
13361SOL    HW251303   8.459   5.834   2.905  0.7623  0.9885  0.0671
13362SOL     OW51304   1.152   2.728   0.601  0.1984  0.0170 -0.4460
13362SOL    HW151305   1.120   2.639   0.569  0.6960  0.4451 -2.1500
13362SOL    HW251306   1.078   2.795   0.592 -0.3056 -0.2957  1.2117
13363SOL     OW51307   3.261   3.897   4.929 -0.4444  0.1313  0.3449
13363SOL    HW151308   3.186   3.855   4.879 -1.1365  0.8952  0.7327
13363SOL    HW251309   3.310   3.960   4.868  0.8319 -1.4907 -0.3488
13364SOL     OW51310   9.631   4.879   2.088 -0.3591 -0.1904  0.1045
13364SOL    HW151311   9.659   4.881   1.992 -1.3329  1.4004 -0.1784
13364SOL    HW251312   9.670   4.958   2.135 -0.4330 -0.6013  0.8559
13365SOL     OW51313   1.145   1.949   5.693 -0.1011 -0.2344  0.1823
13365SOL    HW151314   1.135   1.851   5.710  0.1511 -0.4369 -0.7984
13365SOL    HW251315   1.122   1.969   5.598  0.8895  0.5033  0.0848
13366SOL     OW51316   9.630   7.776   0.565  0.1860  0.2287  0.3135
13366SOL    HW151317   9.542   7.797   0.609 -0.5997 -0.6754 -0.8034
13366SOL    HW251318   9.693   7.852   0.581 -1.0421  1.2390  0.5047
13367SOL     OW51319   9.343   1.394   4.816  0.4424 -0.0063 -0.2322
13367SOL    HW151320   9.388   1.476   4.850  1.2637  0.5094 -2.5204
13367SOL    HW251321   9.246   1.413   4.802  0.8580  0.9703 -1.9284
13368SOL     OW51322   8.179   6.059   1.787 -0.1787  0.0197 -0.2651
13368SOL    HW151323   8.188   6.132   1.854 -0.7713 -0.8707  0.8114
13368SOL    HW251324   8.157   5.973   1.834 -2.0854 -0.3209 -1.7299
13369SOL     OW51325   8.665   1.079   6.216 -0.1246  0.1098 -0.0500
13369SOL    HW151326   8.580   1.027   6.225  1.0981 -2.0718 -0.9406
13369SOL    HW251327   8.734   1.042   6.278  0.6496  0.8876 -0.4359
13370SOL     OW51328   4.043   4.538   2.287  0.4669  0.1608  0.5196
13370SOL    HW151329   4.094   4.624   2.290 -1.5051  1.3153  1.8738
13370SOL    HW251330   3.947   4.557   2.271  0.2601 -1.9372 -1.0213
13371SOL     OW51331   9.686   8.024   6.269  0.4013 -0.2285 -0.1326
13371SOL    HW151332   9.726   8.024   6.361  0.2457  2.6030 -0.0173
13371SOL    HW251333   9.666   7.931   6.242  2.3357 -1.2895  1.8910
13372SOL     OW51334   9.095   4.620   1.553 -0.0592 -0.1198  0.2697
13372SOL    HW151335   9.082   4.718   1.570  2.4036  0.5081 -1.0367
13372SOL    HW251336   9.166   4.585   1.614 -0.7740 -1.0300  0.5746
13373SOL     OW51337   9.238   9.261   2.243 -0.0087  0.2811 -0.2887
13373SOL    HW151338   9.277   9.214   2.163 -2.2307 -1.0564 -0.6218
13373SOL    HW251339   9.277   9.222   2.327 -1.4602 -1.8894 -0.5750
13374SOL     OW51340   0.514   2.046   1.893  0.1182  0.0567  0.2259
13374SOL    HW151341   0.475   2.056   1.985 -0.0202  0.1826  0.1531
13374SOL    HW251342   0.538   1.950   1.878  0.5545  0.1122  0.5592
13375SOL     OW51343   1.530   7.641   5.591 -0.3640 -0.0772  0.7104
13375SOL    HW151344   1.592   7.570   5.626  1.4830  1.0161 -0.2905
13375SOL    HW251345   1.454   7.652   5.655 -1.5695 -4.0510  0.1316
13376SOL     OW51346   0.547   0.466   0.613 -0.3898  0.3669 -0.3816
13376SOL    HW151347   0.480   0.410   0.565 -1.0684  0.8631 -0.0327
13376SOL    HW251348   0.529   0.563   0.592 -2.2197  0.7651  2.7359
13377SOL     OW51349   2.400   5.374   3.463 -0.5674 -0.1094 -0.0063
13377SOL    HW151350   2.415   5.426   3.548  0.2587 -0.5016  0.0864
13377SOL    HW251351   2.409   5.435   3.385  2.0576 -0.4308  0.0119
13378SOL     OW51352   9.083   5.941   5.150 -0.1399  0.1444 -0.7313
13378SOL    HW151353   9.122   6.025   5.114 -0.6539  0.2085 -1.1381
13378SOL    HW251354   8.998   5.920   5.102  0.3261 -0.9668 -1.0975
13379SOL     OW51355   8.449   6.512   3.865  0.3578  0.2244 -0.4304
13379SOL    HW151356   8.466   6.550   3.956  2.0144 -1.2834 -0.0614
13379SOL    HW251357   8.536   6.505   3.816 -0.3520 -0.1728 -1.6412
13380SOL     OW51358   0.268   8.556   0.967  0.6928 -0.2309 -0.2037
13380SOL    HW151359   0.314   8.495   1.032  1.0242 -0.0427 -0.2567
13380SOL    HW251360   0.222   8.503   0.897 -0.3686 -0.4550  0.6586
13381SOL     OW51361   1.456   0.852   4.280  0.0426  0.0267 -0.5792
13381SOL    HW151362   1.538   0.813   4.322  0.2157  0.5477 -0.4316
13381SOL    HW251363   1.385   0.863   4.350 -0.2858 -0.7739 -0.7805
13382SOL     OW51364   8.207   9.326   3.990 -0.2970  0.1809  0.0241
13382SOL    HW151365   8.240   9.254   3.928 -0.3372  0.3493 -0.1943
13382SOL    HW251366   8.167   9.285   4.071 -0.7538 -0.0538 -0.3192
13383SOL     OW51367   9.288   4.255   5.641 -0.2895  0.2748  0.2069
13383SOL    HW151368   9.249   4.210   5.561 -0.8289  0.2390  0.4872
13383SOL    HW251369   9.384   4.229   5.651 -0.2360  0.2335 -0.3921
13384SOL     OW51370   2.577   2.519   5.125  0.0273 -0.3013 -0.4215
13384SOL    HW151371   2.562   2.576   5.043  1.5637 -0.1269 -0.6003
13384SOL    HW251372   2.537   2.565   5.205 -1.3255 -0.3855 -1.0271
13385SOL     OW51373   3.748   8.360   0.486 -0.2904  0.0190 -0.5136
13385SOL    HW151374   3.832   8.373   0.434  0.3570 -0.9126  0.2750
13385SOL    HW251375   3.719   8.265   0.479 -1.5446  0.4372 -1.1600
13386SOL     OW51376   8.927   3.558   0.446 -0.3012  0.0071  0.1293
13386SOL    HW151377   8.923   3.602   0.356  0.2735  0.5964  0.3889
13386SOL    HW251378   8.879   3.471   0.442 -1.0541  0.4461 -0.5102
13387SOL     OW51379   3.440   4.207   4.346  0.5891  0.4733 -0.1786
13387SOL    HW151380   3.387   4.215   4.262 -1.6395  2.1844  1.3363
13387SOL    HW251381   3.501   4.286   4.355  1.4723 -0.1507 -0.6010
13388SOL     OW51382   4.107   0.782   5.967 -0.1413 -0.6951 -0.1318
13388SOL    HW151383   4.074   0.776   5.873  0.4015  0.0746 -0.3813
13388SOL    HW251384   4.193   0.834   5.969 -0.5327 -0.0714  0.8719
13389SOL     OW51385   9.978   3.490   6.691 -0.2121  0.1571 -0.2999
13389SOL    HW151386  10.064   3.488   6.640  0.2488  0.8745  0.4412
13389SOL    HW251387   9.928   3.405   6.675 -0.1194  0.4087 -2.0204
13390SOL     OW51388   3.911   4.024   6.450 -0.2633  0.0231  0.3048
13390SOL    HW151389   3.996   3.971   6.444 -0.3017 -0.0742  0.5955
13390SOL    HW251390   3.925   4.115   6.412  0.0105  0.0543  0.4851
13391SOL     OW51391   9.199   9.821   5.487  0.2179  0.4922 -0.2817
13391SOL    HW151392   9.101   9.815   5.470 -0.0111 -0.0576  1.1754
13391SOL    HW251393   9.221   9.912   5.524  0.3290  0.7879 -1.0797
13392SOL     OW51394   8.771   6.174   2.680 -0.0870 -0.0315 -0.2297
13392SOL    HW151395   8.829   6.226   2.742 -1.0021  0.8865 -0.1196
13392SOL    HW251396   8.828   6.117   2.620  0.7939 -0.8741  1.3946
13393SOL     OW51397   3.962   8.919   1.090  0.7853 -0.2158 -0.4695
13393SOL    HW151398   3.882   8.979   1.092 -0.0758 -1.3123 -0.9859
13393SOL    HW251399   4.012   8.926   1.176  0.4870  0.9533 -0.3881
13394SOL     OW51400   1.887   5.818   0.143  0.0997 -0.6950  0.3977
13394SOL    HW151401   1.890   5.788   0.238  1.2422 -0.3781  0.4639
13394SOL    HW251402   1.906   5.741   0.083  0.5081 -0.6498  0.4699
13395SOL     OW51403   3.887   8.291   0.850  0.5017 -0.3441  0.2173
13395SOL    HW151404   3.809   8.235   0.822  0.3978  0.0720 -0.3432
13395SOL    HW251405   3.917   8.347   0.773 -0.5924  1.7509  1.2639
13396SOL     OW51406   5.053   8.755   4.173  0.0328  0.5786 -0.2071
13396SOL    HW151407   4.970   8.739   4.227  0.2138  1.1581  0.2584
13396SOL    HW251408   5.030   8.762   4.076 -0.7477  2.6736  0.1090
13397SOL     OW51409   1.507   0.572   2.060 -0.8439  0.3719 -0.0825
13397SOL    HW151410   1.591   0.545   2.107 -1.3207  0.4065  0.7992
13397SOL    HW251411   1.495   0.671   2.068 -0.4134  0.5116 -1.1312
13398SOL     OW51412   5.584   9.121   5.673  0.8202 -0.1585 -0.6488
13398SOL    HW151413   5.655   9.107   5.742  1.1027  0.9739 -0.6996
13398SOL    HW251414   5.510   9.177   5.712  0.9844  0.4933 -1.2661
13399SOL     OW51415   0.207   8.883   3.706  0.5083  0.3713 -0.5204
13399SOL    HW151416   0.154   8.800   3.693  0.3667  0.6836 -2.0360
13399SOL    HW251417   0.299   8.870   3.669  1.4804 -0.1212  1.9705
13400SOL     OW51418   3.705   7.026   1.286  0.0030  0.4993 -0.3140
13400SOL    HW151419   3.627   6.971   1.255  0.1239  1.4160 -2.3381
13400SOL    HW251420   3.671   7.108   1.332 -0.1935 -0.1981  0.8089
13401SOL     OW51421   0.548   3.319   1.393  0.1972 -0.5705 -0.0335
13401SOL    HW151422   0.493   3.392   1.352 -0.6307 -0.7650  0.7294
13401SOL    HW251423   0.575   3.345   1.485  0.0508 -1.1489  0.1748
13402SOL     OW51424   3.084   9.414   0.264 -0.2652 -0.4295 -0.1709
13402SOL    HW151425   3.020   9.460   0.203  0.2749  1.8792  0.9631
13402SOL    HW251426   3.075   9.452   0.356  0.0460 -2.7602  0.8631
13403SOL     OW51427   8.333   3.140   0.093 -0.0078  0.1207  0.4867
13403SOL    HW151428   8.417   3.145   0.147  1.0855  1.3387 -1.2650
13403SOL    HW251429   8.278   3.222   0.110 -0.2798 -0.1182  0.7489
13404SOL     OW51430   0.416   6.204   0.235  0.5253 -0.2665  0.5689
13404SOL    HW151431   0.498   6.213   0.292  0.7852 -0.1981  0.1884
13404SOL    HW251432   0.426   6.261   0.154 -0.7468  1.2949  1.4781
13405SOL     OW51433   8.304   6.503   5.202 -0.4297  0.4825  0.3668
13405SOL    HW151434   8.344   6.411   5.203  1.9344  1.4588  2.1133
13405SOL    HW251435   8.222   6.503   5.145 -0.0624 -2.5231 -0.2744
13406SOL     OW51436   9.556   8.640   6.313  0.3291 -0.5091  0.2235
13406SOL    HW151437   9.553   8.589   6.227  0.7837 -2.4239  1.3152
13406SOL    HW251438   9.468   8.630   6.360  0.6463 -0.8388  0.7490
13407SOL     OW51439   0.437   8.403   1.874  0.0147 -0.1305  0.0717
13407SOL    HW151440   0.380   8.321   1.871 -0.6846  0.3959 -1.4955
13407SOL    HW251441   0.383   8.483   1.848  0.6029  0.9107  1.9347
13408SOL     OW51442   5.486   9.642   2.213 -0.1950 -0.0664  0.5128
13408SOL    HW151443   5.393   9.649   2.250 -0.5230 -0.1370 -0.2909
13408SOL    HW251444   5.545   9.598   2.281 -0.9882 -0.9669  0.6378
13409SOL     OW51445   9.158   7.962   4.219 -0.3691  0.8146 -0.4183
13409SOL    HW151446   9.130   7.868   4.235  1.5964  0.2328 -0.2907
13409SOL    HW251447   9.120   8.021   4.290 -0.0714 -0.1706  0.5614
13410SOL     OW51448   9.740   1.072   0.970  0.0464 -0.5806 -0.0747
13410SOL    HW151449   9.673   1.129   0.922  0.2667 -0.5043 -0.2946
13410SOL    HW251450   9.726   0.976   0.947 -1.7860 -0.8673  2.0608
13411SOL     OW51451   1.030   8.734   0.416 -0.4638 -0.2713  0.1422
13411SOL    HW151452   0.965   8.709   0.344  0.1547  1.7723 -1.1712
13411SOL    HW251453   0.981   8.785   0.488 -0.4700  0.6946 -0.5284
13412SOL     OW51454   2.618   7.455   5.668  0.3635 -0.1844  0.4007
13412SOL    HW151455   2.703   7.407   5.691 -0.6347 -1.0220  2.4119
13412SOL    HW251456   2.572   7.484   5.752 -1.5705 -0.1287 -0.6516
13413SOL     OW51457   0.128   9.884   4.665 -0.1288 -0.0369  0.0066
13413SOL    HW151458   0.119   9.790   4.633 -0.6398 -0.0902  0.3126
13413SOL    HW251459   0.225   9.910   4.663 -0.1316 -0.1048 -1.3838
13414SOL     OW51460   8.705   6.770   5.618 -1.0255  0.0531 -0.0083
13414SOL    HW151461   8.746   6.767   5.527 -0.7785  0.3321  0.0970
13414SOL    HW251462   8.763   6.822   5.680 -1.7643  0.8404  0.0243
13415SOL     OW51463   8.670   8.776   3.589 -0.8565  0.0697 -0.4851
13415SOL    HW151464   8.695   8.762   3.685 -2.1739  1.6218  0.0957
13415SOL    HW251465   8.726   8.717   3.532  0.6258 -0.1647  1.1630
13416SOL     OW51466   1.238   4.679   2.420 -0.4167 -0.2375 -0.5331
13416SOL    HW151467   1.139   4.682   2.434 -0.5425  0.7460 -1.5745
13416SOL    HW251468   1.267   4.584   2.403 -1.2753 -0.4391 -0.8972
13417SOL     OW51469   7.688   1.785   4.978 -0.8652 -0.2952 -1.1668
13417SOL    HW151470   7.739   1.813   5.059  0.2510 -2.9344 -0.9174
13417SOL    HW251471   7.698   1.855   4.907 -0.6156  1.3223  0.4142
13418SOL     OW51472   3.325   4.963   4.756 -0.5201 -0.4441 -0.3905
13418SOL    HW151473   3.422   4.943   4.746 -0.5865 -0.7375 -0.4420
13418SOL    HW251474   3.314   5.045   4.812 -0.2228 -0.0647 -0.8740
13419SOL     OW51475   4.002   2.294   2.965 -0.1687 -0.3325 -0.5749
13419SOL    HW151476   3.960   2.377   3.002  0.6924  0.2236 -0.8307
13419SOL    HW251477   3.978   2.216   3.024 -1.1195  0.0623 -0.4317
13420SOL     OW51478   3.912   3.805   4.111 -0.6975  0.9277 -0.1701
13420SOL    HW151479   3.987   3.872   4.107  0.3409 -0.2064 -0.0306
13420SOL    HW251480   3.828   3.847   4.078 -0.3943  2.7660  1.2678
13421SOL     OW51481   0.432   7.659   3.110 -0.1200  0.8818  0.2972
13421SOL    HW151482   0.447   7.636   3.206  0.3046 -0.0913 -0.0015
13421SOL    HW251483   0.430   7.575   3.055  1.7596  1.5730 -0.8505
13422SOL     OW51484   8.932   3.353   5.128  0.8769 -0.0940 -0.0366
13422SOL    HW151485   8.875   3.389   5.203  1.7499  2.4721 -0.5671
13422SOL    HW251486   8.875   3.338   5.047  0.3864 -0.5973  0.3923
13423SOL     OW51487   9.218   9.545   1.157 -1.2157 -0.0705  0.1856
13423SOL    HW151488   9.191   9.460   1.112 -1.2211  0.1277 -0.1886
13423SOL    HW251489   9.181   9.623   1.106  0.1822  0.2141 -0.4123
13424SOL     OW51490   1.548   7.142   0.299 -0.5040 -0.0363 -0.2902
13424SOL    HW151491   1.548   7.231   0.345 -0.3919 -0.7870  1.1991
13424SOL    HW251492   1.636   7.128   0.254  1.0578 -1.1124  2.9506
13425SOL     OW51493   4.816   0.677   3.501  0.0468 -0.3290 -0.2748
13425SOL    HW151494   4.845   0.607   3.436  0.8296 -0.3197  0.0607
13425SOL    HW251495   4.854   0.766   3.474 -1.2469  0.0479 -0.9080
13426SOL     OW51496   1.393   3.004   0.544  0.4565  0.3647  0.2622
13426SOL    HW151497   1.450   2.978   0.466 -0.4031  0.1258 -0.3005
13426SOL    HW251498   1.374   2.923   0.599 -0.0510  0.2737 -0.0376
13427SOL     OW51499   0.311   3.523   1.826  0.4190  0.4593 -0.3457
13427SOL    HW151500   0.224   3.517   1.777  0.4869  0.0489 -0.4163
13427SOL    HW251501   0.345   3.431   1.846  0.7239  0.6194 -0.1164
13428SOL     OW51502   3.419   7.484   0.897  0.6949 -0.2474 -0.2475
13428SOL    HW151503   3.395   7.394   0.934  1.0459 -0.5474 -0.7477
13428SOL    HW251504   3.514   7.484   0.866  0.2797 -0.1450 -1.5611
13429SOL     OW51505   9.857   8.917   1.183  0.2796 -0.1831  0.1766
13429SOL    HW151506   9.899   8.831   1.154  0.9540  0.5166 -0.9579
13429SOL    HW251507   9.814   8.961   1.104 -2.0862 -0.5868  1.1925
13430SOL     OW51508   9.771   8.596   2.916 -0.4170  0.0924 -0.0910
13430SOL    HW151509   9.845   8.658   2.940 -0.2782 -0.6725  1.5659
13430SOL    HW251510   9.741   8.548   2.998 -1.2948 -1.1858 -1.1446
13431SOL     OW51511   6.660   7.558   2.447  0.3512 -0.1859 -0.3126
13431SOL    HW151512   6.685   7.494   2.375 -0.2057  0.1532 -0.8130
13431SOL    HW251513   6.698   7.527   2.534  0.0925 -1.1991 -0.5498
13432SOL     OW51514   0.399   9.203   0.563 -0.2718  0.3810  0.7158
13432SOL    HW151515   0.305   9.170   0.559  0.0776 -1.0204  3.1540
13432SOL    HW251516   0.402   9.299   0.534 -2.5064  0.5598  0.9908
13433SOL     OW51517   0.984   1.831   5.214 -0.1009  0.1777 -0.8030
13433SOL    HW151518   0.924   1.906   5.244 -0.9542 -0.7746 -0.0823
13433SOL    HW251519   1.044   1.863   5.141 -0.0448  1.7300 -0.0927
13434SOL     OW51520   9.185   0.819   5.779  0.0579 -0.6777 -0.8144
13434SOL    HW151521   9.087   0.820   5.799  0.2112  0.7943  0.0337
13434SOL    HW251522   9.235   0.785   5.859  0.2710 -0.8418 -1.0171
13435SOL     OW51523   8.600   9.547   2.844 -0.0081 -0.6620 -0.3096
13435SOL    HW151524   8.670   9.582   2.906  0.4889 -1.1843 -0.5665
13435SOL    HW251525   8.635   9.466   2.797 -0.5522 -0.5447 -0.9237
13436SOL     OW51526   8.478   1.870   1.167 -0.0641 -0.0466  0.0997
13436SOL    HW151527   8.554   1.894   1.107  0.2112  1.8272  1.1695
13436SOL    HW251528   8.485   1.774   1.193  2.5644  0.3775  1.0774
13437SOL     OW51529   3.102   2.204   2.410  0.3071 -0.4312 -0.7039
13437SOL    HW151530   3.150   2.209   2.498  0.6625 -0.2080 -0.9079
13437SOL    HW251531   3.035   2.131   2.413 -2.6919  2.2557  1.2297
13438SOL     OW51532   7.688   8.941   2.220  0.5134  0.1100  0.3831
13438SOL    HW151533   7.601   8.921   2.174  1.1643  0.5232 -1.0509
13438SOL    HW251534   7.732   8.855   2.247 -0.2097 -0.1103  0.8808
13439SOL     OW51535   2.411   8.726   1.967  0.3490  0.0340 -0.6310
13439SOL    HW151536   2.361   8.742   1.882 -1.7941 -0.8713  0.4250
13439SOL    HW251537   2.418   8.628   1.984  0.1581  0.2242  0.5986
13440SOL     OW51538   7.643   3.011   1.311  0.0419 -0.2883  0.3786
13440SOL    HW151539   7.546   3.032   1.313  0.0639  0.2067 -2.1399
13440SOL    HW251540   7.657   2.917   1.281  0.4025  0.7220 -2.8394
13441SOL     OW51541   9.322   3.144   4.650 -0.5553  0.3123 -0.0333
13441SOL    HW151542   9.231   3.118   4.683 -0.9440 -0.8214 -1.9446
13441SOL    HW251543   9.385   3.068   4.666 -0.0882  0.8377  0.6570
13442SOL     OW51544   7.643   6.297   5.127  0.3791  0.0605 -0.0218
13442SOL    HW151545   7.625   6.256   5.216 -1.5605  1.3522  0.2118
13442SOL    HW251546   7.737   6.330   5.123  0.8980 -1.2666  1.0256
13443SOL     OW51547   9.346   2.193   5.215  0.0761  0.3068 -0.8397
13443SOL    HW151548   9.249   2.192   5.240  0.4135 -1.0610  0.4871
13443SOL    HW251549   9.394   2.261   5.269 -0.0257  0.5277 -1.0265
13444SOL     OW51550   9.917   2.395   5.100 -0.1764 -0.7483  0.1610
13444SOL    HW151551   9.826   2.398   5.059  0.2710  0.2542 -0.7725
13444SOL    HW251552   9.911   2.350   5.189 -1.7109 -0.0247  0.4480
13445SOL     OW51553   2.543   9.770   2.221 -0.4488  0.2432  0.1557
13445SOL    HW151554   2.444   9.784   2.215 -0.4269  0.2987 -0.0633
13445SOL    HW251555   2.590   9.853   2.191 -0.3480  1.0386  2.3988
13446SOL     OW51556   9.014   9.649   6.200 -0.3012 -0.7816 -0.4155
13446SOL    HW151557   8.995   9.552   6.186 -2.6178 -0.4453  0.2156
13446SOL    HW251558   9.062   9.661   6.286  0.9570 -1.4499 -1.0019
13447SOL     OW51559   8.700   9.695   6.704 -0.3403  0.1666 -0.1994
13447SOL    HW151560   8.605   9.724   6.714  0.4860  2.1196  2.6356
13447SOL    HW251561   8.752   9.765   6.655  0.7100  1.5753  2.8148
13448SOL     OW51562   0.051   3.597   2.639 -0.2214  0.0499 -0.1001
13448SOL    HW151563  -0.037   3.627   2.602  0.6449 -0.5069 -2.6691
13448SOL    HW251564   0.126   3.642   2.590  0.9813 -1.5342  0.2339
13449SOL     OW51565   7.254   1.291   6.101  0.5235  0.4828  0.2575
13449SOL    HW151566   7.323   1.324   6.037 -0.4120  2.0511  0.0323
13449SOL    HW251567   7.228   1.197   6.076 -0.6462  1.4700 -2.3454
13450SOL     OW51568   0.090   3.715   5.419  0.3288  0.4764 -0.2628
13450SOL    HW151569   0.091   3.664   5.333 -0.0485  0.3583 -0.1978
13450SOL    HW251570   0.130   3.658   5.491 -0.3018  0.1725 -0.1403
13451SOL     OW51571   1.602   9.050   0.923  0.2135  0.0917 -0.2377
13451SOL    HW151572   1.603   8.957   0.961  0.5481  0.0556 -0.3269
13451SOL    HW251573   1.695   9.087   0.925  0.4961 -0.4305 -2.2794
13452SOL     OW51574   9.304   7.045   5.959  0.0647 -0.0169  0.4996
13452SOL    HW151575   9.402   7.022   5.957  0.2745  0.9339 -1.2435
13452SOL    HW251576   9.251   6.963   5.936  0.6094  0.1743 -1.5007
13453SOL     OW51577   9.630   3.512   0.914 -0.0078  0.5732  0.3877
13453SOL    HW151578   9.635   3.513   0.814 -2.8638 -0.2012  0.1826
13453SOL    HW251579   9.707   3.562   0.952  0.9570  1.1291 -2.2220
13454SOL     OW51580   1.372   1.512   6.327 -0.0453 -0.1338  0.5521
13454SOL    HW151581   1.413   1.490   6.416  2.4692  1.0078 -0.2916
13454SOL    HW251582   1.331   1.603   6.332  2.0411  0.8723 -0.0549
13455SOL     OW51583   1.390   9.307   5.365  0.4212 -0.5861 -0.0938
13455SOL    HW151584   1.448   9.304   5.284 -0.1066  0.2092 -0.5117
13455SOL    HW251585   1.383   9.216   5.405 -1.5013 -1.5758 -2.5278
13456SOL     OW51586   1.905   5.483   2.174 -0.2674 -0.3377 -0.0837
13456SOL    HW151587   1.984   5.422   2.162  0.7413  1.0659 -0.7720
13456SOL    HW251588   1.824   5.429   2.193  1.3536 -1.7174  3.4227
13457SOL     OW51589   8.860   4.782   6.719  0.0450 -0.2043 -0.1431
13457SOL    HW151590   8.959   4.792   6.718  0.2911 -2.3969 -0.6493
13457SOL    HW251591   8.821   4.836   6.794  1.6810  0.1488  0.4628
13458SOL     OW51592   5.456   0.074   5.050 -0.9204 -0.6458  0.0027
13458SOL    HW151593   5.510   0.132   5.112  0.0741 -1.3910 -0.1511
13458SOL    HW251594   5.413   0.131   4.980 -0.5243 -0.0116  0.2720
13459SOL     OW51595   4.780   3.070   6.641 -0.1818  0.2907 -0.3861
13459SOL    HW151596   4.876   3.088   6.664 -0.4931  0.8717  0.4951
13459SOL    HW251597   4.735   3.156   6.617  0.2077 -0.3375 -3.5363
13460SOL     OW51598   3.371   6.854   6.086  0.1296 -0.2127 -0.2922
13460SOL    HW151599   3.397   6.880   6.179  1.0394  0.7643 -0.8103
13460SOL    HW251600   3.280   6.891   6.066 -1.0371 -2.2894  0.9629
13461SOL     OW51601   2.163   2.355   1.634 -0.1871  0.4860  0.0910
13461SOL    HW151602   2.089   2.347   1.701 -0.2586  0.7424  0.0424
13461SOL    HW251603   2.188   2.263   1.602  0.4793  0.2894  1.1520
13462SOL     OW51604   8.388   3.924   3.881 -0.5568 -0.0609 -0.3652
13462SOL    HW151605   8.409   3.850   3.818 -0.3417  0.3982 -0.8401
13462SOL    HW251606   8.472   3.972   3.906 -0.7435  0.2817 -0.3876
13463SOL     OW51607   4.291   4.871   0.356  0.4864 -0.2124 -0.3347
13463SOL    HW151608   4.288   4.814   0.437 -0.1260  0.5531  0.1911
13463SOL    HW251609   4.198   4.886   0.322  0.6023  0.8613 -0.1870
13464SOL     OW51610   5.778   7.074   2.384 -0.2669 -0.3283 -0.3384
13464SOL    HW151611   5.690   7.029   2.401 -0.6366  0.6438  0.4034
13464SOL    HW251612   5.802   7.131   2.462  2.1141 -2.2795  0.4102
13465SOL     OW51613   8.251   0.550   5.154 -0.4729 -0.0911 -0.0615
13465SOL    HW151614   8.309   0.469   5.140  0.8335  0.9784 -0.9635
13465SOL    HW251615   8.157   0.528   5.126 -0.2472 -1.4646  0.2207
13466SOL     OW51616   8.954   1.827   1.572  0.1225  0.1137  0.3248
13466SOL    HW151617   8.860   1.828   1.541  0.0891 -0.7409  0.3772
13466SOL    HW251618   9.011   1.777   1.507  0.1950 -1.0025  1.2279
13467SOL     OW51619   3.697   9.719   3.210 -0.5536 -0.0521 -0.4280
13467SOL    HW151620   3.781   9.703   3.262 -1.8480  0.6836  1.9911
13467SOL    HW251621   3.636   9.640   3.220 -1.0154  0.3043 -0.4217
13468SOL     OW51622   9.621   7.116   0.394  0.4334 -0.7713  0.2264
13468SOL    HW151623   9.673   7.174   0.457 -0.5538 -1.8701  2.1023
13468SOL    HW251624   9.625   7.021   0.425  0.1573 -1.3835 -1.5467
13469SOL     OW51625   7.857   6.003   0.716  0.0150 -0.0991  0.1461
13469SOL    HW151626   7.770   5.994   0.667  0.2528  0.6045 -0.4069
13469SOL    HW251627   7.894   6.094   0.702  1.0531 -0.5270  0.0393
13470SOL     OW51628   0.057   5.063   0.843  0.7852  0.1395 -0.1094
13470SOL    HW151629   0.070   5.107   0.931  0.9177  0.9159 -0.5119
13470SOL    HW251630   0.013   5.127   0.780 -1.7690 -1.2805  0.1836
13471SOL     OW51631   5.004   2.018   5.364 -0.0903 -0.3285  0.3866
13471SOL    HW151632   5.011   2.086   5.438 -0.7028  0.3238 -0.1508
13471SOL    HW251633   5.080   2.030   5.301 -0.3162  0.0041  0.1746
13472SOL     OW51634   2.443   8.367   0.160  0.6324  0.0242  0.5066
13472SOL    HW151635   2.464   8.385   0.256  1.1427 -0.9895  0.5832
13472SOL    HW251636   2.345   8.347   0.152  0.6651 -0.2974  0.8739
13473SOL     OW51637   8.982   0.626   2.441  0.3413 -0.3008 -0.2575
13473SOL    HW151638   9.007   0.671   2.355 -0.9565  0.3522 -0.3045
13473SOL    HW251639   9.034   0.667   2.516  0.5856 -0.0386 -0.5689
13474SOL     OW51640   1.434   3.606   2.801 -0.1676 -0.3194  0.3039
13474SOL    HW151641   1.526   3.645   2.803  0.3635 -1.5788  1.6915
13474SOL    HW251642   1.394   3.619   2.711  1.4399  0.0631 -0.3717
13475SOL     OW51643   3.554   4.941   3.622  0.4949 -0.0145  0.1795
13475SOL    HW151644   3.501   4.994   3.555 -0.8065  1.0686  2.0230
13475SOL    HW251645   3.637   4.992   3.647 -1.0169  1.4792  2.3455
13476SOL     OW51646   5.034   9.626   2.186 -0.2575 -0.2540 -0.0134
13476SOL    HW151647   5.078   9.647   2.273  1.3313  1.7518 -1.2494
13476SOL    HW251648   5.089   9.560   2.136 -1.4017 -1.7466  0.6731
13477SOL     OW51649   3.960   5.287   1.284  0.4131 -0.0476 -0.3646
13477SOL    HW151650   4.013   5.352   1.338  0.4747  1.4177 -2.1175
13477SOL    HW251651   4.019   5.210   1.257  1.1794  0.6748 -0.7854
13478SOL     OW51652   0.275   1.300   1.686  0.5737 -0.0058  0.2052
13478SOL    HW151653   0.287   1.258   1.596  0.0579  0.8667 -0.2784
13478SOL    HW251654   0.270   1.228   1.756  0.4997 -0.7103 -0.5142
13479SOL     OW51655   5.072   1.364   3.151  0.3570  0.3951 -0.0797
13479SOL    HW151656   5.128   1.335   3.229 -1.2954 -0.9352  0.6524
13479SOL    HW251657   5.131   1.392   3.076  1.9995 -0.2991  0.9247
13480SOL     OW51658   5.879   8.678   2.928  0.3936 -0.1465  0.4101
13480SOL    HW151659   5.967   8.657   2.969  0.0131  1.9853  2.4810
13480SOL    HW251660   5.815   8.603   2.945  1.0303 -0.4804  1.3727
13481SOL     OW51661   2.758   8.424   6.430 -0.0687 -0.0940  0.2469
13481SOL    HW151662   2.776   8.348   6.493 -1.0049  0.8416  1.6623
13481SOL    HW251663   2.660   8.433   6.415  0.1735 -0.6747 -1.8381
13482SOL     OW51664   8.386   5.225   4.636 -0.4883  0.2698 -0.0425
13482SOL    HW151665   8.306   5.223   4.577 -1.6159 -0.8165  1.4663
13482SOL    HW251666   8.385   5.308   4.692 -0.1047  0.6769 -0.6425
13483SOL     OW51667   8.273   8.478   4.497  0.4526 -0.3605 -0.4780
13483SOL    HW151668   8.317   8.404   4.548 -0.2102 -0.3235  0.1612
13483SOL    HW251669   8.279   8.563   4.550 -1.2769 -0.5747  0.0957
13484SOL     OW51670   0.555   1.691   0.998 -0.2198 -0.2081 -0.9034
13484SOL    HW151671   0.644   1.684   1.043 -1.1426  0.7653  1.1312
13484SOL    HW251672   0.504   1.768   1.037 -2.6632 -1.8367 -0.8208
13485SOL     OW51673   4.864   3.610   5.514 -0.3643  0.3905 -0.2333
13485SOL    HW151674   4.896   3.682   5.576  2.0855 -1.1499  0.3754
13485SOL    HW251675   4.864   3.645   5.420  1.6404  0.9414 -0.0541
13486SOL     OW51676   1.856   9.950   1.496 -0.0563  0.1465 -0.7167
13486SOL    HW151677   1.848   9.972   1.399 -0.8089 -0.1991 -0.7449
13486SOL    HW251678   1.843   9.851   1.509 -0.1617  0.2161 -0.2514
13487SOL     OW51679   3.809   9.513   6.480  0.2099  0.3402  0.4601
13487SOL    HW151680   3.855   9.569   6.549  1.9295  0.1912 -0.5444
13487SOL    HW251681   3.786   9.424   6.519  1.7288  0.0287  0.6919
13488SOL     OW51682   4.622   5.368   2.933 -0.3352 -0.3438  0.0474
13488SOL    HW151683   4.592   5.459   2.904  0.6692  0.4109  1.2657
13488SOL    HW251684   4.611   5.360   3.033 -0.1301 -1.4434 -0.0111
13489SOL     OW51685   8.045   5.326   5.884 -0.7808 -0.3421  0.0702
13489SOL    HW151686   8.035   5.367   5.975 -2.6174 -1.7533  0.5291
13489SOL    HW251687   8.057   5.398   5.816  0.3349  0.7445  1.3889
13490SOL     OW51688   3.784   9.158   3.427  0.0040 -0.1043 -0.3691
13490SOL    HW151689   3.696   9.190   3.460  0.1914 -0.1449  0.1830
13490SOL    HW251690   3.785   9.058   3.425 -0.5080 -0.0896 -1.8934
13491SOL     OW51691   2.727   1.512   0.419  0.4722  0.0393  0.0003
13491SOL    HW151692   2.700   1.489   0.512 -1.0792  1.5782 -0.0442
13491SOL    HW251693   2.758   1.607   0.416  0.0686  0.1443 -1.1241
13492SOL     OW51694   8.952   8.944   6.105  0.1474  0.6588 -0.0521
13492SOL    HW151695   9.035   8.999   6.104 -0.5187  1.6818 -0.6347
13492SOL    HW251696   8.927   8.923   6.200  1.1629  0.1950  0.1129
13493SOL     OW51697   5.672   8.800   5.564 -0.2343 -0.4080 -0.0458
13493SOL    HW151698   5.586   8.846   5.545  0.4143  0.3911 -1.0848
13493SOL    HW251699   5.708   8.831   5.653  0.2859  1.2442 -0.8192
13494SOL     OW51700   4.835   7.636   5.850 -0.1297  0.0151 -0.6409
13494SOL    HW151701   4.858   7.542   5.877  0.3209  0.6414  1.1874
13494SOL    HW251702   4.740   7.655   5.873 -0.9051 -0.7229 -3.0970
13495SOL     OW51703   8.343   1.441   0.890 -0.1620  0.2023 -0.3836
13495SOL    HW151704   8.279   1.503   0.935  0.7342  0.5024  0.5158
13495SOL    HW251705   8.328   1.442   0.792 -0.9615  0.9192 -0.2561
13496SOL     OW51706   9.704   6.490   5.563  0.2889 -0.2077  0.1615
13496SOL    HW151707   9.653   6.572   5.539 -0.5380  0.2471  3.2921
13496SOL    HW251708   9.650   6.409   5.541  0.1043  0.1405 -0.6775
13497SOL     OW51709   2.916   3.552   4.504 -0.7714 -0.0052  0.1445
13497SOL    HW151710   3.007   3.557   4.546 -0.6594 -0.3732 -0.0530
13497SOL    HW251711   2.860   3.485   4.553 -1.5021  1.4559  1.3309
13498SOL     OW51712   8.674   8.783   2.339 -0.0898 -1.1569  0.4251
13498SOL    HW151713   8.668   8.694   2.385  0.1399 -1.1487  0.4718
13498SOL    HW251714   8.718   8.770   2.250 -1.5822 -1.3679 -0.3083
13499SOL     OW51715   3.734   9.325   5.043 -0.1975  0.5047  0.0312
13499SOL    HW151716   3.659   9.348   4.980  0.9048  2.8429 -0.4659
13499SOL    HW251717   3.770   9.234   5.020 -1.3617  0.3389 -1.1976
13500SOL     OW51718   7.358   3.191   4.267  0.6825  0.2053  0.6903
13500SOL    HW151719   7.403   3.277   4.243  0.4850  0.1747  0.2081
13500SOL    HW251720   7.391   3.118   4.207 -1.1434  0.4914 -0.7048
13501SOL     OW51721   2.163   3.175   4.914 -0.3817 -0.0688 -0.0851
13501SOL    HW151722   2.162   3.191   4.815  0.0808  0.7182  0.0344
13501SOL    HW251723   2.070   3.157   4.946 -0.5893  0.0837 -0.5971
13502SOL     OW51724   4.416   0.004   1.545 -0.4559  0.1461  0.1837
13502SOL    HW151725   4.372   0.023   1.457 -1.3319  0.8665  0.7614
13502SOL    HW251726   4.474   0.082   1.570  1.0458 -0.7389 -0.5015
13503SOL     OW51727   0.383   6.540   3.838 -0.4210 -0.7098 -0.2230
13503SOL    HW151728   0.468   6.487   3.837 -0.5372 -0.9438  0.8301
13503SOL    HW251729   0.389   6.614   3.771  0.4683 -0.9474 -0.4182
13504SOL     OW51730   1.278   7.207   5.366 -0.0951 -0.5896 -0.5542
13504SOL    HW151731   1.234   7.175   5.450 -0.3285 -1.5594 -1.0396
13504SOL    HW251732   1.209   7.245   5.305 -0.1358 -1.2357 -0.9162
13505SOL     OW51733   0.673   9.332   0.473 -0.3509  0.4544  0.0587
13505SOL    HW151734   0.668   9.236   0.444  0.8015  0.4488 -0.1485
13505SOL    HW251735   0.632   9.341   0.564  0.1692 -0.3662  0.3837
13506SOL     OW51736   3.394   6.931   3.137 -0.7749  0.2313 -0.3341
13506SOL    HW151737   3.492   6.923   3.159 -0.4276  1.2393 -1.4827
13506SOL    HW251738   3.341   6.876   3.202  0.4868  0.4064  0.8712
13507SOL     OW51739   9.947   2.054   3.477  0.2586 -0.1112  0.2968
13507SOL    HW151740  10.022   2.072   3.541  0.3150  0.2553  0.1266
13507SOL    HW251741   9.859   2.067   3.524  0.2970 -1.2514  0.7001
13508SOL     OW51742   3.373   5.674   4.861  0.3792  0.1834  0.1197
13508SOL    HW151743   3.402   5.712   4.949 -1.6204 -0.4333  1.0709
13508SOL    HW251744   3.294   5.614   4.875 -0.1685  0.3376 -2.1494
13509SOL     OW51745   3.399   3.676   4.348 -0.1547 -0.4811 -0.3530
13509SOL    HW151746   3.307   3.696   4.315 -0.9521  0.8372  2.5382
13509SOL    HW251747   3.456   3.758   4.339 -0.3581 -0.1322  1.3763
13510SOL     OW51748   7.781   4.383   2.026 -0.5314  0.6819  0.0922
13510SOL    HW151749   7.836   4.461   1.997 -1.4616  0.7251 -1.5780
13510SOL    HW251750   7.749   4.397   2.119  1.2270  1.2285  0.6401
13511SOL     OW51751   4.532   7.008   2.128  0.1286 -0.4821 -1.0339
13511SOL    HW151752   4.512   7.033   2.034  0.4897  3.2416 -0.1982
13511SOL    HW251753   4.596   7.074   2.167 -3.1039  0.4473  3.0361
13512SOL     OW51754   2.167   8.534   1.271 -0.1811  0.0770  0.4203
13512SOL    HW151755   2.213   8.549   1.184  1.1668 -1.3595  0.8676
13512SOL    HW251756   2.074   8.501   1.254  0.1227 -0.3257 -0.4880
13513SOL     OW51757   5.020   8.754   4.583 -0.2757 -0.0202  0.6434
13513SOL    HW151758   5.110   8.750   4.628 -1.1156  1.1035  2.4736
13513SOL    HW251759   5.021   8.824   4.512  0.8977 -1.4298 -0.7705
13514SOL     OW51760   3.009   8.627   1.327  0.1977  0.6151 -0.3567
13514SOL    HW151761   3.045   8.718   1.304  0.2127  1.2954  2.1808
13514SOL    HW251762   3.012   8.615   1.426 -2.5718 -1.0119 -0.4382
13515SOL     OW51763   0.568   1.272   0.216 -0.2755 -0.0504  0.6074
13515SOL    HW151764   0.636   1.202   0.195 -0.1906 -0.1933  1.3544
13515SOL    HW251765   0.603   1.361   0.187 -0.3753 -0.3119 -0.3252
13516SOL     OW51766   7.323   4.610   6.071  0.4181 -0.4009 -0.1995
13516SOL    HW151767   7.406   4.556   6.055  0.9468  0.2831  0.2066
13516SOL    HW251768   7.258   4.556   6.124  1.3252 -0.3137  1.0179
13517SOL     OW51769   2.500   2.733   1.052  0.2376 -0.3392 -0.0444
13517SOL    HW151770   2.522   2.733   0.955  0.8784 -0.6594  0.1025
13517SOL    HW251771   2.578   2.768   1.104  0.5505 -1.8059  0.5026
13518SOL     OW51772   3.856   9.267   5.756 -0.0071  0.5695  0.6104
13518SOL    HW151773   3.822   9.232   5.669  2.6040  1.2310 -0.7546
13518SOL    HW251774   3.915   9.199   5.799  0.8636  1.2415  0.5116
13519SOL     OW51775   9.280   1.466   3.686 -0.5427 -0.1957 -0.1211
13519SOL    HW151776   9.210   1.398   3.663 -0.9910  0.0340  0.5573
13519SOL    HW251777   9.276   1.487   3.784  0.2726  0.0508 -0.1339
13520SOL     OW51778   8.254   9.736   4.984  0.2278  0.0470 -0.0629
13520SOL    HW151779   8.218   9.817   4.936  0.8523 -0.7985 -2.0403
13520SOL    HW251780   8.304   9.765   5.065  0.5409  1.6629 -0.8073
13521SOL     OW51781   0.799   7.570   2.058  0.1691  0.1451  0.0064
13521SOL    HW151782   0.782   7.495   1.994 -0.1272  0.3956 -0.2099
13521SOL    HW251783   0.779   7.657   2.013 -1.6928  0.2432  0.9823
13522SOL     OW51784   6.308   1.704   1.748  0.4152 -0.9948  0.3077
13522SOL    HW151785   6.253   1.705   1.832 -0.4468  1.8178 -0.2493
13522SOL    HW251786   6.387   1.764   1.759 -1.8463  2.5913 -2.2142
13523SOL     OW51787   3.021   7.459   1.394 -0.2501  0.5257  0.1291
13523SOL    HW151788   3.086   7.532   1.415 -0.3537  1.0595 -1.3250
13523SOL    HW251789   2.993   7.467   1.298 -1.9028 -0.1282  0.5482
13524SOL     OW51790   4.353   3.395   1.877  0.0353  0.4000 -0.0738
13524SOL    HW151791   4.333   3.421   1.782 -1.0962 -3.6036 -1.0501
13524SOL    HW251792   4.452   3.392   1.891  0.1985  2.0587 -0.8060
13525SOL     OW51793   4.970   7.011   2.518 -0.0527  0.3659  0.0939
13525SOL    HW151794   5.018   7.009   2.430 -0.4560  1.1689 -0.1532
13525SOL    HW251795   4.946   6.918   2.545 -1.4764  0.2324 -1.5204
13526SOL     OW51796   9.404   2.404   1.640 -0.5464 -0.0247 -0.2276
13526SOL    HW151797   9.504   2.391   1.642 -0.5852 -0.1805  0.9765
13526SOL    HW251798   9.384   2.501   1.624 -0.2006  0.0630 -0.1439
13527SOL     OW51799   5.135   0.333   1.098  0.0082 -0.2301  0.7904
13527SOL    HW151800   5.055   0.293   1.053 -0.7883 -0.1962  2.1228
13527SOL    HW251801   5.196   0.259   1.128  0.2103 -0.2815  0.2592
13528SOL     OW51802   1.504   1.728   1.344  0.2014  0.3966 -0.4832
13528SOL    HW151803   1.547   1.811   1.311  1.7663 -0.0795  0.2950
13528SOL    HW251804   1.567   1.651   1.333 -1.2872 -0.7338 -1.3732
13529SOL     OW51805   3.532   0.415   2.793  0.5142  0.9619 -0.2576
13529SOL    HW151806   3.482   0.391   2.710  1.1152  1.5189 -0.7862
13529SOL    HW251807   3.625   0.378   2.788  0.5655  1.0357  0.1476
13530SOL     OW51808   0.758   0.847   6.119  0.7018  0.0116 -0.1893
13530SOL    HW151809   0.664   0.844   6.085  0.8063  0.9916 -0.5641
13530SOL    HW251810   0.770   0.927   6.177  1.2805 -0.1788 -0.0466
13531SOL     OW51811   3.792   3.237   2.646  0.0444  0.6403  0.9352
13531SOL    HW151812   3.754   3.328   2.660 -0.2062  0.6786  0.0068
13531SOL    HW251813   3.749   3.173   2.710 -2.2128  0.5148 -0.6455
13532SOL     OW51814   5.609   0.803   2.780  0.1887 -0.0624 -0.0008
13532SOL    HW151815   5.557   0.775   2.699 -0.8235  1.4786  0.0917
13532SOL    HW251816   5.686   0.740   2.794 -0.3495 -1.0626 -1.4363
13533SOL     OW51817   1.339   2.947   4.857  0.2361  0.0537 -0.3945
13533SOL    HW151818   1.302   2.872   4.801 -0.9662  0.4338 -0.1199
13533SOL    HW251819   1.436   2.959   4.836  0.2594 -1.0933 -0.9821
13534SOL     OW51820   0.382   0.121   5.742  1.0283  0.2978 -0.0508
13534SOL    HW151821   0.434   0.104   5.658 -1.6987  0.8403 -1.9077
13534SOL    HW251822   0.346   0.214   5.741 -1.4529 -0.6297  0.3522
13535SOL     OW51823   1.063   7.241   6.227  0.0333 -0.2231  0.3015
13535SOL    HW151824   0.969   7.222   6.198  0.3491 -2.7368  0.8134
13535SOL    HW251825   1.127   7.196   6.164  0.8584 -0.1071  1.0469
13536SOL     OW51826   7.134   0.486   2.743  0.0124  0.2675  0.0655
13536SOL    HW151827   7.097   0.421   2.676  1.0054 -0.8618  0.5799
13536SOL    HW251828   7.201   0.439   2.801  0.0380  1.5272  1.0826
13537SOL     OW51829   9.015   5.184   1.791  0.6434  0.5908 -0.2903
13537SOL    HW151830   9.079   5.254   1.824 -0.6221  1.5451  0.1636
13537SOL    HW251831   8.994   5.202   1.695  0.8042  0.4668 -0.3486
13538SOL     OW51832   1.844   2.370   3.207  0.3523 -0.1495  0.1252
13538SOL    HW151833   1.902   2.415   3.275 -1.6173  0.8271  1.1908
13538SOL    HW251834   1.813   2.281   3.242 -0.3646  0.1903  0.3568
13539SOL     OW51835   0.503   4.173   5.150 -0.4866 -0.2604  0.1052
13539SOL    HW151836   0.473   4.267   5.170 -0.9760 -0.1489 -1.0909
13539SOL    HW251837   0.434   4.109   5.181  0.5543 -0.3425  2.3714
13540SOL     OW51838   0.849   7.241   3.894  0.4253  0.2046  0.7569
13540SOL    HW151839   0.831   7.290   3.809  1.5602 -0.8196 -0.0727
13540SOL    HW251840   0.768   7.187   3.918  0.5864 -0.5583 -0.3799
13541SOL     OW51841   6.605   9.048   5.193 -0.1194 -0.0784 -0.1899
13541SOL    HW151842   6.559   9.083   5.275  0.0274 -0.1392 -0.0803
13541SOL    HW251843   6.578   9.103   5.114  0.8471  0.9126  0.1350
13542SOL     OW51844   9.836   5.404   1.814  0.0285  0.4724  0.3226
13542SOL    HW151845   9.835   5.431   1.910 -0.3394 -0.1021  0.4843
13542SOL    HW251846   9.931   5.400   1.781  0.1494  0.7209  0.6453
13543SOL     OW51847   2.014   2.376   2.981 -0.5544 -0.3629 -0.0319
13543SOL    HW151848   1.938   2.374   3.045 -0.6580  1.4848 -0.0444
13543SOL    HW251849   2.068   2.293   2.989 -1.0552 -0.5206  1.8366
13544SOL     OW51850   8.338   9.140   4.629 -0.4238  0.1117  0.2613
13544SOL    HW151851   8.436   9.134   4.613 -0.4623  0.5771 -0.2021
13544SOL    HW251852   8.290   9.138   4.541 -0.7548  1.1017  0.4118
13545SOL     OW51853   7.292   7.812   3.838 -0.0271 -0.6487 -0.2107
13545SOL    HW151854   7.264   7.738   3.900 -1.3337  0.7659  0.9331
13545SOL    HW251855   7.237   7.808   3.755 -0.6018 -0.5425  0.1590
13546SOL     OW51856   3.853   2.735   1.293  0.4597 -0.3787 -0.3135
13546SOL    HW151857   3.870   2.818   1.240  0.8109  0.6376  1.3218
13546SOL    HW251858   3.759   2.705   1.278  0.2604  0.4463 -0.7557
13547SOL     OW51859   8.663   4.507   5.854 -0.3174  0.7538 -0.6084
13547SOL    HW151860   8.704   4.510   5.763  0.9358  1.1187 -0.0361
13547SOL    HW251861   8.625   4.597   5.876 -0.2269  0.7858 -0.5846
13548SOL     OW51862   1.794   7.156   6.368  0.4132  0.5128 -0.2735
13548SOL    HW151863   1.787   7.062   6.402  0.0494  0.4956 -0.3959
13548SOL    HW251864   1.771   7.219   6.442 -1.3636  0.4484 -0.7520
13549SOL     OW51865   4.214   1.335   0.723  0.1995  0.5743 -0.1812
13549SOL    HW151866   4.198   1.378   0.812  3.3562  0.0965  0.6844
13549SOL    HW251867   4.296   1.278   0.728 -0.0831 -0.1703 -3.1640
13550SOL     OW51868   3.550   0.988   1.524  0.2729  0.0904  0.1158
13550SOL    HW151869   3.534   0.938   1.438 -0.1119 -1.9906  1.3643
13550SOL    HW251870   3.647   0.983   1.547  0.3556  0.5461 -0.1261
13551SOL     OW51871   3.828   2.950   2.200  0.1684  1.0146 -0.1794
13551SOL    HW151872   3.730   2.954   2.216  0.0385  1.8470 -1.1169
13551SOL    HW251873   3.856   2.855   2.183 -0.5763  0.8559 -0.5174
13552SOL     OW51874   2.661   5.028   6.245  0.0610  0.5923  0.2758
13552SOL    HW151875   2.617   4.991   6.164  1.5973 -1.8914  0.5290
13552SOL    HW251876   2.702   5.117   6.223  1.4725 -0.5878 -1.9772
13553SOL     OW51877   2.533   7.576   4.461 -0.4755 -0.1132 -0.1906
13553SOL    HW151878   2.475   7.514   4.408 -1.8098 -0.1804  1.3023
13553SOL    HW251879   2.476   7.630   4.524  1.0694 -0.2365  1.3715
13554SOL     OW51880   0.950   1.406   3.151  0.1579  0.1703 -0.0117
13554SOL    HW151881   0.916   1.364   3.234 -1.0538 -0.1668 -0.6603
13554SOL    HW251882   0.974   1.502   3.169  1.6792 -0.4238  1.1499
13555SOL     OW51883   1.566   8.293   2.099 -0.6676 -0.0844 -0.3705
13555SOL    HW151884   1.584   8.207   2.052 -1.5308 -0.9343  0.8211
13555SOL    HW251885   1.547   8.275   2.196 -1.3698  1.3845 -0.2161
13556SOL     OW51886   6.803   3.686   0.519 -0.1590 -0.6294  0.3573
13556SOL    HW151887   6.750   3.602   0.531 -1.8191  0.3836  0.2805
13556SOL    HW251888   6.834   3.719   0.608 -1.7666  0.0973  0.6597
13557SOL     OW51889   1.819   5.257   6.699  0.0530  0.6421 -0.3222
13557SOL    HW151890   1.909   5.280   6.660 -0.3692 -0.7838 -2.2049
13557SOL    HW251891   1.752   5.324   6.669 -0.2127 -0.2938 -1.8830
13558SOL     OW51892   5.730   0.421   0.835 -0.7836 -0.2071 -0.4401
13558SOL    HW151893   5.759   0.458   0.747  1.2254 -0.7186 -0.0007
13558SOL    HW251894   5.687   0.494   0.889  1.0780  0.9386 -0.4811
13559SOL     OW51895   1.511   5.131   2.766  0.1635 -0.0511  0.0553
13559SOL    HW151896   1.478   5.128   2.672  0.0342 -0.9355  0.1211
13559SOL    HW251897   1.515   5.226   2.797 -1.4105  0.1344 -0.2656
13560SOL     OW51898   9.518   0.842   6.199  0.3584  0.2466 -0.4979
13560SOL    HW151899   9.562   0.843   6.289 -0.2925  0.6115 -0.1886
13560SOL    HW251900   9.459   0.922   6.189  0.2497  0.0867 -1.1620
13561SOL     OW51901   1.545   8.880   0.123  0.3272  0.1538 -0.1586
13561SOL    HW151902   1.590   8.957   0.078 -0.1432  0.2378 -0.4840
13561SOL    HW251903   1.446   8.891   0.118  0.2699  0.3897  1.2751
13562SOL     OW51904   3.352   4.154   3.471  0.3939 -0.5386 -0.6603
13562SOL    HW151905   3.292   4.087   3.426  1.1171 -0.2686 -2.0710
13562SOL    HW251906   3.420   4.186   3.405  0.7162  0.7987  0.3117
13563SOL     OW51907   2.784   6.220   3.887 -0.0409 -0.1380  0.3211
13563SOL    HW151908   2.731   6.272   3.820 -0.4541 -0.4296  0.4145
13563SOL    HW251909   2.865   6.181   3.844 -0.3013 -0.3163 -0.0126
13564SOL     OW51910   8.045   2.243   2.219  0.0747 -0.1724  0.3814
13564SOL    HW151911   8.144   2.255   2.206  0.1478 -1.4627 -0.3560
13564SOL    HW251912   7.997   2.286   2.143 -0.0054  1.5471  1.3792
13565SOL     OW51913   3.926   9.982   6.544 -0.2957  0.1785 -0.4672
13565SOL    HW151914   3.986   9.921   6.595 -1.7074  0.2189  1.2704
13565SOL    HW251915   3.964   9.997   6.452  0.0557 -3.2808 -0.9398
13566SOL     OW51916   9.561   5.560   6.250  0.1844  0.0189 -0.2694
13566SOL    HW151917   9.487   5.528   6.191 -0.5567  0.6225  0.3110
13566SOL    HW251918   9.621   5.622   6.200  0.6122 -0.8967 -0.8960
13567SOL     OW51919   0.341   9.419   5.818  0.1449 -0.0436 -0.3754
13567SOL    HW151920   0.429   9.417   5.866  0.2428  1.8409 -0.4261
13567SOL    HW251921   0.271   9.455   5.880 -0.3058 -0.2309 -0.7767
13568SOL     OW51922   7.152   7.292   5.792 -0.2864 -0.0276  0.4248
13568SOL    HW151923   7.097   7.299   5.710 -2.1257 -0.1948  1.6194
13568SOL    HW251924   7.229   7.356   5.787  0.1333 -0.6846 -1.7888
13569SOL     OW51925   3.161   2.651   3.644 -0.5187  0.2478  0.4929
13569SOL    HW151926   3.108   2.669   3.727 -0.8921 -2.1050  0.8004
13569SOL    HW251927   3.102   2.665   3.564 -1.1247 -0.6979  0.7657
13570SOL     OW51928   1.506   4.557   0.401 -0.0230 -0.3402  0.5130
13570SOL    HW151929   1.412   4.590   0.396 -0.3674 -1.1250  1.6160
13570SOL    HW251930   1.561   4.605   0.333 -0.9945  0.8756  0.5493
13571SOL     OW51931   6.438   5.413   0.281 -0.7847  0.0478  0.1557
13571SOL    HW151932   6.421   5.512   0.280  0.5841  0.2903  0.1481
13571SOL    HW251933   6.377   5.369   0.347  0.1791  1.1920  1.8374
13572SOL     OW51934   3.639   5.842   6.496  0.2695  0.0438  0.0613
13572SOL    HW151935   3.563   5.788   6.534  0.4853 -0.4117 -0.1474
13572SOL    HW251936   3.667   5.912   6.562 -0.9115  0.7860 -0.2126
13573SOL     OW51937   3.664   5.520   6.617  0.5465  0.9792  0.1129
13573SOL    HW151938   3.721   5.507   6.698 -0.9438  0.1288  1.0633
13573SOL    HW251939   3.569   5.531   6.646 -0.5220 -2.7438 -1.6494
13574SOL     OW51940   4.704   2.451   0.033  0.0569 -0.1171  0.3272
13574SOL    HW151941   4.734   2.411   0.120 -0.9831 -0.0796  0.7032
13574SOL    HW251942   4.645   2.386  -0.014 -0.2920  0.3216  0.1622
13575SOL     OW51943   5.313   1.178   1.748 -0.5199  0.2618  0.6295
13575SOL    HW151944   5.355   1.194   1.658  1.1850  0.1973  1.3909
13575SOL    HW251945   5.296   1.266   1.793  2.3451  0.2373  1.8829
13576SOL     OW51946   4.300   8.087   5.598  0.5838  0.4827 -0.4861
13576SOL    HW151947   4.312   8.162   5.663  0.1820  0.5616 -0.5006
13576SOL    HW251948   4.276   8.124   5.508 -2.1361  0.2271  0.1148
13577SOL     OW51949   1.925   1.129   3.615  0.2302  0.2024  0.1857
13577SOL    HW151950   1.996   1.088   3.558 -0.1750  0.0316 -0.2027
13577SOL    HW251951   1.865   1.185   3.558 -1.3713 -1.5627  0.0871
13578SOL     OW51952   7.162   0.377   2.375 -0.8348  0.6004  0.5332
13578SOL    HW151953   7.199   0.303   2.431 -2.0161  0.9538  1.8047
13578SOL    HW251954   7.174   0.464   2.423 -0.5427  1.0885 -0.4200
13579SOL     OW51955   1.849   5.485   5.881 -0.1373  0.3296  0.3501
13579SOL    HW151956   1.830   5.481   5.979  1.5674  1.0444  0.7293
13579SOL    HW251957   1.851   5.393   5.843 -1.8227  0.1110  0.7751
13580SOL     OW51958   9.886   5.729   2.533  0.3217  0.4548 -0.0054
13580SOL    HW151959   9.863   5.780   2.616 -1.1868  0.8054 -0.6199
13580SOL    HW251960   9.802   5.697   2.489  1.1450 -0.4565 -0.9468
13581SOL     OW51961   2.168   4.787   4.961  0.8484 -0.1605 -0.2524
13581SOL    HW151962   2.148   4.878   4.924  1.9673 -0.5870 -1.9256
13581SOL    HW251963   2.247   4.792   5.022 -0.8261  0.4908  1.9239
13582SOL     OW51964   6.775   8.416   5.202 -0.4669 -0.0733  0.2406
13582SOL    HW151965   6.685   8.429   5.244 -0.3397  0.1332  0.4532
13582SOL    HW251966   6.788   8.482   5.129 -1.8954 -2.3677 -2.1588
13583SOL     OW51967   9.149   9.373   5.560 -0.4482 -0.5871 -0.1097
13583SOL    HW151968   9.207   9.291   5.563 -0.0094 -0.3236 -1.1990
13583SOL    HW251969   9.166   9.429   5.641 -0.6111 -1.4815  0.5407
13584SOL     OW51970   2.981   5.162   6.398 -0.3956  0.1160  0.0344
13584SOL    HW151971   3.020   5.083   6.446  0.1419  0.5185  0.2625
13584SOL    HW251972   3.006   5.246   6.446  0.6146  0.5654 -1.2649
13585SOL     OW51973   8.042   6.828   4.577  0.7403 -0.3683  0.3763
13585SOL    HW151974   8.027   6.907   4.518 -1.8925 -0.7590  0.4639
13585SOL    HW251975   8.015   6.851   4.670  1.7412 -0.7941  0.7760
13586SOL     OW51976   8.164   4.017   5.581  0.3735 -0.4039  0.0377
13586SOL    HW151977   8.245   3.992   5.528 -0.3954  1.1309 -1.9612
13586SOL    HW251978   8.118   4.094   5.536 -0.1459  1.1828  3.1287
13587SOL     OW51979   7.709   8.668   4.158 -0.2388 -0.2168 -0.5640
13587SOL    HW151980   7.787   8.607   4.175 -1.7506 -1.5623  1.7877
13587SOL    HW251981   7.727   8.757   4.200  0.7291  0.0179 -1.4620
13588SOL     OW51982   4.697   8.008   4.358 -0.1855 -0.1643 -0.3041
13588SOL    HW151983   4.624   7.954   4.400 -0.3679  0.4695  0.1910
13588SOL    HW251984   4.786   7.976   4.392 -0.2696 -0.4636 -0.3657
13589SOL     OW51985   9.501   5.513   1.690 -0.3145 -0.4489  0.0546
13589SOL    HW151986   9.435   5.440   1.705 -2.5703  1.3423 -0.8239
13589SOL    HW251987   9.575   5.480   1.632 -0.3430 -2.5358  1.1716
13590SOL     OW51988   0.714   1.378   5.978 -0.5976 -0.2100 -0.5138
13590SOL    HW151989   0.740   1.383   5.881 -1.1533  0.3147 -0.6402
13590SOL    HW251990   0.633   1.434   5.993 -0.6576 -0.4948  0.2112
13591SOL     OW51991   4.289   3.498   5.780 -0.3760  0.1297 -0.1272
13591SOL    HW151992   4.341   3.494   5.695  2.2914  1.1277  1.3721
13591SOL    HW251993   4.268   3.593   5.803 -0.9610 -0.1154  0.3846
13592SOL     OW51994   3.457   8.080   3.959 -0.1718  0.0847  0.2981
13592SOL    HW151995   3.522   8.155   3.968 -1.7874  1.6394 -0.7907
13592SOL    HW251996   3.388   8.088   4.031 -0.9472  0.2607 -0.4629
13593SOL     OW51997   4.613   1.258   2.993  0.7293 -0.4652 -0.4598
13593SOL    HW151998   4.549   1.216   3.058  0.5018 -2.6075 -2.0093
13593SOL    HW251999   4.706   1.253   3.030  0.2727  0.7715  0.8795
13594SOL     OW52000   1.268   5.370   2.284 -0.0256  0.1823 -0.1167
13594SOL    HW152001   1.190   5.429   2.264  1.0088  2.1531  1.4932
13594SOL    HW252002   1.351   5.410   2.244  0.3261 -1.4294 -1.0461
13595SOL     OW52003   6.775   7.661   3.199  0.8620 -0.3101  0.2489
13595SOL    HW152004   6.830   7.605   3.260 -0.2750 -0.0018  1.5650
13595SOL    HW252005   6.678   7.651   3.222  0.5011  0.6041 -0.8311
13596SOL     OW52006   4.321   2.410   1.119 -0.8861  0.1046  0.3801
13596SOL    HW152007   4.345   2.360   1.203 -1.8380 -0.3134  0.4072
13596SOL    HW252008   4.380   2.490   1.110  0.3243 -0.7570  0.5984
13597SOL     OW52009   1.099   5.304   5.433  0.0106  0.1292  0.0746
13597SOL    HW152010   1.080   5.207   5.413  1.9871 -0.5566  1.3564
13597SOL    HW252011   1.087   5.320   5.531  1.7137  0.6733  0.2038
13598SOL     OW52012   6.602   9.878   3.212 -0.1852 -0.0156 -0.4541
13598SOL    HW152013   6.684   9.831   3.245 -1.1478 -0.2626  1.7283
13598SOL    HW252014   6.603   9.973   3.242  0.1044  0.4294 -1.8713
13599SOL     OW52015   1.823   4.196   4.826 -0.2402  0.7716 -0.2194
13599SOL    HW152016   1.858   4.279   4.782  0.9563  0.7244  0.6261
13599SOL    HW252017   1.894   4.157   4.884 -1.5041  0.3300  1.0584
13600SOL     OW52018   8.527   2.769   3.139 -0.0233 -0.1589  0.4231
13600SOL    HW152019   8.430   2.747   3.145 -0.4081  1.2821 -0.3232
13600SOL    HW252020   8.556   2.817   3.222 -0.2112  0.3856  0.1756
13601SOL     OW52021   9.317   1.956   5.044 -0.5061  0.3100  0.0138
13601SOL    HW152022   9.252   1.896   5.090  0.0465  0.2759  0.7682
13601SOL    HW252023   9.345   2.029   5.106  0.9748 -0.2854  0.0576
13602SOL     OW52024   9.921   0.060   4.737 -0.6305  0.0311 -0.3466
13602SOL    HW152025   9.955   0.152   4.756 -1.9057  0.4620 -0.1492
13602SOL    HW252026   9.997   0.003   4.706  0.1623  1.1492 -0.4909
13603SOL     OW52027   3.168   8.506   3.830 -0.3138  0.1698 -0.3764
13603SOL    HW152028   3.231   8.571   3.787  0.0795 -1.4761 -2.3895
13603SOL    HW252029   3.076   8.521   3.794  0.0826 -1.4561 -2.1806
13604SOL     OW52030   5.952   5.005   0.872 -0.0707  0.7664  0.0900
13604SOL    HW152031   5.999   4.995   0.960  0.0685  1.3488  0.0811
13604SOL    HW252032   5.887   4.929   0.861 -0.1794  0.7563  0.7493
13605SOL     OW52033   5.008   2.855   2.578  0.1768 -0.0512 -0.1037
13605SOL    HW152034   4.943   2.842   2.652  0.2871 -0.7666 -0.1262
13605SOL    HW252035   4.959   2.874   2.493  0.0270  0.1390  0.0259
13606SOL     OW52036   8.504   1.684   1.646  0.7844 -0.2844 -0.0303
13606SOL    HW152037   8.440   1.744   1.694 -0.9405 -0.6228 -1.8318
13606SOL    HW252038   8.475   1.589   1.657 -0.3707 -0.2848 -2.7132
13607SOL     OW52039   3.842   1.813   6.738  0.0683 -0.1206  1.0577
13607SOL    HW152040   3.769   1.781   6.799  0.1600 -0.2753  1.0857
13607SOL    HW252041   3.854   1.749   6.663 -0.4778  0.3967  0.5270
13608SOL     OW52042   6.768   3.734   6.649 -0.0100 -0.1617  0.2223
13608SOL    HW152043   6.683   3.698   6.688  1.0819 -1.2201  1.6715
13608SOL    HW252044   6.837   3.662   6.647  1.2807  1.0573  0.3498
13609SOL     OW52045   9.905   7.726   6.429  0.3021 -0.5852  0.2553
13609SOL    HW152046   9.829   7.725   6.365 -0.8633  1.1507  1.5643
13609SOL    HW252047   9.877   7.683   6.515 -0.5863  3.5225  2.1598
13610SOL     OW52048   9.490   5.224   1.337 -0.2855 -0.1564 -0.5624
13610SOL    HW152049   9.534   5.185   1.418  0.9468  0.7287 -0.7925
13610SOL    HW252050   9.443   5.152   1.286 -0.8149 -0.7692  0.7712
13611SOL     OW52051   3.335   3.171   3.876 -0.6740 -0.1295 -0.1762
13611SOL    HW152052   3.396   3.202   3.948 -1.4817 -0.4873  0.6769
13611SOL    HW252053   3.240   3.188   3.903 -1.0661 -2.0037 -0.3185
13612SOL     OW52054   9.197   9.549   2.821 -0.0090 -0.2964 -0.4094
13612SOL    HW152055   9.289   9.514   2.839 -0.7245 -1.3642  1.2690
13612SOL    HW252056   9.148   9.487   2.761 -0.2481 -0.6483  0.1483
13613SOL     OW52057   2.123   3.797   6.183 -0.1102 -0.1403  0.1757
13613SOL    HW152058   2.056   3.785   6.110  0.0792 -0.8965  0.1265
13613SOL    HW252059   2.086   3.762   6.269 -0.6022  1.3749  0.5956
13614SOL     OW52060   1.713   7.480   5.688 -0.2753 -0.3633  0.2737
13614SOL    HW152061   1.774   7.499   5.612 -0.7712 -0.4323 -0.1463
13614SOL    HW252062   1.765   7.477   5.773  0.2721 -0.2389 -0.0570
13615SOL     OW52063   8.202   7.271   3.132 -0.4321  0.0997 -0.0981
13615SOL    HW152064   8.102   7.266   3.144 -0.4876  1.2908 -0.0882
13615SOL    HW252065   8.224   7.272   3.035 -0.4080 -0.3254 -0.1023
13616SOL     OW52066   9.153   5.592   3.744  0.1369  0.4063  0.7122
13616SOL    HW152067   9.067   5.559   3.781  0.6206 -1.7495 -0.0366
13616SOL    HW252068   9.141   5.620   3.648  0.4034 -0.5016  0.4101
13617SOL     OW52069   2.574   2.884   6.472  0.0466 -0.3310  0.1422
13617SOL    HW152070   2.599   2.814   6.539 -0.1502 -0.1949  0.3593
13617SOL    HW252071   2.614   2.861   6.383  1.2288  0.0507  0.5620
13618SOL     OW52072   0.323   1.765   3.877  0.0352  0.5189  0.0049
13618SOL    HW152073   0.234   1.749   3.919 -0.1975 -0.4108 -0.8145
13618SOL    HW252074   0.316   1.839   3.810 -0.8263 -1.3769 -2.1093
13619SOL     OW52075   1.813   7.787   2.278  0.0458 -0.2297  0.3609
13619SOL    HW152076   1.817   7.707   2.218 -0.5903  0.1958 -0.2698
13619SOL    HW252077   1.811   7.758   2.373  0.2975 -0.9481  0.1479
13620SOL     OW52078   4.385   9.545   1.905 -0.3025 -0.3201 -0.7490
13620SOL    HW152079   4.461   9.481   1.919  0.0694 -0.1376 -1.8328
13620SOL    HW252080   4.396   9.590   1.816 -1.8001 -0.4432 -1.0081
13621SOL     OW52081   9.819   2.311   2.325 -0.1394  0.0374  0.0575
13621SOL    HW152082   9.865   2.248   2.262 -1.7283 -1.4204  0.3131
13621SOL    HW252083   9.737   2.347   2.281 -0.2746  0.4214  0.6243
13622SOL     OW52084   3.885   7.896   5.608  0.4720 -0.1806 -0.1102
13622SOL    HW152085   3.884   7.799   5.633 -3.5271  0.3265  2.1244
13622SOL    HW252086   3.941   7.947   5.674  1.4097 -0.7706 -0.4502
13623SOL     OW52087   0.417   9.667   2.561  0.2576  0.5105  0.0203
13623SOL    HW152088   0.455   9.636   2.648 -0.8619 -2.2239 -0.4341
13623SOL    HW252089   0.469   9.746   2.529  0.9103  1.3326  2.9679
13624SOL     OW52090   8.259   3.711   1.168 -0.0715  0.2052  0.1049
13624SOL    HW152091   8.198   3.709   1.090 -0.5558 -2.0768  0.4932
13624SOL    HW252092   8.309   3.797   1.170 -0.6477  0.6116 -2.2391
13625SOL     OW52093   6.207   9.021   2.252 -0.1780  0.0488  0.3149
13625SOL    HW152094   6.154   9.097   2.215  0.3133  0.8086  1.1356
13625SOL    HW252095   6.274   9.056   2.317 -1.0810 -1.2538  1.9905
13626SOL     OW52096   6.120   8.742   2.094  0.5846 -0.3486 -0.2575
13626SOL    HW152097   6.170   8.803   2.033  2.0881 -2.5879 -1.3415
13626SOL    HW252098   6.134   8.771   2.189  2.4555  0.1549 -0.6661
13627SOL     OW52099   7.284   1.464   1.548 -0.5309 -0.1341  0.0478
13627SOL    HW152100   7.203   1.468   1.488  0.3078  0.2311 -1.0883
13627SOL    HW252101   7.255   1.444   1.641 -1.9768  0.3922 -0.2674
13628SOL     OW52102   4.211   9.908   5.399 -0.1664  0.2330  0.3645
13628SOL    HW152103   4.185   9.997   5.363 -3.0039 -0.5043  0.4615
13628SOL    HW252104   4.187   9.837   5.333  1.0276 -0.5659  0.7754
13629SOL     OW52105   8.006   4.769   6.392 -0.2015  0.3159  0.0709
13629SOL    HW152106   7.909   4.755   6.374  0.2013 -4.0556  0.8232
13629SOL    HW252107   8.018   4.804   6.485 -1.0190  0.7658  0.0119
13630SOL     OW52108   2.827   1.920   2.086 -0.0170  0.2341  0.4991
13630SOL    HW152109   2.732   1.912   2.115 -0.8491 -0.0378 -2.2282
13630SOL    HW252110   2.837   1.885   1.993  2.2706  2.4902 -0.1640
13631SOL     OW52111   9.234   5.358   0.539  0.7084  0.1667 -0.2616
13631SOL    HW152112   9.266   5.453   0.537  1.4086 -0.0655  0.0094
13631SOL    HW252113   9.272   5.311   0.618 -0.5420 -0.0330  0.2334
13632SOL     OW52114   1.957   3.735   5.001  0.3937  0.3742  0.2019
13632SOL    HW152115   1.885   3.749   4.933 -1.2197 -0.0437  1.7842
13632SOL    HW252116   1.963   3.816   5.060  1.3203  0.4624 -0.0122
13633SOL     OW52117   9.282   6.485   1.043 -0.1637 -0.2012  0.2308
13633SOL    HW152118   9.193   6.524   1.067 -1.0380 -0.4172 -2.4583
13633SOL    HW252119   9.352   6.556   1.044 -0.0483 -0.2861  3.6805
13634SOL     OW52120   0.556   8.189   5.678  0.2942  0.3425 -0.0891
13634SOL    HW152121   0.529   8.282   5.701  1.0592  0.8164 -1.0693
13634SOL    HW252122   0.609   8.189   5.593 -0.2403 -1.0555 -0.4457
13635SOL     OW52123   9.049   9.916   4.934  0.3705 -0.3572  1.2040
13635SOL    HW152124   9.004   9.871   5.011 -1.9585 -1.5391 -0.7604
13635SOL    HW252125   9.077   9.847   4.868  0.4906  0.7709  0.0673
13636SOL     OW52126   0.505   2.035   6.167  0.7076  0.1483  0.0754
13636SOL    HW152127   0.588   2.020   6.113  0.6679 -0.2863  0.1344
13636SOL    HW252128   0.446   1.955   6.160  1.5810 -0.7344  2.3438
13637SOL     OW52129   5.526   0.432   2.106 -0.1008 -0.5362 -0.0641
13637SOL    HW152130   5.472   0.492   2.046 -2.5590 -1.5172  1.0987
13637SOL    HW252131   5.525   0.339   2.069  0.2385 -0.6922  0.3258
13638SOL     OW52132   2.099   6.944   0.305 -0.5444  0.3315  0.7221
13638SOL    HW152133   2.055   6.888   0.374  0.2038 -1.0047  0.1340
13638SOL    HW252134   2.051   6.934   0.218 -0.3104  0.4567  0.5762
13639SOL     OW52135   0.864   0.699   3.730 -0.5778  0.0055 -0.1949
13639SOL    HW152136   0.953   0.724   3.769 -1.0294  1.5933 -0.1674
13639SOL    HW252137   0.794   0.702   3.802 -0.8351 -0.2701 -0.4316
13640SOL     OW52138   0.803   5.785   0.280  0.1817 -0.7091 -0.3880
13640SOL    HW152139   0.818   5.751   0.373 -1.0034  0.0935  0.1164
13640SOL    HW252140   0.855   5.729   0.215  2.6656 -0.0365  0.9281
13641SOL     OW52141   8.410   9.488   4.494  0.2198  0.6096  0.4229
13641SOL    HW152142   8.313   9.465   4.483 -0.0216  1.8998 -0.1865
13641SOL    HW252143   8.463   9.447   4.420 -0.1389  1.5769 -0.3723
13642SOL     OW52144   4.597   2.951   3.412  0.1663  0.1276 -0.1795
13642SOL    HW152145   4.670   2.971   3.347  1.5215  2.2573  1.8996
13642SOL    HW252146   4.589   2.853   3.426  1.0465 -0.2444 -2.1838
13643SOL     OW52147   8.182   8.640   1.699 -0.4480 -0.0925  0.7010
13643SOL    HW152148   8.275   8.667   1.674 -1.0047  0.0867 -1.2928
13643SOL    HW252149   8.180   8.610   1.794  1.4127  1.0255  1.1186
13644SOL     OW52150   6.826   0.745   4.264 -0.3785  0.3796  0.6004
13644SOL    HW152151   6.797   0.834   4.301 -1.5483 -0.0352  0.6818
13644SOL    HW252152   6.853   0.685   4.340  1.4632  1.0204  0.4798
13645SOL     OW52153   1.523   5.959   4.708 -0.4440 -0.3190 -0.3097
13645SOL    HW152154   1.542   6.027   4.637 -0.3173 -0.1769 -0.1388
13645SOL    HW252155   1.602   5.900   4.719  0.5930  1.3632  1.6293
13646SOL     OW52156   9.495   7.904   1.166 -0.0728  0.0567 -0.4181
13646SOL    HW152157   9.574   7.940   1.214 -1.1831  0.3549  1.2432
13646SOL    HW252158   9.418   7.967   1.177 -0.3820  0.0796 -2.5345
13647SOL     OW52159   5.767   9.041   4.017 -0.4050  0.1739  0.5483
13647SOL    HW152160   5.678   9.087   4.026 -0.8125 -0.5782  0.4034
13647SOL    HW252161   5.811   9.072   3.933 -0.0635  1.3328  1.1446
13648SOL     OW52162   9.630   9.388   4.139  0.1821  0.0371  0.9486
13648SOL    HW152163   9.543   9.421   4.102 -0.5000 -1.4408  1.1736
13648SOL    HW252164   9.640   9.418   4.234 -0.3159 -0.2070  1.0790
13649SOL     OW52165   0.736   7.630   3.522  0.4430  0.2064  0.3296
13649SOL    HW152166   0.739   7.712   3.579 -0.1373  0.3487  0.1611
13649SOL    HW252167   0.827   7.611   3.486  0.4153  1.2604 -0.3118
13650SOL     OW52168   9.032   7.986   1.153 -0.4975  0.2866 -0.2157
13650SOL    HW152169   9.009   7.895   1.119  1.0140 -0.5640  0.9551
13650SOL    HW252170   8.994   7.997   1.245  0.5387  0.2922  0.2155
13651SOL     OW52171   8.820   7.347   6.388 -0.5889 -0.2105  0.4695
13651SOL    HW152172   8.851   7.352   6.483  0.6536 -1.0001  0.1227
13651SOL    HW252173   8.888   7.392   6.329  0.0357 -2.1362 -0.3229
13652SOL     OW52174   0.910   6.960   2.047  0.7100  0.0504  0.4227
13652SOL    HW152175   0.896   7.019   2.126 -0.7717  0.4602 -0.1263
13652SOL    HW252176   0.942   6.870   2.077 -0.3823  0.0222  1.5224
13653SOL     OW52177   7.383   8.238   3.550  0.4319 -0.3112  0.4087
13653SOL    HW152178   7.381   8.271   3.455  0.2474  0.4361  0.6732
13653SOL    HW252179   7.311   8.170   3.563  0.5776 -0.5541 -0.0366
13654SOL     OW52180   5.613   9.329   2.970 -0.4084 -0.2962  0.0983
13654SOL    HW152181   5.640   9.266   2.897  0.9913 -0.4110  0.6981
13654SOL    HW252182   5.530   9.376   2.944 -0.0763 -0.5433 -1.4604
13655SOL     OW52183   8.069   2.446   5.532 -0.0742  0.0986 -0.1178
13655SOL    HW152184   8.030   2.374   5.475 -0.9522  1.2598 -1.0024
13655SOL    HW252185   8.143   2.491   5.482  0.3410 -0.0417  0.3599
13656SOL     OW52186   8.000   9.445   1.015 -0.6213  0.0930  0.8085
13656SOL    HW152187   7.979   9.491   1.101  0.0054 -0.5718  1.3270
13656SOL    HW252188   8.096   9.417   1.014 -0.1097  1.8607 -0.9600
13657SOL     OW52189   2.885   4.440   2.975  0.1148  0.1394  0.7281
13657SOL    HW152190   2.792   4.469   2.953  0.2786 -0.0970 -0.2894
13657SOL    HW252191   2.892   4.422   3.073 -0.6044  1.2853  0.9947
13658SOL     OW52192   0.082   2.648   3.045  0.2332 -0.1636 -0.3187
13658SOL    HW152193   0.040   2.739   3.052  1.5128  0.5455 -1.5671
13658SOL    HW252194   0.047   2.590   3.118 -1.0743  1.1421  0.1286
13659SOL     OW52195   2.966   7.901   0.634 -0.3016  0.0789  0.0113
13659SOL    HW152196   2.913   7.972   0.589 -0.6740 -1.0084 -1.2866
13659SOL    HW252197   3.058   7.936   0.655 -0.0198  0.5001 -1.8783
13660SOL     OW52198   9.588   9.464   0.439  0.1200 -0.2380  0.5269
13660SOL    HW152199   9.496   9.434   0.412  0.3557 -0.4962  0.0068
13660SOL    HW252200   9.592   9.474   0.539 -0.3367 -0.6861  0.5934
13661SOL     OW52201   1.308   6.544   3.695  0.5691 -0.1434 -0.1257
13661SOL    HW152202   1.394   6.579   3.658 -0.1374 -1.0672 -2.7016
13661SOL    HW252203   1.257   6.619   3.736  0.5077  1.3041 -2.7549
13662SOL     OW52204   0.848   6.162   2.498  0.2388 -0.0854  0.2963
13662SOL    HW152205   0.854   6.251   2.543  1.8116 -0.2418  0.4291
13662SOL    HW252206   0.768   6.161   2.437 -0.8956  0.7368  1.7215
13663SOL     OW52207   4.669   6.729   1.417  0.0343 -0.4715  0.4320
13663SOL    HW152208   4.674   6.630   1.406  0.0131 -0.4007 -0.2778
13663SOL    HW252209   4.623   6.752   1.502  2.0070 -1.0847  1.7036
13664SOL     OW52210   9.899   6.170   4.725  0.0689 -0.1619 -0.4965
13664SOL    HW152211   9.885   6.237   4.798  2.0999 -0.4038  0.1303
13664SOL    HW252212   9.892   6.078   4.763 -1.7694 -0.3373 -1.1839
13665SOL     OW52213   1.180   9.021   4.364  0.1488 -0.4452 -0.6191
13665SOL    HW152214   1.134   9.077   4.433 -1.6536 -1.6758 -0.7763
13665SOL    HW252215   1.266   8.986   4.401 -0.0149  0.2326  0.4158
13666SOL     OW52216   3.521   0.085   6.153 -0.1018  0.0763  0.1149
13666SOL    HW152217   3.451   0.138   6.200 -0.5000 -0.5291  0.2167
13666SOL    HW252218   3.597   0.067   6.216  0.0677  0.5892  0.0549
13667SOL     OW52219   1.937   5.235   5.032 -0.6089  0.9087  0.3189
13667SOL    HW152220   1.844   5.207   5.055 -0.9642  0.5721 -1.4543
13667SOL    HW252221   1.935   5.292   4.950  0.6933  1.3792  0.6030
13668SOL     OW52222   9.516   0.858   1.779  0.2022  0.1740  0.4350
13668SOL    HW152223   9.599   0.912   1.791  0.9443 -1.0229  0.8126
13668SOL    HW252224   9.445   0.891   1.842  0.1311  1.6721 -0.4071
13669SOL     OW52225   4.561   1.079   2.749  0.5256  0.1766 -0.9333
13669SOL    HW152226   4.541   1.121   2.838  0.9508 -0.7700 -0.3876
13669SOL    HW252227   4.481   1.086   2.690 -0.0498  0.0220 -0.1723
13670SOL     OW52228   5.354   0.030   5.510  0.1856  0.0288  0.3377
13670SOL    HW152229   5.414   0.014   5.589  1.5950  0.2735 -0.6755
13670SOL    HW252230   5.342   0.128   5.497 -0.9864 -0.0304  0.9476
13671SOL     OW52231   0.551   7.903   0.952  0.2435 -0.1909 -0.0287
13671SOL    HW152232   0.559   7.911   1.051 -0.4131 -1.5217  0.1426
13671SOL    HW252233   0.454   7.909   0.926  0.3110 -1.0266 -0.4775
13672SOL     OW52234   7.133   7.538   4.774  1.0564 -0.1864  0.2446
13672SOL    HW152235   7.164   7.515   4.682  0.5767  1.2675 -0.2924
13672SOL    HW252236   7.212   7.563   4.830  1.6307 -3.2916  0.9258
13673SOL     OW52237   4.351   4.697   3.240 -0.0011  0.1482  0.1698
13673SOL    HW152238   4.251   4.701   3.238  0.0642  1.4875 -1.2206
13673SOL    HW252239   4.382   4.688   3.335 -1.4272  0.0512  0.6425
13674SOL     OW52240   4.938   6.987   2.016 -0.2328  0.1823 -0.4049
13674SOL    HW152241   4.943   7.080   1.980  1.1046  0.0758 -0.5406
13674SOL    HW252242   4.996   6.980   2.098  2.2604 -1.3236 -2.2237
13675SOL     OW52243   1.864   8.431   2.911  0.1478 -0.4130 -0.0323
13675SOL    HW152244   1.844   8.351   2.968 -0.4106  0.1248  0.5316
13675SOL    HW252245   1.870   8.512   2.968  0.6696 -0.0395 -0.6108
13676SOL     OW52246   7.637   4.650   1.049  0.2950  0.2680  0.4336
13676SOL    HW152247   7.588   4.665   0.963  2.4783  1.9789 -0.5787
13676SOL    HW252248   7.611   4.562   1.088 -3.4989  1.0918 -0.0671
13677SOL     OW52249   8.459   4.787   1.563 -0.0178  0.1179 -0.7290
13677SOL    HW152250   8.499   4.865   1.515 -1.8600  0.8585 -1.1310
13677SOL    HW252251   8.504   4.774   1.651  1.0892  0.9072 -1.1751
13678SOL     OW52252   3.413   5.421   3.327  0.4649 -1.1573 -0.6035
13678SOL    HW152253   3.328   5.372   3.310 -0.5398  0.7237 -1.0220
13678SOL    HW252254   3.461   5.435   3.241 -0.2649  0.4293 -0.7593
13679SOL     OW52255   6.610   0.696   3.495 -0.2059 -0.3145 -0.6502
13679SOL    HW152256   6.611   0.786   3.538  0.4490 -0.4197 -0.4464
13679SOL    HW252257   6.533   0.691   3.431 -0.0911  0.4745 -0.8533
13680SOL     OW52258   9.682   0.699   1.955  0.1001 -0.1983  0.5904
13680SOL    HW152259   9.779   0.722   1.940  0.4045 -1.6487  0.2659
13680SOL    HW252260   9.627   0.742   1.884  0.7638 -1.1718 -0.5319
13681SOL     OW52261   2.089   4.829   2.849 -0.2495 -0.2480  0.2583
13681SOL    HW152262   2.051   4.795   2.935 -1.7946  1.0844  0.1348
13681SOL    HW252263   2.174   4.878   2.867 -2.0359  2.5647  1.4809
13682SOL     OW52264   8.768   9.845   2.935 -0.0142  0.0787  0.2205
13682SOL    HW152265   8.674   9.868   2.958  0.6938  1.9738  1.2674
13682SOL    HW252266   8.788   9.751   2.966 -1.0592  0.2438  1.4287
13683SOL     OW52267   0.668   6.677   5.290 -0.5591  0.1099  0.2058
13683SOL    HW152268   0.644   6.605   5.355 -1.3885  0.1243 -0.0807
13683SOL    HW252269   0.592   6.742   5.283  0.4175  1.3656  0.9370
13684SOL     OW52270   7.667   1.193   2.976 -0.4348 -0.4975 -0.2507
13684SOL    HW152271   7.639   1.166   2.884  0.8481  1.1068 -1.1543
13684SOL    HW252272   7.763   1.167   2.990  0.1025  1.3315 -0.2764
13685SOL     OW52273   9.076   0.879   3.377  0.2496 -0.0385 -0.1102
13685SOL    HW152274   9.167   0.919   3.363  0.5477 -0.7854 -0.3717
13685SOL    HW252275   9.009   0.931   3.324  1.1489 -1.9336 -3.2618
13686SOL     OW52276   6.172   7.491   5.325  0.0267  0.6325 -0.8703
13686SOL    HW152277   6.094   7.550   5.345 -0.2928 -0.2761  0.6834
13686SOL    HW252278   6.256   7.544   5.329 -0.1743  0.8118  1.4661
13687SOL     OW52279   2.327   9.287   4.820 -0.1812 -0.0127 -0.1251
13687SOL    HW152280   2.237   9.259   4.853 -1.3321  0.8451 -2.3870
13687SOL    HW252281   2.345   9.382   4.846  0.9834 -0.8029  2.0773
13688SOL     OW52282   7.134   2.475   1.517 -0.5035 -0.0009 -0.1809
13688SOL    HW152283   7.122   2.386   1.474 -1.5042  0.2182 -0.3581
13688SOL    HW252284   7.227   2.482   1.554  0.2357 -0.3554 -1.9104
13689SOL     OW52285   8.495   7.219   6.258 -0.1554 -0.1503  0.6671
13689SOL    HW152286   8.404   7.187   6.231 -0.6638  1.5697  0.2492
13689SOL    HW252287   8.489   7.315   6.287  1.8238  0.5390 -1.1074
13690SOL     OW52288   0.579   9.962   1.043 -0.3438 -0.1035  0.1302
13690SOL    HW152289   0.529   9.881   1.072  1.3228 -1.6983 -1.3771
13690SOL    HW252290   0.665   9.969   1.095  0.5734 -0.5655 -1.2896
13691SOL     OW52291   2.128   8.175   2.481  0.2402  0.1204 -0.2585
13691SOL    HW152292   2.052   8.118   2.511  0.3335  0.0748 -0.1072
13691SOL    HW252293   2.167   8.136   2.397  1.0604 -0.7171  0.4948
13692SOL     OW52294   0.388   0.302   5.985  0.1401 -0.2300 -1.0277
13692SOL    HW152295   0.356   0.239   5.915 -0.0248  1.5846 -2.6124
13692SOL    HW252296   0.487   0.291   5.996  0.0089 -1.2323 -0.8067
13693SOL     OW52297   0.368   9.980   1.623  0.2777 -0.1455 -0.0747
13693SOL    HW152298   0.426  10.060   1.639  1.4140 -0.9601 -0.0944
13693SOL    HW252299   0.286   9.987   1.679  0.1167  1.2878 -0.4646
13694SOL     OW52300   1.380   3.825   3.735 -0.3244  0.0658  0.6224
13694SOL    HW152301   1.426   3.904   3.774 -0.1817  0.0212  0.5442
13694SOL    HW252302   1.400   3.819   3.638  0.6532 -0.7556  0.8648
13695SOL     OW52303   8.842   1.109   1.614 -0.1701 -0.3859 -0.3421
13695SOL    HW152304   8.791   1.190   1.585  0.9979  0.5951  0.3258
13695SOL    HW252305   8.907   1.084   1.542  0.6019  0.2411  0.1310
13696SOL     OW52306   2.063   0.698   6.228  0.1333 -0.7630  0.6762
13696SOL    HW152307   2.108   0.779   6.264  0.5067 -1.1290  1.0278
13696SOL    HW252308   2.097   0.616   6.275 -0.6559 -1.0694  0.7262
13697SOL     OW52309   0.519   8.381   6.490 -0.5255 -0.2064  0.3278
13697SOL    HW152310   0.430   8.382   6.535  0.5653 -0.5983  2.5734
13697SOL    HW252311   0.576   8.454   6.528  0.0377  0.1579 -1.2154
13698SOL     OW52312   1.027   2.086   6.386  0.1316 -0.1169  0.1349
13698SOL    HW152313   1.091   2.158   6.414  0.8698 -0.9732  0.6812
13698SOL    HW252314   1.043   2.063   6.289  0.3640 -0.0307  0.1519
13699SOL     OW52315   5.997   9.330   4.955  0.0965  0.1961  0.7218
13699SOL    HW152316   5.961   9.273   5.029  1.1322  0.9487  1.8128
13699SOL    HW252317   5.932   9.404   4.936 -0.0156  0.1941  1.0921
13700SOL     OW52318   3.361   9.925   2.054 -0.1241 -0.6603  0.0447
13700SOL    HW152319   3.360   9.836   2.008 -4.0077 -0.8899  0.4569
13700SOL    HW252320   3.345   9.913   2.152 -1.0545  0.4965  0.0467
13701SOL     OW52321   1.276   5.130   2.175 -0.0156  0.0397  0.3332
13701SOL    HW152322   1.342   5.070   2.221  0.4053  0.7419  0.6558
13701SOL    HW252323   1.273   5.218   2.222 -0.6534  0.2613 -0.1193
13702SOL     OW52324   8.743   3.317   0.361  0.2494 -0.1853 -0.1813
13702SOL    HW152325   8.783   3.251   0.424 -0.0366 -0.8424 -0.6784
13702SOL    HW252326   8.656   3.349   0.397  0.2759 -0.2555 -0.0556
13703SOL     OW52327   3.378   3.533   0.017 -0.0363 -0.3928 -0.3173
13703SOL    HW152328   3.355   3.627   0.043 -1.8581 -0.6198 -1.0579
13703SOL    HW252329   3.305   3.471   0.046  0.9159 -1.5278 -0.2961
13704SOL     OW52330   4.476   1.639   3.082  0.2970  0.0726  0.4016
13704SOL    HW152331   4.461   1.689   3.167 -0.0981 -2.4907  1.8977
13704SOL    HW252332   4.542   1.565   3.098 -1.0716 -1.5155 -1.0592
13705SOL     OW52333   8.424   2.970   3.608 -0.6450 -0.5305  0.0285
13705SOL    HW152334   8.439   3.067   3.592 -1.5214 -0.8493 -2.9094
13705SOL    HW252335   8.472   2.943   3.692  2.8481  1.5733 -1.1688
13706SOL     OW52336   2.598   6.533   6.194 -0.3232 -0.1000 -0.0011
13706SOL    HW152337   2.687   6.575   6.176 -0.8761  0.5676 -1.2373
13706SOL    HW252338   2.589   6.449   6.141 -0.7623  0.2814 -0.5378
13707SOL     OW52339   8.758   0.141   0.078  0.4807  0.2045 -0.2611
13707SOL    HW152340   8.678   0.109   0.026  0.0953  1.4274 -0.4471
13707SOL    HW252341   8.841   0.126   0.024  0.8558 -4.3896  1.3584
13708SOL     OW52342   2.329   6.638   3.388  0.0723 -0.0447  0.2482
13708SOL    HW152343   2.233   6.620   3.366  0.4540 -0.9998 -0.6621
13708SOL    HW252344   2.381   6.648   3.303  1.0884 -1.1837  0.7187
13709SOL     OW52345   3.712   2.938   0.142 -0.4121 -0.7877  0.1843
13709SOL    HW152346   3.728   2.866   0.209  0.4274  0.3752  1.2635
13709SOL    HW252347   3.614   2.958   0.137 -0.3287  0.2057  2.2347
13710SOL     OW52348   2.852   0.675   1.545 -0.5973 -0.1314 -0.7961
13710SOL    HW152349   2.852   0.735   1.465 -2.3230  0.0450 -0.6804
13710SOL    HW252350   2.864   0.580   1.516 -0.0307  0.0427 -1.1500
13711SOL     OW52351   9.620   9.001   6.552  0.1298  0.1466 -0.2651
13711SOL    HW152352   9.700   8.961   6.598  0.6330 -0.9149 -2.0224
13711SOL    HW252353   9.580   9.071   6.611  2.8960  1.3488  0.2553
13712SOL     OW52354   7.649   0.494   1.262  0.7345  0.0525  0.9404
13712SOL    HW152355   7.711   0.556   1.214  0.3917 -0.5492 -0.3103
13712SOL    HW252356   7.588   0.546   1.321  0.6550  0.8902  0.1368
13713SOL     OW52357   1.192   0.037   1.910 -0.0420 -0.4569  0.3226
13713SOL    HW152358   1.277   0.035   1.858 -0.3254 -1.2474 -0.1133
13713SOL    HW252359   1.211   0.014   2.005  0.2788 -0.2960  0.2983
13714SOL     OW52360   3.544   7.136   4.222 -0.3886 -0.1032  0.3658
13714SOL    HW152361   3.555   7.218   4.166 -0.9626  0.4319  1.0289
13714SOL    HW252362   3.608   7.140   4.299 -0.3102 -0.3583  0.3159
13715SOL     OW52363   3.907   6.581   2.783  0.3692 -0.1346 -0.4882
13715SOL    HW152364   3.900   6.578   2.684  0.5265 -1.2698 -0.4669
13715SOL    HW252365   3.933   6.673   2.812  0.3110  0.1997 -1.4948
13716SOL     OW52366   7.290   1.354   2.242 -0.1498 -0.4113  0.0987
13716SOL    HW152367   7.386   1.375   2.224 -0.3087  1.0677  0.8644
13716SOL    HW252368   7.283   1.295   2.322  0.1959 -1.7859 -0.8710
13717SOL     OW52369   7.336   1.820   3.901 -0.6873  0.2971 -0.1420
13717SOL    HW152370   7.270   1.790   3.970 -1.6677  0.8962 -0.8002
13717SOL    HW252371   7.425   1.834   3.943 -1.1660  0.2051  0.9082
13718SOL     OW52372   4.921   4.464   2.052 -0.3841 -0.0153  0.2687
13718SOL    HW152373   4.848   4.512   2.101 -1.9325 -1.0576 -0.9748
13718SOL    HW252374   4.988   4.428   2.118 -0.6159  1.5269  1.3666
13719SOL     OW52375   6.843   2.368   4.070  0.4630 -0.1582 -0.4858
13719SOL    HW152376   6.886   2.440   4.125  1.6619 -0.5001 -0.9755
13719SOL    HW252377   6.791   2.307   4.130 -0.6291  1.1500 -0.0721
13720SOL     OW52378   5.623   8.613   5.834  0.7419 -0.5270 -0.3310
13720SOL    HW152379   5.686   8.539   5.809  1.1740  0.0253 -0.8864
13720SOL    HW252380   5.531   8.591   5.799  0.5738 -1.4098  0.6192
13721SOL     OW52381   5.668   9.148   1.284  0.2629 -0.1399  0.7374
13721SOL    HW152382   5.649   9.075   1.350  1.1293  0.2019  1.3786
13721SOL    HW252383   5.756   9.131   1.241  0.1789  0.2038  0.4337
13722SOL     OW52384   9.041   8.234   1.978  0.4290 -0.4742  0.4065
13722SOL    HW152385   9.078   8.227   2.071  0.0689  1.9632  0.7498
13722SOL    HW252386   9.116   8.225   1.912  1.2273  1.3157  1.0271
13723SOL     OW52387   9.871   6.751   2.652  0.2782 -0.4192  0.5570
13723SOL    HW152388   9.890   6.659   2.686 -0.0093 -0.4564  0.6197
13723SOL    HW252389   9.934   6.816   2.694  1.3016 -0.7585 -0.4153
13724SOL     OW52390   3.781   6.599   3.082 -0.2948  0.0988  0.0315
13724SOL    HW152391   3.779   6.504   3.051 -0.7247 -0.1290  0.7244
13724SOL    HW252392   3.701   6.647   3.048 -1.6099 -0.5809  2.0606
13725SOL     OW52393   3.290   8.467   2.996  0.9114  0.1774  0.0523
13725SOL    HW152394   3.238   8.549   3.016  1.8213  1.3030 -2.0445
13725SOL    HW252395   3.231   8.398   2.954  0.3996  0.1556  0.7969
13726SOL     OW52396   7.384   4.000   1.048  0.6645  0.0730 -0.1528
13726SOL    HW152397   7.350   3.917   1.004 -0.8019  0.7769 -0.3628
13726SOL    HW252398   7.459   4.039   0.994  0.9013 -0.7317 -0.4079
13727SOL     OW52399   2.515   5.493   4.499  0.0302  0.3616  0.3617
13727SOL    HW152400   2.581   5.422   4.525 -1.5275 -0.5063  2.0833
13727SOL    HW252401   2.529   5.574   4.556 -0.4800  0.1148  0.8446
13728SOL     OW52402   7.325   0.898   2.164 -0.2627 -0.0349 -0.1040
13728SOL    HW152403   7.269   0.842   2.224  1.1125 -1.5984 -0.2535
13728SOL    HW252404   7.348   0.847   2.082 -0.3067  1.3196 -0.9853
13729SOL     OW52405   9.153   4.553   0.291  0.4153  0.0947 -0.1618
13729SOL    HW152406   9.165   4.570   0.389 -2.7774  2.4957 -0.1139
13729SOL    HW252407   9.078   4.488   0.277  2.5142 -2.2522 -0.9855
13730SOL     OW52408   8.586   7.259   0.547  0.1193 -0.0817 -0.1436
13730SOL    HW152409   8.579   7.197   0.468  0.3107  0.7484 -0.8234
13730SOL    HW252410   8.638   7.340   0.520  0.1156  0.2389  0.8236
13731SOL     OW52411   2.459   5.442   2.626  0.8856 -0.1874  0.2025
13731SOL    HW152412   2.383   5.409   2.571  1.5999 -0.3811 -0.6755
13731SOL    HW252413   2.428   5.517   2.685 -0.2427 -1.0000  0.6672
13732SOL     OW52414   0.552   4.672   3.293 -0.3610 -0.4569 -0.1781
13732SOL    HW152415   0.504   4.720   3.219  1.4894  0.3377 -0.9030
13732SOL    HW252416   0.523   4.708   3.381 -1.0325  0.0658 -0.6088
13733SOL     OW52417   2.631   3.941   5.961  0.4385 -0.1362  0.1874
13733SOL    HW152418   2.684   3.998   5.898  0.9393 -1.1692 -0.3193
13733SOL    HW252419   2.562   3.890   5.910  0.7885 -0.9071  0.4775
13734SOL     OW52420   3.201   5.271   2.002  0.5609 -0.0663 -0.2517
13734SOL    HW152421   3.280   5.265   1.941  1.8112  0.8820  1.2333
13734SOL    HW252422   3.147   5.351   1.978  1.2472  0.5090  0.0718
13735SOL     OW52423   2.305   2.901   3.791 -0.3367  0.1355  0.1518
13735SOL    HW152424   2.209   2.872   3.788  0.6369 -3.2579 -1.0119
13735SOL    HW252425   2.314   2.992   3.751 -2.7606 -0.5095 -2.0123
13736SOL     OW52426   2.272   6.996   1.489  0.0200 -0.3893  0.2238
13736SOL    HW152427   2.307   6.908   1.521 -3.1332 -1.1220  1.9622
13736SOL    HW252428   2.284   7.003   1.390  0.7244 -2.6053  0.1315
13737SOL     OW52429   3.370   2.856   1.144  0.3010 -0.5202  0.6631
13737SOL    HW152430   3.323   2.877   1.230 -2.7239 -3.8799 -0.0484
13737SOL    HW252431   3.442   2.788   1.161 -1.1772 -2.1861  0.3918
13738SOL     OW52432   4.617   8.663   6.619  0.0557 -0.3265 -0.2228
13738SOL    HW152433   4.704   8.702   6.650  0.0996  0.1548 -0.9366
13738SOL    HW252434   4.559   8.736   6.584 -0.3845 -0.7387 -0.3520
13739SOL     OW52435   8.074   9.603   5.252  0.3716 -0.0525 -0.1146
13739SOL    HW152436   8.046   9.540   5.324 -0.0148  0.7789  0.4690
13739SOL    HW252437   8.174   9.613   5.253  0.5437 -1.6465 -1.0467
13740SOL     OW52438   7.147   3.622   1.925  0.3750 -0.1139  0.4672
13740SOL    HW152439   7.131   3.630   2.024 -1.2408  1.8100  0.0906
13740SOL    HW252440   7.176   3.711   1.889  0.2397 -0.6214 -0.9300
13741SOL     OW52441   7.844   2.519   2.295  0.3066 -0.3485  0.5440
13741SOL    HW152442   7.841   2.505   2.394 -0.8461 -0.9946  0.4243
13741SOL    HW252443   7.826   2.616   2.275 -1.0656 -0.5144  0.8947
13742SOL     OW52444   0.547   3.701   6.516  0.6782  0.4885  0.7735
13742SOL    HW152445   0.546   3.657   6.606  0.7414  1.0876  1.0686
13742SOL    HW252446   0.601   3.785   6.520 -0.0528  0.9908  0.4061
13743SOL     OW52447   1.996   6.319   0.842 -0.7617  0.4340  0.1291
13743SOL    HW152448   1.933   6.374   0.786 -1.5685 -0.5202  0.0668
13743SOL    HW252449   1.999   6.226   0.805 -2.1385 -0.5165  2.2943
13744SOL     OW52450   0.489   0.024   6.204 -0.5387 -0.1363  0.0748
13744SOL    HW152451   0.510   0.070   6.291 -0.3472 -0.5558  0.2523
13744SOL    HW252452   0.537   0.071   6.130  0.0682 -0.3484  0.3229
13745SOL     OW52453   9.951   8.109   6.705  0.2426  0.3320  0.0408
13745SOL    HW152454   9.951   8.203   6.740 -2.2287 -0.5058  2.4457
13745SOL    HW252455  10.016   8.054   6.758 -0.4267  0.0417  0.5741
13746SOL     OW52456   3.509   9.011   6.333  0.3182 -0.7779 -0.0998
13746SOL    HW152457   3.566   9.063   6.270  0.1019 -1.7685 -1.1240
13746SOL    HW252458   3.413   9.024   6.309  0.2490 -1.3823 -0.1448
13747SOL     OW52459   9.603   8.119   2.121 -0.3256  0.7827  0.6853
13747SOL    HW152460   9.610   8.131   2.220 -3.5636 -2.4952  1.4186
13747SOL    HW252461   9.686   8.075   2.086  0.3531  0.8976  2.1304
13748SOL     OW52462   2.591   3.978   1.116  0.1046 -0.4073  0.2584
13748SOL    HW152463   2.661   3.981   1.045 -0.2421 -0.0501 -0.0748
13748SOL    HW252464   2.600   4.059   1.175 -0.8942  0.3586 -0.6276
13749SOL     OW52465   3.416   3.536   2.886 -0.9684 -0.1950 -0.2239
13749SOL    HW152466   3.438   3.454   2.834 -0.1691  0.4311 -0.8902
13749SOL    HW252467   3.395   3.611   2.823 -2.0097  0.0369  0.3797
13750SOL     OW52468   9.728   0.968   5.625  0.4964 -0.5493  0.3508
13750SOL    HW152469   9.640   0.956   5.580  0.7420 -0.0796 -0.2797
13750SOL    HW252470   9.781   1.037   5.575 -0.4837  2.4072  3.2191
13751SOL     OW52471   0.865   2.549   1.832  0.3416  0.2676 -0.3280
13751SOL    HW152472   0.782   2.492   1.834  0.7703 -0.4435 -2.0730
13751SOL    HW252473   0.863   2.608   1.752  1.3019  0.5779 -0.1258
13752SOL     OW52474   0.878   5.326   1.288  0.3753 -0.1338  0.2531
13752SOL    HW152475   0.896   5.415   1.330 -0.5526 -0.1719  0.7506
13752SOL    HW252476   0.964   5.277   1.273  0.7543  0.1367  1.5556
13753SOL     OW52477   6.681   1.026   4.982 -0.2027 -0.7370 -0.3483
13753SOL    HW152478   6.651   0.932   5.000  0.0611 -1.1188 -1.7712
13753SOL    HW252479   6.712   1.068   5.067  2.9376 -3.1340 -0.1868
13754SOL     OW52480   0.241   6.118   1.248  0.0141 -0.2271 -0.7133
13754SOL    HW152481   0.293   6.183   1.193  0.1863  0.4742  0.2675
13754SOL    HW252482   0.302   6.069   1.309 -0.3715  0.0944 -0.0605
13755SOL     OW52483   9.561   0.807   3.944  0.2121 -0.4624 -0.1407
13755SOL    HW152484   9.463   0.790   3.929  0.2006 -0.1742 -0.3979
13755SOL    HW252485   9.611   0.785   3.860  0.1604  1.0837 -0.5999
13756SOL     OW52486   3.366   2.984   1.827  0.0705 -0.0881 -0.1910
13756SOL    HW152487   3.449   3.031   1.856 -1.1248  1.1828  1.2313
13756SOL    HW252488   3.383   2.885   1.824  1.6299  0.1662  0.0666
13757SOL     OW52489   0.918   5.850   0.931  0.1147 -0.6971 -0.2041
13757SOL    HW152490   0.988   5.819   0.866 -0.3168 -1.1206 -0.4723
13757SOL    HW252491   0.829   5.813   0.904  0.1075 -1.7839  1.2438
13758SOL     OW52492   9.773   8.655   6.508  0.2074 -0.2823  0.3987
13758SOL    HW152493   9.780   8.751   6.536  2.0309 -0.3899  0.3991
13758SOL    HW252494   9.689   8.641   6.457  0.5290  1.6207 -0.6992
13759SOL     OW52495   8.702   6.635   4.320  0.1722  0.2708 -0.0924
13759SOL    HW152496   8.610   6.600   4.341  0.7493  0.1857  2.4363
13759SOL    HW252497   8.696   6.732   4.297 -0.6865 -0.0073 -1.0681
13760SOL     OW52498   7.656   9.409   2.499  0.0689  0.2216 -0.0751
13760SOL    HW152499   7.667   9.497   2.545  0.0666 -0.8685  2.0585
13760SOL    HW252500   7.739   9.355   2.510 -1.2041 -1.4551  1.7778
13761SOL     OW52501   1.615   0.182   4.217 -0.1014 -0.8558 -0.2968
13761SOL    HW152502   1.541   0.149   4.159 -0.9456 -1.0885  0.8950
13761SOL    HW252503   1.637   0.277   4.193  0.3233 -1.2943 -1.7264
13762SOL     OW52504   0.718   1.641   1.246  1.0060 -0.0947  0.0970
13762SOL    HW152505   0.676   1.724   1.283  0.9322 -1.3242  2.8591
13762SOL    HW252506   0.813   1.660   1.220  0.8476  0.9576  0.2830
13763SOL     OW52507   3.623   9.737   0.921 -0.5007  0.1260  0.1617
13763SOL    HW152508   3.622   9.798   0.842  3.5737  0.1342  0.0124
13763SOL    HW252509   3.655   9.646   0.893  1.9453  0.4044  1.9300
13764SOL     OW52510   8.229   6.122   3.471  0.1206  0.3626 -0.6060
13764SOL    HW152511   8.268   6.140   3.381  0.0982 -0.8675 -0.8700
13764SOL    HW252512   8.133   6.151   3.472  0.5481  1.7844 -0.4959
13765SOL     OW52513   1.273   1.981   4.765  0.3798 -0.0538 -0.0219
13765SOL    HW152514   1.338   2.047   4.801  1.3384 -0.7335 -0.4682
13765SOL    HW252515   1.322   1.911   4.713 -0.6337 -0.9922  0.2616
13766SOL     OW52516   3.503   0.884   4.188 -0.4710  0.1733 -0.6159
13766SOL    HW152517   3.538   0.817   4.254 -0.9821  0.2316 -0.2830
13766SOL    HW252518   3.532   0.976   4.216 -0.2715  0.1476 -0.7424
13767SOL     OW52519   9.354   3.685   0.950 -0.6708  0.1763  0.4424
13767SOL    HW152520   9.385   3.673   1.044  1.6106 -0.7044 -0.3778
13767SOL    HW252521   9.256   3.706   0.949 -1.1720 -1.8773  2.8919
13768SOL     OW52522   0.556   6.814   0.436 -0.2652  0.4039 -0.0855
13768SOL    HW152523   0.651   6.831   0.462 -0.3705  0.2343  0.4152
13768SOL    HW252524   0.544   6.718   0.411 -0.3861  0.3327  0.2332
13769SOL     OW52525   5.298   1.441   1.814  0.5366  0.4780  0.1124
13769SOL    HW152526   5.338   1.519   1.766 -0.2990  0.7673 -0.1318
13769SOL    HW252527   5.336   1.435   1.906  0.1731  1.5402  0.3411
13770SOL     OW52528   1.830   3.708   6.494 -0.5477  0.0687  0.4719
13770SOL    HW152529   1.816   3.624   6.547 -0.1562 -0.1048  0.3093
13770SOL    HW252530   1.752   3.768   6.505 -0.9891 -0.4721  0.3089
13771SOL     OW52531   3.429   6.060   3.635  0.3242 -0.1982 -0.6007
13771SOL    HW152532   3.381   6.017   3.558 -0.7201  0.9079 -0.5996
13771SOL    HW252533   3.406   6.013   3.720  1.6395 -1.5501 -0.9799
13772SOL     OW52534   8.305   7.101   5.606  0.1877 -0.5017 -0.5265
13772SOL    HW152535   8.370   7.176   5.618 -0.0124 -0.5168  0.6977
13772SOL    HW252536   8.354   7.016   5.589  0.4631 -0.3910 -0.2760
13773SOL     OW52537   3.698   6.998   2.145  0.0579 -0.8534 -0.0086
13773SOL    HW152538   3.784   7.023   2.102  0.3640 -1.1109  0.4485
13773SOL    HW252539   3.637   6.957   2.077  0.4566 -1.0574 -0.2429
13774SOL     OW52540   4.255   6.117   1.074  0.1699 -0.0829  0.4040
13774SOL    HW152541   4.178   6.060   1.045  0.7720 -0.9364  0.4750
13774SOL    HW252542   4.221   6.197   1.123 -0.7465  0.2256 -0.7076
13775SOL     OW52543   0.583   9.047   2.225 -0.1228  0.7115 -0.9464
13775SOL    HW152544   0.530   9.126   2.192  0.1818  1.2003 -0.2981
13775SOL    HW252545   0.675   9.078   2.252  0.6942 -0.2323 -2.6186
13776SOL     OW52546   8.837   7.435   5.078  0.0301 -0.6943 -0.3066
13776SOL    HW152547   8.756   7.410   5.026 -0.5825 -1.4661  0.9914
13776SOL    HW252548   8.911   7.373   5.057 -0.7984 -2.2254  1.1740
13777SOL     OW52549   9.982   8.773   1.563 -0.0491  0.1974 -0.1129
13777SOL    HW152550  10.023   8.794   1.652 -0.1206 -0.5339  0.0949
13777SOL    HW252551   9.887   8.744   1.576  0.2477 -0.8928 -0.3284
13778SOL     OW52552   2.597   8.939   4.540  0.2280 -0.2490  0.2227
13778SOL    HW152553   2.594   8.963   4.637  0.4490 -1.0827  0.4411
13778SOL    HW252554   2.551   8.851   4.526  2.0710 -1.1824 -0.0912
13779SOL     OW52555   1.490   1.317   1.915  0.0537 -0.2018 -0.5736
13779SOL    HW152556   1.467   1.257   1.838  0.4284 -2.2119  0.8316
13779SOL    HW252557   1.588   1.309   1.935  0.1378  1.0225 -0.4787
13780SOL     OW52558   8.454   5.040   6.008  0.3506 -0.1614 -0.0387
13780SOL    HW152559   8.484   5.023   6.102 -0.1365  1.2650  0.3902
13780SOL    HW252560   8.355   5.027   6.002  0.4399 -0.6493 -0.4487
13781SOL     OW52561   0.132   4.788   3.086  0.3490  0.7236  0.1687
13781SOL    HW152562   0.159   4.821   3.176  0.5745 -0.0445  0.3857
13781SOL    HW252563   0.033   4.799   3.074  0.5099  2.0480 -0.0050
13782SOL     OW52564   6.849   0.300   3.278  0.4818  0.1095  0.3504
13782SOL    HW152565   6.785   0.330   3.348 -0.5904 -0.7472 -0.2400
13782SOL    HW252566   6.943   0.309   3.312  0.0417  1.1695  1.3003
13783SOL     OW52567   0.185   4.467   1.021  0.9350 -0.0473 -0.5487
13783SOL    HW152568   0.133   4.432   1.099 -0.2615  2.1729 -0.2914
13783SOL    HW252569   0.157   4.421   0.938  0.2293 -0.5116 -0.0557
13784SOL     OW52570   9.472   3.620   5.490 -0.0389 -0.1094 -0.7716
13784SOL    HW152571   9.493   3.714   5.518  1.3027 -0.3502 -0.9399
13784SOL    HW252572   9.472   3.561   5.570  1.1434 -0.3253 -0.9288
13785SOL     OW52573   3.589   6.740   6.747 -0.1438  0.9915 -0.5892
13785SOL    HW152574   3.551   6.690   6.669 -1.5236  1.0253  0.0419
13785SOL    HW252575   3.677   6.700   6.772 -1.1908 -1.1504 -0.1161
13786SOL     OW52576   7.338   3.157   3.844  0.3049 -0.0798 -0.0760
13786SOL    HW152577   7.359   3.194   3.753 -0.6952  1.0008  0.1136
13786SOL    HW252578   7.274   3.080   3.834  0.3991 -0.1275 -0.3121
13787SOL     OW52579   1.147   6.309   3.165  0.5064 -0.1423 -0.8598
13787SOL    HW152580   1.193   6.378   3.109  1.3177  0.6490  0.7629
13787SOL    HW252581   1.074   6.352   3.217  0.6729 -0.6104 -0.2346
13788SOL     OW52582   8.559   9.983   4.362  0.0224 -0.4586  0.2610
13788SOL    HW152583   8.557  10.073   4.406 -2.0848 -0.1671 -0.3620
13788SOL    HW252584   8.524   9.914   4.426 -0.7292 -0.4185 -0.0933
13789SOL     OW52585   9.208   7.727   4.758 -0.1856  0.3900 -0.5570
13789SOL    HW152586   9.286   7.704   4.816 -1.1907 -0.6253  0.4056
13789SOL    HW252587   9.207   7.825   4.740  1.4501  0.3767 -0.7817
13790SOL     OW52588   4.179   2.271   6.293 -0.1089 -0.2085 -0.1446
13790SOL    HW152589   4.145   2.279   6.199  0.8775  0.0951 -0.4828
13790SOL    HW252590   4.191   2.174   6.316  1.1116 -0.2547 -0.8831
13791SOL     OW52591   7.586   8.422   4.510  0.0634 -0.1136 -0.4387
13791SOL    HW152592   7.532   8.505   4.498  1.7000  0.7764 -1.9309
13791SOL    HW252593   7.660   8.421   4.443  0.1662 -2.7131 -0.3337
13792SOL     OW52594   6.872   4.918   0.287  0.1144  0.0314  0.5268
13792SOL    HW152595   6.883   4.975   0.206  3.2212 -1.3039 -0.0603
13792SOL    HW252596   6.776   4.920   0.316 -1.0412  0.6957 -3.0492
13793SOL     OW52597   0.529   4.354   5.871  0.2322 -0.1340  0.1249
13793SOL    HW152598   0.445   4.311   5.904  0.2021 -0.6587 -0.6101
13793SOL    HW252599   0.507   4.417   5.796  0.5164 -0.4490 -0.2261
13794SOL     OW52600   9.260   0.416   2.888 -0.0634 -0.3543 -0.3742
13794SOL    HW152601   9.240   0.405   2.790 -0.1884  4.4813 -1.0021
13794SOL    HW252602   9.186   0.468   2.931  0.1587 -2.1313  2.3122
13795SOL     OW52603   2.493   2.197   0.040  0.3996 -0.0988 -0.2111
13795SOL    HW152604   2.420   2.140   0.003 -0.5587 -1.1656  3.1758
13795SOL    HW252605   2.453   2.274   0.089  1.5772 -0.1377  0.8160
13796SOL     OW52606   4.766   9.149   4.739  0.0961 -0.0348  0.0912
13796SOL    HW152607   4.823   9.086   4.791  1.1699  2.0562  1.5526
13796SOL    HW252608   4.818   9.186   4.662 -0.0226  0.1765  0.1110
13797SOL     OW52609   8.385   3.781   2.642 -0.1113  0.1610 -0.1267
13797SOL    HW152610   8.413   3.861   2.695  0.2446  0.9504 -1.4876
13797SOL    HW252611   8.459   3.754   2.580 -0.2919 -1.1233  0.1908
13798SOL     OW52612   8.563   3.786   0.101  0.4346  0.1265  0.3850
13798SOL    HW152613   8.487   3.790   0.036 -0.0238  2.2189  1.0077
13798SOL    HW252614   8.549   3.710   0.165  0.1733 -1.0600 -1.0530
13799SOL     OW52615   5.597   1.654   4.462  0.5001 -0.4587  0.2161
13799SOL    HW152616   5.528   1.616   4.522 -1.0700 -1.0377 -1.9028
13799SOL    HW252617   5.574   1.749   4.440  0.8429 -0.3848  0.1632
13800SOL     OW52618   3.802   7.913   6.357  0.0649  0.0271  0.2640
13800SOL    HW152619   3.716   7.943   6.398 -0.0189  1.1908 -0.7272
13800SOL    HW252620   3.807   7.813   6.359 -1.1802 -0.0342  0.5837
13801SOL     OW52621   6.986   9.058   3.319  0.1608 -0.1204 -0.1633
13801SOL    HW152622   6.943   8.980   3.275  1.0777 -0.4340 -0.4978
13801SOL    HW252623   6.966   9.056   3.417  1.7941 -1.8506  0.1582
13802SOL     OW52624   8.312   6.095   1.122 -0.2254 -0.0724 -0.0992
13802SOL    HW152625   8.258   6.139   1.050 -1.3884 -0.0103  0.7907
13802SOL    HW252626   8.267   6.009   1.149  0.4752 -0.3452  0.2009
13803SOL     OW52627   3.684   3.873   4.863 -0.2801 -0.2443 -0.3136
13803SOL    HW152628   3.725   3.823   4.939 -0.5266 -1.5261 -0.9970
13803SOL    HW252629   3.735   3.853   4.779  0.9212  2.3658 -0.2264
13804SOL     OW52630   5.979   0.116   5.809  0.1462 -0.1453  0.4438
13804SOL    HW152631   5.923   0.173   5.869  1.0880 -0.4102  1.5965
13804SOL    HW252632   6.066   0.095   5.854  0.6084 -0.8904 -0.7556
13805SOL     OW52633   2.250   8.105   2.214 -0.3911 -0.1131  0.1708
13805SOL    HW152634   2.154   8.091   2.190 -0.9922  0.7911  1.9413
13805SOL    HW252635   2.271   8.203   2.211 -0.1416 -0.0856  1.8731
13806SOL     OW52636   2.623   4.555   2.033  0.1844 -0.4023 -0.3875
13806SOL    HW152637   2.649   4.617   2.107 -0.9527 -0.6976  0.2742
13806SOL    HW252638   2.677   4.472   2.039  1.2571  0.2523 -0.8841
13807SOL     OW52639   2.165   7.389   3.551 -0.0031  0.9748  0.0328
13807SOL    HW152640   2.233   7.349   3.489 -0.6548  0.0232 -0.0854
13807SOL    HW252641   2.092   7.322   3.567 -1.2093  2.2052 -0.3025
13808SOL     OW52642   8.479   4.464   4.939  0.0221  0.4558  0.0305
13808SOL    HW152643   8.417   4.425   4.871 -0.7411  0.1419  0.8969
13808SOL    HW252644   8.426   4.513   5.009  0.7632  0.4200  0.6261
13809SOL     OW52645   9.046   2.742   2.177 -0.0098  0.1417  0.4370
13809SOL    HW152646   9.096   2.701   2.253 -0.8131 -0.5286  0.6095
13809SOL    HW252647   9.065   2.840   2.175 -0.3852  0.2614  1.8246
13810SOL     OW52648   2.814   1.438   2.861 -0.4054  0.2005  0.3534
13810SOL    HW152649   2.764   1.359   2.825 -0.7892  0.9478 -0.7845
13810SOL    HW252650   2.804   1.515   2.798  0.5953  0.9330  1.0757
13811SOL     OW52651   7.432   1.414   5.948  0.1869  0.1648 -0.3254
13811SOL    HW152652   7.527   1.413   5.980  0.8573  2.6759 -2.0142
13811SOL    HW252653   7.422   1.350   5.872  0.7716  0.4855 -0.6826
13812SOL     OW52654   9.056   1.675   6.311  0.2824 -0.4738  0.6250
13812SOL    HW152655   8.996   1.615   6.258  1.2511 -2.2871  1.5751
13812SOL    HW252656   9.151   1.648   6.298  0.8030  1.2897  0.5394
13813SOL     OW52657   0.712   0.830   3.135 -0.4065  0.4247  0.1740
13813SOL    HW152658   0.712   0.822   3.036  0.4980  2.6804 -0.0428
13813SOL    HW252659   0.630   0.786   3.173 -0.9036 -0.1797 -1.5796
13814SOL     OW52660   9.563   7.155   5.515  0.0084  0.1028 -0.4042
13814SOL    HW152661   9.615   7.094   5.455  1.1934 -0.0104  0.6994
13814SOL    HW252662   9.465   7.140   5.502  0.2512 -3.0740  0.8378
13815SOL     OW52663   5.150   7.665   4.439  0.5537 -0.4527 -0.0956
13815SOL    HW152664   5.228   7.645   4.499  1.4731 -1.5691 -1.6161
13815SOL    HW252665   5.145   7.595   4.367 -2.1260 -0.6631  0.2316
13816SOL     OW52666   9.089   2.653   4.577  0.2751  0.6550  0.1294
13816SOL    HW152667   9.115   2.750   4.582  0.8833  0.4656  0.7160
13816SOL    HW252668   9.132   2.603   4.652  0.7499 -0.2528 -0.7336
13817SOL     OW52669   3.791   5.544   1.764  0.2643 -0.4899 -0.0135
13817SOL    HW152670   3.767   5.461   1.713  0.7901 -1.5608  1.4474
13817SOL    HW252671   3.720   5.564   1.831 -0.5873  1.1048 -1.3452
13818SOL     OW52672   2.622   1.743   4.719  0.0429 -0.5994 -0.5883
13818SOL    HW152673   2.628   1.720   4.622  2.2198 -2.2717 -0.1088
13818SOL    HW252674   2.676   1.824   4.738 -0.7378 -0.0162 -0.8388
13819SOL     OW52675   2.114   8.240   1.451  0.4742  0.1432 -0.0667
13819SOL    HW152676   2.054   8.292   1.512  0.0692  2.2384 -2.1714
13819SOL    HW252677   2.196   8.293   1.433  0.4779 -0.3489 -1.5260
13820SOL     OW52678   9.930   2.920   4.043  0.1237  0.4437 -0.6977
13820SOL    HW152679   9.999   2.991   4.055  0.1735  0.3902 -0.6623
13820SOL    HW252680   9.865   2.947   3.972 -1.5852  1.8879  1.3327
13821SOL     OW52681   1.652   9.176   5.520 -0.1024 -0.6297  0.0238
13821SOL    HW152682   1.748   9.202   5.526 -0.2717  0.2384 -0.9366
13821SOL    HW252683   1.644   9.077   5.529  0.5883 -0.4396  3.3719
13822SOL     OW52684   6.528   7.845   5.160  0.1104  0.4265 -0.2612
13822SOL    HW152685   6.489   7.779   5.224 -1.1321  1.0859 -0.3344
13822SOL    HW252686   6.602   7.801   5.109 -0.9208 -1.0236 -0.5565
13823SOL     OW52687   4.066   3.975   4.413 -0.0993 -0.3042  0.8411
13823SOL    HW152688   4.011   4.005   4.491  0.9482  2.9388  0.4444
13823SOL    HW252689   4.012   3.915   4.355 -1.5148 -1.2462  3.0634
13824SOL     OW52690   0.661   5.335   1.933  0.0279  0.1206  0.5066
13824SOL    HW152691   0.642   5.239   1.951  1.8916 -0.1683  0.9931
13824SOL    HW252692   0.602   5.392   1.992 -2.6057 -0.6392 -1.2867
13825SOL     OW52693   7.897   4.716   0.267  0.5125  0.3274  0.1704
13825SOL    HW152694   7.801   4.706   0.241  0.9203 -2.1020 -0.5683
13825SOL    HW252695   7.923   4.812   0.266 -1.3830  0.8409 -1.5591
13826SOL     OW52696   9.425   5.820   6.651  0.6631  0.0863 -0.0090
13826SOL    HW152697   9.447   5.804   6.747  1.0804  0.5123 -0.0330
13826SOL    HW252698   9.509   5.817   6.597  0.8024  2.7458  0.0274
13827SOL     OW52699   2.674   7.003   3.769 -0.4757 -0.7567 -0.3491
13827SOL    HW152700   2.598   7.063   3.742  1.0967  1.1273 -0.7500
13827SOL    HW252701   2.724   7.046   3.844  0.8022 -1.4765 -0.7729
13828SOL     OW52702   3.883   1.464   5.564  0.1805  0.0688  0.6746
13828SOL    HW152703   3.795   1.416   5.558  1.6588 -2.5587 -1.4275
13828SOL    HW252704   3.928   1.439   5.649 -0.6333  0.5492  1.2501
13829SOL     OW52705   3.889   5.633   2.893 -0.3222 -0.5822 -0.4423
13829SOL    HW152706   3.885   5.724   2.852 -2.7259 -1.0791 -1.3812
13829SOL    HW252707   3.857   5.565   2.828 -3.6032 -1.4572  1.9756
13830SOL     OW52708   0.100   0.239   1.656 -0.1547  0.1275 -0.1589
13830SOL    HW152709   0.121   0.335   1.670 -1.0463  0.1580  1.0156
13830SOL    HW252710   0.130   0.186   1.735 -1.3629 -0.2891  0.0349
13831SOL     OW52711   8.551   9.662   5.034  0.2256  0.0783  0.1910
13831SOL    HW152712   8.625   9.614   4.987  0.2107  0.4649 -0.2422
13831SOL    HW252713   8.526   9.744   4.981 -0.2887  0.1252  0.5006
13832SOL     OW52714   3.988   8.901   0.832 -0.2639 -0.3230 -0.4444
13832SOL    HW152715   3.991   8.989   0.785  2.8169  0.1721  0.5691
13832SOL    HW252716   3.979   8.916   0.930 -1.6128 -1.2143 -0.4216
13833SOL     OW52717   3.029   9.933   2.642  0.9681 -0.8282 -0.1255
13833SOL    HW152718   3.009   9.883   2.558  0.7214 -1.3042  0.2139
13833SOL    HW252719   2.958   9.913   2.710 -0.1595  1.3890 -0.5833
13834SOL     OW52720   3.041   9.078   5.159  0.3896  0.6060 -0.3881
13834SOL    HW152721   3.050   9.069   5.258 -1.3172 -0.5402 -0.3297
13834SOL    HW252722   3.015   9.172   5.136 -0.9728  0.4307  0.3863
13835SOL     OW52723   2.475   2.777   4.523 -0.3785 -0.0785 -0.6189
13835SOL    HW152724   2.568   2.794   4.490  0.0304 -0.4681  0.3114
13835SOL    HW252725   2.468   2.804   4.619 -0.9873 -0.8412 -0.4413
13836SOL     OW52726   9.851   5.317   4.564  0.0057  0.2074 -0.2055
13836SOL    HW152727   9.922   5.363   4.510 -0.5253  1.1631 -0.1023
13836SOL    HW252728   9.862   5.218   4.556  0.8261  0.3473 -0.8833
13837SOL     OW52729   9.143   0.912   3.001 -0.5887 -0.6602 -0.0653
13837SOL    HW152730   9.241   0.930   2.998 -0.8234  0.5991 -2.9805
13837SOL    HW252731   9.096   0.993   3.036 -0.6394 -0.9326  0.4896
13838SOL     OW52732   7.581   2.961   1.708 -0.2072 -0.4110  0.3772
13838SOL    HW152733   7.513   2.983   1.778  0.4408 -0.1184  0.9207
13838SOL    HW252734   7.608   3.045   1.660 -0.3884 -0.5593  0.0100
13839SOL     OW52735   0.917   8.063   2.356  0.1210 -0.4592 -0.0224
13839SOL    HW152736   0.830   8.018   2.334  0.8245 -2.0178  0.3333
13839SOL    HW252737   0.915   8.095   2.450 -0.6390  0.8788 -0.4845
13840SOL     OW52738   8.586   3.570   0.626 -0.2857 -0.5828 -0.3248
13840SOL    HW152739   8.615   3.518   0.706  2.1045  0.3243 -0.5569
13840SOL    HW252740   8.495   3.540   0.598 -0.1064 -2.6749  1.1940
13841SOL     OW52741   2.390   0.815   3.761  0.5053 -0.1685 -0.1215
13841SOL    HW152742   2.349   0.905   3.749  1.7149  0.2688 -1.0577
13841SOL    HW252743   2.324   0.754   3.805 -1.5566  0.1787 -2.5977
13842SOL     OW52744   5.155   7.255   2.403  0.2511 -0.1162  0.6546
13842SOL    HW152745   5.235   7.314   2.389 -0.4919  0.7444  0.0514
13842SOL    HW252746   5.124   7.264   2.498 -0.4317  1.1919  0.3219
13843SOL     OW52747   1.685   4.483   3.458  0.5840 -0.3720 -0.1245
13843SOL    HW152748   1.586   4.494   3.465  0.7148  0.8117  0.0330
13843SOL    HW252749   1.715   4.408   3.516 -0.2009 -0.6061 -0.0264
13844SOL     OW52750   3.554   3.208   0.924 -0.4464 -0.1559 -0.5104
13844SOL    HW152751   3.551   3.141   0.849  0.2552 -0.3940 -0.3324
13844SOL    HW252752   3.552   3.160   1.012  2.2924 -0.0980 -0.3643
13845SOL     OW52753   2.120   4.761   2.107 -0.3754 -0.1176  0.4188
13845SOL    HW152754   2.133   4.835   2.173 -0.6986 -0.0833  0.4443
13845SOL    HW252755   2.162   4.787   2.020 -0.2385 -0.0237  0.5125
13846SOL     OW52756   7.473   0.494   1.506 -0.0643  0.2043 -0.7056
13846SOL    HW152757   7.391   0.439   1.492 -0.2764  0.5028 -0.6367
13846SOL    HW252758   7.462   0.551   1.588 -0.0288  0.6814 -1.0277
13847SOL     OW52759   0.377   5.620   5.568 -0.5808 -0.2964  0.5793
13847SOL    HW152760   0.361   5.686   5.494 -1.8499 -1.2323  0.0006
13847SOL    HW252761   0.444   5.552   5.538 -0.6249 -0.3140  0.5211
13848SOL     OW52762   4.263   9.002   6.717  0.0571 -0.3084 -0.5211
13848SOL    HW152763   4.273   8.979   6.814  0.1307 -0.3255 -0.5327
13848SOL    HW252764   4.169   8.985   6.688 -0.5756  1.8788  0.1477
13849SOL     OW52765   5.083   2.590   3.446  0.0134  0.4459  0.2239
13849SOL    HW152766   5.027   2.611   3.366  0.2397  0.4231  0.0626
13849SOL    HW252767   5.133   2.672   3.473 -1.5523  1.0152  1.5132
13850SOL     OW52768   8.396   0.077   0.747  0.1734  0.0887 -0.3743
13850SOL    HW152769   8.389   0.074   0.647  0.5012 -0.3983 -0.3829
13850SOL    HW252770   8.475   0.025   0.777 -0.6001 -0.7698  0.2130
13851SOL     OW52771   1.827   2.731   1.793 -0.3310  0.3465 -0.5775
13851SOL    HW152772   1.914   2.770   1.824  0.8714 -1.4749 -1.5243
13851SOL    HW252773   1.810   2.645   1.841 -0.7821 -0.1163 -1.5470
13852SOL     OW52774   8.625   9.903   0.529  0.4423  0.0876  0.4718
13852SOL    HW152775   8.669   9.925   0.442 -0.4484  1.0597  0.2515
13852SOL    HW252776   8.528   9.885   0.514 -0.2836  2.7638  1.5465
13853SOL     OW52777   1.258   4.040   6.513 -0.3202 -0.5028 -0.2915
13853SOL    HW152778   1.231   3.944   6.518 -0.8670 -0.4437 -1.8773
13853SOL    HW252779   1.337   4.050   6.452 -1.0029  0.1966 -1.0783
13854SOL     OW52780   8.237   0.202   1.728  0.5296  0.4070  0.2003
13854SOL    HW152781   8.286   0.284   1.757 -1.1023  1.7050 -0.6524
13854SOL    HW252782   8.167   0.179   1.796  1.4860 -0.7407  0.8169
13855SOL     OW52783   9.458   5.174   2.211  0.0336 -0.0466 -0.6407
13855SOL    HW152784   9.411   5.257   2.241  1.1552  0.6634 -0.7954
13855SOL    HW252785   9.447   5.103   2.280 -2.3216 -0.3038 -1.2636
13856SOL     OW52786   1.744   4.137   5.722  0.3439  0.3526  0.0397
13856SOL    HW152787   1.789   4.214   5.766  0.1668  0.4413  0.0649
13856SOL    HW252788   1.715   4.071   5.791  1.3751 -0.2062 -0.0602
13857SOL     OW52789   8.674   7.955   2.085  1.2375 -0.4068 -0.0291
13857SOL    HW152790   8.647   7.859   2.077 -0.3823  0.0654 -0.5257
13857SOL    HW252791   8.658   8.002   1.998  1.1287  0.5235  0.4791
13858SOL     OW52792   5.899   9.340   2.071  0.4381 -0.4099  0.2130
13858SOL    HW152793   5.895   9.282   1.990 -0.7088 -1.5324  1.0598
13858SOL    HW252794   5.991   9.336   2.110  0.6565 -0.8187 -0.3397
13859SOL     OW52795   2.392   4.532   0.641 -0.1346  0.1694 -0.5614
13859SOL    HW152796   2.363   4.627   0.631  2.9204  1.2380  0.1623
13859SOL    HW252797   2.398   4.509   0.738  0.4937 -0.3073 -0.7122
13860SOL     OW52798   6.874   1.163   3.407 -0.0039 -0.0918 -0.1678
13860SOL    HW152799   6.954   1.221   3.398  1.2767 -1.6210  1.1408
13860SOL    HW252800   6.851   1.124   3.317 -1.2159  2.8240 -1.1609
13861SOL     OW52801   0.283   8.211   4.514  0.2435 -0.2532  0.6953
13861SOL    HW152802   0.381   8.219   4.534  0.2395 -1.7747  1.3756
13861SOL    HW252803   0.253   8.118   4.533 -1.3963  0.2750  0.7230
13862SOL     OW52804   8.746   6.401   0.605 -0.1211 -0.0733 -0.4878
13862SOL    HW152805   8.750   6.301   0.604  1.0476 -0.0587  0.9876
13862SOL    HW252806   8.827   6.438   0.561 -0.6782  0.2233 -1.2610
13863SOL     OW52807   1.072   5.397   2.814 -0.0387 -0.1381  0.4573
13863SOL    HW152808   1.069   5.418   2.717 -0.1450 -1.5134  0.1596
13863SOL    HW252809   1.062   5.298   2.828  0.7746 -0.0441  1.8176
13864SOL     OW52810   4.049   0.480   3.294 -0.1831  0.3297 -0.2997
13864SOL    HW152811   4.098   0.554   3.340 -1.1226  0.4229  0.5728
13864SOL    HW252812   3.950   0.497   3.299 -0.4845 -1.5563  0.9634
13865SOL     OW52813   9.185   3.449   0.071  0.1250 -0.0776 -0.2344
13865SOL    HW152814   9.245   3.471   0.148 -1.1240  1.1207  0.4272
13865SOL    HW252815   9.094   3.426   0.106  0.2690 -2.2190 -1.2051
13866SOL     OW52816   8.682   6.328   3.612 -0.4647 -0.4210 -0.0047
13866SOL    HW152817   8.709   6.239   3.648 -0.5783  0.0784  1.3405
13866SOL    HW252818   8.587   6.324   3.579 -1.2925 -0.1840  2.2674
13867SOL     OW52819   1.053   2.676   5.744  0.3855 -0.4356 -0.1909
13867SOL    HW152820   0.986   2.604   5.726 -0.8299  0.4838  0.6340
13867SOL    HW252821   1.065   2.687   5.843  1.5748 -0.4234 -0.3239
13868SOL     OW52822   9.794   4.330   1.642  0.5327  0.3497  0.1148
13868SOL    HW152823   9.775   4.242   1.686 -2.0796  1.5578  1.5115
13868SOL    HW252824   9.824   4.396   1.710  3.8049  0.2261 -1.1404
13869SOL     OW52825   0.228   2.083   2.354 -0.0737  0.1871  0.3128
13869SOL    HW152826   0.219   2.182   2.370  0.2467  0.6386 -2.1285
13869SOL    HW252827   0.139   2.040   2.365 -0.1861  0.7163  1.5714
13870SOL     OW52828   6.300   1.361   2.300 -0.0171 -0.2792 -0.0286
13870SOL    HW152829   6.328   1.269   2.327 -1.2483 -1.2518 -1.9873
13870SOL    HW252830   6.240   1.399   2.370 -0.0813 -1.2493  0.4539
13871SOL     OW52831   2.662   3.339   3.243  0.0361 -0.2216 -0.0968
13871SOL    HW152832   2.624   3.274   3.308  1.7252 -0.9892  0.1497
13871SOL    HW252833   2.688   3.423   3.292  3.1688 -1.5464  0.6402
13872SOL     OW52834   8.644   2.630   1.060  0.1549 -0.3512  0.5847
13872SOL    HW152835   8.654   2.710   1.119 -1.2178  0.2680  0.0166
13872SOL    HW252836   8.565   2.576   1.090  1.5190 -1.9137  1.4186
13873SOL     OW52837   8.586   1.354   6.586  0.4581 -0.9422 -0.6154
13873SOL    HW152838   8.680   1.322   6.597  0.8596  0.1042 -0.9449
13873SOL    HW252839   8.575   1.392   6.493  1.0669  3.3073  0.9222
13874SOL     OW52840   2.460   2.774   5.665 -0.0124 -0.1084 -0.2263
13874SOL    HW152841   2.494   2.867   5.648 -2.4250  0.8119 -0.2597
13874SOL    HW252842   2.460   2.722   5.580 -0.7784  0.6252 -0.6893
13875SOL     OW52843   3.749   2.063   2.970  0.4789  0.2956  0.0586
13875SOL    HW152844   3.763   2.071   3.068 -0.4123 -0.8406  0.2771
13875SOL    HW252845   3.652   2.049   2.950  0.8987 -1.4463 -0.8547
13876SOL     OW52846   7.765   3.015   2.043  0.1951 -0.5508 -0.0495
13876SOL    HW152847   7.861   2.990   2.028 -0.3486 -1.0957 -2.8325
13876SOL    HW252848   7.759   3.113   2.063  1.1629 -0.0585 -2.0541
13877SOL     OW52849   8.874   7.909   5.151  0.3888 -0.1561  0.5819
13877SOL    HW152850   8.962   7.949   5.126  0.9923 -0.9314  1.4362
13877SOL    HW252851   8.827   7.876   5.069 -0.4796  2.9712 -0.2631
13878SOL     OW52852   0.588   1.490   1.894  0.6282  0.2297 -0.1252
13878SOL    HW152853   0.522   1.533   1.955  1.2522  2.4429 -0.9672
13878SOL    HW252854   0.678   1.530   1.908  0.7746  0.8156 -2.4921
13879SOL     OW52855   7.839   4.101   6.500 -0.5967  0.0723  1.0089
13879SOL    HW152856   7.817   4.072   6.407  2.2183  0.2424  0.2232
13879SOL    HW252857   7.866   4.197   6.499  1.3449 -0.4489  1.6548
13880SOL     OW52858   2.691   7.309   1.940  0.4678  0.3588 -0.2522
13880SOL    HW152859   2.739   7.228   1.908 -0.7674 -0.3666 -0.3187
13880SOL    HW252860   2.656   7.361   1.862 -0.8812 -0.3844 -0.1647
13881SOL     OW52861   9.537   2.943   0.330 -0.5104  0.0880  0.2819
13881SOL    HW152862   9.633   2.924   0.349 -0.4528  0.0262 -0.0713
13881SOL    HW252863   9.530   3.028   0.277 -0.6328 -0.0427  0.0862
13882SOL     OW52864   2.539   7.921   1.200  0.1916  0.4886 -0.2484
13882SOL    HW152865   2.496   7.987   1.262  1.5415  0.1651  1.0752
13882SOL    HW252866   2.490   7.919   1.113 -1.1196  1.7062  0.4502
13883SOL     OW52867   5.450   5.694   1.572  0.1285 -0.3223  0.0222
13883SOL    HW152868   5.363   5.716   1.617  1.9173  0.2706  3.3180
13883SOL    HW252869   5.484   5.776   1.525 -0.1464 -0.0190  0.3505
13884SOL     OW52870   3.522   8.741   4.078  0.4692  0.6134 -0.2375
13884SOL    HW152871   3.469   8.712   4.159  0.9409  0.1071 -0.1074
13884SOL    HW252872   3.608   8.782   4.108  1.0257 -0.3483 -0.5030
13885SOL     OW52873   9.722   6.669   2.993 -0.1429 -0.0191 -0.0748
13885SOL    HW152874   9.772   6.755   3.001 -0.9636  0.2898  1.9631
13885SOL    HW252875   9.771   6.608   2.930  0.3435  1.9745 -1.6786
13886SOL     OW52876   3.872   7.240   3.783  0.1855  0.2907  0.5299
13886SOL    HW152877   3.912   7.323   3.823  2.5007 -0.1349 -0.8080
13886SOL    HW252878   3.781   7.262   3.745  0.7856  2.2444  0.1362
13887SOL     OW52879   5.479   0.989   0.869  0.4580  0.6870 -0.1694
13887SOL    HW152880   5.468   1.026   0.961  0.7189 -0.7135  0.4305
13887SOL    HW252881   5.573   0.960   0.854 -0.1399 -1.5066  0.0661
13888SOL     OW52882   2.102   0.023   1.666  0.2941  0.2815  0.3258
13888SOL    HW152883   2.082   0.016   1.763  1.2360  0.2884  0.5208
13888SOL    HW252884   2.022  -0.008   1.613 -0.6818  1.4523  1.0772
13889SOL     OW52885   1.689   6.483   2.982  0.5549  0.1078 -0.0203
13889SOL    HW152886   1.768   6.428   2.951 -0.0033 -1.4626  1.2492
13889SOL    HW252887   1.623   6.490   2.908  0.9144 -0.4170 -0.4004
13890SOL     OW52888   7.115   0.540   3.823  0.3153  0.2936  0.0444
13890SOL    HW152889   7.179   0.583   3.887  1.6312 -0.4520 -0.7547
13890SOL    HW252890   7.089   0.606   3.753  0.2240  0.5924  0.3582
13891SOL     OW52891   0.557   9.818   1.901  0.0528 -0.7190 -0.5397
13891SOL    HW152892   0.520   9.788   1.813  1.9668 -1.3682 -1.1660
13891SOL    HW252893   0.492   9.798   1.974 -0.9074 -1.5940 -1.6224
13892SOL     OW52894   3.867   8.852   3.164 -0.3106  0.7396 -0.4004
13892SOL    HW152895   3.944   8.882   3.220 -1.0725  0.6616  0.7010
13892SOL    HW252896   3.831   8.930   3.113  0.2356  0.8565 -0.6171
13893SOL     OW52897   1.566   0.255   5.295 -0.1492 -0.1412  0.0891
13893SOL    HW152898   1.480   0.291   5.258 -0.8932  0.0180  1.8935
13893SOL    HW252899   1.576   0.159   5.269 -0.8068 -0.1178 -0.2762
13894SOL     OW52900   1.954   9.222   2.034 -0.1650  0.0375 -0.0851
13894SOL    HW152901   1.944   9.311   1.991 -1.1156  0.6079  1.2731
13894SOL    HW252902   2.024   9.227   2.105  1.0678 -0.7740 -1.2304
13895SOL     OW52903   2.872   1.752   0.905  0.6384 -0.4948 -0.0342
13895SOL    HW152904   2.958   1.793   0.876  0.7849  0.4130  1.6326
13895SOL    HW252905   2.836   1.803   0.983  0.3419 -2.9404  1.4658
13896SOL     OW52906   2.376   8.198   5.858 -0.2335 -0.4631 -0.1780
13896SOL    HW152907   2.276   8.204   5.858 -0.2765 -1.0137  1.6730
13896SOL    HW252908   2.412   8.241   5.941  0.9773 -1.7948  0.0011
13897SOL     OW52909   1.476   5.416   1.586  0.3838 -0.0640  0.3114
13897SOL    HW152910   1.439   5.503   1.554  1.0283 -0.1757 -0.7492
13897SOL    HW252911   1.575   5.423   1.595  0.2826 -0.2249  1.7247
13898SOL     OW52912   1.988   3.807   2.691 -0.4274  0.5668  0.3128
13898SOL    HW152913   1.992   3.862   2.608  0.7769  2.0336  1.3174
13898SOL    HW252914   1.932   3.854   2.759 -0.1504  0.1062  0.8587
13899SOL     OW52915   4.438   3.022   1.823 -0.6558  0.2035  0.3197
13899SOL    HW152916   4.365   3.084   1.852 -0.2723  0.7519  0.1336
13899SOL    HW252917   4.522   3.044   1.873 -0.1719  0.7030 -0.6993
13900SOL     OW52918   2.036   4.189   4.441 -0.0037  0.1788  0.1942
13900SOL    HW152919   2.067   4.107   4.490 -1.4043  0.9066  2.3728
13900SOL    HW252920   1.938   4.182   4.423 -0.1781  1.4326  0.5652
13901SOL     OW52921   2.712   9.059   1.806  0.1301 -0.7909 -0.4479
13901SOL    HW152922   2.805   9.097   1.808 -0.3031  0.2212  1.5035
13901SOL    HW252923   2.649   9.121   1.852 -1.4118 -1.8154 -1.1139
13902SOL     OW52924   0.027   8.746   0.407  0.3014  0.3223 -0.4392
13902SOL    HW152925   0.126   8.752   0.394  0.3590 -0.0502 -0.1687
13902SOL    HW252926   0.006   8.744   0.504 -0.0243  1.2482 -0.4861
13903SOL     OW52927   2.436   9.520   1.343  0.2408 -0.5023 -0.0534
13903SOL    HW152928   2.346   9.526   1.301  1.4961 -0.0770 -2.7408
13903SOL    HW252929   2.459   9.608   1.386  0.1465 -0.0233 -0.9793
13904SOL     OW52930   1.292   4.168   6.167 -0.2603 -0.6935  0.1045
13904SOL    HW152931   1.341   4.253   6.148 -3.7485  1.1048 -1.4499
13904SOL    HW252932   1.289   4.112   6.084 -1.6537 -0.2993 -0.1297
13905SOL     OW52933   3.608   0.485   6.744 -0.4278  0.4929 -0.0999
13905SOL    HW152934   3.588   0.411   6.679 -1.0193  0.1490  0.4682
13905SOL    HW252935   3.672   0.452   6.814 -0.1280  0.7346 -0.2598
13906SOL     OW52936   3.783   4.930   5.979  0.6137  0.0735 -0.2446
13906SOL    HW152937   3.871   4.968   5.951  0.1532  0.0468 -1.7508
13906SOL    HW252938   3.710   4.970   5.924 -0.5849  1.7468  2.4754
13907SOL     OW52939   4.048   6.151   1.500 -0.2661  0.1328  0.2144
13907SOL    HW152940   3.965   6.206   1.507 -0.1962  0.2774 -0.0819
13907SOL    HW252941   4.057   6.117   1.406 -0.1256 -0.0949  0.3105
13908SOL     OW52942   8.535   4.375   0.565  0.0541  0.0558 -0.0191
13908SOL    HW152943   8.551   4.461   0.613 -0.7900  0.2508 -0.0761
13908SOL    HW252944   8.438   4.353   0.569 -0.0808  0.2479 -1.9169
13909SOL     OW52945   3.118   8.492   4.246 -0.2471  0.7656 -0.1163
13909SOL    HW152946   3.118   8.433   4.166 -0.6136  0.7915 -0.1401
13909SOL    HW252947   3.057   8.570   4.229 -1.8134 -0.2182  0.9008
13910SOL     OW52948   5.650   3.985   6.612 -0.4339  0.5527  0.1594
13910SOL    HW152949   5.616   4.077   6.594  0.4375  0.8625  0.0711
13910SOL    HW252950   5.742   3.975   6.572 -1.5753 -1.1887 -2.1751
13911SOL     OW52951   2.220   6.822   6.625 -0.0336 -0.1406 -0.2747
13911SOL    HW152952   2.244   6.832   6.528 -2.0180  2.3769 -0.5643
13911SOL    HW252953   2.145   6.758   6.635 -0.2758  0.1111 -0.4814
13912SOL     OW52954   3.092   1.067   0.128 -0.0839 -0.0106  0.5738
13912SOL    HW152955   3.051   1.146   0.083  0.7401  0.2425  0.2544
13912SOL    HW252956   3.184   1.090   0.160 -0.5345 -0.3004  2.0881
13913SOL     OW52957   2.982   0.694   6.027  0.0590  0.1462 -0.5553
13913SOL    HW152958   2.887   0.720   6.008 -0.3645 -0.6920  0.3716
13913SOL    HW252959   3.042   0.734   5.957 -0.9639  0.7285 -1.1167
13914SOL     OW52960   7.510   2.133   5.754 -0.0938 -0.8405 -0.1792
13914SOL    HW152961   7.547   2.218   5.718 -1.4743 -0.5148 -0.8708
13914SOL    HW252962   7.496   2.141   5.852  1.0787 -0.7661 -0.0066
13915SOL     OW52963   1.494   5.489   0.351  0.0001 -0.2313 -0.8046
13915SOL    HW152964   1.464   5.476   0.257 -1.0926  0.1528 -0.5104
13915SOL    HW252965   1.593   5.473   0.357 -0.1854 -1.7307 -1.7167
13916SOL     OW52966   9.734   9.271   0.331  0.4207  0.2214 -0.3191
13916SOL    HW152967   9.690   9.350   0.374  1.3042  1.6831 -2.0402
13916SOL    HW252968   9.673   9.192   0.338 -1.1025  1.4081  0.1735
13917SOL     OW52969   8.387   4.658   5.411 -0.6865  0.3736  0.0328
13917SOL    HW152970   8.354   4.682   5.502 -2.6265  1.1144 -0.8366
13917SOL    HW252971   8.486   4.644   5.414 -0.8290 -0.4166  2.4074
13918SOL     OW52972   9.073   5.852   0.214  0.1751  0.0781  0.3789
13918SOL    HW152973   9.134   5.789   0.263 -0.6055 -1.0590 -0.0985
13918SOL    HW252974   9.122   5.890   0.135  0.6771  0.1361  0.7144
13919SOL     OW52975   4.348   5.876   1.956 -0.0512  0.2792 -0.3150
13919SOL    HW152976   4.271   5.815   1.974 -0.9468  1.6798  0.7532
13919SOL    HW252977   4.313   5.963   1.919  1.2116  0.0743 -2.0553
13920SOL     OW52978   2.424   6.076   5.866  0.1551 -0.2310 -0.1127
13920SOL    HW152979   2.361   6.067   5.789 -0.0613  0.5665 -0.0354
13920SOL    HW252980   2.469   6.165   5.862 -2.2717  1.1963  2.4732
13921SOL     OW52981   1.319   1.799   6.658 -0.0027 -0.6573 -0.1162
13921SOL    HW152982   1.280   1.889   6.675  0.3895 -0.6715  0.8996
13921SOL    HW252983   1.392   1.806   6.590  0.5265 -0.0827  0.5004
13922SOL     OW52984   2.613   7.921   2.548  0.4034  0.1554 -0.1686
13922SOL    HW152985   2.636   8.001   2.604  2.3267 -0.7863  0.4218
13922SOL    HW252986   2.578   7.951   2.460  1.4081  1.6499 -0.0755
13923SOL     OW52987   7.065   3.669   1.347  0.4270  0.3181 -0.5658
13923SOL    HW152988   7.083   3.758   1.390  0.8001  0.3405 -0.7695
13923SOL    HW252989   7.042   3.683   1.250 -0.0700  0.2379 -0.4640
13924SOL     OW52990   7.256   1.466   5.127 -0.2865  0.1948  0.5628
13924SOL    HW152991   7.313   1.496   5.203  0.5419  1.7030 -0.6140
13924SOL    HW252992   7.242   1.543   5.064 -2.6945 -0.4523  0.2615
13925SOL     OW52993   2.862   8.997   4.400 -0.2043 -0.2945 -0.1682
13925SOL    HW152994   2.768   8.987   4.431  0.0207 -0.4317  0.4759
13925SOL    HW252995   2.900   8.907   4.378 -0.6497 -0.1196 -1.7086
13926SOL     OW52996   9.503   0.485   0.038 -0.1716  0.1530 -0.1902
13926SOL    HW152997   9.427   0.536   0.078  0.4152  0.0440  1.0851
13926SOL    HW252998   9.485   0.387   0.045 -0.0579  0.1318 -0.2030
13927SOL     OW52999   5.290   9.622   3.651  0.6994  0.5536 -0.4842
13927SOL    HW153000   5.333   9.533   3.636  1.6198  1.0178 -0.6446
13927SOL    HW253001   5.321   9.687   3.582  1.0091  1.3314  0.3587
13928SOL     OW53002   0.480   9.453   2.315 -0.1218 -0.4465 -0.3925
13928SOL    HW153003   0.540   9.525   2.349 -0.7779  0.5135 -1.2512
13928SOL    HW253004   0.411   9.432   2.384  0.1410 -0.3491 -0.0967
13929SOL     OW53005   7.226   8.550   5.269  0.0700  0.8582 -0.3364
13929SOL    HW153006   7.180   8.626   5.223 -0.4405  1.0718  0.5114
13929SOL    HW253007   7.165   8.510   5.338 -0.2381 -1.3137 -1.8030
13930SOL     OW53008   3.860   0.713   4.993 -0.0104 -0.0090 -0.3419
13930SOL    HW153009   3.762   0.731   4.990 -0.1330 -0.2073  1.7167
13930SOL    HW253010   3.908   0.793   5.027  0.6068  0.3061 -1.9611
13931SOL     OW53011   7.389   2.100   2.624  0.2718  0.1433  0.1089
13931SOL    HW153012   7.341   2.023   2.666  0.3110  0.2978  0.4322
13931SOL    HW253013   7.349   2.118   2.534  1.9139 -1.9194 -1.0995
13932SOL     OW53014   4.583   1.420   5.565  0.2383 -0.0904  0.3327
13932SOL    HW153015   4.636   1.368   5.632 -2.2944 -0.0765  2.4528
13932SOL    HW253016   4.551   1.505   5.607 -1.7683 -0.2849 -0.7315
13933SOL     OW53017   7.413   8.895   2.486  0.3988  0.1483  0.2194
13933SOL    HW153018   7.332   8.940   2.448  1.4645  0.7196 -1.4078
13933SOL    HW253019   7.484   8.963   2.503  0.3489 -0.2595  2.2217
13934SOL     OW53020   8.936   2.244   6.598  0.4052 -0.5495  0.0225
13934SOL    HW153021   8.938   2.160   6.652  0.9785 -0.3246  0.3425
13934SOL    HW253022   8.868   2.307   6.637  2.2744  0.4545  1.7199
13935SOL     OW53023   7.831   4.196   1.844  0.0898 -0.7522  0.0913
13935SOL    HW153024   7.825   4.238   1.753  3.1305  1.0027  0.6090
13935SOL    HW253025   7.804   4.263   1.913 -0.5806 -1.5272  0.5820
13936SOL     OW53026   1.043   5.446   5.720 -0.0304  0.5454 -0.0532
13936SOL    HW153027   1.071   5.401   5.806 -0.9495 -0.1675 -0.1285
13936SOL    HW253028   0.960   5.498   5.736 -1.0274 -0.7805 -0.8662
13937SOL     OW53029   3.094   0.994   0.574  0.9980  0.4307 -0.3041
13937SOL    HW153030   3.057   0.983   0.666  0.0310  1.3813 -0.5659
13937SOL    HW253031   3.127   0.906   0.540 -0.0006 -0.2175  0.3738
13938SOL     OW53032   8.956   9.907   1.936  0.2668  0.1456  0.1096
13938SOL    HW153033   9.032   9.890   1.999 -0.6452 -0.4524  1.0696
13938SOL    HW253034   8.909   9.992   1.963 -0.7149 -0.6155  0.8419
13939SOL     OW53035   1.870   3.743   0.225 -0.3472  0.1588 -0.1020
13939SOL    HW153036   1.931   3.689   0.282  0.1576  0.9077  0.0601
13939SOL    HW253037   1.811   3.800   0.282 -0.1333  0.5915 -0.3080
13940SOL     OW53038   3.064   8.141   3.542 -0.1716 -0.1066 -1.0365
13940SOL    HW153039   3.047   8.085   3.461 -0.0647 -1.1335 -0.3570
13940SOL    HW253040   3.107   8.227   3.514  1.2934 -1.1050 -1.9318
13941SOL     OW53041   8.005   5.782   4.359  0.0803  0.0206  0.5425
13941SOL    HW153042   7.943   5.842   4.309 -0.6164 -0.9115  0.2779
13941SOL    HW253043   8.097   5.788   4.320 -0.2229  0.1060 -0.1556
13942SOL     OW53044   8.137   2.238   6.075  0.0173 -0.4657  0.2028
13942SOL    HW153045   8.178   2.326   6.099  2.5358 -1.5545 -0.0189
13942SOL    HW253046   8.200   2.164   6.098 -1.7562 -2.1923 -0.3163
13943SOL     OW53047   1.756   9.283   6.245 -0.3524  0.4757 -0.5447
13943SOL    HW153048   1.768   9.200   6.190 -0.1562  0.8665 -1.0978
13943SOL    HW253049   1.661   9.312   6.240 -0.2078  0.8495 -1.1718
13944SOL     OW53050   3.733   1.761   0.582 -0.3397  0.1134 -0.1830
13944SOL    HW153051   3.649   1.806   0.553 -0.2149 -0.7740 -1.9782
13944SOL    HW253052   3.811   1.801   0.533  0.1033 -0.0986  0.3404
13945SOL     OW53053   0.193   3.442   2.813  0.0682 -0.9161 -0.4301
13945SOL    HW153054   0.205   3.350   2.777 -2.4523 -1.1039 -0.8473
13945SOL    HW253055   0.146   3.499   2.745 -2.7818 -0.6919  1.6350
13946SOL     OW53056   0.687   9.039   6.572  0.0850  0.0940  0.1821
13946SOL    HW153057   0.698   9.130   6.611 -1.3804  0.2746  0.1893
13946SOL    HW253058   0.770   9.014   6.521  0.3106  1.6305 -0.2167
13947SOL     OW53059   0.029   3.273   3.463 -0.2814 -1.0256 -0.4620
13947SOL    HW153060   0.030   3.246   3.560 -0.6552 -1.0025 -0.4532
13947SOL    HW253061   0.123   3.274   3.429 -0.2124 -1.8773 -0.3295
13948SOL     OW53062   3.197   6.656   2.343 -0.1886 -0.1181 -0.4414
13948SOL    HW153063   3.216   6.609   2.430  0.0504  0.8539  0.0422
13948SOL    HW253064   3.142   6.737   2.361  0.5804  0.5555 -1.1028
13949SOL     OW53065   6.520   8.707   3.830  0.0597  0.3896 -0.0118
13949SOL    HW153066   6.449   8.770   3.860 -0.9847 -0.2051 -1.1913
13949SOL    HW253067   6.578   8.682   3.908 -0.5250  1.5100  0.7889
13950SOL     OW53068   8.301   8.906   2.692 -0.3813 -0.4445  0.1911
13950SOL    HW153069   8.357   8.824   2.691 -0.7514 -0.7036  0.5778
13950SOL    HW253070   8.262   8.921   2.602  2.3513  1.1511 -0.8058
13951SOL     OW53071   0.622   7.805   3.830 -0.2704  0.1772 -0.0982
13951SOL    HW153072   0.652   7.855   3.749 -1.8278  0.8629 -0.2765
13951SOL    HW253073   0.557   7.735   3.804 -1.9820  1.4273  0.7077
13952SOL     OW53074   2.500   4.863   2.503  0.3003  0.4252  0.2203
13952SOL    HW153075   2.589   4.858   2.458  0.1055  2.8428 -0.5213
13952SOL    HW253076   2.498   4.802   2.582  3.2155  1.6482  1.2836
13953SOL     OW53077   3.010   9.408   4.718  0.8412  0.6924  0.4081
13953SOL    HW153078   2.926   9.354   4.710  0.9395  0.0934  2.9165
13953SOL    HW253079   2.988   9.505   4.713  0.1566  0.5178 -0.0737
13954SOL     OW53080   2.364   3.004   2.188  0.4439  0.5650  0.3952
13954SOL    HW153081   2.351   3.004   2.287 -1.6207  0.8801  0.1299
13954SOL    HW253082   2.462   3.001   2.168  0.8990  1.0164  2.4456
13955SOL     OW53083   0.875   1.630   3.468  0.3112  0.0675  0.0983
13955SOL    HW153084   0.881   1.536   3.502 -2.7718 -0.5397 -0.8907
13955SOL    HW253085   0.967   1.670   3.464  1.4940 -2.2914  2.1664
13956SOL     OW53086   8.710   4.457   6.436  0.1254 -0.0285  0.1992
13956SOL    HW153087   8.678   4.365   6.416  0.9632 -0.1606 -0.5719
13956SOL    HW253088   8.634   4.522   6.429  0.3579 -0.0262 -3.6789
13957SOL     OW53089   0.426   1.320   6.346 -0.0394  0.0794 -0.7296
13957SOL    HW153090   0.351   1.277   6.396  0.6870 -0.2348  0.1141
13957SOL    HW253091   0.466   1.253   6.283 -0.3452  0.1904 -1.0420
13958SOL     OW53092   4.158   1.681   4.507  0.4646  0.5374 -0.2755
13958SOL    HW153093   4.150   1.617   4.584 -0.3857 -0.5324 -1.2378
13958SOL    HW253094   4.246   1.728   4.512 -0.0093  1.3003  1.9696
13959SOL     OW53095   6.285   0.238   4.197 -0.0821  0.0975 -0.4185
13959SOL    HW153096   6.350   0.305   4.232  0.4511 -0.1672 -0.8854
13959SOL    HW253097   6.334   0.171   4.140 -0.6996 -0.3332 -0.4473
13960SOL     OW53098   5.561   1.097   1.873  0.0427  0.3874  0.1220
13960SOL    HW153099   5.465   1.122   1.858  0.3214  2.4992  1.5938
13960SOL    HW253100   5.575   1.077   1.970  1.1750  0.4920 -0.0152
13961SOL     OW53101   1.359   3.787   5.848 -0.0917 -0.0349 -0.2137
13961SOL    HW153102   1.435   3.819   5.792 -1.1122 -0.5147 -1.9103
13961SOL    HW253103   1.350   3.688   5.839 -0.4090 -0.0812  0.6103
13962SOL     OW53104   6.325   0.502   2.090 -0.1856 -0.1774 -0.1425
13962SOL    HW153105   6.332   0.485   2.188  1.4805  0.5576 -0.1211
13962SOL    HW253106   6.365   0.591   2.068 -2.4217  0.6004 -1.2259
13963SOL     OW53107   9.453   2.635   2.209 -0.1792 -0.5152  0.5893
13963SOL    HW153108   9.435   2.687   2.125 -2.0761 -0.0267  1.2565
13963SOL    HW253109   9.375   2.645   2.271  1.6270  0.0133  2.8687
13964SOL     OW53110   6.416   0.150   2.279  0.2053 -0.0305  0.0927
13964SOL    HW153111   6.425   0.109   2.370 -0.8935 -0.7222 -0.0899
13964SOL    HW253112   6.328   0.196   2.273  0.1633 -0.2147 -0.7056
13965SOL     OW53113   0.178   7.656   5.441 -0.8025  0.6144  0.3083
13965SOL    HW153114   0.186   7.691   5.534  0.4478  0.2733  0.3339
13965SOL    HW253115   0.117   7.577   5.441  1.2741 -1.0274  1.3018
13966SOL     OW53116   6.835   0.746   0.646  1.1446  0.1964  0.2543
13966SOL    HW153117   6.738   0.727   0.632  1.0648  0.6905  0.1508
13966SOL    HW253118   6.884   0.737   0.560  1.4783 -1.7317  0.6053
13967SOL     OW53119   8.997   2.294   3.070 -0.3780 -0.0917  0.0777
13967SOL    HW153120   9.000   2.288   2.970  0.8527 -0.2225  0.1117
13967SOL    HW253121   9.047   2.376   3.099 -1.2051  0.2413  0.5571
13968SOL     OW53122   9.888   6.431   0.245 -0.9781 -0.0967  0.3400
13968SOL    HW153123   9.953   6.366   0.284  0.3848  2.9757  3.4088
13968SOL    HW253124   9.936   6.493   0.183 -1.2840  1.1444  1.3363
13969SOL     OW53125   2.814   1.348   1.738 -0.0063  0.5322  0.4792
13969SOL    HW153126   2.742   1.278   1.735  1.2999 -0.7888 -1.8868
13969SOL    HW253127   2.801   1.412   1.663  2.2498 -0.7624 -1.0644
13970SOL     OW53128   9.462   8.250   6.193  0.4687  0.3877  0.1461
13970SOL    HW153129   9.474   8.201   6.279  0.4539  1.0819  0.5521
13970SOL    HW253130   9.532   8.321   6.185  1.2632 -0.5125 -1.0206
13971SOL     OW53131   3.961   8.358   1.518 -0.6518  0.4414 -0.4550
13971SOL    HW153132   3.868   8.384   1.492 -0.3068  2.1141 -0.1057
13971SOL    HW253133   4.009   8.322   1.438 -1.4606 -0.0300 -0.7318
13972SOL     OW53134   6.829   7.444   5.772  0.4639 -0.2068 -0.1459
13972SOL    HW153135   6.879   7.392   5.703 -0.8045 -1.8188  0.1228
13972SOL    HW253136   6.864   7.423   5.863  0.3987 -0.0734 -0.0883
13973SOL     OW53137   9.369   4.556   0.785 -0.2376  0.0626 -0.1066
13973SOL    HW153138   9.354   4.655   0.794 -0.0164  0.3134 -2.1811
13973SOL    HW253139   9.302   4.507   0.839 -0.2343  1.3603  1.1037
13974SOL     OW53140   8.263   2.354   4.940 -0.5273 -0.0483  0.5305
13974SOL    HW153141   8.191   2.404   4.892 -0.9027 -0.2538  0.8818
13974SOL    HW253142   8.239   2.343   5.036 -0.0483 -0.1559  0.6405
13975SOL     OW53143   0.696   4.038   2.408 -0.3105  0.1288 -0.3272
13975SOL    HW153144   0.638   3.959   2.391  1.2308 -1.2725  0.7166
13975SOL    HW253145   0.708   4.050   2.507  0.4882  0.9186 -0.5094
13976SOL     OW53146   7.015   3.951   0.862 -0.5065 -0.0836 -0.8051
13976SOL    HW153147   6.980   4.014   0.931 -1.9391 -0.5162 -1.1080
13976SOL    HW253148   7.050   4.003   0.784  0.7600  0.3913  0.0776
13977SOL     OW53149   3.749   9.261   6.590 -0.0183  0.3882  0.1785
13977SOL    HW153150   3.823   9.249   6.656  0.4031 -1.7314 -0.6531
13977SOL    HW253151   3.676   9.195   6.610 -1.3137  1.8750  0.4569
13978SOL     OW53152   4.122   8.123   3.953  0.3158  0.0567  0.6699
13978SOL    HW153153   4.160   8.123   3.860 -1.3233 -2.2401 -0.0206
13978SOL    HW253154   4.086   8.215   3.973  2.5642  1.1649 -0.1395
13979SOL     OW53155   8.240   0.356   3.605 -0.2961 -0.0186 -0.4350
13979SOL    HW153156   8.170   0.426   3.621 -0.4754 -0.4057  0.5168
13979SOL    HW253157   8.243   0.294   3.683  0.3229 -0.6839 -0.9827
13980SOL     OW53158   6.608   9.724   4.946 -0.0763 -0.4942 -0.0670
13980SOL    HW153159   6.599   9.817   4.984 -0.9697 -0.8119  0.5265
13980SOL    HW253160   6.682   9.676   4.992  1.4042  0.4347 -1.4376
13981SOL     OW53161   4.588   5.024   0.600  0.3457  0.0459 -0.0484
13981SOL    HW153162   4.589   5.059   0.694 -0.8815 -0.8561  0.3167
13981SOL    HW253163   4.544   5.091   0.541 -0.0678  0.0583  0.2651
13982SOL     OW53164   4.749   0.068   4.140  0.2429 -0.3663  0.3741
13982SOL    HW153165   4.652   0.083   4.120  0.1507  0.6503  1.5014
13982SOL    HW253166   4.773  -0.027   4.119 -1.5408 -1.2379  2.1053
13983SOL     OW53167   4.826   6.921   1.785  0.8667  0.8008 -0.0328
13983SOL    HW153168   4.898   6.955   1.724  1.9025  0.2791  0.8851
13983SOL    HW253169   4.856   6.929   1.880  0.3171 -0.8165  0.2932
13984SOL     OW53170   3.754   1.305   5.268 -0.0019  0.5047  0.0147
13984SOL    HW153171   3.731   1.343   5.358  1.1649  2.4301 -0.4648
13984SOL    HW253172   3.783   1.210   5.278 -0.7975  0.4105  1.5466
13985SOL     OW53173   1.690   5.053   6.004  0.0942  0.3538 -0.3846
13985SOL    HW153174   1.670   5.111   5.925 -3.2908  1.2882  1.0372
13985SOL    HW253175   1.608   5.000   6.027  1.9667 -2.1346  0.6817
13986SOL     OW53176   1.448   3.324   4.582 -0.2002  0.0242 -0.0315
13986SOL    HW153177   1.373   3.386   4.559 -1.0215 -0.8467  0.2517
13986SOL    HW253178   1.415   3.230   4.579  1.6478 -0.5770 -2.9045
13987SOL     OW53179   3.582   4.928   2.436 -0.0528 -0.1654 -0.5285
13987SOL    HW153180   3.574   4.897   2.341  1.3942 -1.1559 -0.3365
13987SOL    HW253181   3.537   4.862   2.496 -2.1074  1.1040 -0.5991
13988SOL     OW53182   3.008   7.270   0.410  0.0195 -0.1384  0.7138
13988SOL    HW153183   2.934   7.337   0.414 -0.7246 -0.8793 -0.2635
13988SOL    HW253184   3.089   7.307   0.455 -0.8875  0.7516  1.6381
13989SOL     OW53185   1.356   0.329   3.974  0.0904 -0.4275 -0.1670
13989SOL    HW153186   1.352   0.355   4.071 -1.0106  1.8290 -0.7845
13989SOL    HW253187   1.446   0.349   3.937  0.0839  0.0173  0.0545
13990SOL     OW53188   7.702   6.372   3.264  0.0539 -0.3267 -0.2697
13990SOL    HW153189   7.730   6.441   3.331 -1.1839  1.3811 -1.4584
13990SOL    HW253190   7.688   6.417   3.175 -3.1542 -1.6944 -0.5014
13991SOL     OW53191   7.433   2.440   3.766 -0.4448 -0.1673 -0.2049
13991SOL    HW153192   7.532   2.455   3.776 -0.4909  0.5458 -0.8045
13991SOL    HW253193   7.417   2.363   3.705 -0.2639  0.1665 -0.6780
13992SOL     OW53194   1.867   9.143   0.693  0.1047  0.5819 -0.3456
13992SOL    HW153195   1.795   9.211   0.705 -0.7893 -0.4065 -0.0294
13992SOL    HW253196   1.884   9.096   0.779 -0.9294 -1.2164 -1.1054
13993SOL     OW53197   8.155   1.417   5.269  0.2775 -0.4402 -0.5032
13993SOL    HW153198   8.084   1.367   5.220 -0.9153  1.3302 -0.6219
13993SOL    HW253199   8.205   1.353   5.328 -0.3791 -1.9926 -1.5842
13994SOL     OW53200   0.927   7.441   0.911  0.5874 -0.0050 -0.3574
13994SOL    HW153201   0.836   7.438   0.871  0.4400  1.4875 -0.1641
13994SOL    HW253202   0.976   7.521   0.877  1.4179 -0.1787  0.3983
13995SOL     OW53203   2.496   1.998   1.786  0.6895 -0.5536 -0.5065
13995SOL    HW153204   2.555   2.022   1.863  1.1841 -2.0113 -0.4257
13995SOL    HW253205   2.524   2.051   1.706  0.5591  0.5230  0.1434
13996SOL     OW53206   1.133   1.780   3.525 -0.8212 -0.4369  0.3681
13996SOL    HW153207   1.194   1.784   3.445  0.3550 -1.4171  1.2016
13996SOL    HW253208   1.116   1.872   3.559  0.2590 -0.1721  0.1861
13997SOL     OW53209   6.896   0.984   0.323  0.4844  0.4990  0.8171
13997SOL    HW153210   6.968   1.029   0.270  1.7306 -3.3002 -0.9280
13997SOL    HW253211   6.818   0.965   0.263 -0.4407  1.1956  1.7774
13998SOL     OW53212   3.200   5.190   4.225 -0.4576  0.3258 -0.0536
13998SOL    HW153213   3.158   5.212   4.137 -1.9488 -0.0602  0.5457
13998SOL    HW253214   3.264   5.114   4.214  0.6449  1.3798 -1.1094
13999SOL     OW53215   9.557   9.123   4.357 -0.1804  0.1911 -0.7754
13999SOL    HW153216   9.497   9.131   4.278 -1.3865  0.0096  0.1220
13999SOL    HW253217   9.595   9.213   4.379  1.2388  0.0181 -2.3779
14000SOL     OW53218   4.799   2.143   2.346  0.3287 -0.7415 -0.4344
14000SOL    HW153219   4.813   2.129   2.444 -0.5487 -1.8192 -0.4434
14000SOL    HW253220   4.724   2.207   2.332 -0.1309 -1.2681 -0.3977
14001SOL     OW53221   8.120   1.803   1.443  0.5725 -0.5681 -0.2759
14001SOL    HW153222   8.083   1.710   1.441  0.1956 -0.4373  0.4149
14001SOL    HW253223   8.080   1.856   1.369  0.1617 -0.7240 -0.1663
14002SOL     OW53224   5.293   0.326   4.571 -0.4640  0.4998  0.5223
14002SOL    HW153225   5.358   0.401   4.578 -0.9731  1.0500 -0.7075
14002SOL    HW253226   5.201   0.362   4.552 -0.4887 -0.4972 -1.3339
14003SOL     OW53227   4.806   1.807   4.047 -0.2031  0.4540 -0.4148
14003SOL    HW153228   4.885   1.863   4.021  0.2467 -0.3180 -0.7245
14003SOL    HW253229   4.722   1.854   4.019  0.2693 -0.3481 -3.3437
14004SOL     OW53230   9.764   4.256   0.617  0.5256  0.0092 -0.9867
14004SOL    HW153231   9.859   4.230   0.598  0.7441 -0.4194  0.6832
14004SOL    HW253232   9.702   4.186   0.581  0.8989 -0.4443 -0.7469
14005SOL     OW53233   1.162   7.208   6.737 -0.0753 -0.0283 -0.0152
14005SOL    HW153234   1.202   7.159   6.815 -0.0151  1.0113  0.6197
14005SOL    HW253235   1.108   7.144   6.682 -0.5789 -0.6528  1.1920
14006SOL     OW53236   2.987   9.241   5.402 -0.8144 -0.3474  0.3821
14006SOL    HW153237   2.894   9.276   5.390 -0.5571  0.5129  0.8481
14006SOL    HW253238   3.053   9.309   5.369 -0.3114 -0.3871  1.2721
14007SOL     OW53239   3.273   3.417   5.197  0.2271 -0.5652  0.1228
14007SOL    HW153240   3.349   3.444   5.255  0.9008 -0.9190 -0.5783
14007SOL    HW253241   3.197   3.384   5.253  1.1096 -1.5010  0.7800
14008SOL     OW53242   0.491   9.718   0.029  0.2422  0.1586 -0.8144
14008SOL    HW153243   0.456   9.680  -0.057 -1.5128 -0.0590 -0.0192
14008SOL    HW253244   0.444   9.674   0.106  0.6873  1.4777  0.2179
14009SOL     OW53245   3.796   7.961   1.470  0.1312  0.5368  0.0970
14009SOL    HW153246   3.753   7.966   1.379  0.4269  1.2282 -0.0051
14009SOL    HW253247   3.875   7.901   1.465  0.2547  0.7168 -0.1494
14010SOL     OW53248   3.501   8.742   5.965 -0.4537 -0.1862 -0.0374
14010SOL    HW153249   3.429   8.793   6.011 -0.4519  0.3099 -0.5749
14010SOL    HW253250   3.464   8.697   5.884 -0.4083 -0.8726  0.3205
14011SOL     OW53251   2.771   3.093   3.753 -1.0290  0.1605  0.5263
14011SOL    HW153252   2.849   3.120   3.697 -2.0670  1.5846 -0.2375
14011SOL    HW253253   2.789   3.119   3.848 -0.6415  0.6202  0.3314
14012SOL     OW53254   3.948   0.823   4.262  0.1474 -0.2867  0.3098
14012SOL    HW153255   3.899   0.773   4.333  0.5171 -0.5055  0.4169
14012SOL    HW253256   3.931   0.780   4.173  0.2819 -0.4665  0.3708
14013SOL     OW53257   5.785   9.775   3.066  0.1459 -0.2346  0.2616
14013SOL    HW153258   5.746   9.697   3.115  1.8009 -0.8977  0.5615
14013SOL    HW253259   5.870   9.748   3.022  0.2050  1.1408 -0.4985
14014SOL     OW53260   7.879   2.215   3.792  0.0582  0.1189  0.4561
14014SOL    HW153261   7.787   2.178   3.802 -0.3693  0.6311 -1.4338
14014SOL    HW253262   7.946   2.149   3.826 -1.0214  0.0023  2.4392
14015SOL     OW53263   7.480   0.284   5.097 -0.8444  0.3576 -0.0337
14015SOL    HW153264   7.537   0.340   5.037 -2.0229  0.6160 -0.9176
14015SOL    HW253265   7.523   0.279   5.188  0.3662  0.8857 -0.5651
14016SOL     OW53266   8.234   5.073   4.936 -0.0856  0.7394  0.3265
14016SOL    HW153267   8.226   5.141   4.863  4.4917  1.2547  0.1784
14016SOL    HW253268   8.208   5.114   5.023 -2.3634  1.0898 -0.4818
14017SOL     OW53269   3.136   7.076   1.406  0.0066  0.3979 -1.0965
14017SOL    HW153270   3.162   7.163   1.448  1.5364  0.0491 -1.2817
14017SOL    HW253271   3.050   7.044   1.445  1.1140  0.3316  1.4304
14018SOL     OW53272   2.940   9.185   1.880 -0.0361 -0.2377 -0.3420
14018SOL    HW153273   2.919   9.275   1.841 -1.2694 -0.3217  0.0947
14018SOL    HW253274   3.025   9.151   1.841  0.6093  1.2623 -0.2732
14019SOL     OW53275   2.606   9.966   2.004 -0.0636 -0.1351  0.0619
14019SOL    HW153276   2.656  10.020   1.935 -1.2480  0.1153 -0.6081
14019SOL    HW253277   2.516   9.942   1.968  0.1561 -1.9149  0.6537
14020SOL     OW53278   4.178   1.385   3.773 -0.2700  0.1847 -0.7951
14020SOL    HW153279   4.230   1.463   3.808 -1.7636  1.1245 -0.6411
14020SOL    HW253280   4.085   1.388   3.809 -0.1952 -1.9709 -0.3512
14021SOL     OW53281   7.852   1.314   4.652  0.6633  0.2547  0.3384
14021SOL    HW153282   7.758   1.287   4.673  0.3551  1.8058  1.0023
14021SOL    HW253283   7.913   1.287   4.726  0.3258  1.5248  1.0892
14022SOL     OW53284   0.289   7.607   2.389 -0.4689  0.1738  0.4127
14022SOL    HW153285   0.218   7.660   2.436 -1.1057 -0.6535  0.3818
14022SOL    HW253286   0.247   7.552   2.316  0.5983  2.0672 -1.7057
14023SOL     OW53287   4.547   7.507   3.480 -0.2066 -0.4018 -0.4464
14023SOL    HW153288   4.512   7.481   3.571  2.0299  0.4492  0.6975
14023SOL    HW253289   4.638   7.469   3.468  1.1514  2.7791 -0.7043
14024SOL     OW53290   8.764   7.315   3.586 -0.0962 -0.3116 -0.0664
14024SOL    HW153291   8.721   7.269   3.664 -0.0618  0.8554  0.6567
14024SOL    HW253292   8.700   7.381   3.547  1.3097  2.1903  1.6694
14025SOL     OW53293   4.871   5.033   1.778  0.2550  0.2406  0.3006
14025SOL    HW153294   4.830   5.093   1.710  1.6649  0.8809 -0.0232
14025SOL    HW253295   4.812   4.954   1.794 -1.3314  1.4017  0.2772
14026SOL     OW53296   8.198   1.706   3.033  0.2487 -0.0537 -0.3655
14026SOL    HW153297   8.167   1.762   2.957 -0.8419 -0.1031  0.0280
14026SOL    HW253298   8.179   1.753   3.119  2.4856  0.4957 -0.1420
14027SOL     OW53299   3.224   7.927   5.427 -0.4851  0.3090  0.4758
14027SOL    HW153300   3.307   7.914   5.373 -0.5733  2.2801 -0.1722
14027SOL    HW253301   3.178   7.839   5.440  0.0080 -0.3116 -1.8692
14028SOL     OW53302   2.175   2.603   2.549  0.0057  0.1290  0.0769
14028SOL    HW153303   2.209   2.697   2.540 -0.1898  0.2230  0.3130
14028SOL    HW253304   2.178   2.576   2.645 -0.1338 -0.0335  0.0359
14029SOL     OW53305   9.703   0.596   5.847  0.4176 -0.1168 -0.9562
14029SOL    HW153306   9.741   0.511   5.811  0.8065 -0.5441  0.4201
14029SOL    HW253307   9.653   0.577   5.932  0.1261  0.9587 -0.8804
14030SOL     OW53308   4.234   1.285   2.704  0.7394  0.1776  0.4813
14030SOL    HW153309   4.284   1.227   2.639 -0.8964  0.8246 -1.4203
14030SOL    HW253310   4.289   1.367   2.723  1.7109 -0.5319  0.7896
14031SOL     OW53311   4.346   0.589   1.270 -0.7966 -0.4552  0.5867
14031SOL    HW153312   4.446   0.588   1.275 -0.7563  1.2194  0.4399
14031SOL    HW253313   4.309   0.517   1.329  0.4585 -0.3504  1.5229
14032SOL     OW53314   2.349   6.060   2.483 -0.2006 -0.1528 -0.8046
14032SOL    HW153315   2.407   6.009   2.546  0.8131  0.4951 -1.2123
14032SOL    HW253316   2.349   6.157   2.508  0.7658  0.2212 -2.2194
14033SOL     OW53317   8.395   8.634   6.032 -0.6406  0.4932  0.2167
14033SOL    HW153318   8.368   8.579   6.111 -3.0200 -2.5251 -2.5136
14033SOL    HW253319   8.491   8.661   6.041  0.1864 -2.8342  2.4531
14034SOL     OW53320   5.212   3.978   1.468  0.4040 -0.2760  0.6432
14034SOL    HW153321   5.189   3.996   1.564  0.0647 -0.4668  0.6003
14034SOL    HW253322   5.248   4.061   1.426 -0.9216  0.2573  0.5076
14035SOL     OW53323   4.265   6.905   3.723  0.4169 -0.0422 -0.4122
14035SOL    HW153324   4.228   6.817   3.693  1.5012  0.2757 -2.7207
14035SOL    HW253325   4.201   6.978   3.699  1.3424  0.2260 -2.1518
14036SOL     OW53326   8.710   4.024   0.448  0.6676 -0.7371  0.1637
14036SOL    HW153327   8.710   3.929   0.477 -0.3570 -0.5676  0.7448
14036SOL    HW253328   8.702   4.084   0.528 -2.7450 -0.2791 -0.4373
14037SOL     OW53329   9.870   2.713   2.412 -0.2642  0.5988 -0.4873
14037SOL    HW153330   9.916   2.624   2.404 -0.9145  0.4344 -2.6942
14037SOL    HW253331   9.774   2.698   2.437 -0.2643  0.6932 -0.4307
14038SOL     OW53332   1.805   5.942   3.700 -0.7177 -0.0099  0.3673
14038SOL    HW153333   1.802   5.842   3.699  2.6238 -0.1831 -1.3948
14038SOL    HW253334   1.851   5.973   3.784  0.7719 -0.1228 -0.3858
14039SOL     OW53335   3.717   3.056   6.269  0.6332  0.0867  0.0045
14039SOL    HW153336   3.697   3.118   6.194  0.9484  1.0171  0.6767
14039SOL    HW253337   3.744   3.109   6.350  1.6748 -0.9529  0.3524
14040SOL     OW53338   4.929   9.977   2.439 -0.4419  0.0169 -0.8064
14040SOL    HW153339   5.023   9.948   2.419 -0.7491 -1.1586 -0.5542
14040SOL    HW253340   4.887  10.013   2.355 -0.2512 -0.7917 -1.2472
14041SOL     OW53341   8.116   3.349   4.936  0.3635  0.2333  0.2902
14041SOL    HW153342   8.110   3.424   4.870  0.6012 -0.6105 -0.7031
14041SOL    HW253343   8.094   3.262   4.891  1.2912 -0.4556  1.1270
14042SOL     OW53344   9.881   2.930   2.633  0.1734 -0.0253 -0.2058
14042SOL    HW153345   9.981   2.930   2.636  0.2001  1.3234 -0.6139
14042SOL    HW253346   9.845   2.879   2.711  1.1603  0.8645  0.8466
14043SOL     OW53347   1.004   5.339   3.982 -0.0648 -0.0800 -0.3048
14043SOL    HW153348   0.966   5.422   3.942 -0.1090  0.3758  0.6885
14043SOL    HW253349   1.096   5.357   4.017 -0.8197  0.0526  1.6408
14044SOL     OW53350   0.549   9.271   4.991  0.1330  0.7800 -0.4277
14044SOL    HW153351   0.512   9.285   5.083 -0.8206  0.5675 -0.7731
14044SOL    HW253352   0.538   9.354   4.937  0.0092  0.6669 -0.5808
14045SOL     OW53353   1.262   1.310   1.244 -0.1566  0.1134  0.0420
14045SOL    HW153354   1.263   1.408   1.225  0.2332  0.8407  3.5123
14045SOL    HW253355   1.188   1.289   1.308  1.2011 -1.4676  1.1414
14046SOL     OW53356   0.369   0.371   4.137 -0.3124  0.6209  0.3189
14046SOL    HW153357   0.442   0.371   4.068 -0.4100  0.8057  0.2176
14046SOL    HW253358   0.282   0.389   4.093 -0.5338 -0.4040  0.3181
14047SOL     OW53359   7.609   0.121   5.580  0.5480  0.4256 -0.7394
14047SOL    HW153360   7.636   0.025   5.579  0.6002  0.3623  2.5004
14047SOL    HW253361   7.651   0.167   5.658 -0.4208  2.8225 -1.5748
14048SOL     OW53362   7.336   9.234   1.894 -0.4779  0.8546 -0.2281
14048SOL    HW153363   7.285   9.158   1.853  0.0021 -0.5923  1.8038
14048SOL    HW253364   7.404   9.268   1.828 -0.1996 -0.9630 -0.9095
14049SOL     OW53365   4.038   1.658   6.379 -0.3167  0.2037 -0.1163
14049SOL    HW153366   4.016   1.561   6.389  1.5972 -0.2020  0.4115
14049SOL    HW253367   4.136   1.671   6.395 -0.9800  2.5898  2.3303
14050SOL     OW53368   9.966   8.797   5.630 -0.3176 -0.5327 -0.1586
14050SOL    HW153369  10.048   8.798   5.687 -0.6677 -0.3151  0.3422
14050SOL    HW253370   9.981   8.737   5.552 -0.1921 -1.6040  0.6864
14051SOL     OW53371   1.125   7.938   2.543 -0.1445 -0.1027 -0.3652
14051SOL    HW153372   1.053   8.004   2.522 -1.0344 -0.8197  0.4011
14051SOL    HW253373   1.091   7.870   2.607  1.2332 -0.4342  0.0433
14052SOL     OW53374   5.904   1.325   5.476 -0.1137  0.1225 -0.2214
14052SOL    HW153375   5.897   1.231   5.444 -0.8730  0.5270 -1.2366
14052SOL    HW253376   5.816   1.371   5.465  1.3168  2.2082 -3.6911
14053SOL     OW53377   1.160   4.403   0.083 -0.1432  0.7339  0.2351
14053SOL    HW153378   1.083   4.441   0.030  0.2221  0.9422 -0.1493
14053SOL    HW253379   1.129   4.382   0.175 -0.1302  2.7756  0.7271
14054SOL     OW53380   8.201   6.204   6.475  0.4330 -0.2577  0.6332
14054SOL    HW153381   8.131   6.148   6.430 -1.2293  1.0381  1.5591
14054SOL    HW253382   8.248   6.148   6.544  0.3977 -1.1622 -0.0638
14055SOL     OW53383   4.195   4.366   4.739 -0.7073  0.3202  0.2014
14055SOL    HW153384   4.241   4.454   4.744  1.3376 -0.6791 -0.5662
14055SOL    HW253385   4.111   4.375   4.686 -0.5811  1.8137  0.2316
14056SOL     OW53386   4.423   1.972   6.584  0.1763 -0.0194  0.0878
14056SOL    HW153387   4.393   2.032   6.658  0.5786  0.2219  0.0589
14056SOL    HW253388   4.490   2.021   6.527 -0.4512 -0.0559 -0.6833
14057SOL     OW53389   1.238   5.138   5.804  0.2302  0.7927 -0.1914
14057SOL    HW153390   1.150   5.097   5.829 -0.1125  1.4763 -0.2619
14057SOL    HW253391   1.252   5.222   5.857  1.1199  0.3576  0.2592
14058SOL     OW53392   7.607   0.580   6.572 -0.0936  0.0605 -0.4575
14058SOL    HW153393   7.652   0.654   6.523  0.5266 -1.8016 -2.7527
14058SOL    HW253394   7.676   0.523   6.617 -0.5473  0.6076  0.9702
14059SOL     OW53395   1.596   7.577   1.711 -0.0012  0.1755 -0.8255
14059SOL    HW153396   1.648   7.644   1.764 -1.0548  0.7082 -0.4520
14059SOL    HW253397   1.621   7.583   1.615  0.7561  0.2985 -0.6251
14060SOL     OW53398   8.078   4.611   5.049  0.4283 -0.3221 -0.2281
14060SOL    HW153399   8.167   4.574   5.074  1.2429  1.1324 -0.8778
14060SOL    HW253400   8.068   4.608   4.949  0.3800  0.8773 -0.2679
14061SOL     OW53401   2.371   4.947   3.376  0.0648 -0.1728  0.3609
14061SOL    HW153402   2.279   4.946   3.415  0.7196 -2.6996  1.9151
14061SOL    HW253403   2.424   5.021   3.418 -0.3836 -0.5389  1.5954
14062SOL     OW53404   2.894   2.877   6.294  0.0912  0.6127 -0.5779
14062SOL    HW153405   2.818   2.840   6.240  0.0391  2.2689 -1.6906
14062SOL    HW253406   2.918   2.814   6.368 -1.7424 -0.3595 -0.8080
14063SOL     OW53407   0.651   0.245   2.815 -0.2007 -0.1229 -0.4480
14063SOL    HW153408   0.646   0.210   2.909 -2.0625  2.5036  0.5033
14063SOL    HW253409   0.601   0.331   2.810  1.9964  1.0564 -3.2940
14064SOL     OW53410   9.117   0.121   1.167 -0.0319  0.0479 -0.1515
14064SOL    HW153411   9.125   0.195   1.233  0.6460  1.7075 -2.0694
14064SOL    HW253412   9.029   0.074   1.180 -1.5324  2.7032 -0.4475
14065SOL     OW53413   7.819   2.538   4.794  0.3643  0.0834  0.7130
14065SOL    HW153414   7.877   2.617   4.775  0.3586  0.5169  2.4755
14065SOL    HW253415   7.727   2.568   4.818  0.3010 -0.4646  1.1765
14066SOL     OW53416   3.055   0.790   0.213 -0.4805  0.8852 -0.2431
14066SOL    HW153417   3.078   0.884   0.189 -1.4810  1.1763 -0.0514
14066SOL    HW253418   3.113   0.759   0.289 -0.4801  1.4979  0.0020
14067SOL     OW53419   1.746   7.051   2.744 -0.2669 -0.0295 -0.0113
14067SOL    HW153420   1.653   7.068   2.774  0.5286  1.0500  1.8779
14067SOL    HW253421   1.776   7.124   2.682 -0.5537 -0.2063 -0.3602
14068SOL     OW53422   3.738   4.899   4.231 -0.5233  0.0668  0.2992
14068SOL    HW153423   3.697   4.988   4.248  0.3805  0.4724  0.3892
14068SOL    HW253424   3.727   4.875   4.135  1.4958  1.4475 -0.3009
14069SOL     OW53425   6.376   0.524   0.580 -0.4547 -0.1007 -0.5448
14069SOL    HW153426   6.283   0.549   0.554  0.4226  2.5728 -1.2193
14069SOL    HW253427   6.373   0.450   0.648 -2.9761 -1.6767 -2.2808
14070SOL     OW53428   1.328   8.462   3.076 -0.3207 -0.0981 -0.4281
14070SOL    HW153429   1.357   8.539   3.020 -2.7800  3.7982  3.3544
14070SOL    HW253430   1.401   8.437   3.140  0.3244 -0.6379 -1.3719
14071SOL     OW53431   8.623   6.363   6.304  0.4597 -0.0684  0.0888
14071SOL    HW153432   8.660   6.454   6.289  1.7171 -0.3160  1.4559
14071SOL    HW253433   8.613   6.347   6.403 -1.2602 -0.8258 -0.1895
14072SOL     OW53434   2.580   3.855   3.421  0.5323 -0.0193  0.4157
14072SOL    HW153435   2.522   3.779   3.450  0.8927 -0.8494 -0.9777
14072SOL    HW253436   2.566   3.873   3.323  1.7663  0.5130  0.3244
14073SOL     OW53437   0.461   0.896   5.387  0.2532 -0.2847  0.2217
14073SOL    HW153438   0.428   0.803   5.372 -1.4722  0.3570 -0.1553
14073SOL    HW253439   0.392   0.948   5.438  0.1789  1.4150 -1.5467
14074SOL     OW53440   0.023   5.165   5.020 -0.3592  0.0957  0.6989
14074SOL    HW153441  -0.054   5.104   5.036 -0.0709 -0.6492 -0.7030
14074SOL    HW253442  -0.005   5.239   4.958  0.5465 -1.2810 -1.4192
14075SOL     OW53443   7.915   8.249   3.285  0.2085  0.4025 -0.1898
14075SOL    HW153444   7.904   8.339   3.327 -1.1686  0.4071 -0.5655
14075SOL    HW253445   7.923   8.180   3.357 -4.0366  0.1666  0.1544
14076SOL     OW53446   2.257   6.358   3.253 -0.3261  0.3522 -0.0792
14076SOL    HW153447   2.217   6.271   3.284 -1.6317  0.0156 -2.5225
14076SOL    HW253448   2.193   6.433   3.273 -1.9674 -0.0882 -3.3133
14077SOL     OW53449   6.574   1.108   0.078 -0.3071  0.3108  0.2947
14077SOL    HW153450   6.592   1.028   0.134  1.0659  0.6237  0.3052
14077SOL    HW253451   6.617   1.189   0.118 -1.7840  1.0937  0.3510
14078SOL     OW53452   3.186   1.707   5.784  0.2285 -0.4412  0.1592
14078SOL    HW153453   3.169   1.615   5.749  3.5565  0.0582 -3.1034
14078SOL    HW253454   3.240   1.702   5.867  1.8948 -1.4453 -0.9488
14079SOL     OW53455   1.633   5.491   5.149  0.5267  0.3013  0.2723
14079SOL    HW153456   1.719   5.504   5.099 -0.2310  2.6019 -0.4820
14079SOL    HW253457   1.556   5.496   5.086 -0.3049  0.5475  1.2814
14080SOL     OW53458   9.577   3.341   5.414  0.1472 -0.1274 -0.5808
14080SOL    HW153459   9.480   3.356   5.392 -0.0022 -1.0199 -0.5683
14080SOL    HW253460   9.631   3.350   5.331  0.1162  0.8863 -0.4925
14081SOL     OW53461   6.115   1.554   2.923  0.4318 -0.0092  0.1401
14081SOL    HW153462   6.020   1.580   2.943  0.1461 -1.2809  0.4977
14081SOL    HW253463   6.127   1.549   2.823 -0.4376 -1.7709  0.0992
14082SOL     OW53464   9.640   8.638   0.458  0.4790 -0.4384 -0.1833
14082SOL    HW153465   9.689   8.711   0.507 -0.4672  0.6651 -0.8567
14082SOL    HW253466   9.703   8.594   0.394  0.7061  0.7351 -0.7907
14083SOL     OW53467   1.399   7.936   1.530 -0.0847 -0.5766  0.3880
14083SOL    HW153468   1.487   7.897   1.501 -0.4640 -1.3870  0.3082
14083SOL    HW253469   1.382   8.022   1.481  0.0851 -1.0518 -0.5108
14084SOL     OW53470   7.626   8.022   5.066 -0.5902  0.6134 -0.4274
14084SOL    HW153471   7.616   8.115   5.031  0.7594  0.3273 -1.5882
14084SOL    HW253472   7.617   7.957   4.991  2.3640 -0.0119 -0.2872
14085SOL     OW53473   4.527   2.264   3.222  0.3685 -0.3885 -0.5905
14085SOL    HW153474   4.453   2.197   3.231 -0.2046  0.5553  1.8387
14085SOL    HW253475   4.499   2.336   3.158 -1.5643  0.9304  1.6682
14086SOL     OW53476   4.282   8.091   1.703  0.1791 -0.0906 -0.8716
14086SOL    HW153477   4.316   8.070   1.795  0.8884  1.6492 -0.7207
14086SOL    HW253478   4.356   8.083   1.637 -0.1440 -0.5380 -1.1849
14087SOL     OW53479   2.184   2.681   1.396 -0.3540 -0.0309 -0.2245
14087SOL    HW153480   2.153   2.759   1.450 -1.4540 -0.6301  0.0066
14087SOL    HW253481   2.118   2.607   1.402  0.6708 -0.9886 -0.4596
14088SOL     OW53482   8.929   0.219   3.921  0.3571  0.2667 -0.1315
14088SOL    HW153483   8.909   0.245   3.826 -0.3570  0.6678  0.1221
14088SOL    HW253484   8.879   0.135   3.944 -0.7393  1.0452  0.3778
14089SOL     OW53485   5.855   7.649   3.712  0.5252  0.4850 -0.8996
14089SOL    HW153486   5.837   7.555   3.683  2.2479  0.1549 -0.9402
14089SOL    HW253487   5.883   7.703   3.633 -1.2859  1.2735 -1.0401
14090SOL     OW53488   1.447   3.055   2.480  0.1943 -0.6872 -0.1021
14090SOL    HW153489   1.541   3.048   2.445  0.1504  0.4404 -0.4400
14090SOL    HW253490   1.418   2.965   2.512  2.1885 -0.6045  2.0769
14091SOL     OW53491   4.621   5.447   3.349 -0.4841 -0.3976  0.2652
14091SOL    HW153492   4.685   5.394   3.404 -0.3745 -0.6576 -0.1113
14091SOL    HW253493   4.668   5.484   3.269 -1.2593 -2.2273 -1.0596
14092SOL     OW53494   8.481   2.491   6.329  0.2593  0.2528 -0.4726
14092SOL    HW153495   8.571   2.473   6.369 -0.3567 -1.0977  0.3584
14092SOL    HW253496   8.421   2.530   6.399  0.0474  0.6666 -0.8849
14093SOL     OW53497   3.241   2.170   3.929 -0.3367 -0.0854 -0.2269
14093SOL    HW153498   3.322   2.117   3.904  0.1665  0.2498  0.6783
14093SOL    HW253499   3.237   2.252   3.872 -0.4744 -0.4982 -0.8169
14094SOL     OW53500   5.274   5.418   1.850  0.4300 -0.3016  0.3162
14094SOL    HW153501   5.254   5.324   1.876  1.6903 -1.0189 -1.2079
14094SOL    HW253502   5.369   5.424   1.819  0.1739  1.3481 -0.1776
14095SOL     OW53503   0.314   5.534   6.063  0.0685 -0.0128  0.5399
14095SOL    HW153504   0.354   5.531   5.971  0.1328  1.4350  0.5086
14095SOL    HW253505   0.277   5.626   6.080  2.5170  0.5818  3.0106
14096SOL     OW53506   2.506   3.810   1.309  0.1195  0.4392  0.2762
14096SOL    HW153507   2.536   3.892   1.260  0.3440 -0.7139 -1.5700
14096SOL    HW253508   2.410   3.791   1.287 -0.3050  0.9287  1.7036
14097SOL     OW53509   4.248   1.409   2.303  0.5904 -0.1071  0.0165
14097SOL    HW153510   4.302   1.380   2.225  1.3064  0.6823  0.2152
14097SOL    HW253511   4.186   1.335   2.330 -1.2186  0.3700 -2.6449
14098SOL     OW53512   2.408   0.507   1.155  0.4217  0.1170 -0.0639
14098SOL    HW153513   2.432   0.417   1.117  2.4271  0.2738  0.7416
14098SOL    HW253514   2.419   0.504   1.254  0.2429  1.1721 -0.0146
14099SOL     OW53515   4.042   1.211   2.410 -0.5717 -0.1940 -0.4455
14099SOL    HW153516   4.024   1.299   2.453  1.5109 -0.4964  1.1445
14099SOL    HW253517   3.955   1.165   2.391 -1.6287  0.7478  1.8408
14100SOL     OW53518   1.996   8.686   3.614 -0.0119  0.6028 -0.1010
14100SOL    HW153519   1.977   8.760   3.550  0.5537 -0.0503 -1.0480
14100SOL    HW253520   2.082   8.705   3.663  1.4858 -0.6113 -2.1855
14101SOL     OW53521   9.609   5.061   4.633  0.3654 -0.0513 -0.2490
14101SOL    HW153522   9.679   5.015   4.578 -1.2484 -1.2886 -1.3223
14101SOL    HW253523   9.522   5.059   4.584 -0.8888 -0.2784  1.9285
14102SOL     OW53524   0.612   2.297   1.546  0.2135  0.1551 -0.1683
14102SOL    HW153525   0.528   2.249   1.572 -0.1827  0.4234 -0.9262
14102SOL    HW253526   0.627   2.287   1.447 -0.9739  3.2341 -0.7209
14103SOL     OW53527   8.534   5.142   5.053  0.1738  0.0092 -0.6293
14103SOL    HW153528   8.600   5.092   4.997  0.3557  0.5589 -0.9067
14103SOL    HW253529   8.459   5.175   4.995 -0.2505 -0.4343 -0.3498
14104SOL     OW53530   8.335   0.399   1.352  0.1696 -0.1748 -0.5192
14104SOL    HW153531   8.290   0.448   1.277  2.5180  1.0020 -1.2205
14104SOL    HW253532   8.298   0.430   1.439 -1.2915 -0.1991 -1.1184
14105SOL     OW53533   2.355   9.633   3.124  0.3890 -0.1832  0.4423
14105SOL    HW153534   2.443   9.588   3.112  0.2596 -0.2939 -0.1007
14105SOL    HW253535   2.328   9.678   3.039  0.6554  1.1812  1.0691
14106SOL     OW53536   2.516   4.234   5.198  0.1634 -0.3928  0.1243
14106SOL    HW153537   2.469   4.269   5.279  0.2164  0.5949 -0.2667
14106SOL    HW253538   2.485   4.285   5.117  0.4901 -1.0269 -0.4047
14107SOL     OW53539   7.497   0.600   1.777 -0.1514  0.1860  0.8340
14107SOL    HW153540   7.589   0.564   1.794 -0.4524 -0.9765  0.0171
14107SOL    HW253541   7.462   0.641   1.862  1.6340  1.8458  0.8115
14108SOL     OW53542   8.480   9.932   5.363 -0.0823 -0.0984  0.2206
14108SOL    HW153543   8.391   9.974   5.346  0.0655  0.6939  1.3523
14108SOL    HW253544   8.473   9.833   5.352 -0.9978  0.0026 -0.1248
14109SOL     OW53545   1.667   0.772   4.450 -0.3459  0.6588 -0.0475
14109SOL    HW153546   1.651   0.803   4.544  1.8622  1.7995 -0.0187
14109SOL    HW253547   1.747   0.819   4.412 -0.9763 -0.0761 -2.3748
14110SOL     OW53548   2.491   7.508   5.412 -0.7400 -0.7216  0.1931
14110SOL    HW153549   2.507   7.424   5.360  1.2040  0.0462 -0.4844
14110SOL    HW253550   2.549   7.509   5.493 -0.6077  0.0479  0.0963
14111SOL     OW53551   6.544   0.799   5.121 -0.2226 -0.3748 -0.0983
14111SOL    HW153552   6.566   0.783   5.217  0.8811 -0.3129 -0.3299
14111SOL    HW253553   6.575   0.722   5.066  0.5080  0.2481 -0.5823
14112SOL     OW53554   7.734   3.078   0.157  0.1792 -0.2267 -0.0718
14112SOL    HW153555   7.658   3.138   0.182 -0.0246 -0.0325 -1.1362
14112SOL    HW253556   7.710   2.984   0.180 -0.1792 -0.1061  0.0588
14113SOL     OW53557   1.402   2.351   1.459  0.2323 -0.1309 -0.5939
14113SOL    HW153558   1.448   2.429   1.501 -2.0913  1.5606 -1.0844
14113SOL    HW253559   1.357   2.381   1.374 -2.7786 -1.4168  0.4953
14114SOL     OW53560   9.055   5.436   1.906 -0.3815  0.5916  0.0483
14114SOL    HW153561   9.094   5.517   1.862 -0.2458  0.1551 -0.6440
14114SOL    HW253562   9.106   5.415   1.989 -0.3740  1.1768  0.1975
14115SOL     OW53563   7.280   6.823   4.849  0.2665  0.4764  0.4167
14115SOL    HW153564   7.251   6.875   4.929  2.6372  1.4776  0.6570
14115SOL    HW253565   7.310   6.732   4.877 -2.7227 -0.6369  0.1434
14116SOL     OW53566   4.409   1.557   2.741 -0.5787  0.3965 -0.1241
14116SOL    HW153567   4.490   1.499   2.743 -0.1205  0.9995 -1.0097
14116SOL    HW253568   4.401   1.605   2.829  0.5186  0.9938 -0.3331
14117SOL     OW53569   2.795   6.935   1.985 -0.3060  0.9212 -0.3399
14117SOL    HW153570   2.700   6.906   1.977 -0.3873  0.6420  1.5370
14117SOL    HW253571   2.810   6.980   2.073  1.4505  0.3145 -0.2982
14118SOL     OW53572   6.134   3.749   0.114  0.1333 -0.4164  0.1794
14118SOL    HW153573   6.178   3.669   0.156  0.6703 -0.4650 -0.4620
14118SOL    HW253574   6.061   3.782   0.174 -2.5023 -3.5763 -1.1485
14119SOL     OW53575   5.203   0.857   0.583  0.5027  0.3536 -0.0250
14119SOL    HW153576   5.182   0.784   0.518 -0.5267  0.3358  0.3089
14119SOL    HW253577   5.123   0.917   0.593  1.0055  0.9590  0.4356
14120SOL     OW53578   9.134   7.847   0.288  0.4281  0.4841  0.4884
14120SOL    HW153579   9.047   7.803   0.312  0.3894  0.9319  1.1557
14120SOL    HW253580   9.171   7.895   0.367  1.5676 -0.1590  0.3507
14121SOL     OW53581   2.243   3.338   2.445 -0.0774  0.1477 -0.1837
14121SOL    HW153582   2.183   3.270   2.487 -1.7306 -0.8408 -3.9151
14121SOL    HW253583   2.338   3.318   2.470 -0.8245 -1.6477  1.3291
14122SOL     OW53584   2.234   8.732   1.505 -0.5002 -0.2367 -0.2550
14122SOL    HW153585   2.159   8.667   1.518  0.4534 -1.6150 -1.4589
14122SOL    HW253586   2.239   8.759   1.409  0.3797  0.0413 -0.1409
14123SOL     OW53587   5.823   5.887   0.865  0.6212  0.2975  0.1974
14123SOL    HW153588   5.808   5.978   0.826 -1.4195 -0.5126 -0.9709
14123SOL    HW253589   5.781   5.818   0.807  2.1901 -1.4187  1.0588
14124SOL     OW53590   7.168   1.376   1.782  0.0144 -0.1876  0.2001
14124SOL    HW153591   7.119   1.401   1.865 -0.8528  0.7813 -0.5940
14124SOL    HW253592   7.164   1.277   1.769  1.1049 -0.4772  1.8888
14125SOL     OW53593   9.025   6.342   2.724 -0.1919 -0.3034 -0.5579
14125SOL    HW153594   9.035   6.336   2.625 -0.1403  2.5468 -0.7685
14125SOL    HW253595   9.114   6.364   2.765 -0.6652  0.7490 -0.0939
14126SOL     OW53596   9.549   5.702   0.881  0.4143 -0.4553  0.0153
14126SOL    HW153597   9.466   5.703   0.936  0.7576  0.6586  0.5329
14126SOL    HW253598   9.528   5.664   0.790 -0.4890 -0.8531  0.3830
14127SOL     OW53599   4.207   8.331   6.581 -0.4270  0.3509 -0.0142
14127SOL    HW153600   4.229   8.428   6.570  1.0950  0.3290  2.4069
14127SOL    HW253601   4.215   8.306   6.678 -0.1330 -2.3452 -0.7001
14128SOL     OW53602   0.403   6.988   1.651  0.1080 -0.7176  0.3603
14128SOL    HW153603   0.482   7.001   1.591 -0.0085 -2.5630 -0.2239
14128SOL    HW253604   0.337   6.927   1.606 -0.5228 -1.1598  1.8727
14129SOL     OW53605   4.677   3.571   2.599  0.2295  0.5955  0.0077
14129SOL    HW153606   4.706   3.508   2.671 -0.2613 -0.4871 -0.7334
14129SOL    HW253607   4.717   3.661   2.616 -0.0881  0.4320  1.7803
14130SOL     OW53608   9.773   3.940   3.593  0.6414 -0.3322 -0.7004
14130SOL    HW153609   9.779   3.974   3.687  0.3399  0.5436 -0.9969
14130SOL    HW253610   9.700   3.873   3.587  2.9683 -3.0972  0.4982
14131SOL     OW53611   4.101   2.884   6.103  0.8259  0.3162 -0.0492
14131SOL    HW153612   4.174   2.903   6.037  0.3344  0.4701 -0.5520
14131SOL    HW253613   4.052   2.801   6.075  0.8252  0.1956  0.3067
14132SOL     OW53614   4.992   4.243   0.724 -0.0312 -0.4235  0.1246
14132SOL    HW153615   5.005   4.324   0.782  0.7744  1.6613 -2.8581
14132SOL    HW253616   4.894   4.226   0.713 -0.2854  2.0407 -1.7225
14133SOL     OW53617   4.386   5.298   6.479  0.3948 -0.2204  0.4980
14133SOL    HW153618   4.301   5.295   6.426  0.3107  0.6252  0.5685
14133SOL    HW253619   4.441   5.376   6.449  1.0043 -0.5930  0.6617
14134SOL     OW53620   2.615   4.073   3.587 -0.0088 -0.3361  0.0806
14134SOL    HW153621   2.587   3.995   3.531  0.1579 -0.2463 -0.1282
14134SOL    HW253622   2.715   4.077   3.592 -0.0016  0.2217 -0.4222
14135SOL     OW53623   7.910   2.645   6.448  0.3348  0.4658  0.0177
14135SOL    HW153624   7.902   2.549   6.421  1.0753  0.0219  1.3321
14135SOL    HW253625   7.819   2.684   6.458 -0.0366 -0.7447  1.6682
14136SOL     OW53626   7.403   9.330   2.618 -0.3263 -0.0250  0.0159
14136SOL    HW153627   7.406   9.317   2.717  2.6031 -1.0347 -0.1784
14136SOL    HW253628   7.491   9.363   2.585 -0.8029 -1.0620 -2.4466
14137SOL     OW53629   2.582   8.458   2.738 -0.3529 -0.2840  0.8222
14137SOL    HW153630   2.519   8.487   2.665 -0.0375  0.4859  0.8550
14137SOL    HW253631   2.542   8.381   2.787 -1.8152  0.9473  1.6003
14138SOL     OW53632   4.961   4.449   1.768 -0.0855  0.2645 -0.3970
14138SOL    HW153633   4.874   4.429   1.722 -1.3684  0.0981  2.0199
14138SOL    HW253634   4.947   4.451   1.867  2.8100 -0.4262  0.0809
14139SOL     OW53635   5.649   0.903   4.866 -0.0975 -0.7273 -0.8434
14139SOL    HW153636   5.745   0.878   4.859 -0.0707 -1.6684  2.0249
14139SOL    HW253637   5.640   0.991   4.912 -0.5906 -0.4265 -1.5056
14140SOL     OW53638   1.267   7.892   3.198  0.4702 -0.2624 -0.7896
14140SOL    HW153639   1.314   7.891   3.286  0.6123  0.6050 -0.8452
14140SOL    HW253640   1.248   7.987   3.172  0.0973 -0.5324 -1.5135
14141SOL     OW53641   2.567   2.263   5.626 -0.3404 -0.1297  0.0991
14141SOL    HW153642   2.612   2.181   5.590  1.3634  0.6879  0.3084
14141SOL    HW253643   2.554   2.254   5.724 -1.0375 -0.5588 -0.0348
14142SOL     OW53644   8.171   8.561   1.967  0.4372  0.0481 -0.5509
14142SOL    HW153645   8.166   8.592   2.062  0.8083 -1.0222 -0.1702
14142SOL    HW253646   8.100   8.492   1.951  1.2590 -0.7800 -0.6595
14143SOL     OW53647   0.317   9.175   1.727  0.0705 -0.3667 -0.2925
14143SOL    HW153648   0.218   9.159   1.729 -0.1108  0.4348 -1.9041
14143SOL    HW253649   0.337   9.252   1.665  1.7717 -1.0088 -0.5727
14144SOL     OW53650   9.524   5.255   0.048  0.3352  0.1455 -0.8961
14144SOL    HW153651   9.620   5.280   0.057  1.5687 -3.4391 -2.8986
14144SOL    HW253652   9.483   5.248   0.139  3.0826 -2.0062  0.2720
14145SOL     OW53653   9.615   9.781   2.493  0.4098  0.1838 -0.4729
14145SOL    HW153654   9.693   9.836   2.522  0.1478  0.2598  0.1005
14145SOL    HW253655   9.534   9.809   2.544  0.1437 -0.3268 -0.6116
14146SOL     OW53656   8.068   2.164   3.571  0.0276 -0.0971  0.6863
14146SOL    HW153657   8.016   2.158   3.486 -1.0701 -3.8950  1.5434
14146SOL    HW253658   8.006   2.166   3.649  1.0530 -4.0386  1.6957
14147SOL     OW53659   6.706   4.498   1.065 -0.1422  0.1392  0.7659
14147SOL    HW153660   6.755   4.540   0.989 -3.2086  0.3496 -1.1378
14147SOL    HW253661   6.686   4.568   1.134 -0.3232  0.6406  0.2098
14148SOL     OW53662   0.868   6.599   1.739  0.0181 -0.5401 -0.4123
14148SOL    HW153663   0.891   6.503   1.757 -0.1529 -0.4024  0.5407
14148SOL    HW253664   0.797   6.629   1.802 -1.4868 -0.4192 -2.1454
14149SOL     OW53665   3.700   9.379   0.603 -0.0643 -0.2510  0.1812
14149SOL    HW153666   3.740   9.470   0.590  0.2771 -0.5279 -0.7886
14149SOL    HW253667   3.601   9.386   0.602 -0.0814  0.4089  2.3295
14150SOL     OW53668   0.061   4.338   4.150  0.0711 -0.0753 -0.0260
14150SOL    HW153669  -0.033   4.323   4.181  0.4969  0.1540  1.4323
14150SOL    HW253670   0.061   4.381   4.060 -1.2239  0.3325  0.1659
14151SOL     OW53671   5.083   1.741   3.401  0.4906  0.2401  0.1684
14151SOL    HW153672   5.083   1.787   3.490  0.5422  1.0131 -0.2229
14151SOL    HW253673   5.154   1.781   3.343 -1.3562  1.6859 -1.1849
14152SOL     OW53674   1.129   5.485   0.188  0.2400  0.6337  0.3218
14152SOL    HW153675   1.040   5.531   0.193 -0.0051  0.2055 -0.0102
14152SOL    HW253676   1.145   5.453   0.095 -2.1204 -4.8301  1.5625
14153SOL     OW53677   8.143   4.725   4.160 -0.1125 -0.1842  0.5080
14153SOL    HW153678   8.175   4.635   4.132 -2.2037 -1.0610  0.8462
14153SOL    HW253679   8.183   4.795   4.101  0.2342 -1.4874 -0.8147
14154SOL     OW53680   4.828   9.433   4.597  0.4848  0.1913  0.2568
14154SOL    HW153681   4.898   9.418   4.666 -0.3235  0.4025  1.1227
14154SOL    HW253682   4.761   9.500   4.630  0.7050  1.1375 -1.1596
14155SOL     OW53683   4.040   8.761   0.596  0.1584 -0.3776 -0.2156
14155SOL    HW153684   4.006   8.800   0.681  1.2151 -1.3153  0.6528
14155SOL    HW253685   4.073   8.668   0.613 -1.1607 -1.2147 -1.9771
14156SOL     OW53686   0.604   8.516   4.551 -0.0574  0.1588 -0.0574
14156SOL    HW153687   0.542   8.541   4.477 -0.0976  1.5262  0.4323
14156SOL    HW253688   0.602   8.416   4.563  0.6739 -0.1870 -2.5037
14157SOL     OW53689   1.670   8.438   5.015 -0.1678  0.3876  0.5639
14157SOL    HW153690   1.590   8.386   4.987  0.4159 -0.4080  0.3487
14157SOL    HW253691   1.655   8.476   5.106 -0.4057 -0.5856  0.9408
14158SOL     OW53692   9.733   5.846   0.736  0.8098  0.3983  0.1795
14158SOL    HW153693   9.783   5.899   0.805  1.2258  0.7304 -0.3678
14158SOL    HW253694   9.659   5.795   0.780  1.0836  0.5916  0.8710
14159SOL     OW53695   3.107   1.626   0.250  0.0878 -0.2301  0.1196
14159SOL    HW153696   3.195   1.588   0.280  0.1174 -0.0069  0.3141
14159SOL    HW253697   3.085   1.590   0.159 -0.0414 -0.9699  0.4363
14160SOL     OW53698   5.211   8.847   1.795 -0.0303  0.3924  1.2057
14160SOL    HW153699   5.130   8.899   1.768  0.4470  0.3042 -0.4938
14160SOL    HW253700   5.190   8.750   1.795 -0.1597  0.4191  1.6213
14161SOL     OW53701   9.696   4.673   6.423  0.1422  0.1147  0.3639
14161SOL    HW153702   9.640   4.747   6.384 -0.1862 -0.9863 -1.2658
14161SOL    HW253703   9.641   4.590   6.430  1.3974 -0.7981 -0.6201
14162SOL     OW53704   9.493   2.662   4.886  0.2972  0.2321 -0.0168
14162SOL    HW153705   9.501   2.634   4.791  0.8528 -0.3930  0.2092
14162SOL    HW253706   9.554   2.739   4.903  0.4996  0.0798 -0.0594
14163SOL     OW53707   0.340   8.451   5.251 -0.4476  0.3288  0.1762
14163SOL    HW153708   0.309   8.538   5.212  0.2748  0.1032 -0.9537
14163SOL    HW253709   0.396   8.469   5.332 -2.9730  0.7554  1.8619
14164SOL     OW53710   5.990   0.558   4.738  0.0454 -0.4547  0.1802
14164SOL    HW153711   6.032   0.468   4.748 -0.7275 -0.7993  0.3832
14164SOL    HW253712   5.890   0.549   4.744 -0.1516  0.1406 -1.8088
14165SOL     OW53713   3.601   4.650   2.232  0.4168  0.0895 -0.0482
14165SOL    HW153714   3.699   4.664   2.221  0.6984  1.7360  3.7345
14165SOL    HW253715   3.551   4.718   2.178  1.4356  1.1649  0.3405
14166SOL     OW53716   3.810   8.167   4.096 -0.6527  0.0231  0.2510
14166SOL    HW153717   3.800   8.163   3.997 -0.2551 -0.9933  0.2516
14166SOL    HW253718   3.805   8.075   4.135 -1.0537  0.4343  1.1989
14167SOL     OW53719   8.085   3.404   5.369  0.2126 -0.1603  0.6915
14167SOL    HW153720   8.148   3.331   5.344 -0.7142 -0.8088  0.1918
14167SOL    HW253721   7.994   3.364   5.386 -0.2131  0.8310  0.7599
14168SOL     OW53722   0.468   0.475   2.793 -0.5138 -0.0271  0.0336
14168SOL    HW153723   0.430   0.509   2.878 -0.9852 -0.2479 -0.0888
14168SOL    HW253724   0.442   0.379   2.781  0.6215 -0.3860  0.2771
14169SOL     OW53725   9.855   2.684   4.184 -0.4744 -0.0207 -0.5091
14169SOL    HW153726   9.812   2.706   4.272 -0.0309  0.0219 -0.3038
14169SOL    HW253727   9.861   2.768   4.129 -0.9673 -0.0907 -0.6807
14170SOL     OW53728   9.908   6.318   1.111  0.2197 -0.1335 -0.3789
14170SOL    HW153729   9.852   6.348   1.034 -0.6109  0.3345  0.4050
14170SOL    HW253730   9.868   6.236   1.152 -0.0029  0.3314  0.3235
14171SOL     OW53731   2.359   5.691   4.292  0.3187 -0.6098  0.1404
14171SOL    HW153732   2.346   5.774   4.347  0.4325 -0.0010 -0.7417
14171SOL    HW253733   2.404   5.621   4.347  0.5893  0.0593  0.7678
14172SOL     OW53734   7.581   3.192   3.079  0.4681  0.2626  0.0877
14172SOL    HW153735   7.624   3.129   3.144  2.0933 -0.1011 -1.2994
14172SOL    HW253736   7.548   3.273   3.127  2.6156  0.5006  1.2568
14173SOL     OW53737   4.788   4.091   4.923  0.2288 -0.2008 -1.0812
14173SOL    HW153738   4.727   4.169   4.938 -0.8769 -0.9165 -1.7720
14173SOL    HW253739   4.739   4.020   4.873  1.2897 -1.2575 -0.6367
14174SOL     OW53740   1.433   2.900   6.234  0.3126  0.4921 -0.2381
14174SOL    HW153741   1.450   2.973   6.167 -1.3392  1.2636  0.1618
14174SOL    HW253742   1.513   2.891   6.295  1.4117  0.4708 -1.6488
14175SOL     OW53743   1.699   6.779   3.748  0.0896 -0.5586  0.1414
14175SOL    HW153744   1.796   6.762   3.762  0.2103  0.6025  0.7219
14175SOL    HW253745   1.677   6.873   3.772 -0.8191 -0.2464 -1.8593
14176SOL     OW53746   2.345   3.488   5.750 -0.0937  0.0009  0.5459
14176SOL    HW153747   2.340   3.451   5.843 -1.2451 -0.8944  0.1534
14176SOL    HW253748   2.322   3.415   5.685  0.9353  0.5586 -0.4548
14177SOL     OW53749   2.279   6.168   1.299  0.2222 -0.2641  0.3896
14177SOL    HW153750   2.189   6.175   1.257  1.1953 -0.0417 -1.7354
14177SOL    HW253751   2.326   6.256   1.292  1.0490 -0.6969  0.4123
14178SOL     OW53752   1.658   2.585   4.843  0.1962 -0.1067 -0.3325
14178SOL    HW153753   1.574   2.556   4.889  1.0561 -2.4984 -0.1765
14178SOL    HW253754   1.638   2.608   4.748 -0.5530 -1.2711 -0.4699
14179SOL     OW53755   4.802   1.851   2.264  0.0557 -0.5707  0.3871
14179SOL    HW153756   4.789   1.949   2.280  0.4310 -0.4031 -0.3546
14179SOL    HW253757   4.745   1.800   2.329  1.1506  0.1195  1.9245
14180SOL     OW53758   3.392   5.699   2.894 -0.2881  0.3804  0.2626
14180SOL    HW153759   3.414   5.740   2.805  2.1665  0.2700  0.7733
14180SOL    HW253760   3.302   5.730   2.924 -0.8456  0.9810 -1.9246
14181SOL     OW53761   0.590   9.784   6.218 -0.1114  0.1371  0.1800
14181SOL    HW153762   0.634   9.772   6.307 -0.6975  2.6823  0.8526
14181SOL    HW253763   0.544   9.873   6.216  0.4368  0.3917 -2.8927
14182SOL     OW53764   3.366   5.131   2.196  0.4492  0.0176  0.7434
14182SOL    HW153765   3.312   5.176   2.125  1.3562  0.8492  0.5557
14182SOL    HW253766   3.322   5.144   2.285 -1.1857 -1.8363  0.2342
14183SOL     OW53767   0.949   5.687   2.548  0.0305 -0.6753 -0.5157
14183SOL    HW153768   0.865   5.710   2.500 -0.6000  0.3519  1.0087
14183SOL    HW253769   0.957   5.588   2.557 -1.0450 -0.7793 -0.6330
14184SOL     OW53770   8.999   5.438   5.480 -0.2520 -0.6368 -0.1865
14184SOL    HW153771   8.957   5.367   5.536 -0.9753 -0.1984 -0.1616
14184SOL    HW253772   8.949   5.447   5.394  0.0441 -0.3889 -0.3373
14185SOL     OW53773   9.007   2.236   4.097 -0.1244 -0.4385 -0.3270
14185SOL    HW153774   9.092   2.203   4.056  1.4065  1.1578  1.4529
14185SOL    HW253775   8.988   2.329   4.064 -1.6089 -1.0862 -1.3174
14186SOL     OW53776   2.247   7.385   5.466 -0.8324 -0.7805 -0.3184
14186SOL    HW153777   2.334   7.432   5.451 -0.2765 -1.6023  0.3637
14186SOL    HW253778   2.258   7.287   5.449 -0.9574 -1.2883  2.3233
14187SOL     OW53779   8.695   8.901   0.035 -0.3014  0.0580 -0.0234
14187SOL    HW153780   8.658   8.987  -0.001  0.0523  0.1902 -0.0746
14187SOL    HW253781   8.750   8.920   0.116  1.4230  0.1155 -1.1864
14188SOL     OW53782   4.069   1.867   3.929 -0.0135 -0.5993  0.0986
14188SOL    HW153783   4.018   1.789   3.892 -2.4509  1.3617 -0.8188
14188SOL    HW253784   4.044   1.882   4.024  0.9967 -1.3109  0.4996
14189SOL     OW53785   3.359   7.878   5.167  0.1029  0.4434  0.6080
14189SOL    HW153786   3.348   7.795   5.112 -0.7113 -0.0602  1.5266
14189SOL    HW253787   3.294   7.947   5.137  1.7488  1.2915 -1.1302
14190SOL     OW53788   5.094   2.518   2.540  0.1527 -0.2818  0.0757
14190SOL    HW153789   5.076   2.439   2.480 -0.2331  0.0585 -0.2583
14190SOL    HW253790   5.029   2.517   2.616 -0.0701 -0.0959 -0.1130
14191SOL     OW53791   0.639   9.077   3.918  0.3926 -0.0806 -0.4317
14191SOL    HW153792   0.550   9.060   3.960 -0.6539  1.5685 -1.8984
14191SOL    HW253793   0.669   8.995   3.869 -1.1415 -0.1107 -1.3625
14192SOL     OW53794   1.360   0.481   1.153  1.0026  0.4059  0.0361
14192SOL    HW153795   1.405   0.450   1.237  1.2097  2.3552  0.6576
14192SOL    HW253796   1.301   0.408   1.119  1.8051 -0.8357  1.2291
14193SOL     OW53797   4.025   8.755   2.938  0.3533 -0.5878  0.6008
14193SOL    HW153798   3.990   8.759   3.031  1.6734  0.5829  1.0717
14193SOL    HW253799   3.960   8.799   2.875  0.1115 -0.1218  1.1764
14194SOL     OW53800   8.934   2.721   0.408 -0.0244 -0.0624  0.6999
14194SOL    HW153801   8.916   2.793   0.341  0.4081 -0.2890  0.3344
14194SOL    HW253802   8.896   2.747   0.496 -0.9037  0.0875  0.2856
14195SOL     OW53803   7.568   6.890   4.832 -0.4251  0.1824 -0.2900
14195SOL    HW153804   7.477   6.848   4.838 -0.8916  1.2883  0.5421
14195SOL    HW253805   7.606   6.901   4.924  0.3159  0.2354 -0.6020
14196SOL     OW53806   5.520   0.498   4.986 -0.2087 -0.3909  0.1326
14196SOL    HW153807   5.617   0.477   4.979  0.1942  1.4149  0.1742
14196SOL    HW253808   5.508   0.589   5.027 -1.7754  1.2763 -3.7434
14197SOL     OW53809   2.710   7.680   2.272  0.1833  0.4999 -0.0398
14197SOL    HW153810   2.645   7.750   2.242  1.0342  0.8500 -1.0986
14197SOL    HW253811   2.667   7.624   2.343 -0.6972  1.7484  0.4467
14198SOL     OW53812   5.781   2.450   3.090  0.5239  0.3721 -0.5704
14198SOL    HW153813   5.687   2.415   3.085  1.2628 -1.7333 -0.4746
14198SOL    HW253814   5.800   2.484   3.182 -0.2786  1.2370 -0.7163
14199SOL     OW53815   1.317   5.460   5.551  0.1212 -0.1983 -0.2730
14199SOL    HW153816   1.277   5.373   5.520  0.9232  0.2550 -2.6578
14199SOL    HW253817   1.281   5.535   5.497 -0.1127  0.9157  1.3929
14200SOL     OW53818   4.047   3.735   5.584 -0.2359 -0.3403  0.3048
14200SOL    HW153819   4.090   3.681   5.512  0.6872  0.6367  0.1200
14200SOL    HW253820   4.110   3.746   5.660 -1.1762 -1.2954  1.2421
14201SOL     OW53821   0.862   7.831   6.365 -0.3490 -0.5209  0.0963
14201SOL    HW153822   0.815   7.786   6.289  0.3805 -1.5705  0.2569
14201SOL    HW253823   0.834   7.927   6.369  1.4662  0.1961 -2.9987
14202SOL     OW53824   0.364   9.468   0.512 -0.5742 -0.9723 -0.0613
14202SOL    HW153825   0.269   9.472   0.481 -0.3891  0.5763 -0.4570
14202SOL    HW253826   0.377   9.531   0.589  0.2542 -0.7812 -0.3519
14203SOL     OW53827   9.283   0.503   5.286  0.0455  0.0399  0.0441
14203SOL    HW153828   9.293   0.550   5.198  0.9239 -0.3035 -0.0482
14203SOL    HW253829   9.372   0.466   5.314 -0.0470  0.8948  1.4999
14204SOL     OW53830   1.716   9.799   6.678  0.1976  0.3362  0.1904
14204SOL    HW153831   1.716   9.739   6.598 -0.3644  1.1265 -0.4060
14204SOL    HW253832   1.630   9.789   6.727  0.6960 -0.4419  0.9363
14205SOL     OW53833   2.987   7.177   0.986 -0.1309  0.5112  0.2058
14205SOL    HW153834   2.894   7.208   1.008  0.3228  0.9930  1.4508
14205SOL    HW253835   3.033   7.246   0.930 -1.7619 -1.3088 -3.5855
14206SOL     OW53836   7.439   9.786   5.034  0.0758  0.0305 -0.7021
14206SOL    HW153837   7.503   9.758   5.105 -0.3953  2.8848  0.9178
14206SOL    HW253838   7.350   9.744   5.050  0.0292  0.4929  0.3206
14207SOL     OW53839   3.888   2.730   4.712 -0.4973 -0.6939 -0.2023
14207SOL    HW153840   3.892   2.642   4.759  1.8947 -0.1981  0.5948
14207SOL    HW253841   3.838   2.719   4.626 -3.1775 -2.0433  1.4661
14208SOL     OW53842   8.942   2.112   6.351  0.4365 -0.2378 -0.6323
14208SOL    HW153843   8.866   2.159   6.306  0.8062  0.0996 -0.9039
14208SOL    HW253844   8.967   2.161   6.435 -1.8943 -2.2416  1.3014
14209SOL     OW53845   0.737   4.281   4.610 -0.1149 -0.4916  0.2270
14209SOL    HW153846   0.647   4.322   4.627  0.4917  1.7106 -1.6578
14209SOL    HW253847   0.729   4.214   4.536 -0.3323 -0.7174  0.4583
14210SOL     OW53848   0.891   3.843   4.961 -0.5008 -0.6799 -0.0219
14210SOL    HW153849   0.917   3.932   4.925  0.7931 -0.6286  1.0215
14210SOL    HW253850   0.907   3.773   4.891 -0.3781 -0.2586 -0.4204
14211SOL     OW53851   3.853   4.317   0.909 -0.5557 -0.2619  0.2324
14211SOL    HW153852   3.859   4.225   0.949  1.0187 -0.1954  0.1950
14211SOL    HW253853   3.907   4.320   0.825 -0.5505  0.7197  0.2692
14212SOL     OW53854   7.627   8.559   5.557  0.2557  0.4557 -0.4927
14212SOL    HW153855   7.548   8.523   5.607 -0.1584  0.1155 -1.3638
14212SOL    HW253856   7.594   8.612   5.478  0.8770  1.8972  0.2048
14213SOL     OW53857   2.677   3.385   0.708  0.2707 -0.2945  0.3362
14213SOL    HW153858   2.713   3.477   0.696  1.4419 -0.8732 -0.7937
14213SOL    HW253859   2.684   3.358   0.804 -0.4646  0.9378  0.7386
14214SOL     OW53860   5.493   1.593   4.741 -0.5736  0.3035  0.2150
14214SOL    HW153861   5.510   1.587   4.839 -2.7708  2.2606  0.7593
14214SOL    HW253862   5.395   1.582   4.723 -0.4981  2.2465 -1.5412
14215SOL     OW53863   3.025   3.112   6.230  0.1127 -0.3079  0.5497
14215SOL    HW153864   2.995   3.196   6.276 -1.6512 -0.8388  0.4152
14215SOL    HW253865   2.968   3.035   6.261  1.0015 -1.2550 -0.1299
14216SOL     OW53866   5.752   7.642   2.870 -1.0449  0.2188 -0.0688
14216SOL    HW153867   5.665   7.624   2.915 -0.9320 -1.8890 -0.6354
14216SOL    HW253868   5.816   7.683   2.935 -1.8200 -0.1104  0.9049
14217SOL     OW53869   1.213   6.269   2.757  0.6895  0.0367 -0.2507
14217SOL    HW153870   1.194   6.174   2.784  2.6110 -0.6004 -1.0864
14217SOL    HW253871   1.148   6.297   2.687 -0.1244 -0.5212  0.2667
14218SOL     OW53872   0.317   9.887   0.260 -0.0207  0.1370 -0.0273
14218SOL    HW153873   0.402   9.913   0.305 -0.5021 -1.3970  1.8702
14218SOL    HW253874   0.325   9.793   0.225 -0.0553  0.9031 -2.1365
14219SOL     OW53875   4.627   0.769   3.941 -0.4720 -0.2672 -0.2653
14219SOL    HW153876   4.613   0.671   3.950 -1.8676 -0.1008 -0.5660
14219SOL    HW253877   4.664   0.789   3.850 -0.9866 -0.4325 -0.5123
14220SOL     OW53878   2.601   4.319   0.986 -0.0360 -0.2232 -0.2942
14220SOL    HW153879   2.684   4.354   0.942 -0.6456  1.5697 -0.0590
14220SOL    HW253880   2.612   4.324   1.085 -0.6481  0.5584 -0.2661
14221SOL     OW53881   6.053   7.662   5.050  0.2421 -0.1954 -0.0347
14221SOL    HW153882   6.048   7.723   5.129  2.5429  1.3035 -0.9835
14221SOL    HW253883   5.976   7.681   4.989 -0.4155  0.0624  0.8718
14222SOL     OW53884   1.440   2.485   3.560 -0.1265 -0.0899  0.1071
14222SOL    HW153885   1.448   2.442   3.470 -3.2797 -0.2495 -0.1467
14222SOL    HW253886   1.485   2.427   3.628  1.8246 -0.2249 -1.2486
14223SOL     OW53887   9.761   9.787   0.586  0.0445 -0.3836  0.1178
14223SOL    HW153888   9.800   9.804   0.677  0.8787 -1.4555 -0.0305
14223SOL    HW253889   9.814   9.715   0.540  1.0985  1.7408 -2.1309
14224SOL     OW53890   4.803   4.703   6.102  0.5639  0.2803 -0.2650
14224SOL    HW153891   4.756   4.762   6.168  0.1711 -0.3517  0.0271
14224SOL    HW253892   4.812   4.611   6.140 -0.9336 -0.4634 -1.6297
14225SOL     OW53893   7.897   0.647   3.520 -0.0768  0.1945  0.1930
14225SOL    HW153894   7.799   0.661   3.506 -0.5340 -0.6258  2.4367
14225SOL    HW253895   7.942   0.735   3.534 -0.9047  0.4046  1.6150
14226SOL     OW53896   3.763   3.440   0.720 -0.1503  0.2722  0.3090
14226SOL    HW153897   3.673   3.482   0.725 -0.3547 -0.2721  1.2973
14226SOL    HW253898   3.833   3.510   0.731 -0.4441  0.6589 -0.2029
14227SOL     OW53899   7.433   8.113   2.941 -0.4172  0.4311 -0.5876
14227SOL    HW153900   7.344   8.146   2.910 -1.0425 -0.0474  0.6827
14227SOL    HW253901   7.464   8.040   2.880 -0.9173  0.5617 -1.0008
14228SOL     OW53902   3.368   4.582   3.606  0.2010  0.0723  0.6245
14228SOL    HW153903   3.373   4.485   3.630  0.2755  0.2895  1.5325
14228SOL    HW253904   3.452   4.609   3.560 -0.5317 -0.6929 -1.2235
14229SOL     OW53905   1.176   9.702   4.161 -0.1717 -0.2505  0.3627
14229SOL    HW153906   1.118   9.717   4.241 -0.6350  1.0712 -0.2088
14229SOL    HW253907   1.130   9.736   4.079  1.9103  1.9973  0.0678
14230SOL     OW53908   5.260   9.532   1.762  0.2275  0.3029 -0.4317
14230SOL    HW153909   5.349   9.543   1.808 -0.0737  2.6824 -0.3239
14230SOL    HW253910   5.256   9.443   1.718  2.2005 -0.3315  0.5977
14231SOL     OW53911   4.575   2.004   5.859  0.3817 -0.5263  0.2646
14231SOL    HW153912   4.537   1.913   5.842  0.7482 -0.3144 -1.7821
14231SOL    HW253913   4.504   2.073   5.844  1.1837 -0.2128 -2.3870
14232SOL     OW53914   2.406   0.618   2.486 -0.0655  0.1564 -0.5312
14232SOL    HW153915   2.377   0.714   2.482 -0.6275  0.0356  0.5084
14232SOL    HW253916   2.505   0.613   2.497 -0.0573  0.6233 -0.4024
14233SOL     OW53917   4.897   5.069   0.858 -0.1797  0.5184 -0.8859
14233SOL    HW153918   4.997   5.072   0.857 -0.0660 -1.9726 -0.0635
14233SOL    HW253919   4.863   5.093   0.949 -0.2282 -0.3635 -0.6613
14234SOL     OW53920   1.689   9.385   0.643  0.0558  0.3781  0.0098
14234SOL    HW153921   1.630   9.335   0.580 -0.6250 -0.4720  1.2792
14234SOL    HW253922   1.734   9.460   0.595  1.4913 -1.7262 -2.0933
14235SOL     OW53923   1.870   3.847   4.420  0.2405 -0.3596  0.2990
14235SOL    HW153924   1.892   3.908   4.497 -2.2571  1.5364 -0.4148
14235SOL    HW253925   1.896   3.891   4.334 -1.1116 -0.5164 -0.1970
14236SOL     OW53926   1.685   9.810   4.857  0.6134  0.3478 -0.9698
14236SOL    HW153927   1.766   9.814   4.799  0.8180 -1.2971 -0.8229
14236SOL    HW253928   1.711   9.786   4.950  0.0219  0.4699 -0.7689
14237SOL     OW53929   1.585   2.787   1.671  0.0779  0.6956 -0.4280
14237SOL    HW153930   1.591   2.862   1.605  2.4048 -0.0003 -1.0432
14237SOL    HW253931   1.667   2.786   1.728 -1.2816  0.4199  1.5411
14238SOL     OW53932   4.450   3.423   5.999  0.0343 -0.0853 -0.2165
14238SOL    HW153933   4.426   3.436   5.903 -0.7053 -0.6217 -0.1109
14238SOL    HW253934   4.423   3.331   6.027  0.5228 -0.0363  0.4261
14239SOL     OW53935   4.883   9.478   4.023 -0.3343 -0.0223 -0.4006
14239SOL    HW153936   4.875   9.410   3.950  0.7464 -0.1105 -0.4451
14239SOL    HW253937   4.976   9.513   4.026 -0.6725  0.8645  0.1638
14240SOL     OW53938   6.131   9.375   1.541  0.0706  0.2377  0.2063
14240SOL    HW153939   6.157   9.470   1.560 -0.7829  0.7698 -1.1878
14240SOL    HW253940   6.143   9.357   1.443 -1.8237 -0.4439  0.0923
14241SOL     OW53941   7.715   1.038   1.290 -0.1597 -0.1253 -0.2394
14241SOL    HW153942   7.662   1.115   1.324 -0.8323 -0.3436 -0.7857
14241SOL    HW253943   7.654   0.970   1.250  0.6328  0.3417 -2.2994
14242SOL     OW53944   9.383   9.044   3.350  0.6687 -0.0352 -0.1774
14242SOL    HW153945   9.360   8.947   3.341  0.6597 -0.1754  1.2408
14242SOL    HW253946   9.299   9.099   3.345  0.6220 -0.1395 -0.5221
14243SOL     OW53947   1.038   5.267   1.826 -0.5751  0.0474 -0.0768
14243SOL    HW153948   1.031   5.212   1.909  1.2684  0.1808  0.1947
14243SOL    HW253949   1.134   5.285   1.806 -1.0573  1.2041 -1.4672
14244SOL     OW53950   9.098   6.384   6.429 -0.4803  0.4822  0.1055
14244SOL    HW153951   9.076   6.473   6.469 -1.2831 -0.5312  1.9808
14244SOL    HW253952   9.196   6.368   6.434 -0.3046  1.3936 -0.4967
14245SOL     OW53953   9.101   7.624   5.755  0.6218  0.1439  0.3558
14245SOL    HW153954   9.163   7.660   5.685  0.0872 -0.3115 -0.3679
14245SOL    HW253955   9.107   7.679   5.837  0.9011  0.9896 -0.2280
14246SOL     OW53956   2.421   0.226   5.176 -0.2341 -0.0420 -0.0650
14246SOL    HW153957   2.401   0.230   5.078 -1.3196  0.7844  0.1843
14246SOL    HW253958   2.514   0.261   5.192  0.0413 -0.4106 -0.8198
14247SOL     OW53959   2.770   3.962   3.824  0.4032  0.4991  0.0027
14247SOL    HW153960   2.788   3.948   3.921  1.1312  1.7148  0.0473
14247SOL    HW253961   2.782   3.875   3.775  1.7000  0.2474  0.7465
14248SOL     OW53962   2.641   8.925   2.720 -0.0781  0.2934  0.3081
14248SOL    HW153963   2.579   8.982   2.666 -1.1215  0.2214  1.4269
14248SOL    HW253964   2.590   8.851   2.763  1.1715 -1.1437 -0.6385
14249SOL     OW53965   3.721   3.810   3.709  0.5660 -0.1152  0.6090
14249SOL    HW153966   3.676   3.882   3.656 -1.6374 -1.1078  1.0715
14249SOL    HW253967   3.806   3.784   3.663 -0.1413  0.6480 -1.2008
14250SOL     OW53968   8.900   7.578   2.780  0.1111  0.0550 -0.0463
14250SOL    HW153969   8.970   7.512   2.807  0.0283 -0.6267 -1.4529
14250SOL    HW253970   8.813   7.553   2.821 -0.0401 -1.0313 -1.0278
14251SOL     OW53971   6.317   0.835   6.245  0.9957  0.2700  0.2569
14251SOL    HW153972   6.363   0.918   6.212  0.9568  0.4962  0.7654
14251SOL    HW253973   6.316   0.835   6.344  0.9343 -0.3137  0.2594
14252SOL     OW53974   2.851   8.114   0.512  0.3246  0.1252 -0.2893
14252SOL    HW153975   2.777   8.180   0.499  2.2721  2.7081  1.3217
14252SOL    HW253976   2.936   8.153   0.475  1.5093 -1.4778  0.7241
14253SOL     OW53977   7.968   9.828   6.448  0.0915 -0.5140  0.0978
14253SOL    HW153978   7.908   9.753   6.421 -0.4125 -0.8638  2.1753
14253SOL    HW253979   7.915   9.912   6.455  0.0948 -0.5579  0.6527
14254SOL     OW53980   8.719   9.237   3.618  0.7954  0.0025  0.4322
14254SOL    HW153981   8.683   9.158   3.570  0.7623 -0.2913  0.9369
14254SOL    HW253982   8.742   9.212   3.712 -0.0966  0.8240  0.8797
14255SOL     OW53983   6.161   0.765   1.564  0.1153  0.2200  0.1889
14255SOL    HW153984   6.197   0.783   1.656  0.3652 -1.4892  0.4493
14255SOL    HW253985   6.063   0.782   1.562  0.0514 -0.0590  0.8642
14256SOL     OW53986   9.103   8.329   0.812  0.9868  0.5958  0.4764
14256SOL    HW153987   9.063   8.267   0.880 -0.5288 -1.0767 -1.8450
14256SOL    HW253988   9.069   8.422   0.827 -0.1551  0.0530  1.3722
14257SOL     OW53989   2.451   0.979   1.890  0.4160 -0.8366 -0.0280
14257SOL    HW153990   2.371   0.973   1.950 -0.7565  2.3851 -1.1750
14257SOL    HW253991   2.422   0.963   1.795  0.9605  1.0436 -0.5343
14258SOL     OW53992   8.056   6.545   0.618  0.5614  0.0643  0.1623
14258SOL    HW153993   8.045   6.576   0.713  0.0184  2.7855 -0.7718
14258SOL    HW253994   8.042   6.621   0.556 -1.5936 -2.2297 -2.2847
14259SOL     OW53995   9.753   1.872   0.437  0.0864  0.8931 -0.5341
14259SOL    HW153996   9.806   1.817   0.373 -1.7989  0.0358 -1.4003
14259SOL    HW253997   9.785   1.967   0.435  0.9426  0.5814 -1.7455
14260SOL     OW53998   3.242   1.689   6.046  0.1448 -0.5391 -0.6823
14260SOL    HW153999   3.335   1.675   6.079 -0.9080 -0.7729  2.2583
14260SOL    HW254000   3.192   1.602   6.050 -1.0651  0.2056  0.5453
14261SOL     OW54001   3.486   6.895   1.957  0.1756 -0.3651 -0.6693
14261SOL    HW154002   3.461   6.991   1.943  2.2136 -0.1182 -2.8938
14261SOL    HW254003   3.423   6.854   2.024 -0.6085  2.5334  0.4568
14262SOL     OW54004   8.779   4.512   1.171 -0.1610 -0.3349 -0.4985
14262SOL    HW154005   8.863   4.522   1.118  0.3363  0.4533  0.4094
14262SOL    HW254006   8.786   4.431   1.229  1.4870  1.6429  2.2022
14263SOL     OW54007   3.167   2.380   2.669 -0.5824  0.2096  0.0567
14263SOL    HW154008   3.117   2.411   2.749  0.4319  2.4553 -0.1356
14263SOL    HW254009   3.135   2.430   2.588 -2.5082 -2.9347 -1.2189
14264SOL     OW54010   9.172   5.651   2.157  0.1236  0.0602 -0.2264
14264SOL    HW154011   9.240   5.664   2.229  0.3928  1.5052 -0.7230
14264SOL    HW254012   9.083   5.684   2.189  0.4668  1.7195 -0.9067
14265SOL     OW54013   5.142   2.850   3.186 -0.1808 -0.0706  0.1314
14265SOL    HW154014   5.208   2.786   3.226 -1.1289 -0.6954  0.7268
14265SOL    HW254015   5.140   2.838   3.087  0.7973  0.1517  0.0726
14266SOL     OW54016   3.488   9.389   2.984  0.7086 -0.0324  0.0643
14266SOL    HW154017   3.487   9.307   2.927  1.8951 -0.4763  0.6742
14266SOL    HW254018   3.581   9.425   2.990 -0.1450  2.6662 -2.0385
14267SOL     OW54019   0.534   7.232   2.370 -0.0342 -0.5277 -0.5718
14267SOL    HW154020   0.512   7.188   2.458  0.4635 -1.8108 -1.0756
14267SOL    HW254021   0.473   7.196   2.300 -0.0814  0.1080 -0.8525
14268SOL     OW54022   1.725   9.253   4.114 -0.0877  0.5486 -0.0486
14268SOL    HW154023   1.689   9.291   4.029  0.2987 -0.6972 -0.7763
14268SOL    HW254024   1.652   9.252   4.183 -0.0183  2.8659  0.0714
14269SOL     OW54025   4.923   2.430   3.797  0.3523  0.2158  0.9825
14269SOL    HW154026   4.922   2.523   3.832 -1.1772 -0.1932  2.0681
14269SOL    HW254027   4.856   2.375   3.846 -1.3181 -0.5846 -2.0760
14270SOL     OW54028   4.609   9.165   0.758 -0.8238 -0.1376 -0.5247
14270SOL    HW154029   4.706   9.145   0.770 -0.3022  1.4588 -1.9836
14270SOL    HW254030   4.560   9.080   0.735  0.3849 -0.7607 -0.8243
14271SOL     OW54031   4.686   2.158   1.038  0.4371  0.2661 -0.2401
14271SOL    HW154032   4.777   2.181   1.074  0.2054 -2.5449  2.2885
14271SOL    HW254033   4.679   2.060   1.025 -1.3906  0.6963 -3.0050
14272SOL     OW54034   1.599   0.377   4.870 -0.4668  0.1306  0.1428
14272SOL    HW154035   1.529   0.307   4.887  0.7114 -1.0575  0.1436
14272SOL    HW254036   1.689   0.341   4.895  0.3345  1.1279 -1.2633
14273SOL     OW54037   9.392   4.751   3.343 -0.2508  1.5243 -0.3587
14273SOL    HW154038   9.371   4.666   3.294 -1.2548  1.7006 -0.2394
14273SOL    HW254039   9.318   4.771   3.408  2.4554 -0.4331  3.5985
14274SOL     OW54040   1.307   4.879   1.398 -0.4146  0.3176  0.3276
14274SOL    HW154041   1.217   4.855   1.362 -0.4920 -2.1730  2.0837
14274SOL    HW254042   1.376   4.817   1.358  0.5636  2.2310 -1.0401
14275SOL     OW54043   9.302   2.062   1.357  0.0554  0.3751  0.4217
14275SOL    HW154044   9.383   2.105   1.317 -0.2066 -0.7672 -1.4449
14275SOL    HW254045   9.312   2.057   1.456  2.4166 -0.0268  0.1996
14276SOL     OW54046   4.300   2.722   3.817 -0.2413 -0.2459 -0.2841
14276SOL    HW154047   4.252   2.726   3.730  0.9688 -1.7146 -1.0430
14276SOL    HW254048   4.389   2.768   3.808  0.4648 -1.5829 -0.2263
14277SOL     OW54049   2.080   8.417   0.522  0.1538  0.2133  0.0190
14277SOL    HW154050   2.029   8.488   0.473  0.7749 -1.2996 -2.9498
14277SOL    HW254051   2.018   8.364   0.579 -1.5776 -1.0997 -2.9455
14278SOL     OW54052   4.082   1.143   1.878 -0.0177 -0.6078  0.2706
14278SOL    HW154053   4.030   1.065   1.841  1.2283 -1.5307  0.4453
14278SOL    HW254054   4.018   1.215   1.903 -1.3069 -2.0280  1.1892
14279SOL     OW54055   4.343   4.995   1.832  0.2606 -0.4690 -0.3472
14279SOL    HW154056   4.392   5.077   1.803  1.9797 -1.1676  0.4641
14279SOL    HW254057   4.280   4.966   1.760 -0.9329  1.9692 -0.3304
14280SOL     OW54058   4.482   0.029   4.503 -0.1210 -0.3711  0.2812
14280SOL    HW154059   4.464  -0.069   4.499 -1.7226 -0.0538 -0.4713
14280SOL    HW254060   4.564   0.046   4.558 -0.1276 -2.0877  0.8292
14281SOL     OW54061   9.659   1.088   0.258 -0.0929 -0.3487  0.2628
14281SOL    HW154062   9.602   1.056   0.182 -0.0229  1.2370 -0.4776
14281SOL    HW254063   9.672   1.186   0.250  2.7978 -0.6876  0.4026
14282SOL     OW54064   5.430   8.252   3.842  0.1959 -0.5644 -0.2482
14282SOL    HW154065   5.527   8.270   3.863  0.7053 -2.4129 -0.9345
14282SOL    HW254066   5.417   8.155   3.825 -1.7886 -0.3139 -0.2754
14283SOL     OW54067   3.861   0.377   1.603  0.0566  0.1020 -0.5293
14283SOL    HW154068   3.794   0.350   1.671 -1.0685 -0.7485 -1.9483
14283SOL    HW254069   3.818   0.437   1.535  0.8598 -0.0011 -1.1477
14284SOL     OW54070   9.739   3.586   6.418 -0.3264  0.2384 -0.1904
14284SOL    HW154071   9.687   3.656   6.467 -3.1126 -0.6670 -1.7455
14284SOL    HW254072   9.836   3.611   6.418 -0.8826  2.6110  1.7289
14285SOL     OW54073   4.400   4.517   4.587  0.2781  0.5805  0.1586
14285SOL    HW154074   4.364   4.431   4.621 -1.3403  0.8695 -0.7820
14285SOL    HW254075   4.499   4.509   4.574  0.3421 -0.6919  1.3507
14286SOL     OW54076   2.810   5.755   2.215 -0.1144 -0.2079 -0.0810
14286SOL    HW154077   2.830   5.664   2.178 -0.1644 -1.3779  2.6243
14286SOL    HW254078   2.722   5.754   2.261 -0.2419  1.3022 -0.2541
14287SOL     OW54079   9.599   8.854   4.341 -0.2836 -0.1050  0.0339
14287SOL    HW154080   9.578   8.951   4.354 -0.4502 -0.4361  2.4879
14287SOL    HW254081   9.517   8.805   4.313 -0.4408  0.2650 -0.1520
14288SOL     OW54082   1.424   4.677   1.179  0.0363  0.0643 -0.7538
14288SOL    HW154083   1.411   4.757   1.121  0.9254  0.1894 -0.7939
14288SOL    HW254084   1.492   4.616   1.138 -0.2171 -0.4352 -0.4446
14289SOL     OW54085   5.969   4.876   0.600  0.1516 -0.3094  0.3866
14289SOL    HW154086   5.871   4.866   0.618 -0.0326 -0.1966 -0.5260
14289SOL    HW254087   5.982   4.936   0.522  1.0171  1.0914  1.5882
14290SOL     OW54088   0.050   3.544   5.204  0.4359 -0.4873  0.0481
14290SOL    HW154089   0.043   3.492   5.289 -2.0471  0.0310  0.2123
14290SOL    HW254090   0.134   3.520   5.156  2.3812 -0.0495  3.1286
14291SOL     OW54091   4.579   2.685   3.471 -0.1617  0.4379 -0.0459
14291SOL    HW154092   4.614   2.677   3.564  2.1273  4.2401 -0.4971
14291SOL    HW254093   4.641   2.638   3.408 -0.1997  0.2879  0.0280
14292SOL     OW54094   1.239   2.920   6.699  0.3449  0.0501 -0.0674
14292SOL    HW154095   1.294   2.981   6.642  2.0953 -0.5994  0.8914
14292SOL    HW254096   1.225   2.833   6.650 -0.4710  0.4783 -0.6114
14293SOL     OW54097   7.864   5.282   0.049 -0.5314 -0.0846 -0.1483
14293SOL    HW154098   7.767   5.290   0.073 -0.5489  0.2579 -0.3414
14293SOL    HW254099   7.919   5.286   0.132 -0.7786 -1.9050  0.1349
14294SOL     OW54100   1.171   0.497   3.814  0.9496  0.1667 -0.0817
14294SOL    HW154101   1.238   0.449   3.871  0.1829 -0.1945  0.5234
14294SOL    HW254102   1.160   0.591   3.848 -0.4737 -0.4368  1.2093
14295SOL     OW54103   1.886   6.089   0.171  0.5767  0.1778 -0.7959
14295SOL    HW154104   1.899   5.992   0.149 -0.8993 -0.3562  0.5732
14295SOL    HW254105   1.920   6.107   0.263 -1.3305  0.4131 -0.1222
14296SOL     OW54106   3.120   6.691   5.836  0.0598 -0.1760  0.1352
14296SOL    HW154107   3.100   6.748   5.915  0.9317 -0.5902  0.6518
14296SOL    HW254108   3.169   6.746   5.767 -1.7345  0.5091 -0.6277
14297SOL     OW54109   5.054   5.552   1.779 -0.0668 -0.1071  0.3279
14297SOL    HW154110   5.144   5.510   1.763  0.3628  0.3493  1.4878
14297SOL    HW254111   5.021   5.526   1.869 -1.3118 -0.6209 -0.2721
14298SOL     OW54112   0.585   4.817   1.535  0.6217  0.0656 -0.3840
14298SOL    HW154113   0.511   4.803   1.600  0.5239  0.2193 -0.4600
14298SOL    HW254114   0.615   4.913   1.539  0.6544  0.0620 -0.5222
14299SOL     OW54115   0.415   5.519   2.292  0.6915  0.1003  0.5272
14299SOL    HW154116   0.321   5.536   2.323  0.7389  0.5205  0.4489
14299SOL    HW254117   0.462   5.462   2.359 -0.2913 -1.9768 -0.4877
14300SOL     OW54118   7.560   0.811   4.400  0.4834  0.2230  0.0978
14300SOL    HW154119   7.528   0.734   4.457  1.2555 -0.3781 -0.2741
14300SOL    HW254120   7.611   0.875   4.457 -1.5182  1.2982  0.7452
14301SOL     OW54121   8.260   7.030   5.158 -0.0888 -0.0438  0.4289
14301SOL    HW154122   8.351   6.995   5.179  1.1234  3.3450  1.0647
14301SOL    HW254123   8.223   7.076   5.239 -1.5659  0.3270 -0.4435
14302SOL     OW54124   5.050   6.072   1.382 -0.0552 -0.0306 -0.4815
14302SOL    HW154125   4.978   6.134   1.349  0.8365  1.2549 -0.0789
14302SOL    HW254126   5.137   6.098   1.341  0.2309 -1.3976 -0.7453
14303SOL     OW54127   0.139   9.711   4.977  0.6209 -0.3796  0.5645
14303SOL    HW154128   0.091   9.623   4.965  1.6626 -0.7395 -1.0853
14303SOL    HW254129   0.076   9.777   5.017 -0.5222 -1.5545  0.7622
14304SOL     OW54130   5.702   0.397   1.206 -0.6182  0.2242  0.0949
14304SOL    HW154131   5.748   0.353   1.129  0.5555  0.3385  0.7280
14304SOL    HW254132   5.769   0.440   1.266 -1.4716 -0.2450  1.4333
14305SOL     OW54133   5.939   4.536   0.381 -0.3284 -0.3229 -0.2232
14305SOL    HW154134   5.884   4.492   0.452 -0.6166  0.1030 -0.1811
14305SOL    HW254135   5.928   4.635   0.388  0.5928 -0.2263 -0.0936
14306SOL     OW54136   9.264   4.018   3.427  0.7025  0.3295  0.1568
14306SOL    HW154137   9.247   3.983   3.335  2.3658 -1.0886  0.3583
14306SOL    HW254138   9.177   4.036   3.473 -0.1504 -0.5437 -1.0965
14307SOL     OW54139   7.365   2.527   4.521 -0.3232 -0.0168 -0.2900
14307SOL    HW154140   7.292   2.492   4.580  0.6620  1.5852  1.9379
14307SOL    HW254141   7.324   2.573   4.442 -1.6748 -1.2155 -0.3154
14308SOL     OW54142   0.866   5.100   3.902 -0.7218 -0.1713  0.2253
14308SOL    HW154143   0.905   5.184   3.939 -0.0089 -0.4799  0.1896
14308SOL    HW254144   0.767   5.106   3.903 -0.6828  0.4691  0.6929
14309SOL     OW54145   1.315   2.717   5.665  0.0745 -0.6576 -0.4812
14309SOL    HW154146   1.216   2.701   5.663 -0.0964  0.1094  1.1551
14309SOL    HW254147   1.363   2.633   5.639 -0.9834 -1.4694  0.1576
14310SOL     OW54148   8.687   3.749   0.469 -0.3017  0.1979 -0.2425
14310SOL    HW154149   8.632   3.686   0.524  0.9430  0.0600  0.8570
14310SOL    HW254150   8.769   3.702   0.437 -0.4565  0.6209 -1.2659
14311SOL     OW54151   2.801   1.208   4.042  0.4835  0.2436 -0.5184
14311SOL    HW154152   2.815   1.112   4.018  2.4457  0.4953 -0.5089
14311SOL    HW254153   2.706   1.223   4.067  0.2911 -1.8290  0.1001
14312SOL     OW54154   8.056   3.044   1.980 -0.1636 -0.0818  0.3872
14312SOL    HW154155   8.084   3.125   2.032 -2.1101  1.4764 -0.9398
14312SOL    HW254156   8.063   3.063   1.882 -2.9219 -0.6847  0.0441
14313SOL     OW54157   1.325   5.723   2.023 -0.0191  0.3643 -0.2913
14313SOL    HW154158   1.274   5.743   1.939 -1.3465 -2.3694 -0.1724
14313SOL    HW254159   1.421   5.705   2.000 -0.2372  0.2761 -1.1442
14314SOL     OW54160   7.120   3.753   0.113  0.2067  0.1447  0.2347
14314SOL    HW154161   7.116   3.754   0.013  0.8228  2.5971  0.1762
14314SOL    HW254162   7.033   3.722   0.150  0.1985 -1.4530 -1.0502
14315SOL     OW54163   3.037   6.616   3.178  0.4250  0.4368  0.2989
14315SOL    HW154164   3.080   6.624   3.088  0.9201 -0.6679  0.4213
14315SOL    HW254165   3.002   6.523   3.189 -0.7087  0.9174  0.7766
14316SOL     OW54166   4.688   6.295   1.660 -0.5642 -0.1510 -0.0016
14316SOL    HW154167   4.774   6.246   1.645 -0.8956 -0.3015 -1.5728
14316SOL    HW254168   4.615   6.229   1.679 -0.7517 -0.1912 -0.8257
14317SOL     OW54169   7.980   8.920   6.301  0.4094  0.4406 -0.2818
14317SOL    HW154170   8.000   8.885   6.209 -0.5501  3.3001 -1.6168
14317SOL    HW254171   8.046   8.880   6.366  1.3207 -1.3512 -2.2215
14318SOL     OW54172   8.376   5.200   0.512 -0.3725 -0.6073 -0.1644
14318SOL    HW154173   8.325   5.133   0.458 -0.4510 -1.5784  1.0987
14318SOL    HW254174   8.413   5.270   0.451 -3.7001  0.4768 -1.0795
14319SOL     OW54175   5.564   8.204   2.071 -0.3351 -0.0224  0.2962
14319SOL    HW154176   5.469   8.228   2.090 -0.9806 -1.3093 -1.2477
14319SOL    HW254177   5.570   8.108   2.046  1.4199 -0.0140  0.6138
14320SOL     OW54178   0.614   3.644   4.176  0.2042  0.8010 -0.0850
14320SOL    HW154179   0.599   3.736   4.140  0.5739  0.9813  0.2235
14320SOL    HW254180   0.542   3.584   4.143  0.9102  0.8097 -1.6922
14321SOL     OW54181   8.252   4.133   0.325 -0.1500  0.3756 -0.0714
14321SOL    HW154182   8.344   4.104   0.301 -0.8283 -2.7726  0.8689
14321SOL    HW254183   8.196   4.140   0.243 -0.5232 -3.2410 -0.2256
14322SOL     OW54184   3.485   8.401   6.575 -0.0393 -0.8157 -0.5708
14322SOL    HW154185   3.583   8.403   6.594 -0.3074 -0.3812  0.8002
14322SOL    HW254186   3.452   8.307   6.581  0.2796 -0.9610 -1.0324
14323SOL     OW54187   9.312   4.448   6.331 -0.2130 -0.1392  0.1354
14323SOL    HW154188   9.249   4.500   6.274 -0.7506 -0.6811  0.2405
14323SOL    HW254189   9.327   4.358   6.292  0.8155  0.1229 -0.1063
14324SOL     OW54190   4.310   2.588   4.970  0.1831  0.7085  0.2775
14324SOL    HW154191   4.314   2.636   4.883  0.6045  0.5742  0.2183
14324SOL    HW254192   4.215   2.575   4.998  0.0624  1.8319  0.4349
14325SOL     OW54193   1.588   3.473   3.766 -0.0945  0.0084  0.2742
14325SOL    HW154194   1.629   3.557   3.802 -0.6021  0.2204  0.3641
14325SOL    HW254195   1.491   3.471   3.789  0.4055 -1.7633  2.4197
14326SOL     OW54196   7.388   8.778   2.096 -0.2685  0.2132  0.2442
14326SOL    HW154197   7.409   8.710   2.167 -1.1578 -0.7385 -0.3762
14326SOL    HW254198   7.443   8.759   2.015  0.4835  1.0761  0.5597
14327SOL     OW54199   2.104   7.493   2.782 -0.4695  0.0531  0.8303
14327SOL    HW154200   2.041   7.515   2.707  0.4331  2.1139  0.6486
14327SOL    HW254201   2.095   7.396   2.806  0.2305 -0.9942 -2.8645
14328SOL     OW54202   1.068   0.979   4.791  0.0192 -0.5758  0.3816
14328SOL    HW154203   1.078   1.047   4.718  0.5657 -1.4518 -0.3664
14328SOL    HW254204   1.129   1.003   4.867  0.3318 -0.3174  0.0507
14329SOL     OW54205   7.156   9.996   3.524  0.1764  0.3462  0.3658
14329SOL    HW154206   7.206   9.914   3.552  0.5469  0.4371 -0.0211
14329SOL    HW254207   7.220  10.072   3.513 -0.2329  0.8167  1.2047
14330SOL     OW54208   2.752   5.310   6.573 -0.1679 -0.0319 -0.5150
14330SOL    HW154209   2.812   5.244   6.528 -0.3048  1.8012 -3.5156
14330SOL    HW254210   2.657   5.287   6.555 -0.3224 -0.7980  1.1310
14331SOL     OW54211   5.254   1.206   4.255 -0.1971  0.1899  0.1509
14331SOL    HW154212   5.171   1.241   4.297  0.6490  1.7300  0.6038
14331SOL    HW254213   5.260   1.238   4.160  0.0313  0.3811  0.2261
14332SOL     OW54214   0.752   8.559   5.757 -0.4970  0.4083  0.4913
14332SOL    HW154215   0.725   8.655   5.753  0.0799  0.5360 -0.6578
14332SOL    HW254216   0.790   8.538   5.847 -0.9143  1.1750  0.8461
14333SOL     OW54217   9.098   4.281   4.325  0.6962 -0.2252 -0.3491
14333SOL    HW154218   9.138   4.298   4.415  0.3871  3.1212 -0.8049
14333SOL    HW254219   9.023   4.345   4.309  1.6650  0.1869 -3.5684
14334SOL     OW54220   1.480   8.393   4.274 -0.0116 -0.4266 -0.2709
14334SOL    HW154221   1.548   8.435   4.215 -0.5415 -0.3140 -0.8009
14334SOL    HW254222   1.508   8.300   4.297  0.1802 -0.4765 -0.7186
14335SOL     OW54223   8.899   3.943   3.751  0.2122  0.3437 -0.0487
14335SOL    HW154224   8.989   3.902   3.733 -1.1051 -3.0655  0.6987
14335SOL    HW254225   8.908   4.016   3.818  2.3929 -0.1232  0.2049
14336SOL     OW54226   7.813   7.251   3.578  0.4808 -0.3333 -0.1629
14336SOL    HW154227   7.883   7.249   3.650 -1.6839 -0.3080  2.0094
14336SOL    HW254228   7.778   7.159   3.564 -0.4188 -0.0423  0.1555
14337SOL     OW54229   3.745   8.939   1.311 -0.1101  1.0679  0.4931
14337SOL    HW154230   3.694   9.012   1.267  0.1993  0.9215 -0.1129
14337SOL    HW254231   3.714   8.850   1.277  0.8267  0.9924 -0.1974
14338SOL     OW54232   1.952   4.910   0.124  0.0765  0.1833  0.5149
14338SOL    HW154233   2.023   4.841   0.137 -1.1224 -0.7293  2.4243
14338SOL    HW254234   1.946   4.968   0.205  0.0925  1.6506 -0.5025
14339SOL     OW54235   1.113   4.820   5.224 -0.4751  0.5443  0.4526
14339SOL    HW154236   1.144   4.901   5.275 -1.8327  0.3756  1.5630
14339SOL    HW254237   1.040   4.775   5.275  0.3614 -1.4722 -0.1128
14340SOL     OW54238   2.297   7.943   5.200  0.0824 -0.4849 -0.3447
14340SOL    HW154239   2.294   7.937   5.100 -0.1039 -2.0207 -0.2647
14340SOL    HW254240   2.345   7.863   5.236 -2.5035 -1.5013  0.9480
14341SOL     OW54241   8.769   2.415   1.892 -0.1464  0.6116 -0.6470
14341SOL    HW154242   8.819   2.433   1.807 -1.5233  2.0986 -1.1557
14341SOL    HW254243   8.794   2.483   1.961 -0.3963  0.4863 -0.4309
14342SOL     OW54244   2.098   8.561   4.686  0.3252 -0.1852  0.2478
14342SOL    HW154245   2.051   8.538   4.772 -1.8932  1.0262 -0.6062
14342SOL    HW254246   2.146   8.648   4.697 -1.5533  0.9488 -0.2894
14343SOL     OW54247   5.562   0.337   3.530 -0.4949  0.0404  0.2398
14343SOL    HW154248   5.492   0.266   3.534 -0.5222  0.1529  2.2445
14343SOL    HW254249   5.608   0.344   3.619  2.2961 -0.2687 -1.1279
14344SOL     OW54250   2.378   2.395   2.974 -0.4135 -0.3489 -0.4708
14344SOL    HW154251   2.407   2.339   3.052 -1.0570 -0.6420 -0.4357
14344SOL    HW254252   2.369   2.337   2.893  0.5708  0.0162 -0.8412
14345SOL     OW54253   1.524   5.015   3.939  0.0669  0.2892  0.4410
14345SOL    HW154254   1.498   5.074   3.863  1.7977  0.2616 -0.1662
14345SOL    HW254255   1.622   5.023   3.957 -0.1162 -0.5603  1.9272
14346SOL     OW54256   4.481   6.163   2.141  0.4205  0.8036 -0.1552
14346SOL    HW154257   4.499   6.103   2.063  0.4695  1.6667 -0.8152
14346SOL    HW254258   4.529   6.249   2.128  1.1682  0.6049  1.2776
14347SOL     OW54259   2.165   3.377   0.912  0.3114 -0.3685  0.0157
14347SOL    HW154260   2.071   3.349   0.928  0.3838 -1.5747 -1.5196
14347SOL    HW254261   2.169   3.476   0.897 -0.8619 -0.4625 -0.9943
14348SOL     OW54262   4.093   1.707   0.629  0.2018  0.1234 -0.3756
14348SOL    HW154263   4.060   1.717   0.536 -0.5872  0.2047 -0.0944
14348SOL    HW254264   4.193   1.717   0.631  0.1551  0.7908 -1.1149
14349SOL     OW54265   0.725   1.588   0.444  0.6174 -0.7833  0.5047
14349SOL    HW154266   0.771   1.506   0.477 -0.7060 -0.8269  2.3523
14349SOL    HW254267   0.692   1.641   0.523  0.0452  0.6865 -0.7042
14350SOL     OW54268   2.098   1.502   0.255 -0.7083 -1.2742 -0.4165
14350SOL    HW154269   2.136   1.464   0.340 -1.1498 -0.5779  0.1044
14350SOL    HW254270   2.157   1.576   0.223 -1.3695 -0.4881  0.1505
14351SOL     OW54271   7.045   0.548   5.830 -0.2444  0.7344  0.1422
14351SOL    HW154272   7.122   0.589   5.782 -0.0668 -1.2818 -1.4054
14351SOL    HW254273   7.074   0.512   5.918 -0.5682  4.4915  1.8769
14352SOL     OW54274   0.736   9.228   1.136 -0.3672  0.2981 -0.2031
14352SOL    HW154275   0.707   9.135   1.115 -0.1865  0.8136 -2.9463
14352SOL    HW254276   0.736   9.242   1.235 -1.1890 -2.3435  0.1979
14353SOL     OW54277   3.529   1.215   2.287  0.1228  0.4639  0.1283
14353SOL    HW154278   3.487   1.127   2.311 -1.1669  0.0969 -3.1878
14353SOL    HW254279   3.503   1.284   2.354 -1.4580 -0.9747  1.0407
14354SOL     OW54280   9.587   7.192   5.994  1.2575 -0.5707  0.3875
14354SOL    HW154281   9.499   7.225   5.960  0.6840 -0.0116  2.3307
14354SOL    HW254282   9.600   7.096   5.966  0.1204 -0.6006 -0.0688
14355SOL     OW54283   1.604   0.975   3.724  0.5791  0.3049 -0.5510
14355SOL    HW154284   1.641   1.065   3.748  1.6125 -0.8292  2.3730
14355SOL    HW254285   1.656   0.905   3.772  0.1145 -1.9125 -3.2009
14356SOL     OW54286   3.114   2.221   6.730 -0.4074  0.1850 -0.2763
14356SOL    HW154287   3.210   2.230   6.757 -0.2193 -1.2138 -0.4043
14356SOL    HW254288   3.109   2.209   6.631 -0.6498 -0.4040 -0.1979
14357SOL     OW54289   9.674   5.641   0.090 -0.0128  0.3627  0.1013
14357SOL    HW154290   9.738   5.714   0.114 -0.1964  1.1071 -1.6509
14357SOL    HW254291   9.581   5.667   0.118 -0.9305  3.0747 -4.8840
14358SOL     OW54292   3.147   9.052   1.748  0.0013 -0.0926  0.0528
14358SOL    HW154293   3.115   9.019   1.659 -0.3825  2.1352 -0.6780
14358SOL    HW254294   3.246   9.037   1.755 -0.2996 -2.1573  0.1208
14359SOL     OW54295   7.971   4.269   1.176  0.2287  0.2474 -0.0452
14359SOL    HW154296   7.890   4.251   1.233 -1.7130  0.4857 -2.6436
14359SOL    HW254297   8.021   4.346   1.214  0.5908 -1.3771  2.9510
14360SOL     OW54298   6.972   4.981   1.337  0.1415 -0.2879  0.3393
14360SOL    HW154299   6.897   5.030   1.382 -1.2738 -1.9099 -0.1572
14360SOL    HW254300   7.005   4.908   1.398 -0.6872 -1.4471 -0.5620
14361SOL     OW54301   5.668   9.303   2.423  0.4436 -0.4023  0.1954
14361SOL    HW154302   5.636   9.212   2.450 -2.1497  0.8503  1.5450
14361SOL    HW254303   5.682   9.305   2.324 -0.9271 -1.8684 -0.0547
14362SOL     OW54304   6.560   0.563   5.564 -0.5757  0.0920  0.0669
14362SOL    HW154305   6.599   0.633   5.624 -2.0732 -0.1304  1.3337
14362SOL    HW254306   6.551   0.477   5.615 -0.3343 -0.5568 -0.9682
14363SOL     OW54307   4.957   9.851   1.131 -0.4288 -0.3688 -0.6811
14363SOL    HW154308   5.008   9.926   1.171  0.5500 -0.9239 -0.8889
14363SOL    HW254309   4.881   9.826   1.192  0.1815 -0.2530  0.1347
14364SOL     OW54310   9.328   8.236   1.315  0.1710 -0.3198  0.7041
14364SOL    HW154311   9.377   8.315   1.277 -1.9631  1.7444  2.0604
14364SOL    HW254312   9.389   8.184   1.375  1.6425  0.2261 -0.2965
14365SOL     OW54313   8.684   5.635   3.943  0.1652 -0.9737  0.5591
14365SOL    HW154314   8.708   5.554   3.998  2.7068 -0.0204  0.9235
14365SOL    HW254315   8.691   5.717   4.000 -1.6536 -0.4132 -0.0099
14366SOL     OW54316   8.820   4.353   0.826 -0.0873  0.0482  0.1980
14366SOL    HW154317   8.842   4.300   0.908 -1.3197 -1.1027 -0.2047
14366SOL    HW254318   8.811   4.450   0.851  1.1101 -0.0652  1.1241
14367SOL     OW54319   9.931   9.116   4.626 -0.3460  0.2341 -0.8495
14367SOL    HW154320  10.022   9.086   4.654  0.5853  2.8103 -0.9194
14367SOL    HW254321   9.927   9.124   4.526 -0.7038 -0.0555 -0.8603
14368SOL     OW54322   9.422   6.470   0.094 -0.0389  0.7114  0.1574
14368SOL    HW154323   9.331   6.511   0.084 -0.2880  0.2436  0.4644
14368SOL    HW254324   9.425   6.384   0.043  0.3375  0.8988 -0.1280
14369SOL     OW54325   3.341   0.468   0.790 -0.0869 -0.2011  0.0389
14369SOL    HW154326   3.395   0.543   0.828  0.5509  0.0960 -1.4175
14369SOL    HW254327   3.328   0.483   0.692 -2.1490 -0.6762  0.2232
14370SOL     OW54328   9.629   1.814   4.307  0.0856 -0.4753 -0.4115
14370SOL    HW154329   9.718   1.780   4.337 -0.0729 -0.4644  0.0763
14370SOL    HW254330   9.586   1.866   4.381 -0.2709 -0.3728 -0.6866
14371SOL     OW54331   4.422   1.688   5.448  0.3745  0.6878 -0.3958
14371SOL    HW154332   4.463   1.621   5.386  1.6968  0.8360  0.2992
14371SOL    HW254333   4.322   1.681   5.443  0.4890 -1.1064 -0.5836
14372SOL     OW54334   4.114   1.900   6.729  0.3387 -0.0949  0.6814
14372SOL    HW154335   4.184   1.829   6.736  0.5309  0.0403  0.1966
14372SOL    HW254336   4.025   1.856   6.714  0.6585 -0.2095 -1.0519
14373SOL     OW54337   3.120   7.004   6.152 -0.2436  0.3219  0.1765
14373SOL    HW154338   3.135   7.028   6.248  0.1383  1.0083 -0.0541
14373SOL    HW254339   3.079   7.082   6.104 -1.0317 -0.2345 -0.0751
14374SOL     OW54340   2.225   7.216   0.357 -0.6432 -0.5374 -0.1600
14374SOL    HW154341   2.270   7.221   0.268  3.0105 -0.8707  1.5491
14374SOL    HW254342   2.207   7.120   0.380 -2.4144 -0.3985 -0.8859
14375SOL     OW54343   4.020   4.683   5.250 -0.4450  0.2188 -0.1660
14375SOL    HW154344   4.082   4.606   5.264 -0.6610 -0.1307 -1.0583
14375SOL    HW254345   4.064   4.749   5.189 -1.2958 -0.4605 -1.5403
14376SOL     OW54346   8.062   0.145   6.046  0.3082 -0.7246 -0.2899
14376SOL    HW154347   8.031   0.240   6.048 -1.3983 -1.2634  0.5442
14376SOL    HW254348   8.124   0.128   6.123 -0.4095 -0.5873  0.3365
14377SOL     OW54349   9.019   1.870   2.279  0.2656  0.4797  0.3041
14377SOL    HW154350   8.965   1.790   2.254  1.0104 -0.1157  0.5774
14377SOL    HW254351   8.961   1.938   2.323 -0.1872 -0.2905  0.8888
14378SOL     OW54352   8.544   7.978   5.786  0.7590  0.0395  0.0519
14378SOL    HW154353   8.607   7.916   5.832  0.9295 -1.3645 -1.9716
14378SOL    HW254354   8.594   8.035   5.721 -0.1082 -1.9536 -2.4822
14379SOL     OW54355   3.816   0.311   2.148 -0.2512  0.0768 -0.1185
14379SOL    HW154356   3.905   0.339   2.113 -0.0573 -0.6000 -0.1866
14379SOL    HW254357   3.774   0.247   2.084  0.3370 -1.5847  1.1002
14380SOL     OW54358   4.424   5.011   1.541  0.2229  0.1102 -0.7160
14380SOL    HW154359   4.469   5.082   1.595  0.1856  0.1420 -0.7264
14380SOL    HW254360   4.463   5.009   1.449  0.5356 -0.1879 -0.5777
14381SOL     OW54361   0.997   0.642   0.534 -0.0841 -0.6377 -0.2688
14381SOL    HW154362   0.914   0.696   0.525  1.8937  2.2539 -1.9676
14381SOL    HW254363   1.016   0.595   0.447  0.7505 -0.2233 -0.3183
14382SOL     OW54364   8.672   4.651   4.188  0.1603  0.2600  0.2490
14382SOL    HW154365   8.663   4.556   4.218  1.7350 -0.7170 -2.2062
14382SOL    HW254366   8.753   4.692   4.230 -0.4228  0.5005  1.1698
14383SOL     OW54367   2.789   9.905   5.103 -0.3268  0.5254  0.1657
14383SOL    HW154368   2.842   9.902   5.188 -0.4163 -0.6569  0.1899
14383SOL    HW254369   2.763   9.999   5.084  1.1176  1.0256  0.5683
14384SOL     OW54370   4.634   5.298   0.423  0.3481 -0.2388 -0.3319
14384SOL    HW154371   4.562   5.363   0.402 -1.0577 -1.1441  1.5045
14384SOL    HW254372   4.659   5.247   0.341 -0.9608  0.2132 -1.0168
14385SOL     OW54373   2.419   1.487   1.805 -0.7161 -0.1545  0.6187
14385SOL    HW154374   2.398   1.409   1.745  1.4642  0.9732 -1.7221
14385SOL    HW254375   2.494   1.539   1.766 -1.3862  2.5149  2.7377
14386SOL     OW54376   3.517   1.953   0.559  0.6801 -0.2883  0.6797
14386SOL    HW154377   3.506   2.053   0.566  0.2352 -0.4286  2.1561
14386SOL    HW254378   3.484   1.922   0.470 -2.0265  0.5220  1.3425
14387SOL     OW54379   1.100   6.570   1.257  0.1990 -0.2954 -0.2928
14387SOL    HW154380   1.036   6.503   1.295  1.8975 -0.8030  1.8299
14387SOL    HW254381   1.149   6.615   1.332  2.7016 -0.3051 -1.8494
14388SOL     OW54382   3.533   4.179   2.761 -0.3114 -0.7669 -0.7258
14388SOL    HW154383   3.461   4.182   2.692 -1.2887 -1.5543  0.2499
14388SOL    HW254384   3.493   4.195   2.852  0.7057 -1.4099 -0.1614
14389SOL     OW54385   0.114   5.430   1.754  0.0968 -0.2792  0.7658
14389SOL    HW154386   0.104   5.371   1.673  0.6287  2.1157 -1.0975
14389SOL    HW254387   0.195   5.402   1.805  1.5783  0.1399 -1.2753
14390SOL     OW54388   2.308   1.822   1.716  0.5024  0.0929 -0.5107
14390SOL    HW154389   2.312   1.790   1.621  1.1959 -0.9086 -0.1498
14390SOL    HW254390   2.379   1.892   1.729 -0.4220  1.1635 -1.0533
14391SOL     OW54391   3.507   4.864   0.674 -0.1819  0.2124 -0.4715
14391SOL    HW154392   3.557   4.881   0.589  0.2148 -1.0936 -0.5114
14391SOL    HW254393   3.571   4.847   0.748 -0.5481 -0.8649 -0.3894
14392SOL     OW54394   4.881   2.704   3.822 -0.6613  0.2204 -0.0504
14392SOL    HW154395   4.885   2.708   3.922 -2.2546  1.1893  0.0064
14392SOL    HW254396   4.914   2.790   3.784 -0.0701 -0.1423 -0.3526
14393SOL     OW54397   5.963   0.015   5.547  0.0325  0.2876 -0.1591
14393SOL    HW154398   5.949   0.036   5.644 -3.1022  0.4509 -0.5739
14393SOL    HW254399   5.976  -0.083   5.535  0.0127  0.2162  0.3862
14394SOL     OW54400   4.465   8.527   2.947  0.0071 -0.2904  0.3154
14394SOL    HW154401   4.387   8.561   3.000 -0.6544  0.6891 -1.2529
14394SOL    HW254402   4.469   8.428   2.954 -1.4243 -0.3550  0.3672
14395SOL     OW54403   1.676   6.507   0.478  1.1755 -0.1307 -0.1952
14395SOL    HW154404   1.768   6.516   0.517  0.8429  0.8440  0.3757
14395SOL    HW254405   1.680   6.529   0.380  1.5031  0.1804 -0.1162
14396SOL     OW54406   7.693   0.274   3.190  0.2799  0.3432 -0.2422
14396SOL    HW154407   7.729   0.187   3.221  0.6472  0.6088  0.0672
14396SOL    HW254408   7.645   0.319   3.265 -3.0490 -1.2273 -1.3244
14397SOL     OW54409   8.376   0.689   0.974  0.3501 -0.0417 -0.3101
14397SOL    HW154410   8.361   0.709   0.877  0.4747 -1.4563 -0.6333
14397SOL    HW254411   8.474   0.677   0.990  0.3085 -0.0225 -0.0468
14398SOL     OW54412   6.767   8.399   4.568 -0.7057  0.0062 -0.8169
14398SOL    HW154413   6.843   8.462   4.550  1.6160 -2.8071 -1.1408
14398SOL    HW254414   6.728   8.419   4.658  1.0809  0.8527 -0.2029
14399SOL     OW54415   9.488   9.266   2.987 -0.2458 -0.3431  0.1925
14399SOL    HW154416   9.388   9.273   2.992 -0.0980  1.2194  1.4759
14399SOL    HW254417   9.524   9.248   3.079  0.7526  0.8275  0.0399
14400SOL     OW54418   3.040   4.535   1.664 -0.0420  0.5581  0.4124
14400SOL    HW154419   3.103   4.521   1.588 -0.1207  0.5817  0.3420
14400SOL    HW254420   3.085   4.511   1.750 -0.6253 -1.6078  0.1604
14401SOL     OW54421   1.419   2.485   0.363 -0.7356 -0.0911 -0.1711
14401SOL    HW154422   1.473   2.401   0.359 -0.6399 -0.2027  2.2936
14401SOL    HW254423   1.397   2.505   0.459  0.5279  3.4974 -0.5572
14402SOL     OW54424   2.847   4.669   2.717 -0.4714  0.4476 -0.5359
14402SOL    HW154425   2.812   4.736   2.651  1.8916  1.5231 -0.7263
14402SOL    HW254426   2.925   4.621   2.677 -1.7108 -2.0038 -0.1472
14403SOL     OW54427   4.814   4.488   6.531 -0.3579  0.2387 -0.6524
14403SOL    HW154428   4.879   4.502   6.606  0.5896  0.9187 -1.5838
14403SOL    HW254429   4.721   4.506   6.563 -0.0058  0.1369  0.4536
14404SOL     OW54430   9.606   5.392   5.988 -0.7070  0.3414 -0.4356
14404SOL    HW154431   9.670   5.465   6.010 -0.7725 -0.1343  1.3822
14404SOL    HW254432   9.514   5.417   6.019 -0.5415 -0.9393  1.1498
14405SOL     OW54433   2.943   2.839   5.706 -0.5732 -0.3873 -0.3756
14405SOL    HW154434   2.897   2.873   5.788  0.4537  0.0793  0.0155
14405SOL    HW254435   2.886   2.769   5.662 -1.7567  0.3379 -0.0364
14406SOL     OW54436   7.370   2.947   0.275  0.4413  0.2229 -0.5044
14406SOL    HW154437   7.437   2.872   0.276  1.2664  0.9588  0.3128
14406SOL    HW254438   7.372   2.991   0.185 -0.9434 -1.5097 -1.4144
14407SOL     OW54439   4.903   3.878   4.072  0.3707 -0.4505  0.0617
14407SOL    HW154440   4.953   3.844   4.152  1.0652 -0.8233 -0.5220
14407SOL    HW254441   4.952   3.852   3.988  0.5972  1.4936 -0.4342
14408SOL     OW54442   8.948   4.359   0.249  0.0559  0.0753  0.4073
14408SOL    HW154443   8.959   4.328   0.154 -0.6894 -1.2573  0.7503
14408SOL    HW254444   8.962   4.282   0.311  1.8873  1.2291  1.4669
14409SOL     OW54445   5.497   5.801   1.904 -0.4958 -0.3026  0.0405
14409SOL    HW154446   5.544   5.723   1.946  0.3666 -0.9899 -2.1341
14409SOL    HW254447   5.411   5.769   1.863  0.1137 -0.2380 -1.3192
14410SOL     OW54448   5.788   3.995   0.609 -0.1133 -1.2017  0.2117
14410SOL    HW154449   5.709   4.034   0.562  0.8446 -0.3529 -0.7039
14410SOL    HW254450   5.757   3.943   0.688 -1.5850 -0.8195 -0.1018
14411SOL     OW54451   9.402   3.965   2.750 -0.1181 -0.3395  0.0769
14411SOL    HW154452   9.307   3.940   2.731 -0.3350  0.7888 -0.3402
14411SOL    HW254453   9.419   3.959   2.849 -1.1165  1.1602  0.3406
14412SOL     OW54454   0.826   3.859   0.821  0.6711  0.2711  0.0691
14412SOL    HW154455   0.780   3.774   0.847 -3.0617  1.9836 -0.6425
14412SOL    HW254456   0.881   3.892   0.898 -2.1639 -0.0107  2.2948
14413SOL     OW54457   0.308   0.718   1.929 -0.2846  0.5725 -0.2718
14413SOL    HW154458   0.369   0.713   1.850  0.7806  2.5623  0.4207
14413SOL    HW254459   0.360   0.703   2.013 -1.1263  0.1886  0.1944
14414SOL     OW54460   5.939   0.567   4.428 -0.1150 -0.1336  0.3738
14414SOL    HW154461   5.961   0.487   4.371  1.1757  0.9512 -0.6813
14414SOL    HW254462   5.971   0.550   4.521  2.0278 -0.0606 -0.3092
14415SOL     OW54463   5.556   9.300   1.596  0.1015 -0.1505  0.4160
14415SOL    HW154464   5.651   9.276   1.575  0.2312  2.0290 -1.5767
14415SOL    HW254465   5.548   9.398   1.611 -1.7140 -0.4198  1.4030
14416SOL     OW54466   4.566   9.982   1.155 -0.5175  0.2813 -0.0899
14416SOL    HW154467   4.489   9.996   1.093 -0.8147 -2.3537 -0.3770
14416SOL    HW254468   4.586   9.885   1.161  1.3407  0.7504  1.7624
14417SOL     OW54469   1.462   9.158   2.465 -0.1386  0.0219 -0.0476
14417SOL    HW154470   1.502   9.242   2.503  0.6772 -0.9868  1.3720
14417SOL    HW254471   1.363   9.169   2.458  0.0791  1.5361 -1.0038
14418SOL     OW54472   3.481   4.712   3.165  0.1813  0.1125  0.0269
14418SOL    HW154473   3.514   4.755   3.249 -0.7657  0.6005  0.1559
14418SOL    HW254474   3.513   4.764   3.086  0.4727  0.0644  0.1123
14419SOL     OW54475   6.743   1.588   3.264  0.0201 -0.2408 -0.2664
14419SOL    HW154476   6.752   1.688   3.259 -0.7192 -0.1084  0.7886
14419SOL    HW254477   6.832   1.547   3.281  0.5202  0.1553 -1.9155
14420SOL     OW54478   9.523   7.952   2.678 -0.3976 -0.3750  0.3005
14420SOL    HW154479   9.442   7.996   2.716 -0.7024  0.0846 -0.8588
14420SOL    HW254480   9.599   8.018   2.677  0.1064 -0.9262  1.7606
14421SOL     OW54481   1.346   5.064   5.368  0.1193  0.5255 -0.4364
14421SOL    HW154482   1.409   5.141   5.357  2.0445 -0.8847  0.3784
14421SOL    HW254483   1.348   5.033   5.463  1.3760 -2.1569 -1.2818
14422SOL     OW54484   9.620   4.041   1.956  0.4236  0.0006  0.1309
14422SOL    HW154485   9.697   3.981   1.979 -0.4225 -1.2910 -0.3054
14422SOL    HW254486   9.606   4.108   2.029  0.9650 -0.7778  0.9567
14423SOL     OW54487   0.718   3.707   1.493  0.1319 -0.3074  0.2355
14423SOL    HW154488   0.752   3.638   1.558  1.1698 -1.3211 -1.3440
14423SOL    HW254489   0.796   3.757   1.454 -0.6197  2.0090  1.5749
14424SOL     OW54490   7.907   8.101   5.823 -0.5018 -0.2598 -0.0673
14424SOL    HW154491   7.972   8.148   5.884 -0.8685 -2.0894  1.7719
14424SOL    HW254492   7.863   8.169   5.764  0.2627  1.4997  1.3252
14425SOL     OW54493   5.868   2.046   4.113  0.5303 -0.0659 -0.1364
14425SOL    HW154494   5.827   2.022   4.025 -1.0235 -0.9444  0.7881
14425SOL    HW254495   5.847   2.142   4.135 -1.0852 -0.5094  0.3287
14426SOL     OW54496   0.085   7.501   3.446  0.0853  0.0621 -0.7107
14426SOL    HW154497   0.060   7.588   3.490  0.5130 -0.7009  1.1048
14426SOL    HW254498   0.003   7.459   3.408 -0.2874  0.8056 -0.7411
14427SOL     OW54499   7.664   3.794   3.988  0.4737  0.1031  0.2386
14427SOL    HW154500   7.672   3.887   3.952 -1.8817 -0.1761 -1.0532
14427SOL    HW254501   7.718   3.731   3.931  1.3432  0.5233  0.5868
14428SOL     OW54502   5.282   4.585   0.594  0.7976  0.0945 -0.1378
14428SOL    HW154503   5.192   4.540   0.595  0.8989 -0.1118 -0.2470
14428SOL    HW254504   5.287   4.647   0.515 -0.2410  2.1459  1.3384
14429SOL     OW54505   0.301   1.290   4.477 -0.0228  0.5189  0.3667
14429SOL    HW154506   0.262   1.216   4.533  0.7149  0.5714  0.9626
14429SOL    HW254507   0.349   1.355   4.537 -0.1337  1.1456 -0.2215
14430SOL     OW54508   5.140   7.864   1.773 -0.9138  0.5224  0.4703
14430SOL    HW154509   5.195   7.834   1.851 -2.2413 -0.1650  1.1558
14430SOL    HW254510   5.057   7.910   1.806 -2.8534 -2.2037 -0.4821
14431SOL     OW54511   5.121   5.905   1.981  0.5758  0.2134  0.0845
14431SOL    HW154512   5.022   5.912   1.969  0.4364  0.4993  1.3511
14431SOL    HW254513   5.164   5.991   1.953  0.5658 -0.2185 -1.3129
14432SOL     OW54514   3.622   6.065   6.672  0.0546  0.1485  0.4815
14432SOL    HW154515   3.522   6.057   6.667  0.1469 -0.3795 -0.6650
14432SOL    HW254516   3.651   6.145   6.619  0.1753  0.8040  1.5256
14433SOL     OW54517   5.272   1.074   3.116 -0.0809 -0.1192  0.1492
14433SOL    HW154518   5.203   1.014   3.156 -0.1043  0.3457  0.8269
14433SOL    HW254519   5.271   1.162   3.164 -0.5231  0.6675 -1.2852
14434SOL     OW54520   8.840   4.800   2.244  0.7738 -0.4567  0.8774
14434SOL    HW154521   8.745   4.831   2.236  0.4407 -1.6195  0.1584
14434SOL    HW254522   8.900   4.863   2.195  0.1583 -0.6740 -0.1825
14435SOL     OW54523   3.406   7.855   0.046 -0.6194 -0.3191  0.8165
14435SOL    HW154524   3.450   7.900   0.123  3.5609 -0.1650 -1.5201
14435SOL    HW254525   3.386   7.760   0.070 -0.1738 -0.0402  2.3594
14436SOL     OW54526   7.435   0.117   0.531  0.0381  0.8796 -0.5985
14436SOL    HW154527   7.491   0.192   0.496  0.2405  1.9035  1.8608
14436SOL    HW254528   7.348   0.152   0.565  0.5638  0.1878  1.5644
14437SOL     OW54529   8.241   2.686   6.372 -0.3491 -0.0736 -0.4947
14437SOL    HW154530   8.198   2.718   6.457  1.0470 -0.2660  0.2880
14437SOL    HW254531   8.288   2.763   6.328  0.9994 -0.4970  0.1739
14438SOL     OW54532   5.835   0.321   2.614  0.0569  0.1578  0.0621
14438SOL    HW154533   5.799   0.412   2.594 -1.2743 -0.4259 -0.2719
14438SOL    HW254534   5.844   0.269   2.529  1.6460  0.2592  0.1439
14439SOL     OW54535   0.517   3.611   6.266 -0.3002 -0.0549 -0.5636
14439SOL    HW154536   0.482   3.687   6.212 -1.6998  0.1095  0.5286
14439SOL    HW254537   0.548   3.645   6.355 -0.6515 -0.7089 -0.1875
14440SOL     OW54538   8.907   4.743   0.686 -0.3526  0.5902 -0.2744
14440SOL    HW154539   8.992   4.708   0.647 -0.8083 -0.4291 -0.3588
14440SOL    HW254540   8.896   4.839   0.661  0.7931  0.7403 -0.2237
14441SOL     OW54541   4.695   9.718   1.226  0.1007 -0.3477 -0.1574
14441SOL    HW154542   4.681   9.645   1.293  2.6880 -0.3011  0.4838
14441SOL    HW254543   4.691   9.679   1.134 -0.2953 -1.0003  0.1363
14442SOL     OW54544   3.572   4.245   3.298 -0.2285  0.1167 -0.2084
14442SOL    HW154545   3.635   4.314   3.263  0.4790  0.5998  1.9407
14442SOL    HW254546   3.539   4.189   3.222  2.9270 -0.2636 -1.4149
14443SOL     OW54547   0.075   8.812   1.810 -0.4376 -0.7515  0.8118
14443SOL    HW154548   0.155   8.852   1.855  0.2625  0.1487 -1.1760
14443SOL    HW254549  -0.003   8.813   1.873  0.8664 -0.7858  2.4493
14444SOL     OW54550   5.080   2.315   1.796  0.2088 -0.0282  0.3557
14444SOL    HW154551   5.142   2.276   1.864  0.9341 -0.5586 -0.5995
14444SOL    HW254552   5.096   2.272   1.707 -1.2495  0.1114  0.0034
14445SOL     OW54553   7.885   8.344   2.603 -0.2302 -0.3978  0.1894
14445SOL    HW154554   7.821   8.323   2.529  0.5040  0.7346 -0.7872
14445SOL    HW254555   7.843   8.320   2.691 -0.5734 -3.0619 -0.6583
14446SOL     OW54556   2.950   3.952   6.629 -0.1049  0.0421  0.1456
14446SOL    HW154557   2.884   3.923   6.560  1.1146 -1.7765 -0.2842
14446SOL    HW254558   2.947   3.890   6.707 -0.0987  0.9543  0.8866
14447SOL     OW54559   0.375   5.705   1.666 -0.1159  0.2994 -0.8229
14447SOL    HW154560   0.460   5.716   1.718  0.4013  0.5300 -1.7057
14447SOL    HW254561   0.388   5.637   1.595 -0.6788  0.3225 -0.9490
14448SOL     OW54562   1.106   6.845   0.727 -0.2179  0.4488 -0.2445
14448SOL    HW154563   1.131   6.841   0.630  2.4498  3.3238  0.2559
14448SOL    HW254564   1.044   6.922   0.742 -0.6551 -0.0142  0.3390
14449SOL     OW54565   2.793   8.671   2.812  0.1819  0.0231  0.0376
14449SOL    HW154566   2.723   8.601   2.827 -0.2544  0.0025 -1.9387
14449SOL    HW254567   2.881   8.626   2.795  0.5335  0.0336  1.7692
14450SOL     OW54568   4.850   9.260   0.171  0.4912 -0.1851  0.0753
14450SOL    HW154569   4.827   9.318   0.093  0.7081  0.7888  0.7330
14450SOL    HW254570   4.908   9.185   0.140 -0.5471 -0.5917 -0.9445
14451SOL     OW54571   0.619   5.131   0.221  0.8075  0.3394 -0.2758
14451SOL    HW154572   0.712   5.125   0.256  0.8053 -0.2144 -0.3553
14451SOL    HW254573   0.569   5.048   0.245  0.1915  0.8443  0.1743
14452SOL     OW54574   8.700   8.012   0.150 -0.2279  0.0763 -0.1964
14452SOL    HW154575   8.662   8.078   0.215  0.3320  0.4611 -0.2518
14452SOL    HW254576   8.800   8.019   0.151 -0.1579 -0.8917 -0.0812
14453SOL     OW54577   9.109   3.277   3.674  0.6819  0.0419  0.5589
14453SOL    HW154578   9.177   3.306   3.608  2.0504 -0.3056  1.7772
14453SOL    HW254579   9.135   3.187   3.711 -0.0446  0.2285  1.5558
14454SOL     OW54580   9.856   2.537   0.542  0.1431 -0.2371 -0.2543
14454SOL    HW154581   9.890   2.629   0.563 -2.6528  0.5422  1.1137
14454SOL    HW254582   9.812   2.538   0.452  1.8328 -0.7468 -1.1094
14455SOL     OW54583   0.256   3.064   4.225  0.4052 -0.0882  0.1792
14455SOL    HW154584   0.257   2.989   4.159  1.1881  0.4367 -0.4044
14455SOL    HW254585   0.170   3.115   4.216 -0.1092 -0.8678  0.5428
14456SOL     OW54586   0.822   0.382   0.236 -0.0567  0.7570  0.0867
14456SOL    HW154587   0.867   0.392   0.148 -0.7519  0.8607 -0.2589
14456SOL    HW254588   0.853   0.455   0.297  0.5145  0.6148 -0.0267
14457SOL     OW54589   7.393   9.131   4.179  0.4002  0.4697 -0.0653
14457SOL    HW154590   7.446   9.092   4.254  0.5529 -1.4037 -1.1241
14457SOL    HW254591   7.350   9.217   4.209  1.8526  0.6298  1.6129
14458SOL     OW54592   2.812   0.322   6.731 -0.3809  0.6590  0.6471
14458SOL    HW154593   2.904   0.285   6.714 -1.4601 -0.4938 -3.2474
14458SOL    HW254594   2.792   0.392   6.662 -2.6638  0.4190  1.0529
14459SOL     OW54595   2.281   4.001   2.957  0.9592 -0.1328 -0.0818
14459SOL    HW154596   2.252   4.092   2.985  0.4092 -0.3874  0.1761
14459SOL    HW254597   2.222   3.932   2.999  1.4029 -0.6126 -0.2318
14460SOL     OW54598   1.167   2.261   5.243 -0.1310  0.5024  0.0097
14460SOL    HW154599   1.122   2.269   5.153  0.9506  1.9976 -0.4307
14460SOL    HW254600   1.195   2.352   5.273  1.6556 -0.2790  0.7623
14461SOL     OW54601   3.082   5.261   3.985  0.3531 -0.8751 -0.5190
14461SOL    HW154602   3.064   5.235   3.890  0.6502  1.7102 -1.3306
14461SOL    HW254603   3.128   5.350   3.987 -3.1695  1.0244  2.1639
14462SOL     OW54604   5.144   7.426   5.095  0.0183  0.0639 -0.4696
14462SOL    HW154605   5.060   7.378   5.067 -0.3196  0.6453 -0.4585
14462SOL    HW254606   5.147   7.430   5.195 -0.5383  1.0800 -0.4841
14463SOL     OW54607   3.882   1.667   0.814  0.2199  0.4565 -0.3864
14463SOL    HW154608   3.968   1.654   0.763 -0.4326  1.3605 -1.7415
14463SOL    HW254609   3.813   1.706   0.753 -1.0362  0.1299  0.8125
14464SOL     OW54610   1.487   8.752   6.035  0.0193 -0.3714  0.1837
14464SOL    HW154611   1.524   8.660   6.027  0.5901 -0.2673  1.5254
14464SOL    HW254612   1.559   8.819   6.015 -0.1118 -0.2009  0.2791
14465SOL     OW54613   9.291   1.891   2.370  0.1315 -0.7008 -0.1960
14465SOL    HW154614   9.298   1.988   2.396 -0.5018 -0.5321 -0.6536
14465SOL    HW254615   9.198   1.871   2.339  1.2007 -0.5379 -3.7505
14466SOL     OW54616   9.640   6.150   0.874  0.2035  0.3556  0.0550
14466SOL    HW154617   9.722   6.093   0.876  0.4893  0.7311 -0.8191
14466SOL    HW254618   9.666   6.246   0.882 -0.1818  0.4536  0.1248
14467SOL     OW54619   1.276   0.038   5.116 -0.9161 -0.4951  0.0182
14467SOL    HW154620   1.330  -0.039   5.081 -0.8348 -0.3360 -0.2051
14467SOL    HW254621   1.209   0.004   5.182 -0.1912 -0.6322  0.7027
14468SOL     OW54622   1.460   2.491   4.005 -0.1951 -0.7527 -0.6048
14468SOL    HW154623   1.466   2.405   3.954  0.6298  0.2432 -2.2386
14468SOL    HW254624   1.413   2.560   3.950 -1.1455 -0.2449  0.8206
14469SOL     OW54625   0.455   2.681   0.187 -0.3504 -0.2439 -0.0124
14469SOL    HW154626   0.512   2.604   0.215 -1.1971 -1.6755 -2.1280
14469SOL    HW254627   0.406   2.717   0.266  0.2730 -1.6744  1.0473
14470SOL     OW54628   9.246   4.181   5.959  0.2916 -0.2419 -0.0224
14470SOL    HW154629   9.270   4.261   5.905 -0.8229  0.7208  0.8693
14470SOL    HW254630   9.149   4.160   5.946 -0.1301  0.3314  1.9745
14471SOL     OW54631   4.248   4.188   1.946  0.6229  0.0874  0.3922
14471SOL    HW154632   4.282   4.193   1.852 -3.2573 -2.8700 -1.3255
14471SOL    HW254633   4.174   4.254   1.959  0.8773  0.2166  1.2535
14472SOL     OW54634   8.733   2.138   1.782 -0.7557 -0.0596  0.2283
14472SOL    HW154635   8.723   2.237   1.777 -0.8139 -0.0891 -0.2871
14472SOL    HW254636   8.830   2.114   1.785 -0.7561  0.0485  1.2140
14473SOL     OW54637   7.578   3.337   6.073  0.4254  0.0581  0.3844
14473SOL    HW154638   7.618   3.427   6.088 -1.8641  1.6122 -2.2927
14473SOL    HW254639   7.483   3.336   6.107 -0.3135 -0.5869 -1.6003
14474SOL     OW54640   3.854   2.328   0.176  0.3760  0.0890 -0.6087
14474SOL    HW154641   3.856   2.237   0.134 -2.2776  0.1799 -1.0176
14474SOL    HW254642   3.888   2.396   0.111 -2.2659  0.0227 -2.1036
14475SOL     OW54643   3.950   8.101   5.810  0.1449 -0.1519 -0.2865
14475SOL    HW154644   4.010   8.181   5.814  1.2835 -1.0617  2.1484
14475SOL    HW254645   3.965   8.044   5.891 -1.3182 -2.3615 -1.5029
14476SOL     OW54646   8.039   1.445   0.239 -0.5112  0.4765 -0.0687
14476SOL    HW154647   7.979   1.524   0.249 -0.3178  0.6611 -0.3459
14476SOL    HW254648   8.064   1.410   0.329 -0.4396  0.8505  0.0566
14477SOL     OW54649   4.218   2.579   5.677 -0.2314  0.0444  0.0996
14477SOL    HW154650   4.291   2.567   5.745  2.0109 -1.9124 -2.5613
14477SOL    HW254651   4.258   2.607   5.590 -2.9149  1.0009 -0.8521
14478SOL     OW54652   7.952   2.194   3.283  0.0582 -0.1615  0.6943
14478SOL    HW154653   8.023   2.261   3.257 -0.2623  0.2769  0.9391
14478SOL    HW254654   7.862   2.234   3.268 -0.1790 -1.4375 -1.5232
14479SOL     OW54655   3.730   2.057   4.032 -0.3458  0.2535  0.1604
14479SOL    HW154656   3.721   2.010   4.119  0.0023  1.4627  0.8603
14479SOL    HW254657   3.762   2.151   4.047  0.1299  0.3512 -1.2874
14480SOL     OW54658   7.242   4.586   0.654 -0.0566 -0.3241  0.2049
14480SOL    HW154659   7.254   4.532   0.570 -0.4355 -0.8224  0.4645
14480SOL    HW254660   7.331   4.606   0.694  0.1773  0.5984 -0.7389
14481SOL     OW54661   9.205   2.980   2.131 -0.1289 -0.2115  0.0001
14481SOL    HW154662   9.304   2.995   2.129 -0.3017  0.9184 -1.1913
14481SOL    HW254663   9.178   2.926   2.051 -0.3866 -1.1587  0.7184
14482SOL     OW54664   7.313   0.686   4.553  0.5302 -0.2237 -0.2046
14482SOL    HW154665   7.276   0.600   4.518  1.3624  0.3523 -2.6135
14482SOL    HW254666   7.396   0.667   4.606 -0.1172 -1.0256  0.5362
14483SOL     OW54667   4.372   9.573   4.973  0.0737 -0.3145  0.0940
14483SOL    HW154668   4.380   9.647   4.905 -0.5440 -0.0217  0.3298
14483SOL    HW254669   4.408   9.605   5.060  0.4599 -0.5389  0.0161
14484SOL     OW54670   9.438   2.807   5.323 -0.2275 -0.2042 -0.0483
14484SOL    HW154671   9.394   2.786   5.236  0.5384 -1.3951 -0.1525
14484SOL    HW254672   9.424   2.731   5.387 -1.1154  0.8242  1.0054
14485SOL     OW54673   1.338   0.920   6.650 -0.1303 -0.6625 -0.0752
14485SOL    HW154674   1.313   0.923   6.746  1.7721 -0.8952  0.4578
14485SOL    HW254675   1.269   0.968   6.595  0.3166  2.2262  1.7590
14486SOL     OW54676   9.322   0.368   1.765  0.1972 -0.0028 -0.3223
14486SOL    HW154677   9.413   0.338   1.738  1.3007  0.3076  2.7723
14486SOL    HW254678   9.309   0.464   1.739  0.6335 -0.1485 -1.0732
14487SOL     OW54679   6.353   8.976   3.460 -0.5154 -0.2325 -0.5403
14487SOL    HW154680   6.315   8.985   3.552 -1.8739  0.7500 -1.1725
14487SOL    HW254681   6.290   8.921   3.403  1.2571 -2.5010 -0.3682
14488SOL     OW54682   7.827   0.523   4.545 -0.2594 -0.4213  0.0455
14488SOL    HW154683   7.768   0.508   4.624  0.3931  2.2791  1.1301
14488SOL    HW254684   7.772   0.521   4.461 -1.0373 -2.8386  0.5708
14489SOL     OW54685   6.712   4.294   6.508 -0.2962 -0.3598  0.0740
14489SOL    HW154686   6.807   4.313   6.530  0.1777 -2.7430  0.2165
14489SOL    HW254687   6.652   4.346   6.569  0.9083  0.7762  0.3028
14490SOL     OW54688   9.002   7.279   2.505 -0.1010 -0.6558  0.4842
14490SOL    HW154689   8.917   7.323   2.533 -0.1311 -0.7635  0.5652
14490SOL    HW254690   8.988   7.180   2.501 -0.1650 -0.6276 -0.1412
14491SOL     OW54691   0.667   3.107   5.533  0.1248  0.2171 -0.2625
14491SOL    HW154692   0.629   3.092   5.442  0.3421  0.4322 -0.3911
14491SOL    HW254693   0.621   3.048   5.599  0.6813 -0.7020 -0.6838
14492SOL     OW54694   8.081   4.247   6.148 -0.4887  0.2873 -0.9510
14492SOL    HW154695   8.072   4.338   6.189  1.0042  0.8592 -1.8335
14492SOL    HW254696   8.021   4.239   6.069 -1.6957 -0.0116 -0.0060
14493SOL     OW54697   3.115   2.781   3.175 -0.6387 -0.2795  0.2568
14493SOL    HW154698   3.043   2.848   3.154  0.7591  0.9624 -0.6983
14493SOL    HW254699   3.134   2.727   3.093  2.2791  2.1082 -0.7406
14494SOL     OW54700   3.673   7.997   4.496  0.0711  0.1824 -0.0608
14494SOL    HW154701   3.628   7.918   4.537 -1.2141  0.8465 -0.1501
14494SOL    HW254702   3.639   8.081   4.538 -0.0968  0.7960 -1.3729
14495SOL     OW54703   8.527   6.190   0.984 -0.2025  0.1247 -0.1483
14495SOL    HW154704   8.579   6.106   0.969  1.2824  0.6018  2.1294
14495SOL    HW254705   8.446   6.170   1.038 -1.0683 -0.2021 -1.5524
14496SOL     OW54706   9.465   1.894   0.452  0.1910  0.8407 -0.9325
14496SOL    HW154707   9.427   1.946   0.528 -1.2504  0.3087 -1.2690
14496SOL    HW254708   9.565   1.893   0.459  0.0390 -0.4139  1.7803
14497SOL     OW54709   7.549   9.459   2.237 -0.2973  0.3424  0.2006
14497SOL    HW154710   7.585   9.368   2.213  1.7753  1.0802  0.3778
14497SOL    HW254711   7.547   9.468   2.337  1.3611  1.1810  0.1738
14498SOL     OW54712   2.861   5.535   3.032  0.0731 -0.2910  0.3816
14498SOL    HW154713   2.899   5.461   2.975 -1.2886 -1.0062  0.3758
14498SOL    HW254714   2.912   5.619   3.017 -0.7366 -0.2747 -2.4865
14499SOL     OW54715   3.124   5.326   6.562  0.1880 -0.1764  0.0994
14499SOL    HW154716   3.081   5.401   6.612  1.2620 -0.0456  0.8597
14499SOL    HW254717   3.193   5.283   6.621  1.3027 -0.1813 -1.1961
14500SOL     OW54718   0.728   8.875   3.586 -1.0540  0.4192 -0.0451
14500SOL    HW154719   0.631   8.863   3.609 -1.2887  0.4660 -0.9587
14500SOL    HW254720   0.764   8.955   3.633 -1.2043 -0.1445  1.0395
14501SOL     OW54721   4.142   7.625   1.269  0.7906  0.3962  0.4455
14501SOL    HW154722   4.170   7.649   1.362 -1.2992  2.2801  0.6389
14501SOL    HW254723   4.163   7.700   1.207 -1.6574  0.9415  0.2071
14502SOL     OW54724   8.783   3.530   5.706  0.7193  0.3799 -0.1594
14502SOL    HW154725   8.834   3.483   5.634  0.5790  0.5736 -0.3856
14502SOL    HW254726   8.847   3.577   5.767  0.7960  0.9774 -0.6896
14503SOL     OW54727   3.132   2.487   0.056 -0.0990 -0.5504 -0.3102
14503SOL    HW154728   3.092   2.402   0.021  0.1784 -0.3476 -1.1316
14503SOL    HW254729   3.141   2.481   0.155  1.0823 -1.9729 -0.4912
14504SOL     OW54730   8.085   5.591   4.064 -0.2640 -0.2882 -0.4940
14504SOL    HW154731   8.167   5.645   4.083  0.4358 -1.2052 -0.8772
14504SOL    HW254732   8.049   5.556   4.150  0.1909 -0.5185 -0.3935
14505SOL     OW54733   7.126   3.420   0.301  0.9297  0.0968  0.2829
14505SOL    HW154734   7.050   3.357   0.319  2.1542 -1.2631  0.8342
14505SOL    HW254735   7.139   3.429   0.202 -0.2587  0.7328  0.1790
14506SOL     OW54736   2.050   5.926   4.432 -0.1064  0.4623  0.3010
14506SOL    HW154737   2.148   5.923   4.414  0.0047 -0.6947  1.0626
14506SOL    HW254738   2.011   6.009   4.392  1.1012  0.7023 -0.3861
14507SOL     OW54739   9.979   7.635   3.006 -0.4997 -0.3680 -0.2284
14507SOL    HW154740   9.997   7.541   2.978  1.0667 -0.1999  0.1728
14507SOL    HW254741   9.881   7.647   3.022 -0.7171 -1.9084 -0.3567
14508SOL     OW54742   4.271   9.237   0.290  0.1109  0.2376  0.1800
14508SOL    HW154743   4.276   9.273   0.197  1.3632 -0.2699  0.0311
14508SOL    HW254744   4.348   9.175   0.305  0.3362  0.8922  1.7957
14509SOL     OW54745   8.433   1.843   6.604 -0.1571  0.0352 -0.2757
14509SOL    HW154746   8.430   1.743   6.605 -2.4121  0.0633 -1.3064
14509SOL    HW254747   8.459   1.874   6.513 -1.5039  0.4069 -0.5390
14510SOL     OW54748   1.413   1.659   5.717  0.4129  0.6354 -0.0328
14510SOL    HW154749   1.342   1.632   5.783 -0.2628  3.2254  0.3662
14510SOL    HW254750   1.371   1.710   5.642  1.6551  0.7624 -0.6543
14511SOL     OW54751   2.405   0.090   5.411  0.2720 -0.6713  0.4076
14511SOL    HW154752   2.369   0.132   5.328 -0.8163  2.6006  2.3986
14511SOL    HW254753   2.502   0.070   5.399  0.6051  1.6056 -1.0199
14512SOL     OW54754   4.354   7.303   2.982  0.3538  0.2645 -0.2473
14512SOL    HW154755   4.297   7.377   3.018  0.6276 -0.4066  1.6301
14512SOL    HW254756   4.328   7.217   3.027  1.1489 -0.4894 -1.2203
14513SOL     OW54757   2.626   9.008   5.169 -0.2222 -0.1619 -0.2834
14513SOL    HW154758   2.698   8.944   5.139 -0.2365 -0.7418  0.8894
14513SOL    HW254759   2.604   9.070   5.094  0.1098 -1.2507 -1.3143
14514SOL     OW54760   8.532   0.046   6.694 -0.2088  0.1451  0.1517
14514SOL    HW154761   8.495  -0.047   6.701 -0.1660  0.0798 -0.4494
14514SOL    HW254762   8.545   0.069   6.598  1.6988  0.0250  0.3573
14515SOL     OW54763   3.092   3.160   5.289 -0.7459 -0.0153  0.0735
14515SOL    HW154764   3.059   3.079   5.242 -0.2685 -0.0640 -0.1908
14515SOL    HW254765   3.183   3.142   5.327 -0.4568  0.5208 -0.3471
14516SOL     OW54766   0.572   4.714   2.791 -0.4575 -0.6066 -0.4561
14516SOL    HW154767   0.490   4.745   2.838 -0.0278  0.4905 -0.4043
14516SOL    HW254768   0.547   4.653   2.716 -1.3368 -0.0285 -0.6367
14517SOL     OW54769   4.125   8.844   5.738 -0.0974  0.3071 -0.2287
14517SOL    HW154770   4.096   8.753   5.708  0.3007  0.5526 -1.3715
14517SOL    HW254771   4.175   8.836   5.825 -0.6322 -0.4854  0.0090
14518SOL     OW54772   1.992   1.906   4.532  0.0137  0.1918  0.2391
14518SOL    HW154773   2.071   1.936   4.479 -0.1206 -0.6818 -0.4595
14518SOL    HW254774   1.936   1.986   4.556 -0.1188  0.5674 -1.2463
14519SOL     OW54775   2.085   3.022   3.091  0.5348 -0.6056  0.1781
14519SOL    HW154776   2.023   3.070   3.153  0.6664 -0.6196  0.3216
14519SOL    HW254777   2.035   2.952   3.041  0.5133 -0.8683  0.5652
14520SOL     OW54778   4.464   7.340   2.090  0.0261 -0.2973 -0.2387
14520SOL    HW154779   4.487   7.362   1.995 -1.5140  1.0325 -0.3390
14520SOL    HW254780   4.545   7.347   2.147  0.3239  2.2217 -0.9050
14521SOL     OW54781   3.949   5.889   1.730  0.3915  0.6414 -0.3486
14521SOL    HW154782   4.026   5.872   1.667  0.0178  1.7598 -1.1215
14521SOL    HW254783   3.980   5.875   1.824  1.3880  0.5190 -0.6799
14522SOL     OW54784   1.250   8.456   4.583  0.1868  0.5118  0.8522
14522SOL    HW154785   1.265   8.427   4.677  0.7175 -0.5305  0.4521
14522SOL    HW254786   1.160   8.426   4.552  0.2327  0.3809  0.8467
14523SOL     OW54787   7.108   9.393   4.062 -0.2044  0.7695 -0.5768
14523SOL    HW154788   7.205   9.415   4.071 -0.1505  0.1050  0.5754
14523SOL    HW254789   7.087   9.373   3.966  1.3844 -1.7122 -0.4469
14524SOL     OW54790   0.830   9.071   4.647 -0.1315 -0.3199 -0.3335
14524SOL    HW154791   0.758   9.047   4.583 -0.8815 -0.9562  0.7281
14524SOL    HW254792   0.883   9.148   4.612 -2.4646  1.3326 -0.2922
14525SOL     OW54793   6.583   1.622   5.618 -0.1425 -0.2302 -0.0421
14525SOL    HW154794   6.682   1.612   5.633 -0.1935 -1.4599 -0.4666
14525SOL    HW254795   6.536   1.544   5.659 -0.7596 -0.7658 -1.7408
14526SOL     OW54796   6.753   2.695   2.944  0.1044 -0.3989  0.2571
14526SOL    HW154797   6.687   2.766   2.921 -1.8974 -2.3584 -0.3050
14526SOL    HW254798   6.808   2.674   2.863  0.8292  0.6356  0.4791
14527SOL     OW54799   9.896   8.908   6.219 -0.0699  0.1023 -0.1299
14527SOL    HW154800   9.954   8.833   6.251  0.8405  0.3402 -1.1947
14527SOL    HW254801   9.804   8.898   6.257  0.4857 -0.6492  1.0335
14528SOL     OW54802   4.458   2.051   2.876 -0.4357 -0.5305 -0.4916
14528SOL    HW154803   4.519   2.027   2.951  2.0731 -0.8559 -2.5763
14528SOL    HW254804   4.365   2.019   2.897  0.0921 -0.1764  2.6487
14529SOL     OW54805   3.436   2.484   4.264 -0.7918 -0.6014 -0.4578
14529SOL    HW154806   3.525   2.444   4.288 -0.7110 -0.8889 -1.2397
14529SOL    HW254807   3.422   2.479   4.165 -0.8894  1.1047 -0.5404
14530SOL     OW54808   0.674   9.736   0.781 -0.2431  0.0780 -0.3717
14530SOL    HW154809   0.579   9.760   0.761 -0.0087  1.4338  0.0519
14530SOL    HW254810   0.689   9.741   0.879 -0.2383 -2.1110 -0.2500
14531SOL     OW54811   0.607   8.748   0.339 -0.4385  0.0100 -0.0787
14531SOL    HW154812   0.652   8.826   0.382 -0.2645 -1.2539  2.1236
14531SOL    HW254813   0.525   8.779   0.291  0.2352  1.6824 -0.1844
14532SOL     OW54814   8.789   7.458   0.517  0.1713 -0.3106  0.0933
14532SOL    HW154815   8.881   7.452   0.556  0.4916 -0.7993 -0.7448
14532SOL    HW254816   8.768   7.554   0.496  0.1309 -0.0841  1.1403
14533SOL     OW54817   4.218   5.600   2.649  0.0069  0.0596  0.5049
14533SOL    HW154818   4.231   5.682   2.593  0.4512  0.0628  0.6130
14533SOL    HW254819   4.235   5.622   2.745  0.4881 -0.2432  0.4932
14534SOL     OW54820   2.600   0.127   2.690 -0.2831 -0.1403  0.0440
14534SOL    HW154821   2.696   0.152   2.703 -0.3226 -0.6765  1.4621
14534SOL    HW254822   2.542   0.200   2.725 -0.3992  0.2475 -0.9463
14535SOL     OW54823   0.118   1.572   1.829 -0.1873 -0.1867  0.7948
14535SOL    HW154824   0.147   1.486   1.789  1.6476  1.4100 -1.4746
14535SOL    HW254825   0.021   1.587   1.810  0.3283 -0.1100 -1.9689
14536SOL     OW54826   4.271   9.447   4.464 -0.4308 -0.3158 -0.2895
14536SOL    HW154827   4.313   9.402   4.542 -0.4381 -0.3459 -0.3034
14536SOL    HW254828   4.218   9.381   4.411 -0.7312 -0.2165 -0.1118
14537SOL     OW54829   9.850   5.586   0.698  0.1169 -0.0818  0.8124
14537SOL    HW154830   9.789   5.513   0.729 -0.7389  1.0637  1.8698
14537SOL    HW254831   9.796   5.665   0.669  0.9341 -0.5916 -2.3495
14538SOL     OW54832   9.341   7.600   0.934  0.1208  0.2753 -0.6097
14538SOL    HW154833   9.263   7.614   0.872  1.6505 -0.2971 -2.7167
14538SOL    HW254834   9.349   7.502   0.954 -0.9342  0.5475  1.3121
14539SOL     OW54835   1.602   5.348   6.555 -0.1637 -0.1911  0.4467
14539SOL    HW154836   1.600   5.257   6.514 -0.1038 -0.4832  1.0757
14539SOL    HW254837   1.619   5.417   6.485  1.0638 -0.7805  0.1489
14540SOL     OW54838   2.578   9.223   2.002 -0.3505 -0.0410 -0.0952
14540SOL    HW154839   2.570   9.320   1.980 -1.8117 -0.1604 -0.1697
14540SOL    HW254840   2.608   9.212   2.096  2.1726  0.4800 -0.8119
14541SOL     OW54841   0.274   8.586   3.321 -0.1827 -0.1230  0.6923
14541SOL    HW154842   0.356   8.542   3.284 -1.1440 -1.2639 -0.1130
14541SOL    HW254843   0.281   8.685   3.307 -0.3268 -0.4695 -2.2477
14542SOL     OW54844   9.622   6.975   5.334 -0.8507  0.1935  0.1056
14542SOL    HW154845   9.648   6.879   5.342 -2.3619 -0.2033  0.3604
14542SOL    HW254846   9.629   7.005   5.239 -1.9229 -0.6196 -0.2323
14543SOL     OW54847   1.437   6.188   0.799  0.2299 -0.2715  0.0931
14543SOL    HW154848   1.342   6.185   0.768  0.3884 -0.0996 -0.4184
14543SOL    HW254849   1.442   6.159   0.895 -0.5219  1.0993  0.5627
14544SOL     OW54850   3.354   5.542   1.608  0.0593  0.2694  0.0833
14544SOL    HW154851   3.422   5.475   1.639  0.8054  0.6953 -0.6027
14544SOL    HW254852   3.328   5.601   1.685  0.1561 -0.1668  0.4510
14545SOL     OW54853   9.895   6.375   1.607 -0.0688  0.6903 -0.2020
14545SOL    HW154854   9.840   6.291   1.609  0.9161  0.0552  0.5596
14545SOL    HW254855   9.966   6.366   1.537  2.1996 -0.5280  2.1549
14546SOL     OW54856   1.197   7.650   6.003  0.0227 -0.2120 -0.5903
14546SOL    HW154857   1.102   7.677   5.993  0.1736  0.4301 -0.3141
14546SOL    HW254858   1.202   7.556   6.040 -0.5040  0.3243  0.8963
14547SOL     OW54859   1.360   9.673   6.177 -0.0340 -0.0921  0.4240
14547SOL    HW154860   1.296   9.598   6.162 -0.1256  0.1972 -0.7149
14547SOL    HW254861   1.376   9.721   6.090  1.1394  0.3036  0.8418
14548SOL     OW54862   5.892   7.243   2.570  0.2571 -0.1854  0.0159
14548SOL    HW154863   5.848   7.297   2.643 -1.5698 -0.5026 -0.8220
14548SOL    HW254864   5.990   7.236   2.589  0.0581  1.0028  1.6548
14549SOL     OW54865   9.467   4.389   6.746 -0.1678 -0.1312 -0.0905
14549SOL    HW154866   9.524   4.444   6.807 -0.5792  0.0370  0.1447
14549SOL    HW254867   9.496   4.403   6.651  0.6353 -0.5842  0.0806
14550SOL     OW54868   6.188   9.065   2.656 -0.1314 -0.0121  0.2546
14550SOL    HW154869   6.182   8.990   2.722 -2.8463  0.1134  0.2280
14550SOL    HW254870   6.280   9.069   2.617  0.4796 -2.3410  1.3958
14551SOL     OW54871   2.377   3.595   4.505 -0.1899  0.0038  0.4760
14551SOL    HW154872   2.367   3.619   4.409  0.5620 -3.0596 -0.4233
14551SOL    HW254873   2.293   3.616   4.554 -1.3941 -0.5326 -1.3198
14552SOL     OW54874   6.525   1.500   1.813  0.2390 -0.4538  0.0346
14552SOL    HW154875   6.567   1.589   1.800 -0.7077 -0.2186 -1.5090
14552SOL    HW254876   6.495   1.491   1.909  1.9063  0.1749  0.6291
14553SOL     OW54877   3.522   5.100   0.367 -0.0153 -0.1774 -0.5677
14553SOL    HW154878   3.461   5.120   0.444  3.7825  2.3295  1.9035
14553SOL    HW254879   3.569   5.013   0.384  0.2480 -0.0100 -0.4447
14554SOL     OW54880   7.095   0.771   5.493 -0.7630  0.5265 -1.1291
14554SOL    HW154881   7.127   0.848   5.438 -2.4817  3.6764  2.1118
14554SOL    HW254882   7.156   0.756   5.571 -1.0741 -0.7001 -1.0991
14555SOL     OW54883   3.134   7.265   3.579 -0.2927  0.0791  0.4372
14555SOL    HW154884   3.079   7.314   3.648 -0.1857  1.3770 -0.3761
14555SOL    HW254885   3.096   7.174   3.565 -0.3282 -0.1983  2.1997
14556SOL     OW54886   4.622   8.768   3.271 -0.7216  0.5064 -0.2613
14556SOL    HW154887   4.663   8.798   3.185  2.8004 -1.4183  0.6690
14556SOL    HW254888   4.670   8.810   3.348 -0.9003 -1.2787  0.8582
14557SOL     OW54889   4.527   3.238   4.627  0.0133  0.2215 -0.5291
14557SOL    HW154890   4.511   3.139   4.635  0.8164  0.2688  2.4720
14557SOL    HW254891   4.530   3.264   4.531 -1.6268 -2.4372 -1.3454
14558SOL     OW54892   1.626   1.222   6.429  0.0372 -0.0700 -0.1568
14558SOL    HW154893   1.580   1.296   6.479  1.6231  1.0834 -0.3768
14558SOL    HW254894   1.725   1.231   6.440  0.2237 -3.4398  1.6209
14559SOL     OW54895   2.474   2.502   5.888 -0.0108 -0.2821 -0.1906
14559SOL    HW154896   2.495   2.598   5.908 -1.2119 -0.0365 -0.0299
14559SOL    HW254897   2.558   2.448   5.891  0.8322  0.9416 -1.2998
14560SOL     OW54898   9.397   6.340   1.900 -0.0722  0.7495  0.3772
14560SOL    HW154899   9.431   6.277   1.970 -0.3344 -0.6722 -0.7502
14560SOL    HW254900   9.297   6.341   1.903 -0.0459  1.6645  0.8683
14561SOL     OW54901   2.231   5.549   6.649  0.5460  0.2271 -0.3768
14561SOL    HW154902   2.244   5.574   6.745  0.3445 -0.4895 -0.1626
14561SOL    HW254903   2.283   5.612   6.591 -0.1901  1.3396  0.1428
14562SOL     OW54904   2.971   3.646   2.707  0.2283 -0.3712 -0.2726
14562SOL    HW154905   2.995   3.623   2.802  1.3057 -0.1533 -0.4861
14562SOL    HW254906   2.929   3.737   2.706 -0.4163 -0.6584  0.0764
14563SOL     OW54907   1.235   3.203   5.744  0.3866 -0.4591 -0.1888
14563SOL    HW154908   1.221   3.259   5.662  0.1200  0.7559  0.6750
14563SOL    HW254909   1.213   3.257   5.826 -0.0283 -1.8771  0.6518
14564SOL     OW54910   1.196   3.982   0.811  0.4960  0.1587 -0.0217
14564SOL    HW154911   1.218   3.972   0.714  0.3047  0.2244 -0.0711
14564SOL    HW254912   1.111   3.933   0.831 -1.0612  2.5911 -0.4975
14565SOL     OW54913   3.098   0.125   2.315  0.2732  0.7999 -0.1178
14565SOL    HW154914   3.041   0.204   2.340 -0.6405  0.1914 -0.2675
14565SOL    HW254915   3.041   0.055   2.271  0.9527 -0.2349  0.6340
14566SOL     OW54916   0.751   7.314   3.113  1.0195  0.0601  0.4489
14566SOL    HW154917   0.847   7.340   3.106  1.0468 -0.7839 -3.2927
14566SOL    HW254918   0.699   7.359   3.041 -0.9201 -1.5646  0.8022
14567SOL     OW54919   0.721   2.355   3.394  0.1679  0.5507  0.2002
14567SOL    HW154920   0.790   2.359   3.322 -1.4316  0.7879 -1.3845
14567SOL    HW254921   0.737   2.276   3.452  1.2129  0.0746 -0.7260
14568SOL     OW54922   1.308   6.835   6.636  0.0121 -0.3311  0.2317
14568SOL    HW154923   1.294   6.921   6.586 -1.0011  0.1400  1.3094
14568SOL    HW254924   1.295   6.758   6.574 -1.1777  0.2512 -0.2632
14569SOL     OW54925   0.374   4.972   4.951 -0.2922  0.2142 -0.0243
14569SOL    HW154926   0.301   4.956   4.884  0.4179  0.5334 -0.8827
14569SOL    HW254927   0.386   4.890   5.007 -2.6350  0.8125  1.4497
14570SOL     OW54928   2.401   9.815   2.459  0.3887  0.1985 -0.3364
14570SOL    HW154929   2.342   9.888   2.423  0.8058  1.0043  0.5839
14570SOL    HW254930   2.456   9.776   2.385 -0.1989  0.4786 -0.9235
14571SOL     OW54931   1.781   1.267   1.164  0.4262  0.3881  0.0985
14571SOL    HW154932   1.829   1.303   1.083  1.0622  0.0892  0.3456
14571SOL    HW254933   1.704   1.211   1.134  0.0894  1.0516 -0.2989
14572SOL     OW54934   4.762   3.839   6.624 -0.6175 -0.2019 -0.2331
14572SOL    HW154935   4.853   3.859   6.658 -0.8449 -0.2544  0.4123
14572SOL    HW254936   4.768   3.796   6.534 -0.0315  0.3356 -0.4489
14573SOL     OW54937   7.281   3.544   6.218  0.0870 -0.1227 -0.3535
14573SOL    HW154938   7.220   3.607   6.266  0.7221 -0.6513  1.2021
14573SOL    HW254939   7.344   3.595   6.160 -0.8108  0.5260 -0.7663
14574SOL     OW54940   0.530   2.496   6.662 -0.2309  0.0454  0.3531
14574SOL    HW154941   0.457   2.547   6.616 -0.1402 -1.3473 -1.4036
14574SOL    HW254942   0.599   2.560   6.697 -0.3028  1.1689 -1.4880
14575SOL     OW54943   4.411   6.207   2.854 -0.0117  0.1935 -0.6734
14575SOL    HW154944   4.375   6.248   2.771 -0.4370  0.3241 -0.4297
14575SOL    HW254945   4.488   6.260   2.888  0.8682 -0.4855 -1.5882
14576SOL     OW54946   5.199   5.162   1.892  0.5388  0.2450 -0.2661
14576SOL    HW154947   5.288   5.129   1.863  0.9278  0.0700  1.1074
14576SOL    HW254948   5.135   5.085   1.897  1.2006 -0.2014  2.0173
14577SOL     OW54949   2.878   6.443   5.351  0.3163  0.2238 -0.0356
14577SOL    HW154950   2.836   6.421   5.439 -0.1188 -0.6442 -0.4555
14577SOL    HW254951   2.877   6.362   5.292  3.1805 -0.0166  0.1680
14578SOL     OW54952   9.427   3.803   3.294 -0.1746  0.0478  0.0661
14578SOL    HW154953   9.520   3.766   3.302  0.2477  1.2724  1.0123
14578SOL    HW254954   9.381   3.796   3.382 -0.3924  0.9686  0.0295
14579SOL     OW54955   8.186   9.463   2.419 -0.1474  0.3534  0.7081
14579SOL    HW154956   8.250   9.513   2.361 -2.7816  1.0103 -1.7577
14579SOL    HW254957   8.171   9.372   2.381 -1.8159  0.7586  0.3260
14580SOL     OW54958   4.105   9.724   1.087 -0.3376 -0.2451 -0.2790
14580SOL    HW154959   4.076   9.776   1.007 -1.2855  0.7867  0.7211
14580SOL    HW254960   4.161   9.647   1.058  0.8195  1.1409 -1.8165
14581SOL     OW54961   1.850   4.692   1.976 -0.0714 -0.0150 -0.0047
14581SOL    HW154962   1.868   4.688   1.878  0.3297 -1.2434  0.1035
14581SOL    HW254963   1.924   4.742   2.022 -0.0249  0.1634 -0.2744
14582SOL     OW54964   9.785   5.375   3.022  0.3552 -0.8997 -0.6880
14582SOL    HW154965   9.860   5.311   3.009 -0.2450 -1.5873 -0.7678
14582SOL    HW254966   9.817   5.468   3.003  1.6170 -0.9992  0.8428
14583SOL     OW54967   2.116   2.892   0.478  0.8912  0.2952  0.4162
14583SOL    HW154968   2.054   2.920   0.405  1.0879 -0.0518  0.1135
14583SOL    HW254969   2.075   2.914   0.567  0.5156  0.4362  0.2097
14584SOL     OW54970   1.784   9.221   3.030  0.0078  0.6500 -0.2273
14584SOL    HW154971   1.761   9.132   2.992 -2.6533  1.0027  0.4017
14584SOL    HW254972   1.775   9.219   3.129  0.8020  1.3693 -0.1337
14585SOL     OW54973   9.586   9.494   5.942  0.1170  0.2063 -0.2033
14585SOL    HW154974   9.489   9.476   5.954  0.2694 -0.6000 -0.1720
14585SOL    HW254975   9.628   9.420   5.890  0.9235  0.0283  0.6888
14586SOL     OW54976   9.179   8.830   3.663  0.2378  0.5163 -0.0777
14586SOL    HW154977   9.146   8.742   3.699  0.8681  0.8689  1.3879
14586SOL    HW254978   9.121   8.904   3.696  0.1594  0.7404 -0.7016
14587SOL     OW54979   7.779   8.035   3.809 -0.5181 -0.1419 -0.0248
14587SOL    HW154980   7.804   7.999   3.899  1.4905  1.3055  0.0330
14587SOL    HW254981   7.720   8.115   3.820  1.0790  1.0449  0.0855
14588SOL     OW54982   2.569   7.384   3.547 -0.3345 -0.4478  0.3790
14588SOL    HW154983   2.629   7.446   3.596 -2.5038  0.2537  2.2453
14588SOL    HW254984   2.619   7.300   3.524  1.1250 -0.2396  2.6302
14589SOL     OW54985   9.258   1.729   5.494  0.1973  0.1817 -0.0124
14589SOL    HW154986   9.208   1.679   5.423 -2.5580  1.2611  1.1147
14589SOL    HW254987   9.260   1.826   5.471 -1.5450  0.6704  1.8226
14590SOL     OW54988   0.190   7.562   6.329 -0.5530 -0.6169  0.0780
14590SOL    HW154989   0.125   7.624   6.374  0.9141  1.3638 -0.4312
14590SOL    HW254990   0.256   7.529   6.397  0.5725  0.9356 -0.2314
14591SOL     OW54991   8.533   1.894   2.988  0.7913 -0.6885 -0.6546
14591SOL    HW154992   8.530   1.800   2.955  3.0263 -0.7072 -0.8605
14591SOL    HW254993   8.469   1.904   3.065  1.0107 -2.5381 -0.2043
14592SOL     OW54994   1.817   7.885   0.832  0.4164 -0.1088 -0.0145
14592SOL    HW154995   1.792   7.964   0.777  0.3207 -0.4977 -0.5361
14592SOL    HW254996   1.736   7.846   0.873  0.2761 -0.7714 -0.8957
14593SOL     OW54997   6.419   8.186   3.315 -0.0918 -0.1707  0.1706
14593SOL    HW154998   6.469   8.267   3.284 -2.5822  0.7500 -1.5305
14593SOL    HW254999   6.462   8.104   3.277  2.6305  0.2331  2.1468
14594SOL     OW55000   8.353   3.831   6.647  0.1746  0.8586 -0.3795
14594SOL    HW155001   8.311   3.912   6.606 -1.2924 -1.0101 -2.7520
14594SOL    HW255002   8.330   3.750   6.591  4.7950 -0.6480 -0.2656
14595SOL     OW55003   3.268   8.607   1.565 -0.0694 -0.0177  0.1849
14595SOL    HW155004   3.215   8.658   1.632 -1.8416 -0.7112 -0.6621
14595SOL    HW255005   3.282   8.513   1.597 -0.4244 -0.1852 -0.1390
14596SOL     OW55006   9.570   3.202   2.091 -0.4476 -0.3100  0.4120
14596SOL    HW155007   9.652   3.246   2.126  0.0343 -0.0241 -1.0123
14596SOL    HW255008   9.578   3.191   1.992 -2.2367 -0.0448  0.2096
14597SOL     OW55009   9.739   0.617   4.897  0.2986  0.1369  0.8628
14597SOL    HW155010   9.724   0.593   4.993 -0.7109 -0.2772  0.6152
14597SOL    HW255011   9.822   0.572   4.864  0.2585 -0.2976  1.3437
14598SOL     OW55012   3.401   8.032   1.462 -0.1619 -0.3376 -0.4591
14598SOL    HW155013   3.394   7.980   1.547 -0.2743  0.5487  0.0664
14598SOL    HW255014   3.493   8.021   1.424  0.2332  0.1757  0.3514
14599SOL     OW55015   4.923   2.162   2.083 -0.4611  0.1975  0.2525
14599SOL    HW155016   5.019   2.135   2.091 -0.7290 -0.6997  0.4632
14599SOL    HW255017   4.882   2.166   2.174 -1.1612 -1.4303  0.0298
14600SOL     OW55018   0.827   3.408   4.953 -0.1914  0.1104 -0.4913
14600SOL    HW155019   0.836   3.398   4.854 -0.6361  1.5607 -0.6806
14600SOL    HW255020   0.887   3.482   4.985  2.2279 -2.2972  0.7410
14601SOL     OW55021   6.975   3.555   6.643  0.2275 -0.0328  0.0516
14601SOL    HW155022   6.992   3.484   6.711 -1.8013 -0.4484  0.1634
14601SOL    HW255023   7.060   3.577   6.595  2.0227  1.1861  3.5715
14602SOL     OW55024   7.899   0.742   5.892 -0.4568 -0.3815  0.4662
14602SOL    HW155025   7.989   0.719   5.856 -0.3895 -1.0248  1.0218
14602SOL    HW255026   7.899   0.730   5.992 -2.0173 -3.4848  0.1765
14603SOL     OW55027   2.611   5.725   3.184 -0.6444  0.1552 -0.2478
14603SOL    HW155028   2.679   5.704   3.112 -0.4451 -1.1723  0.3123
14603SOL    HW255029   2.591   5.823   3.183 -1.0712  0.0836 -2.5024
14604SOL     OW55030   0.673   6.307   4.003 -0.0296  0.1137 -0.0009
14604SOL    HW155031   0.766   6.280   4.026  0.3375  0.4218 -1.0706
14604SOL    HW255032   0.625   6.229   3.963  0.3772  0.4391 -1.1744
14605SOL     OW55033   7.662   9.570   1.890  0.5434  0.5149  0.0749
14605SOL    HW155034   7.568   9.604   1.883  0.2302 -0.6322 -1.5431
14605SOL    HW255035   7.666   9.476   1.856  1.5571 -0.8125  3.6768
14606SOL     OW55036   8.682   5.852   6.501  0.1093  0.2070  0.4049
14606SOL    HW155037   8.734   5.831   6.584 -0.9428 -0.8339  0.8167
14606SOL    HW255038   8.585   5.863   6.524  0.0474  1.5558 -0.4436
14607SOL     OW55039   2.659   6.781   1.401  0.4078  0.8475 -0.3863
14607SOL    HW155040   2.697   6.814   1.315 -0.0560 -0.5635 -1.1409
14607SOL    HW255041   2.706   6.697   1.429  0.6388  1.3595  0.8056
14608SOL     OW55042   5.972   8.342   2.683  0.3979 -0.2239  0.3317
14608SOL    HW155043   5.906   8.281   2.726  0.9926 -2.2243 -1.4816
14608SOL    HW255044   5.933   8.380   2.599  0.5148  0.8409  0.7615
14609SOL     OW55045   8.760   1.637   1.720  0.0729 -0.0850  0.1466
14609SOL    HW155046   8.686   1.637   1.653  0.0251 -2.2695  0.1659
14609SOL    HW255047   8.839   1.685   1.681 -0.7869  0.8649 -0.4792
14610SOL     OW55048   1.583   7.208   4.197  0.0348  0.0557  0.0161
14610SOL    HW155049   1.660   7.164   4.243 -0.4062 -0.1361  0.5809
14610SOL    HW255050   1.611   7.238   4.106  1.0860  0.9610  0.6270
14611SOL     OW55051   2.632   8.357   0.960  1.0662 -0.1457 -0.0468
14611SOL    HW155052   2.648   8.455   0.954  0.9848  0.0117  1.7735
14611SOL    HW255053   2.537   8.340   0.988  0.6100 -0.7960 -1.9616
14612SOL     OW55054   0.608   6.960   1.465 -0.1824  0.3190 -0.1665
14612SOL    HW155055   0.634   7.031   1.399  1.5851  1.0288  1.2604
14612SOL    HW255056   0.674   6.958   1.540 -0.2436 -2.7521 -0.1091
14613SOL     OW55057   3.862   9.829   2.796  0.4656  0.1433 -0.5254
14613SOL    HW155058   3.834   9.768   2.721  1.1984  1.5078 -1.9553
14613SOL    HW255059   3.794   9.826   2.869 -1.1751  0.0720 -2.0173
14614SOL     OW55060   0.170   1.543   4.059 -0.1310 -0.0139  0.0392
14614SOL    HW155061   0.172   1.462   4.118 -2.2888 -0.1017  0.0347
14614SOL    HW255062   0.139   1.515   3.967  1.2228  0.4574 -0.5617
14615SOL     OW55063   1.883   0.389   3.799  0.5159 -0.2297  0.0291
14615SOL    HW155064   1.785   0.407   3.809  0.3354 -0.8714 -0.5486
14615SOL    HW255065   1.926   0.387   3.889 -0.0021  0.0327  0.2860
14616SOL     OW55066   4.810   3.335   3.628 -0.5153  0.6044  0.0825
14616SOL    HW155067   4.746   3.412   3.630 -0.1048  0.9409  0.4144
14616SOL    HW255068   4.843   3.321   3.535 -2.8376 -1.0482 -0.5322
14617SOL     OW55069   0.269   9.287   2.899  0.3473  0.6577 -0.0307
14617SOL    HW155070   0.242   9.339   2.818 -1.3701  0.3423  0.3181
14617SOL    HW255071   0.265   9.346   2.979 -0.0583  0.4197  0.1290
14618SOL     OW55072   9.088   4.341   3.355 -0.0307  0.4400  0.2569
14618SOL    HW155073   9.028   4.286   3.298  0.0226 -0.6121  1.1965
14618SOL    HW255074   9.037   4.377   3.433  0.2953  0.4521  0.4664
14619SOL     OW55075   1.091   9.023   3.413  0.2117 -0.6637  0.7526
14619SOL    HW155076   1.058   8.972   3.492  0.9212 -0.3066  1.2858
14619SOL    HW255077   1.159   8.969   3.364  0.4160 -0.5324  0.8904
14620SOL     OW55078   3.749   4.773   1.663 -0.3175 -0.1747 -0.1732
14620SOL    HW155079   3.781   4.865   1.639 -0.9515  0.2761  0.6520
14620SOL    HW255080   3.792   4.744   1.749  0.9976 -1.2599 -1.1816
14621SOL     OW55081   7.270   8.474   3.696 -0.6035 -0.8835 -0.1194
14621SOL    HW155082   7.277   8.394   3.636  0.7070 -1.0449  0.2342
14621SOL    HW255083   7.301   8.450   3.788 -1.5800 -0.3450  0.3618
14622SOL     OW55084   1.606   2.916   4.155  0.6511 -0.1497  0.6753
14622SOL    HW155085   1.645   2.960   4.236  0.8329  0.8072  0.0711
14622SOL    HW255086   1.638   2.822   4.150 -0.6271 -0.7401  2.6033
14623SOL     OW55087   7.196   7.634   4.035 -0.2773  0.3053 -0.8053
14623SOL    HW155088   7.195   7.540   4.002  0.8490  0.8335 -2.3642
14623SOL    HW255089   7.205   7.634   4.135 -0.8684 -1.2363 -0.7407
14624SOL     OW55090   3.423   6.330   3.714 -0.1050 -0.0236 -0.5008
14624SOL    HW155091   3.332   6.370   3.714 -0.1136 -0.0098  1.0143
14624SOL    HW255092   3.416   6.231   3.705 -0.2860 -0.0413 -0.1810
14625SOL     OW55093   1.526   3.051   5.333 -0.3340 -0.6869 -0.4276
14625SOL    HW155094   1.619   3.047   5.294 -0.2461 -0.6811 -0.2203
14625SOL    HW255095   1.490   2.959   5.342 -0.2007 -0.7148 -0.1600
14626SOL     OW55096   7.590   0.885   2.660  0.1331  0.3735 -0.6188
14626SOL    HW155097   7.646   0.807   2.633  0.1689  0.0140  0.4663
14626SOL    HW255098   7.517   0.854   2.720 -1.8247  0.6977 -2.7687
14627SOL     OW55099   7.156   1.999   4.806  0.2491  0.1780 -0.0316
14627SOL    HW155100   7.140   1.972   4.902 -0.1788  2.6392  0.6147
14627SOL    HW255101   7.251   2.025   4.795  0.7533 -1.8604 -0.7503
14628SOL     OW55102   1.760   4.042   0.764  0.7674  0.2247  0.0334
14628SOL    HW155103   1.846   4.075   0.802  0.3605  0.0025  1.1732
14628SOL    HW255104   1.708   3.995   0.836 -1.4541  2.5652  0.0107
14629SOL     OW55105   3.521   9.619   4.170 -0.0534  0.2054 -0.0205
14629SOL    HW155106   3.422   9.607   4.179  0.0661  0.4162  1.7478
14629SOL    HW255107   3.551   9.693   4.229  1.2263 -0.1176 -0.2519
14630SOL     OW55108   9.127   1.460   1.720  0.2052  0.1261 -0.0714
14630SOL    HW155109   9.184   1.377   1.720  0.4610  0.2716 -3.0223
14630SOL    HW255110   9.058   1.452   1.649 -0.4494  2.0256  0.3462
14631SOL     OW55111   9.845   0.123   6.360  0.5606  0.4138  0.4502
14631SOL    HW155112   9.930   0.168   6.330  1.1643 -1.1353 -0.2171
14631SOL    HW255113   9.862   0.073   6.444  0.0731  0.8315  0.7971
14632SOL     OW55114   2.482   1.799   2.481 -0.2919  0.8330 -0.1704
14632SOL    HW155115   2.463   1.796   2.383 -0.2846 -0.3183 -0.1505
14632SOL    HW255116   2.563   1.854   2.498 -0.0113  0.6332 -0.8592
14633SOL     OW55117   0.280   7.419   0.286  0.2328  0.4637 -0.3897
14633SOL    HW155118   0.326   7.387   0.368  1.7088  1.1871 -0.9187
14633SOL    HW255119   0.260   7.517   0.294 -0.6338  0.3003 -0.4406
14634SOL     OW55120   1.508   7.934   5.782 -0.0251  0.1881  0.5305
14634SOL    HW155121   1.469   7.852   5.824  0.4622  0.8954  2.4323
14634SOL    HW255122   1.582   7.908   5.720  0.1509 -0.8113  1.1472
14635SOL     OW55123   1.974   8.592   2.666  0.2923  0.0813  0.0501
14635SOL    HW155124   1.964   8.607   2.567 -0.1526  0.2098  0.1146
14635SOL    HW255125   2.021   8.505   2.682 -3.1219 -1.9020 -0.2230
14636SOL     OW55126   3.616   1.888   2.430 -0.3125  0.5092 -0.0343
14636SOL    HW155127   3.628   1.987   2.420  3.0880 -0.0043 -1.7393
14636SOL    HW255128   3.657   1.858   2.516  0.4976  0.3195 -0.4816
14637SOL     OW55129   7.661   4.088   0.912 -0.3838  0.5113 -0.4109
14637SOL    HW155130   7.633   4.069   0.817  0.4426  1.3087 -0.8109
14637SOL    HW255131   7.740   4.148   0.912 -1.2831  1.7191  0.8235
14638SOL     OW55132   2.413   7.606   5.804 -0.6345 -0.0413  0.0908
14638SOL    HW155133   2.430   7.639   5.711 -2.1638  0.2726 -0.0941
14638SOL    HW255134   2.346   7.665   5.849  0.1261 -0.1661  1.4162
14639SOL     OW55135   3.998   8.579   5.674 -0.0580 -0.5817 -0.2268
14639SOL    HW155136   4.042   8.527   5.601  0.6989 -1.5431  0.8840
14639SOL    HW255137   3.901   8.554   5.678  0.0990 -1.2291 -0.3060
14640SOL     OW55138   5.726   8.182   3.132 -0.0046 -0.2340  0.4125
14640SOL    HW155139   5.748   8.279   3.122 -0.3331 -0.3434 -1.4796
14640SOL    HW255140   5.641   8.171   3.183 -0.5594  0.5112 -0.3561
14641SOL     OW55141   9.352   9.984   3.850  0.3784 -0.2064 -0.4095
14641SOL    HW155142   9.322  10.067   3.802  0.7340 -0.8297 -1.7397
14641SOL    HW255143   9.443   9.999   3.888  1.3682 -0.6657 -2.4919
14642SOL     OW55144   8.972   8.044   0.166 -0.4999 -0.0742  0.4629
14642SOL    HW155145   8.974   8.136   0.205 -0.3262 -0.3998  1.2095
14642SOL    HW255146   9.026   7.982   0.222 -0.7975 -0.6852  0.0782
14643SOL     OW55147   2.962   1.086   1.426  0.0770 -0.2515 -0.3483
14643SOL    HW155148   2.982   1.079   1.524 -0.4891  2.0441 -0.0540
14643SOL    HW255149   2.864   1.102   1.413  0.2173 -0.1366 -1.2805
14644SOL     OW55150   4.182   8.297   3.600  0.2887  0.4556  0.1716
14644SOL    HW155151   4.087   8.318   3.576  0.3714 -0.8829 -1.4226
14644SOL    HW255152   4.244   8.354   3.546  0.4018  1.0901  0.9668
14645SOL     OW55153   1.256   3.209   2.897  0.3026  0.3568 -0.0203
14645SOL    HW155154   1.353   3.187   2.883  0.5200  2.1705 -1.4418
14645SOL    HW255155   1.200   3.156   2.833  0.3703 -0.3946  0.5330
14646SOL     OW55156   4.411   2.566   1.467 -0.2951  0.0643  0.8409
14646SOL    HW155157   4.506   2.595   1.456 -0.3653 -0.1116 -0.3162
14646SOL    HW255158   4.400   2.474   1.431 -0.9584  0.1837  0.7316
14647SOL     OW55159   9.533   6.022   0.658  0.4052  0.2465 -0.2670
14647SOL    HW155160   9.550   6.090   0.729  0.9690  0.8093 -0.9346
14647SOL    HW255161   9.600   5.948   0.666  0.9641  0.7045 -0.7019
14648SOL     OW55162   1.862   4.279   1.855 -0.1303 -0.1299 -0.6198
14648SOL    HW155163   1.823   4.188   1.841  1.8832 -1.2385  0.6539
14648SOL    HW255164   1.906   4.283   1.945  0.5209  1.8359 -0.9946
14649SOL     OW55165   7.300   1.292   1.282 -0.1228  0.4559 -0.2574
14649SOL    HW155166   7.252   1.209   1.311 -1.0863  0.7037 -1.1024
14649SOL    HW255167   7.275   1.314   1.188 -0.9900  2.5174  0.4243
14650SOL     OW55168   2.021   5.088   2.660  0.4728  0.4458 -0.3071
14650SOL    HW155169   2.034   5.183   2.633  1.3268 -0.0470 -1.6944
14650SOL    HW255170   2.108   5.040   2.657 -0.4035 -1.1390 -2.7723
14651SOL     OW55171   1.868   2.459   4.185 -0.6447 -0.5020  0.1335
14651SOL    HW155172   1.921   2.381   4.217 -0.8161 -0.4954  0.4295
14651SOL    HW255173   1.778   2.428   4.155 -0.1682 -0.6486 -1.1992
14652SOL     OW55174   7.833   3.848   6.010  0.5977 -0.1627 -0.3450
14652SOL    HW155175   7.900   3.876   5.941  1.7543 -0.1134  0.7826
14652SOL    HW255176   7.740   3.864   5.975  1.1210 -1.4790 -2.4611
14653SOL     OW55177   3.502   6.781   2.372 -0.0785 -0.0966  0.4328
14653SOL    HW155178   3.519   6.683   2.361  2.5191  0.2829  0.7427
14653SOL    HW255179   3.562   6.817   2.444 -0.5411  1.8387 -0.1312
14654SOL     OW55180   6.334   9.958   3.112 -0.3630  0.8541  0.1732
14654SOL    HW155181   6.377   9.901   3.183 -0.1450  1.1386  0.2694
14654SOL    HW255182   6.252  10.001   3.150 -0.8933  0.0963 -0.0899
14655SOL     OW55183   2.451   4.997   6.719 -0.3384  0.3857 -0.7284
14655SOL    HW155184   2.529   4.989   6.657 -0.2889 -1.2017 -0.4795
14655SOL    HW255185   2.407   5.086   6.705  1.3072  1.1687 -1.0984
14656SOL     OW55186   2.908   1.599   3.097 -0.2495 -0.7336  0.0562
14656SOL    HW155187   2.900   1.571   3.002 -0.5122 -0.6721  0.0597
14656SOL    HW255188   2.818   1.625   3.132  0.0838  0.7521 -0.1386
14657SOL     OW55189   8.311   8.267   2.647  0.1623 -0.3559 -0.1502
14657SOL    HW155190   8.264   8.310   2.725  0.9221  1.4134 -0.6399
14657SOL    HW255191   8.245   8.247   2.575  0.0090  1.5482 -0.5826
14658SOL     OW55192   8.479   9.471   1.831 -0.4925  0.0044 -0.6787
14658SOL    HW155193   8.396   9.476   1.886  0.4541 -1.1946  0.8840
14658SOL    HW255194   8.559   9.479   1.890  0.5322  0.3649 -2.0803
14659SOL     OW55195   3.438   8.195   0.212 -0.3317  0.0918 -0.2574
14659SOL    HW155196   3.362   8.231   0.159 -0.5517 -0.1401 -0.0998
14659SOL    HW255197   3.427   8.096   0.224 -0.1114  0.0904 -0.0655
14660SOL     OW55198   5.463   9.586   1.955 -0.6421 -1.2020  0.0675
14660SOL    HW155199   5.469   9.620   2.049  0.0841  1.1564 -0.8030
14660SOL    HW255200   5.555   9.562   1.922 -0.5305  0.5879 -0.9622
14661SOL     OW55201   4.381   3.673   6.092  0.3389 -0.0928 -0.2591
14661SOL    HW155202   4.416   3.701   6.182 -0.4222  1.1658 -0.3492
14661SOL    HW255203   4.409   3.579   6.074 -0.7797 -0.8991  1.9770
14662SOL     OW55204   2.783   2.613   2.580 -0.0912  0.2727 -0.0210
14662SOL    HW155205   2.756   2.631   2.674  0.6982  2.6837 -0.2082
14662SOL    HW255206   2.872   2.569   2.578  0.5260  1.4798  0.3511
14663SOL     OW55207   8.976   1.169   3.819 -0.4576 -1.0896  0.1391
14663SOL    HW155208   8.949   1.250   3.870  1.3262  0.7010 -1.7015
14663SOL    HW255209   9.059   1.130   3.859 -0.5090 -1.1891  0.1504
14664SOL     OW55210   4.039   8.783   6.165  0.8204  0.5537  0.2339
14664SOL    HW155211   4.065   8.878   6.149  2.9214 -0.0071  0.2374
14664SOL    HW255212   4.064   8.728   6.085 -1.3317  0.1522 -0.2070
14665SOL     OW55213   6.980   9.886   1.384  0.4740 -0.1607 -0.5771
14665SOL    HW155214   6.961   9.893   1.286  0.6130  2.7800 -0.4474
14665SOL    HW255215   6.896   9.861   1.433  0.0287 -0.0978 -1.3070
14666SOL     OW55216   6.733   1.298   1.794  0.2714  0.2333  0.3087
14666SOL    HW155217   6.652   1.356   1.800  0.3188  0.3788 -0.3501
14666SOL    HW255218   6.746   1.249   1.880  0.6177  1.7098  1.1116
14667SOL     OW55219   6.936   1.676   3.024  0.1807 -0.2798 -0.7186
14667SOL    HW155220   6.970   1.661   2.932  0.6245  3.4870 -1.2394
14667SOL    HW255221   6.857   1.738   3.021  0.0928 -0.2314  1.4043
14668SOL     OW55222   0.222   8.378   4.758 -0.1515 -0.2650  0.0389
14668SOL    HW155223   0.254   8.352   4.667  0.6407 -0.0067  0.2375
14668SOL    HW255224   0.300   8.385   4.820 -0.5910  0.4341  0.5220
14669SOL     OW55225   8.518   5.495   4.184  0.1764 -0.2050 -0.1674
14669SOL    HW155226   8.509   5.511   4.282 -1.7981 -0.4388 -0.2951
14669SOL    HW255227   8.615   5.499   4.158  0.7561 -0.6047  1.8583
14670SOL     OW55228   8.475   9.776   2.545 -0.3505  0.2466  0.2873
14670SOL    HW155229   8.384   9.753   2.578 -0.6381  0.6871 -0.1914
14670SOL    HW255230   8.537   9.699   2.562 -0.5804  0.3136  1.4835
14671SOL     OW55231   3.416   8.880   3.863  0.6751  0.0639 -0.1687
14671SOL    HW155232   3.333   8.889   3.807  0.9106  1.0593 -0.3598
14671SOL    HW255233   3.402   8.807   3.930 -0.6116  0.6651  0.2440
14672SOL     OW55234   4.205   5.675   1.603  0.3706 -0.7313  0.0430
14672SOL    HW155235   4.172   5.763   1.571  0.3345 -1.4877 -2.0954
14672SOL    HW255236   4.286   5.688   1.660  0.7821  0.6442 -0.8405
14673SOL     OW55237   0.998   0.839   2.409  0.5490  0.3617 -0.4875
14673SOL    HW155238   1.015   0.777   2.486 -1.2850 -0.3447 -0.6252
14673SOL    HW255239   1.067   0.823   2.338  1.3973  0.0231  0.4045
14674SOL     OW55240   3.340   3.623   6.038 -0.1512 -0.5553 -0.1212
14674SOL    HW155241   3.270   3.637   5.968 -1.0200 -2.0828  0.4211
14674SOL    HW255242   3.334   3.695   6.107  0.1837  0.5012 -1.1827
14675SOL     OW55243   0.650   3.938   6.616 -0.6138 -0.1167 -0.2271
14675SOL    HW155244   0.598   3.903   6.694 -2.7932 -0.2360 -1.7153
14675SOL    HW255245   0.745   3.905   6.623 -1.1224 -1.3050  1.6010
14676SOL     OW55246   9.159   3.979   3.164 -0.1954 -0.2191  0.0546
14676SOL    HW155247   9.086   4.001   3.099 -0.3568 -0.7530  0.0499
14676SOL    HW255248   9.246   4.014   3.129 -0.5412  0.9607  0.3534
14677SOL     OW55249   5.911   9.670   2.769  0.1818  0.0791 -0.2478
14677SOL    HW155250   5.983   9.697   2.833  1.8681  0.5692 -2.2872
14677SOL    HW255251   5.924   9.574   2.744 -0.9683 -0.3532  0.7398
14678SOL     OW55252   0.330   4.706   5.991 -0.0966 -0.2028  0.0155
14678SOL    HW155253   0.257   4.640   6.005 -1.7573  1.4900 -0.5675
14678SOL    HW255254   0.292   4.797   5.976  2.0347  0.3703 -2.3111
14679SOL     OW55255   9.167   2.296   2.824 -0.2409  0.7948  0.3891
14679SOL    HW155256   9.244   2.233   2.825 -0.6056  0.2760 -2.1208
14679SOL    HW255257   9.086   2.251   2.788 -1.1727  1.9668  0.9521
14680SOL     OW55258   8.746   2.646   4.236  0.2117 -0.1609 -0.1484
14680SOL    HW155259   8.651   2.666   4.213 -0.0476 -2.8146 -1.6380
14680SOL    HW255260   8.750   2.575   4.305  1.1275  0.5694  0.5678
14681SOL     OW55261   2.514   0.843   4.009 -0.3175  0.3801 -0.0581
14681SOL    HW155262   2.462   0.917   4.052 -0.1084  1.3535 -1.4145
14681SOL    HW255263   2.456   0.796   3.942  0.2696  0.9268 -0.9684
14682SOL     OW55264   1.758   2.596   1.227 -0.3635  0.3916  0.4017
14682SOL    HW155265   1.836   2.545   1.263 -2.3003 -1.0807  2.6147
14682SOL    HW255266   1.762   2.690   1.261 -0.6433 -0.2261  2.1872
14683SOL     OW55267   5.244   1.988   3.994 -0.7606 -0.2678 -0.0554
14683SOL    HW155268   5.306   2.059   3.962 -0.9702 -0.4649 -0.9014
14683SOL    HW255269   5.242   1.912   3.929 -0.9243 -0.8285  0.5918
14684SOL     OW55270   8.201   3.735   5.742  0.1849  0.3593 -0.1637
14684SOL    HW155271   8.205   3.684   5.656  0.2438  0.3552 -0.1590
14684SOL    HW255272   8.155   3.822   5.726  0.1731  0.3480 -0.1943
14685SOL     OW55273   3.435   5.729   6.652 -0.0716 -0.2047  0.0998
14685SOL    HW155274   3.351   5.692   6.612 -0.6281  2.0167 -0.8576
14685SOL    HW255275   3.413   5.770   6.741 -0.7321  3.4437 -1.6623
14686SOL     OW55276   3.265   1.195   0.601 -0.1128  0.1544  0.2056
14686SOL    HW155277   3.191   1.127   0.598 -0.4081  0.3898  1.8328
14686SOL    HW255278   3.232   1.280   0.561 -0.1963 -0.2248 -0.5491
14687SOL     OW55279   2.609   6.436   1.651 -0.0402 -0.3097  0.1771
14687SOL    HW155280   2.694   6.463   1.696  0.7891  1.4472 -2.2914
14687SOL    HW255281   2.629   6.407   1.557 -2.2909  1.6633 -0.9700
14688SOL     OW55282   8.624   4.594   1.991 -0.0135 -0.3862  0.3258
14688SOL    HW155283   8.659   4.501   2.007  0.1395 -0.1202  1.6442
14688SOL    HW255284   8.543   4.590   1.934 -0.1802 -1.3656  0.6186
14689SOL     OW55285   0.366   3.830   4.733  0.8602  0.1424  0.2295
14689SOL    HW155286   0.428   3.785   4.668 -0.4735  0.1446 -1.0498
14689SOL    HW255287   0.374   3.930   4.723 -0.2720  0.1338 -0.8244
14690SOL     OW55288   0.442   2.669   3.098 -0.1673  0.1983 -0.2366
14690SOL    HW155289   0.433   2.755   3.149  0.8776  0.5269 -0.6041
14690SOL    HW255290   0.400   2.679   3.008  0.7796  0.6272 -0.6354
14691SOL     OW55291   9.562   2.556   6.560 -0.1551 -0.0215 -0.0886
14691SOL    HW155292   9.504   2.635   6.542  0.3454  0.3507 -0.0641
14691SOL    HW255293   9.569   2.541   6.658  0.7901  0.6768 -0.0474
14692SOL     OW55294   1.149   8.313   5.806 -0.3289 -0.6316 -0.2751
14692SOL    HW155295   1.205   8.251   5.861 -0.6059 -1.3080 -0.7411
14692SOL    HW255296   1.208   8.372   5.751 -0.0599 -0.8157 -0.1836
14693SOL     OW55297   3.502   9.250   1.941  0.2159  0.3009 -0.5415
14693SOL    HW155298   3.577   9.191   1.969 -1.8780 -1.4023  1.7584
14693SOL    HW255299   3.531   9.345   1.945  2.2137 -0.3223  0.4129
14694SOL     OW55300   4.044   3.677   6.505  0.4360  0.0400  0.3709
14694SOL    HW155301   4.097   3.752   6.466  0.3801 -0.8486 -1.4776
14694SOL    HW255302   3.976   3.713   6.568 -0.4130  1.6603 -1.4236
14695SOL     OW55303   8.245   5.114   6.305 -1.0851  0.2860 -0.0120
14695SOL    HW155304   8.283   5.032   6.348 -0.2471  1.1073  0.8645
14695SOL    HW255305   8.174   5.089   6.240 -1.7773 -1.0498  1.2504
14696SOL     OW55306   2.878   8.290   1.900 -0.0487  0.5398 -0.0636
14696SOL    HW155307   2.823   8.349   1.959 -2.3266 -0.9544 -0.6173
14696SOL    HW255308   2.876   8.324   1.806 -0.6034  0.0954 -0.2131
14697SOL     OW55309   2.655   3.496   3.764  0.5071 -0.5767 -0.0360
14697SOL    HW155310   2.690   3.427   3.701 -0.7924 -0.3271 -1.0501
14697SOL    HW255311   2.724   3.567   3.776  0.9710 -0.8919 -0.7661
14698SOL     OW55312   0.864   5.135   0.351  0.4847  0.1096 -0.4745
14698SOL    HW155313   0.903   5.146   0.259  0.1312 -1.1231 -0.7838
14698SOL    HW255314   0.882   5.217   0.405  2.7248 -0.0624 -0.8994
14699SOL     OW55315   9.169   5.003   2.922  0.6017 -0.0712 -0.3844
14699SOL    HW155316   9.139   5.088   2.967  1.0451  1.5915 -3.1287
14699SOL    HW255317   9.223   4.949   2.987  0.7071  1.9474  1.2751
14700SOL     OW55318   6.455   2.694   3.207 -0.1721 -0.0889  0.2719
14700SOL    HW155319   6.446   2.713   3.304 -0.2290  2.2229 -0.1463
14700SOL    HW255320   6.545   2.655   3.188  0.6246  1.3639  1.0024
14701SOL     OW55321   4.984   1.961   1.521 -0.1895  0.0546 -0.1326
14701SOL    HW155322   4.958   1.871   1.557 -1.3820  0.5338  0.2534
14701SOL    HW255323   5.031   1.949   1.434  2.9730 -1.1444  1.6601
14702SOL     OW55324   0.059   2.561   3.694  0.1474 -0.0769  0.3965
14702SOL    HW155325  -0.009   2.620   3.737  0.6814  0.7825  0.0812
14702SOL    HW255326   0.139   2.616   3.668  0.1631 -0.7268 -0.9589
14703SOL     OW55327   2.340   6.434   2.039  0.2250 -0.0862  0.5509
14703SOL    HW155328   2.343   6.494   1.959  0.9333  1.2273  1.5434
14703SOL    HW255329   2.353   6.340   2.011 -1.5952  0.1253 -1.1313
14704SOL     OW55330   3.554   0.418   5.525 -0.4634  0.3597  0.2180
14704SOL    HW155331   3.550   0.363   5.441  0.5293  0.7435 -0.0934
14704SOL    HW255332   3.474   0.400   5.581 -0.3125 -1.1700 -0.0325
14705SOL     OW55333   4.747   8.149   2.496  0.0884 -0.0541  0.1805
14705SOL    HW155334   4.818   8.081   2.475  0.8016  0.9852 -0.8586
14705SOL    HW255335   4.684   8.156   2.418 -1.2205 -1.0237  1.1277
14706SOL     OW55336   0.734   6.894   1.706 -0.3729  0.0713 -0.0203
14706SOL    HW155337   0.829   6.863   1.709 -0.3191  0.1295 -0.9312
14706SOL    HW255338   0.714   6.949   1.787  0.0788 -0.7671  0.6707
14707SOL     OW55339   7.459   9.686   3.254 -0.4311 -0.0220  0.3283
14707SOL    HW155340   7.403   9.752   3.204 -1.0119 -0.0294  0.9687
14707SOL    HW255341   7.416   9.596   3.250 -0.1488 -0.1558  0.3042
14708SOL     OW55342   0.151   5.688   3.921 -0.1997 -0.1231 -0.1819
14708SOL    HW155343   0.078   5.676   3.854 -0.8554 -1.5610  0.7503
14708SOL    HW255344   0.226   5.625   3.900 -0.5003 -0.7361  0.5294
14709SOL     OW55345   6.106   0.575   5.275 -0.2115  0.5010  0.0168
14709SOL    HW155346   6.102   0.675   5.274 -1.7425  0.4949  1.9339
14709SOL    HW255347   6.107   0.541   5.181  1.2517  2.3306 -0.6730
14710SOL     OW55348   4.110   5.102   0.543 -0.2754  0.2682 -0.2567
14710SOL    HW155349   4.013   5.084   0.556 -0.3653  1.4914  0.8386
14710SOL    HW255350   4.122   5.168   0.469 -0.3042  0.4895 -0.0636
14711SOL     OW55351   2.713   8.827   1.932  0.8389  0.4108 -0.3361
14711SOL    HW155352   2.622   8.795   1.961  0.9108 -0.0449 -0.6022
14711SOL    HW255353   2.706   8.921   1.898  0.6274  0.6974  0.4863
14712SOL     OW55354   1.841   5.683   4.012  0.2457  0.0453 -0.2388
14712SOL    HW155355   1.830   5.696   3.914 -2.0673  0.8543  0.0785
14712SOL    HW255356   1.807   5.592   4.037 -0.6475  0.4274 -0.0097
14713SOL     OW55357   1.948   1.588   3.942  0.1629 -0.4790  0.6211
14713SOL    HW155358   1.968   1.590   4.040 -0.6758 -0.9501  0.8149
14713SOL    HW255359   1.874   1.523   3.925 -1.4767  1.4920  0.0103
14714SOL     OW55360   1.741   2.895   3.326  0.3281 -0.3660 -0.3876
14714SOL    HW155361   1.762   2.950   3.407 -0.8812 -0.3626 -0.0557
14714SOL    HW255362   1.675   2.944   3.269 -0.1725 -1.1370 -0.4811
14715SOL     OW55363   3.082   8.278   3.213 -0.7372 -0.1841 -0.4095
14715SOL    HW155364   3.141   8.201   3.236 -3.3672 -1.6937  1.5294
14715SOL    HW255365   3.069   8.281   3.114  1.6793 -0.4375 -0.7811
14716SOL     OW55366   6.678   9.821   2.275  0.0370 -0.6224 -0.3507
14716SOL    HW155367   6.662   9.862   2.185  0.7291 -2.3705 -1.2749
14716SOL    HW255368   6.695   9.894   2.341 -2.3549  0.8006 -1.2205
14717SOL     OW55369   3.528   3.283   4.062 -0.6560 -0.1376  0.2816
14717SOL    HW155370   3.505   3.377   4.036 -0.2821  0.3051  1.5452
14717SOL    HW255371   3.626   3.278   4.085 -0.5929 -0.9205 -0.1145
14718SOL     OW55372   0.709   8.351   5.151 -0.3166 -0.2594 -0.1440
14718SOL    HW155373   0.770   8.358   5.072 -2.4309  0.7589 -1.7380
14718SOL    HW255374   0.666   8.440   5.167 -2.5227 -1.3256 -0.0034
14719SOL     OW55375   6.193   4.763   0.702  0.6791  0.1005 -0.1916
14719SOL    HW155376   6.162   4.692   0.766  1.1735 -0.8574 -1.0050
14719SOL    HW255377   6.114   4.810   0.663  0.3821  1.4748  1.9777
14720SOL     OW55378   9.955   4.815   0.082  0.6337  0.3091  0.2413
14720SOL    HW155379   9.914   4.837   0.170 -0.5531 -2.5387  0.4236
14720SOL    HW255380   9.886   4.818   0.010  0.9792 -0.3974 -0.1234
14721SOL     OW55381   8.200   2.153   3.923  0.1329  0.2548  0.0405
14721SOL    HW155382   8.265   2.081   3.899 -0.2165 -0.2707  0.6680
14721SOL    HW255383   8.111   2.112   3.943 -1.0558  1.1252 -3.0607
14722SOL     OW55384   9.902   6.111   0.167  0.5076  0.1168 -0.0211
14722SOL    HW155385   9.857   6.163   0.095 -0.2400 -0.9650 -0.3630
14722SOL    HW255386   9.872   6.015   0.162 -0.6958  0.2945  2.5987
14723SOL     OW55387   2.578   8.796   1.155  0.1001 -0.9229 -0.9384
14723SOL    HW155388   2.541   8.712   1.196  0.3152 -0.8378 -0.5657
14723SOL    HW255389   2.641   8.772   1.082 -0.7715 -1.0722 -1.6608
14724SOL     OW55390   2.549   9.755   0.976 -0.8048 -0.2854 -0.1752
14724SOL    HW155391   2.564   9.782   0.880 -0.6068 -1.0793 -0.3714
14724SOL    HW255392   2.469   9.803   1.012 -0.5007  0.5044 -0.5409
14725SOL     OW55393   7.094   1.378   4.761 -0.2298 -0.1146  0.4128
14725SOL    HW155394   7.176   1.330   4.792  0.2681  1.4089  1.5027
14725SOL    HW255395   7.102   1.398   4.663 -0.9249 -3.1753 -0.3030
14726SOL     OW55396   7.694   8.490   2.408 -0.2945  0.4007 -0.0940
14726SOL    HW155397   7.684   8.391   2.397 -2.8911  0.6352 -0.2728
14726SOL    HW255398   7.679   8.514   2.504 -1.0832  0.7541 -0.2993
14727SOL     OW55399   9.000   1.980   0.850  0.0775 -0.1592 -0.4253
14727SOL    HW155400   8.969   1.945   0.762 -1.5456  0.2162 -0.0124
14727SOL    HW255401   9.014   2.079   0.844  1.5451 -0.3774 -0.7034
14728SOL     OW55402   2.464   9.118   2.588  0.0193  0.2369 -1.1198
14728SOL    HW155403   2.455   9.207   2.631  0.7421 -0.3624  0.3185
14728SOL    HW255404   2.390   9.105   2.522 -0.6886  1.4683 -0.5837
14729SOL     OW55405   6.576   1.669   2.285 -0.4996 -0.1873 -0.1208
14729SOL    HW155406   6.672   1.641   2.287 -0.8511 -1.3520  0.8342
14729SOL    HW255407   6.559   1.733   2.361 -0.1841  1.0324 -1.0633
14730SOL     OW55408   1.060   2.467   0.475 -0.2014  0.5193  0.2034
14730SOL    HW155409   0.989   2.402   0.448 -0.0056  0.3222  0.1622
14730SOL    HW255410   1.120   2.424   0.543  1.0402  0.0134 -1.1946
14731SOL     OW55411   6.923   0.326   5.188 -0.4602 -0.8333 -0.0394
14731SOL    HW155412   6.957   0.243   5.231  2.1998 -0.1164 -0.6871
14731SOL    HW255413   6.961   0.406   5.234  1.5150 -0.0479 -2.9158
14732SOL     OW55414   4.784   0.608   4.224  0.5954 -0.7723  1.0403
14732SOL    HW155415   4.863   0.617   4.285  1.7023 -2.9516 -0.0099
14732SOL    HW255416   4.816   0.599   4.129 -0.8766 -2.5406  0.6959
14733SOL     OW55417   9.639   3.746   4.730 -0.0439  0.3453  0.5643
14733SOL    HW155418   9.731   3.716   4.706  0.7337  1.7027  1.7251
14733SOL    HW255419   9.625   3.840   4.699 -2.1842 -0.8576 -2.3889
14734SOL     OW55420   4.087   0.261   4.136  0.0995 -0.2823  0.4051
14734SOL    HW155421   4.116   0.351   4.169  1.1458 -0.9132  1.2508
14734SOL    HW255422   4.140   0.190   4.183 -1.0098 -1.3560  0.0576
14735SOL     OW55423   3.548   7.906   2.893  0.0195  0.3005 -0.8596
14735SOL    HW155424   3.521   7.996   2.859  2.0536  1.0294 -0.5926
14735SOL    HW255425   3.641   7.885   2.864  0.8259 -0.2279  1.9516
14736SOL     OW55426   9.509   0.338   3.413  0.4620 -0.2608 -0.1368
14736SOL    HW155427   9.576   0.287   3.359 -0.7348 -1.8651 -0.1491
14736SOL    HW255428   9.478   0.418   3.362  1.6921 -0.0188 -0.5039
14737SOL     OW55429   2.656   3.072   4.524  0.9093 -0.1538  0.5166
14737SOL    HW155430   2.561   3.078   4.556  0.4417  0.1429 -0.8789
14737SOL    HW255431   2.717   3.067   4.602 -0.4375 -3.2931  1.4529
14738SOL     OW55432   0.044   6.587   6.737 -0.5723  0.0953 -0.0945
14738SOL    HW155433  -0.002   6.619   6.654  0.4786  0.3295 -0.5993
14738SOL    HW255434   0.118   6.649   6.760  1.1544 -1.6686 -0.7784
14739SOL     OW55435   1.891   6.657   1.405 -0.0194 -0.4812 -0.1878
14739SOL    HW155436   1.814   6.614   1.357 -1.5969  0.6061  1.2932
14739SOL    HW255437   1.931   6.727   1.346 -0.5077 -0.6761 -0.7672
14740SOL     OW55438   0.891   8.450   1.984  0.1882  0.4437 -0.2774
14740SOL    HW155439   0.830   8.397   1.924  1.5657 -0.5685 -0.8092
14740SOL    HW255440   0.872   8.547   1.972 -0.7133  0.1839 -1.1069
14741SOL     OW55441   8.632   1.891   2.162  0.4583  0.1134 -0.3975
14741SOL    HW155442   8.672   1.818   2.218  0.8071  1.4608  1.1506
14741SOL    HW255443   8.629   1.862   2.066  1.4156 -1.5733  0.0655
14742SOL     OW55444   9.454   9.279   1.439  0.0820 -0.0454  0.2925
14742SOL    HW155445   9.359   9.296   1.467 -0.6415 -1.1864 -1.3083
14742SOL    HW255446   9.472   9.327   1.353  0.3629 -1.2667 -0.3441
14743SOL     OW55447   2.841   7.515   2.856  0.1029 -0.2960  0.1831
14743SOL    HW155448   2.814   7.605   2.820  0.6458  0.6955  2.2131
14743SOL    HW255449   2.940   7.511   2.867  0.1666 -1.4543 -0.6402
14744SOL     OW55450   3.445   4.229   5.579  0.7892  0.5474  0.2880
14744SOL    HW155451   3.385   4.246   5.500 -0.2873  0.8073  1.1577
14744SOL    HW255452   3.500   4.147   5.561 -0.4465 -0.1982 -0.1554
14745SOL     OW55453   0.773   6.394   6.260  0.2236 -0.1086  0.9153
14745SOL    HW155454   0.830   6.472   6.234  0.5229 -1.2507 -2.0215
14745SOL    HW255455   0.801   6.361   6.350  0.9714  2.3292  1.6136
14746SOL     OW55456   6.569   1.700   1.389 -0.0080  0.2986 -0.1780
14746SOL    HW155457   6.520   1.621   1.425  0.1490  0.5342  0.5618
14746SOL    HW255458   6.574   1.694   1.289  0.5866 -0.9749 -0.0841
14747SOL     OW55459   8.620   5.990   2.528  0.3041 -0.2420  0.1113
14747SOL    HW155460   8.659   5.998   2.436  0.6255  0.2604  0.2903
14747SOL    HW255461   8.651   6.066   2.584  1.2177 -1.2952  1.0546
14748SOL     OW55462   6.984   1.088   1.563  0.9507  0.1049 -0.5723
14748SOL    HW155463   6.981   1.104   1.662  0.0966 -1.4443 -0.3290
14748SOL    HW255464   6.901   1.126   1.521  0.8345 -0.1234 -0.5513
14749SOL     OW55465   4.476   2.336   1.922  0.0597  0.9284 -0.4596
14749SOL    HW155466   4.516   2.393   1.993 -0.4079 -0.6609  1.1128
14749SOL    HW255467   4.548   2.293   1.868  0.4458  0.8022  0.1567
14750SOL     OW55468   9.857   9.573   2.641  0.7535  0.0465 -0.3243
14750SOL    HW155469   9.871   9.563   2.543  1.4135 -1.2097 -0.1209
14750SOL    HW255470   9.914   9.648   2.676 -0.7411  1.5767 -1.1640
14751SOL     OW55471   8.714   7.783   4.954 -0.1297 -0.4044 -0.6214
14751SOL    HW155472   8.791   7.731   4.919 -0.2828 -1.4727  0.6115
14751SOL    HW255473   8.629   7.748   4.913 -0.0856 -0.0543 -1.0193
14752SOL     OW55474   8.327   4.693   6.107 -0.1732 -0.3168 -0.1843
14752SOL    HW155475   8.382   4.708   6.025  1.9844  0.7360  1.4119
14752SOL    HW255476   8.373   4.628   6.167 -0.3688  0.9946  1.4362
14753SOL     OW55477   0.700   1.265   2.346 -0.1946 -0.2326 -0.9983
14753SOL    HW155478   0.639   1.208   2.292  0.2393 -1.1395 -0.5469
14753SOL    HW255479   0.794   1.234   2.333  0.1072  0.7571 -1.2056
14754SOL     OW55480   9.840   7.008   6.644 -0.3177 -0.5387 -0.1775
14754SOL    HW155481   9.831   7.078   6.573 -0.3973 -2.1266 -1.7430
14754SOL    HW255482   9.801   7.043   6.729  0.0907  1.5177 -0.7884
14755SOL     OW55483   1.882   7.911   4.150 -0.0817 -0.3950  0.2691
14755SOL    HW155484   1.843   7.998   4.119  0.8109  0.3430  1.1733
14755SOL    HW255485   1.889   7.848   4.072  0.5481  0.8322 -0.6967
14756SOL     OW55486   5.030   4.474   0.555  0.1079 -0.7268  0.1555
14756SOL    HW155487   5.038   4.374   0.548  0.1752 -0.6076 -1.8113
14756SOL    HW255488   4.967   4.507   0.485  1.1440  0.7564 -0.0802
14757SOL     OW55489   7.836   1.181   2.476 -0.4835  0.5702 -0.2954
14757SOL    HW155490   7.827   1.087   2.441 -0.0262  0.7818 -1.0006
14757SOL    HW255491   7.933   1.206   2.478 -0.5695  0.8511  0.3658
14758SOL     OW55492   1.402   6.119   1.068  0.2582  0.3165 -0.2497
14758SOL    HW155493   1.447   6.179   1.134  0.6657 -1.7253  1.4256
14758SOL    HW255494   1.305   6.109   1.092  0.0913  0.6437 -0.7797
14759SOL     OW55495   2.369   7.924   1.593 -0.5813 -0.1612  0.2400
14759SOL    HW155496   2.389   7.827   1.584  0.4655  0.1196 -0.4704
14759SOL    HW255497   2.450   7.978   1.573 -1.2532  0.8843  0.2581
14760SOL     OW55498   1.313   9.496   1.396 -0.0357 -0.6940 -0.2748
14760SOL    HW155499   1.221   9.481   1.359  0.7647 -0.9913 -2.2269
14760SOL    HW255500   1.370   9.416   1.375  1.2944  0.4531 -1.1296
14761SOL     OW55501   0.412   7.785   0.479 -0.0719 -0.0638 -0.6434
14761SOL    HW155502   0.441   7.753   0.569 -2.1309  1.6850  0.6909
14761SOL    HW255503   0.482   7.846   0.441  0.5392 -0.3361  0.0370
14762SOL     OW55504   8.625   9.661   2.116 -0.2160 -0.2201 -0.3277
14762SOL    HW155505   8.698   9.718   2.154  0.2423  0.4161 -2.1225
14762SOL    HW255506   8.658   9.567   2.106 -0.0103 -0.1716 -0.1056
14763SOL     OW55507   5.950   0.948   3.026  0.0199  0.3362  0.1485
14763SOL    HW155508   5.860   0.950   3.071 -0.6116  1.3296 -1.1366
14763SOL    HW255509   5.967   0.856   2.991 -0.7898  0.3115 -0.1951
14764SOL     OW55510   2.173   7.942   4.674  0.1233  0.2179 -0.0922
14764SOL    HW155511   2.084   7.988   4.670  0.2656  0.5279  0.2425
14764SOL    HW255512   2.244   8.004   4.640  0.3177  0.2461  0.3644
14765SOL     OW55513   2.938   5.860   6.259 -0.0437  0.1659  0.3998
14765SOL    HW155514   3.024   5.893   6.298 -0.7227 -0.7789  2.7483
14765SOL    HW255515   2.861   5.912   6.297 -0.7023 -0.5655  0.0895
14766SOL     OW55516   3.862   4.698   1.902  0.0252 -0.1506 -0.0801
14766SOL    HW155517   3.957   4.727   1.890  0.5309 -1.5490  0.4401
14766SOL    HW255518   3.851   4.604   1.870 -1.5313  0.4713 -1.4994
14767SOL     OW55519   1.271   6.867   3.601 -0.2241 -1.4818  0.2083
14767SOL    HW155520   1.248   6.842   3.696  0.9196  0.6538  1.0827
14767SOL    HW255521   1.369   6.856   3.588  0.3914  2.6009  0.7116
14768SOL     OW55522   1.193   6.748   2.352  0.1073  0.2887  0.3429
14768SOL    HW155523   1.275   6.716   2.400  1.8696 -0.4352 -3.0079
14768SOL    HW255524   1.185   6.847   2.362  0.5735  0.1867  1.8732
14769SOL     OW55525   1.115   3.997   4.728 -0.3592 -0.4014  0.0338
14769SOL    HW155526   1.183   3.931   4.759  1.2944  0.5239 -1.5226
14769SOL    HW255527   1.064   3.960   4.650  0.4971  0.1058 -0.7732
14770SOL     OW55528   4.720   2.615   2.444  0.3227 -0.0065 -0.0696
14770SOL    HW155529   4.801   2.584   2.393  0.5774  1.4579 -0.5892
14770SOL    HW255530   4.644   2.628   2.381  0.3908  0.9598  0.0295
14771SOL     OW55531   3.608   8.788   1.799 -0.0457  0.8005  0.6530
14771SOL    HW155532   3.700   8.816   1.827  0.8607  1.3117 -2.6451
14771SOL    HW255533   3.614   8.715   1.731 -2.1356  0.3029  0.9453
14772SOL     OW55534   2.004   9.796   2.459  0.2159  0.5019  0.0996
14772SOL    HW155535   1.966   9.760   2.544  0.5885 -0.4353 -0.1238
14772SOL    HW255536   2.028   9.720   2.399 -1.4072  1.1638 -1.4357
14773SOL     OW55537   1.951   6.948   3.212 -0.1883  0.0774  0.3532
14773SOL    HW155538   1.992   7.039   3.221  0.6113 -0.2745  0.2235
14773SOL    HW255539   1.893   6.930   3.292 -1.6553  1.3552 -0.3883
14774SOL     OW55540   3.704   5.311   6.172 -0.2272  0.0165  0.3737
14774SOL    HW155541   3.744   5.362   6.248  1.2243 -0.3981 -0.1154
14774SOL    HW255542   3.620   5.266   6.203  0.3002 -0.0655  1.6903
14775SOL     OW55543   5.143   9.310   4.128 -0.4041  0.2262 -0.1168
14775SOL    HW155544   5.118   9.270   4.040 -0.5865 -1.1072  0.5171
14775SOL    HW255545   5.060   9.336   4.177 -0.4706 -1.6584  0.8318
14776SOL     OW55546   5.835   9.131   1.928  0.4513  0.5365  0.1824
14776SOL    HW155547   5.830   9.083   2.015  0.5485  1.9822  0.9998
14776SOL    HW255548   5.746   9.129   1.883  0.8492 -1.7902 -0.5602
14777SOL     OW55549   1.659   3.521   5.597 -0.5670 -0.8925 -0.5649
14777SOL    HW155550   1.677   3.433   5.553  0.2607 -0.5038 -1.0140
14777SOL    HW255551   1.732   3.585   5.574 -1.0381 -0.1620 -0.0365
14778SOL     OW55552   0.355   2.751   0.435 -0.4749  1.0424 -0.3783
14778SOL    HW155553   0.438   2.720   0.482 -0.5298 -0.0289 -0.9824
14778SOL    HW255554   0.326   2.838   0.475  0.2325  0.8143  0.6795
14779SOL     OW55555   7.181   1.944   0.135  0.4165  0.5485 -0.4415
14779SOL    HW155556   7.166   1.894   0.049  0.3019 -0.1166 -0.0363
14779SOL    HW255557   7.125   2.027   0.135 -0.6607 -0.1732 -0.4078
14780SOL     OW55558   3.807   3.360   3.954  0.3779 -0.6512 -0.5354
14780SOL    HW155559   3.801   3.348   4.053 -0.1549 -1.6005 -0.6674
14780SOL    HW255560   3.810   3.457   3.932  3.5679 -0.4385  0.5616
14781SOL     OW55561   4.707   0.505   1.002 -0.4736  0.1612  0.0408
14781SOL    HW155562   4.636   0.506   0.932 -0.0081 -0.5374 -0.4538
14781SOL    HW255563   4.703   0.418   1.052  1.2606 -0.7350 -1.2924
14782SOL     OW55564   8.489   3.103   1.670 -0.2826  0.1874 -0.1286
14782SOL    HW155565   8.526   3.069   1.756 -0.3675 -1.2147 -0.6245
14782SOL    HW255566   8.500   3.202   1.665  1.1019  0.0907  0.8261
14783SOL     OW55567   3.818   8.349   5.431 -0.4800 -0.0840 -0.1023
14783SOL    HW155568   3.881   8.272   5.438  0.3159  0.6004  0.5681
14783SOL    HW255569   3.863   8.424   5.383 -1.4469 -0.2392 -1.2564
14784SOL     OW55570   2.970   2.641   5.322  0.6279  0.6513 -0.7229
14784SOL    HW155571   2.966   2.585   5.405  1.5516  1.8279  0.1287
14784SOL    HW255572   2.918   2.596   5.249  0.2681 -0.6651  0.3252
14785SOL     OW55573   5.755   8.174   2.383 -0.3801  0.4163 -0.4163
14785SOL    HW155574   5.844   8.208   2.414  0.1632 -0.1287 -1.3309
14785SOL    HW255575   5.704   8.249   2.341  0.6371  0.2244 -2.0345
14786SOL     OW55576   8.466   3.776   2.271  0.4810 -0.0082  0.0557
14786SOL    HW155577   8.500   3.846   2.208  0.5569 -1.6247 -1.7541
14786SOL    HW255578   8.537   3.709   2.288 -1.2827 -2.7552 -2.8075
14787SOL     OW55579   4.035   2.092   3.741 -0.6394  0.2141 -0.2013
14787SOL    HW155580   4.043   2.016   3.806 -0.7240  0.3309 -0.0534
14787SOL    HW255581   4.100   2.079   3.666 -1.8808 -0.9073 -1.1036
14788SOL     OW55582   3.588   3.848   5.766 -0.2983 -0.0529 -0.8373
14788SOL    HW155583   3.641   3.779   5.817  0.1184  0.4990 -0.5246
14788SOL    HW255584   3.553   3.917   5.830 -1.9140 -0.7337 -0.9480
14789SOL     OW55585   9.714   1.252   1.775  0.0231 -0.6499 -0.4397
14789SOL    HW155586   9.799   1.301   1.755  1.2938 -2.1300  1.1444
14789SOL    HW255587   9.736   1.161   1.810 -2.2069 -0.6503  1.0559
14790SOL     OW55588   1.232   0.826   1.237 -0.6048 -0.4273  0.4236
14790SOL    HW155589   1.143   0.871   1.237 -0.5055 -0.2226 -0.8789
14790SOL    HW255590   1.225   0.735   1.196 -0.6134 -1.2580  2.1945
14791SOL     OW55591   3.454   9.306   0.905 -0.4878 -0.3036  0.3538
14791SOL    HW155592   3.374   9.360   0.878 -1.1440 -0.9913  0.8941
14791SOL    HW255593   3.479   9.328   0.999  1.4716  1.6944 -0.5805
14792SOL     OW55594   4.774   0.776   6.209  0.5262 -0.8092  0.2061
14792SOL    HW155595   4.739   0.782   6.115 -1.4750  1.1221  1.0457
14792SOL    HW255596   4.738   0.694   6.253 -0.4406 -0.4686  0.0530
14793SOL     OW55597   3.331   4.758   5.263 -1.0418  0.2234  0.0402
14793SOL    HW155598   3.366   4.746   5.356 -0.0670  1.3077 -0.1786
14793SOL    HW255599   3.353   4.850   5.230 -2.2386  0.1892 -0.9036
14794SOL     OW55600   2.072   6.760   3.989  0.0946 -0.0758 -0.6206
14794SOL    HW155601   2.125   6.703   4.052 -0.5733 -1.3184 -1.1565
14794SOL    HW255602   2.009   6.818   4.040  0.3701 -0.2461 -0.0900
14795SOL     OW55603   9.550   6.431   2.718 -0.3545 -0.6083  0.2571
14795SOL    HW155604   9.580   6.527   2.722 -2.4647  0.0568  0.5654
14795SOL    HW255605   9.628   6.371   2.739  1.0058  1.0162 -0.0089
14796SOL     OW55606   0.635   0.657   5.653  0.1085 -0.0084  0.1998
14796SOL    HW155607   0.712   0.686   5.596 -0.2718  1.1361  0.2416
14796SOL    HW255608   0.595   0.737   5.698 -0.9987 -0.6024  0.2994
14797SOL     OW55609   9.494   6.359   5.377  0.7740 -0.3081  0.0324
14797SOL    HW155610   9.434   6.284   5.349  1.6596 -0.6681 -0.9524
14797SOL    HW255611   9.529   6.406   5.295  0.9759  0.5726  0.6171
14798SOL     OW55612   1.928   5.295   0.308 -0.3146  0.1321 -0.7039
14798SOL    HW155613   1.966   5.238   0.235  0.4872  1.2140 -1.1330
14798SOL    HW255614   1.846   5.342   0.275  1.6692  2.8967 -1.8755
14799SOL     OW55615   7.627   2.346   2.229 -0.0791 -0.1416  0.5515
14799SOL    HW155616   7.555   2.412   2.247 -0.7984 -0.4766 -1.0457
14799SOL    HW255617   7.716   2.386   2.253 -0.6830  0.6967  1.4014
14800SOL     OW55618   9.777   1.415   1.026 -0.0746 -0.5543  0.3337
14800SOL    HW155619   9.803   1.508   1.053 -1.7031 -0.1868  0.6762
14800SOL    HW255620   9.733   1.369   1.103 -1.4435 -0.7758 -0.5758
14801SOL     OW55621   1.186   5.506   3.224  0.3170 -0.4549 -0.1429
14801SOL    HW155622   1.196   5.419   3.272 -0.5781  0.1183  1.1240
14801SOL    HW255623   1.215   5.581   3.284 -3.3224  0.5092  0.5683
14802SOL     OW55624   1.751   3.189   0.174 -0.3098  0.3567  0.0323
14802SOL    HW155625   1.688   3.228   0.241  0.2275  1.5705 -0.1576
14802SOL    HW255626   1.703   3.176   0.087 -0.8311 -0.6130  0.4549
14803SOL     OW55627   1.048   2.594   3.370 -0.1213  0.0107  0.0300
14803SOL    HW155628   1.023   2.584   3.273  1.5010  0.7038 -0.4733
14803SOL    HW255629   0.985   2.540   3.426 -1.3399 -0.0676 -1.3708
14804SOL     OW55630   0.308   5.947   0.518 -0.1693  0.0674  0.1104
14804SOL    HW155631   0.322   5.963   0.616 -0.3681  0.1446  0.1276
14804SOL    HW255632   0.243   6.014   0.483  0.0574  0.1627 -0.1186
14805SOL     OW55633   8.705   5.811   4.794 -0.4111  0.0121  0.6622
14805SOL    HW155634   8.649   5.732   4.769  1.0559 -2.0061  3.5499
14805SOL    HW255635   8.788   5.812   4.737 -0.7552 -0.1079  0.1517
14806SOL     OW55636   5.998   1.913   1.933  0.1198  0.1227 -0.3020
14806SOL    HW155637   6.094   1.900   1.957 -0.3882  1.1567  2.4349
14806SOL    HW255638   5.941   1.849   1.985 -0.8115  0.6215 -0.6863
14807SOL     OW55639   4.962   1.387   5.593 -0.2035 -0.6247  0.1473
14807SOL    HW155640   4.869   1.386   5.631  0.2574 -0.0972  1.3097
14807SOL    HW255641   4.983   1.479   5.560 -0.2373 -0.8418 -0.4828
14808SOL     OW55642   3.785   6.866   2.361 -0.4416 -0.2221  0.0583
14808SOL    HW155643   3.738   6.898   2.279 -1.3474 -0.1107  0.6140
14808SOL    HW255644   3.781   6.937   2.431  1.2167  0.0786 -0.1414
14809SOL     OW55645   8.402   6.469   0.397  0.0743 -0.1274  0.1960
14809SOL    HW155646   8.356   6.404   0.336 -0.1863 -0.4888  0.7728
14809SOL    HW255647   8.375   6.450   0.491  0.1540  0.6942  0.3827
14810SOL     OW55648   4.759   4.281   0.893  0.3671  0.5115 -0.5498
14810SOL    HW155649   4.759   4.381   0.902 -0.8489  0.5287 -0.7053
14810SOL    HW255650   4.797   4.241   0.976  0.1621  1.0777 -0.1783
14811SOL     OW55651   0.781   0.479   5.150 -0.2614  0.1133  0.0712
14811SOL    HW155652   0.782   0.535   5.067 -1.0310  1.1692  0.7649
14811SOL    HW255653   0.856   0.506   5.210 -2.9799  3.2397  2.2312
14812SOL     OW55654   3.011   9.583   2.796  0.0644 -0.3324 -0.3117
14812SOL    HW155655   2.984   9.679   2.789 -0.1656 -0.4041 -0.3939
14812SOL    HW255656   3.097   9.569   2.747  0.0792 -0.1777 -0.3305
14813SOL     OW55657   8.298   7.895   3.154 -0.0911  0.2496  0.2641
14813SOL    HW155658   8.218   7.854   3.199 -1.1313  1.0301 -0.8245
14813SOL    HW255659   8.356   7.939   3.222 -0.0693 -1.1868  1.1919
14814SOL     OW55660   6.088   9.131   4.216 -0.1236  0.4959 -0.1710
14814SOL    HW155661   6.001   9.093   4.247 -0.6289  1.4622 -0.3656
14814SOL    HW255662   6.162   9.101   4.276 -0.4372 -1.1319 -0.5782
14815SOL     OW55663   1.872   8.634   4.506 -0.3451  0.0570 -0.0507
14815SOL    HW155664   1.808   8.558   4.515 -1.7590  1.2903  0.5152
14815SOL    HW255665   1.944   8.625   4.574 -0.9712 -0.3330  0.5679
14816SOL     OW55666   8.528   6.978   2.475  0.1992 -0.1625 -0.0544
14816SOL    HW155667   8.543   6.925   2.559  1.6056  1.1214  0.5252
14816SOL    HW255668   8.606   7.038   2.459 -0.4006  0.1684 -1.8849
14817SOL     OW55669   8.294   7.134   3.381  0.0409  0.0928  0.5245
14817SOL    HW155670   8.384   7.092   3.383 -0.5649 -1.3045 -0.8036
14817SOL    HW255671   8.273   7.164   3.288 -1.7761 -1.6678  0.3366
14818SOL     OW55672   2.548   1.454   6.324  0.0121  0.5321 -0.4570
14818SOL    HW155673   2.459   1.417   6.350  0.1732  0.0561 -0.5826
14818SOL    HW255674   2.612   1.379   6.309 -0.2888  0.7415 -3.0428
14819SOL     OW55675   6.348   1.812   2.209  0.1512  0.1330  0.3210
14819SOL    HW155676   6.310   1.795   2.118  0.0287  1.2484  0.1528
14819SOL    HW255677   6.423   1.748   2.226 -0.3522 -0.6212 -0.2357
14820SOL     OW55678   6.153   8.778   4.398 -0.0604  0.5499  0.2195
14820SOL    HW155679   6.119   8.695   4.441 -1.2621  0.7864 -0.2442
14820SOL    HW255680   6.155   8.766   4.299 -1.0878  1.3690  0.0884
14821SOL     OW55681   9.512   2.714   1.226 -0.3177  0.1117 -0.6586
14821SOL    HW155682   9.462   2.717   1.139  0.2120  1.9648 -0.9283
14821SOL    HW255683   9.468   2.774   1.292 -0.5560 -1.0846  0.2771
14822SOL     OW55684   7.471   7.868   2.532  0.0302 -0.8306  0.3582
14822SOL    HW155685   7.444   7.861   2.628  0.0388 -1.1781  0.3352
14822SOL    HW255686   7.395   7.906   2.479 -0.1152 -1.0072  0.4381
14823SOL     OW55687   0.359   4.469   3.843 -0.5290  0.5960  0.5429
14823SOL    HW155688   0.399   4.536   3.906 -0.1603  0.4306  0.4855
14823SOL    HW255689   0.323   4.517   3.763  0.7128  0.6405 -0.0127
14824SOL     OW55690   3.041   9.622   3.063 -0.5875 -0.3339  0.2227
14824SOL    HW155691   3.137   9.607   3.087  0.0471  1.1971 -1.2214
14824SOL    HW255692   3.029   9.608   2.965 -2.0456 -1.3999  0.5406
14825SOL     OW55693   2.965   7.388   1.802 -0.0335  0.5551 -1.0084
14825SOL    HW155694   2.992   7.480   1.831 -0.9452  0.2013  1.0361
14825SOL    HW255695   2.996   7.322   1.870 -2.8451 -0.2378 -0.4414
14826SOL     OW55696   4.891   4.652   4.384  0.3622  0.3112  0.2855
14826SOL    HW155697   4.818   4.716   4.359 -0.2030 -0.7572 -0.8453
14826SOL    HW255698   4.957   4.646   4.308 -0.7387 -2.0695 -0.5456
14827SOL     OW55699   2.059   2.710   6.363  0.0883 -0.0043  0.2850
14827SOL    HW155700   2.015   2.703   6.273  0.9796 -2.5001  0.0251
14827SOL    HW255701   2.125   2.785   6.361 -2.4751  2.3277 -0.0029
14828SOL     OW55702   4.170   3.281   5.913 -0.7034 -0.2295  0.3435
14828SOL    HW155703   4.229   3.341   5.858 -0.4003 -1.1609 -0.3544
14828SOL    HW255704   4.225   3.239   5.986 -0.4584 -1.2268 -0.4094
14829SOL     OW55705   6.769   8.956   2.842 -0.6972  0.2348 -0.2863
14829SOL    HW155706   6.823   8.873   2.857 -1.0807 -0.1270 -0.8834
14829SOL    HW255707   6.830   9.030   2.814  0.0366  0.9285  2.9517
14830SOL     OW55708   6.842   9.921   2.696 -0.1371 -0.0881 -0.0840
14830SOL    HW155709   6.811   9.892   2.787 -0.4259 -0.0927 -0.1851
14830SOL    HW255710   6.912   9.991   2.706 -1.5010  1.2542  0.1033
14831SOL     OW55711   2.900   4.415   4.151  0.5968  0.1578  0.4583
14831SOL    HW155712   2.930   4.363   4.230 -0.4197  1.0518  1.4380
14831SOL    HW255713   2.820   4.469   4.174  0.1675  0.2857 -1.2355
14832SOL     OW55714   3.552   8.573   3.123 -0.1764  0.6381 -0.5485
14832SOL    HW155715   3.482   8.527   3.068 -0.8854  0.2065  0.6999
14832SOL    HW255716   3.528   8.670   3.133 -0.6394  0.4733 -0.0535
14833SOL     OW55717   1.342   5.366   2.734  0.2028 -0.5886  0.1030
14833SOL    HW155718   1.275   5.314   2.682  1.1243  0.2290 -1.9453
14833SOL    HW255719   1.312   5.373   2.829 -2.4310 -0.5011 -0.6995
14834SOL     OW55720   2.525   7.685   4.978  0.1862 -0.3401 -0.6399
14834SOL    HW155721   2.465   7.605   4.969  0.3476 -0.4541 -0.7055
14834SOL    HW255722   2.474   7.760   5.020 -0.0207 -0.4173 -0.7542
14835SOL     OW55723   8.233   9.874   5.275  0.0550  0.4263 -0.0009
14835SOL    HW155724   8.297   9.797   5.282 -1.3147 -0.7777 -0.4933
14835SOL    HW255725   8.191   9.890   5.364 -0.7515 -0.3637 -0.2340
14836SOL     OW55726   7.910   9.083   3.529  0.3937  0.1939  0.1394
14836SOL    HW155727   7.949   9.129   3.609 -0.4349  1.6050 -0.2550
14836SOL    HW255728   7.810   9.078   3.539  0.5040 -2.1783  0.5077
14837SOL     OW55729   4.729   2.103   5.673  0.1073  0.1860  0.4126
14837SOL    HW155730   4.823   2.109   5.706  0.8184  0.3204 -1.5804
14837SOL    HW255731   4.675   2.045   5.734  1.6955 -0.5618  1.1063
14838SOL     OW55732   8.361   2.861   3.951 -0.3028 -1.1490  0.3068
14838SOL    HW155733   8.292   2.793   3.928 -1.8947  0.6584 -0.3187
14838SOL    HW255734   8.323   2.928   4.015  0.2564  0.9303 -1.4656
14839SOL     OW55735   4.449   8.106   1.490 -0.0112 -0.0607 -0.1289
14839SOL    HW155736   4.539   8.084   1.452 -0.1353  0.4995 -0.7689
14839SOL    HW255737   4.381   8.101   1.417  0.0388  2.9727 -0.4808
14840SOL     OW55738   3.320   5.935   4.788  0.2346 -0.5889  0.0977
14840SOL    HW155739   3.414   5.968   4.786 -0.3013  1.0400  0.9297
14840SOL    HW255740   3.320   5.836   4.803  1.8167 -0.6950 -0.4646
14841SOL     OW55741   9.257   9.872   1.198  0.2763 -0.2791 -0.0134
14841SOL    HW155742   9.229   9.967   1.209  0.5436 -0.0358 -1.2965
14841SOL    HW255743   9.326   9.848   1.266 -1.4973 -0.2571  1.8300
14842SOL     OW55744   3.459   7.821   5.783  0.0930  0.3915  0.0527
14842SOL    HW155745   3.517   7.835   5.703 -2.0895 -0.6645 -1.7735
14842SOL    HW255746   3.364   7.844   5.761 -0.7698 -1.1323  1.9337
14843SOL     OW55747   4.453   1.938   5.530  0.2613  0.3371 -0.3067
14843SOL    HW155748   4.538   1.961   5.482  0.2814  0.8536 -0.0223
14843SOL    HW255749   4.437   1.840   5.522  1.2177  0.1380  0.1766
14844SOL     OW55750   8.813   2.411   2.245 -0.2872 -0.1744 -0.0233
14844SOL    HW155751   8.773   2.320   2.250  0.7271 -0.7426 -2.1793
14844SOL    HW255752   8.909   2.407   2.274 -0.0925  0.1215 -0.6335
14845SOL     OW55753   7.532   9.418   4.901  0.2342  0.0243  0.4379
14845SOL    HW155754   7.580   9.336   4.933  2.0744 -0.0777 -2.4589
14845SOL    HW255755   7.598   9.490   4.884 -0.9175  0.7145 -1.1874
14846SOL     OW55756   4.662   2.839   1.152  0.0376 -0.0026 -0.0147
14846SOL    HW155757   4.693   2.848   1.057 -1.1772  2.4392 -0.2033
14846SOL    HW255758   4.705   2.910   1.208 -0.6110 -0.3446  0.9258
14847SOL     OW55759   9.114   8.275   3.823  0.2495  0.6277 -0.4774
14847SOL    HW155760   9.067   8.304   3.906  0.0255 -0.1209 -0.3456
14847SOL    HW255761   9.048   8.237   3.758  0.5696  0.2502 -0.5829
14848SOL     OW55762   7.714   0.224   4.591 -0.4594 -0.1025  0.2449
14848SOL    HW155763   7.655   0.188   4.519  0.4516  2.6174 -1.9483
14848SOL    HW255764   7.808   0.232   4.558  0.5231 -1.3485  2.6460
14849SOL     OW55765   6.298   5.632   0.628 -0.1771  0.3619 -0.0392
14849SOL    HW155766   6.298   5.708   0.693  0.6980 -0.0879  0.4924
14849SOL    HW255767   6.245   5.555   0.665  1.6310 -0.4768  0.8423
14850SOL     OW55768   3.372   3.132   2.504  0.0020 -0.3684  0.3656
14850SOL    HW155769   3.358   3.181   2.419 -0.0075  2.0748  1.7421
14850SOL    HW255770   3.463   3.089   2.504  0.6221  0.9208 -0.2520
14851SOL     OW55771   6.433   4.327   0.172  0.6773  0.5092  0.4040
14851SOL    HW155772   6.454   4.234   0.201 -0.1227  0.2139  0.0564
14851SOL    HW255773   6.350   4.326   0.116 -0.7704  1.7631  2.4645
14852SOL     OW55774   2.574   1.201   3.767  0.0399 -0.3350  0.2329
14852SOL    HW155775   2.589   1.159   3.677  2.0505  2.0978 -0.6051
14852SOL    HW255776   2.622   1.148   3.837  1.8168  0.0276 -0.6922
14853SOL     OW55777   5.733   0.175   4.922  0.3678  0.1293 -0.1305
14853SOL    HW155778   5.816   0.222   4.952 -0.0650  0.0693  1.1809
14853SOL    HW255779   5.657   0.199   4.983 -0.0366 -1.6443  0.0952
14854SOL     OW55780   3.808   3.179   0.632  0.2856  0.5531 -0.0883
14854SOL    HW155781   3.801   3.174   0.532  2.7355  3.4413 -0.4694
14854SOL    HW255782   3.794   3.274   0.661  0.8303 -0.0653  2.2173
14855SOL     OW55783   2.099   2.162   2.515  0.6708 -0.0622  0.1331
14855SOL    HW155784   2.159   2.083   2.517 -0.4541 -1.0169 -2.0068
14855SOL    HW255785   2.017   2.141   2.461 -0.0217  2.2997  0.1806
14856SOL     OW55786   8.627   5.811   4.259 -0.5336 -0.4389  0.1699
14856SOL    HW155787   8.591   5.849   4.173  0.5540  0.7998  0.2392
14856SOL    HW255788   8.552   5.772   4.312 -1.7570  1.8208  0.1851
14857SOL     OW55789   9.082   3.291   0.677 -0.0895 -0.6271  0.2305
14857SOL    HW155790   9.117   3.373   0.722 -2.0103  0.1733  0.3019
14857SOL    HW255791   9.115   3.289   0.582  0.6177 -0.1930  0.4605
14858SOL     OW55792   4.156   5.339   6.332  0.2281  0.0878 -0.2952
14858SOL    HW155793   4.100   5.422   6.334  0.3012  0.1791 -1.5053
14858SOL    HW255794   4.106   5.267   6.284  0.9217 -0.0037 -0.8781
14859SOL     OW55795   9.531   4.818   4.237 -0.4052  0.7222 -0.1178
14859SOL    HW155796   9.480   4.753   4.294  0.1135  1.8435  1.6319
14859SOL    HW255797   9.609   4.771   4.196  0.2234  0.3246  1.4946
14860SOL     OW55798   6.398   8.465   3.535  0.1399  0.4576  0.2473
14860SOL    HW155799   6.494   8.456   3.561 -0.4314 -1.7776  1.7276
14860SOL    HW255800   6.390   8.529   3.458  3.0547 -0.9647 -1.3133
14861SOL     OW55801   7.549   3.517   0.884 -0.4338 -0.7991  0.0282
14861SOL    HW155802   7.644   3.487   0.899 -0.3874 -0.2704  0.7818
14861SOL    HW255803   7.489   3.471   0.949 -0.5755 -0.4295  0.1568
14862SOL     OW55804   2.884   6.375   3.131  0.3854 -0.1475 -0.1198
14862SOL    HW155805   2.802   6.319   3.144  1.1350 -0.7270  2.5119
14862SOL    HW255806   2.965   6.321   3.155  1.2609  1.4740  0.6228
14863SOL     OW55807   2.467   8.249   6.118 -0.4048 -0.6568  0.3362
14863SOL    HW155808   2.556   8.268   6.076 -1.2476 -0.4976 -1.4636
14863SOL    HW255809   2.468   8.277   6.214  1.4487 -0.5721  0.3084
14864SOL     OW55810   0.629   5.756   1.422 -0.2409 -0.5474 -0.4681
14864SOL    HW155811   0.623   5.809   1.506  0.0614  0.3929 -1.0290
14864SOL    HW255812   0.589   5.665   1.436 -1.7688  0.2086  0.1873
14865SOL     OW55813   2.090   9.308   0.779 -0.2730 -0.0685  0.3052
14865SOL    HW155814   2.153   9.260   0.841  1.0584 -0.9997 -1.7219
14865SOL    HW255815   2.015   9.247   0.755  0.2337 -0.3983 -0.4888
14866SOL     OW55816   8.433   7.623   2.961  0.0200  0.2876 -0.7980
14866SOL    HW155817   8.443   7.528   2.990 -2.0463  0.7632  1.7458
14866SOL    HW255818   8.500   7.644   2.890  1.0863 -2.7967 -0.7888
14867SOL     OW55819   6.361   1.006   5.068 -0.1580  0.2210 -0.4330
14867SOL    HW155820   6.281   0.968   5.020 -0.0331  1.0407 -1.3107
14867SOL    HW255821   6.414   0.931   5.108 -0.4569 -0.4573 -1.2852
14868SOL     OW55822   2.169   9.539   1.300  0.1539  0.6512  0.0292
14868SOL    HW155823   2.168   9.529   1.399 -2.2853 -2.4055 -0.2566
14868SOL    HW255824   2.098   9.603   1.272  0.0523  0.5914  0.1559
14869SOL     OW55825   5.580   0.029   1.778  0.1397  0.0961  0.0835
14869SOL    HW155826   5.503  -0.034   1.783  0.2578 -0.2119 -1.8539
14869SOL    HW255827   5.554   0.117   1.817  0.1119 -1.2355  3.2301
14870SOL     OW55828   1.318   9.717   0.670 -0.0167  0.3890  0.3207
14870SOL    HW155829   1.388   9.657   0.710 -0.3483 -1.0109 -1.1436
14870SOL    HW255830   1.247   9.661   0.628 -0.6203  1.8214 -0.5906
14871SOL     OW55831   9.970   0.133   1.168  0.1399  0.2866 -0.5091
14871SOL    HW155832  10.024   0.064   1.120 -0.1126  1.3249 -2.3417
14871SOL    HW255833   9.873   0.121   1.146 -0.0905  0.1541  0.5503
14872SOL     OW55834   6.571   4.539   0.262  0.1193  0.1098  0.3387
14872SOL    HW155835   6.516   4.462   0.231  0.8257 -0.1963 -0.1518
14872SOL    HW255836   6.512   4.620   0.272 -0.5042 -0.3292  0.2741
14873SOL     OW55837   8.732   5.288   3.642  0.1390 -0.2268 -0.5242
14873SOL    HW155838   8.717   5.209   3.700 -1.0545  0.0414 -0.4576
14873SOL    HW255839   8.801   5.266   3.572  0.7788 -0.8886  0.3075
14874SOL     OW55840   8.834   2.571   5.416 -0.4806  0.1200  0.2223
14874SOL    HW155841   8.930   2.551   5.397 -0.4659 -1.2430  1.6242
14874SOL    HW255842   8.799   2.506   5.484 -1.9124  1.6958  1.0313
14875SOL     OW55843   0.757   7.009   2.530  0.8146  0.0891 -0.4221
14875SOL    HW155844   0.683   6.947   2.505  0.1206  1.2541 -1.3352
14875SOL    HW255845   0.790   6.987   2.622 -0.7322 -0.3936  0.0371
14876SOL     OW55846   1.840   1.190   4.281 -0.3322  0.6835 -0.2644
14876SOL    HW155847   1.782   1.201   4.362 -1.2774 -1.3531 -0.6196
14876SOL    HW255848   1.924   1.243   4.292 -0.6938  0.8615  1.7943
14877SOL     OW55849   2.993   0.847   5.627  0.6308 -0.0124 -0.3924
14877SOL    HW155850   3.033   0.832   5.718  0.2507  0.7933 -0.0830
14877SOL    HW255851   3.005   0.765   5.571  0.5396 -0.6504  0.5101
14878SOL     OW55852   9.889   0.570   3.856 -0.0374  0.0581  0.2009
14878SOL    HW155853   9.985   0.597   3.848  0.0275 -0.0268  0.6839
14878SOL    HW255854   9.874   0.524   3.944 -0.3268 -0.7192 -0.2441
14879SOL     OW55855   4.046   1.245   3.415 -0.7006 -0.3910 -0.6372
14879SOL    HW155856   4.106   1.171   3.385 -0.9264 -0.9352  0.2302
14879SOL    HW255857   3.977   1.209   3.478 -0.5768  0.6210  0.1004
14880SOL     OW55858   0.080   4.291   1.809 -0.6654 -0.0713  0.4210
14880SOL    HW155859   0.150   4.286   1.739 -1.2127  2.5249 -0.3624
14880SOL    HW255860   0.044   4.199   1.828  1.2655 -1.1065 -0.8312
14881SOL     OW55861   9.417   5.549   0.481  0.3921  0.1378 -0.2238
14881SOL    HW155862   9.447   5.644   0.491  0.3710  0.3373 -1.9065
14881SOL    HW255863   9.494   5.493   0.451  1.0214 -0.8700  3.0917
14882SOL     OW55864   9.067   1.015   2.103  0.5395  0.2139 -0.1147
14882SOL    HW155865   9.014   1.061   2.032 -0.8703  0.7457  1.2712
14882SOL    HW255866   9.128   1.081   2.147 -0.5674  0.4947  1.0141
14883SOL     OW55867   3.692   6.956   3.770  0.5263 -0.0707  0.6759
14883SOL    HW155868   3.660   7.026   3.707  1.2301 -1.3281 -1.1240
14883SOL    HW255869   3.774   6.989   3.818  0.2644  0.7156  0.5885
14884SOL     OW55870   3.540   5.488   3.007  0.2885 -0.0965  0.1384
14884SOL    HW155871   3.499   5.573   2.974  1.0679  0.3914  0.4228
14884SOL    HW255872   3.574   5.435   2.929 -1.7319 -0.9506 -0.1777
14885SOL     OW55873   0.326   0.290   2.591  0.7828 -0.0541  0.5373
14885SOL    HW155874   0.397   0.295   2.520 -0.8203 -0.2454 -1.1347
14885SOL    HW255875   0.300   0.382   2.619  0.3526  0.0798 -0.2626
14886SOL     OW55876   7.218   8.704   2.619  0.3472 -0.5269  0.2991
14886SOL    HW155877   7.236   8.732   2.714 -1.4060  1.2815  0.1385
14886SOL    HW255878   7.303   8.710   2.567  1.3034 -1.4002  1.7019
14887SOL     OW55879   8.022   6.426   3.759  0.2929 -0.0508  0.7772
14887SOL    HW155880   7.958   6.424   3.836  1.8855  0.6161  2.1680
14887SOL    HW255881   8.057   6.334   3.742 -1.2673 -0.4714 -0.2047
14888SOL     OW55882   7.448   3.802   0.809 -0.2287  0.4885  0.1677
14888SOL    HW155883   7.521   3.737   0.829  0.7495  0.8761 -2.0198
14888SOL    HW255884   7.374   3.757   0.759 -0.1274  0.7619 -0.2337
14889SOL     OW55885   2.188   9.067   3.516 -0.3228 -0.3038 -0.0342
14889SOL    HW155886   2.159   9.074   3.611 -3.2774  0.3141 -0.9240
14889SOL    HW255887   2.133   8.997   3.470 -0.3493  0.8388 -1.7811
14890SOL     OW55888   1.826   6.135   4.700  0.1752  0.6047 -0.3185
14890SOL    HW155889   1.823   6.158   4.603 -0.7959 -0.1187 -0.4697
14890SOL    HW255890   1.823   6.036   4.711 -0.0040  0.6933  0.4487
14891SOL     OW55891   2.974   6.856   4.399 -0.0132 -0.7924  0.2619
14891SOL    HW155892   2.926   6.914   4.334  0.7683 -1.0915 -0.5828
14891SOL    HW255893   3.010   6.776   4.352 -2.0414 -2.5484  1.6104
14892SOL     OW55894   2.427   5.567   3.274  0.4047 -0.5718  0.0019
14892SOL    HW155895   2.399   5.504   3.201 -1.0390  0.4827 -0.3701
14892SOL    HW255896   2.501   5.625   3.240 -0.2692 -0.0783 -0.6224
14893SOL     OW55897   7.687   1.387   0.133  0.2839 -0.1889 -0.6129
14893SOL    HW155898   7.604   1.332   0.129 -0.5999  1.1536 -1.4693
14893SOL    HW255899   7.705   1.413   0.228 -0.8623  0.3346 -0.5211
14894SOL     OW55900   4.770   1.732   1.458 -0.1565 -1.0662 -0.3693
14894SOL    HW155901   4.846   1.698   1.513  1.8909  1.1359 -1.7361
14894SOL    HW255902   4.719   1.799   1.511 -0.4791 -1.7242  0.1591
14895SOL     OW55903   9.301   5.590   1.334  0.5201 -0.0714  0.3941
14895SOL    HW155904   9.254   5.675   1.359  2.9124  1.5226 -0.4024
14895SOL    HW255905   9.280   5.519   1.401 -0.2041  1.6100  1.9773
14896SOL     OW55906   7.427   4.134   6.240 -0.6753  0.1529  0.1107
14896SOL    HW155907   7.338   4.176   6.221 -0.8428 -0.3966 -0.3502
14896SOL    HW255908   7.413   4.037   6.260 -0.4460  0.5719  2.4532
14897SOL     OW55909   8.786   7.727   4.546  0.2146  0.6476 -0.0253
14897SOL    HW155910   8.804   7.636   4.582  0.2558  0.5142 -0.3775
14897SOL    HW255911   8.838   7.795   4.598  0.2839  0.4569  0.1532
14898SOL     OW55912   4.630   9.303   6.126 -0.6220 -0.3864  0.1024
14898SOL    HW155913   4.641   9.274   6.031  0.0016 -0.3017  0.1498
14898SOL    HW255914   4.687   9.246   6.185 -1.4549 -0.8229  0.4922
14899SOL     OW55915   9.352   0.142   2.861  0.1354 -0.1265  0.3682
14899SOL    HW155916   9.309   0.229   2.886 -0.3978 -0.3073  0.0892
14899SOL    HW255917   9.290   0.090   2.802  0.2805 -0.8876  0.8882
14900SOL     OW55918   4.598   8.454   3.265  0.2032  0.1706  0.7954
14900SOL    HW155919   4.692   8.422   3.278  0.9010  1.8058 -0.1218
14900SOL    HW255920   4.596   8.554   3.268 -1.0992  0.2650 -1.8897
14901SOL     OW55921   9.609   8.051   4.682  0.0852  0.5401  0.0555
14901SOL    HW155922   9.633   8.076   4.588  0.4236  1.2642  0.3407
14901SOL    HW255923   9.678   7.988   4.718  0.5885  1.2005  0.2407
14902SOL     OW55924   5.921   9.364   4.288  1.0160 -0.8894 -0.3199
14902SOL    HW155925   5.910   9.345   4.385 -0.8031  0.4769 -0.2372
14902SOL    HW255926   5.995   9.307   4.251  1.7724 -1.3672  1.8543
14903SOL     OW55927   2.041   1.976   0.603 -0.7984 -0.0824 -0.0977
14903SOL    HW155928   1.982   1.897   0.584 -0.1341 -1.3812  2.8714
14903SOL    HW255929   2.092   1.959   0.687 -0.1586  3.3002  0.2456
14904SOL     OW55930   9.420   0.648   1.129 -0.4192 -0.0731  0.0711
14904SOL    HW155931   9.412   0.635   1.030  1.4688 -0.3801 -0.0656
14904SOL    HW255932   9.432   0.560   1.174  0.0159  0.1700  0.4383
14905SOL     OW55933   2.296   2.529   1.797 -0.0667 -0.0995 -0.6614
14905SOL    HW155934   2.346   2.502   1.879  0.6159  1.0409 -0.6819
14905SOL    HW255935   2.270   2.448   1.745 -0.4723 -0.8296  0.6608
14906SOL     OW55936   2.495   6.279   0.612 -0.4572  0.3829  1.3830
14906SOL    HW155937   2.428   6.238   0.550  1.5849 -1.7587  0.5099
14906SOL    HW255938   2.516   6.215   0.686  1.5367  0.4723  0.9363
14907SOL     OW55939   1.286   2.258   3.877  0.4964  0.4915  0.0094
14907SOL    HW155940   1.248   2.337   3.829  0.3201 -0.0764 -0.7886
14907SOL    HW255941   1.214   2.213   3.930  0.2948  0.0465 -0.6456
14908SOL     OW55942   8.520   9.044   2.831 -0.3968 -0.1487  0.4592
14908SOL    HW155943   8.433   9.015   2.791  0.0536 -2.2319  0.9780
14908SOL    HW255944   8.595   9.013   2.774  0.0875  0.4134  0.7837
14909SOL     OW55945   7.850   2.888   6.282  0.5991 -0.1387 -0.4398
14909SOL    HW155946   7.874   2.835   6.364 -1.5243 -1.2382 -0.4925
14909SOL    HW255947   7.754   2.913   6.286  1.3303  2.9912 -0.8773
14910SOL     OW55948   3.308   3.097   5.474 -0.1470  0.0501 -0.3628
14910SOL    HW155949   3.373   3.039   5.424 -0.4690 -1.4285  0.8856
14910SOL    HW255950   3.281   3.051   5.558  0.6928  2.7106  1.4054
14911SOL     OW55951   8.960   8.193   1.673  0.2588 -0.1106 -0.1862
14911SOL    HW155952   8.862   8.176   1.658  0.1013 -0.2466  0.9549
14911SOL    HW255953   8.982   8.177   1.769  1.3800  0.0626 -0.4110
14912SOL     OW55954   8.305   8.641   4.944  0.0592 -0.7024 -0.0982
14912SOL    HW155955   8.324   8.544   4.927 -2.0264 -1.3500  1.1302
14912SOL    HW255956   8.379   8.681   4.998  0.4592 -1.8467  0.2057
14913SOL     OW55957   3.319   7.318   6.089  0.1909  0.2425  0.3864
14913SOL    HW155958   3.231   7.276   6.066  0.0798  0.0037  1.2462
14913SOL    HW255959   3.313   7.417   6.078 -0.2963  0.2631  0.7997
14914SOL     OW55960   4.429   9.764   4.478  0.5274 -0.4398 -0.4155
14914SOL    HW155961   4.423   9.712   4.393 -0.7850  0.3828 -0.8488
14914SOL    HW255962   4.385   9.712   4.552 -0.2290 -0.2285 -0.7114
14915SOL     OW55963   5.292   9.974   3.933 -0.5899  0.3762  1.0219
14915SOL    HW155964   5.279  10.067   3.899  0.0620  0.0710 -0.0767
14915SOL    HW255965   5.388   9.948   3.922 -1.0783 -1.0034 -0.1324
14916SOL     OW55966   6.348   9.252   2.727  0.6048  0.5377  0.5878
14916SOL    HW155967   6.266   9.194   2.727  1.5523 -0.8596  2.2090
14916SOL    HW255968   6.321   9.347   2.744 -1.0593  0.7944 -3.0162
14917SOL     OW55969   4.882   3.669   4.815  0.3699 -0.4873  0.3901
14917SOL    HW155970   4.942   3.725   4.873  0.3804 -0.1565  0.0599
14917SOL    HW255971   4.818   3.618   4.872  0.4596 -0.2524  0.6984
14918SOL     OW55972   0.047   3.134   0.458  0.0394  0.2860  0.5723
14918SOL    HW155973   0.058   3.233   0.457  0.0476  0.3345 -3.4571
14918SOL    HW255974   0.136   3.091   0.442 -0.2119 -0.3372  0.8325
14919SOL     OW55975   4.949   1.649   5.546  0.2911 -0.2388 -0.0671
14919SOL    HW155976   4.941   1.695   5.458  0.0804 -0.4740 -0.1736
14919SOL    HW255977   4.862   1.656   5.595  0.2684 -0.4943 -0.0700
14920SOL     OW55978   0.789   3.993   3.116  1.1536  0.0105 -0.4322
14920SOL    HW155979   0.867   4.043   3.076  1.2551 -2.1711 -3.0811
14920SOL    HW255980   0.717   3.984   3.047  0.2680 -1.6212  0.6868
14921SOL     OW55981   1.626   3.108   1.729  0.0823 -0.9437  0.4451
14921SOL    HW155982   1.544   3.053   1.746 -0.5892  0.1946  0.9617
14921SOL    HW255983   1.609   3.202   1.758  1.0966 -0.3854 -0.7534
14922SOL     OW55984   1.490   6.487   2.186 -0.2484 -0.7700  0.0866
14922SOL    HW155985   1.562   6.542   2.143 -1.2205 -0.4151 -1.0960
14922SOL    HW255986   1.527   6.396   2.206  0.7762 -0.3302  0.2361
14923SOL     OW55987   2.548   5.858   2.647  0.2778 -0.4421 -0.0647
14923SOL    HW155988   2.487   5.804   2.705 -1.2420  2.1120  0.7766
14923SOL    HW255989   2.576   5.941   2.695  2.1930 -0.1931 -1.5138
14924SOL     OW55990   9.156   9.742   2.316 -0.0974  0.0205 -0.1092
14924SOL    HW155991   9.202   9.682   2.381  1.6043  0.6687 -0.6608
14924SOL    HW255992   9.114   9.688   2.244  0.6933 -0.5656 -0.1433
14925SOL     OW55993   4.689   3.570   4.987  0.8065  0.3778  0.2054
14925SOL    HW155994   4.609   3.513   5.006 -0.3515  1.2373 -1.9171
14925SOL    HW255995   4.666   3.666   5.001  1.5282  0.6226 -0.2471
14926SOL     OW55996   4.097   2.421   6.562  0.7893 -0.2009  0.2614
14926SOL    HW155997   4.181   2.392   6.608  1.4723  1.1452 -0.1106
14926SOL    HW255998   4.113   2.428   6.464 -0.1850 -1.3785  0.0019
14927SOL     OW55999   4.657   0.620   1.920 -0.1279 -0.1505 -0.4973
14927SOL    HW156000   4.696   0.712   1.925  0.2752 -0.4411  2.6134
14927SOL    HW256001   4.724   0.558   1.879  0.4831  0.4905 -0.4823
14928SOL     OW56002   5.574   1.895   2.364 -0.6771  0.1057 -0.3215
14928SOL    HW156003   5.484   1.855   2.346 -0.0682 -0.6802 -1.7363
14928SOL    HW256004   5.632   1.829   2.412 -0.5537  0.2724 -0.2395
14929SOL     OW56005   8.598   9.032   3.496  0.1438  0.1100 -0.4716
14929SOL    HW156006   8.502   9.058   3.492 -0.3521 -1.7332 -1.3458
14929SOL    HW256007   8.607   8.948   3.550  1.1567 -0.1255 -0.9924
14930SOL     OW56008   8.335   2.260   4.591 -0.4241 -0.2290 -0.2149
14930SOL    HW156009   8.337   2.186   4.523 -1.1630 -0.7394  0.3028
14930SOL    HW256010   8.257   2.246   4.652 -1.1491  1.5472 -0.7280
14931SOL     OW56011   1.941   4.938   3.698 -0.3812  0.2234 -0.6592
14931SOL    HW156012   1.933   4.919   3.796  2.5943 -1.7096 -0.7166
14931SOL    HW256013   1.919   4.855   3.647  0.2737  0.5737 -1.5172
14932SOL     OW56014   7.919   6.264   0.727  0.0903  0.1950  0.2050
14932SOL    HW156015   7.953   6.309   0.810  0.0808  0.0432  0.2920
14932SOL    HW256016   7.957   6.308   0.647  1.2755 -0.6043  0.3183
14933SOL     OW56017   9.677   5.747   1.141  0.1900  0.4684 -0.0528
14933SOL    HW156018   9.674   5.724   1.043  0.7043 -0.7119  0.1975
14933SOL    HW256019   9.651   5.666   1.194  0.9155  0.8047  0.8165
14934SOL     OW56020   9.745   3.797   4.342  0.1517 -0.2900 -0.3958
14934SOL    HW156021   9.665   3.738   4.331 -0.3274  0.2711  0.0672
14934SOL    HW256022   9.783   3.785   4.434 -0.3397  0.6206 -0.0771
14935SOL     OW56023   9.125   2.504   6.112 -0.0795 -0.0136 -0.0828
14935SOL    HW156024   9.101   2.581   6.171  2.0350 -0.1382  0.9919
14935SOL    HW256025   9.202   2.454   6.152 -1.1741 -2.4810 -0.9462
14936SOL     OW56026   0.510   6.089   5.896 -0.5779 -0.3789  0.1362
14936SOL    HW156027   0.554   6.083   5.986 -0.2760  0.1165  0.0243
14936SOL    HW256028   0.442   6.162   5.897  0.8035  0.9489 -0.6071
14937SOL     OW56029   6.481   8.344   4.905 -0.2003 -0.2038 -0.9161
14937SOL    HW156030   6.455   8.288   4.827  0.7017 -1.5022 -0.2983
14937SOL    HW256031   6.463   8.295   4.990  0.9861  0.2616 -0.3798
14938SOL     OW56032   3.276   3.078   6.343  0.2832 -0.4575  0.0881
14938SOL    HW156033   3.309   2.989   6.314  0.2194 -1.1956  2.1466
14938SOL    HW256034   3.183   3.093   6.308 -0.1360 -1.6937  0.6533
14939SOL     OW56035   7.108   5.057   0.612  0.2166 -0.1112 -0.0246
14939SOL    HW156036   7.107   4.968   0.566  0.4519 -0.5240  0.7591
14939SOL    HW256037   7.091   5.044   0.709 -1.4792  0.8671 -0.1684
14940SOL     OW56038   7.257   0.027   4.406 -0.2124  0.6435  0.6381
14940SOL    HW156039   7.309  -0.059   4.403  0.5097  1.0622  1.1282
14940SOL    HW256040   7.282   0.078   4.488 -2.0585  0.4378  1.3616
14941SOL     OW56041   2.185   0.266   5.764  0.2417  0.2548  0.3617
14941SOL    HW156042   2.135   0.180   5.774 -0.2801  0.7250  1.8298
14941SOL    HW256043   2.280   0.255   5.793  0.4858 -0.1190 -0.5565
14942SOL     OW56044   0.426   1.286   2.008  0.3150 -0.7147 -0.6108
14942SOL    HW156045   0.485   1.217   2.051 -0.0057 -0.4669  0.2331
14942SOL    HW256046   0.481   1.344   1.947  0.8166 -0.9127 -0.3464
14943SOL     OW56047   3.234   7.201   2.794  0.1187  0.6945 -0.6387
14943SOL    HW156048   3.149   7.150   2.780  0.7557 -0.7715  0.6144
14943SOL    HW256049   3.258   7.198   2.891  1.4149  1.4030 -0.9305
14944SOL     OW56050   9.833   0.137   0.652  0.4078  0.1198  0.4974
14944SOL    HW156051   9.911   0.088   0.689 -0.0789  0.3635  1.8833
14944SOL    HW256052   9.754   0.125   0.712  0.3670  2.8791  1.0768
14945SOL     OW56053   5.242   0.533   1.255 -0.0195  0.4953  0.8677
14945SOL    HW156054   5.335   0.545   1.218 -0.4321  0.3303 -0.2587
14945SOL    HW256055   5.197   0.458   1.207 -0.7712  0.6491  1.3343
14946SOL     OW56056   0.172   5.028   4.434 -0.1255 -0.4721 -0.2917
14946SOL    HW156057   0.222   5.107   4.398 -1.1361  0.5172  0.4393
14946SOL    HW256058   0.237   4.964   4.476  0.6736  0.0832 -0.6682
14947SOL     OW56059   5.691   8.724   2.703  0.1646 -0.3693 -0.4913
14947SOL    HW156060   5.617   8.788   2.725 -1.8106 -2.4902 -0.7791
14947SOL    HW256061   5.753   8.716   2.781 -0.4383  0.6917  0.1028
14948SOL     OW56062   0.880   7.495   6.229  0.2233  0.0407 -0.1192
14948SOL    HW156063   0.842   7.409   6.195 -2.0597  1.0182 -0.0850
14948SOL    HW256064   0.964   7.476   6.280 -0.7627 -2.2769  0.7062
14949SOL     OW56065   9.253   9.586   2.533  0.3983 -0.0567  0.5481
14949SOL    HW156066   9.349   9.563   2.522  0.2010  0.0885 -1.6484
14949SOL    HW256067   9.204   9.505   2.566  0.4532 -1.7181 -3.1202
14950SOL     OW56068   3.004   7.848   2.529  0.6802 -0.4059  0.8730
14950SOL    HW156069   2.984   7.886   2.620  2.1251  0.4680  0.8445
14950SOL    HW256070   3.003   7.748   2.533 -2.2184 -0.4189  1.1760
14951SOL     OW56071   2.520   9.638   1.767 -0.1090 -0.4522 -0.1276
14951SOL    HW156072   2.478   9.702   1.831 -0.2196  1.7728 -2.3955
14951SOL    HW256073   2.449   9.579   1.727 -0.1930 -1.0167  0.8288
14952SOL     OW56074   4.340   8.850   2.475  0.4496 -0.3224  0.2568
14952SOL    HW156075   4.384   8.924   2.424 -0.2477 -0.7517 -1.0005
14952SOL    HW256076   4.388   8.764   2.457  0.5732 -0.3737  0.8199
14953SOL     OW56077   9.221   7.857   3.361  0.3287  0.5854  0.1725
14953SOL    HW156078   9.151   7.800   3.319 -0.7661  1.2760  1.0289
14953SOL    HW256079   9.302   7.802   3.383 -0.5334 -0.5259  0.5730
14954SOL     OW56080   0.794   2.848   3.777 -0.1088  0.0979  0.4532
14954SOL    HW156081   0.751   2.789   3.709  3.7213 -0.3609 -1.7179
14954SOL    HW256082   0.820   2.794   3.856 -2.1369  0.1226  1.1758
14955SOL     OW56083   2.006   5.663   4.766 -0.2137 -0.1070  0.5582
14955SOL    HW156084   2.042   5.738   4.821 -0.5845  0.6819 -0.2690
14955SOL    HW256085   2.030   5.576   4.809 -1.4575  0.4991  2.5754
14956SOL     OW56086   8.675   3.338   0.803 -0.6893 -0.1020 -0.3195
14956SOL    HW156087   8.731   3.260   0.833 -0.2650  0.5243  0.5676
14956SOL    HW256088   8.578   3.315   0.813 -0.5633 -0.2173  0.7660
14957SOL     OW56089   8.755   2.136   5.045 -0.0178  0.5415  0.1958
14957SOL    HW156090   8.676   2.196   5.060  0.0570  0.6451  0.1643
14957SOL    HW256091   8.778   2.135   4.948 -0.0438  0.4310  0.1908
14958SOL     OW56092   4.700   0.055   3.309 -0.7363 -0.0335 -0.4542
14958SOL    HW156093   4.635   0.118   3.265 -3.1686 -0.0032  2.9456
14958SOL    HW256094   4.735   0.096   3.393  0.0844 -1.9446  0.1789
14959SOL     OW56095   6.365   5.055   1.006  0.1532  0.4255  0.0066
14959SOL    HW156096   6.345   5.153   1.007  0.9207  0.5767  0.4913
14959SOL    HW256097   6.384   5.026   0.912 -0.6467  0.6216 -0.2201
14960SOL     OW56098   7.482   7.341   5.337  0.2901  0.6373 -0.6956
14960SOL    HW156099   7.556   7.389   5.384  0.4097  0.3823 -0.6250
14960SOL    HW256100   7.474   7.248   5.373 -1.2723  1.2373  0.6141
14961SOL     OW56101   9.252   2.926   2.605  0.5724 -0.0380 -0.3364
14961SOL    HW156102   9.158   2.950   2.581  1.5504  2.2217 -2.0777
14961SOL    HW256103   9.293   2.874   2.529  2.4123  3.7187 -2.0801
14962SOL     OW56104   1.421   7.539   4.960  0.3192 -0.4532  0.2605
14962SOL    HW156105   1.417   7.487   5.046 -0.9658 -1.2618 -0.2705
14962SOL    HW256106   1.482   7.493   4.896 -0.8909 -1.3765 -0.2427
14963SOL     OW56107   2.052   7.822   5.318  0.4696  0.5704  0.3486
14963SOL    HW156108   2.141   7.819   5.273  0.6050  0.6809  0.6072
14963SOL    HW256109   2.058   7.775   5.406  0.6601  1.8727  1.0424
14964SOL     OW56110   8.096   1.326   4.443  0.5194  0.0524  0.5706
14964SOL    HW156111   8.093   1.359   4.537 -1.0800  0.5996  0.3480
14964SOL    HW256112   8.063   1.231   4.440  1.4839 -0.2852  0.6937
14965SOL     OW56113   2.101   2.017   3.829 -0.7654  0.2586 -0.5215
14965SOL    HW156114   2.133   1.972   3.913 -0.4140  1.3848 -0.0375
14965SOL    HW256115   2.133   1.966   3.749 -1.4089 -1.0236  0.0324
14966SOL     OW56116   8.320   2.008   6.081 -0.2774  0.3073 -0.1883
14966SOL    HW156117   8.314   1.914   6.116  0.5091 -0.6115 -2.4197
14966SOL    HW256118   8.414   2.041   6.089 -0.4197  0.6574  0.0168
14967SOL     OW56119   2.940   9.485   6.631  0.3757 -0.0103  0.5373
14967SOL    HW156120   2.899   9.495   6.721  1.2378  0.3259  0.8931
14967SOL    HW256121   2.969   9.391   6.617 -0.9737 -0.3721  0.0821
14968SOL     OW56122   2.336   3.274   2.714 -0.0199 -0.0400 -0.3678
14968SOL    HW156123   2.428   3.311   2.725 -0.5185  0.8212  1.0617
14968SOL    HW256124   2.281   3.340   2.662 -0.3776  0.3733  0.5235
14969SOL     OW56125   3.186   0.768   5.835 -0.6732 -0.1162  0.4526
14969SOL    HW156126   3.273   0.733   5.799 -1.8061 -2.4234 -0.1388
14969SOL    HW256127   3.203   0.853   5.885  1.8311 -0.1877 -0.1860
14970SOL     OW56128   7.678   9.509   0.217 -0.7320 -0.1413 -0.0469
14970SOL    HW156129   7.654   9.585   0.277 -1.6485 -0.7426  0.3734
14970SOL    HW256130   7.714   9.543   0.131 -0.0644  0.7459  0.5762
14971SOL     OW56131   1.547   5.821   0.583  0.2021 -0.4585 -0.1884
14971SOL    HW156132   1.530   5.828   0.681  1.9825 -0.5661  0.1287
14971SOL    HW256133   1.614   5.890   0.555  0.5837 -1.1915 -1.1129
14972SOL     OW56134   4.619   8.920   4.119  0.4785  0.0761 -0.1508
14972SOL    HW156135   4.581   8.829   4.102 -0.4962  0.2040  1.2814
14972SOL    HW256136   4.544   8.986   4.129  1.1787  1.0319 -1.0805
14973SOL     OW56137   4.721   7.706   4.319 -0.1515 -1.0273 -0.1832
14973SOL    HW156138   4.648   7.685   4.254 -0.2712 -1.1006 -0.0259
14973SOL    HW256139   4.763   7.794   4.295 -0.8863 -0.5493  0.2448
14974SOL     OW56140   8.495   3.705   3.355  0.0517 -0.3722 -0.2977
14974SOL    HW156141   8.512   3.607   3.350  1.2099 -0.2772  1.3441
14974SOL    HW256142   8.568   3.749   3.407 -0.5320  1.3405 -0.8924
14975SOL     OW56143   8.112   5.434   6.156  0.3460  0.0183 -0.5626
14975SOL    HW156144   8.202   5.392   6.140  1.0807  0.9527  1.0016
14975SOL    HW256145   8.059   5.377   6.219  1.5770  1.6267  2.0500
14976SOL     OW56146   6.945   8.791   2.556 -0.3088 -0.2295 -0.0986
14976SOL    HW156147   7.037   8.771   2.592 -0.2299  0.4399  0.0795
14976SOL    HW256148   6.902   8.707   2.525  0.5348 -0.4930 -0.5635
14977SOL     OW56149   8.838   3.788   3.065 -0.1917  0.5430 -0.5685
14977SOL    HW156150   8.768   3.852   3.034 -0.4407  0.6244  0.1446
14977SOL    HW256151   8.856   3.804   3.162  1.3399  1.0075 -0.9202
14978SOL     OW56152   0.668   9.765   2.910 -0.3438  0.2489 -0.0142
14978SOL    HW156153   0.630   9.681   2.871 -0.1329  0.4477 -0.6474
14978SOL    HW256154   0.709   9.820   2.837 -0.2999  0.8047  0.4307
14979SOL     OW56155   9.187   2.169   2.448 -0.0877 -0.0484  0.5604
14979SOL    HW156156   9.270   2.185   2.395 -1.6956 -0.0142 -2.0495
14979SOL    HW256157   9.204   2.188   2.545  2.7014  0.6891 -0.0445
14980SOL     OW56158   4.273   1.606   5.946 -0.1047 -0.0473 -0.1623
14980SOL    HW156159   4.224   1.554   6.016  0.2793  0.7550  0.7129
14980SOL    HW256160   4.214   1.679   5.911  0.0006  0.0854 -0.0626
14981SOL     OW56161   2.325   1.762   5.655  0.0856 -0.0566  0.0891
14981SOL    HW156162   2.292   1.671   5.682 -2.2579  1.0236  1.0609
14981SOL    HW256163   2.254   1.808   5.602  1.5732  0.9220 -1.0893
14982SOL     OW56164   5.814   4.482   0.959 -0.6323  0.6641 -0.2962
14982SOL    HW156165   5.795   4.400   0.906  0.2508  1.0675 -1.2649
14982SOL    HW256166   5.783   4.469   1.053 -2.8312  0.1898 -1.0529
14983SOL     OW56167   0.753   1.687   0.026 -0.0973 -0.2462  0.2391
14983SOL    HW156168   0.850   1.708   0.012 -0.1976  0.1819  0.1580
14983SOL    HW256169   0.710   1.668  -0.063 -0.2029  0.0960  0.2140
14984SOL     OW56170   7.985   2.004   3.987  0.2178  0.5731 -0.2694
14984SOL    HW156171   7.944   1.959   4.066  2.1348  0.3941  0.6274
14984SOL    HW256172   7.996   1.938   3.913  0.0622  0.3235 -0.0703
14985SOL     OW56173   6.872   5.060   0.020 -0.5643  0.4778  0.1771
14985SOL    HW156174   6.961   5.100   0.045  0.1162  0.6896 -2.4127
14985SOL    HW256175   6.808   5.133  -0.002  0.3521  0.2811 -3.4793
14986SOL     OW56176   9.281   0.077   4.589  0.0658  0.5747 -0.7441
14986SOL    HW156177   9.350   0.038   4.649  1.0269  0.6387 -1.7983
14986SOL    HW256178   9.301   0.174   4.574 -1.2205  1.0233  0.3090
14987SOL     OW56179   4.700   0.302   6.236 -0.0909 -0.4239  0.3956
14987SOL    HW156180   4.642   0.231   6.275 -1.5425  0.5839  0.0848
14987SOL    HW256181   4.712   0.285   6.138  0.3982 -0.8007  0.5184
14988SOL     OW56182   7.996   4.434   0.661  0.6021 -0.0172  0.3212
14988SOL    HW156183   8.018   4.514   0.606 -0.0726  1.3145  1.9220
14988SOL    HW256184   8.062   4.425   0.735  0.3630 -0.6344  0.4647
14989SOL     OW56185   9.061   3.919   4.692 -1.0250 -0.7286 -0.3183
14989SOL    HW156186   8.995   3.850   4.661 -0.0814 -1.5096 -0.6102
14989SOL    HW256187   9.022   3.970   4.769 -2.7703  0.1957 -1.7879
14990SOL     OW56188   9.228   8.474   2.027 -0.4430  0.1010  1.0772
14990SOL    HW156189   9.185   8.513   2.109 -0.5722 -2.3406  2.2313
14990SOL    HW256190   9.159   8.461   1.956 -0.5231  1.3154  0.9299
14991SOL     OW56191   0.658   8.403   6.224 -0.3387  0.3031  0.3005
14991SOL    HW156192   0.663   8.499   6.197 -1.4522  0.4613  0.6355
14991SOL    HW256193   0.618   8.396   6.316 -0.6763 -0.5013  0.0948
14992SOL     OW56194   2.146   0.493   6.635 -0.1158 -0.1239 -0.1402
14992SOL    HW156195   2.080   0.453   6.698  0.9571 -2.0964 -0.2245
14992SOL    HW256196   2.182   0.578   6.674  0.6469 -1.3947  2.0207
14993SOL     OW56197   7.751   4.017   5.469 -0.0653 -0.1727 -0.4089
14993SOL    HW156198   7.819   3.978   5.531  0.8041  1.1195 -0.5409
14993SOL    HW256199   7.735   3.953   5.393 -1.4305 -1.9456  1.3015
14994SOL     OW56200   3.410   7.380   3.200  0.2200  0.2396 -0.1148
14994SOL    HW156201   3.394   7.412   3.107 -0.7141 -1.2832 -0.4795
14994SOL    HW256202   3.505   7.349   3.209  0.7353  1.7282 -0.1399
14995SOL     OW56203   1.168   0.353   1.563  0.2136 -0.1591  0.0595
14995SOL    HW156204   1.220   0.317   1.640  0.1680  0.1430  0.2331
14995SOL    HW256205   1.180   0.293   1.483 -1.4024 -1.6174  0.8839
14996SOL     OW56206   3.884   4.048   1.653  0.2770  0.1301 -0.1015
14996SOL    HW156207   3.858   3.965   1.604 -0.9241  0.6669 -0.3872
14996SOL    HW256208   3.978   4.073   1.629  0.8732 -1.4790  0.4605
14997SOL     OW56209   9.321   8.956   6.367  0.0878 -0.6408  0.2888
14997SOL    HW156210   9.393   8.944   6.435  0.2408 -2.3087 -0.1679
14997SOL    HW256211   9.358   9.004   6.287  0.9134 -2.2616 -0.3122
14998SOL     OW56212   8.871   1.777   3.593 -0.0418  0.3720  0.4843
14998SOL    HW156213   8.964   1.778   3.558 -0.1169 -1.3560  0.2052
14998SOL    HW256214   8.867   1.829   3.679  1.3496 -0.2312  0.9333
14999SOL     OW56215   0.249   3.819   4.360 -0.1076  0.3377  0.5462
14999SOL    HW156216   0.334   3.865   4.386 -0.1299  0.2317  0.8119
14999SOL    HW256217   0.266   3.721   4.346 -0.1074  0.3849  0.2156
15000SOL     OW56218   4.026   4.740   2.618  0.9345  0.3251  0.3279
15000SOL    HW156219   4.043   4.757   2.521  0.0664  3.5742  0.6784
15000SOL    HW256220   4.088   4.670   2.652  1.0293 -1.0766 -2.6408
15001SOL     OW56221   7.552   7.509   3.395  0.2060 -0.0686 -0.2899
15001SOL    HW156222   7.581   7.414   3.406  0.0797 -0.0848 -0.0896
15001SOL    HW256223   7.574   7.561   3.477  0.4668  0.1263 -0.4824
15002SOL     OW56224   3.449   5.042   6.538 -0.4800 -0.2336 -0.0810
15002SOL    HW156225   3.408   4.963   6.492 -0.5726 -1.1842  1.5957
15002SOL    HW256226   3.527   5.013   6.592 -0.0376  0.9510 -0.0686
15003SOL     OW56227   2.400   8.570   3.343  0.3289 -0.1828  0.7917
15003SOL    HW156228   2.413   8.656   3.392 -1.2089  0.6854 -0.3201
15003SOL    HW256229   2.314   8.527   3.371 -0.3408  0.0904 -0.7865
15004SOL     OW56230   9.863   8.917   3.160  0.3282 -0.5196  0.7130
15004SOL    HW156231   9.803   8.865   3.221  0.9112 -2.9069 -0.6452
15004SOL    HW256232   9.948   8.941   3.207  0.8209 -2.4381  0.8449
15005SOL     OW56233   1.787   1.481   1.796 -0.4287 -0.0204  0.0203
15005SOL    HW156234   1.856   1.455   1.729  0.0219  1.2834 -0.0369
15005SOL    HW256235   1.726   1.550   1.756 -0.3532  0.5312  0.8474
15006SOL     OW56236   0.081   0.925   6.269 -0.0774 -0.7875 -0.2580
15006SOL    HW156237   0.076   0.844   6.327 -0.6041 -0.1945  0.5364
15006SOL    HW256238   0.028   0.999   6.311 -0.5793 -0.3918 -1.5631
15007SOL     OW56239   8.643   3.108   3.184 -0.2959 -0.3202  0.0707
15007SOL    HW156240   8.743   3.102   3.187 -0.2542  0.2695 -0.1068
15007SOL    HW256241   8.604   3.039   3.246  0.2627  1.1326  2.0931
15008SOL     OW56242   2.279   3.597   5.344 -0.0255  0.2793 -0.7471
15008SOL    HW156243   2.208   3.559   5.404  0.1124  0.2046 -0.6320
15008SOL    HW256244   2.334   3.663   5.395  1.1105 -0.9703 -0.3420
15009SOL     OW56245   7.981   0.209   2.279  0.0138  0.2748  0.2860
15009SOL    HW156246   8.076   0.223   2.307 -0.0954 -1.8846  1.9123
15009SOL    HW256247   7.925   0.190   2.360 -1.0623 -2.2717 -1.0107
15010SOL     OW56248   8.918   7.124   0.530 -0.1521  0.0023 -0.0712
15010SOL    HW156249   8.875   7.068   0.600 -2.6346 -1.1121 -2.4205
15010SOL    HW256250   8.984   7.069   0.478  1.1074  0.6164  0.8590
15011SOL     OW56251   0.313   5.246   1.313  1.1950 -0.6271 -0.2444
15011SOL    HW156252   0.297   5.339   1.278  0.5361 -0.4374  0.5535
15011SOL    HW256253   0.363   5.252   1.399 -1.0491 -0.8843  1.1137
15012SOL     OW56254   2.944   8.234   6.238 -0.6511  0.4551  0.6208
15012SOL    HW156255   2.938   8.166   6.165 -2.4081  0.3491  0.8435
15012SOL    HW256256   2.855   8.242   6.284 -0.6691  3.3777  0.1815
15013SOL     OW56257   0.887   8.957   5.156  0.5325 -0.0036 -0.9759
15013SOL    HW156258   0.857   8.927   5.065  0.2515  0.1127 -0.9199
15013SOL    HW256259   0.808   8.985   5.210  0.6751 -0.3408 -0.5975
15014SOL     OW56260   3.591   2.200   0.398  0.3802 -0.3756  0.3955
15014SOL    HW156261   3.559   2.273   0.458 -2.1700 -0.8707 -0.3007
15014SOL    HW256262   3.680   2.168   0.429 -0.0988  0.5636  2.8710
15015SOL     OW56263   2.731   3.210   4.013 -0.0480 -0.1196  0.3012
15015SOL    HW156264   2.638   3.242   3.999 -0.3641 -0.8489  0.7101
15015SOL    HW256265   2.737   3.162   4.101  0.0160 -2.5867 -0.9902
15016SOL     OW56266   8.562   0.717   6.034 -0.7832  0.7263 -0.2504
15016SOL    HW156267   8.609   0.798   5.999 -1.3414  0.6162 -1.2823
15016SOL    HW256268   8.485   0.745   6.091 -1.6445  0.9525 -1.4957
15017SOL     OW56269   4.057   4.965   0.221  0.1361  1.1628  0.0360
15017SOL    HW156270   4.021   4.912   0.144  0.4538  0.2079  0.5409
15017SOL    HW256271   4.113   5.040   0.186 -0.5217  1.3257 -0.6904
15018SOL     OW56272   4.775   4.949   3.648 -0.0571  0.0898  0.3232
15018SOL    HW156273   4.805   4.898   3.568 -0.5953  0.6069 -0.2156
15018SOL    HW256274   4.738   4.886   3.716 -0.3729 -0.2748 -0.1848
15019SOL     OW56275   1.218   5.811   3.564 -0.0076 -0.4430 -0.2071
15019SOL    HW156276   1.140   5.796   3.504 -0.3658 -2.0935  0.6572
15019SOL    HW256277   1.286   5.867   3.516  0.3635 -2.9047 -2.7184
15020SOL     OW56278   1.761   9.664   3.255 -0.6141  0.5349 -0.2067
15020SOL    HW156279   1.810   9.733   3.308  0.3146 -0.5596  0.3876
15020SOL    HW256280   1.825   9.617   3.194 -0.9489 -0.7395  0.4034
15021SOL     OW56281   5.945   4.136   0.104  0.5431 -0.4745 -0.0745
15021SOL    HW156282   5.863   4.094   0.143  0.8938 -2.1912 -1.1101
15021SOL    HW256283   6.004   4.167   0.178 -0.4729 -0.3512  0.6994
15022SOL     OW56284   3.468   5.724   5.434 -0.3104  0.0100 -0.0339
15022SOL    HW156285   3.384   5.777   5.423  0.4872  1.5164  0.9722
15022SOL    HW256286   3.497   5.689   5.345 -1.1362  0.8478 -0.6438
15023SOL     OW56287   0.421   9.120   4.788 -0.1508  0.0493 -1.0073
15023SOL    HW156288   0.462   9.158   4.871  2.5508 -1.4560 -1.5908
15023SOL    HW256289   0.445   9.023   4.780 -1.4165 -0.1316 -2.9331
15024SOL     OW56290   3.586   0.418   2.212 -0.4272  0.1512  0.1366
15024SOL    HW156291   3.672   0.399   2.163  0.0116  1.0813  0.5469
15024SOL    HW256292   3.509   0.394   2.153  0.1024 -1.9209  0.2439
15025SOL     OW56293   3.455   1.526   3.672 -0.4913  0.2752  0.7552
15025SOL    HW156294   3.451   1.427   3.688  0.4887  0.1767  0.3885
15025SOL    HW256295   3.364   1.565   3.686 -0.7666 -0.5939  1.4368
15026SOL     OW56296   2.663   3.306   6.518  0.4637 -0.0743 -0.1422
15026SOL    HW156297   2.638   3.392   6.474 -1.5459 -0.9007 -0.6797
15026SOL    HW256298   2.592   3.280   6.583  2.3499  0.0040  2.0205
15027SOL     OW56299   4.070   0.628   1.183 -0.6048  0.2064  0.5499
15027SOL    HW156300   3.992   0.577   1.220 -1.0555  1.5178  1.4483
15027SOL    HW256301   4.153   0.600   1.230 -0.3357 -1.9464 -1.1169
15028SOL     OW56302   1.080   4.793   4.143  0.2267 -0.5401  0.0382
15028SOL    HW156303   1.017   4.795   4.065 -0.1687 -0.1722  0.3675
15028SOL    HW256304   1.099   4.887   4.172  2.4855 -0.5316 -1.3160
15029SOL     OW56305   3.884   5.005   1.600  0.0432 -0.0434  0.4452
15029SOL    HW156306   3.929   4.942   1.536  0.2878  0.3326  0.2438
15029SOL    HW256307   3.946   5.023   1.676  0.6311  1.2356 -0.3134
15030SOL     OW56308   2.639   2.606   2.116  0.2613 -0.0937 -0.9729
15030SOL    HW156309   2.547   2.590   2.080 -0.0616 -0.0584 -0.1868
15030SOL    HW256310   2.683   2.679   2.064 -0.3195  0.1854 -1.0808
15031SOL     OW56311   4.052   4.978   4.668  0.2332  0.5456 -0.1186
15031SOL    HW156312   4.065   5.009   4.574  0.0298  0.1255 -0.2882
15031SOL    HW256313   4.094   5.043   4.731 -0.5386  1.3647 -0.4392
15032SOL     OW56314   7.084   0.171   1.180  0.3580  0.1997 -0.7013
15032SOL    HW156315   7.151   0.143   1.249  0.2512  0.8527 -0.3253
15032SOL    HW256316   6.992   0.163   1.218  0.3228  0.9722 -0.6223
15033SOL     OW56317   3.280   6.822   0.388 -0.1524 -0.4300  0.0420
15033SOL    HW156318   3.351   6.787   0.450  0.4749 -0.2449 -0.5576
15033SOL    HW256319   3.243   6.907   0.426  0.0803 -0.4257  0.2712
15034SOL     OW56320   6.930   1.494   4.328  0.4326  0.0816  0.4616
15034SOL    HW156321   6.985   1.487   4.245 -0.0017 -1.8970  0.3151
15034SOL    HW256322   6.848   1.547   4.309  1.1124  1.0124  0.0622
15035SOL     OW56323   1.306   9.974   0.624 -0.0402  0.3352  0.5223
15035SOL    HW156324   1.225  10.011   0.668 -1.3287 -1.2305 -0.4769
15035SOL    HW256325   1.313   9.876   0.643  0.4113  0.0119 -1.1833
15036SOL     OW56326   2.932   4.242   1.128 -0.3862  0.0428 -0.1334
15036SOL    HW156327   3.025   4.273   1.142  0.3580 -0.7497 -2.9382
15036SOL    HW256328   2.886   4.302   1.063 -1.2984 -0.5049 -0.0098
15037SOL     OW56329   4.355   6.795   1.641 -0.0396  0.6491  0.6859
15037SOL    HW156330   4.365   6.883   1.593 -0.3154  0.2300 -0.1600
15037SOL    HW256331   4.437   6.776   1.694  0.5754  0.7839 -0.2126
15038SOL     OW56332   3.214   5.973   0.660 -0.0755  0.1511  0.2529
15038SOL    HW156333   3.225   5.895   0.722  0.1273 -0.3157 -0.3641
15038SOL    HW256334   3.180   6.052   0.712 -1.6018 -0.7273  0.6219
15039SOL     OW56335   0.041   1.939   1.969  0.1433 -0.1838 -0.1878
15039SOL    HW156336   0.070   1.904   1.879 -1.4420  1.5530 -1.4089
15039SOL    HW256337  -0.054   1.912   1.986 -0.9205  2.9539 -0.8976
15040SOL     OW56338   1.536   5.732   5.773  0.4096  0.1222  0.3803
15040SOL    HW156339   1.611   5.680   5.731 -0.2502  0.5171 -1.3349
15040SOL    HW256340   1.469   5.668   5.811 -0.4472 -0.3303 -1.8043
15041SOL     OW56341   3.512   7.370   4.039 -0.2781  0.4405 -0.0314
15041SOL    HW156342   3.483   7.394   4.131 -1.8189 -0.2520 -0.3190
15041SOL    HW256343   3.435   7.381   3.976  0.6327  0.4627 -1.1636
15042SOL     OW56344   4.325   7.692   2.948 -0.2362  0.2440 -0.0486
15042SOL    HW156345   4.288   7.765   3.005 -1.6827 -0.4154 -0.1387
15042SOL    HW256346   4.313   7.715   2.851 -0.2852  0.0855 -0.0801
15043SOL     OW56347   9.386   1.356   1.145 -0.1317  0.1595 -0.1403
15043SOL    HW156348   9.315   1.425   1.131 -1.0515 -0.3495  1.7865
15043SOL    HW256349   9.343   1.269   1.167  1.0925 -0.0615  1.4364
15044SOL     OW56350   7.219   0.477   3.112  0.0622  0.2054 -0.2567
15044SOL    HW156351   7.143   0.528   3.073  1.0082  1.1617 -0.8729
15044SOL    HW256352   7.216   0.482   3.211 -2.4650 -2.3781 -0.1329
15045SOL     OW56353   1.015   2.710   2.397  0.1352 -0.2643  0.2384
15045SOL    HW156354   1.091   2.692   2.335  0.4504 -1.1399  0.8541
15045SOL    HW256355   0.992   2.626   2.447 -1.8413 -0.2567 -0.5928
15046SOL     OW56356   1.417   3.105   6.592 -0.5884 -0.1033 -0.2460
15046SOL    HW156357   1.401   3.192   6.547 -1.6477 -1.4223 -2.4822
15046SOL    HW256358   1.515   3.089   6.601 -0.3962  1.3521  0.2718
15047SOL     OW56359   2.724   6.443   2.498 -0.6651  0.0538  0.1958
15047SOL    HW156360   2.738   6.442   2.399  0.1783 -1.0265  0.3118
15047SOL    HW256361   2.664   6.518   2.523 -1.1460  0.1309 -1.1769
15048SOL     OW56362   5.686   1.255   3.177 -0.4957  0.3707 -0.4933
15048SOL    HW156363   5.685   1.307   3.092  0.3673  1.3704  0.0981
15048SOL    HW256364   5.683   1.157   3.156  0.0330  0.5993 -1.6820
15049SOL     OW56365   3.813   8.178   3.809  0.3005 -0.2694 -0.6798
15049SOL    HW156366   3.820   8.276   3.787  1.0578  0.0443  0.8999
15049SOL    HW256367   3.863   8.125   3.741 -0.4310  0.4057 -1.7656
15050SOL     OW56368   3.688   9.273   3.198 -0.3880 -0.3783 -0.0345
15050SOL    HW156369   3.735   9.237   3.278  1.6962 -0.0055 -1.0531
15050SOL    HW256370   3.717   9.222   3.117 -0.8993  0.5946 -0.8405
15051SOL     OW56371   0.599   1.120   5.249 -0.1887  0.2759 -0.3077
15051SOL    HW156372   0.520   1.068   5.283 -0.3813  0.5044 -0.4000
15051SOL    HW256373   0.601   1.118   5.149  0.2117 -0.1517 -0.2892
15052SOL     OW56374   1.248   9.796   4.757  0.4283 -0.6705  0.2293
15052SOL    HW156375   1.306   9.810   4.837  1.0930 -0.2831 -0.3097
15052SOL    HW256376   1.156   9.829   4.776  1.1837  1.6519  0.0477
15053SOL     OW56377   5.285   1.723   5.539 -0.0494 -0.5381 -0.1704
15053SOL    HW156378   5.337   1.639   5.523  0.8602 -0.1571  0.7394
15053SOL    HW256379   5.212   1.705   5.605  0.3149 -0.5466  0.2278
15054SOL     OW56380   4.063   3.466   3.907 -0.4570 -0.5096  0.0822
15054SOL    HW156381   3.987   3.403   3.922 -1.0873  0.0095 -0.8699
15054SOL    HW256382   4.087   3.510   3.993 -3.1023  1.3974 -0.0736
15055SOL     OW56383   3.807   2.857   5.923 -0.1594 -0.5869  0.1518
15055SOL    HW156384   3.809   2.956   5.932 -0.8057 -0.4027 -1.6288
15055SOL    HW256385   3.874   2.827   5.856 -1.2683 -1.1855 -0.6990
15056SOL     OW56386   2.099   3.661   6.435  0.2411  0.4421  0.4882
15056SOL    HW156387   2.142   3.640   6.523 -0.8094 -0.6797  0.7383
15056SOL    HW256388   2.000   3.671   6.447  0.0486 -0.0482 -0.6157
15057SOL     OW56389   3.767   0.478   3.225 -0.0851 -0.0384  0.9647
15057SOL    HW156390   3.747   0.489   3.322 -0.5340 -0.2982  0.9033
15057SOL    HW256391   3.681   0.470   3.174  0.1743 -2.7899  0.8849
15058SOL     OW56392   8.100   4.174   5.060  0.2924 -0.1387 -0.3208
15058SOL    HW156393   8.044   4.238   5.113 -0.6291 -1.7155  0.6705
15058SOL    HW256394   8.118   4.212   4.969  1.0096  2.1464  0.7623
15059SOL     OW56395   9.805   3.659   5.530  0.5624 -0.6202  0.7449
15059SOL    HW156396   9.706   3.659   5.543  0.7145 -0.7382  1.9240
15059SOL    HW256397   9.850   3.655   5.619  1.6419  0.5624  0.2664
15060SOL     OW56398   8.878   1.660   5.777  0.0569 -0.3943  0.0612
15060SOL    HW156399   8.917   1.603   5.705  1.0741 -0.1093  0.3834
15060SOL    HW256400   8.845   1.601   5.851  0.1261 -0.6226 -0.0888
15061SOL     OW56401   1.108   8.792   5.513 -0.0218 -0.1072 -0.0927
15061SOL    HW156402   1.108   8.817   5.416 -1.0732  0.1531 -0.0315
15061SOL    HW256403   1.042   8.719   5.528 -0.0735  0.0613  0.4882
15062SOL     OW56404   9.236   5.556   6.661  0.3032  0.3013 -0.0347
15062SOL    HW156405   9.228   5.620   6.737  1.1266 -0.2460  0.5149
15062SOL    HW256406   9.257   5.607   6.577 -3.0317  1.1754 -0.4099
15063SOL     OW56407   1.176   8.496   4.033  0.1345  0.3795 -0.3450
15063SOL    HW156408   1.204   8.575   4.087 -0.0064  0.6900 -0.7216
15063SOL    HW256409   1.209   8.507   3.939 -1.2296  0.7393 -0.7879
15064SOL     OW56410   8.015   9.365   4.993 -0.6920 -0.0059 -0.3296
15064SOL    HW156411   8.041   9.459   5.017 -1.1830  0.2610 -0.8098
15064SOL    HW256412   8.026   9.306   5.072  1.0193  0.1646 -0.4240
15065SOL     OW56413   3.778   3.625   3.956 -0.0598 -0.1531  0.3652
15065SOL    HW156414   3.830   3.667   4.030 -0.3081  0.4669  0.1850
15065SOL    HW256415   3.777   3.686   3.877 -2.8136  0.7754  1.0620
15066SOL     OW56416   0.532   5.717   3.308 -0.3258 -0.3297 -0.3304
15066SOL    HW156417   0.560   5.792   3.248 -1.7502  0.2028 -0.3396
15066SOL    HW256418   0.433   5.721   3.323  0.0771 -0.1725  2.4501
15067SOL     OW56419   4.532   8.950   0.388 -0.0168  0.0059  0.5500
15067SOL    HW156420   4.559   9.030   0.334  0.2131  1.1813  2.3707
15067SOL    HW256421   4.453   8.906   0.345 -0.2646  1.3191 -0.3631
15068SOL     OW56422   0.201   0.493   3.411 -0.3147 -0.0836  0.1027
15068SOL    HW156423   0.279   0.551   3.433  0.5323 -0.6267 -1.3832
15068SOL    HW256424   0.116   0.547   3.417  0.3140  0.8946  0.2617
15069SOL     OW56425   3.650   2.730   4.046 -0.0826 -0.3077  0.3982
15069SOL    HW156426   3.613   2.660   3.985 -0.4955 -0.5525  0.9315
15069SOL    HW256427   3.720   2.689   4.105  0.6084  0.0170 -0.1744
15070SOL     OW56428   3.943   7.615   1.907 -0.1127  0.7338 -0.0496
15070SOL    HW156429   3.992   7.551   1.967 -0.4238  0.9572  0.4437
15070SOL    HW256430   3.847   7.590   1.904 -0.1107  0.7641 -0.4107
15071SOL     OW56431   9.577   0.121   6.327 -0.0968 -0.0964 -0.0823
15071SOL    HW156432   9.671   0.109   6.358  0.1150  1.0346 -0.2689
15071SOL    HW256433   9.574   0.113   6.227 -0.0697  0.6110 -0.1449
15072SOL     OW56434   7.657   0.871   0.197  0.3746  0.4505  0.1693
15072SOL    HW156435   7.730   0.870   0.128  2.0980  2.2250  1.8935
15072SOL    HW256436   7.697   0.849   0.286 -1.5979 -0.5940  0.8109
15073SOL     OW56437   0.909   1.898   1.962  0.1909  0.5390  0.0298
15073SOL    HW156438   0.976   1.911   2.034 -0.4774  1.9939  0.3974
15073SOL    HW256439   0.830   1.848   1.998 -0.0578  1.0973  0.2626
15074SOL     OW56440   3.999   0.049   2.700  0.9410  0.5624 -0.0283
15074SOL    HW156441   3.948   0.106   2.637  0.6778  0.2967 -0.0550
15074SOL    HW256442   3.938  -0.018   2.742  1.1366  0.6592  0.4158
15075SOL     OW56443   3.095   1.909   6.435 -0.1523 -0.0807 -0.0618
15075SOL    HW156444   3.017   1.964   6.463 -0.3071  0.7827 -2.0980
15075SOL    HW256445   3.176   1.967   6.425  0.0511 -0.4833 -0.7787
15076SOL     OW56446   8.312   9.566   2.869 -0.3285  0.0073  0.0426
15076SOL    HW156447   8.406   9.578   2.837 -0.4549  0.0475 -0.3124
15076SOL    HW256448   8.263   9.653   2.861 -0.2795  0.0932  0.6156
15077SOL     OW56449   2.819   6.883   5.185 -0.6023  0.1471  0.4100
15077SOL    HW156450   2.905   6.911   5.229 -0.1532  1.7928 -1.4583
15077SOL    HW256451   2.831   6.793   5.144  0.3007  0.4415  0.0037
15078SOL     OW56452   2.553   4.529   4.799  0.4026  0.3319  0.1370
15078SOL    HW156453   2.617   4.476   4.745 -0.2257 -0.9085  0.5943
15078SOL    HW256454   2.510   4.599   4.741 -2.3196 -2.7567 -1.7125
15079SOL     OW56455   7.971   3.953   2.801 -0.6062  0.6907 -0.0174
15079SOL    HW156456   8.043   3.964   2.870 -0.9997 -0.7036  0.6576
15079SOL    HW256457   7.965   4.034   2.744 -0.6684  2.1358  1.9966
15080SOL     OW56458   5.600   9.421   3.996  0.2565  0.1017 -0.8746
15080SOL    HW156459   5.598   9.341   3.935 -4.1626 -0.1431 -0.5582
15080SOL    HW256460   5.532   9.488   3.965  0.6050  1.6457  1.6046
15081SOL     OW56461   4.026   3.281   1.669  0.0711  0.4149 -0.6561
15081SOL    HW156462   3.995   3.203   1.616  0.1139 -0.3621  0.4427
15081SOL    HW256463   4.059   3.250   1.758  1.1603  1.5555 -0.6395
15082SOL     OW56464   5.754   1.015   1.113  0.1172 -0.1042  0.2936
15082SOL    HW156465   5.793   0.952   1.180  0.2823 -1.5138 -1.0911
15082SOL    HW256466   5.773   1.109   1.140  0.6929 -0.6711  1.9050
15083SOL     OW56467   7.522   1.829   1.067  0.0828  0.0441 -0.0109
15083SOL    HW156468   7.565   1.738   1.064 -0.6325 -0.2973  0.1021
15083SOL    HW256469   7.574   1.892   1.009 -0.0656 -0.7150 -0.9687
15084SOL     OW56470   7.920   5.748   0.527  0.4614  1.1748  0.4150
15084SOL    HW156471   7.862   5.688   0.582 -0.4414  1.7296  0.0751
15084SOL    HW256472   7.957   5.820   0.585  1.8029  0.1202  0.8926
15085SOL     OW56473   4.724   2.652   4.819 -0.0710  0.4203  0.0893
15085SOL    HW156474   4.748   2.680   4.726  1.0260  0.5271  0.3997
15085SOL    HW256475   4.666   2.571   4.815  0.3690  0.1336 -0.6771
15086SOL     OW56476   0.483   3.150   0.262  0.1518  0.1923  0.4561
15086SOL    HW156477   0.530   3.102   0.336  2.7248  1.1709 -0.4975
15086SOL    HW256478   0.446   3.084   0.197  0.1908 -0.5909  1.2140
15087SOL     OW56479   1.389   2.787   2.499 -0.4345  0.1119  0.2616
15087SOL    HW156480   1.353   2.800   2.591  2.1570 -2.0704  1.6252
15087SOL    HW256481   1.360   2.699   2.463 -1.0264  0.7421 -0.8681
15088SOL     OW56482   5.950   1.341   0.651 -0.2414  0.2651 -0.2538
15088SOL    HW156483   5.881   1.318   0.721 -0.3373  0.6863 -0.2093
15088SOL    HW256484   5.968   1.439   0.653 -0.4590  0.3268 -1.0151
15089SOL     OW56485   2.310   9.991   4.530  0.1332  0.2346  0.1956
15089SOL    HW156486   2.307   9.913   4.467  2.7990 -0.5504  0.9670
15089SOL    HW256487   2.232   9.988   4.592 -0.2374 -1.3384 -0.3386
15090SOL     OW56488   9.545   1.976   1.594 -0.6088  0.1406  0.2683
15090SOL    HW156489   9.562   2.065   1.552  0.6180  0.1771  0.8426
15090SOL    HW256490   9.592   1.905   1.543  0.0933  0.0680  1.0114
15091SOL     OW56491   6.035   7.789   4.694 -0.0499  0.1655  0.0367
15091SOL    HW156492   5.993   7.702   4.671 -0.0190 -0.2284  1.4336
15091SOL    HW256493   5.998   7.823   4.780  0.9366  0.8546  0.2062
15092SOL     OW56494   2.475   4.126   2.798 -0.3735 -0.0718  0.0144
15092SOL    HW156495   2.572   4.101   2.787 -0.7974 -1.1897 -1.4208
15092SOL    HW256496   2.426   4.051   2.843 -0.4958  0.6834  1.1596
15093SOL     OW56497   3.733   0.194   1.932  0.1191  0.2920  0.0047
15093SOL    HW156498   3.693   0.246   1.856 -1.0991 -0.2081  0.2816
15093SOL    HW256499   3.792   0.123   1.895 -0.3426  0.1513 -0.4841
15094SOL     OW56500   9.485   9.507   6.316 -0.6208 -0.8348  0.3147
15094SOL    HW156501   9.459   9.514   6.412  0.7074 -0.2863  0.6392
15094SOL    HW256502   9.582   9.487   6.309 -0.1066  1.8255 -0.9369
15095SOL     OW56503   8.013   0.147   1.908 -0.2003  0.9476 -0.1567
15095SOL    HW156504   7.955   0.114   1.982  0.9347  2.5483  1.4891
15095SOL    HW256505   8.002   0.088   1.828 -1.2170 -0.9810  1.3712
15096SOL     OW56506   3.530   0.928   5.940 -0.1446 -0.2298  0.3497
15096SOL    HW156507   3.592   0.934   6.018  0.6788  0.1166 -0.3201
15096SOL    HW256508   3.580   0.950   5.856 -0.9605 -0.8228 -0.3050
15097SOL     OW56509   3.670   0.993   2.633 -0.4447  0.7432 -0.3854
15097SOL    HW156510   3.682   0.991   2.732 -0.8007  3.1854 -0.2452
15097SOL    HW256511   3.753   1.027   2.590 -0.8037  1.1180 -0.7956
15098SOL     OW56512   3.976   5.676   4.840 -0.0528 -0.1081  0.3425
15098SOL    HW156513   3.952   5.591   4.886 -0.5511  0.1931  0.6375
15098SOL    HW256514   3.897   5.737   4.837 -0.3536 -0.5493 -1.8990
15099SOL     OW56515   8.354   1.438   1.661  0.1453  0.1039  0.0068
15099SOL    HW156516   8.271   1.485   1.692 -0.2020 -0.6696  0.2433
15099SOL    HW256517   8.388   1.378   1.733  2.5516  2.5641  1.0025
15100SOL     OW56518   1.363   4.987   5.635 -0.2029 -0.6503  0.2047
15100SOL    HW156519   1.317   5.063   5.682  1.0284 -0.2411  0.7763
15100SOL    HW256520   1.461   4.988   5.658  0.1170 -1.4443 -1.0614
15101SOL     OW56521   2.365   2.906   6.039  0.3628 -0.3187 -0.1135
15101SOL    HW156522   2.437   2.841   6.013  0.9218 -0.2133  1.1136
15101SOL    HW256523   2.294   2.907   5.969  1.3630 -0.7192 -1.1495
15102SOL     OW56524   4.155   2.310   6.007  0.1864  0.4630 -0.5842
15102SOL    HW156525   4.105   2.303   5.921  1.3200  0.2191 -1.2444
15102SOL    HW256526   4.250   2.279   5.993  0.4929  0.7918  0.6546
15103SOL     OW56527   1.269   8.917   0.726  0.2478  0.0606  0.2663
15103SOL    HW156528   1.313   9.004   0.748  0.7691 -0.4412  1.2591
15103SOL    HW256529   1.258   8.863   0.810  0.1927 -0.9487 -0.3769
15104SOL     OW56530   9.541   7.916   3.575 -0.1931  0.3119 -0.1462
15104SOL    HW156531   9.638   7.913   3.601 -0.3625 -2.4243  0.2761
15104SOL    HW256532   9.485   7.902   3.656 -0.8690 -1.2769 -0.8812
15105SOL     OW56533   6.623   9.090   5.661 -0.1837 -0.1563 -0.3987
15105SOL    HW156534   6.559   9.028   5.614 -1.0734  0.6261 -0.2497
15105SOL    HW256535   6.701   9.108   5.602 -1.2485  0.7477 -1.5665
15106SOL     OW56536   2.429   8.470   2.494 -0.1887  0.0641 -0.1359
15106SOL    HW156537   2.352   8.531   2.507 -0.9988 -0.8570 -0.5321
15106SOL    HW256538   2.500   8.516   2.440 -1.2295  0.2874 -1.3254
15107SOL     OW56539   4.976   8.598   3.440 -0.5155  0.5023  0.0602
15107SOL    HW156540   4.952   8.626   3.347 -0.1528 -1.2173 -0.5541
15107SOL    HW256541   5.062   8.548   3.439 -2.2942 -2.7122  0.7851
15108SOL     OW56542   3.486   9.087   1.285  0.0961  0.0981  0.4075
15108SOL    HW156543   3.455   9.018   1.220  1.8329 -0.2006 -0.1398
15108SOL    HW256544   3.476   9.178   1.244  1.1514 -0.0858 -0.2703
15109SOL     OW56545   4.327   5.795   2.484 -0.9704 -0.4065  0.1022
15109SOL    HW156546   4.373   5.718   2.439  0.8487  0.1466  0.9574
15109SOL    HW256547   4.318   5.871   2.419  0.8174  0.0647  0.3833
15110SOL     OW56548   1.600   3.584   2.286 -0.4450  0.2825 -0.2773
15110SOL    HW156549   1.677   3.525   2.311 -1.1694 -0.5990 -0.1288
15110SOL    HW256550   1.632   3.679   2.282  0.3852  0.0743  0.9788
15111SOL     OW56551   8.851   4.006   1.809  0.1810 -0.3250  0.3189
15111SOL    HW156552   8.858   3.998   1.908  1.6492  1.5484  0.4076
15111SOL    HW256553   8.791   4.083   1.786  1.5338  0.6044 -0.1908
15112SOL     OW56554   5.915   9.207   3.415  0.3029  0.0412 -0.3228
15112SOL    HW156555   5.888   9.222   3.320  0.3000 -1.4590 -0.5663
15112SOL    HW256556   6.010   9.235   3.428  0.4749 -0.2600 -0.9038
15113SOL     OW56557   9.767   4.860   4.993  0.1664 -0.2402 -0.3730
15113SOL    HW156558   9.778   4.949   4.948  1.2793 -1.5034 -2.6652
15113SOL    HW256559   9.857   4.816   5.001 -0.6176 -2.0096 -1.0730
15114SOL     OW56560   3.735   5.244   5.150  0.3851  0.4837 -0.1650
15114SOL    HW156561   3.757   5.311   5.221  0.5786  1.4207 -1.0937
15114SOL    HW256562   3.776   5.273   5.063 -1.0474  0.0958 -0.9904
15115SOL     OW56563   9.884   9.329   4.097  0.0095  0.2058  0.0130
15115SOL    HW156564   9.908   9.305   4.003  1.3473  1.0347  0.1383
15115SOL    HW256565   9.784   9.330   4.106 -0.1342  0.2576 -1.4301
15116SOL     OW56566   5.457   3.904   1.158  0.0762 -0.3351 -0.1440
15116SOL    HW156567   5.444   3.993   1.203  0.0606 -0.6608  0.5054
15116SOL    HW256568   5.460   3.832   1.228 -2.3816 -1.1382 -0.8191
15117SOL     OW56569   4.156   5.745   5.780 -0.2056  0.5515 -0.0621
15117SOL    HW156570   4.142   5.818   5.847 -1.0598  0.1811  0.1779
15117SOL    HW256571   4.198   5.783   5.698  1.5951  0.8593  0.9767
15118SOL     OW56572   1.167   0.065   3.294 -0.1484 -0.2848 -0.3204
15118SOL    HW156573   1.188   0.001   3.220  1.6877  0.9797 -0.9477
15118SOL    HW256574   1.193   0.157   3.266 -1.0642  0.4725  1.2558
15119SOL     OW56575   8.741   7.827   5.913 -0.2898  0.5024  0.1562
15119SOL    HW156576   8.696   7.789   5.994  0.0222  1.3615  0.7333
15119SOL    HW256577   8.770   7.752   5.853 -0.8351 -0.1237  0.6681
15120SOL     OW56578   2.636   2.355   3.287 -0.3886 -0.2487 -0.1708
15120SOL    HW156579   2.539   2.334   3.276 -0.3100 -1.1055  0.7078
15120SOL    HW256580   2.649   2.454   3.284 -1.3474 -0.1094  0.1806
15121SOL     OW56581   1.354   8.706   3.605 -0.2799  0.1383 -0.7396
15121SOL    HW156582   1.418   8.645   3.558  0.1712  1.0369 -1.2975
15121SOL    HW256583   1.370   8.702   3.704  1.1509  0.9266 -0.9328
15122SOL     OW56584   0.741   4.070   4.422 -0.2082  0.1098 -0.6903
15122SOL    HW156585   0.657   4.016   4.429 -1.1095  1.5154 -0.3270
15122SOL    HW256586   0.779   4.060   4.330  0.1610 -1.8749 -0.3298
15123SOL     OW56587   2.794   3.249   4.894  0.9401  0.2767 -0.1462
15123SOL    HW156588   2.783   3.232   4.991  1.1222  0.7861 -0.0359
15123SOL    HW256589   2.723   3.313   4.863  1.0091  0.2776 -0.3026
15124SOL     OW56590   6.853   8.018   5.034  0.1570  0.1737 -0.0266
15124SOL    HW156591   6.944   8.006   5.075  0.3478 -1.1408 -0.7892
15124SOL    HW256592   6.858   8.087   4.962  0.1298  1.4743  1.2211
15125SOL     OW56593   2.103   3.619   5.565  0.6168  0.1033  0.2892
15125SOL    HW156594   2.045   3.537   5.570  0.4183  0.0255 -2.4175
15125SOL    HW256595   2.104   3.665   5.654 -1.2541 -1.4789  1.1705
15126SOL     OW56596   9.259   6.347   4.852 -0.2655  0.0348  0.4919
15126SOL    HW156597   9.261   6.271   4.787  1.6947  0.1986  0.3155
15126SOL    HW256598   9.353   6.374   4.874 -0.9064  0.8181  2.4162
15127SOL     OW56599   1.583   7.122   0.658  0.2886  0.0122  0.3592
15127SOL    HW156600   1.558   7.114   0.754 -0.6421  3.3890  0.4528
15127SOL    HW256601   1.544   7.045   0.606 -2.1673  0.0603  2.0935
15128SOL     OW56602   2.917   3.246   0.602 -0.9675  0.4946  0.1251
15128SOL    HW156603   2.855   3.311   0.643  0.7911  2.5195 -0.3339
15128SOL    HW256604   2.987   3.220   0.669 -0.5777  0.5240 -0.2701
15129SOL     OW56605   8.457   0.592   2.382  0.7489  0.5065 -0.4399
15129SOL    HW156606   8.467   0.499   2.418 -0.1036  0.9826  1.0468
15129SOL    HW256607   8.548   0.631   2.366  1.1383  0.0802  0.6710
15130SOL     OW56608   1.710   6.671   2.196 -0.4999 -0.1975 -0.2333
15130SOL    HW156609   1.656   6.704   2.274  0.8381  0.0209  0.6251
15130SOL    HW256610   1.755   6.749   2.152  0.7622 -0.5955  0.3337
15131SOL     OW56611   9.072   3.434   3.176  0.0104  0.2901 -0.4186
15131SOL    HW156612   9.156   3.406   3.129  0.6883 -0.8287  1.3876
15131SOL    HW256613   9.089   3.520   3.225  0.7869 -0.9818  1.6391
15132SOL     OW56614   6.487   0.571   1.291  0.8061 -0.3027 -0.1497
15132SOL    HW156615   6.448   0.571   1.384  0.2444 -1.3587 -0.3763
15132SOL    HW256616   6.582   0.600   1.295  0.4800  0.6826  0.6323
15133SOL     OW56617   6.190   4.317   0.037 -0.0572  0.2900  0.2876
15133SOL    HW156618   6.137   4.287   0.117 -1.1895  1.2713 -0.0792
15133SOL    HW256619   6.165   4.260  -0.041  1.1412 -0.7504  0.6545
15134SOL     OW56620   9.268   0.470   3.913  0.1411  0.4372 -0.2843
15134SOL    HW156621   9.190   0.483   3.974  0.4284  1.0946 -0.0425
15134SOL    HW256622   9.266   0.379   3.874  0.6798 -0.4698  1.7396
15135SOL     OW56623   0.242   5.271   6.027 -0.5024  0.0145  0.2956
15135SOL    HW156624   0.149   5.275   6.066 -1.5289 -0.5690 -2.0112
15135SOL    HW256625   0.282   5.362   6.028 -0.9874  0.2250  1.5911
15136SOL     OW56626   8.379   6.048   4.581 -0.0543 -0.4330  0.0987
15136SOL    HW156627   8.388   6.147   4.585  2.4845 -0.6264  0.4578
15136SOL    HW256628   8.375   6.012   4.675 -1.1609 -0.6583 -0.0339
15137SOL     OW56629   8.342   4.057   2.663 -0.7889  0.3156  0.3380
15137SOL    HW156630   8.274   4.000   2.617 -0.6826 -0.0752  0.6581
15137SOL    HW256631   8.297   4.132   2.711 -0.7728  1.7718 -1.8626
15138SOL     OW56632   1.002   3.646   5.561  0.6200  0.6096  0.3892
15138SOL    HW156633   0.990   3.690   5.650  1.1218 -0.6211  1.0814
15138SOL    HW256634   1.089   3.597   5.560 -0.1447 -0.7508 -0.1917
15139SOL     OW56635   3.388   4.323   4.987 -0.0307  0.5776  0.0028
15139SOL    HW156636   3.459   4.253   4.990 -1.5564 -0.9824  0.8388
15139SOL    HW256637   3.356   4.341   5.080 -0.1457  1.8836 -0.2816
15140SOL     OW56638   9.363   8.932   0.544 -0.0803 -0.6456 -0.1744
15140SOL    HW156639   9.457   8.931   0.579  0.4673 -0.8148 -1.5891
15140SOL    HW256640   9.299   8.913   0.618  0.9242  0.6509  1.0449
15141SOL     OW56641   9.447   8.250   3.945 -0.1003 -0.4572  0.4111
15141SOL    HW156642   9.368   8.211   3.992 -1.2862 -0.0994 -1.2496
15141SOL    HW256643   9.420   8.333   3.897  1.2337 -0.4445 -0.3378
15142SOL     OW56644   0.183   2.522   0.449  0.5755  0.3957 -0.4171
15142SOL    HW156645   0.146   2.518   0.541  0.0033 -1.9363 -0.7072
15142SOL    HW256646   0.267   2.577   0.448  0.5215  0.5151  1.4515
15143SOL     OW56647   0.739   0.649   2.204 -0.2530  0.4019 -0.4624
15143SOL    HW156648   0.838   0.658   2.189 -0.0604 -0.6976  0.1342
15143SOL    HW256649   0.718   0.555   2.231 -1.6414  0.2621 -1.9537
15144SOL     OW56650   2.744   4.454   4.609  0.0480  0.7812 -0.5053
15144SOL    HW156651   2.750   4.354   4.604 -2.1953  0.5790  0.3298
15144SOL    HW256652   2.829   4.491   4.645  0.5454 -0.9095  0.0884
15145SOL     OW56653   5.093   4.795   3.103  0.0871  0.3009  0.1858
15145SOL    HW156654   5.083   4.712   3.158  1.2760 -0.1335 -0.2496
15145SOL    HW256655   5.005   4.842   3.099 -0.9552 -1.6340 -0.6685
15146SOL     OW56656   8.545   5.898   0.348  0.1424 -0.0184 -0.1829
15146SOL    HW156657   8.641   5.875   0.330 -0.1232 -1.5579  0.2990
15146SOL    HW256658   8.533   5.914   0.446 -0.1437 -0.0693 -0.2099
15147SOL     OW56659   4.883   1.192   3.054 -0.3612 -0.1339  0.2357
15147SOL    HW156660   4.843   1.142   3.131  0.8212 -0.8456  0.3899
15147SOL    HW256661   4.963   1.243   3.085 -0.2601  0.0866 -0.3803
15148SOL     OW56662   2.651   3.927   0.235  0.3540  0.2451  0.6734
15148SOL    HW156663   2.657   4.025   0.256  0.5401  0.4910 -0.4816
15148SOL    HW256664   2.655   3.914   0.136  0.4666 -0.9486  0.8275
15149SOL     OW56665   9.057   7.362   1.537  0.9361 -0.6518  0.0186
15149SOL    HW156666   9.005   7.423   1.597  1.3553 -0.1010 -0.1763
15149SOL    HW256667   9.032   7.267   1.557 -1.8197 -0.3297 -1.6120
15150SOL     OW56668   1.325   9.082   5.896  0.1691 -0.3749 -0.2349
15150SOL    HW156669   1.289   9.088   5.989 -1.6772 -2.1215 -0.7804
15150SOL    HW256670   1.330   8.985   5.869 -0.8204  0.1802 -2.5020
15151SOL     OW56671   7.683   2.624   1.919  0.1564 -0.6525  0.1276
15151SOL    HW156672   7.645   2.653   1.831  2.2878 -0.1905 -0.6703
15151SOL    HW256673   7.673   2.525   1.928  0.8441 -0.8486 -1.1085
15152SOL     OW56674   8.301   2.748   6.000  0.4861  0.0441  0.2468
15152SOL    HW156675   8.346   2.733   5.913 -0.7125  0.2714 -0.4276
15152SOL    HW256676   8.316   2.670   6.060 -0.1990 -0.9232 -0.8305
15153SOL     OW56677   3.988   0.391   2.860 -0.0566 -0.3654 -0.3463
15153SOL    HW156678   4.028   0.325   2.923  0.7322 -1.0829 -1.5988
15153SOL    HW256679   3.957   0.471   2.912 -1.6515 -1.9811  1.2656
15154SOL     OW56680   4.888   0.372   0.681 -0.2279  0.5368 -0.1269
15154SOL    HW156681   4.804   0.384   0.734 -0.4055 -1.8581  0.2208
15154SOL    HW256682   4.966   0.367   0.743 -0.0029  1.3303 -0.3469
15155SOL     OW56683   1.337   0.896   1.805  0.0846  0.0746  0.5995
15155SOL    HW156684   1.358   0.982   1.759 -0.5974 -0.7096 -1.2686
15155SOL    HW256685   1.300   0.831   1.738  1.9405 -2.1574  1.6586
15156SOL     OW56686   9.423   4.126   1.444 -0.5876  0.5908  0.6422
15156SOL    HW156687   9.453   4.082   1.529  0.0987  0.3601  0.2766
15156SOL    HW256688   9.323   4.130   1.443 -0.5884  1.1159  1.7314
15157SOL     OW56689   5.450   0.475   5.259 -0.1355 -0.6138  0.0777
15157SOL    HW156690   5.465   0.435   5.169 -1.0482  2.8072 -1.6629
15157SOL    HW256691   5.536   0.513   5.293 -0.3814  0.5954 -0.6313
15158SOL     OW56692   2.820   7.779   5.080 -0.1343 -0.0793 -0.9070
15158SOL    HW156693   2.871   7.765   5.165 -0.3547  0.2642 -0.7169
15158SOL    HW256694   2.733   7.729   5.085 -0.6899  0.9265 -0.4377
15159SOL     OW56695   4.473   8.264   2.821 -0.1039 -0.0854 -0.0185
15159SOL    HW156696   4.561   8.266   2.773  0.3415 -0.6087  0.7600
15159SOL    HW256697   4.403   8.306   2.764  0.3507 -0.9815 -1.2568
15160SOL     OW56698   1.785   7.289   2.619  0.7168  0.3995  0.2943
15160SOL    HW156699   1.774   7.304   2.521 -0.5711  0.3613  0.4290
15160SOL    HW256700   1.758   7.372   2.669 -0.0397 -0.0750  0.6845
15161SOL     OW56701   5.005   0.999   2.031 -0.0506  0.0294  0.5205
15161SOL    HW156702   4.907   1.011   2.048  0.0782  1.6034  0.1685
15161SOL    HW256703   5.029   1.034   1.941  1.0800  0.9293  1.1479
15162SOL     OW56704   3.424   9.184   2.767  0.1734 -0.0461  0.1071
15162SOL    HW156705   3.401   9.166   2.671 -1.7932 -0.7185  0.6617
15162SOL    HW256706   3.346   9.157   2.825  1.9980 -1.3381  2.0404
15163SOL     OW56707   1.943   6.490   5.745 -0.1321  0.3547 -0.5618
15163SOL    HW156708   2.014   6.518   5.680 -1.9518  0.8764 -2.3965
15163SOL    HW256709   1.880   6.426   5.699  0.4013 -1.8587  1.6977
15164SOL     OW56710   8.876   6.962   5.091  0.2550 -0.3892 -0.3786
15164SOL    HW156711   8.903   6.867   5.079 -0.1327 -0.5490 -0.0117
15164SOL    HW256712   8.798   6.967   5.153  1.6662  0.3306  1.3858
15165SOL     OW56713   6.755   1.388   1.352  0.0861 -0.0704  0.8188
15165SOL    HW156714   6.771   1.471   1.405 -2.1051 -0.2572  1.8396
15165SOL    HW256715   6.725   1.314   1.413 -2.8771 -0.1770 -0.6848
15166SOL     OW56716   8.838   9.025   5.768  0.0215 -0.0393  0.1400
15166SOL    HW156717   8.911   9.091   5.749 -0.9799  1.0972  0.2291
15166SOL    HW256718   8.876   8.948   5.819  1.3318  0.1541 -0.5298
15167SOL     OW56719   8.621   5.456   0.193  0.3429 -0.1283  0.6772
15167SOL    HW156720   8.532   5.478   0.154  0.2912 -0.2868  0.7050
15167SOL    HW256721   8.613   5.379   0.256  0.4846 -0.0889  0.7450
15168SOL     OW56722   8.166   0.534   0.120  0.3197  0.5573  0.0294
15168SOL    HW156723   8.240   0.529   0.187  0.7847 -0.6796 -0.5589
15168SOL    HW256724   8.124   0.624   0.123  2.9302  1.8661 -0.7777
15169SOL     OW56725   2.569   3.017   5.641  0.2403 -0.1837  0.6378
15169SOL    HW156726   2.667   3.007   5.628  0.1728 -0.2704  0.1837
15169SOL    HW256727   2.537   3.099   5.593 -0.3726 -1.7015 -1.6150
15170SOL     OW56728   7.135   2.665   3.545  0.1735 -0.7859 -0.1298
15170SOL    HW156729   7.135   2.690   3.448  1.2981 -0.4891 -0.0551
15170SOL    HW256730   7.054   2.609   3.564  0.0527 -1.0229 -1.2825
15171SOL     OW56731   9.428   6.755   3.110  0.4953 -0.3103 -0.3770
15171SOL    HW156732   9.352   6.754   3.174 -0.6407 -1.4178 -1.6956
15171SOL    HW256733   9.466   6.662   3.102  2.4180  0.3577  0.7585
15172SOL     OW56734   7.932   0.707   6.161  0.1787 -0.3920 -0.2204
15172SOL    HW156735   7.897   0.781   6.217  0.6287 -1.1229  1.0316
15172SOL    HW256736   7.966   0.633   6.219  0.4944 -1.2334 -1.4423
15173SOL     OW56737   0.663   5.620   2.224  0.0772  0.9496 -0.7085
15173SOL    HW156738   0.576   5.573   2.231 -0.1148  1.5228  0.9615
15173SOL    HW256739   0.738   5.553   2.226 -0.2624  0.5773 -0.4631
15174SOL     OW56740   6.730   0.563   2.731  0.3115 -0.1012  0.5208
15174SOL    HW156741   6.743   0.482   2.789  1.1715  0.4140  1.0648
15174SOL    HW256742   6.793   0.634   2.760 -0.4654  0.7814  0.0595
15175SOL     OW56743   8.806   6.237   6.669  0.9168 -0.0266 -0.1423
15175SOL    HW156744   8.749   6.177   6.725  1.1065  1.3763  1.6008
15175SOL    HW256745   8.758   6.323   6.652  0.7143 -0.5644 -2.4760
15176SOL     OW56746   7.710   1.795   2.631  0.0317 -0.2716  0.5476
15176SOL    HW156747   7.690   1.774   2.535  2.1218  2.0054 -0.4421
15176SOL    HW256748   7.805   1.772   2.651  0.2283  1.2638  1.4599
15177SOL     OW56749   6.581   1.336   2.427  0.3284  0.4889  0.3148
15177SOL    HW156750   6.650   1.398   2.465  0.0119  0.6824  0.5773
15177SOL    HW256751   6.512   1.389   2.378  0.1728  0.3208  0.3529
15178SOL     OW56752   4.305   8.167   2.454 -0.1700 -0.1646  0.3562
15178SOL    HW156753   4.222   8.151   2.507 -0.2581  0.6574  0.4794
15178SOL    HW256754   4.383   8.126   2.501 -0.3396  0.0326  0.8172
15179SOL     OW56755   7.699   6.910   4.595 -0.0006  0.4888 -0.6345
15179SOL    HW156756   7.678   6.836   4.532  1.0811  0.2228 -0.6831
15179SOL    HW256757   7.637   6.905   4.674  0.6150 -0.9730 -0.2328
15180SOL     OW56758   8.640   9.637   6.402 -0.2018  0.1413 -0.4575
15180SOL    HW156759   8.686   9.651   6.489 -1.1393 -0.2925  0.1118
15180SOL    HW256760   8.545   9.609   6.418  0.0660 -1.5221 -1.5714
15181SOL     OW56761   7.682   9.670   2.580  0.4937 -0.0746  0.2686
15181SOL    HW156762   7.742   9.726   2.636 -1.0636  0.1265  1.7892
15181SOL    HW256763   7.594   9.716   2.568  0.1087 -1.0211 -0.6411
15182SOL     OW56764   2.438   5.665   6.535 -0.5533  0.5410  0.0603
15182SOL    HW156765   2.491   5.643   6.453 -0.6537  1.3676 -0.2264
15182SOL    HW256766   2.499   5.663   6.615  0.1979  2.7366 -0.4326
15183SOL     OW56767   1.473   9.462   1.011 -0.2947  0.2316 -0.5050
15183SOL    HW156768   1.404   9.392   1.028  0.8655 -0.3461  1.9630
15183SOL    HW256769   1.551   9.449   1.072  1.3882  1.7443 -2.2346
15184SOL     OW56770   0.977   3.673   3.610 -0.0670 -0.1515 -0.0140
15184SOL    HW156771   0.952   3.764   3.576 -1.0143 -0.4286 -0.0605
15184SOL    HW256772   0.894   3.619   3.625  0.4437 -0.6364  1.0508
15185SOL     OW56773   2.781   7.412   0.364  0.0635  0.1095 -0.4989
15185SOL    HW156774   2.724   7.434   0.284 -0.1492  0.7443 -0.1705
15185SOL    HW256775   2.723   7.380   0.439 -0.0488  2.3087  0.3891
15186SOL     OW56776   9.433   6.859   4.581 -1.3658  0.1160 -0.2972
15186SOL    HW156777   9.504   6.799   4.617 -2.8643 -0.7283  1.3112
15186SOL    HW256778   9.396   6.819   4.497 -1.2818 -0.4274 -0.0773
15187SOL     OW56779   9.022   3.053   1.316 -0.0534 -0.4424  0.1110
15187SOL    HW156780   9.109   3.027   1.274 -0.8707 -2.7085 -0.2457
15187SOL    HW256781   8.968   2.971   1.334 -1.8164  0.8890  1.0138
15188SOL     OW56782   8.983   3.326   0.216 -0.6091  0.2820 -0.2356
15188SOL    HW156783   8.886   3.307   0.230  0.0759 -1.3643  2.8721
15188SOL    HW256784   9.036   3.284   0.290  2.5018  0.9858 -1.9619
15189SOL     OW56785   1.335   6.361   6.069 -0.1116 -0.2424  0.0710
15189SOL    HW156786   1.434   6.377   6.061 -0.3776  1.3047 -0.2350
15189SOL    HW256787   1.292   6.439   6.115 -0.9905 -1.5827  1.5413
15190SOL     OW56788   9.267   7.266   2.664  0.2110  0.6808 -0.3516
15190SOL    HW156789   9.176   7.283   2.626  0.0931  0.0945 -0.3235
15190SOL    HW256790   9.296   7.173   2.642  0.5570  0.6720  0.1501
15191SOL     OW56791   4.974   8.962   5.257 -1.1536 -0.6531  0.5436
15191SOL    HW156792   4.919   8.892   5.303 -0.3553 -0.9602  1.0382
15191SOL    HW256793   4.951   9.052   5.294  0.2855 -1.0079  2.3550
15192SOL     OW56794   8.703   8.234   1.156 -0.2625  0.4407  0.6038
15192SOL    HW156795   8.718   8.188   1.243  1.2126 -0.4066 -0.0791
15192SOL    HW256796   8.653   8.173   1.094  0.8979  0.0772  0.0101
15193SOL     OW56797   0.028   4.605   1.480  0.2926 -0.2187 -0.4768
15193SOL    HW156798   0.035   4.627   1.578 -1.8128 -0.6954 -0.2007
15193SOL    HW256799   0.094   4.534   1.458  0.6685 -0.2381  0.6409
15194SOL     OW56800   6.043   0.111   3.251  0.0034  0.1713  0.0431
15194SOL    HW156801   5.967   0.046   3.259  1.7131 -2.1264 -1.6246
15194SOL    HW256802   6.007   0.203   3.235 -2.4348 -0.7762 -0.1317
15195SOL     OW56803   3.785   9.649   2.226 -0.3483  0.5892  0.1295
15195SOL    HW156804   3.822   9.640   2.319  2.5187  1.6875 -0.8220
15195SOL    HW256805   3.718   9.723   2.224 -0.8768  0.1566  1.4545
15196SOL     OW56806   5.364   0.761   3.415  0.3570  0.0207  0.0490
15196SOL    HW156807   5.317   0.838   3.458  1.2345  1.5670 -1.6891
15196SOL    HW256808   5.324   0.675   3.448 -2.2301  1.2503  0.2632
15197SOL     OW56809   5.133   9.638   2.438 -0.5876  0.4957 -0.1125
15197SOL    HW156810   5.177   9.549   2.427 -0.0176  0.6904  0.5255
15197SOL    HW256811   5.131   9.662   2.535  0.0995  1.5897 -0.3568
15198SOL     OW56812   1.380   0.350   2.141 -0.3482 -0.0858  0.0008
15198SOL    HW156813   1.421   0.437   2.113 -1.8559  0.1274 -1.6188
15198SOL    HW256814   1.281   0.361   2.149 -0.3721 -1.2376  1.4327
15199SOL     OW56815  10.001   9.891   3.410 -0.4090  0.2683  0.2008
15199SOL    HW156816   9.907   9.879   3.441 -1.0790 -0.4338 -2.0129
15199SOL    HW256817  10.051   9.804   3.420 -0.8059 -0.1342 -1.2322
15200SOL     OW56818   9.673   5.624   2.361  0.5368  0.0601 -0.1632
15200SOL    HW156819   9.610   5.595   2.433  0.5004 -0.9021 -0.5746
15200SOL    HW256820   9.656   5.570   2.278  2.0669 -0.3617 -0.2039
15201SOL     OW56821   9.391   5.049   1.668  0.1605  0.1118 -0.0780
15201SOL    HW156822   9.386   4.974   1.733  0.3337 -0.5705 -0.8453
15201SOL    HW256823   9.487   5.070   1.648  0.0993 -0.1112 -0.6068
15202SOL     OW56824   4.464   4.729   6.010 -0.3152  0.6905  0.0260
15202SOL    HW156825   4.480   4.633   6.034 -2.1021  0.5071  0.5609
15202SOL    HW256826   4.525   4.755   5.935  0.7451 -0.6284  0.4018
15203SOL     OW56827   5.420   5.878   2.615 -0.0143  0.3029  0.6082
15203SOL    HW156828   5.340   5.916   2.569  1.1397  0.5878 -1.2098
15203SOL    HW256829   5.406   5.780   2.632 -1.6899  0.8256  2.4514
15204SOL     OW56830   0.228   6.283   5.468 -0.2350 -0.0026 -0.6416
15204SOL    HW156831   0.300   6.264   5.402  1.1650  0.6711  0.6721
15204SOL    HW256832   0.196   6.198   5.509  2.4686 -0.0242  1.5199
15205SOL     OW56833   0.871   7.289   3.612 -0.0909  0.7624 -0.0541
15205SOL    HW156834   0.934   7.213   3.630  0.0624  0.6289 -1.1421
15205SOL    HW256835   0.815   7.268   3.532 -1.4907  0.9105  0.8738
15206SOL     OW56836   7.799   2.550   1.271  0.0566 -0.3829  0.1529
15206SOL    HW156837   7.819   2.462   1.228  1.9359  0.5289 -0.8682
15206SOL    HW256838   7.883   2.590   1.306 -0.4111  2.1728 -1.5749
15207SOL     OW56839   8.428   9.404   6.110  0.5439  0.6524  0.1227
15207SOL    HW156840   8.453   9.338   6.039  0.8267  2.2487 -1.2968
15207SOL    HW256841   8.453   9.368   6.199 -0.7974 -1.8632 -0.4590
15208SOL     OW56842   5.427   7.368   3.773  0.2021  0.1448 -0.5202
15208SOL    HW156843   5.433   7.416   3.685  0.6515 -0.9930 -1.1260
15208SOL    HW256844   5.476   7.419   3.843  3.0233 -0.7749 -1.7654
15209SOL     OW56845   0.613   8.956   1.107  0.1058 -0.3082  0.0036
15209SOL    HW156846   0.523   8.927   1.076  0.5489 -0.3198 -1.3041
15209SOL    HW256847   0.682   8.890   1.078  1.0327  1.6165 -2.3484
15210SOL     OW56848   4.274   1.548   1.811  0.6037 -0.5561  0.9249
15210SOL    HW156849   4.336   1.626   1.817 -0.3339  0.2359  0.5439
15210SOL    HW256850   4.275   1.511   1.719  0.2175 -0.2875  0.8101
15211SOL     OW56851   2.988   3.778   0.415 -0.2450  0.0069 -0.1872
15211SOL    HW156852   3.059   3.773   0.485  0.7021  0.4889 -1.0909
15211SOL    HW256853   2.981   3.690   0.368 -0.4453 -0.1225  0.0795
15212SOL     OW56854   7.211   2.370   3.014 -0.1078 -0.0246  0.3143
15212SOL    HW156855   7.122   2.401   2.981 -1.1261 -2.1587  0.9595
15212SOL    HW256856   7.236   2.423   3.096 -1.4551 -0.3545  0.9603
15213SOL     OW56857   0.419   7.647   3.705  0.0743  0.2285  0.3907
15213SOL    HW156858   0.329   7.676   3.735 -0.6741 -0.3421 -1.2517
15213SOL    HW256859   0.432   7.550   3.728  0.4892  0.4449  1.0978
15214SOL     OW56860   7.157   1.632   4.930 -0.3935  0.4780  0.6366
15214SOL    HW156861   7.204   1.694   4.867  0.1596 -0.3540  0.2261
15214SOL    HW256862   7.116   1.557   4.878  0.9320 -0.7754  1.3523
15215SOL     OW56863   4.020   0.777   6.243 -0.3110 -0.3317 -0.2150
15215SOL    HW156864   4.018   0.807   6.148  2.1064 -1.9001 -0.7962
15215SOL    HW256865   4.005   0.678   6.247  0.3984 -0.3974  0.9715
15216SOL     OW56866   2.677   0.828   5.948 -0.2046  0.0909 -0.0541
15216SOL    HW156867   2.619   0.751   5.922  0.2707 -0.4046  0.3401
15216SOL    HW256868   2.637   0.875   6.027  0.3275 -0.7291  0.7138
15217SOL     OW56869   7.990   0.394   5.124  0.3201 -0.5947 -0.1669
15217SOL    HW156870   7.931   0.315   5.110 -0.3142 -0.5649  2.1392
15217SOL    HW256871   7.980   0.427   5.218  0.2103  2.5327 -1.2290
15218SOL     OW56872   9.067   1.433   4.768  0.6251  0.0515 -0.3206
15218SOL    HW156873   9.025   1.359   4.717 -0.0822  0.2050  0.0376
15218SOL    HW256874   9.006   1.463   4.841  2.1141 -0.9494  1.3787
15219SOL     OW56875   8.542   1.218   0.810  0.0986 -0.2056 -0.1447
15219SOL    HW156876   8.555   1.290   0.878 -0.4779 -0.1111 -0.1302
15219SOL    HW256877   8.630   1.192   0.772  0.3790  0.0491  0.3265
15220SOL     OW56878   4.077   9.105   2.783  0.2741 -0.1624 -0.3235
15220SOL    HW156879   4.107   9.033   2.720 -1.0284 -1.3664  0.3938
15220SOL    HW256880   4.091   9.194   2.741  0.5104 -0.8930 -1.8419
15221SOL     OW56881   3.368   2.969   0.620  0.7170 -0.2525  0.7654
15221SOL    HW156882   3.365   2.880   0.573 -0.1618 -0.7963  1.8239
15221SOL    HW256883   3.463   2.995   0.637  1.0295 -0.2740 -0.8777
15222SOL     OW56884   6.524   8.145   2.219 -1.2629 -0.4263 -0.5071
15222SOL    HW156885   6.479   8.059   2.244  0.5099 -1.0982  0.5044
15222SOL    HW256886   6.556   8.191   2.302 -0.4584  0.2304 -1.1693
15223SOL     OW56887   1.229   3.601   6.245  0.0331  0.2683 -0.2417
15223SOL    HW156888   1.172   3.604   6.327 -0.7088  1.1070 -0.7723
15223SOL    HW256889   1.171   3.591   6.165  0.7584 -0.6125 -0.6659
15224SOL     OW56890   3.346   7.649   4.928 -0.1600  0.8749  0.0196
15224SOL    HW156891   3.437   7.631   4.963 -0.0074  1.7148  0.0610
15224SOL    HW256892   3.308   7.565   4.888  0.1612  0.2391  1.0450
15225SOL     OW56893   4.292   2.737   0.436  0.1738  0.3425  0.1100
15225SOL    HW156894   4.335   2.825   0.459  0.7325 -0.3370  1.7631
15225SOL    HW256895   4.222   2.716   0.504 -0.4127 -0.1849 -0.6510
15226SOL     OW56896   8.690   7.172   1.019  0.3836  0.5551 -0.6200
15226SOL    HW156897   8.783   7.200   1.044 -0.1482  1.3424  0.5714
15226SOL    HW256898   8.644   7.248   0.973 -0.0133  0.5500 -0.2400
15227SOL     OW56899   0.886   9.498   2.899  0.3968 -0.3284  0.0705
15227SOL    HW156900   0.893   9.566   2.971  0.4087 -0.9372  0.6526
15227SOL    HW256901   0.961   9.510   2.834  2.3548 -1.8671  1.9621
15228SOL     OW56902   3.818   9.860   3.608  0.2569 -0.4402 -0.3324
15228SOL    HW156903   3.882   9.909   3.549  0.1899 -0.9562 -0.8315
15228SOL    HW256904   3.836   9.762   3.602 -0.7608 -0.6054 -0.6810
15229SOL     OW56905   3.533   5.408   0.492 -0.4730 -0.2016 -0.2793
15229SOL    HW156906   3.518   5.449   0.582  0.2093  1.3244 -0.8387
15229SOL    HW256907   3.456   5.431   0.431  0.8346  1.9876 -1.1770
15230SOL     OW56908   7.829   4.862   4.862 -0.7287 -0.1450  0.4356
15230SOL    HW156909   7.871   4.877   4.952  1.8767 -2.5273 -0.3143
15230SOL    HW256910   7.813   4.764   4.849  0.0240  0.0508 -2.1522
15231SOL     OW56911   3.929   4.101   0.306  0.1218 -0.2426  0.1735
15231SOL    HW156912   3.894   4.188   0.343  0.9162 -0.4893  1.5461
15231SOL    HW256913   4.019   4.116   0.267  0.2045 -0.4241  0.2943
15232SOL     OW56914   4.431   5.611   2.346 -0.2454  0.1618  0.1131
15232SOL    HW156915   4.336   5.583   2.333 -1.0746  1.4578  2.9570
15232SOL    HW256916   4.488   5.571   2.274 -2.3754 -3.4379  0.3271
15233SOL     OW56917   2.975   2.797   4.856 -0.0764  0.2780  0.7011
15233SOL    HW156918   3.061   2.837   4.887  0.0773 -0.3139  1.0247
15233SOL    HW256919   2.977   2.698   4.869  0.2025 -0.0510 -1.6625
15234SOL     OW56920   0.166   9.546   1.992 -0.2435  0.1487 -0.5254
15234SOL    HW156921   0.174   9.448   2.012 -1.5864 -0.0921 -1.0655
15234SOL    HW256922   0.071   9.574   2.005 -0.3799  0.8319 -2.7419
15235SOL     OW56923   3.070   4.017   3.008 -0.0908 -0.1556 -0.0517
15235SOL    HW156924   3.086   3.975   2.918 -0.2662 -0.4941  0.0756
15235SOL    HW256925   3.131   4.095   3.019  0.6100 -0.6931 -0.0762
15236SOL     OW56926   9.605   3.429   6.653 -0.0121 -0.2506  0.1111
15236SOL    HW156927   9.593   3.476   6.565  0.1637  0.2192  0.3368
15236SOL    HW256928   9.554   3.343   6.652 -1.1587  0.4231  0.0660
15237SOL     OW56929   0.924   7.973   4.813 -0.2721  0.3484  0.8089
15237SOL    HW156930   0.989   7.993   4.887  1.2125 -1.0570 -0.0805
15237SOL    HW256931   0.944   7.882   4.776 -2.2564  0.2443 -0.0243
15238SOL     OW56932   9.627   8.900   0.646  0.3205  1.0135 -0.6539
15238SOL    HW156933   9.702   8.964   0.660  1.3693 -0.5464  1.0359
15238SOL    HW256934   9.620   8.839   0.725 -2.8502  1.2551 -0.6652
15239SOL     OW56935   3.569   1.096   5.134 -0.2830  0.6333  0.1581
15239SOL    HW156936   3.573   1.169   5.066 -1.2417 -0.2859 -0.9131
15239SOL    HW256937   3.661   1.078   5.169  0.1607  1.3756 -0.5994
15240SOL     OW56938   2.836   2.501   0.226 -0.2074 -0.3210 -0.0710
15240SOL    HW156939   2.874   2.410   0.212 -1.2988 -0.5385 -1.7923
15240SOL    HW256940   2.895   2.553   0.288  1.0085 -1.8130  0.0426
15241SOL     OW56941   2.529   9.717   5.618 -0.5026 -0.5624 -0.3310
15241SOL    HW156942   2.561   9.704   5.712 -2.3301 -0.8985  0.2647
15241SOL    HW256943   2.470   9.797   5.613 -2.2529 -1.8194 -0.6885
15242SOL     OW56944   1.955   2.723   4.915 -0.6812 -0.3045 -0.0721
15242SOL    HW156945   1.960   2.656   4.841 -1.6530  0.1835 -0.5921
15242SOL    HW256946   1.946   2.676   5.002  1.9368 -0.9237 -0.1003
15243SOL     OW56947   7.290   0.892   4.798  0.1200 -0.0053 -0.7224
15243SOL    HW156948   7.303   0.857   4.705  1.7090 -1.2612 -0.0461
15243SOL    HW256949   7.250   0.821   4.855 -2.4378  1.2976 -0.8189
15244SOL     OW56950   9.106   8.445   5.266  0.0384 -0.6006 -0.0039
15244SOL    HW156951   9.074   8.501   5.190  2.4981 -2.7786 -2.7839
15244SOL    HW256952   9.165   8.499   5.325 -0.2414  0.6093 -0.8094
15245SOL     OW56953   1.232   0.483   5.760 -0.1650  0.1993 -0.6884
15245SOL    HW156954   1.210   0.543   5.683 -0.7255  2.8611  1.4665
15245SOL    HW256955   1.326   0.501   5.791 -0.3013 -0.0854 -0.0900
15246SOL     OW56956   2.435   3.394   3.083 -0.3531 -0.3268  0.2377
15246SOL    HW156957   2.407   3.469   3.022  0.1304 -0.7151 -0.4631
15246SOL    HW256958   2.525   3.414   3.120  0.2339 -1.0618 -0.7801
15247SOL     OW56959   1.024   7.661   2.181 -0.5021  0.5873 -0.1114
15247SOL    HW156960   0.936   7.626   2.149 -0.6351  1.1996 -0.4202
15247SOL    HW256961   1.073   7.588   2.229  0.8223 -1.1217 -3.8981
15248SOL     OW56962   4.348   0.366   6.232 -0.5333  0.2719  0.1008
15248SOL    HW156963   4.399   0.286   6.264 -0.7831  0.1060  0.0885
15248SOL    HW256964   4.343   0.435   6.304  0.6249  0.7352 -0.2520
15249SOL     OW56965   3.796   0.710   4.484 -0.3289 -0.4609 -0.0018
15249SOL    HW156966   3.714   0.662   4.516 -2.0042  0.7699 -2.3201
15249SOL    HW256967   3.793   0.805   4.516 -0.1163 -0.2421 -0.6389
15250SOL     OW56968   6.731   1.706   3.664  0.1123 -1.3522 -0.4781
15250SOL    HW156969   6.679   1.634   3.618  1.2305 -2.1264 -0.5472
15250SOL    HW256970   6.762   1.673   3.753 -1.5375 -0.0603  0.6157
15251SOL     OW56971   3.639   8.963   3.718 -0.1356 -0.3341  0.5860
15251SOL    HW156972   3.624   8.934   3.624 -0.0791 -0.5864  0.6529
15251SOL    HW256973   3.562   8.934   3.775 -0.3877  0.2227  0.5315
15252SOL     OW56974   1.212   8.772   0.969 -0.4203 -0.6203  0.0382
15252SOL    HW156975   1.299   8.756   1.016 -0.2130  2.2187  0.6823
15252SOL    HW256976   1.164   8.685   0.957  0.9323 -1.7853  2.7702
15253SOL     OW56977   5.066   1.233   0.407 -0.0615 -0.0687  0.0368
15253SOL    HW156978   5.011   1.299   0.356 -2.6266 -0.5439  2.0968
15253SOL    HW256979   5.110   1.278   0.485  1.4952  0.0254 -0.8631
15254SOL     OW56980   8.673   7.498   4.235 -0.0686 -0.8020  0.7172
15254SOL    HW156981   8.752   7.486   4.294 -0.4072 -1.4731  1.0499
15254SOL    HW256982   8.590   7.474   4.286 -0.4212 -0.7715  0.1632
15255SOL     OW56983   4.529   4.140   2.518 -0.1197 -0.2836  0.4898
15255SOL    HW156984   4.552   4.052   2.476  0.3128 -1.8656  3.8601
15255SOL    HW256985   4.611   4.179   2.562 -0.9149  0.4993  1.3021
15256SOL     OW56986   5.202   1.360   0.599  0.1355 -0.5480  0.1756
15256SOL    HW156987   5.267   1.313   0.657  0.4950  0.8704  0.9596
15256SOL    HW256988   5.135   1.408   0.656 -0.9705 -1.1265 -0.6086
15257SOL     OW56989   3.188   8.076   5.647 -0.2479  0.2942 -0.0051
15257SOL    HW156990   3.212   8.010   5.576 -2.9594 -1.0568  0.2727
15257SOL    HW256991   3.174   8.029   5.734 -1.6494  1.3128  0.3343
15258SOL     OW56992   2.040   5.115   0.920 -0.6147  0.0876  0.3848
15258SOL    HW156993   2.065   5.097   0.825 -0.7152 -0.0430  0.3821
15258SOL    HW256994   1.941   5.129   0.927 -0.7096 -0.6285  0.5743
15259SOL     OW56995   1.216   0.953   3.212  0.0087  0.2705 -0.2024
15259SOL    HW156996   1.267   1.022   3.263  0.5851  0.5196 -1.1050
15259SOL    HW256997   1.161   0.998   3.141 -0.3549 -0.1199 -0.1744
15260SOL     OW56998   3.008   9.347   2.380  0.3014  0.6532 -0.3975
15260SOL    HW156999   3.100   9.361   2.345  0.2640 -0.8091 -1.1292
15260SOL    HW257000   2.950   9.307   2.308 -1.1846  2.5166 -0.2700
15261SOL     OW57001   2.119   9.793   3.931  0.8612  0.0189 -0.5576
15261SOL    HW157002   2.022   9.796   3.956  0.9510  0.9232 -0.3035
15261SOL    HW257003   2.139   9.705   3.888  0.1138 -0.5059  0.1526
15262SOL     OW57004   9.974   9.180   4.324 -0.0385 -0.2239  0.4450
15262SOL    HW157005   9.966   9.110   4.252  3.0486  0.0586 -0.2132
15262SOL    HW257006   9.930   9.264   4.292  1.3827 -0.0679 -1.2137
15263SOL     OW57007   6.315   0.023   4.833 -0.2774  0.3047 -0.1301
15263SOL    HW157008   6.252   0.073   4.773 -2.0453 -0.1222  1.3387
15263SOL    HW257009   6.345  -0.061   4.787 -0.6892  0.5633 -0.8735
15264SOL     OW57010   9.732   0.980   6.089 -0.2129 -0.9496  0.2391
15264SOL    HW157011   9.649   0.924   6.102 -1.8007  1.0276 -1.1060
15264SOL    HW257012   9.770   0.961   5.998  0.2713 -1.1606  0.4876
15265SOL     OW57013   2.795   2.527   3.088 -0.0495  0.2022 -0.1173
15265SOL    HW157014   2.749   2.539   3.000  0.2515 -0.5228 -0.3772
15265SOL    HW257015   2.771   2.603   3.149  0.0467  0.9139 -0.9585
15266SOL     OW57016   2.008   5.477   0.783 -0.0305  0.4397 -0.4657
15266SOL    HW157017   1.927   5.433   0.744 -1.8981  2.1622  1.3933
15266SOL    HW257018   2.021   5.446   0.877  0.8468  1.0146 -0.3950
15267SOL     OW57019   2.159   2.378   4.632  0.2831 -0.4760 -0.5571
15267SOL    HW157020   2.185   2.338   4.720  0.9653  0.6923 -0.2217
15267SOL    HW257021   2.237   2.427   4.594 -1.1340  2.2686 -0.0004
15268SOL     OW57022   2.519   0.826   2.269 -0.5084  0.0673  0.5045
15268SOL    HW157023   2.573   0.744   2.287 -0.4147  0.5226  2.4483
15268SOL    HW257024   2.427   0.800   2.239  0.1526 -0.7147 -0.8857
15269SOL     OW57025   8.171   8.630   2.217  0.1538 -0.2168 -0.0735
15269SOL    HW157026   8.141   8.686   2.294 -1.7539 -2.6992  1.0508
15269SOL    HW257027   8.248   8.573   2.245  0.2812 -0.2050 -0.3916
15270SOL     OW57028   0.596   2.466   4.036  0.6327 -0.5967 -0.1489
15270SOL    HW157029   0.644   2.483   3.949  1.1079  1.1247  0.4433
15270SOL    HW257030   0.663   2.461   4.110 -0.0714  1.4921  0.6384
15271SOL     OW57031   2.157   4.266   1.859 -0.0842 -0.3167  0.3812
15271SOL    HW157032   2.087   4.239   1.925  1.7125 -1.2135  1.9955
15271SOL    HW257033   2.181   4.362   1.873  0.7559 -0.6731  1.5213
15272SOL     OW57034   4.375   9.457   5.393  0.4931 -0.2106 -0.4282
15272SOL    HW157035   4.307   9.385   5.401 -0.4687  0.7283  0.0087
15272SOL    HW257036   4.381   9.507   5.480  1.6798 -0.2368 -0.4888
15273SOL     OW57037   4.678   2.431   2.876 -0.0162  0.4239  0.4750
15273SOL    HW157038   4.740   2.452   2.801  0.5252  1.8869  1.3079
15273SOL    HW257039   4.659   2.514   2.928 -0.1828 -0.6093  2.1104
15274SOL     OW57040   6.477   8.865   5.577 -0.7625 -0.0825  0.2593
15274SOL    HW157041   6.516   8.818   5.498 -1.3451  0.0955 -0.1433
15274SOL    HW257042   6.377   8.866   5.569 -0.8849 -1.0833  1.5904
15275SOL     OW57043   4.985   9.081   5.541 -0.8743  0.2148  0.3926
15275SOL    HW157044   4.941   8.996   5.514 -1.8645  1.2683 -1.3615
15275SOL    HW257045   5.078   9.085   5.502 -1.6101  0.8762 -1.3585
15276SOL     OW57046   2.546   6.000   4.937 -0.0820 -0.7454  0.4969
15276SOL    HW157047   2.477   5.928   4.939 -0.1335 -0.6713  2.1344
15276SOL    HW257048   2.629   5.966   4.892 -1.4281 -0.5798 -2.1877
15277SOL     OW57049   4.439   7.361   4.120 -0.5672  0.2165  0.1529
15277SOL    HW157050   4.369   7.293   4.097 -2.0975  2.3312 -1.6960
15277SOL    HW257051   4.526   7.335   4.080 -1.2452 -0.4375 -0.9146
15278SOL     OW57052   0.290   2.237   3.091  0.1955  0.1796  0.4696
15278SOL    HW157053   0.268   2.163   3.154  0.7477 -0.2626  0.1448
15278SOL    HW257054   0.370   2.287   3.124 -0.2571  0.7201  0.7593
15279SOL     OW57055   9.917   3.254   5.663  0.2914 -0.3717  0.4445
15279SOL    HW157056   9.850   3.224   5.596  2.3984 -3.1100 -0.5374
15279SOL    HW257057   9.880   3.240   5.755 -1.0824 -0.3564 -0.0940
15280SOL     OW57058   2.882   9.790   1.492 -0.2698 -0.5524  0.0286
15280SOL    HW157059   2.958   9.855   1.494 -1.1782  0.5161  0.2537
15280SOL    HW257060   2.855   9.768   1.586 -0.7085 -0.3672 -0.0541
15281SOL     OW57061   9.158   8.641   2.379  0.1585  0.1344 -0.7071
15281SOL    HW157062   9.256   8.654   2.365  0.5448 -1.7504  0.0960
15281SOL    HW257063   9.137   8.646   2.477 -0.4718  0.0644 -0.8369
15282SOL     OW57064   9.132   6.357   2.462 -0.0153 -0.4044  0.0953
15282SOL    HW157065   9.137   6.452   2.433 -0.0750 -0.8004 -1.2403
15282SOL    HW257066   9.213   6.308   2.429 -1.3785 -1.4904 -1.7473
15283SOL     OW57067   0.423   7.489   5.950 -0.3206 -0.0317  0.5213
15283SOL    HW157068   0.476   7.537   5.880  0.5355  0.7007  1.6515
15283SOL    HW257069   0.468   7.403   5.973 -1.6572 -1.2322 -1.2369
15284SOL     OW57070   4.756   8.712   0.681 -0.5213 -0.7253  0.3748
15284SOL    HW157071   4.754   8.789   0.746  1.1936 -0.4024  0.0715
15284SOL    HW257072   4.792   8.744   0.593  0.4818 -1.9245  0.3378
15285SOL     OW57073   0.118   5.562   6.711 -0.3683  0.2645  0.1877
15285SOL    HW157074   0.030   5.521   6.690 -0.2175  1.3050 -2.6445
15285SOL    HW257075   0.187   5.530   6.647  1.2553 -0.1815  2.0870
15286SOL     OW57076   1.738   1.970   3.935 -0.7354 -0.3937 -0.2504
15286SOL    HW157077   1.774   2.051   3.981 -0.1825 -0.9372  0.2940
15286SOL    HW257078   1.638   1.974   3.936 -0.7800 -0.9267  2.0375
15287SOL     OW57079   0.950   9.044   0.028 -0.0138 -0.8167  0.0422
15287SOL    HW157080   0.977   8.957   0.068  0.9168 -0.9017 -0.7461
15287SOL    HW257081   0.997   9.057  -0.060  0.2766  0.7212  0.3966
15288SOL     OW57082   7.250   1.269   0.456 -0.4383  0.0406  0.1815
15288SOL    HW157083   7.223   1.325   0.535 -0.9570  0.2926 -0.1708
15288SOL    HW257084   7.305   1.325   0.394 -0.2579 -0.0775  0.2377
15289SOL     OW57085   0.932   8.794   0.681  0.7290  0.4850 -0.0961
15289SOL    HW157086   0.951   8.822   0.775 -0.1307 -1.1250  0.5912
15289SOL    HW257087   0.833   8.797   0.665  0.8388  0.3376 -0.8118
15290SOL     OW57088   2.867   0.125   3.565 -0.1307  0.1313 -0.2722
15290SOL    HW157089   2.802   0.059   3.603  0.7432  0.6358  2.2019
15290SOL    HW257090   2.837   0.218   3.587 -0.2474  0.4988 -1.9107
15291SOL     OW57091   3.142   3.892   4.538  0.3584 -0.4565  0.5292
15291SOL    HW157092   3.077   3.871   4.465 -0.1633 -0.3316  0.9593
15291SOL    HW257093   3.187   3.808   4.567  0.5994 -0.5004  0.0332
15292SOL     OW57094   0.523   7.735   3.351 -0.0296 -0.1408  0.2007
15292SOL    HW157095   0.566   7.816   3.312 -0.1573 -0.6184 -0.9417
15292SOL    HW257096   0.593   7.673   3.386  0.2797 -1.1067 -2.0200
15293SOL     OW57097   2.110   7.635   0.309  0.1176 -0.3590 -0.3341
15293SOL    HW157098   2.198   7.623   0.355 -0.2495  0.2590  0.5641
15293SOL    HW257099   2.105   7.727   0.269 -1.3874  0.8791  2.5326
15294SOL     OW57100   2.779   1.843   4.010 -0.0517 -0.1594  0.0823
15294SOL    HW157101   2.778   1.789   4.094  4.0049  0.2699  0.4906
15294SOL    HW257102   2.863   1.896   4.005 -1.2175  1.5541 -3.2181
15295SOL     OW57103   5.007   8.334   5.320  0.0339 -0.4272  0.4467
15295SOL    HW157104   5.032   8.424   5.286 -2.1872  0.0616  0.0460
15295SOL    HW257105   4.943   8.291   5.257  0.3436 -1.9021  1.1172
15296SOL     OW57106   4.417   9.842   4.909  0.1460  0.3561 -0.2017
15296SOL    HW157107   4.380   9.883   4.825  0.6620  1.1527 -0.0413
15296SOL    HW257108   4.354   9.858   4.985  0.7640  1.6534  0.0561
15297SOL     OW57109   7.304   9.759   3.606  0.4863 -0.2307  1.0859
15297SOL    HW157110   7.401   9.777   3.622  0.7777 -1.4703  0.7913
15297SOL    HW257111   7.272   9.688   3.669  0.2205 -1.0595  0.0562
15298SOL     OW57112   0.550   7.865   2.058  0.8981 -0.2780 -0.0367
15298SOL    HW157113   0.644   7.848   2.028  0.9918 -2.6483  1.4801
15298SOL    HW257114   0.510   7.780   2.090 -1.0554  1.1375  1.3523
15299SOL     OW57115   6.824   0.020   6.076 -0.1046  0.0125 -0.4947
15299SOL    HW157116   6.811   0.118   6.062  0.2955  0.2088  0.4828
15299SOL    HW257117   6.909   0.004   6.125 -0.1678 -0.8309 -0.6514
15300SOL     OW57118   2.686   4.749   5.792  0.4792  0.1260 -0.2324
15300SOL    HW157119   2.721   4.774   5.882  2.1715 -0.3090 -0.7330
15300SOL    HW257120   2.710   4.820   5.726 -1.6429  0.9256 -0.1587
15301SOL     OW57121   4.113   7.748   4.828 -0.2598  0.3491  0.3860
15301SOL    HW157122   4.078   7.663   4.787 -0.1550  1.0373 -1.1480
15301SOL    HW257123   4.172   7.725   4.906  0.5285 -1.0232 -0.5956
15302SOL     OW57124   8.360   2.042   4.926 -0.1347 -0.4183  0.1735
15302SOL    HW157125   8.357   1.943   4.921  0.6737 -0.5403  1.8372
15302SOL    HW257126   8.437   2.076   4.871 -0.6037 -0.6750 -0.6549
15303SOL     OW57127   3.051   6.829   1.919 -0.2122  0.1643 -0.0617
15303SOL    HW157128   3.085   6.895   1.852  0.8860 -0.5795 -0.2421
15303SOL    HW257129   2.957   6.852   1.943 -0.5019  0.6414 -1.5929
15304SOL     OW57130   2.744   5.260   6.053 -1.0218 -0.3907 -0.1042
15304SOL    HW157131   2.730   5.233   5.957 -2.4078  1.6917 -0.5070
15304SOL    HW257132   2.681   5.333   6.077 -0.9649 -1.1689  2.5544
15305SOL     OW57133   4.263   9.053   2.986  1.0765  0.4818 -0.6069
15305SOL    HW157134   4.187   9.076   2.924  0.5232 -1.1855 -0.5839
15305SOL    HW257135   4.276   8.954   2.986  2.5679  0.6727  0.2197
15306SOL     OW57136   9.915   1.134   3.046 -0.2667 -0.2585  0.7437
15306SOL    HW157137  10.009   1.107   3.068  0.4776  0.7889 -1.0294
15306SOL    HW257138   9.858   1.052   3.035  1.4008 -1.0785 -2.2499
15307SOL     OW57139   6.516   1.011   5.542 -0.1254 -0.0823 -0.1954
15307SOL    HW157140   6.451   1.037   5.613  1.2588  0.6953  0.8232
15307SOL    HW257141   6.589   1.079   5.537  0.8619 -1.1722 -0.9819
15308SOL     OW57142   3.050   5.258   4.768 -0.4719  0.3966  0.3167
15308SOL    HW157143   3.100   5.344   4.774  0.6734 -0.0504 -2.0808
15308SOL    HW257144   3.089   5.201   4.695  0.1400 -3.0722  3.2081
15309SOL     OW57145   3.542   4.778   1.924 -0.2485  0.3060 -0.2382
15309SOL    HW157146   3.642   4.777   1.931 -0.3110  0.6826  0.7964
15309SOL    HW257147   3.510   4.688   1.894  0.3806  0.1046 -0.3155
15310SOL     OW57148   3.807   0.984   4.056  0.1454  0.1234  0.4555
15310SOL    HW157149   3.884   1.043   4.031 -0.8839  1.4483  0.3311
15310SOL    HW257150   3.776   1.007   4.148  0.8939 -1.4996  1.1326
15311SOL     OW57151   9.883   9.382   0.735  0.4689 -0.1954  0.1092
15311SOL    HW157152   9.870   9.424   0.824 -0.1108  0.2151 -0.1690
15311SOL    HW257153   9.794   9.358   0.696  0.5926  1.4078 -1.2064
15312SOL     OW57154   1.012   1.361   0.708 -0.2028  0.5760  0.1214
15312SOL    HW157155   0.961   1.428   0.762  1.1173  1.6693  0.0490
15312SOL    HW257156   1.095   1.404   0.673 -0.1594 -0.6544 -1.2925
15313SOL     OW57157   9.285   3.015   6.067  0.3902  0.3389 -0.3148
15313SOL    HW157158   9.189   2.992   6.080  0.9073 -1.6157  0.0792
15313SOL    HW257159   9.293   3.083   5.993 -1.1945 -0.2646 -1.0592
15314SOL     OW57160   3.804   3.414   1.272  0.3732  0.4100 -0.1360
15314SOL    HW157161   3.714   3.384   1.305  0.2575 -0.8412 -1.5082
15314SOL    HW257162   3.815   3.386   1.177  2.0583  0.9261 -0.1085
15315SOL     OW57163   1.194   4.039   3.428  0.3837 -0.0315 -0.4815
15315SOL    HW157164   1.262   4.096   3.472  0.8778 -0.5105 -0.6230
15315SOL    HW257165   1.236   3.954   3.397 -0.1733 -0.1316 -0.9786
15316SOL     OW57166   0.147   7.791   4.234 -0.1886  0.0246  0.0228
15316SOL    HW157167   0.145   7.848   4.152  3.2226 -0.1250 -0.2227
15316SOL    HW257168   0.066   7.732   4.235 -1.0425  1.0817 -2.4398
15317SOL     OW57169   0.303   8.684   5.768  0.5440  0.2077 -0.0522
15317SOL    HW157170   0.277   8.636   5.685 -1.1022 -0.8427  1.0428
15317SOL    HW257171   0.260   8.775   5.769 -1.1753 -0.5882  0.6083
15318SOL     OW57172   7.826   7.319   5.914  0.4617  0.1707 -0.5856
15318SOL    HW157173   7.811   7.233   5.963 -0.6497  0.6788 -0.0245
15318SOL    HW257174   7.925   7.334   5.903  0.6780 -0.8006 -0.0254
15319SOL     OW57175   4.598   6.480   2.038 -0.2864 -0.0418 -0.1872
15319SOL    HW157176   4.687   6.461   2.078 -0.2374 -0.0201 -0.2877
15319SOL    HW257177   4.609   6.514   1.945 -0.4153 -0.3956 -0.3331
15320SOL     OW57178   4.551   9.017   2.707 -0.0797  0.0563 -0.4665
15320SOL    HW157179   4.524   8.967   2.789  0.3110  1.3846  0.4857
15320SOL    HW257180   4.496   8.986   2.629 -1.6816  0.0031  0.6572
15321SOL     OW57181   1.493   4.957   0.634  0.6062  0.1653  0.1496
15321SOL    HW157182   1.412   5.011   0.660  0.5037 -0.7282  1.8054
15321SOL    HW257183   1.489   4.868   0.681  1.9139 -0.3787 -0.7656
15322SOL     OW57184   0.332   4.712   2.067  0.0238  0.2959 -0.4617
15322SOL    HW157185   0.414   4.756   2.104 -0.6713  1.1811  0.0604
15322SOL    HW257186   0.265   4.698   2.141  0.4139 -2.0672 -0.5444
15323SOL     OW57187   0.453   5.503   4.989  0.6494  0.3276  0.1273
15323SOL    HW157188   0.501   5.469   5.069  1.8991 -0.8626 -1.1023
15323SOL    HW257189   0.514   5.561   4.936  0.0612  0.5278 -0.3279
15324SOL     OW57190   5.718   2.899   3.770  0.4397  0.3539 -0.6344
15324SOL    HW157191   5.730   2.853   3.682  2.5988 -2.2982  0.9853
15324SOL    HW257192   5.802   2.947   3.794 -0.5878  2.2034 -0.5905
15325SOL     OW57193   9.016   8.878   1.545 -0.2688 -0.0165 -1.2126
15325SOL    HW157194   8.959   8.822   1.485 -0.0155 -0.8719 -0.6688
15325SOL    HW257195   8.981   8.971   1.547 -2.3936 -0.7906  0.0461
15326SOL     OW57196   8.349   6.210   1.360  0.3087 -0.6692  0.1436
15326SOL    HW157197   8.263   6.180   1.402 -0.7333  0.3028 -1.2614
15326SOL    HW257198   8.367   6.154   1.280 -0.2814  0.7014 -0.9626
15327SOL     OW57199   1.225   1.442   0.973 -0.2058  0.0737 -0.9394
15327SOL    HW157200   1.201   1.364   1.031 -1.4236  0.4090 -0.9784
15327SOL    HW257201   1.274   1.410   0.892 -0.9012 -0.6703 -1.0628
15328SOL     OW57202   4.825   9.387   6.417 -0.3537 -0.2819 -0.5277
15328SOL    HW157203   4.900   9.332   6.453 -1.2959 -0.8468  0.6021
15328SOL    HW257204   4.844   9.412   6.322  1.3028 -0.3323 -0.2209
15329SOL     OW57205   7.377   2.218   3.631  0.5528  0.0435  0.3097
15329SOL    HW157206   7.407   2.176   3.545 -0.8794  0.5241 -0.4364
15329SOL    HW257207   7.320   2.153   3.681 -0.9383  0.7709 -0.4330
15330SOL     OW57208   5.308   1.936   3.363 -0.0227 -0.0949 -0.6220
15330SOL    HW157209   5.366   1.868   3.407  2.2712  0.5991 -2.4731
15330SOL    HW257210   5.278   2.003   3.431 -0.3834 -1.6179  0.7498
15331SOL     OW57211   9.621   1.461   5.629 -0.2283  0.4299 -0.4580
15331SOL    HW157212   9.576   1.550   5.640 -0.7792  0.4244 -2.4582
15331SOL    HW257213   9.719   1.474   5.616 -0.0484  0.6169  0.9376
15332SOL     OW57214   1.383   1.136   3.356  0.2160  0.4981  0.5653
15332SOL    HW157215   1.470   1.179   3.332  0.4714  0.1451  0.8603
15332SOL    HW257216   1.398   1.068   3.427 -0.1523 -0.2525 -0.0759
15333SOL     OW57217   1.984   0.023   3.743  0.1332 -0.0409  0.0034
15333SOL    HW157218   1.953  -0.010   3.654  0.2757 -1.5513  0.5032
15333SOL    HW257219   2.030  -0.051   3.792  0.5354  0.9292  1.1120
15334SOL     OW57220   0.996   4.875   2.268  0.2207 -0.1126  0.6621
15334SOL    HW157221   0.914   4.833   2.306  0.3332 -0.1626  0.8511
15334SOL    HW257222   1.039   4.932   2.338 -0.0884  0.5443  0.3229
15335SOL     OW57223   8.260   4.111   6.570 -0.1886  0.1237  0.0744
15335SOL    HW157224   8.306   4.198   6.586  0.2230 -0.3363  1.4155
15335SOL    HW257225   8.261   4.090   6.472 -1.2045  2.1225 -0.3788
15336SOL     OW57226   0.341   4.229   1.107  0.5096 -0.1534  0.1012
15336SOL    HW157227   0.351   4.329   1.109  0.9957 -0.1765 -1.1102
15336SOL    HW257228   0.431   4.187   1.100  0.3762 -0.7193  1.6321
15337SOL     OW57229   9.844   9.739   6.573 -0.0336  0.8751 -0.2428
15337SOL    HW157230   9.849   9.731   6.474  2.1619 -1.4230  0.0157
15337SOL    HW257231   9.807   9.654   6.612 -0.0597  1.4285  0.9790
15338SOL     OW57232   5.198   0.197   3.122 -1.0795  0.2887 -0.2412
15338SOL    HW157233   5.151   0.111   3.144  0.9322 -0.5343  1.0171
15338SOL    HW257234   5.186   0.218   3.025 -1.5715 -1.4247 -0.5725
15339SOL     OW57235   6.326   9.036   4.314 -0.4246 -0.7986  0.2436
15339SOL    HW157236   6.386   9.109   4.279 -2.1655  0.3145 -0.4769
15339SOL    HW257237   6.367   8.997   4.396  1.2165  0.0475 -0.1310
15340SOL     OW57238   2.432   9.347   1.541  0.0918  0.8674  0.4074
15340SOL    HW157239   2.440   9.415   1.469  0.1413 -0.9682 -1.3673
15340SOL    HW257240   2.421   9.393   1.629 -0.9270  3.1530 -0.8606
15341SOL     OW57241   8.809   1.262   4.815 -0.5686 -0.3204 -0.1735
15341SOL    HW157242   8.837   1.207   4.736  0.6085 -3.1805  2.1202
15341SOL    HW257243   8.726   1.224   4.854 -0.3315  0.1803  0.8334
15342SOL     OW57244   1.558   1.546   4.131 -0.5083 -0.0493 -0.3898
15342SOL    HW157245   1.537   1.460   4.177  0.8025 -0.0498  0.2466
15342SOL    HW257246   1.601   1.527   4.043 -2.2586 -0.0458 -1.2522
15343SOL     OW57247   9.863   6.683   3.812 -0.0172 -0.1017  0.5893
15343SOL    HW157248   9.948   6.662   3.860  0.9754  1.9653 -0.1879
15343SOL    HW257249   9.804   6.737   3.872  0.6620  1.3460 -0.0294
15344SOL     OW57250   2.124   8.789   0.998 -0.7434 -0.5254  0.2727
15344SOL    HW157251   2.176   8.704   0.992 -1.5699 -1.0043 -0.1901
15344SOL    HW257252   2.101   8.821   0.906  1.1370  1.1800  0.3663
15345SOL     OW57253   4.893   8.780   1.564 -0.5012  0.3258  0.2879
15345SOL    HW157254   4.855   8.725   1.639 -2.1802 -0.3954 -1.0656
15345SOL    HW257255   4.956   8.724   1.510 -0.7030  0.3125  0.0689
15346SOL     OW57256   2.285   9.052   0.211 -0.1589  0.5772  0.1398
15346SOL    HW157257   2.288   9.081   0.306 -0.1445 -5.6283  2.2960
15346SOL    HW257258   2.191   9.050   0.179 -0.4383  0.0902  0.9780
15347SOL     OW57259   6.621   0.965   2.821  0.1040  0.0791  0.5194
15347SOL    HW157260   6.645   0.928   2.731  1.3922 -0.1449  0.9455
15347SOL    HW257261   6.612   1.065   2.814 -2.0341 -0.1535 -0.3349
15348SOL     OW57262   8.021   6.572   2.586  0.2510  0.0686 -0.0664
15348SOL    HW157263   7.936   6.561   2.534  1.0057 -1.1236 -1.0740
15348SOL    HW257264   8.055   6.482   2.614  1.0039  0.5625  0.6231
15349SOL     OW57265   2.632   8.715   3.124  0.0144  0.6608  0.2110
15349SOL    HW157266   2.562   8.657   3.081  0.0039  0.8319  0.0017
15349SOL    HW257267   2.718   8.664   3.131 -0.6157 -0.1998  2.1144
15350SOL     OW57268   1.800   7.572   2.085  0.0525 -0.2506 -0.2397
15350SOL    HW157269   1.880   7.528   2.127  1.3395  0.8607 -1.4430
15350SOL    HW257270   1.759   7.510   2.018 -0.0110 -0.7763  0.2858
15351SOL     OW57271   3.739   0.068   1.523  0.0574  0.4849 -0.1903
15351SOL    HW157272   3.718   0.008   1.600  0.0174 -0.2706 -0.7856
15351SOL    HW257273   3.832   0.053   1.492  0.0625  0.7613 -0.3152
15352SOL     OW57274   8.215   4.277   2.755 -0.5772 -0.4669  0.4950
15352SOL    HW157275   8.126   4.248   2.790 -0.2865 -1.0694  0.7480
15352SOL    HW257276   8.230   4.373   2.776 -1.3487 -0.2546  0.0835
15353SOL     OW57277   3.683   3.705   2.934 -0.0551  0.6569  0.8837
15353SOL    HW157278   3.735   3.682   3.016  0.9912 -0.5928 -0.1148
15353SOL    HW257279   3.592   3.664   2.938 -0.0322  0.6674  1.4461
15354SOL     OW57280   9.115   9.725   4.757  0.5979 -0.0772  0.1224
15354SOL    HW157281   9.205   9.682   4.763  1.2650  1.3816  0.7902
15354SOL    HW257282   9.071   9.698   4.671  1.4258 -1.2489  0.0517
15355SOL     OW57283   0.119   0.433   4.043  0.1747 -0.0960  0.3252
15355SOL    HW157284   0.061   0.394   4.114  1.9203  0.0478  1.8795
15355SOL    HW257285   0.101   0.531   4.034 -1.6861 -0.5234 -1.1013
15356SOL     OW57286   1.609   0.456   2.683  0.5028 -0.2088  0.0348
15356SOL    HW157287   1.648   0.385   2.623  1.9855  1.7134 -1.3284
15356SOL    HW257288   1.669   0.468   2.763  0.7608  0.1796 -0.2171
15357SOL     OW57289   7.850   2.157   4.895 -0.2971  0.0312 -0.4604
15357SOL    HW157290   7.815   2.241   4.935 -0.3868  0.1396 -0.7646
15357SOL    HW257291   7.900   2.105   4.964  4.3007  2.7911 -1.4971
15358SOL     OW57292   1.913   1.486   2.684  0.1124 -0.3745  0.0317
15358SOL    HW157293   1.846   1.485   2.758  0.1772 -0.6662  0.0864
15358SOL    HW257294   1.976   1.409   2.694  1.6853  1.0259  1.1069
15359SOL     OW57295   2.591   9.748   4.948  0.4920  0.0971  0.2436
15359SOL    HW157296   2.640   9.792   5.023  0.3225  0.1176  0.3431
15359SOL    HW257297   2.634   9.773   4.861  0.4721  0.3618  0.3088
15360SOL     OW57298   6.585   4.355   0.601 -0.1025  0.9214 -0.1976
15360SOL    HW157299   6.658   4.343   0.535 -0.1319  0.4603 -0.1502
15360SOL    HW257300   6.623   4.353   0.694 -0.4103 -1.3186 -0.0951
15361SOL     OW57301   1.113   8.077   6.678  0.5585 -0.4954 -0.5102
15361SOL    HW157302   1.149   8.082   6.771  0.7144  0.9166 -0.6466
15361SOL    HW257303   1.188   8.090   6.613  0.3432 -0.8709 -0.8378
15362SOL     OW57304   4.238   7.510   3.964  0.1429  0.2176 -0.2290
15362SOL    HW157305   4.287   7.571   3.903  0.4064  0.5628  0.3222
15362SOL    HW257306   4.303   7.452   4.013 -0.0921 -0.3413 -0.5827
15363SOL     OW57307   3.081   9.564   3.646  0.4118  0.3838  0.6288
15363SOL    HW157308   3.175   9.570   3.613  0.4687  0.7992  0.8657
15363SOL    HW257309   3.021   9.618   3.587 -0.1754 -2.2661 -1.3380
15364SOL     OW57310   2.891   1.422   2.002  0.3469 -0.1478  0.5315
15364SOL    HW157311   2.990   1.434   2.004  0.1341  2.2242 -1.2778
15364SOL    HW257312   2.861   1.408   1.908 -0.8835 -2.4673  1.2382
15365SOL     OW57313   4.411   4.413   3.661 -0.5677 -0.1983  0.1447
15365SOL    HW157314   4.348   4.346   3.701  0.7156  0.1354  2.7718
15365SOL    HW257315   4.496   4.366   3.634  0.0103  0.2263  1.2265
15366SOL     OW57316   9.678   8.789   2.140 -0.5885  0.1159  0.1860
15366SOL    HW157317   9.599   8.727   2.139 -1.3523  1.0690 -1.2023
15366SOL    HW257318   9.701   8.812   2.234 -1.8176 -0.3780  0.6265
15367SOL     OW57319   3.575   5.554   3.734 -1.0670  0.3828 -0.3522
15367SOL    HW157320   3.570   5.654   3.731 -3.2617  0.2614 -3.1564
15367SOL    HW257321   3.540   5.521   3.821 -0.8405  2.0242  0.3845
15368SOL     OW57322   4.631   9.584   4.774  0.3874  0.1455  0.3573
15368SOL    HW157323   4.679   9.671   4.785  0.0037  0.3591  0.3675
15368SOL    HW257324   4.536   9.602   4.748 -0.1983 -0.2229  2.1797
15369SOL     OW57325   0.555   8.244   0.253  0.1772  1.0104 -0.1160
15369SOL    HW157326   0.545   8.328   0.307 -0.9587  0.0636  1.2001
15369SOL    HW257327   0.650   8.216   0.253  0.4209  1.8034  0.2088
15370SOL     OW57328   8.228   9.870   1.381 -0.0764 -0.6023  0.5460
15370SOL    HW157329   8.248   9.963   1.409 -0.7192 -0.4267  0.4441
15370SOL    HW257330   8.267   9.805   1.446 -0.5543 -0.2331  1.2060
15371SOL     OW57331   9.795   4.451   2.774 -0.0026 -0.4739 -0.0852
15371SOL    HW157332   9.854   4.437   2.853 -1.6929  0.4942  1.3930
15371SOL    HW257333   9.783   4.365   2.725  1.3050 -1.0173  0.5260
15372SOL     OW57334   8.219   0.135   1.434  0.1054 -0.1055  0.1630
15372SOL    HW157335   8.211   0.156   1.531 -0.4760  0.4265  0.0045
15372SOL    HW257336   8.278   0.203   1.390  0.8305 -0.6753  0.2470
15373SOL     OW57337   3.873   0.333   5.889 -0.6008 -0.0868 -0.2621
15373SOL    HW157338   3.777   0.356   5.876 -0.4056  0.3253 -0.9984
15373SOL    HW257339   3.888   0.304   5.983 -0.5606  4.3983  1.2441
15374SOL     OW57340   0.980   6.504   5.382 -0.0159  0.1617  0.3136
15374SOL    HW157341   1.005   6.492   5.286 -0.6993  0.0472  0.1497
15374SOL    HW257342   0.934   6.421   5.415  1.5150 -0.3673  1.1517
15375SOL     OW57343   2.886   4.828   3.556  0.0391  0.4948 -0.2596
15375SOL    HW157344   2.790   4.845   3.579 -0.3919 -0.4725 -1.2574
15375SOL    HW257345   2.927   4.913   3.522 -0.5429  0.8567 -0.0754
15376SOL     OW57346   7.783   2.002   5.437 -0.5356 -0.1732 -0.4655
15376SOL    HW157347   7.696   2.011   5.484 -0.2236 -0.8724  0.2466
15376SOL    HW257348   7.858   2.010   5.503 -0.0287  1.3272 -1.1956
15377SOL     OW57349   9.198   5.472   3.053 -0.3611  0.0076 -0.1203
15377SOL    HW157350   9.159   5.380   3.050 -1.7084  0.6044 -1.5088
15377SOL    HW257351   9.137   5.532   3.104  1.9833 -0.4922  3.4802
15378SOL     OW57352   3.571   1.057   1.886 -0.4012 -0.0828  0.2415
15378SOL    HW157353   3.624   0.997   1.946  0.5136  0.7686  0.2901
15378SOL    HW257354   3.595   1.038   1.791 -0.6992 -0.3422  0.2167
15379SOL     OW57355   6.704   1.750   2.714 -0.0494  0.0451 -0.4713
15379SOL    HW157356   6.669   1.784   2.801  0.0573  1.1875 -0.8614
15379SOL    HW257357   6.639   1.771   2.641 -0.2247 -1.0762 -0.6449
15380SOL     OW57358   9.747   4.824   2.426  0.5586  0.2467  0.0431
15380SOL    HW157359   9.747   4.730   2.391  3.2854 -0.1440  0.9901
15380SOL    HW257360   9.768   4.887   2.352  1.1175 -0.1031 -0.0969
15381SOL     OW57361   3.462   6.512   5.607  0.3984 -0.2437 -0.7452
15381SOL    HW157362   3.454   6.533   5.509  0.4083 -0.3556 -0.7698
15381SOL    HW257363   3.511   6.426   5.619 -2.2104 -1.7690 -0.7659
15382SOL     OW57364   9.541   4.124   5.472 -0.4483 -0.1449 -0.2163
15382SOL    HW157365   9.563   4.178   5.554  0.1171  2.2284 -1.8686
15382SOL    HW257366   9.615   4.060   5.454  0.5976  1.0398 -0.2387
15383SOL     OW57367   9.489   7.562   5.888  0.3509  0.5969 -0.2049
15383SOL    HW157368   9.521   7.526   5.801 -0.3394  1.2142 -0.7245
15383SOL    HW257369   9.415   7.504   5.923  1.4506 -0.3545  0.5873
15384SOL     OW57370   0.585   1.777   0.650  0.3418 -0.0220  0.1343
15384SOL    HW157371   0.555   1.859   0.700 -0.6678  0.0341 -0.5346
15384SOL    HW257372   0.504   1.727   0.618  0.9692 -0.7227 -0.3551
15385SOL     OW57373   8.491   9.138   0.340  0.0458  0.3184 -0.2592
15385SOL    HW157374   8.578   9.156   0.296 -0.0707  0.7882 -0.2960
15385SOL    HW257375   8.434   9.220   0.337 -1.0481 -0.4806 -1.7218
15386SOL     OW57376   1.669   1.896   4.369  0.1047 -0.5232  0.0968
15386SOL    HW157377   1.695   1.911   4.464  1.6958 -0.1635 -0.3845
15386SOL    HW257378   1.587   1.949   4.348  0.2637  0.0864  1.0124
15387SOL     OW57379   9.815   6.071   3.581  0.3588  0.5435 -0.0081
15387SOL    HW157380   9.767   6.004   3.638 -2.1166  1.9797 -0.3185
15387SOL    HW257381   9.803   6.048   3.484  0.8190  0.5762 -0.0753
15388SOL     OW57382   0.767   2.254   6.380 -0.0192  0.5225  0.6522
15388SOL    HW157383   0.703   2.266   6.456 -0.6034  0.8788  0.1061
15388SOL    HW257384   0.796   2.158   6.376  0.3174  0.5775  1.5572
15389SOL     OW57385   1.121   2.001   4.180  0.2391  0.4900  0.2448
15389SOL    HW157386   1.115   1.995   4.279 -2.8813  0.8072  0.1433
15389SOL    HW257387   1.122   1.909   4.141  0.3864  0.3678  0.5361
15390SOL     OW57388   1.536   2.929   0.280 -0.0709 -0.1870 -0.1915
15390SOL    HW157389   1.629   2.903   0.306 -0.6650 -0.6984  1.4943
15390SOL    HW257390   1.496   2.857   0.224  0.7227  0.2686 -1.3635
15391SOL     OW57391   2.892   3.311   6.344  0.2798  0.4294  0.2912
15391SOL    HW157392   2.816   3.319   6.408  0.7053  2.4873  0.5987
15391SOL    HW257393   2.897   3.394   6.288  0.6297 -0.8565 -1.6004
15392SOL     OW57394   4.850   8.845   2.019  0.7686  0.2657 -0.0034
15392SOL    HW157395   4.906   8.794   2.085 -0.6157  0.8118  1.6407
15392SOL    HW257396   4.805   8.781   1.957 -1.0483 -0.5617  2.1238
15393SOL     OW57397   1.085   0.351   1.097  0.2682 -0.5673  0.2962
15393SOL    HW157398   1.041   0.434   1.061  0.2917 -1.3646 -1.6295
15393SOL    HW257399   1.021   0.304   1.158 -0.5896 -0.3603 -0.4393
15394SOL     OW57400   1.995   9.786   0.648 -0.2185 -0.3068 -0.2079
15394SOL    HW157401   1.955   9.867   0.690  1.7478 -0.3243  1.8091
15394SOL    HW257402   2.027   9.809   0.555  0.7602  1.3899  0.5256
15395SOL     OW57403   7.896   2.777   0.773 -0.2183  0.0892  0.3219
15395SOL    HW157404   7.971   2.726   0.815  0.4443  1.2115  0.5034
15395SOL    HW257405   7.843   2.823   0.843 -0.6755 -0.1431  0.1334
15396SOL     OW57406   7.353   7.750   5.187 -0.1395  0.0689  0.6344
15396SOL    HW157407   7.350   7.850   5.188 -0.8188  0.0579  0.1237
15396SOL    HW257408   7.439   7.719   5.227  1.9513  0.9365 -2.9418
15397SOL     OW57409   1.674   2.745   5.964  0.6161  0.2173  0.3202
15397SOL    HW157410   1.714   2.809   5.899  0.6242  0.7598  0.8532
15397SOL    HW257411   1.579   2.771   5.981 -0.5722 -2.1210 -2.3223
15398SOL     OW57412   2.626   7.658   0.434  0.7177  0.6390 -0.2670
15398SOL    HW157413   2.629   7.670   0.335  0.1023 -2.6956 -0.7428
15398SOL    HW257414   2.531   7.658   0.465  0.5586 -3.6703 -0.4806
15399SOL     OW57415   0.163   3.027   2.895  0.0760 -0.0215 -0.0750
15399SOL    HW157416   0.187   2.937   2.858 -1.1443  0.4385 -2.0869
15399SOL    HW257417   0.078   3.021   2.947 -0.4477  0.1068 -0.9055
15400SOL     OW57418   1.232   2.610   4.454 -0.1553 -0.0658 -0.4023
15400SOL    HW157419   1.237   2.579   4.359 -0.9674  0.7585 -0.7183
15400SOL    HW257420   1.178   2.694   4.459  0.4879  0.2945  0.6896
15401SOL     OW57421   7.327   0.477   0.710 -0.4915  0.6394  0.1077
15401SOL    HW157422   7.272   0.396   0.691  0.2293  0.7217 -2.5543
15401SOL    HW257423   7.317   0.543   0.636 -0.4682  2.6790  1.8764
15402SOL     OW57424   5.009   0.561   5.464 -0.3085  0.1689  0.2812
15402SOL    HW157425   4.958   0.530   5.545 -0.5296 -0.4854 -0.1054
15402SOL    HW257426   5.096   0.602   5.493 -0.6370  0.4360  0.8853
15403SOL     OW57427   8.495   3.973   3.501 -0.1246  0.3516  0.3778
15403SOL    HW157428   8.405   3.975   3.545 -1.6328  1.4705 -2.6296
15403SOL    HW257429   8.484   3.959   3.403  3.0699 -0.6366  0.1114
15404SOL     OW57430   1.313   0.495   5.307  0.1610  0.0131  0.0313
15404SOL    HW157431   1.404   0.536   5.299  0.5687 -0.5194  1.7706
15404SOL    HW257432   1.302   0.426   5.236  1.6656 -0.9227  0.6727
15405SOL     OW57433   0.451   7.277   1.021  0.2697 -0.5839 -0.1738
15405SOL    HW157434   0.547   7.275   0.993  0.0972  0.6006 -0.8826
15405SOL    HW257435   0.421   7.184   1.045  1.8322 -0.8263  0.9078
15406SOL     OW57436   5.047   1.107   4.691  0.1739 -0.8273 -0.1309
15406SOL    HW157437   4.979   1.046   4.651 -1.2592  1.2518 -0.9546
15406SOL    HW257438   5.040   1.198   4.648  3.4283 -0.5385 -0.2056
15407SOL     OW57439   1.948   2.708   2.748 -0.5439 -0.2027 -0.2222
15407SOL    HW157440   1.905   2.622   2.721 -0.5783 -0.4593  0.6317
15407SOL    HW257441   2.043   2.691   2.774 -0.7474 -0.1005  0.6013
15408SOL     OW57442   4.120   3.262   5.416  0.1600  0.1459  0.3805
15408SOL    HW157443   4.078   3.224   5.499  1.7287 -0.6616  0.8225
15408SOL    HW257444   4.098   3.203   5.338 -0.4269  0.3152  0.4187
15409SOL     OW57445   5.083   8.732   5.525  0.4800 -0.7344 -0.4311
15409SOL    HW157446   5.022   8.702   5.452  1.0853  0.5852 -1.4972
15409SOL    HW257447   5.169   8.765   5.486  0.7336  0.1706  0.8518
15410SOL     OW57448   9.967   4.767   2.585 -0.1839 -0.0366 -0.2482
15410SOL    HW157449   9.893   4.797   2.525  0.8079  0.6436 -1.1609
15410SOL    HW257450   9.938   4.771   2.680 -0.9705  1.2180 -0.5382
15411SOL     OW57451   3.842   0.766   5.321  0.1850 -0.0296  0.2593
15411SOL    HW157452   3.829   0.702   5.396  1.8446 -1.5100 -0.6736
15411SOL    HW257453   3.818   0.722   5.234 -0.4579  1.2267 -0.2082
15412SOL     OW57454   6.191   8.706   4.140 -0.2502  0.1004 -0.0423
15412SOL    HW157455   6.109   8.648   4.143 -0.0671 -0.0924  1.4560
15412SOL    HW257456   6.272   8.650   4.151  0.0436  0.4154 -0.5589
15413SOL     OW57457   2.860   7.410   4.510 -0.2062 -0.3987 -0.1339
15413SOL    HW157458   2.923   7.488   4.517 -0.6624  0.0196 -0.6800
15413SOL    HW257459   2.834   7.397   4.415  0.0739 -1.3879 -0.0831
15414SOL     OW57460   2.840   6.767   0.915  0.1450 -0.4086 -0.6070
15414SOL    HW157461   2.928   6.756   0.960 -0.1629  1.3117  0.4718
15414SOL    HW257462   2.829   6.698   0.844  0.7775 -3.0198  1.7635
15415SOL     OW57463   8.393   6.341   2.445  0.4529 -0.4984 -0.1197
15415SOL    HW157464   8.331   6.294   2.507 -1.4677  0.9832 -0.8743
15415SOL    HW257465   8.435   6.275   2.383  0.1581 -1.5847  0.8300
15416SOL     OW57466   4.981   0.184   6.461 -0.4529  0.8487 -0.2668
15416SOL    HW157467   5.043   0.113   6.495 -0.0176  1.3007 -0.1150
15416SOL    HW257468   5.003   0.203   6.365  0.1935  1.6019  0.0284
15417SOL     OW57469   3.126   0.280   5.402  0.0956 -0.7235  0.0680
15417SOL    HW157470   3.216   0.241   5.425  0.2394 -1.8085 -2.1413
15417SOL    HW257471   3.135   0.333   5.318 -0.7117  1.8005  1.5337
15418SOL     OW57472   0.700   6.337   5.249  0.3688 -0.6496 -0.1080
15418SOL    HW157473   0.768   6.326   5.322 -0.2644 -0.9672  0.4503
15418SOL    HW257474   0.735   6.300   5.164  1.2472  0.0143 -0.0394
15419SOL     OW57475   9.982   0.291   4.892 -0.0068  0.0657  0.5459
15419SOL    HW157476   9.931   0.362   4.842 -1.0516 -0.0208  1.4676
15419SOL    HW257477  10.055   0.334   4.945 -0.0245  0.3514  0.3395
15420SOL     OW57478   4.054   6.120   2.181 -0.0248 -1.1164  0.6757
15420SOL    HW157479   3.959   6.109   2.150 -0.4482  1.0534  1.1087
15420SOL    HW257480   4.087   6.211   2.156  2.1575 -2.0595  0.0299
15421SOL     OW57481   8.026   9.922   2.461  0.2379  0.1398  0.0623
15421SOL    HW157482   8.070   9.837   2.431 -0.7069 -0.4559  0.3225
15421SOL    HW257483   7.933   9.926   2.423 -0.3199  0.2534  1.4280
15422SOL     OW57484   4.438   9.543   2.438  0.2980  0.3316 -0.2759
15422SOL    HW157485   4.519   9.574   2.488  1.0745 -2.6558  0.3777
15422SOL    HW257486   4.463   9.466   2.379 -2.5689 -2.2715  1.7886
15423SOL     OW57487   9.002   6.284   3.202 -0.1933 -0.0801  0.3045
15423SOL    HW157488   9.087   6.334   3.219 -0.6871  0.2119  2.0209
15423SOL    HW257489   8.940   6.296   3.280 -1.1612 -1.6330 -0.2026
15424SOL     OW57490   5.095   2.130   4.212 -0.4653  0.1114  0.1654
15424SOL    HW157491   5.106   2.092   4.121 -3.2459 -1.5003  0.4332
15424SOL    HW257492   4.998   2.145   4.230  0.0066  0.0864  2.9693
15425SOL     OW57493   6.792   4.044   6.436 -0.1844 -0.1273  0.5764
15425SOL    HW157494   6.743   4.130   6.446 -1.9400 -1.0652  0.2481
15425SOL    HW257495   6.839   4.022   6.521  0.6065  1.3432  0.5336
15426SOL     OW57496   8.227   3.723   1.499 -0.0665  0.1927 -0.0301
15426SOL    HW157497   8.206   3.737   1.402 -0.0977  0.4445  0.0144
15426SOL    HW257498   8.233   3.625   1.517  0.6123  0.1559 -0.4372
15427SOL     OW57499   9.063   9.391   5.206  0.3091 -0.0843 -0.0043
15427SOL    HW157500   9.158   9.361   5.219  0.0558 -0.8223  0.2070
15427SOL    HW257501   9.003   9.331   5.259 -0.3786 -0.4142 -1.1379
15428SOL     OW57502   9.881   3.899   0.593 -0.0196  0.1699 -0.0701
15428SOL    HW157503   9.829   3.867   0.672 -0.7372 -2.8976 -1.7369
15428SOL    HW257504   9.836   3.979   0.554 -1.9712 -0.8106  0.1339
15429SOL     OW57505   3.928   0.611   3.686  0.0932 -0.0635  0.4566
15429SOL    HW157506   3.860   0.656   3.743 -0.4776 -0.9312  0.4742
15429SOL    HW257507   3.996   0.566   3.745 -0.8724 -1.5286  0.4784
15430SOL     OW57508   9.168   2.530   3.138  0.0022  0.7344 -0.0391
15430SOL    HW157509   9.154   2.594   3.062  1.0784  2.3396  1.0870
15430SOL    HW257510   9.263   2.535   3.169 -1.1074  2.2781  3.3171
15431SOL     OW57511   6.208   1.423   1.683 -0.5829  0.4270 -0.1605
15431SOL    HW157512   6.254   1.512   1.692  2.1465 -0.6922 -2.1334
15431SOL    HW257513   6.160   1.419   1.595 -0.0437 -0.2847 -0.4323
15432SOL     OW57514   8.284   7.138   6.119 -0.4401 -0.3005 -0.6507
15432SOL    HW157515   8.238   7.215   6.162  1.5945  2.1581 -2.7510
15432SOL    HW257516   8.259   7.134   6.023 -0.1297 -1.9686 -0.6775
15433SOL     OW57517   0.809   3.666   3.004  0.1876 -0.3596 -0.1036
15433SOL    HW157518   0.838   3.571   3.019 -0.3314 -0.5704 -0.3852
15433SOL    HW257519   0.858   3.727   3.066  0.8283 -0.7667 -0.2060
15434SOL     OW57520   1.105   4.738   3.606 -0.1816  0.0150 -0.3990
15434SOL    HW157521   1.094   4.789   3.691  0.1147  1.1227 -1.0148
15434SOL    HW257522   1.036   4.767   3.540  2.3812  2.4876 -2.1010
15435SOL     OW57523   6.040   2.731   4.256 -0.1023 -0.2742  0.3211
15435SOL    HW157524   6.134   2.765   4.243 -0.2771 -0.0913 -0.4997
15435SOL    HW257525   5.980   2.808   4.279 -0.0973 -0.3614  0.6365
15436SOL     OW57526   0.616   8.552   4.107 -0.1593 -0.4063 -0.2111
15436SOL    HW157527   0.697   8.565   4.163 -0.5781  0.8216  0.1383
15436SOL    HW257528   0.597   8.636   4.056 -0.5925 -1.0417 -1.1150
15437SOL     OW57529   9.394   7.675   4.077 -0.1576 -0.3094 -0.0066
15437SOL    HW157530   9.428   7.718   3.994 -2.7965 -0.3721 -1.1833
15437SOL    HW257531   9.407   7.737   4.154  1.3086  0.2013 -0.6427
15438SOL     OW57532   3.145   4.484   4.004  0.0937  0.0854 -0.2057
15438SOL    HW157533   3.114   4.501   3.911 -1.3886 -3.2102 -0.3961
15438SOL    HW257534   3.066   4.469   4.064  1.0868 -0.7993  0.9353
15439SOL     OW57535   4.532   8.446   4.439 -0.0059  0.4318 -0.4685
15439SOL    HW157536   4.569   8.448   4.531  2.4611  0.1770 -1.4359
15439SOL    HW257537   4.489   8.357   4.422  1.9182 -0.5113 -0.4735
15440SOL     OW57538   2.178   6.426   0.537  0.4412  0.2883 -0.2327
15440SOL    HW157539   2.208   6.442   0.631 -2.6697  1.5079  0.6156
15440SOL    HW257540   2.210   6.499   0.478 -0.6127  1.4524  0.6111
15441SOL     OW57541   1.122   4.022   1.246  0.3924  0.2009 -0.6084
15441SOL    HW157542   1.063   4.102   1.233  3.4311  2.2312 -2.3630
15441SOL    HW257543   1.163   4.025   1.337  0.0079  0.2587 -0.4347
15442SOL     OW57544   5.181   7.272   3.243 -0.0082 -0.1081 -0.0512
15442SOL    HW157545   5.203   7.352   3.188  0.6755  0.5286  1.1247
15442SOL    HW257546   5.243   7.268   3.321  0.2641 -2.0348 -0.3360
15443SOL     OW57547   1.876   5.627   6.701  0.4059  0.2484  0.1878
15443SOL    HW157548   1.809   5.662   6.635  0.4515  2.7574  1.4370
15443SOL    HW257549   1.945   5.574   6.652  0.1585  1.6496 -1.7642
15444SOL     OW57550   8.185   1.907   4.545  0.4132  0.1185 -0.1401
15444SOL    HW157551   8.176   1.947   4.454  0.6689 -0.6726 -0.5128
15444SOL    HW257552   8.147   1.970   4.613 -0.7855  0.2123 -0.8997
15445SOL     OW57553   4.718   9.297   3.533  0.2065 -0.0960  0.9998
15445SOL    HW157554   4.689   9.239   3.457  0.4311 -0.0063  0.8449
15445SOL    HW257555   4.653   9.288   3.608 -1.1118  1.3312  0.0723
15446SOL     OW57556   3.549   1.140   3.947  0.3259 -0.3014 -0.1741
15446SOL    HW157557   3.571   1.088   4.030  0.1632 -0.2346 -0.0879
15446SOL    HW257558   3.502   1.081   3.882 -0.1738 -0.1685  0.0676
15447SOL     OW57559   2.949   0.344   2.327  0.3546  0.6422 -0.0234
15447SOL    HW157560   3.006   0.416   2.287 -0.0344  0.7254 -0.4194
15447SOL    HW257561   2.893   0.302   2.256  1.2612 -0.6830  0.0375
15448SOL     OW57562   5.469   1.785   5.034  0.2166 -0.2151  0.0446
15448SOL    HW157563   5.421   1.758   5.117  0.1797 -0.3484 -0.0209
15448SOL    HW257564   5.536   1.716   5.009 -0.1396 -0.4272 -0.3303
15449SOL     OW57565   3.774   1.002   6.110  0.0234  0.6122 -1.1170
15449SOL    HW157566   3.790   0.912   6.070 -1.7249 -0.5672  0.7484
15449SOL    HW257567   3.808   1.004   6.204 -2.6455  0.8711 -0.1045
15450SOL     OW57568   5.206   1.428   2.582 -0.2570 -0.2596  0.6155
15450SOL    HW157569   5.180   1.350   2.638 -0.4568 -0.3557  0.3885
15450SOL    HW257570   5.132   1.495   2.580 -0.3153 -0.3304  0.3357
15451SOL     OW57571   0.126   1.222   3.775 -0.0998  0.1162 -0.0657
15451SOL    HW157572   0.089   1.189   3.688  0.4126  1.2706 -0.7299
15451SOL    HW257573   0.053   1.227   3.842 -0.5101 -0.7522 -0.4374
15452SOL     OW57574   7.226   0.057   6.110 -0.6177  0.6491  0.4877
15452SOL    HW157575   7.253  -0.029   6.067 -4.0258 -1.5341  2.4513
15452SOL    HW257576   7.185   0.117   6.042 -0.7396 -0.4136 -0.4025
15453SOL     OW57577   8.230   3.719   3.463 -0.1306  0.1088 -0.0827
15453SOL    HW157578   8.234   3.760   3.554  1.8249 -2.1350  0.9049
15453SOL    HW257579   8.323   3.705   3.429 -0.7656 -1.8923 -1.0903
15454SOL     OW57580   9.465   8.348   4.928 -0.3953  0.0222 -0.2172
15454SOL    HW157581   9.437   8.253   4.912 -0.0849 -0.0026 -0.6464
15454SOL    HW257582   9.557   8.362   4.892  0.9095 -0.3864  2.8198
15455SOL     OW57583   2.208   3.655   4.913 -0.2684 -0.0566 -0.3042
15455SOL    HW157584   2.253   3.620   4.995 -0.5885  1.6179  0.6148
15455SOL    HW257585   2.120   3.696   4.938 -1.3195 -1.3411 -1.7787
15456SOL     OW57586   8.800   1.853   4.112 -0.4113 -0.4958 -0.5470
15456SOL    HW157587   8.812   1.803   4.198  0.3599 -0.6504 -0.7403
15456SOL    HW257588   8.795   1.951   4.131  1.3271 -0.4180 -0.4712
15457SOL     OW57589   7.851   7.461   3.399 -0.5913 -0.2178  0.1400
15457SOL    HW157590   7.946   7.474   3.374 -1.0220  0.2380 -1.2842
15457SOL    HW257591   7.843   7.387   3.466  0.6041 -1.0827 -0.6826
15458SOL     OW57592   1.629   3.457   0.326 -0.3300 -0.5232 -0.1680
15458SOL    HW157593   1.577   3.371   0.324  0.5218 -1.0295 -1.0114
15458SOL    HW257594   1.712   3.444   0.379 -0.3980 -0.1096  0.0348
15459SOL     OW57595   0.208   2.136   2.067  0.1274 -0.1460 -0.0458
15459SOL    HW157596   0.147   2.068   2.026  1.5989 -1.9228  0.6637
15459SOL    HW257597   0.200   2.131   2.166  0.1405  0.8349  0.0052
15460SOL     OW57598   7.033   1.385   6.682 -0.8554  0.2863  0.5072
15460SOL    HW157599   7.076   1.466   6.721  1.6085  0.0559 -1.5339
15460SOL    HW257600   6.942   1.408   6.647 -0.6808  1.8632  1.0686
15461SOL     OW57601   8.399   0.371   4.254  0.0547 -0.6469 -0.1586
15461SOL    HW157602   8.463   0.336   4.186  1.6301 -0.0603  0.9892
15461SOL    HW257603   8.429   0.462   4.285 -0.0026 -1.3546  2.1129
15462SOL     OW57604   3.438   9.782   3.372  0.5337 -0.1083 -0.1654
15462SOL    HW157605   3.502   9.841   3.421 -0.1549  0.0738  0.5398
15462SOL    HW257606   3.365   9.838   3.333 -0.7447 -0.5927  1.4760
15463SOL     OW57607   8.330   9.377   0.316 -0.1222 -0.2775  0.3531
15463SOL    HW157608   8.245   9.353   0.361  0.1370  1.1831  1.6457
15463SOL    HW257609   8.378   9.447   0.369  0.9858  0.2754 -1.3198
15464SOL     OW57610   7.477   4.830   6.005 -0.5123  0.5267  0.7739
15464SOL    HW157611   7.407   4.762   6.029 -1.4916  1.3100  0.1556
15464SOL    HW257612   7.483   4.899   6.076  0.3233 -0.0579  1.2898
15465SOL     OW57613   9.386   7.808   5.950  0.5205  0.3371 -0.4074
15465SOL    HW157614   9.432   7.722   5.927 -1.0502  0.1999 -3.3468
15465SOL    HW257615   9.304   7.789   6.003  0.2672  0.0038 -0.9102
15466SOL     OW57616   0.649   7.884   4.678  0.9112 -0.1778  1.0285
15466SOL    HW157617   0.683   7.825   4.605  0.4239  0.8345 -0.0260
15466SOL    HW257618   0.720   7.950   4.703  0.7206  0.1054  0.8079
15467SOL     OW57619   0.648   9.667   5.727 -0.0436  0.0248 -0.2435
15467SOL    HW157620   0.608   9.719   5.651  2.6426  0.4898 -1.3909
15467SOL    HW257621   0.636   9.719   5.812  3.1203  2.9540 -1.4637
15468SOL     OW57622   7.201   7.193   3.549  0.0839 -0.4250  0.0358
15468SOL    HW157623   7.250   7.280   3.541  0.1659 -0.4242  0.5481
15468SOL    HW257624   7.201   7.147   3.460 -0.5506  0.4069 -0.3981
15469SOL     OW57625   4.767   6.564   3.000 -0.1809  0.0346 -0.0546
15469SOL    HW157626   4.850   6.615   3.023  0.3554 -0.2810 -1.2882
15469SOL    HW257627   4.689   6.627   3.000  0.0627  0.3508  0.9932
15470SOL     OW57628   1.191   3.449   3.525  0.6335 -0.2151  0.0344
15470SOL    HW157629   1.121   3.512   3.561  1.4014 -0.1608  1.4891
15470SOL    HW257630   1.259   3.433   3.596  1.2658 -1.4923 -0.8632
15471SOL     OW57631   1.304   8.004   5.613  0.0714  0.1593 -0.3480
15471SOL    HW157632   1.375   8.004   5.683  0.2961 -2.5150 -0.5204
15471SOL    HW257633   1.214   8.000   5.656  0.1453  0.2422 -0.1877
15472SOL     OW57634   1.337   8.404   1.577 -0.4750 -0.4661 -0.1836
15472SOL    HW157635   1.302   8.392   1.670  1.6527  0.8746  0.8014
15472SOL    HW257636   1.398   8.482   1.574  1.0465 -1.6981 -2.2916
15473SOL     OW57637   6.361   1.267   5.091 -0.5086 -0.3403  0.3842
15473SOL    HW157638   6.341   1.170   5.102 -3.1371  0.1093 -0.1381
15473SOL    HW257639   6.351   1.314   5.179  1.6333 -0.6608  0.8250
15474SOL     OW57640   5.928   9.146   2.622  0.4751  0.5035  0.0974
15474SOL    HW157641   6.016   9.135   2.667  0.5408 -0.2727 -0.2043
15474SOL    HW257642   5.941   9.148   2.523  0.0673 -0.5986  0.0116
15475SOL     OW57643   4.232   9.506   1.652 -0.4930  0.3975  0.1005
15475SOL    HW157644   4.150   9.454   1.629 -0.8029  0.0151  1.9895
15475SOL    HW257645   4.270   9.473   1.738  2.4586 -0.3457 -1.4243
15476SOL     OW57646   2.102   2.457   6.502 -0.2845  0.3653 -0.1736
15476SOL    HW157647   2.084   2.554   6.483 -1.1772  0.5246  1.3508
15476SOL    HW257648   2.040   2.401   6.447 -0.2988  0.6917 -0.4947
15477SOL     OW57649   1.445   3.668   3.936 -0.2305  0.7201  0.0141
15477SOL    HW157650   1.432   3.718   3.851  0.1035  1.2197  0.2535
15477SOL    HW257651   1.476   3.731   4.007 -3.7014  1.0098  1.4067
15478SOL     OW57652   0.518   4.104   6.439 -0.4092 -0.1592  0.5106
15478SOL    HW157653   0.441   4.154   6.479 -0.3344 -0.2700  0.7901
15478SOL    HW257654   0.561   4.047   6.508  0.6377  0.7632  0.6321
15479SOL     OW57655   7.383   8.161   5.495  0.0098 -0.7051 -0.2967
15479SOL    HW157656   7.468   8.126   5.534 -0.2340 -0.4028  0.5216
15479SOL    HW257657   7.366   8.117   5.407  0.6456 -1.2860 -0.1354
15480SOL     OW57658   2.640   5.625   0.236 -0.2935 -0.0503  0.4819
15480SOL    HW157659   2.672   5.589   0.323  3.7654 -2.0202 -1.6673
15480SOL    HW257660   2.545   5.596   0.220  0.1295 -2.7612  2.6001
15481SOL     OW57661   4.612   9.338   4.892  0.0267 -0.0916 -0.1689
15481SOL    HW157662   4.615   9.435   4.867 -0.1504  0.3906  1.6441
15481SOL    HW257663   4.662   9.285   4.823  1.5234  1.4625 -0.3322
15482SOL     OW57664   3.473   8.813   0.159 -0.1749  0.0264  0.0794
15482SOL    HW157665   3.453   8.777   0.068 -3.0717 -0.5504  0.8903
15482SOL    HW257666   3.394   8.864   0.193  0.7398 -0.0290  2.3987
15483SOL     OW57667   9.213   3.809   5.589 -0.3307 -0.1380 -0.0531
15483SOL    HW157668   9.221   3.717   5.552 -0.8926 -0.3208  0.2683
15483SOL    HW257669   9.239   3.876   5.519  1.8071 -0.5931  0.2788
15484SOL     OW57670   2.400   4.227   0.062 -0.1568  0.1778  0.6247
15484SOL    HW157671   2.333   4.165   0.102 -0.1717  2.8500  5.1194
15484SOL    HW257672   2.367   4.321   0.070  1.5740  1.1316 -2.4963
15485SOL     OW57673   3.287   9.108   5.591  0.7187 -0.2477 -0.6196
15485SOL    HW157674   3.352   9.178   5.621  0.3447  0.3203 -1.1248
15485SOL    HW257675   3.282   9.036   5.659  1.8265 -0.2575 -0.5391
15486SOL     OW57676   0.310   8.735   6.270  0.0640 -0.3942  0.0471
15486SOL    HW157677   0.349   8.769   6.185 -0.0096  0.0254  0.1785
15486SOL    HW257678   0.381   8.731   6.340 -0.2357  0.8900  0.4364
15487SOL     OW57679   4.747   3.461   4.218 -0.1690  0.1654 -0.2117
15487SOL    HW157680   4.738   3.525   4.295  0.6866  0.0683 -0.0318
15487SOL    HW257681   4.730   3.510   4.132  2.3085  1.0874 -0.2165
15488SOL     OW57682   0.905   7.386   4.804  0.4359 -0.0456  0.2508
15488SOL    HW157683   0.926   7.328   4.726  1.3782  1.2980 -0.5266
15488SOL    HW257684   0.990   7.405   4.855 -0.0081 -0.0862  1.0130
15489SOL     OW57685   0.203   9.699   3.484  0.1645 -0.1082  0.5361
15489SOL    HW157686   0.237   9.679   3.575  0.8316  0.2013  0.3602
15489SOL    HW257687   0.277   9.687   3.417 -0.5750 -1.3500 -0.0928
15490SOL     OW57688   1.818   5.302   3.838  0.1228  0.4958 -0.7238
15490SOL    HW157689   1.776   5.327   3.751 -1.3140 -0.5740 -0.3655
15490SOL    HW257690   1.916   5.320   3.835  0.1515  0.0818 -2.7154
15491SOL     OW57691   4.061   1.686   2.424  0.0619  0.4215  0.1172
15491SOL    HW157692   4.114   1.680   2.340  0.7288 -0.6925  0.6202
15491SOL    HW257693   4.043   1.595   2.460 -1.4004  0.8219  0.4565
15492SOL     OW57694   9.041   0.079   5.236  0.3659 -0.7457 -0.4730
15492SOL    HW157695   8.977   0.127   5.176  0.1539 -2.1334 -1.3927
15492SOL    HW257696   9.132   0.078   5.195  0.5821 -0.3380 -0.0157
15493SOL     OW57697   5.362   7.023   2.205  0.6821 -0.3818 -0.2597
15493SOL    HW157698   5.412   6.995   2.287  1.8147 -0.7987 -1.0752
15493SOL    HW257699   5.359   7.123   2.201 -3.6412 -0.2304  2.8221
15494SOL     OW57700   7.764   3.825   1.247  0.0433  0.2845 -0.1460
15494SOL    HW157701   7.711   3.883   1.310 -0.3187  1.3796 -1.4284
15494SOL    HW257702   7.843   3.877   1.214  0.5675 -0.5000 -0.1269
15495SOL     OW57703   1.451   4.060   4.044  0.0058  0.0220  0.3022
15495SOL    HW157704   1.497   3.975   4.068 -1.3754 -1.2185 -1.3052
15495SOL    HW257705   1.406   4.098   4.125  1.4939 -0.2213  1.2496
15496SOL     OW57706   0.320   6.847   5.338  0.0571  0.7787  0.4546
15496SOL    HW157707   0.288   6.786   5.410 -1.0790  0.5002 -0.2752
15496SOL    HW257708   0.247   6.910   5.312  0.3034  0.5741 -0.7580
15497SOL     OW57709   2.404   7.336   2.754  0.1173 -0.1927  0.6164
15497SOL    HW157710   2.384   7.431   2.729  1.4792  0.3780  1.6256
15497SOL    HW257711   2.337   7.304   2.820 -0.6380 -0.0989 -0.1010
15498SOL     OW57712   3.658   4.379   6.677  0.2652  0.6447 -0.1147
15498SOL    HW157713   3.717   4.299   6.683  0.4929  0.9858  3.0519
15498SOL    HW257714   3.593   4.367   6.603  1.2852 -1.8007 -0.6473
15499SOL     OW57715   1.928   5.947   5.464 -0.0527  0.4162  0.0764
15499SOL    HW157716   1.977   5.935   5.378  1.7231  2.3567  0.7679
15499SOL    HW257717   1.847   6.004   5.448 -0.6128 -0.5438 -0.5723
15500SOL     OW57718   0.191   8.584   4.560  0.1382  0.0983 -0.0786
15500SOL    HW157719   0.197   8.522   4.637  0.5179  0.6573  0.3486
15500SOL    HW257720   0.136   8.664   4.586 -1.6152 -0.7519 -1.0916
15501SOL     OW57721   2.900   4.686   3.784 -0.3596  0.3673 -0.1735
15501SOL    HW157722   2.806   4.660   3.804 -0.0463  0.2479  1.1563
15501SOL    HW257723   2.901   4.755   3.712 -1.5621  1.7428  1.1117
15502SOL     OW57724   4.187   1.954   2.860 -0.3919 -0.2015  1.1438
15502SOL    HW157725   4.100   1.920   2.895  0.8600 -1.3000  3.3050
15502SOL    HW257726   4.208   1.907   2.774 -1.7164 -0.2414  0.8226
15503SOL     OW57727   8.881   8.819   0.965  0.1629  0.2797 -0.9071
15503SOL    HW157728   8.801   8.871   0.935  1.5582  1.9686 -1.8036
15503SOL    HW257729   8.953   8.883   0.995  0.8862 -1.2207  0.6709
15504SOL     OW57730   2.931   2.058   3.432  0.2257  0.0053 -0.8176
15504SOL    HW157731   2.947   2.027   3.526 -0.5264 -2.7263 -1.5281
15504SOL    HW257732   3.016   2.091   3.393  0.5077  1.3439  0.8742
15505SOL     OW57733   2.782   0.919   1.031  0.3894 -0.2314 -0.4691
15505SOL    HW157734   2.807   0.889   0.939  1.2987 -2.2395  0.3989
15505SOL    HW257735   2.692   0.882   1.055  1.3258 -1.9735  0.4424
15506SOL     OW57736   2.456   8.932   0.051  0.5795 -0.1130 -0.3757
15506SOL    HW157737   2.536   8.993   0.055  1.1152 -0.8035 -0.4748
15506SOL    HW257738   2.382   8.971   0.106  0.8215  0.7693 -0.6627
15507SOL     OW57739   7.316   4.973   6.468 -0.1056  0.6616 -0.1959
15507SOL    HW157740   7.263   4.945   6.548  0.2781 -0.2275 -0.2399
15507SOL    HW257741   7.257   4.977   6.388 -0.2096  0.1392 -0.1491
15508SOL     OW57742   2.377   0.287   2.137  0.3114  0.5717  0.0279
15508SOL    HW157743   2.367   0.187   2.145 -0.4765  0.6452  0.0068
15508SOL    HW257744   2.355   0.329   2.225  0.5044  0.7337 -0.0032
15509SOL     OW57745   7.694   7.934   3.533 -0.2573  0.0529  0.6601
15509SOL    HW157746   7.721   7.986   3.614 -1.8834 -0.2059  1.4026
15509SOL    HW257747   7.599   7.958   3.509 -0.5287 -1.4958  0.1599
15510SOL     OW57748   4.489   0.259   6.589 -0.1656  0.3499 -0.4737
15510SOL    HW157749   4.582   0.224   6.573 -0.2641 -0.8873  1.3964
15510SOL    HW257750   4.423   0.186   6.573 -0.4981  0.0735  1.9725
15511SOL     OW57751   4.913   4.550   0.322  0.8088  0.5452 -0.1783
15511SOL    HW157752   4.843   4.479   0.319  1.2225  0.0952  0.6525
15511SOL    HW257753   4.870   4.640   0.312  0.1319  0.2572  0.1084
15512SOL     OW57754   3.846   0.371   4.642 -0.6258  0.1567 -0.4804
15512SOL    HW157755   3.845   0.271   4.633 -0.5209  0.1080  0.0351
15512SOL    HW257756   3.897   0.410   4.566  2.4731 -0.4190  1.1987
15513SOL     OW57757   4.141   8.789   4.577 -0.1492  0.4797  0.5420
15513SOL    HW157758   4.063   8.769   4.637 -0.5923 -0.5007 -0.3525
15513SOL    HW257759   4.188   8.870   4.611 -1.5812  1.1101  1.0720
15514SOL     OW57760   0.013   5.455   4.369  0.1218 -0.0754 -0.4599
15514SOL    HW157761   0.091   5.496   4.417  0.7627 -2.7170  0.8328
15514SOL    HW257762  -0.004   5.506   4.285  1.1824  2.5221  0.8512
15515SOL     OW57763   2.014   1.049   4.997  0.6330 -0.0644  0.2198
15515SOL    HW157764   2.081   1.117   5.027  1.8442 -0.8602 -0.6796
15515SOL    HW257765   2.032   0.962   5.042  0.0899 -0.2363  0.1055
15516SOL     OW57766   9.899   0.454   1.853 -0.0665  0.1870 -0.0260
15516SOL    HW157767   9.821   0.448   1.915 -1.2276 -2.0617 -1.6202
15516SOL    HW257768   9.867   0.448   1.758  1.5628  4.5325 -0.9745
15517SOL     OW57769   1.910   8.105   2.248 -0.6590  0.0742  0.1774
15517SOL    HW157770   1.899   8.028   2.310  0.2941 -0.2345 -0.0305
15517SOL    HW257771   1.951   8.182   2.297 -1.2122  0.3074  0.2774
15518SOL     OW57772   3.719   9.495   0.878  0.1434 -0.2109 -0.6092
15518SOL    HW157773   3.802   9.444   0.899 -0.1009 -0.2437  0.3082
15518SOL    HW257774   3.649   9.431   0.845 -0.0063 -0.4094  0.0793
15519SOL     OW57775   1.762   4.629   2.510  0.0550 -0.1779  0.6056
15519SOL    HW157776   1.717   4.666   2.428 -0.0085  1.1565  1.2304
15519SOL    HW257777   1.807   4.703   2.560  1.9465 -1.3001  0.6428
15520SOL     OW57778   1.901   2.181   4.973 -0.5372 -0.2457  0.1923
15520SOL    HW157779   1.848   2.265   4.980  1.1177  0.8517 -0.1632
15520SOL    HW257780   1.998   2.203   4.966 -0.1148 -2.1727 -0.4284
15521SOL     OW57781   0.685   8.209   5.445 -0.6381  0.1718 -0.0059
15521SOL    HW157782   0.617   8.150   5.401 -0.9246 -0.8820  1.8345
15521SOL    HW257783   0.771   8.203   5.394 -0.3780 -2.5753  0.6814
15522SOL     OW57784   7.180   1.729   6.328 -0.7611  0.2451  0.0271
15522SOL    HW157785   7.247   1.772   6.389 -1.0437  1.2403 -0.3414
15522SOL    HW257786   7.169   1.786   6.246  0.8707 -1.9091 -1.7587
15523SOL     OW57787   1.016   0.087   2.279  0.4349  0.0673  0.3646
15523SOL    HW157788   0.989  -0.006   2.258 -0.5533  0.2271  0.8911
15523SOL    HW257789   1.106   0.086   2.324  0.5123 -0.6092  0.1971
15524SOL     OW57790   9.520   9.914   4.660  0.1921  0.5079 -0.0217
15524SOL    HW157791   9.605   9.860   4.658  1.2430  2.1486 -1.0535
15524SOL    HW257792   9.460   9.879   4.732  2.6898  0.7325  2.2246
15525SOL     OW57793   8.160   3.937   4.805 -0.7819 -0.3211 -0.2521
15525SOL    HW157794   8.204   3.871   4.744 -1.0899 -1.8196  1.0962
15525SOL    HW257795   8.076   3.971   4.763 -1.2661 -1.7305 -0.4491
15526SOL     OW57796   9.562   0.482   2.939  0.0620  0.8558 -0.0972
15526SOL    HW157797   9.467   0.498   2.911 -0.4964 -0.3983  1.0297
15526SOL    HW257798   9.565   0.408   3.007  2.1058 -0.9225 -2.0448
15527SOL     OW57799   5.397   4.318   1.039 -0.4888  0.3713  0.5418
15527SOL    HW157800   5.308   4.319   0.993  0.0012 -0.9173 -0.4501
15527SOL    HW257801   5.461   4.376   0.989 -0.4954  0.4960  0.6788
15528SOL     OW57802   9.733   6.669   3.264  0.3604 -0.1131 -1.1508
15528SOL    HW157803   9.707   6.650   3.169  2.6276 -1.4239 -1.5488
15528SOL    HW257804   9.664   6.631   3.325 -0.0227 -1.1706 -2.2192
15529SOL     OW57805   2.997   8.132   3.917  0.3973  0.2689 -0.6893
15529SOL    HW157806   2.907   8.100   3.946  1.8060 -0.1557  3.4582
15529SOL    HW257807   3.041   8.061   3.862 -0.9386 -0.3394 -1.0063
15530SOL     OW57808   0.290   9.037   5.104 -0.1301 -0.2364  0.2828
15530SOL    HW157809   0.293   9.050   5.203 -0.5740  0.1056  0.2553
15530SOL    HW257810   0.365   8.977   5.075  0.2704  0.0289  0.7701
15531SOL     OW57811   9.641   3.630   3.377  0.1576 -0.6155 -0.1955
15531SOL    HW157812   9.625   3.634   3.476 -2.2452  0.2359 -0.5985
15531SOL    HW257813   9.667   3.537   3.352 -0.4735 -1.1519  1.0726
15532SOL     OW57814   0.697   4.832   2.075 -0.4560 -0.1533 -0.1347
15532SOL    HW157815   0.695   4.813   2.174 -1.6186  0.3492 -0.0591
15532SOL    HW257816   0.787   4.806   2.039 -0.7723 -2.4964  0.6295
15533SOL     OW57817   6.899   2.418   3.590  0.2855 -0.2200  0.2695
15533SOL    HW157818   6.983   2.416   3.535  0.7829  0.2592  0.9924
15533SOL    HW257819   6.915   2.372   3.677 -0.1633  0.0006  0.4710
15534SOL     OW57820   9.074   7.419   2.897 -1.2591 -0.5110  0.1869
15534SOL    HW157821   9.021   7.335   2.910 -1.7896 -0.0618  0.9321
15534SOL    HW257822   9.082   7.467   2.984 -0.6596  0.0369 -0.1709
15535SOL     OW57823   2.216   2.226   4.871  0.5318  0.1835 -0.4655
15535SOL    HW157824   2.283   2.247   4.943 -1.6373  0.2913  1.5721
15535SOL    HW257825   2.248   2.147   4.818  1.9392 -0.1937  0.9105
15536SOL     OW57826   5.821   4.427   6.593  0.3815  0.1346 -0.0611
15536SOL    HW157827   5.832   4.446   6.690 -3.5193 -2.5183  1.0080
15536SOL    HW257828   5.784   4.508   6.548 -1.2760  0.2189  1.4061
15537SOL     OW57829   2.693   2.438   5.450 -0.1983  0.7623 -0.1385
15537SOL    HW157830   2.640   2.389   5.519 -0.1359  1.3659  0.3417
15537SOL    HW257831   2.643   2.518   5.418  0.0161  0.8053 -0.3766
15538SOL     OW57832   3.294   1.023   5.922 -0.8859 -0.0621  0.7302
15538SOL    HW157833   3.388   0.990   5.927 -0.7719  0.1742  0.2081
15538SOL    HW257834   3.285   1.106   5.977 -0.7169  0.0719  0.5581
15539SOL     OW57835   9.137   0.490   5.511 -0.1362 -0.2154 -0.6262
15539SOL    HW157836   9.056   0.435   5.491  0.8836 -2.5584  1.4956
15539SOL    HW257837   9.193   0.499   5.429 -0.7121 -1.7058 -1.1877
15540SOL     OW57838   2.296   7.352   1.513 -0.5074  0.3579  0.1175
15540SOL    HW157839   2.211   7.298   1.512 -0.1496 -0.2123 -0.1873
15540SOL    HW257840   2.374   7.290   1.501 -0.0368  0.8594  0.5874
15541SOL     OW57841   8.548   9.938   4.901 -0.5243 -0.2171  0.1755
15541SOL    HW157842   8.485   9.947   4.823  1.1952 -3.1663 -1.6599
15541SOL    HW257843   8.638   9.971   4.874 -0.1152 -0.4633  1.2259
15542SOL     OW57844   5.756   0.760   4.123  0.0319  0.1306 -0.3731
15542SOL    HW157845   5.852   0.765   4.150 -0.7218 -0.4139  2.6447
15542SOL    HW257846   5.749   0.724   4.030  2.7624  0.8082 -0.8703
15543SOL     OW57847   9.511   8.100   1.479 -0.2208 -0.7292  0.0099
15543SOL    HW157848   9.579   8.041   1.436  0.6444 -0.2842  0.7395
15543SOL    HW257849   9.434   8.044   1.512  1.0077 -1.5834  1.5085
15544SOL     OW57850   1.666   1.509   5.997 -0.2403 -0.0343 -0.0377
15544SOL    HW157851   1.567   1.518   6.002 -0.0408  2.6212 -0.1608
15544SOL    HW257852   1.700   1.556   5.916  1.1063 -1.1211 -0.1279
15545SOL     OW57853   2.930   5.896   1.280 -0.9686 -0.3911 -0.4289
15545SOL    HW157854   2.999   5.859   1.217 -1.1990 -0.8808 -0.3953
15545SOL    HW257855   2.955   5.873   1.374  1.1785  3.2141 -0.0248
15546SOL     OW57856   6.189   2.468   3.856 -1.2343 -0.1251  0.3698
15546SOL    HW157857   6.227   2.478   3.765  0.0607 -1.7271  0.7063
15546SOL    HW257858   6.209   2.376   3.891 -0.9071  0.7514  2.6081
15547SOL     OW57859   4.968   9.055   1.063  0.3025  0.1893 -0.3719
15547SOL    HW157860   4.890   9.000   1.096  0.1304  0.2356 -0.6917
15547SOL    HW257861   4.976   9.137   1.118  1.7898 -1.1009  1.4001
15548SOL     OW57862   2.484   6.157   4.724  0.3631 -0.1770 -0.3337
15548SOL    HW157863   2.471   6.256   4.723  0.3339 -0.1852 -1.0782
15548SOL    HW257864   2.539   6.131   4.804 -1.2112  0.2353  0.9119
15549SOL     OW57865   1.802   2.796   5.516  0.1148  0.1657  0.8015
15549SOL    HW157866   1.811   2.707   5.560 -1.3159 -0.9119 -0.9984
15549SOL    HW257867   1.865   2.801   5.439 -0.8555  0.1123 -0.0075
15550SOL     OW57868   3.503   0.463   3.080 -0.0549  0.0109  0.5279
15550SOL    HW157869   3.488   0.417   2.993  1.0182  0.8316 -0.0994
15550SOL    HW257870   3.496   0.562   3.066  0.0961  0.1441  1.3811
15551SOL     OW57871   3.674   3.042   2.835  0.1521  0.3818 -0.3232
15551SOL    HW157872   3.649   3.117   2.896 -2.2223  0.8902 -1.8420
15551SOL    HW257873   3.597   2.979   2.827  2.1206 -2.2989  0.9553
15552SOL     OW57874   2.172   2.969   3.453 -0.4510  0.5168  0.3023
15552SOL    HW157875   2.144   2.900   3.387 -0.6585  2.2971 -1.5256
15552SOL    HW257876   2.104   2.975   3.526  0.1733 -2.0150  1.1567
15553SOL     OW57877   8.288   4.850   4.722 -0.7964 -0.1432 -0.1479
15553SOL    HW157878   8.371   4.886   4.679 -0.7528 -1.6905 -1.4038
15553SOL    HW257879   8.276   4.891   4.812  0.8867  0.7116 -0.3051
15554SOL     OW57880   2.273   1.957   2.580 -0.4910  0.4774  0.3347
15554SOL    HW157881   2.358   1.908   2.559  0.0815  1.0298  1.3453
15554SOL    HW257882   2.283   2.006   2.667 -1.2838  1.8842 -0.3603
15555SOL     OW57883   8.743   9.290   6.520 -0.0888 -0.1246 -0.1668
15555SOL    HW157884   8.772   9.324   6.431  1.0400  0.4625  0.4265
15555SOL    HW257885   8.719   9.193   6.512 -0.4722  0.0546 -1.2111
15556SOL     OW57886   4.488   4.176   5.221  0.2753  0.4272 -0.0212
15556SOL    HW157887   4.493   4.181   5.121 -0.3032 -1.3121 -0.1441
15556SOL    HW257888   4.537   4.254   5.260  1.6039  0.4404 -1.6432
15557SOL     OW57889   4.976   9.177   6.535 -0.3862 -0.0128 -0.8975
15557SOL    HW157890   4.891   9.128   6.516  0.8601 -1.5786 -2.6066
15557SOL    HW257891   5.038   9.168   6.456 -0.0113  4.1111 -1.1648
15558SOL     OW57892   9.659   7.538   3.515 -0.7469 -0.9461  0.4615
15558SOL    HW157893   9.602   7.469   3.559 -1.4514  0.9109  2.5637
15558SOL    HW257894   9.727   7.572   3.580  1.0323 -1.2303 -1.2139
15559SOL     OW57895   0.257   1.636   4.497  0.1047  0.0525  0.2209
15559SOL    HW157896   0.167   1.604   4.469  0.8639 -2.2769  0.3296
15559SOL    HW257897   0.311   1.559   4.530  2.2064  1.3831 -0.0081
15560SOL     OW57898   0.513   7.301   1.992  0.3793  0.1010  0.4641
15560SOL    HW157899   0.559   7.215   1.971 -1.3455 -0.7707  0.1239
15560SOL    HW257900   0.482   7.343   1.906 -0.9114 -0.1766  0.7767
15561SOL     OW57901   1.298   7.317   1.047  0.4175  0.6779 -0.7032
15561SOL    HW157902   1.370   7.297   1.113  1.4955  1.5633 -1.5914
15561SOL    HW257903   1.212   7.336   1.096  0.3376 -2.0707  0.2878
15562SOL     OW57904   8.716   5.306   2.537 -0.6062  0.0625  0.2213
15562SOL    HW157905   8.688   5.319   2.442 -0.6612 -0.7704  0.1210
15562SOL    HW257906   8.700   5.211   2.564  0.9232 -0.1219  0.5572
15563SOL     OW57907   7.729   1.856   4.406 -0.4120  0.6563 -0.1225
15563SOL    HW157908   7.674   1.827   4.485 -0.3408 -0.8449 -0.6137
15563SOL    HW257909   7.826   1.841   4.425 -0.3391  1.0643 -0.1763
15564SOL     OW57910   2.816   3.000   4.754 -0.6588 -0.0851  0.1792
15564SOL    HW157911   2.869   2.931   4.804  0.3299 -0.6104 -1.5479
15564SOL    HW257912   2.821   3.087   4.802 -0.2489 -0.7175  1.3112
15565SOL     OW57913   3.645   9.656   3.939 -0.6136  0.1266 -0.2595
15565SOL    HW157914   3.736   9.614   3.941  0.4113  2.2254 -0.5167
15565SOL    HW257915   3.595   9.631   4.022  0.1106 -1.2202 -0.2163
15566SOL     OW57916   7.100   9.939   2.998  0.4331  0.0649  0.1077
15566SOL    HW157917   7.121  10.037   2.996  0.4202  0.0464 -1.6538
15566SOL    HW257918   7.012   9.924   2.953  1.1164 -0.9285 -0.8848
15567SOL     OW57919   3.820   9.876   3.873  0.1354 -0.0936 -0.0845
15567SOL    HW157920   3.814   9.878   3.773  0.4000 -1.5329 -0.1402
15567SOL    HW257921   3.768   9.797   3.907  0.5443  0.0517  0.8748
15568SOL     OW57922   2.475   0.829   3.025  0.6036 -0.0717 -0.2355
15568SOL    HW157923   2.503   0.925   3.016  2.1918 -0.4306  0.7912
15568SOL    HW257924   2.520   0.775   2.954  1.8605 -0.5111  0.8934
15569SOL     OW57925   3.423   3.949   3.917  0.1506  0.1966  0.3420
15569SOL    HW157926   3.383   3.920   3.830 -0.6230  0.2763  0.6675
15569SOL    HW257927   3.458   4.042   3.909 -0.3636  0.3835  0.2564
15570SOL     OW57928   7.978   1.327   5.081 -0.2670  0.2704 -0.2998
15570SOL    HW157929   7.939   1.408   5.038 -0.7344  0.0279 -0.3380
15570SOL    HW257930   8.016   1.267   5.011 -1.9543 -0.6129 -0.4696
15571SOL     OW57931   4.871   9.555   5.038 -0.1942  0.1629  0.1183
15571SOL    HW157932   4.784   9.548   4.990  0.0413  1.1887 -0.4561
15571SOL    HW257933   4.875   9.641   5.089 -0.3410 -0.7968  1.7993
15572SOL     OW57934   7.893   3.939   3.895  0.1346  0.2412 -0.3643
15572SOL    HW157935   7.896   3.923   3.796  2.6743  1.9214 -0.6103
15572SOL    HW257936   7.848   3.862   3.940 -1.9707 -0.1052 -2.8980
15573SOL     OW57937   8.369   4.805   0.620 -0.0727 -0.4766 -0.2433
15573SOL    HW157938   8.403   4.840   0.707  0.5697 -0.8496 -0.3460
15573SOL    HW257939   8.307   4.729   0.637  0.5401 -0.9523 -0.1396
15574SOL     OW57940   4.031   5.071   2.643 -0.1379  0.5709  0.2221
15574SOL    HW157941   3.955   5.007   2.638  0.2559  0.1911 -0.9592
15574SOL    HW257942   4.040   5.105   2.737 -0.9682 -0.3417  0.6338
15575SOL     OW57943   8.403   6.484   1.226  0.2014 -0.4985  0.1990
15575SOL    HW157944   8.383   6.387   1.244  1.8460 -0.4842  2.2576
15575SOL    HW257945   8.451   6.491   1.138 -1.8265 -1.3041 -1.0122
15576SOL     OW57946   1.465   8.811   6.576 -0.1767  0.2788  0.2270
15576SOL    HW157947   1.539   8.847   6.518  0.2110  0.9139  1.0934
15576SOL    HW257948   1.387   8.874   6.573 -0.5929 -0.2685 -0.4979
15577SOL     OW57949   9.217   3.608   1.429 -0.5104 -0.2231  0.8349
15577SOL    HW157950   9.219   3.510   1.443  0.9676 -0.1467  1.2366
15577SOL    HW257951   9.138   3.647   1.476 -1.1801 -1.2321  0.5509
15578SOL     OW57952   8.920   9.960   0.936 -0.1396  0.0027  0.3732
15578SOL    HW157953   8.837   9.952   0.881 -0.7254  0.6815  1.1425
15578SOL    HW257954   8.899  10.006   1.023  1.4123  2.1466 -0.3153
15579SOL     OW57955   8.640   8.967   0.895 -0.0624  0.1680 -0.0938
15579SOL    HW157956   8.631   8.987   0.798  0.1741  1.0393  0.0552
15579SOL    HW257957   8.649   9.053   0.946  0.2162 -0.2957  0.6512
15580SOL     OW57958   1.946   9.811   4.750  0.7245 -0.2933 -0.3822
15580SOL    HW157959   1.991   9.748   4.814 -0.0779 -0.4179  0.0570
15580SOL    HW257960   2.001   9.894   4.742  1.4540 -0.7715 -0.4676
15581SOL     OW57961   8.231   6.794   3.429 -0.4034  0.4527 -0.2742
15581SOL    HW157962   8.321   6.753   3.438 -1.8668 -2.9016 -0.0149
15581SOL    HW257963   8.233   6.888   3.463  2.6798  0.0055  0.9004
15582SOL     OW57964   2.694   4.991   6.519  0.1401  0.4266  0.2351
15582SOL    HW157965   2.693   5.014   6.421  0.7512  0.1211  0.1485
15582SOL    HW257966   2.666   4.896   6.531  2.4002 -0.2886  0.1183
15583SOL     OW57967   4.671   2.534   5.223 -0.0601 -0.5092 -0.2478
15583SOL    HW157968   4.713   2.464   5.282  0.3077  0.2771  0.4329
15583SOL    HW257969   4.742   2.593   5.185 -0.5194  0.8545  0.9487
15584SOL     OW57970   5.593   8.468   2.500 -0.1107  0.1560 -0.0325
15584SOL    HW157971   5.629   8.429   2.415  0.7277  0.3839  0.2191
15584SOL    HW257972   5.618   8.564   2.506 -0.1842  0.1447  0.4688
15585SOL     OW57973   7.567   2.034   5.097  0.4836 -0.1013  0.2288
15585SOL    HW157974   7.516   2.094   5.159  1.7909  0.7867  0.4686
15585SOL    HW257975   7.658   2.017   5.134  0.7490 -0.8005 -0.7166
15586SOL     OW57976   4.117   1.536   5.008  0.3481  0.2209  0.8851
15586SOL    HW157977   4.059   1.474   5.062  0.1538  0.2079  0.6593
15586SOL    HW257978   4.205   1.545   5.053 -0.3614  1.4530  2.0500
15587SOL     OW57979   8.451   3.259   6.305  0.0116  0.1808 -0.1411
15587SOL    HW157980   8.411   3.171   6.332 -2.1054  0.9833 -0.5631
15587SOL    HW257981   8.457   3.318   6.385 -1.0994  0.5931 -0.3488
15588SOL     OW57982   3.310   9.871   0.075  0.1361  0.1467  0.7411
15588SOL    HW157983   3.211   9.862   0.068  0.2576 -0.6865 -0.0876
15588SOL    HW257984   3.352   9.851  -0.014  1.2220 -2.4621  1.7774
15589SOL     OW57985   8.831   0.682   4.436  0.0933 -0.3894 -0.0815
15589SOL    HW157986   8.797   0.770   4.404  0.4897 -0.3732 -0.4744
15589SOL    HW257987   8.811   0.671   4.533 -0.9318 -0.3406 -0.2827
15590SOL     OW57988   3.372   9.115   2.522 -0.1770  0.5366  0.5126
15590SOL    HW157989   3.307   9.058   2.472 -0.7441  1.0045  0.7114
15590SOL    HW257990   3.458   9.122   2.471 -0.3208  0.0020  0.2023
15591SOL     OW57991   1.347   1.955   0.461 -0.4892  0.3369  0.2863
15591SOL    HW157992   1.324   1.993   0.372  0.1563 -0.7636 -0.3528
15591SOL    HW257993   1.295   2.003   0.532 -0.3736  1.7840 -0.5903
15592SOL     OW57994   7.157   0.031   4.011 -0.4916  0.2052 -0.4764
15592SOL    HW157995   7.085   0.015   3.944 -0.0272 -1.2679 -0.6427
15592SOL    HW257996   7.245   0.003   3.973  0.0708  1.3408 -0.0253
15593SOL     OW57997   6.948   0.331   3.773  0.5390  0.2134 -0.0656
15593SOL    HW157998   7.003   0.414   3.776 -2.4235  2.3336 -1.3412
15593SOL    HW257999   6.885   0.330   3.851 -0.7464  0.1561 -1.0892
15594SOL     OW58000   8.772   4.525   2.598  0.5842  0.1545  0.2272
15594SOL    HW158001   8.753   4.487   2.688 -0.8578  1.1667  0.3697
15594SOL    HW258002   8.697   4.502   2.536  1.0465  0.3908 -0.4273
15595SOL     OW58003   1.214   9.108   2.774  0.4538 -0.1507 -0.5266
15595SOL    HW158004   1.165   9.054   2.706  0.0315 -0.7690  0.2580
15595SOL    HW258005   1.297   9.147   2.733  0.3990 -0.8234 -1.2814
15596SOL     OW58006   5.025   5.003   1.312  0.4925  0.4401  0.0612
15596SOL    HW158007   5.070   4.915   1.325  0.2491  0.3483  0.2966
15596SOL    HW258008   5.047   5.063   1.389 -1.0842 -0.1598  1.0254
15597SOL     OW58009   0.613   4.019   4.973  0.2363 -0.1002  0.0807
15597SOL    HW158010   0.582   4.055   5.061 -1.0123 -0.8333 -0.0540
15597SOL    HW258011   0.625   3.920   4.979  0.5644 -0.0943 -0.4544
15598SOL     OW58012   8.861   3.987   1.427  0.0126 -0.0140  0.4679
15598SOL    HW158013   8.868   4.079   1.388  2.3154  0.2358  1.4154
15598SOL    HW258014   8.947   3.962   1.471 -0.8531 -2.3137  0.9551
15599SOL     OW58015   7.681   0.035   0.976  0.6071  0.3033 -0.7819
15599SOL    HW158016   7.625   0.029   0.893  0.4258  0.4913 -0.6749
15599SOL    HW258017   7.732  -0.050   0.988 -1.2410 -0.6755  0.2489
15600SOL     OW58018   9.979   0.668   3.453 -0.0381  0.2833 -0.5348
15600SOL    HW158019   9.965   0.763   3.427 -2.8231  0.0838  0.0246
15600SOL    HW258020   9.910   0.611   3.407 -0.4407 -1.0198  1.5975
15601SOL     OW58021   3.577   6.368   4.981 -0.1034  0.2823  0.1943
15601SOL    HW158022   3.502   6.401   5.038 -0.5415 -0.8076  0.2743
15601SOL    HW258023   3.564   6.399   4.887  0.6147  2.0729  0.6765
15602SOL     OW58024   4.195   5.678   1.022 -0.5623  0.0331 -0.2126
15602SOL    HW158025   4.251   5.605   1.061 -0.8935 -0.1214 -0.0333
15602SOL    HW258026   4.181   5.661   0.924 -0.8155 -0.2512 -0.1263
15603SOL     OW58027   8.439   6.740   0.983  0.2300  0.2781  0.2978
15603SOL    HW158028   8.536   6.765   0.978  0.9293 -2.2781  0.3914
15603SOL    HW258029   8.390   6.781   0.906  1.2195  2.1831  0.6457
15604SOL     OW58030   3.046   9.319   0.631 -0.3206 -0.0062 -0.1988
15604SOL    HW158031   3.072   9.382   0.704  0.7319 -1.3477  0.5835
15604SOL    HW258032   2.964   9.355   0.585  0.5271  2.1756 -0.0789
15605SOL     OW58033   9.401   1.318   1.504  0.1844 -0.0327 -0.2335
15605SOL    HW158034   9.477   1.263   1.538 -0.2479 -0.3206  0.2778
15605SOL    HW258035   9.422   1.415   1.515  0.1599 -0.1192  0.6106
15606SOL     OW58036   1.401   5.542   0.835  0.5154  0.1771 -0.4318
15606SOL    HW158037   1.448   5.629   0.823  1.1289 -0.0152  0.5990
15606SOL    HW258038   1.459   5.468   0.802  0.0962  0.1314 -1.0711
15607SOL     OW58039   8.201   1.878   0.013 -0.2479 -0.7647  0.0017
15607SOL    HW158040   8.229   1.965   0.054 -0.5760 -0.3893 -0.5692
15607SOL    HW258041   8.269   1.851  -0.056  0.2738 -1.3659  0.7354
15608SOL     OW58042   0.793   7.240   6.158 -0.5409 -0.4088 -0.2736
15608SOL    HW158043   0.812   7.169   6.090 -0.5113 -0.1326 -0.5568
15608SOL    HW258044   0.768   7.197   6.245  1.1583 -0.7700  0.0534
15609SOL     OW58045   5.074   9.203   6.298 -0.4239  0.3871 -0.4703
15609SOL    HW158046   5.139   9.275   6.271 -0.4041  0.9559  1.0143
15609SOL    HW258047   5.042   9.155   6.217  1.8476  0.0964 -1.2469
15610SOL     OW58048   2.122   6.172   3.617  0.1621 -0.2685  0.3021
15610SOL    HW158049   2.046   6.143   3.675  0.6190 -0.5641  0.7460
15610SOL    HW258050   2.176   6.242   3.664  0.9444 -1.0154  0.5143
15611SOL     OW58051   2.832   7.136   0.666  0.3901  0.5936  0.0816
15611SOL    HW158052   2.745   7.099   0.698  1.2674  0.6563  2.6676
15611SOL    HW258053   2.818   7.226   0.626 -0.7677  0.4612  0.1865
15612SOL     OW58054   6.733   0.863   2.568 -0.4955 -0.3399  0.2981
15612SOL    HW158055   6.827   0.832   2.587  0.5176  1.6775 -1.1675
15612SOL    HW258056   6.693   0.805   2.497 -0.3439 -1.2021  0.9155
15613SOL     OW58057   1.482   0.880   4.732 -0.1313 -0.0939 -0.1876
15613SOL    HW158058   1.486   0.796   4.786  0.3463  1.2973  1.9914
15613SOL    HW258059   1.573   0.920   4.724 -0.4102  0.4333 -0.8946
15614SOL     OW58060   4.268   8.213   2.177 -0.1312  0.3214 -0.0519
15614SOL    HW158061   4.295   8.216   2.273  0.9430  0.0588 -0.3400
15614SOL    HW258062   4.191   8.275   2.162 -1.8128 -1.3346  1.4351
15615SOL     OW58063   4.496   4.592   6.341  0.3412  0.1518  0.3603
15615SOL    HW158064   4.485   4.539   6.258 -3.3402  1.2242  0.0870
15615SOL    HW258065   4.514   4.688   6.318 -0.5539  0.4287  0.7657
15616SOL     OW58066   2.370   3.406   6.007 -0.2284 -0.3216  0.1574
15616SOL    HW158067   2.369   3.451   6.096 -0.1113 -0.3150  0.1561
15616SOL    HW258068   2.458   3.360   5.994 -0.3266 -0.5039  0.1359
15617SOL     OW58069   3.663   2.353   6.694  0.4324  0.1306 -0.1790
15617SOL    HW158070   3.742   2.416   6.693  0.8806 -0.3939  1.0267
15617SOL    HW258071   3.684   2.273   6.638 -0.4741  1.4251 -2.4365
15618SOL     OW58072   2.676   5.568   3.516 -0.4587  0.1376  0.1964
15618SOL    HW158073   2.623   5.547   3.434  2.1466  0.0275 -1.5120
15618SOL    HW258074   2.667   5.494   3.582  1.5310 -2.2815 -2.1355
15619SOL     OW58075   6.803   8.529   5.540 -0.3035 -0.2704 -0.5890
15619SOL    HW158076   6.761   8.508   5.452 -0.9231 -0.5938 -0.2206
15619SOL    HW258077   6.896   8.563   5.525 -0.2890 -0.6191 -1.3468
15620SOL     OW58078   3.495   6.793   0.565  0.2713 -0.3452 -0.4747
15620SOL    HW158079   3.560   6.789   0.490 -0.5506  0.2128 -1.2301
15620SOL    HW258080   3.527   6.857   0.634  0.5108 -0.0507 -0.8596
15621SOL     OW58081   8.542   3.768   1.844  0.2503 -0.1969  0.3876
15621SOL    HW158082   8.536   3.670   1.863 -0.3588 -0.2892 -0.2745
15621SOL    HW258083   8.453   3.802   1.814  0.5466  0.4835  0.2582
15622SOL     OW58084   2.881   8.555   2.004  0.3939  0.3425 -0.4272
15622SOL    HW158085   2.815   8.629   1.991  0.4454  0.0350 -2.8062
15622SOL    HW258086   2.961   8.589   2.054 -1.0213  1.0202  1.3989
15623SOL     OW58087   7.080   1.707   0.501 -0.1768  0.4970 -0.0586
15623SOL    HW158088   7.125   1.767   0.567 -0.8379  0.8261  0.0953
15623SOL    HW258089   7.016   1.760   0.445  1.2340  0.4431 -1.7647
15624SOL     OW58090   2.623   1.849   6.608 -0.5339  0.4741 -0.7984
15624SOL    HW158091   2.547   1.828   6.670  1.6878 -2.2454  1.1641
15624SOL    HW258092   2.626   1.781   6.535  0.2938  0.2705 -0.5795
15625SOL     OW58093   2.530   0.423   3.172  0.5956  0.2592 -0.1124
15625SOL    HW158094   2.587   0.364   3.229 -0.3217 -0.2736  0.2747
15625SOL    HW258095   2.488   0.494   3.228  2.6943  2.0855 -0.7903
15626SOL     OW58096   4.737   4.703   0.145  0.2010  0.1726 -0.0246
15626SOL    HW158097   4.751   4.801   0.161  1.5727 -0.2741  1.6819
15626SOL    HW258098   4.649   4.676   0.184  0.7445  0.3363  1.3600
15627SOL     OW58099   5.006   4.057   4.521  0.1645  0.3636 -0.0606
15627SOL    HW158100   5.102   4.052   4.548  0.5514 -0.3785 -1.5291
15627SOL    HW258101   4.983   4.152   4.497  0.4151  0.6132  0.6681
15628SOL     OW58102   9.993   7.862   2.421 -0.4576 -0.2499  0.1961
15628SOL    HW158103  10.020   7.833   2.513 -1.0754  1.7595  1.0543
15628SOL    HW258104   9.893   7.873   2.418 -0.3578  0.5362 -0.4426
15629SOL     OW58105   2.293   0.183   6.534  0.2080 -0.3974  0.2584
15629SOL    HW158106   2.386   0.197   6.568  0.4095  0.5151 -0.6558
15629SOL    HW258107   2.297   0.137   6.445  0.0068  3.4444 -1.8424
15630SOL     OW58108   0.470   8.011   4.117 -0.0025 -0.2052  0.2432
15630SOL    HW158109   0.436   8.005   4.023  0.6497  2.0568 -0.1913
15630SOL    HW258110   0.564   7.976   4.121  0.1048  0.0461 -0.0451
15631SOL     OW58111   2.284   9.841   3.297 -0.2963  0.1834  0.1581
15631SOL    HW158112   2.340   9.906   3.246 -1.4961 -0.3249 -1.8698
15631SOL    HW258113   2.292   9.750   3.254 -0.4366 -0.4991  1.5612
15632SOL     OW58114   8.302   2.259   2.153  0.0132 -0.0238 -0.3435
15632SOL    HW158115   8.386   2.290   2.108 -0.8276 -0.1527 -2.0557
15632SOL    HW258116   8.314   2.164   2.184  1.5339  0.9460  2.1948
15633SOL     OW58117   1.891   3.131   3.539 -0.3418 -0.2678 -0.0060
15633SOL    HW158118   1.977   3.180   3.523 -0.6435  0.3911  0.4130
15633SOL    HW258119   1.820   3.196   3.566 -0.9482 -0.8272 -0.2594
15634SOL     OW58120   9.254   4.838   0.171  0.1464  0.3737  0.3215
15634SOL    HW158121   9.273   4.753   0.122 -0.5214  0.2140  0.3332
15634SOL    HW258122   9.314   4.845   0.251 -1.3128 -1.1630  1.5792
15635SOL     OW58123   0.691   0.676   4.146 -0.2334 -0.1275 -0.3880
15635SOL    HW158124   0.743   0.611   4.201  2.5872  1.8346 -0.6146
15635SOL    HW258125   0.738   0.691   4.059 -1.3384  1.4842 -0.7412
15636SOL     OW58126   7.971   3.977   0.216  0.0283  0.0973  0.2076
15636SOL    HW158127   8.051   3.929   0.252  0.6752  0.7856 -0.2983
15636SOL    HW258128   7.896   3.971   0.281  0.3547 -0.9188  0.5011
15637SOL     OW58129   4.397   3.889   3.635 -0.0992 -0.4247  0.1598
15637SOL    HW158130   4.418   3.794   3.611 -0.6510 -0.5627  0.2149
15637SOL    HW258131   4.442   3.912   3.720  0.7315 -0.3708 -0.2901
15638SOL     OW58132   2.623   4.209   2.029  0.1699 -0.4411  0.0476
15638SOL    HW158133   2.583   4.251   1.948 -1.0720  2.1215  1.8957
15638SOL    HW258134   2.705   4.259   2.056 -0.6186  0.1057  1.5499
15639SOL     OW58135   6.063   9.748   5.807 -0.1919  0.4177  0.2858
15639SOL    HW158136   6.025   9.749   5.714  0.5224 -0.1432 -0.0222
15639SOL    HW258137   6.124   9.669   5.816 -0.9371 -0.0230  1.5079
15640SOL     OW58138   4.801   5.151   2.547 -0.6412  0.2970 -0.0955
15640SOL    HW158139   4.863   5.077   2.523 -1.8636 -0.0735 -2.2195
15640SOL    HW258140   4.762   5.134   2.638  1.5196  0.0031  0.7919
15641SOL     OW58141   0.588   2.847   4.322  0.1471  0.3642  0.1593
15641SOL    HW158142   0.540   2.777   4.269  0.9348 -0.8311  1.0061
15641SOL    HW258143   0.521   2.901   4.373 -0.3908 -0.5997  0.4992
15642SOL     OW58144   4.662   7.791   3.434  0.1064 -0.4374 -0.3058
15642SOL    HW158145   4.692   7.727   3.505 -2.0821 -0.7407  0.3848
15642SOL    HW258146   4.620   7.740   3.358 -0.6549  0.0833 -0.2468
15643SOL     OW58147   5.805   9.184   3.155  0.6487  0.0784 -0.0675
15643SOL    HW158148   5.850   9.109   3.107  0.0289 -1.3459  1.5386
15643SOL    HW258149   5.762   9.244   3.089  2.7087  0.0564 -1.4893
15644SOL     OW58150   9.435   2.811   1.898  0.4443 -0.1983  0.2486
15644SOL    HW158151   9.499   2.778   1.828  0.4340  1.7565 -0.7110
15644SOL    HW258152   9.342   2.802   1.864  0.4674  1.2817 -0.2382
15645SOL     OW58153   8.529   0.048   4.110 -0.3293 -0.1420  0.1791
15645SOL    HW158154   8.538   0.147   4.099  0.2786 -0.4140 -1.9028
15645SOL    HW258155   8.549   0.023   4.205  2.6071  1.3758  0.0067
15646SOL     OW58156   2.638   8.572   0.167 -0.3104  0.1972 -0.4602
15646SOL    HW158157   2.717   8.529   0.211  0.3670  0.4158 -1.4432
15646SOL    HW258158   2.597   8.507   0.103 -0.7600  0.1793 -0.1526
15647SOL     OW58159   0.951   1.949   4.430 -0.3973 -0.1960  0.4458
15647SOL    HW158160   0.949   1.852   4.456  2.2609 -0.9781 -1.9942
15647SOL    HW258161   0.906   1.961   4.342  1.6680  0.2913 -0.5747
15648SOL     OW58162   8.097   6.945   4.061 -0.5759  0.1133  0.3667
15648SOL    HW158163   8.059   7.033   4.088  0.8512  0.3799  1.5043
15648SOL    HW258164   8.151   6.956   3.978  1.2732  0.6991  1.6293
15649SOL     OW58165   0.781   6.435   0.382  0.5629 -0.1255  0.3378
15649SOL    HW158166   0.685   6.461   0.395  0.8350  1.1086 -0.0272
15649SOL    HW258167   0.802   6.356   0.439 -0.5417 -0.0921  0.8035
15650SOL     OW58168   6.341   7.606   4.313 -0.0498 -0.1902 -0.1494
15650SOL    HW158169   6.369   7.545   4.387  0.5346 -1.2164 -1.2131
15650SOL    HW258170   6.303   7.690   4.352 -1.2295 -1.3784  1.3441
15651SOL     OW58171   9.263   1.082   0.528  0.4766 -0.0290  0.5829
15651SOL    HW158172   9.282   0.995   0.573 -0.7914 -1.9214 -2.4142
15651SOL    HW258173   9.318   1.090   0.445 -1.8313  0.4908 -0.9498
15652SOL     OW58174   0.996   5.009   5.438  0.1970 -0.1744 -0.2429
15652SOL    HW158175   0.985   5.018   5.537  0.4747  0.0754 -0.2339
15652SOL    HW258176   0.906   5.014   5.394  0.2068  1.2863 -0.1256
15653SOL     OW58177   9.080   3.409   5.624  0.4021 -0.3167 -0.2594
15653SOL    HW158178   9.071   3.482   5.691  0.3169 -0.0792 -0.5265
15653SOL    HW258179   9.157   3.430   5.563  0.2084 -0.3135 -0.5041
15654SOL     OW58180   7.707   6.891   5.404 -0.3809  0.2958  0.2657
15654SOL    HW158181   7.652   6.870   5.485  1.6354 -1.0923  1.3100
15654SOL    HW258182   7.798   6.920   5.432 -0.1167  1.2647 -1.4871
15655SOL     OW58183   4.576   3.292   4.371 -0.3003  0.5443  0.2244
15655SOL    HW158184   4.645   3.341   4.320  1.0667 -0.0069  1.5019
15655SOL    HW258185   4.509   3.253   4.308  0.7291  0.8139 -1.0485
15656SOL     OW58186   1.383   7.221   4.474 -0.1585  1.2964 -0.0148
15656SOL    HW158187   1.472   7.176   4.472 -0.5536  0.4701 -4.0472
15656SOL    HW258188   1.367   7.266   4.386 -3.0215  2.8458  1.2377
15657SOL     OW58189   1.442   2.430   0.939  0.9366  0.4573  0.0971
15657SOL    HW158190   1.489   2.345   0.915  2.2705  1.0408  0.5855
15657SOL    HW258191   1.358   2.438   0.885  0.3908 -1.5348  0.6089
15658SOL     OW58192   9.574   4.947   5.622  0.4457 -0.3503  0.1206
15658SOL    HW158193   9.610   5.040   5.614  0.2747 -0.3183 -0.2774
15658SOL    HW258194   9.586   4.899   5.534 -2.3321  0.3157 -0.6774
15659SOL     OW58195   3.777   2.871   1.614  0.0370  0.2031  0.3964
15659SOL    HW158196   3.848   2.802   1.626 -0.3167 -0.8981 -3.1791
15659SOL    HW258197   3.693   2.840   1.658  0.3259 -0.9038  0.1886
15660SOL     OW58198   4.926   1.621   3.883 -0.1496 -0.3855 -0.2172
15660SOL    HW158199   5.007   1.602   3.939  0.8499  0.1349 -1.4676
15660SOL    HW258200   4.861   1.675   3.937  0.3581 -0.7368  0.7706
15661SOL     OW58201   8.429   1.465   3.691  0.1964  0.4415  0.4963
15661SOL    HW158202   8.503   1.415   3.735 -0.3428 -0.5235  0.3483
15661SOL    HW258203   8.407   1.421   3.604 -0.3311  0.9037  0.3919
15662SOL     OW58204   1.568   5.091   4.855  0.6941  0.1961  0.3085
15662SOL    HW158205   1.492   5.028   4.836  1.7701 -0.8838 -0.5304
15662SOL    HW258206   1.555   5.176   4.805  0.5585 -0.3977 -0.6785
15663SOL     OW58207   9.081   6.234   0.749 -0.2569 -0.0581  0.1336
15663SOL    HW158208   9.024   6.286   0.685 -1.6723  0.8988  2.1407
15663SOL    HW258209   9.167   6.282   0.764 -0.2623  0.1285 -0.4194
15664SOL     OW58210   9.785   2.402   6.214 -0.0546  1.0477  0.0596
15664SOL    HW158211   9.860   2.339   6.236 -1.4880 -0.4715  0.7237
15664SOL    HW258212   9.782   2.416   6.115 -0.0626 -0.3725 -0.1552
15665SOL     OW58213   2.212   7.142   6.289 -0.1842  0.2039  0.1390
15665SOL    HW158214   2.132   7.200   6.281 -0.4332 -0.1101  0.3058
15665SOL    HW258215   2.232   7.098   6.201 -0.4140 -0.0022  0.1893
15666SOL     OW58216   0.908   8.660   1.572  0.5471 -0.3412  0.4690
15666SOL    HW158217   0.823   8.665   1.624 -0.9075 -1.6712 -1.6984
15666SOL    HW258218   0.986   8.662   1.635 -1.1153 -0.6565  2.5860
15667SOL     OW58219   7.778   9.848   4.526  0.0401  0.0897 -0.2109
15667SOL    HW158220   7.876   9.854   4.504  0.1382  0.6409  0.3449
15667SOL    HW258221   7.738   9.768   4.481  1.0727 -0.9854  0.7652
15668SOL     OW58222   4.488   8.936   0.642  0.6048 -0.4534  0.1859
15668SOL    HW158223   4.458   8.842   0.656 -0.9311  0.0186  0.2029
15668SOL    HW258224   4.526   8.946   0.550 -0.8159 -0.6973 -0.4361
15669SOL     OW58225   8.768   6.670   1.705  0.3711  0.2107 -0.2196
15669SOL    HW158226   8.712   6.741   1.749  0.5213  0.0103  0.2870
15669SOL    HW258227   8.794   6.701   1.614  0.4815  0.8337  0.0209
15670SOL     OW58228   8.228   9.322   3.017  0.1450  0.5177  0.3099
15670SOL    HW158229   8.224   9.287   2.923  1.1165  1.9008 -0.2756
15670SOL    HW258230   8.244   9.421   3.014  0.7269  0.4789  1.9355
15671SOL     OW58231   9.368   7.625   2.047 -0.0519 -0.9208  0.0153
15671SOL    HW158232   9.282   7.651   2.003  0.6109 -0.8397 -1.2479
15671SOL    HW258233   9.369   7.659   2.141 -1.2656 -0.6553 -0.0563
15672SOL     OW58234   1.356   2.011   3.352  0.3152  0.0484 -0.2876
15672SOL    HW158235   1.412   2.052   3.424  0.6571 -1.2120  0.1690
15672SOL    HW258236   1.358   1.911   3.360 -0.4901 -0.0706 -1.4071
15673SOL     OW58237   6.292   7.895   5.477 -0.1974 -0.0263 -0.2416
15673SOL    HW158238   6.251   7.981   5.509  0.6769  0.4461 -0.3728
15673SOL    HW258239   6.388   7.892   5.506  0.0529 -0.4961 -1.1253
15674SOL     OW58240   2.737   0.252   3.339 -0.2652  0.6489 -0.2684
15674SOL    HW158241   2.809   0.308   3.379 -1.6623  1.5095  1.1417
15674SOL    HW258242   2.735   0.163   3.384 -0.8752  1.0869  0.6094
15675SOL     OW58243   3.194   4.395   4.746  0.1446  0.3900  0.3556
15675SOL    HW158244   3.244   4.391   4.833 -0.4812 -2.1581  0.6578
15675SOL    HW258245   3.115   4.456   4.756  1.0463  1.4480  1.0530
15676SOL     OW58246   9.574   0.293   0.553  0.5133  0.1469  0.0142
15676SOL    HW158247   9.663   0.248   0.556 -0.2955 -1.5305 -0.4100
15676SOL    HW258248   9.516   0.257   0.626  0.2369  1.3515  0.3953
15677SOL     OW58249   0.732   4.886   0.998 -0.0891 -0.4812  0.2142
15677SOL    HW158250   0.671   4.917   1.071  0.9180 -0.2316  0.9593
15677SOL    HW258251   0.728   4.786   0.992 -1.0842 -0.4273 -0.2064
15678SOL     OW58252   4.766   1.733   3.688  0.0984  0.2399 -0.2505
15678SOL    HW158253   4.829   1.679   3.745  0.8427  2.0299  0.6713
15678SOL    HW258254   4.679   1.744   3.736  0.0504  0.1155 -0.3092
15679SOL     OW58255   3.721   4.486   1.077 -0.0633 -0.1603 -0.2420
15679SOL    HW158256   3.769   4.432   1.008 -0.2745 -1.7451  0.8341
15679SOL    HW258257   3.767   4.574   1.088  0.7680 -0.4327 -1.4230
15680SOL     OW58258   4.814   1.808   3.088  0.5025  0.1595  0.3021
15680SOL    HW158259   4.911   1.826   3.104  1.0080 -0.0623 -2.2293
15680SOL    HW258260   4.798   1.709   3.093  0.6239  0.1070 -0.2550
15681SOL     OW58261   1.521   4.722   5.534 -0.6230  0.1850 -0.4176
15681SOL    HW158262   1.610   4.690   5.499 -1.7753 -2.7945 -0.8141
15681SOL    HW258263   1.536   4.793   5.602  2.1278 -0.6728 -0.0412
15682SOL     OW58264   0.991   9.505   0.916 -0.0403 -0.7727  0.0681
15682SOL    HW158265   0.943   9.512   0.829 -1.8963 -2.7201  0.8513
15682SOL    HW258266   0.924   9.509   0.991  1.1512 -2.1189  1.2587
15683SOL     OW58267   3.814   1.028   1.616 -0.3503  0.3797  0.0291
15683SOL    HW158268   3.825   1.126   1.634 -2.0284  0.6084 -0.0774
15683SOL    HW258269   3.872   0.975   1.678  0.6394  1.4499  0.0169
15684SOL     OW58270   2.153   2.139   2.941  0.5185 -0.3735 -0.4243
15684SOL    HW158271   2.199   2.090   3.015  1.5866  0.7494 -0.3351
15684SOL    HW258272   2.218   2.159   2.868 -0.3742 -0.8797 -1.3826
15685SOL     OW58273   8.625   6.579   5.788  0.0546 -0.0458 -0.3001
15685SOL    HW158274   8.571   6.506   5.746 -1.2791 -0.4704  2.0422
15685SOL    HW258275   8.647   6.648   5.719 -1.2558 -1.1694 -1.8839
15686SOL     OW58276   1.478   2.556   6.437  0.3028 -0.0939 -0.2001
15686SOL    HW158277   1.575   2.562   6.413  0.1367  0.8580 -0.6568
15686SOL    HW258278   1.462   2.604   6.523  0.0831  0.5637 -0.6001
15687SOL     OW58279   0.006   5.308   6.131 -0.1076 -0.0102 -0.2238
15687SOL    HW158280  -0.082   5.263   6.117  0.1697 -0.6939  0.1888
15687SOL    HW258281   0.015   5.334   6.227 -0.8690  2.2385 -0.7289
15688SOL     OW58282   3.935   4.613   4.938  0.2505 -0.0336 -0.2980
15688SOL    HW158283   3.849   4.649   4.973  1.6554  1.2057  2.0460
15688SOL    HW258284   3.968   4.672   4.864  0.9998  1.8115  1.4506
15689SOL     OW58285   7.194   9.745   5.572  0.6523 -0.4485 -0.3639
15689SOL    HW158286   7.254   9.819   5.602 -0.6547 -0.0035  1.1934
15689SOL    HW258287   7.154   9.769   5.483  0.5886  0.5063 -0.0787
15690SOL     OW58288   1.588   1.271   6.147  1.0006  0.7051  0.2986
15690SOL    HW158289   1.588   1.281   6.247  0.0794 -0.4154  0.4079
15690SOL    HW258290   1.638   1.348   6.107  1.9262  0.8357  1.6562
15691SOL     OW58291   9.017   7.431   6.205  0.5070  0.9117 -0.2350
15691SOL    HW158292   9.014   7.507   6.140 -2.6008  0.0913 -1.1638
15691SOL    HW258293   9.040   7.347   6.157 -0.0506  0.5989  0.0365
15692SOL     OW58294   0.700   0.274   3.411 -0.1220  0.4916 -0.4682
15692SOL    HW158295   0.779   0.334   3.397 -0.8929  1.5697 -0.2146
15692SOL    HW258296   0.724   0.202   3.476  0.4122  1.2876  0.2221
15693SOL     OW58297   0.965   3.942   3.555 -0.6834 -0.0015  0.7071
15693SOL    HW158298   1.043   3.990   3.517  0.8307 -2.2668  0.8330
15693SOL    HW258299   0.897   4.008   3.587  1.1064  2.0017  0.4864
15694SOL     OW58300   7.559   3.589   1.679 -0.2846 -0.0068  0.8980
15694SOL    HW158301   7.622   3.530   1.628 -0.4823  1.8914 -1.6284
15694SOL    HW258302   7.470   3.588   1.635 -0.2574  2.2595  0.7319
15695SOL     OW58303   1.618   8.617   4.157 -0.0897  0.3612  0.0807
15695SOL    HW158304   1.535   8.672   4.144 -0.3377 -0.0340 -0.0251
15695SOL    HW258305   1.659   8.599   4.068 -0.8051 -0.8367 -0.0169
15696SOL     OW58306   7.727   9.926   3.459  0.1203  0.1628 -0.0284
15696SOL    HW158307   7.710   9.964   3.550 -2.1530 -0.0852 -0.3039
15696SOL    HW258308   7.701   9.829   3.459  1.8186 -0.2938 -0.4648
15697SOL     OW58309   4.433   9.583   5.667 -0.0510  0.2146 -0.1866
15697SOL    HW158310   4.380   9.667   5.675  0.8225  0.6927  0.6917
15697SOL    HW258311   4.427   9.531   5.752  0.4095 -0.0064 -0.2867
15698SOL     OW58312   2.712   5.117   3.348 -0.0326  0.2097 -0.3785
15698SOL    HW158313   2.761   5.073   3.272  2.0839  1.2474  0.3598
15698SOL    HW258314   2.734   5.214   3.350 -0.3341  0.2518  1.3720
15699SOL     OW58315   9.746   6.747   6.370  0.3173  0.2527 -0.1498
15699SOL    HW158316   9.747   6.685   6.448  0.7524  0.3872 -0.0468
15699SOL    HW258317   9.654   6.748   6.329 -0.0722  0.6193  0.7101
15700SOL     OW58318   1.017   7.864   3.466  0.0670  0.1393  0.1085
15700SOL    HW158319   0.974   7.910   3.390  1.0674  1.4435  0.3222
15700SOL    HW258320   1.036   7.769   3.441  0.4007  0.5606 -1.2595
15701SOL     OW58321   4.961   0.232   1.445  0.0223 -0.1172  0.8096
15701SOL    HW158322   5.048   0.243   1.492  0.2934  0.5740  0.1656
15701SOL    HW258323   4.978   0.219   1.347 -0.6238  0.7353  0.5771
15702SOL     OW58324   7.436   0.968   4.200  0.4628  0.0667 -0.0288
15702SOL    HW158325   7.486   1.048   4.234  0.6901 -0.7829  1.7113
15702SOL    HW258326   7.462   0.887   4.254 -1.6409 -0.6883 -0.0933
15703SOL     OW58327   7.852   0.602   0.991  0.0085 -0.4176 -0.7471
15703SOL    HW158328   7.922   0.574   0.925  0.3183 -0.7677 -0.2646
15703SOL    HW258329   7.878   0.689   1.033  0.1572 -0.5547 -0.5579
15704SOL     OW58330   3.184   2.565   6.336  0.5230  0.0353  0.2073
15704SOL    HW158331   3.240   2.639   6.374  0.7776  0.2338 -0.5369
15704SOL    HW258332   3.231   2.525   6.258  0.1541 -0.5845  0.3010
15705SOL     OW58333   1.517   6.373   1.666 -0.2411 -0.3708  0.3439
15705SOL    HW158334   1.425   6.341   1.689 -0.9889 -0.2214 -2.3219
15705SOL    HW258335   1.571   6.296   1.632 -0.1158  0.0115 -0.3155
15706SOL     OW58336   1.723   4.932   1.850 -0.3116 -0.2603 -0.5676
15706SOL    HW158337   1.703   4.877   1.931  0.6160 -0.8997 -0.7630
15706SOL    HW258338   1.640   4.944   1.797 -1.7060  2.9208  2.1266
15707SOL     OW58339   4.870   5.216   3.305  0.2786  0.8432  0.1298
15707SOL    HW158340   4.921   5.302   3.303  0.7215  0.6223  1.3836
15707SOL    HW258341   4.931   5.140   3.284  0.0942  0.7485 -0.0608
15708SOL     OW58342   5.430   1.400   3.722 -0.1732 -0.1192 -0.2188
15708SOL    HW158343   5.480   1.433   3.642 -1.2519  3.9156  0.6631
15708SOL    HW258344   5.495   1.381   3.796  0.7351 -2.9099 -1.6620
15709SOL     OW58345   9.083   8.909   5.482  0.3999 -0.8600  0.4937
15709SOL    HW158346   9.080   8.883   5.579  0.9650 -1.1603  0.4345
15709SOL    HW258347   9.023   8.987   5.466 -0.2560 -1.2767  0.9465
15710SOL     OW58348   6.057   9.716   3.293  0.6557  0.9285 -0.5147
15710SOL    HW158349   5.999   9.646   3.335  0.4120  1.6874  0.4316
15710SOL    HW258350   6.143   9.724   3.344  0.0113  2.4347  0.3693
15711SOL     OW58351   8.020   1.602   2.795  0.2889 -0.1531  0.2972
15711SOL    HW158352   7.973   1.603   2.707  0.9301  1.0406 -0.0414
15711SOL    HW258353   8.016   1.510   2.834 -1.7311 -0.2221 -0.0367
15712SOL     OW58354   9.644   2.857   4.964  0.1851 -0.4036  0.0773
15712SOL    HW158355   9.674   2.839   5.057 -1.7977  1.4268  1.1244
15712SOL    HW258356   9.723   2.876   4.906  1.3473 -0.2920  1.6772
15713SOL     OW58357   0.292   5.463   2.553 -0.1621  0.9534 -0.2437
15713SOL    HW158358   0.208   5.496   2.510 -0.3240 -0.3709 -0.9531
15713SOL    HW258359   0.270   5.408   2.633 -0.0847 -1.4723 -1.8536
15714SOL     OW58360   2.904   6.111   1.092  0.3340  0.3985  1.0687
15714SOL    HW158361   2.904   6.033   1.154  1.6492 -0.0321  0.5414
15714SOL    HW258362   2.810   6.145   1.081 -0.4091 -1.7471  0.5017
15715SOL     OW58363   1.219   3.937   2.627 -0.1229 -0.4983 -0.4164
15715SOL    HW158364   1.165   3.993   2.565 -0.1242 -1.7558 -1.5638
15715SOL    HW258365   1.271   3.869   2.575  0.5503 -0.9965  0.8804
15716SOL     OW58366   7.595   7.239   2.987  0.0707 -0.0026 -0.6689
15716SOL    HW158367   7.645   7.303   3.046  0.9292 -0.3372 -1.0232
15716SOL    HW258368   7.642   7.150   2.988 -0.9248 -0.5290 -0.4396
15717SOL     OW58369   8.894   7.937   4.723  0.0686  0.2637 -0.2775
15717SOL    HW158370   8.994   7.938   4.727  0.0213 -0.6117  1.7622
15717SOL    HW258371   8.859   8.022   4.763 -0.0136  0.5901 -1.0339
15718SOL     OW58372   4.826   2.805   2.780 -0.6359  0.1533 -0.0042
15718SOL    HW158373   4.781   2.871   2.840 -0.5596 -0.8768  1.2132
15718SOL    HW258374   4.757   2.746   2.738 -0.5058 -0.8445  1.1611
15719SOL     OW58375   2.266   5.401   3.746  0.0373  0.1650  0.0140
15719SOL    HW158376   2.275   5.319   3.802  0.7220 -0.1229 -0.5114
15719SOL    HW258377   2.304   5.479   3.796 -0.9244  0.2413  0.6540
15720SOL     OW58378   7.967   0.161   5.418  0.1373 -0.0588 -1.0555
15720SOL    HW158379   7.942   0.220   5.494  0.9792 -0.5090 -0.4300
15720SOL    HW258380   8.066   0.166   5.402  0.4010 -2.1564 -0.2703
15721SOL     OW58381   6.389   8.534   4.182  0.1857 -0.1380 -0.0270
15721SOL    HW158382   6.347   8.445   4.167  0.6749 -0.2484 -0.7972
15721SOL    HW258383   6.438   8.534   4.269  2.4501 -1.5219 -1.2503
15722SOL     OW58384   8.211   3.663   2.280  0.1108  0.0222 -0.5243
15722SOL    HW158385   8.139   3.731   2.271 -0.5193 -0.5011  0.4594
15722SOL    HW258386   8.299   3.710   2.289 -0.1488  0.6677 -1.2786
15723SOL     OW58387   0.647   2.618   2.812  0.4264  0.0903 -0.6729
15723SOL    HW158388   0.684   2.564   2.887  0.0206  0.0018 -0.5375
15723SOL    HW258389   0.547   2.618   2.816  0.3736 -0.6218 -1.7101
15724SOL     OW58390   2.676   5.287   0.903  0.4888  0.8987  0.2760
15724SOL    HW158391   2.763   5.265   0.946  0.5319 -2.8154 -1.4756
15724SOL    HW258392   2.603   5.232   0.945 -0.4057  1.4091 -0.5791
15725SOL     OW58393   2.858   1.800   6.120 -0.0728  0.1192  0.0542
15725SOL    HW158394   2.766   1.804   6.081  0.0169  0.1164 -0.1564
15725SOL    HW258395   2.919   1.752   6.057  0.3727  1.2516 -0.3797
15726SOL     OW58396   0.589   5.115   0.864  0.2617 -0.2002  0.5699
15726SOL    HW158397   0.519   5.075   0.805 -0.8970  0.4844  1.4725
15726SOL    HW258398   0.630   5.043   0.921 -0.1816 -0.4857  0.5248
15727SOL     OW58399   6.646   8.606   2.820  0.2558  0.0082 -0.0193
15727SOL    HW158400   6.737   8.565   2.814  1.1808  1.9584  0.2914
15727SOL    HW258401   6.588   8.570   2.747  2.0980  0.7450 -1.8878
15728SOL     OW58402   0.460   6.697   4.293 -0.6871 -0.2534 -0.1892
15728SOL    HW158403   0.526   6.728   4.362 -0.7802 -0.0062 -0.2076
15728SOL    HW258404   0.458   6.597   4.291 -0.9673 -0.2631  0.4429
15729SOL     OW58405   9.930   3.046   4.383  0.4965  0.0951 -0.5837
15729SOL    HW158406   9.999   3.116   4.403  1.6470 -1.4601  1.0741
15729SOL    HW258407   9.863   3.083   4.320  0.2973  3.1677  1.3091
15730SOL     OW58408   2.686   9.173   1.024 -0.0878 -0.1945 -0.4787
15730SOL    HW158409   2.591   9.192   1.003  0.1690  0.9566 -0.5953
15730SOL    HW258410   2.708   9.207   1.115  0.7323  1.3486 -1.2333
15731SOL     OW58411   4.655   3.065   2.028 -0.8307 -0.3396  0.1733
15731SOL    HW158412   4.612   3.148   2.064  0.5603  0.1882  0.6455
15731SOL    HW258413   4.637   2.989   2.089 -2.6579 -0.5433 -0.5907
15732SOL     OW58414   0.793   7.902   2.834  0.2073  0.4539 -0.4642
15732SOL    HW158415   0.844   7.854   2.763  1.7123  1.9942 -0.4509
15732SOL    HW258416   0.732   7.969   2.792 -1.0362 -0.6288 -0.4241
15733SOL     OW58417   8.684   1.423   5.591 -0.9198 -0.2585 -0.7252
15733SOL    HW158418   8.762   1.401   5.533 -0.4976 -0.4766 -0.0812
15733SOL    HW258419   8.650   1.515   5.569 -0.5276 -0.1916 -1.0519
15734SOL     OW58420   2.835   9.143   6.601  0.0670  0.5590 -0.1693
15734SOL    HW158421   2.827   9.143   6.501 -0.0688  0.3550 -0.1583
15734SOL    HW258422   2.932   9.145   6.626  0.2870 -3.4377 -0.3248
15735SOL     OW58423   6.545   1.533   2.898  0.0395 -0.1303 -0.2194
15735SOL    HW158424   6.644   1.546   2.895  0.1547 -0.3236  1.9888
15735SOL    HW258425   6.501   1.621   2.920 -0.3352  0.1013 -1.8486
15736SOL     OW58426   2.805   6.359   4.990  0.1981 -0.5128  0.2048
15736SOL    HW158427   2.713   6.321   5.000  0.5135 -1.2527  0.3868
15736SOL    HW258428   2.872   6.292   5.023  0.9524 -0.9693 -2.1907
15737SOL     OW58429   8.949   7.234   4.022  0.2054  0.1035  0.6023
15737SOL    HW158430   8.909   7.310   3.970  0.4148  1.1800  1.9774
15737SOL    HW258431   9.016   7.270   4.088 -0.7577 -1.1302  2.2939
15738SOL     OW58432   8.327   5.196   6.741 -0.4385 -0.0369  1.0380
15738SOL    HW158433   8.246   5.210   6.683 -0.5787  0.0650  1.2546
15738SOL    HW258434   8.402   5.159   6.686 -0.7711 -0.5489  0.9233
15739SOL     OW58435   0.687   9.804   4.576  0.3216  0.0909  0.3229
15739SOL    HW158436   0.712   9.744   4.652 -2.3731  0.3758  1.5074
15739SOL    HW258437   0.747   9.884   4.576 -0.5734  0.8407  3.1471
15740SOL     OW58438   1.331   2.172   1.665 -0.1100 -0.0264 -0.6227
15740SOL    HW158439   1.350   2.247   1.602 -0.4391  0.0551 -0.6269
15740SOL    HW258440   1.236   2.178   1.696 -0.1048 -0.3767 -0.5357
15741SOL     OW58441   5.754   7.708   2.607  0.3439  0.9961 -0.0307
15741SOL    HW158442   5.668   7.757   2.592  0.4853  1.8956  1.8395
15741SOL    HW258443   5.759   7.678   2.702  1.7302  0.2161 -0.3316
15742SOL     OW58444   9.249   8.294   5.988  0.2606 -0.0703 -0.1363
15742SOL    HW158445   9.329   8.290   6.048 -0.4571  0.0283  0.8214
15742SOL    HW258446   9.166   8.304   6.042 -0.5904 -2.0327 -1.0341
15743SOL     OW58447   3.473   1.225   4.731 -0.4226 -0.3197  0.5647
15743SOL    HW158448   3.428   1.288   4.668  0.2203 -0.1591  0.2677
15743SOL    HW258449   3.423   1.138   4.732 -0.1061 -0.5226 -0.6027
15744SOL     OW58450   8.756   8.505   0.130 -0.6977 -0.9357 -0.1465
15744SOL    HW158451   8.809   8.432   0.087 -0.3055  0.7411 -2.6647
15744SOL    HW258452   8.814   8.557   0.192 -0.6425 -1.9810  0.6812
15745SOL     OW58453   1.492   9.853   3.278  0.4243  0.4041  0.6537
15745SOL    HW158454   1.549   9.772   3.290  0.0635  0.2579  1.3929
15745SOL    HW258455   1.464   9.888   3.367 -0.8688  0.3112  0.2999
15746SOL     OW58456   7.681   0.272   2.029 -0.3691  0.1434  0.2773
15746SOL    HW158457   7.741   0.222   2.091 -1.2242  0.7943  1.6334
15746SOL    HW258458   7.598   0.300   2.077 -1.1186  0.5126 -1.1960
15747SOL     OW58459   8.758   2.247   1.131  0.0305 -0.5854 -0.2175
15747SOL    HW158460   8.823   2.303   1.182 -0.5765 -0.0418 -0.0254
15747SOL    HW258461   8.758   2.154   1.168  2.2812 -1.1810 -1.6451
15748SOL     OW58462   8.501   6.488   0.068 -0.0220  0.0118  0.0026
15748SOL    HW158463   8.519   6.571   0.121  3.1536 -0.6383  0.0273
15748SOL    HW258464   8.466   6.417   0.129  2.6906 -0.4280  1.1433
15749SOL     OW58465   1.086   8.560   1.769 -0.5925  0.4474  0.1280
15749SOL    HW158466   1.023   8.488   1.741 -0.7468  0.2755  0.9076
15749SOL    HW258467   1.176   8.520   1.789 -0.3619  0.6295 -0.5170
15750SOL     OW58468   9.945   3.187   1.703 -0.2504 -0.7069  0.0438
15750SOL    HW158469   9.846   3.185   1.716 -0.0868  0.0114  1.4831
15750SOL    HW258470   9.990   3.208   1.790  1.1897 -1.4850 -0.4981
15751SOL     OW58471   4.149   9.567   0.777 -0.1201  0.1500  0.1242
15751SOL    HW158472   4.217   9.494   0.770  0.3872  0.4170  1.9853
15751SOL    HW258473   4.196   9.655   0.790 -0.7956  0.5097  0.1380
15752SOL     OW58474   1.705   7.391   1.874 -0.3406  0.7384  0.0493
15752SOL    HW158475   1.668   7.460   1.812  0.0778  0.2673 -0.7381
15752SOL    HW258476   1.780   7.343   1.829 -0.0583  0.3673  0.9157
15753SOL     OW58477   9.753   7.617   2.264 -0.4493 -0.1073  0.1966
15753SOL    HW158478   9.818   7.554   2.221 -0.5951 -0.7876  0.9661
15753SOL    HW258479   9.724   7.685   2.197  1.5124  0.5732 -0.0160
15754SOL     OW58480   4.359   5.887   1.174  0.3545 -0.1992  0.4970
15754SOL    HW158481   4.326   5.974   1.136  0.4816  0.3573  1.6430
15754SOL    HW258482   4.284   5.821   1.175  0.4753 -0.3784 -1.1751
15755SOL     OW58483   4.333   5.979   3.038  0.5102 -0.1569  0.0154
15755SOL    HW158484   4.396   6.037   3.090  1.3556 -0.9306 -0.1309
15755SOL    HW258485   4.336   6.005   2.941 -1.8592  1.9973  0.4794
15756SOL     OW58486   0.898   2.324   3.180 -0.0957 -0.1183  0.5305
15756SOL    HW158487   0.906   2.412   3.134 -2.0433 -0.9908 -1.5609
15756SOL    HW258488   0.964   2.260   3.142 -0.7857 -0.4430 -0.1410
15757SOL     OW58489   7.705   9.820   5.701  0.0132  0.1645 -0.1183
15757SOL    HW158490   7.738   9.727   5.718 -1.0906 -0.3479 -0.7324
15757SOL    HW258491   7.746   9.856   5.618 -0.5670 -0.2792 -0.6023
15758SOL     OW58492   9.882   6.839   6.151  0.1675 -0.4538 -0.2134
15758SOL    HW158493   9.831   6.799   6.227  1.5220 -0.0133  0.9474
15758SOL    HW258494   9.853   6.933   6.137  1.1401  0.0277  0.9144
15759SOL     OW58495   9.611   7.597   0.771  0.4295  0.7427  0.4162
15759SOL    HW158496   9.644   7.647   0.691  1.3407 -0.9033 -0.2662
15759SOL    HW258497   9.512   7.611   0.780  0.1029  0.0185 -1.7029
15760SOL     OW58498   4.418   3.760   0.586  0.5280 -0.5545 -0.4875
15760SOL    HW158499   4.489   3.781   0.653  0.9822 -1.1620 -0.7803
15760SOL    HW258500   4.330   3.796   0.619  1.0182  0.4762 -0.2719
15761SOL     OW58501   8.410   8.179   5.495  0.6485 -0.0339 -0.0532
15761SOL    HW158502   8.492   8.200   5.443  0.4608  0.7740 -0.0358
15761SOL    HW258503   8.329   8.205   5.442  0.4218 -0.4190  0.1057
15762SOL     OW58504   0.897   8.354   3.746  0.9469 -0.2082  0.1101
15762SOL    HW158505   0.993   8.338   3.723  1.1174 -1.6429  1.6818
15762SOL    HW258506   0.890   8.375   3.843 -0.2953  0.3048 -0.0910
15763SOL     OW58507   3.248   7.398   0.494  0.1823  0.5720 -0.1488
15763SOL    HW158508   3.221   7.458   0.569  1.6633  1.1624 -0.0620
15763SOL    HW258509   3.343   7.368   0.508  0.9441  1.7479 -2.4313
15764SOL     OW58510   3.265   5.670   4.381 -0.0136 -0.1074 -0.9006
15764SOL    HW158511   3.239   5.700   4.289  2.0629  0.1316 -1.4192
15764SOL    HW258512   3.279   5.750   4.439 -3.0666 -0.2753  0.1568
15765SOL     OW58513   1.887   8.640   1.364 -0.0616 -0.5341  0.1432
15765SOL    HW158514   1.952   8.688   1.304  1.1400 -0.6151  1.3538
15765SOL    HW258515   1.929   8.627   1.454 -2.4949  1.1571  1.5777
15766SOL     OW58516   3.357   9.895   5.306  0.0319  0.2885 -0.3967
15766SOL    HW158517   3.277   9.875   5.363 -0.2583 -0.8207 -1.1725
15766SOL    HW258518   3.396   9.809   5.274  1.0938  0.8644 -0.6321
15767SOL     OW58519   0.931   7.742   6.002 -0.0739  0.3266 -0.0512
15767SOL    HW158520   0.884   7.714   6.086 -0.5790 -0.7253 -0.6714
15767SOL    HW258521   0.863   7.755   5.930  0.5938 -1.3242 -0.9929
15768SOL     OW58522   9.785   7.148   6.385  0.3207  0.3517  0.4083
15768SOL    HW158523   9.816   7.241   6.404  1.6581 -0.1166  0.5519
15768SOL    HW258524   9.797   7.129   6.287  0.8874  0.0302  0.5375
15769SOL     OW58525   7.669   0.063   1.852 -0.1770  0.7841 -0.4872
15769SOL    HW158526   7.759   0.049   1.811  0.0855 -0.1238  0.3902
15769SOL    HW258527   7.671   0.145   1.909  0.7542 -0.4974  1.3622
15770SOL     OW58528   9.104   4.044   0.999 -0.4122  0.4212 -0.0891
15770SOL    HW158529   9.163   4.118   1.031  0.2529  0.7027 -1.8951
15770SOL    HW258530   9.096   3.975   1.070  3.0634 -0.1907 -0.1917
15771SOL     OW58531   9.833   8.423   1.742  0.2381  0.4271 -0.0254
15771SOL    HW158532   9.809   8.515   1.772  1.0655  0.6926 -0.1417
15771SOL    HW258533   9.765   8.390   1.676 -0.7469  0.4390  0.9785
15772SOL     OW58534   0.617   8.068   6.328 -0.1579 -0.0454  0.2259
15772SOL    HW158535   0.650   8.073   6.234 -0.3700  0.5648  0.1835
15772SOL    HW258536   0.571   8.153   6.352 -1.7174 -0.8758  0.2776
15773SOL     OW58537   2.734   5.096   1.313 -0.7428  0.4365 -0.3914
15773SOL    HW158538   2.638   5.108   1.287 -0.6654  1.0785 -0.4057
15773SOL    HW258539   2.773   5.185   1.336 -1.1501 -0.2178  3.1706
15774SOL     OW58540   0.927   3.196   0.111 -0.1628 -0.1060 -0.0410
15774SOL    HW158541   0.945   3.098   0.104 -1.4582 -0.2450 -2.1027
15774SOL    HW258542   0.998   3.240   0.166  1.8318 -1.8284 -1.1572
15775SOL     OW58543   4.747   8.893   1.129  0.1678  0.1331  0.3233
15775SOL    HW158544   4.761   8.799   1.097 -0.0960  0.2066 -0.0074
15775SOL    HW258545   4.682   8.939   1.068  0.5562  0.6341  0.2911
15776SOL     OW58546   8.952   0.109   4.612  0.0836 -0.0837 -0.7918
15776SOL    HW158547   8.930   0.202   4.642 -0.4234  0.0833 -1.6628
15776SOL    HW258548   9.043   0.083   4.647 -0.3008  0.2584  0.5036
15777SOL     OW58549   9.677   1.332   3.217  0.7429 -0.2130  0.1691
15777SOL    HW158550   9.691   1.411   3.277  0.0394 -0.5430  0.7762
15777SOL    HW258551   9.758   1.320   3.160  0.8463  0.9645  0.0437
15778SOL     OW58552   2.482   7.824   5.626 -0.6751  0.2452 -0.0439
15778SOL    HW158553   2.559   7.773   5.587 -1.9469 -0.8925 -1.0666
15778SOL    HW258554   2.506   7.922   5.628  0.0124  0.1650 -2.2658
15779SOL     OW58555   3.186   0.188   4.520  0.4197 -0.4780 -0.0252
15779SOL    HW158556   3.222   0.279   4.499  0.9117 -0.5183  0.6236
15779SOL    HW258557   3.261   0.127   4.546 -0.0505 -0.7154  0.7986
15780SOL     OW58558   9.065   0.565   0.991  0.4045 -0.4733  0.1444
15780SOL    HW158559   9.015   0.584   0.907 -1.2101 -0.3597  1.1020
15780SOL    HW258560   9.109   0.476   0.983 -1.7976 -1.6095  0.0774
15781SOL     OW58561   4.614   4.021   1.294 -0.4368 -0.3241  0.3646
15781SOL    HW158562   4.572   3.949   1.350 -2.6399  0.5703 -0.0577
15781SOL    HW258563   4.660   4.087   1.354 -2.0462  0.1655  1.0861
15782SOL     OW58564   5.348   9.306   6.232  0.5708 -0.2169 -0.2025
15782SOL    HW158565   5.423   9.253   6.192  1.7211  0.4407  1.0152
15782SOL    HW258566   5.359   9.308   6.332 -0.5485  0.6807 -0.0901
15783SOL     OW58567   7.966   1.874   4.871 -0.4621  0.0950  0.2231
15783SOL    HW158568   8.059   1.904   4.847 -0.8130  0.7462 -0.3288
15783SOL    HW258569   7.972   1.803   4.940  0.3782  1.7478  1.9119
15784SOL     OW58570   8.326   1.848   3.755 -0.1903  0.0302  0.6042
15784SOL    HW158571   8.275   1.794   3.822  0.1804  0.4892  1.2696
15784SOL    HW258572   8.423   1.821   3.757  0.1424  1.2543  1.5090
15785SOL     OW58573   8.423   9.437   2.179 -0.5833 -0.5800 -1.0582
15785SOL    HW158574   8.428   9.530   2.215 -0.7039 -0.6037 -0.9823
15785SOL    HW258575   8.338   9.425   2.127 -0.8947 -0.8557 -0.4941
15786SOL     OW58576   3.807   9.131   3.832  0.4400  0.4045 -0.0904
15786SOL    HW158577   3.759   9.212   3.867 -0.0204  2.0111 -4.0463
15786SOL    HW258578   3.741   9.069   3.791  1.0704 -0.7256  0.5951
15787SOL     OW58579   0.365   7.557   1.096 -0.3628 -0.0942  0.1216
15787SOL    HW158580   0.267   7.544   1.110 -0.6474  0.4248 -1.3494
15787SOL    HW258581   0.408   7.468   1.078 -0.7366 -0.1890 -0.2937
15788SOL     OW58582   1.828   6.923   0.447  0.3019  0.1593 -0.7661
15788SOL    HW158583   1.752   6.953   0.504  0.7669 -1.6843  0.8917
15788SOL    HW258584   1.801   6.926   0.351 -1.8518 -0.3874 -0.2099
15789SOL     OW58585   3.030   3.202   4.259 -0.3238 -0.1900 -0.0714
15789SOL    HW158586   3.083   3.176   4.340 -1.8904 -0.7805  0.8083
15789SOL    HW258587   3.007   3.299   4.264  0.3075 -0.0329 -0.2347
15790SOL     OW58588   0.419   3.824   6.085 -0.0757 -0.1567 -0.0606
15790SOL    HW158589   0.511   3.859   6.067  0.3184 -1.3448 -0.4229
15790SOL    HW258590   0.371   3.808   5.999 -0.3204 -0.3122  0.1024
15791SOL     OW58591   8.470   8.499   5.610 -0.1083 -0.2258  0.4563
15791SOL    HW158592   8.392   8.441   5.636 -2.0960  2.1803  0.0146
15791SOL    HW258593   8.453   8.593   5.640  2.2610  0.5109 -0.4297
15792SOL     OW58594   3.856   8.898   5.722 -0.3213  0.4260  0.1986
15792SOL    HW158595   3.955   8.910   5.716 -0.3136  0.1767 -0.1737
15792SOL    HW258596   3.833   8.843   5.803 -0.4031  3.4875  2.3651
15793SOL     OW58597   7.662   2.010   6.731  0.1603  0.3304 -0.1638
15793SOL    HW158598   7.702   2.084   6.677 -1.4419  0.5390 -1.1247
15793SOL    HW258599   7.620   1.943   6.669  1.3731 -1.2764  0.7009
15794SOL     OW58600   7.393   8.381   3.920 -0.2804  0.7344  0.3121
15794SOL    HW158601   7.397   8.283   3.938 -1.3560  0.6104 -0.0365
15794SOL    HW258602   7.418   8.432   4.002 -0.1287  0.1685  0.6186
15795SOL     OW58603   2.591   3.995   4.480 -0.2863 -0.0233  0.2648
15795SOL    HW158604   2.588   3.895   4.476  0.8648 -0.0488 -0.2165
15795SOL    HW258605   2.598   4.032   4.388 -0.2746  0.4891  0.4703
15796SOL     OW58606   1.713   6.334   0.238  0.1780 -0.4017  0.0413
15796SOL    HW158607   1.782   6.262   0.231  0.6293  0.0652 -0.2828
15796SOL    HW258608   1.624   6.292   0.258  0.5675 -0.9940  0.5607
15797SOL     OW58609   2.033   6.083   2.225  0.0138  0.5901 -0.0867
15797SOL    HW158610   2.132   6.068   2.231 -0.0343  0.9089  2.2426
15797SOL    HW258611   1.987   5.996   2.211  0.5424  0.2250  0.4107
15798SOL     OW58612   5.751   8.218   2.811 -0.7351 -0.0968  0.2759
15798SOL    HW158613   5.662   8.255   2.837 -0.6498  0.1318  0.2430
15798SOL    HW258614   5.756   8.122   2.838 -0.3936  0.3104  1.7124
15799SOL     OW58615   8.373   0.564   3.472 -0.1591 -0.0445  0.1556
15799SOL    HW158616   8.352   0.473   3.506  0.4527 -1.2549 -2.6215
15799SOL    HW258617   8.360   0.568   3.373  2.8311  1.9729 -0.2507
15800SOL     OW58618   9.663   8.084   5.048  0.0039  0.0241  0.0139
15800SOL    HW158619   9.703   8.167   5.086 -1.3000  0.6391  0.0717
15800SOL    HW258620   9.733   8.013   5.041  1.1352  1.1397 -0.0842
15801SOL     OW58621   4.640   6.353   2.865  0.1462  0.2165 -0.1593
15801SOL    HW158622   4.699   6.274   2.880  0.7989  0.6398 -0.4719
15801SOL    HW258623   4.681   6.434   2.905 -0.4494  0.4288  0.0291
15802SOL     OW58624   4.591   4.418   0.103  0.0534 -0.1315 -0.0593
15802SOL    HW158625   4.535   4.485   0.151 -0.7898 -0.4034 -0.6578
15802SOL    HW258626   4.584   4.433   0.004 -0.4824 -1.3591 -0.2190
15803SOL     OW58627   8.765   2.247   1.481  0.3232 -0.0258 -0.1634
15803SOL    HW158628   8.807   2.204   1.401  1.6935 -0.4298  0.7565
15803SOL    HW258629   8.680   2.199   1.504 -0.1535  0.1852 -1.4465
15804SOL     OW58630   4.671   1.450   2.136  0.8036 -1.0558 -0.2207
15804SOL    HW158631   4.699   1.459   2.232  1.3141 -0.2516 -0.4402
15804SOL    HW258632   4.750   1.424   2.081  0.9391  0.3069 -0.6993
15805SOL     OW58633   6.836   0.871   1.733 -0.0650 -0.2200  0.2607
15805SOL    HW158634   6.744   0.834   1.745  0.5785 -1.5950  1.1572
15805SOL    HW258635   6.899   0.797   1.709  0.7805  0.7293 -0.5310
15806SOL     OW58636   2.627   8.972   1.358  0.4971 -0.1592 -0.3875
15806SOL    HW158637   2.610   8.896   1.294 -2.4379  0.6473 -0.6532
15806SOL    HW258638   2.633   9.058   1.307 -0.6785  0.3434  0.3064
15807SOL     OW58639   3.187   2.722   1.544 -0.2201  0.5700  0.5304
15807SOL    HW158640   3.198   2.821   1.554  1.3618  0.7051 -2.0039
15807SOL    HW258641   3.097   2.702   1.505  0.2453  1.2011 -0.9268
15808SOL     OW58642   7.010   2.243   4.777  0.3649  0.3331  0.1668
15808SOL    HW158643   6.923   2.246   4.826  0.3539 -0.2437  0.1864
15808SOL    HW258644   7.063   2.164   4.808  1.1055  0.9580  0.5108
15809SOL     OW58645   1.644   1.694   1.728 -0.1962 -0.3692 -0.2308
15809SOL    HW158646   1.568   1.638   1.762 -0.5411  0.4869  0.4421
15809SOL    HW258647   1.615   1.790   1.723  0.5295 -0.1843 -0.9254
15810SOL     OW58648   0.663   5.631   4.850  0.4092  0.1332  0.0412
15810SOL    HW158649   0.660   5.680   4.764 -0.9122 -0.2442 -0.1290
15810SOL    HW258650   0.735   5.561   4.846 -0.0174 -0.2602 -0.9605
15811SOL     OW58651   0.447   2.676   4.161 -0.0718 -0.1428  0.3955
15811SOL    HW158652   0.347   2.671   4.156 -0.0924  0.8680 -0.4184
15811SOL    HW258653   0.487   2.603   4.107 -0.3718  1.9900 -2.8386
15812SOL     OW58654   5.075   0.276   2.429  0.0509  0.3390  0.3299
15812SOL    HW158655   5.039   0.321   2.510 -0.7470  0.0850  0.1199
15812SOL    HW258656   5.077   0.177   2.442  0.9884  0.3678  0.4625
15813SOL     OW58657   4.109   9.645   0.232  0.2481 -0.0820 -0.2811
15813SOL    HW158658   4.194   9.647   0.284 -0.3260  1.3450  0.6207
15813SOL    HW258659   4.036   9.609   0.290 -0.2312  0.7638 -0.3548
15814SOL     OW58660   3.751   5.479   3.152 -0.7485  0.2013  0.0303
15814SOL    HW158661   3.769   5.572   3.184 -0.8805  0.1861  0.1506
15814SOL    HW258662   3.664   5.477   3.104 -0.4785  0.2561 -0.4626
15815SOL     OW58663   1.305   2.553   2.957  0.0134 -0.3169  0.2146
15815SOL    HW158664   1.325   2.606   2.874 -1.4055 -0.6075 -0.3237
15815SOL    HW258665   1.208   2.560   2.978  0.3213 -0.4655  1.7123
15816SOL     OW58666   4.321   1.158   3.760  0.3746  0.0371 -0.0179
15816SOL    HW158667   4.346   1.142   3.856  0.2435 -1.6726 -0.2573
15816SOL    HW258668   4.272   1.245   3.753  2.1324  1.1568  1.1523
15817SOL     OW58669   2.025   7.380   0.347 -0.6723 -0.2947  0.4596
15817SOL    HW158670   2.102   7.327   0.383 -0.4148  0.1294  0.5323
15817SOL    HW258671   2.054   7.474   0.328 -1.3748  0.0921  1.2504
15818SOL     OW58672   8.809   0.687   5.056  0.1850  0.6829  0.5802
15818SOL    HW158673   8.806   0.684   5.156 -0.7819 -1.0009  0.5188
15818SOL    HW258674   8.904   0.697   5.026  0.7342 -1.0737  1.6428
15819SOL     OW58675   8.302   5.078   5.285 -0.4791 -0.4837 -0.0904
15819SOL    HW158676   8.241   5.147   5.323 -0.1969 -0.2146 -0.1264
15819SOL    HW258677   8.390   5.119   5.264 -0.2502 -0.8961  0.0551
15820SOL     OW58678   7.924   4.761   0.604  0.0496 -0.1309  0.2230
15820SOL    HW158679   7.887   4.842   0.558  1.8866  0.5273 -0.1334
15820SOL    HW258680   7.859   4.685   0.596 -0.5010  0.5307 -1.7993
15821SOL     OW58681   3.073   7.966   4.741  0.0220  0.3155 -0.0626
15821SOL    HW158682   3.103   7.973   4.836  0.6901 -1.7361 -0.0812
15821SOL    HW258683   3.129   8.027   4.684  0.7543  0.3078  0.6334
15822SOL     OW58684   1.947   6.584   5.286 -0.1245 -0.1834  0.0088
15822SOL    HW158685   1.979   6.589   5.380  1.4043 -0.3253 -0.4883
15822SOL    HW258686   1.876   6.514   5.278 -0.5294  0.0912  1.1173
15823SOL     OW58687   1.934   7.987   4.813 -0.3671 -0.3854 -0.4436
15823SOL    HW158688   1.851   7.936   4.836 -0.8575  0.0249 -1.2704
15823SOL    HW258689   1.980   8.016   4.898 -0.5455 -1.4392  0.0227
15824SOL     OW58690   0.573   4.592   3.982 -0.3582  0.0462  0.4524
15824SOL    HW158691   0.647   4.527   4.002  0.1923  0.4853 -0.1271
15824SOL    HW258692   0.564   4.657   4.057 -0.2183 -0.0680  0.5683
15825SOL     OW58693   7.624   7.342   4.905 -0.2340 -0.1480  0.2522
15825SOL    HW158694   7.677   7.402   4.845  0.8706 -2.3219 -0.9925
15825SOL    HW258695   7.537   7.386   4.927  0.3024  1.6550 -1.0809
15826SOL     OW58696   4.846   0.640   1.666  0.2486  0.0448 -0.2133
15826SOL    HW158697   4.925   0.668   1.610 -0.2378 -0.7717 -1.3184
15826SOL    HW258698   4.859   0.546   1.698  0.0518  0.1579  0.2014
15827SOL     OW58699   9.984   1.741   3.365 -0.3318 -0.1527  0.1345
15827SOL    HW158700  10.037   1.739   3.280 -0.4561  2.9277 -0.0797
15827SOL    HW258701  10.046   1.752   3.443 -0.4487  0.5073  0.1359
15828SOL     OW58702   3.827   0.287   4.242 -0.0477  0.3097 -0.1036
15828SOL    HW158703   3.915   0.282   4.194  0.0445  1.1982 -0.0292
15828SOL    HW258704   3.842   0.326   4.333 -0.2931 -0.9256  0.4741
15829SOL     OW58705   0.762   7.292   3.381 -0.1396 -0.5709 -0.0918
15829SOL    HW158706   0.687   7.334   3.431  1.2590  0.6864  1.0226
15829SOL    HW258707   0.758   7.319   3.285 -1.9868 -1.7814 -0.3624
15830SOL     OW58708   4.096   8.900   3.319 -0.5301  0.0034  0.1401
15830SOL    HW158709   4.108   8.923   3.416 -1.8073  1.7564 -0.0967
15830SOL    HW258710   4.184   8.902   3.273  0.2710 -2.0434  1.4998
15831SOL     OW58711   4.881   9.417   3.215 -0.5129 -0.1577 -0.2274
15831SOL    HW158712   4.848   9.360   3.290 -0.7105 -2.3042 -1.8935
15831SOL    HW258713   4.981   9.414   3.212 -0.4848  0.2451  0.1642
15832SOL     OW58714   3.584   3.541   1.731  0.1593  0.0261 -0.1523
15832SOL    HW158715   3.538   3.572   1.648  0.2052 -0.1269 -0.2356
15832SOL    HW258716   3.678   3.514   1.710  0.4093  0.7021  0.0912
15833SOL     OW58717   9.454   7.146   1.878 -0.0211  0.4296 -0.0650
15833SOL    HW158718   9.423   7.113   1.788  0.2783 -0.2587  0.0819
15833SOL    HW258719   9.404   7.099   1.950  0.4206  0.2796  0.1473
15834SOL     OW58720   1.365   8.192   4.687 -0.4012  0.4175  0.2673
15834SOL    HW158721   1.347   8.097   4.711  1.6035 -0.5879 -1.9941
15834SOL    HW258722   1.308   8.218   4.610  0.7104  0.2643 -0.6345
15835SOL     OW58723   0.673   3.587   0.239  0.4031  0.4841  0.2811
15835SOL    HW158724   0.656   3.512   0.303  1.4971  1.4043  1.6916
15835SOL    HW258725   0.760   3.571   0.192  0.1990  0.4271 -0.0798
15836SOL     OW58726   1.382   8.883   6.250  0.8321 -0.3161  0.0028
15836SOL    HW158727   1.408   8.833   6.168 -0.1030  0.8660 -1.0369
15836SOL    HW258728   1.465   8.918   6.295  1.3146 -0.3150 -0.8668
15837SOL     OW58729   2.549   6.625   4.047 -0.1091 -0.2794 -0.3752
15837SOL    HW158730   2.566   6.534   4.085  1.7201  0.0021 -0.4923
15837SOL    HW258731   2.635   6.674   4.036 -1.2647  2.3334  1.7636
15838SOL     OW58732   0.847   2.299   0.975 -0.0552 -0.4107  0.1419
15838SOL    HW158733   0.791   2.221   0.948 -0.3368  0.6511 -2.5142
15838SOL    HW258734   0.943   2.271   0.980 -0.2206 -1.0565 -0.2854
15839SOL     OW58735   1.121   3.793   3.804  0.4577  0.6264 -0.1198
15839SOL    HW158736   1.081   3.757   3.720  0.0112 -1.4617  0.9453
15839SOL    HW258737   1.220   3.803   3.792  0.9330 -2.9149  0.1198
15840SOL     OW58738   7.957   2.570   1.686 -0.1205  0.1506 -0.0657
15840SOL    HW158739   7.942   2.633   1.762  1.4171  0.7043 -0.2093
15840SOL    HW258740   7.919   2.480   1.710 -1.5141  0.8810  0.4961
15841SOL     OW58741   6.233   7.903   2.934  0.8015  0.0604 -0.2228
15841SOL    HW158742   6.149   7.871   2.890  1.3049 -1.0209 -0.4044
15841SOL    HW258743   6.210   7.971   3.003 -0.1045  0.8327 -1.2610
15842SOL     OW58744   4.875   7.919   2.405  0.3097 -0.0600 -0.7517
15842SOL    HW158745   4.968   7.885   2.396  0.9988  1.3643  0.6970
15842SOL    HW258746   4.829   7.874   2.481 -0.0822 -0.5296 -1.2627
15843SOL     OW58747   7.313   2.834   1.122 -0.2986  0.0653 -0.0609
15843SOL    HW158748   7.262   2.795   1.199 -3.5955 -1.2806 -2.8549
15843SOL    HW258749   7.352   2.761   1.067  0.6652  0.9822 -0.6262
15844SOL     OW58750   9.642   4.989   1.110  0.6038 -0.2366  0.0010
15844SOL    HW158751   9.662   5.084   1.086  0.7877 -0.0566  0.8597
15844SOL    HW258752   9.685   4.928   1.042  0.0333  0.3048 -0.8503
15845SOL     OW58753   8.770   2.128   2.276  0.5175 -1.2612  0.3015
15845SOL    HW158754   8.718   2.062   2.222  0.5918 -0.2846 -0.9970
15845SOL    HW258755   8.795   2.088   2.364 -1.9081 -1.9555  0.7058
15846SOL     OW58756   6.368   9.454   5.723 -0.2648 -0.5299  0.3711
15846SOL    HW158757   6.439   9.397   5.763  0.6625 -0.9310 -1.7919
15846SOL    HW258758   6.287   9.399   5.704  0.2939 -0.9303 -0.8553
15847SOL     OW58759   7.141   1.552   0.145 -0.4285  0.1933 -0.1084
15847SOL    HW158760   7.180   1.564   0.236  2.2586 -0.5978 -1.1123
15847SOL    HW258761   7.043   1.536   0.153 -0.0914 -0.7889  2.7087
15848SOL     OW58762   2.545   5.654   1.582  0.1165  0.0144  0.3664
15848SOL    HW158763   2.463   5.633   1.530 -1.0572  3.4842  0.7282
15848SOL    HW258764   2.623   5.663   1.520 -0.3362 -0.4754 -0.2725
15849SOL     OW58765   2.822   1.900   5.264 -0.4787  0.1810  0.1386
15849SOL    HW158766   2.921   1.908   5.252 -0.5856 -1.6962 -2.3313
15849SOL    HW258767   2.796   1.941   5.351  2.3751  1.3331  0.5028
15850SOL     OW58768   0.407   2.220   0.191 -0.6433  0.4304 -0.5836
15850SOL    HW158769   0.391   2.173   0.104 -1.6984 -0.3059 -0.0087
15850SOL    HW258770   0.325   2.272   0.215 -0.8970 -0.5304  0.6772
15851SOL     OW58771   8.605   3.515   1.907  0.2956  0.4136  0.4707
15851SOL    HW158772   8.667   3.449   1.865  0.1360  0.4800  0.1301
15851SOL    HW258773   8.568   3.477   1.992  1.8859  0.9057  1.4228
15852SOL     OW58774   0.959   6.300   6.559  0.4141  0.1666 -0.2262
15852SOL    HW158775   1.011   6.344   6.632  1.5804  0.6863 -1.3690
15852SOL    HW258776   0.886   6.245   6.600  0.5154  1.1285  1.3045
15853SOL     OW58777   3.766   3.472   4.705  0.2340 -0.2552  0.1405
15853SOL    HW158778   3.794   3.480   4.801  1.0489  0.1980 -0.1267
15853SOL    HW258779   3.844   3.495   4.646 -0.0526 -1.2375 -0.6299
15854SOL     OW58780   2.866   1.121   0.438 -0.7980 -0.1088  0.6337
15854SOL    HW158781   2.923   1.046   0.472 -1.2079 -0.8555 -0.2973
15854SOL    HW258782   2.778   1.120   0.485 -0.3434  0.5426  1.4937
15855SOL     OW58783   4.343   4.940   1.112  0.3433 -0.3405 -0.5495
15855SOL    HW158784   4.389   4.960   1.026 -0.4069 -0.4253 -0.9772
15855SOL    HW258785   4.265   4.879   1.095 -1.7718  2.2072 -0.3164
15856SOL     OW58786   9.045   5.854   6.382 -0.3401 -0.1683 -0.3831
15856SOL    HW158787   9.066   5.942   6.424  1.6907 -1.1997  0.8267
15856SOL    HW258788   8.967   5.865   6.320 -0.1127  2.4628 -0.2736
15857SOL     OW58789   7.689   3.861   1.593  0.1111 -0.4887 -0.8452
15857SOL    HW158790   7.650   3.777   1.630 -0.1504 -0.6440 -1.4666
15857SOL    HW258791   7.789   3.856   1.596  0.0901 -0.4953 -0.1562
15858SOL     OW58792   9.044   9.588   2.148  0.1557 -0.4152 -0.5001
15858SOL    HW158793   8.979   9.515   2.170  0.1820 -0.1110  0.6482
15858SOL    HW258794   9.105   9.558   2.075 -1.2313 -0.7288 -1.5393
15859SOL     OW58795   2.681   5.121   0.269 -0.3737  0.0472  0.0144
15859SOL    HW158796   2.719   5.104   0.178 -0.7933  1.6661 -0.4784
15859SOL    HW258797   2.730   5.066   0.336  0.3443 -0.7053 -1.1020
15860SOL     OW58798   9.446   6.726   1.347  0.7072 -0.3927  0.3401
15860SOL    HW158799   9.509   6.687   1.414  1.0501  0.3707  0.4689
15860SOL    HW258800   9.352   6.703   1.372  0.9074 -1.1365  0.4089
15861SOL     OW58801   5.062   1.847   3.638 -0.0212 -0.5788 -0.0240
15861SOL    HW158802   4.966   1.869   3.658 -0.0004  0.0826 -0.6248
15861SOL    HW258803   5.107   1.816   3.721 -0.8074 -1.0615  0.2269
15862SOL     OW58804   6.046   8.294   4.497  0.4381  0.0715  0.0792
15862SOL    HW158805   5.989   8.236   4.438 -0.2304  1.7466 -0.9386
15862SOL    HW258806   6.141   8.289   4.465 -0.2419  2.6173 -2.5220
15863SOL     OW58807   0.432   8.808   5.994  0.2308  0.0077 -0.1964
15863SOL    HW158808   0.529   8.796   6.015 -0.0326 -0.6442  0.6926
15863SOL    HW258809   0.413   8.774   5.901  0.6707 -0.8012  0.0039
15864SOL     OW58810   5.594   8.270   5.300  0.5797  0.5420  0.2500
15864SOL    HW158811   5.504   8.228   5.307  1.1980 -0.6814  1.2186
15864SOL    HW258812   5.585   8.365   5.270 -1.0384  0.5103  0.5978
15865SOL     OW58813   0.189   8.937   5.731 -0.0971  0.3117  0.4869
15865SOL    HW158814   0.266   8.981   5.686  1.4253 -1.3049  1.4504
15865SOL    HW258815   0.151   8.999   5.800 -0.4247  1.5583 -0.7872
15866SOL     OW58816   8.664   4.279   1.489 -0.3637 -0.6316 -0.2291
15866SOL    HW158817   8.720   4.289   1.407  0.0091 -1.2030 -0.0505
15866SOL    HW258818   8.592   4.348   1.489  0.2414  0.0030 -0.5431
15867SOL     OW58819   2.079   5.193   0.113 -0.4885 -0.5421 -0.4942
15867SOL    HW158820   2.165   5.206   0.063  0.7842 -1.0404  1.5010
15867SOL    HW258821   2.016   5.138   0.058  0.2268  0.3334 -2.2298
15868SOL     OW58822   3.552   9.070   6.647  0.0355  0.0674 -0.2576
15868SOL    HW158823   3.547   9.016   6.563  1.6796 -1.4800  0.6076
15868SOL    HW258824   3.478   9.045   6.708 -0.3469  0.1969 -0.6658
15869SOL     OW58825   1.327   9.800   2.203 -0.5793 -0.2418  0.1310
15869SOL    HW158826   1.246   9.744   2.220 -1.5343  0.5493 -1.6612
15869SOL    HW258827   1.354   9.790   2.107 -0.0107  1.3665  0.1190
15870SOL     OW58828   9.999   4.364   2.950 -0.1605 -0.1521 -0.2023
15870SOL    HW158829   9.965   4.332   3.038  1.7303 -0.4495  0.4348
15870SOL    HW258830  10.003   4.288   2.886  2.1505 -0.7515  0.6275
15871SOL     OW58831   5.103   0.965   0.002 -0.1593 -0.0643 -0.7303
15871SOL    HW158832   5.117   1.038  -0.065  0.4329 -0.0267 -0.5684
15871SOL    HW258833   5.115   1.001   0.094  1.7691 -0.7179 -0.7104
15872SOL     OW58834   0.523   0.629   2.555 -0.2132  0.1209  0.0505
15872SOL    HW158835   0.454   0.629   2.482  0.1692  1.3912 -0.3192
15872SOL    HW258836   0.494   0.566   2.628 -0.4125 -1.4464 -1.3462
15873SOL     OW58837   7.635   0.264   1.560  0.1327 -0.3017 -0.8031
15873SOL    HW158838   7.582   0.343   1.530 -2.1402 -1.5309 -0.1253
15873SOL    HW258839   7.725   0.295   1.590 -1.3772  2.3429  1.3381
15874SOL     OW58840   9.257   2.528   1.984 -0.2190 -0.1755  0.0815
15874SOL    HW158841   9.340   2.476   1.969 -0.1074 -0.4569  1.6154
15874SOL    HW258842   9.202   2.485   2.055 -1.4530  0.2811 -0.5619
15875SOL     OW58843   9.910   1.926   4.961 -0.0541 -0.2892 -0.1012
15875SOL    HW158844   9.926   2.023   4.941 -0.3539 -0.3485 -0.6433
15875SOL    HW258845   9.928   1.872   4.879 -1.3001 -0.5377 -0.2162
15876SOL     OW58846   8.669   0.457   2.919  0.4109 -0.2173 -0.0340
15876SOL    HW158847   8.675   0.440   3.017 -0.7575 -1.3836 -0.1410
15876SOL    HW258848   8.710   0.545   2.898 -0.5807  0.6974  1.7086
15877SOL     OW58849   7.885   1.189   0.766 -0.5925 -0.5778  0.3336
15877SOL    HW158850   7.825   1.129   0.820 -2.8502  0.8211 -0.5542
15877SOL    HW258851   7.843   1.207   0.677  1.3911  0.0792 -0.4952
15878SOL     OW58852   2.963   5.184   3.731  0.0156 -0.0705  0.6915
15878SOL    HW158853   2.938   5.281   3.729 -0.7408 -0.2559  0.7209
15878SOL    HW258854   2.966   5.148   3.638  1.0574  0.1684  0.6358
15879SOL     OW58855   3.401   4.897   3.844 -0.5108  0.2905 -0.0118
15879SOL    HW158856   3.332   4.825   3.833  0.0985 -0.3069  0.0069
15879SOL    HW258857   3.444   4.916   3.755  0.4999 -0.5725  0.2729
15880SOL     OW58858   3.793   3.617   5.519 -0.0278  0.4751  1.0675
15880SOL    HW158859   3.850   3.659   5.590  0.2593  0.3011  0.9409
15880SOL    HW258860   3.705   3.663   5.515  0.5399  1.5166  0.4568
15881SOL     OW58861   7.797   2.838   2.276 -0.4860 -0.3926  0.5914
15881SOL    HW158862   7.734   2.832   2.353  0.0503  0.3876  1.0919
15881SOL    HW258863   7.751   2.883   2.199 -0.4431  0.4576  1.0621
15882SOL     OW58864   0.007   7.015   2.692  1.0255  0.2223  0.2076
15882SOL    HW158865  -0.032   7.045   2.779 -4.1977 -1.7436 -1.2926
15882SOL    HW258866   0.045   7.094   2.643 -2.6298  2.6380  1.0965
15883SOL     OW58867   8.833   7.717   2.267  0.2983  0.6228 -0.2789
15883SOL    HW158868   8.909   7.651   2.268 -0.5776 -0.4236 -1.7507
15883SOL    HW258869   8.870   7.810   2.276  1.5629 -0.0120  1.5961
15884SOL     OW58870   2.764   1.808   0.490 -0.3571 -0.1175  0.3297
15884SOL    HW158871   2.801   1.857   0.569 -1.6487  0.4178  0.6202
15884SOL    HW258872   2.711   1.872   0.433  1.3207 -0.2765 -1.4887
15885SOL     OW58873   9.068   6.828   2.689 -0.2025  0.6473  0.3522
15885SOL    HW158874   9.002   6.801   2.760  0.9997  1.0560  1.6625
15885SOL    HW258875   9.155   6.783   2.706  0.1722  0.9609 -0.7271
15886SOL     OW58876   2.482   4.367   3.744  0.4313  0.1284 -0.3375
15886SOL    HW158877   2.427   4.303   3.690  0.3467  0.0102 -0.1139
15886SOL    HW258878   2.421   4.421   3.803  0.5262  0.2312 -0.3337
15887SOL     OW58879   9.369   2.864   1.388  0.3129  0.6967  0.1859
15887SOL    HW158880   9.320   2.918   1.320 -0.0048  0.3710  0.1521
15887SOL    HW258881   9.313   2.785   1.414  0.3516  0.9211  0.9669
15888SOL     OW58882   0.865   9.596   4.200 -0.2400 -0.3618  0.1489
15888SOL    HW158883   0.912   9.676   4.238 -0.6981  0.3297 -0.7224
15888SOL    HW258884   0.772   9.621   4.175 -0.8282 -1.5192  1.1084
15889SOL     OW58885   1.704   9.732   5.116 -0.1633  0.1912 -0.2487
15889SOL    HW158886   1.801   9.725   5.142 -0.0850 -0.3420 -0.6762
15889SOL    HW258887   1.655   9.652   5.149 -0.0800 -0.4585 -1.6541
15890SOL     OW58888   4.055   6.696   0.974 -0.3017  0.5333 -0.2673
15890SOL    HW158889   4.068   6.791   0.945 -0.5154 -0.1402 -2.7437
15890SOL    HW258890   4.143   6.657   1.002 -0.1420  1.3296  0.3588
15891SOL     OW58891   4.805   1.586   5.129  0.3423  0.0725 -0.0603
15891SOL    HW158892   4.781   1.540   5.044  1.2208 -0.6059  0.0523
15891SOL    HW258893   4.904   1.579   5.144  0.3604  1.1960  0.4196
15892SOL     OW58894   4.634   8.539   1.236 -0.7980  0.3974  0.4126
15892SOL    HW158895   4.552   8.562   1.288 -1.2988 -0.3234 -0.0271
15892SOL    HW258896   4.704   8.503   1.297 -0.3997  2.0568  0.9414
15893SOL     OW58897   9.371   4.191   6.203 -0.1723  0.3164  0.0331
15893SOL    HW158898   9.319   4.181   6.118 -0.9517  2.5644  0.2168
15893SOL    HW258899   9.384   4.101   6.245 -0.7713 -0.6840 -1.8692
15894SOL     OW58900   6.819   1.178   5.207  0.3706  0.3260 -0.1439
15894SOL    HW158901   6.786   1.252   5.265 -0.1710 -0.0004 -0.0342
15894SOL    HW258902   6.869   1.216   5.129  0.0551  0.8069 -0.1102
15895SOL     OW58903   2.649   3.881   2.515 -0.6656  0.3605  0.4678
15895SOL    HW158904   2.586   3.887   2.592 -0.3504  1.4180  0.6541
15895SOL    HW258905   2.665   3.785   2.492 -0.2301 -0.0002  2.1756
15896SOL     OW58906   1.173   2.184   2.233  0.2613  0.2659  0.2550
15896SOL    HW158907   1.094   2.245   2.240 -0.0817 -0.0857 -0.4685
15896SOL    HW258908   1.180   2.128   2.316 -0.7636 -0.3041 -0.0271
15897SOL     OW58909   7.740   6.274   5.389  0.2187  0.1354  0.1662
15897SOL    HW158910   7.826   6.317   5.418 -1.0271  0.8785  2.8483
15897SOL    HW258911   7.729   6.187   5.437 -0.1700 -0.3428 -0.7791
15898SOL     OW58912   3.102   5.295   3.039  1.0517 -0.1213  0.1454
15898SOL    HW158913   3.059   5.205   3.035 -1.1294  0.8948  0.1140
15898SOL    HW258914   3.116   5.321   3.135 -1.7603  1.0792  0.2614
15899SOL     OW58915   6.552   0.239   2.776 -0.2273  0.6629 -0.3669
15899SOL    HW158916   6.637   0.266   2.820  0.0507  0.7914 -0.9852
15899SOL    HW258917   6.522   0.150   2.812  0.7523  0.0862 -0.9561
15900SOL     OW58918   9.289   4.239   1.104  0.0300  0.4755  0.1958
15900SOL    HW158919   9.314   4.302   1.178  0.2887 -1.9535  2.2234
15900SOL    HW258920   9.351   4.161   1.104 -0.9652 -0.3387 -1.5762
15901SOL     OW58921   3.827   4.075   3.948  0.2050 -0.5029 -0.2197
15901SOL    HW158922   3.855   4.151   4.006  1.1863 -0.7693 -0.3370
15901SOL    HW258923   3.795   4.110   3.860  0.1169 -0.1903 -0.0637
15902SOL     OW58924   7.316   3.246   6.213  0.7444 -0.1083 -0.3318
15902SOL    HW158925   7.268   3.181   6.272  0.3828 -0.8367 -1.4291
15902SOL    HW258926   7.254   3.320   6.186  0.7864 -0.0193 -0.1902
15903SOL     OW58927   2.742   8.894   1.602  0.9660  0.2857  0.3880
15903SOL    HW158928   2.693   8.910   1.516 -0.0039 -0.2279  0.8464
15903SOL    HW258929   2.708   8.956   1.672  2.2481  1.1915  0.2276
15904SOL     OW58930   1.343   0.594   2.712  0.1054 -0.4324  0.4514
15904SOL    HW158931   1.291   0.602   2.797  1.6783 -0.0279  1.4111
15904SOL    HW258932   1.440   0.582   2.734  0.6790  0.8357 -1.3100
15905SOL     OW58933   2.221   4.507   0.349 -0.2480 -0.3533 -0.0818
15905SOL    HW158934   2.134   4.494   0.303 -0.9973  1.9408  0.6407
15905SOL    HW258935   2.206   4.543   0.441  1.3837 -1.6356  0.7182
15906SOL     OW58936   8.672   0.851   3.491 -0.2752  0.1764 -0.2624
15906SOL    HW158937   8.654   0.795   3.410  0.5669 -0.2058 -0.1977
15906SOL    HW258938   8.673   0.947   3.465  3.2471 -0.0853 -1.4061
15907SOL     OW58939   8.325   9.497   0.053 -0.1862  0.7609 -0.5578
15907SOL    HW158940   8.321   9.462   0.146  0.3352  1.8444 -0.1268
15907SOL    HW258941   8.399   9.452   0.003  0.9025  1.7023  0.1886
15908SOL     OW58942   8.043   1.445   3.498  0.2019  0.2679  0.1501
15908SOL    HW158943   7.967   1.383   3.478  0.6456  0.0390 -0.8456
15908SOL    HW258944   8.097   1.459   3.416  1.2647  0.3900  0.8616
15909SOL     OW58945   0.260   4.983   2.768  0.6692 -0.0667  0.0757
15909SOL    HW158946   0.338   5.039   2.795  0.2484  0.4136  0.2932
15909SOL    HW258947   0.266   4.893   2.813  0.2291  0.5559  1.3966
15910SOL     OW58948   8.078   7.339   5.180 -0.1918 -0.0273 -0.1694
15910SOL    HW158949   8.121   7.415   5.230 -0.7233  0.2539 -0.1355
15910SOL    HW258950   8.047   7.270   5.246 -0.5052  0.1419 -0.1381
15911SOL     OW58951   1.238   0.714   0.265  0.5548  0.3334  0.3755
15911SOL    HW158952   1.326   0.678   0.234  0.1214 -1.0289  0.6814
15911SOL    HW258953   1.237   0.719   0.365  1.1888  2.7361  0.2910
15912SOL     OW58954   1.826   2.203   1.570 -0.7100 -0.5245 -0.2771
15912SOL    HW158955   1.834   2.278   1.636 -0.3915  0.0286 -0.9302
15912SOL    HW258956   1.870   2.121   1.606  0.4005  0.0797 -0.2497
15913SOL     OW58957   0.666   8.899   0.088  0.1970  0.4297 -0.2282
15913SOL    HW158958   0.671   8.945   0.176 -0.5733  1.6971 -0.8343
15913SOL    HW258959   0.705   8.958   0.017 -1.4823  0.4836 -1.1354
15914SOL     OW58960   9.339   6.017   1.689 -0.0207 -0.3703 -0.3033
15914SOL    HW158961   9.416   5.995   1.748 -0.1839 -0.2415 -0.0435
15914SOL    HW258962   9.361   6.096   1.633 -0.3583  0.3143  0.5228
15915SOL     OW58963   2.559   2.083   4.014 -0.3477  0.2013 -0.2501
15915SOL    HW158964   2.514   2.099   3.927 -0.0043  1.5418 -0.1951
15915SOL    HW258965   2.628   2.011   4.004  0.2529  0.9191 -1.2738
15916SOL     OW58966   6.984   8.013   2.254 -0.2361  0.0536  0.1513
15916SOL    HW158967   6.936   7.927   2.270  0.5141 -0.2249  0.9818
15916SOL    HW258968   6.919   8.084   2.228 -0.8774 -0.7286 -0.3885
15917SOL     OW58969   0.748   5.835   4.165 -0.8772 -0.1595  0.2521
15917SOL    HW158970   0.770   5.751   4.214 -1.2600 -1.0683 -1.0806
15917SOL    HW258971   0.705   5.901   4.227 -2.4007 -1.7130  0.8900
15918SOL     OW58972   4.740   0.222   5.962 -0.4228 -0.2138 -0.0288
15918SOL    HW158973   4.828   0.182   5.934  0.6410  2.9494 -1.3457
15918SOL    HW258974   4.666   0.173   5.917  0.6865 -2.1964  0.2093
15919SOL     OW58975   1.857   9.400   1.662 -0.4047 -0.6690 -0.2124
15919SOL    HW158976   1.797   9.349   1.600 -1.4954  0.9176 -0.5040
15919SOL    HW258977   1.840   9.370   1.756 -0.2358 -1.6223 -0.4777
15920SOL     OW58978   0.533   0.109   1.971  0.5155 -0.1370  0.0286
15920SOL    HW158979   0.548   0.150   1.881  1.8099 -1.5040 -0.4008
15920SOL    HW258980   0.562   0.013   1.969 -0.7238 -0.5562  1.5248
15921SOL     OW58981   2.594   6.653   0.153  0.4097 -0.0416 -0.6727
15921SOL    HW158982   2.547   6.597   0.085 -0.8171  0.6281 -0.3991
15921SOL    HW258983   2.568   6.749   0.140  1.3093  0.2761 -0.1802
15922SOL     OW58984   7.981   2.679   2.880 -0.1745 -0.1438  0.4411
15922SOL    HW158985   8.070   2.671   2.837 -1.1035  0.1555 -1.5951
15922SOL    HW258986   7.948   2.587   2.904 -0.2336 -0.4534 -0.7603
15923SOL     OW58987   0.458   6.233   5.294  0.0698 -0.1103  0.7414
15923SOL    HW158988   0.548   6.275   5.284 -0.6536  1.3889  0.2296
15923SOL    HW258989   0.440   6.174   5.215  0.2473  0.3116  0.3796
15924SOL     OW58990   9.037   2.323   4.377  0.5180  0.5295 -0.0661
15924SOL    HW158991   9.064   2.417   4.355 -0.6156  0.5692 -1.4047
15924SOL    HW258992   8.986   2.285   4.300  0.1519 -0.8641  0.8548
15925SOL     OW58993   0.273   3.299   6.647 -0.7476  0.0633  0.4123
15925SOL    HW158994   0.364   3.325   6.617 -0.5185  0.8380  1.7108
15925SOL    HW258995   0.266   3.314   6.746 -2.1000 -0.5140  0.4081
15926SOL     OW58996   1.538   1.183   0.459  0.7127 -0.5993  0.7563
15926SOL    HW158997   1.477   1.262   0.465  1.5590  0.0951  0.2036
15926SOL    HW258998   1.496   1.114   0.399  0.1406 -0.4226  0.9485
15927SOL     OW58999   2.209   2.831   4.908  0.0558  1.1717 -0.3108
15927SOL    HW159000   2.118   2.788   4.913  0.2081  0.9395  0.5583
15927SOL    HW259001   2.211   2.912   4.967  1.0947 -0.1046  1.4545
15928SOL     OW59002   4.337   2.853   2.550 -0.6673  0.1293 -0.1289
15928SOL    HW159003   4.241   2.829   2.559 -0.2938 -1.0044  1.0039
15928SOL    HW259004   4.354   2.940   2.597 -1.3731  0.9695 -1.4045
15929SOL     OW59005   0.514   9.049   6.168  0.0732 -0.3221 -0.3051
15929SOL    HW159006   0.429   9.004   6.140 -1.3530  2.4049 -0.5876
15929SOL    HW259007   0.496   9.110   6.245  1.6656  0.5554 -0.5988
15930SOL     OW59008   4.943   0.059   6.044  0.1730 -0.2184 -0.5916
15930SOL    HW159009   4.992  -0.026   6.063 -0.1630 -0.2653  0.1042
15930SOL    HW259010   4.974   0.130   6.107 -0.7779 -0.3056 -0.0071
15931SOL     OW59011   0.055   7.804   0.839 -0.0021  0.3374 -0.2622
15931SOL    HW159012   0.016   7.712   0.832  0.8836 -0.2238  1.7791
15931SOL    HW259013  -0.019   7.870   0.856 -0.5233 -0.1337 -0.6569
15932SOL     OW59014   1.149   0.927   0.124  0.3665  0.2689  0.2027
15932SOL    HW159015   1.141   1.009   0.181  0.7596  0.0987  0.5033
15932SOL    HW259016   1.173   0.849   0.181  2.1403  0.3690 -0.3823
15933SOL     OW59017   2.338   9.651   0.227 -0.0435  0.2605  0.2898
15933SOL    HW159018   2.425   9.625   0.184 -0.3292 -0.9376  0.4094
15933SOL    HW259019   2.264   9.597   0.187 -0.5352  0.2862  1.1569
15934SOL     OW59020   2.059   9.174   3.003 -0.6016  0.4388 -0.6487
15934SOL    HW159021   1.963   9.186   3.030 -0.0626  2.0725  0.5865
15934SOL    HW259022   2.109   9.259   3.018  1.2613 -0.6697 -0.4164
15935SOL     OW59023   2.716   5.314   2.656 -0.0135 -0.1531  0.0594
15935SOL    HW159024   2.629   5.361   2.640 -0.1355  0.0164  1.2053
15935SOL    HW259025   2.791   5.380   2.655 -0.1468  0.0108  1.3311
15936SOL     OW59026   9.302   6.215   3.737  0.7571  0.1398 -0.4622
15936SOL    HW159027   9.212   6.247   3.710  0.7108  0.2426 -0.1897
15936SOL    HW259028   9.294   6.156   3.817  0.9540  0.3480 -0.2869
15937SOL     OW59029   7.177   2.709   5.025  0.5226 -0.1600 -0.7750
15937SOL    HW159030   7.225   2.793   5.050  0.8286 -0.8180  0.9331
15937SOL    HW259031   7.126   2.675   5.104  1.8317 -2.5414 -0.8908
15938SOL     OW59032   8.770   9.502   3.643  0.2344  0.0383 -0.0683
15938SOL    HW159033   8.846   9.528   3.584  0.4908 -0.1467  0.1764
15938SOL    HW259034   8.756   9.403   3.638 -0.9094  0.2387 -1.2055
15939SOL     OW59035   2.455   9.042   6.107  0.1680  0.1384 -0.0843
15939SOL    HW159036   2.419   8.962   6.059 -0.8501 -0.9628  2.3949
15939SOL    HW259037   2.534   9.015   6.162  0.9808  1.2480 -0.6902
15940SOL     OW59038   3.143   9.411   1.381  0.0257  0.1681  0.0507
15940SOL    HW159039   3.045   9.404   1.361  0.5497 -2.8732 -1.6408
15940SOL    HW259040   3.157   9.398   1.480 -1.1148 -1.5594  0.0114
15941SOL     OW59041   3.222   7.066   6.409 -0.0026  0.2283 -0.3736
15941SOL    HW159042   3.162   7.123   6.465 -0.4354  0.4234 -1.0327
15941SOL    HW259043   3.240   6.980   6.457 -0.2984  0.4363  0.1106
15942SOL     OW59044   9.552   8.508   3.647  0.5168 -0.5733 -0.2397
15942SOL    HW159045   9.462   8.501   3.690 -0.0990 -0.4120 -1.4791
15942SOL    HW259046   9.623   8.482   3.713 -0.4524 -0.9746  0.6543
15943SOL     OW59047   3.881   9.240   2.086  0.3841  0.0155 -0.5118
15943SOL    HW159048   3.816   9.296   2.137 -1.3764  0.8290 -3.5288
15943SOL    HW259049   3.974   9.265   2.112 -0.4289  0.9517  1.6614
15944SOL     OW59050   9.279   6.080   5.752 -0.0490  0.3058 -0.0832
15944SOL    HW159051   9.350   6.147   5.771  0.3328  0.0285 -0.4893
15944SOL    HW259052   9.253   6.085   5.655 -0.5954  0.4200  0.0684
15945SOL     OW59053   4.837   2.455   2.673  0.3869 -0.4511 -0.2970
15945SOL    HW159054   4.816   2.359   2.654  2.5287 -1.0114  0.0281
15945SOL    HW259055   4.806   2.511   2.596  1.8920 -1.7694 -1.9244
15946SOL     OW59056   1.324   4.399   2.302  0.2320 -0.0404 -0.6375
15946SOL    HW159057   1.235   4.382   2.258  0.4500  0.4514 -1.2699
15946SOL    HW259058   1.396   4.359   2.246  0.3408 -1.2107  0.3262
15947SOL     OW59059   8.933   3.386   2.886  0.2453  0.1314  0.3457
15947SOL    HW159060   8.967   3.420   2.974 -0.1143  0.1307  0.4862
15947SOL    HW259061   8.907   3.463   2.828 -1.7561  0.0658  1.1409
15948SOL     OW59062   3.271   8.892   2.354 -0.2458 -0.3677  0.2004
15948SOL    HW159063   3.191   8.951   2.364 -2.6121 -3.5241  0.9952
15948SOL    HW259064   3.305   8.897   2.260  0.0039  2.6585  0.4296
15949SOL     OW59065   2.947   0.793   4.179  0.5699  0.2866 -0.1126
15949SOL    HW159066   2.878   0.821   4.113  0.2631 -1.0242 -0.3566
15949SOL    HW259067   3.008   0.871   4.198  1.2851  0.4201 -2.6835
15950SOL     OW59068   7.694   2.893   0.472  0.1333 -0.1019  0.1895
15950SOL    HW159069   7.630   2.851   0.535  3.0985 -1.3743  2.4826
15950SOL    HW259070   7.692   2.992   0.482 -1.5179 -0.1260  0.1450
15951SOL     OW59071   1.041   1.064   0.375 -0.3833 -0.0899  0.4826
15951SOL    HW159072   1.009   0.984   0.324 -0.7540  0.8726 -0.8350
15951SOL    HW259073   0.985   1.076   0.456  0.2220 -1.6623  1.1554
15952SOL     OW59074   8.369   5.680   3.696  0.0134 -0.4269 -0.5289
15952SOL    HW159075   8.458   5.657   3.657 -0.3031 -0.7052 -1.1013
15952SOL    HW259076   8.304   5.606   3.676 -0.0198 -0.8344  0.9933
15953SOL     OW59077   3.943   8.107   5.423  0.5681  0.3085  0.1374
15953SOL    HW159078   3.901   8.091   5.334 -2.0344  1.1052  1.1628
15953SOL    HW259079   3.920   8.031   5.485  0.5610  0.7803  0.7256
15954SOL     OW59080   2.918   7.829   6.584 -0.0487  0.0285 -0.1889
15954SOL    HW159081   3.009   7.825   6.542 -0.6186 -2.5422 -1.2202
15954SOL    HW259082   2.919   7.778   6.670 -0.5124  0.0472 -0.1729
15955SOL     OW59083   0.617   7.012   4.747 -0.5478  0.2278  0.2151
15955SOL    HW159084   0.674   7.087   4.713 -2.5432  0.8431 -1.9488
15955SOL    HW259085   0.536   7.050   4.792 -0.1888 -0.6359  1.6102
15956SOL     OW59086   2.931   7.140   5.309 -0.3174  0.1239 -0.0593
15956SOL    HW159087   2.995   7.122   5.233  0.5884  0.6562  0.5698
15956SOL    HW259088   2.974   7.201   5.375 -0.1203 -2.3474  2.1957
15957SOL     OW59089   0.697   6.164   6.484  0.0951 -0.1772 -0.1005
15957SOL    HW159090   0.753   6.086   6.455  1.8835  0.9833  0.1350
15957SOL    HW259091   0.704   6.174   6.584  1.5275  1.4764 -0.3357
15958SOL     OW59092   2.594   8.317   1.696 -0.4839 -1.0260  0.4131
15958SOL    HW159093   2.522   8.373   1.655  0.3889 -0.4413 -0.3393
15958SOL    HW259094   2.674   8.374   1.715  0.1156 -1.8496  0.3869
15959SOL     OW59095   4.713   1.702   1.197 -0.2486  0.7360 -0.4241
15959SOL    HW159096   4.730   1.727   1.292  0.3219  1.2994 -0.6716
15959SOL    HW259097   4.751   1.611   1.178 -1.1278  0.2555  0.1166
15960SOL     OW59098   4.277   6.136   1.868  0.1031 -0.2796 -0.7830
15960SOL    HW159099   4.183   6.117   1.838  0.2812  0.8129 -2.0670
15960SOL    HW259100   4.276   6.198   1.946 -0.2395 -0.2182 -0.8370
15961SOL     OW59101   8.845   5.927   3.445  0.5410  0.4512 -0.1146
15961SOL    HW159102   8.875   5.971   3.530 -0.2241  1.0201 -0.1374
15961SOL    HW259103   8.908   5.952   3.371  1.0944  0.1145  0.2304
15962SOL     OW59104   2.003   7.192   4.276 -0.1397  0.0798 -0.6980
15962SOL    HW159105   2.097   7.224   4.268 -0.7497  1.7986 -1.1367
15962SOL    HW259106   1.981   7.176   4.372 -0.2985  2.4606 -0.3120
15963SOL     OW59107   3.897   1.962   2.762  0.3882 -0.4830 -0.3881
15963SOL    HW159108   3.837   1.994   2.835  1.6238  1.8250 -0.3152
15963SOL    HW259109   3.931   2.041   2.711  2.0504 -1.8613 -1.4560
15964SOL     OW59110   0.146   9.644   2.584 -0.2527 -0.6375 -0.4138
15964SOL    HW159111   0.245   9.644   2.594 -0.5237  0.2485  2.6557
15964SOL    HW259112   0.118   9.725   2.533  0.4423  0.3556  0.7602
15965SOL     OW59113   1.407   8.516   2.042 -0.3303  0.1909 -0.0235
15965SOL    HW159114   1.462   8.433   2.055  0.1378  0.0605 -2.5523
15965SOL    HW259115   1.310   8.492   2.047 -0.2297 -0.8578 -2.3999
15966SOL     OW59116   9.052   4.550   4.769 -0.5273 -0.0263 -0.0252
15966SOL    HW159117   9.030   4.501   4.853  0.7034 -1.4403 -0.4854
15966SOL    HW259118   9.045   4.648   4.784  0.3707 -0.2304  1.9489
15967SOL     OW59119   9.281   7.719   5.543 -0.5789  0.1703  0.6064
15967SOL    HW159120   9.328   7.644   5.495 -0.1352  1.2579 -0.6829
15967SOL    HW259121   9.197   7.741   5.494 -1.0899  0.0240  1.4110
15968SOL     OW59122   1.684   3.835   4.930 -0.5229 -0.8495  0.0246
15968SOL    HW159123   1.684   3.837   4.830  1.2084  0.2946  0.0194
15968SOL    HW259124   1.619   3.902   4.965 -0.5610 -0.6843 -0.3555
15969SOL     OW59125   6.972   8.156   5.421 -0.0663  0.5166 -0.1081
15969SOL    HW159126   6.998   8.067   5.457  0.6491  1.1783  1.0519
15969SOL    HW259127   6.875   8.156   5.399 -0.4247 -0.0551  1.3976
15970SOL     OW59128   0.546   6.133   1.488 -0.9169 -0.0821  0.4059
15970SOL    HW159129   0.484   6.212   1.488 -2.3788 -1.2017  0.9473
15970SOL    HW259130   0.508   6.061   1.546  1.3695 -0.4570  1.4712
15971SOL     OW59131   3.723   1.683   2.263 -0.0699 -0.0089 -0.3017
15971SOL    HW159132   3.681   1.758   2.315  1.8504  1.6010 -1.0019
15971SOL    HW259133   3.771   1.622   2.326  0.8797  1.0329  0.0184
15972SOL     OW59134   2.789   0.502   6.507 -0.4393 -0.2205  0.1636
15972SOL    HW159135   2.738   0.582   6.538  1.6789  1.9639 -1.7629
15972SOL    HW259136   2.781   0.493   6.408 -1.0277 -2.7155  0.3853
15973SOL     OW59137   0.034   7.478   0.564  0.0720 -0.0314  0.1148
15973SOL    HW159138   0.122   7.432   0.560  0.4467  0.5062  1.6106
15973SOL    HW259139   0.010   7.497   0.660 -1.2057  0.6929 -0.3224
15974SOL     OW59140   0.185   8.554   5.569  0.4239 -0.2272 -0.2356
15974SOL    HW159141   0.207   8.589   5.478  0.1636 -0.2113 -0.2908
15974SOL    HW259142   0.171   8.455   5.564  0.0554 -0.1723 -0.2746
15975SOL     OW59143   1.462   2.363   1.972 -0.1000 -0.0040 -0.1621
15975SOL    HW159144   1.392   2.378   1.902  0.6195 -0.8745 -1.0977
15975SOL    HW259145   1.423   2.375   2.063 -1.2982  0.1545 -0.6971
15976SOL     OW59146   5.736   0.893   1.800  0.1555  0.1948  0.0376
15976SOL    HW159147   5.812   0.931   1.852 -0.2849  1.7649 -0.4590
15976SOL    HW259148   5.655   0.950   1.812 -1.4471 -2.3403  1.9056
15977SOL     OW59149   8.466   8.897   1.879 -0.1541  0.0638 -0.6390
15977SOL    HW159150   8.425   8.898   1.787  2.1986 -3.1958 -1.8202
15977SOL    HW259151   8.552   8.948   1.877 -0.2956  0.3172 -0.1431
15978SOL     OW59152   0.873   8.161   0.313  0.1765  0.4082  0.0459
15978SOL    HW159153   0.894   8.197   0.403  1.7993  0.4194 -0.3239
15978SOL    HW259154   0.937   8.197   0.246 -1.7468  1.3440 -1.3511
15979SOL     OW59155   2.605   6.068   2.802  0.2667 -0.2824  0.2019
15979SOL    HW159156   2.645   6.155   2.772 -0.6404  0.4014  0.9475
15979SOL    HW259157   2.508   6.081   2.823 -0.0107 -1.6030 -0.1997
15980SOL     OW59158   5.746   5.433   1.077  0.2295 -0.2412 -0.1485
15980SOL    HW159159   5.770   5.528   1.098 -0.4894  0.5819 -2.8974
15980SOL    HW259160   5.813   5.395   1.014 -1.4791 -0.3293 -1.9707
15981SOL     OW59161   1.813   1.345   3.473  0.1901 -0.3706 -0.0143
15981SOL    HW159162   1.908   1.325   3.450 -0.1108 -1.0840 -0.6569
15981SOL    HW259163   1.788   1.434   3.436  0.2172 -0.7653 -1.0010
15982SOL     OW59164   3.404   0.641   5.715  0.2737 -0.2971  0.6306
15982SOL    HW159165   3.456   0.681   5.640  1.3409 -0.8771  1.0452
15982SOL    HW259166   3.464   0.631   5.795 -1.2835  2.0073  2.1611
15983SOL     OW59167   3.568   2.259   6.231 -0.2166  0.3026 -0.1049
15983SOL    HW159168   3.543   2.229   6.139 -2.0257  0.9788  0.1593
15983SOL    HW259169   3.633   2.335   6.224  0.6082 -0.4348 -0.7896
15984SOL     OW59170   9.884   1.008   1.563  0.3886 -0.1197  0.0933
15984SOL    HW159171   9.978   1.000   1.596  0.6487 -0.5984 -0.7464
15984SOL    HW259172   9.885   1.037   1.467 -0.3149 -0.3086  0.0263
15985SOL     OW59173   1.321   3.724   2.447  0.2153  0.2338 -0.0457
15985SOL    HW159174   1.389   3.689   2.383 -1.5993  0.1241 -1.9689
15985SOL    HW259175   1.240   3.666   2.444 -1.3250  2.3526 -0.4066
15986SOL     OW59176   9.902   4.515   1.801 -0.2937 -0.0408 -0.4647
15986SOL    HW159177   9.943   4.606   1.791  0.4309 -0.1989  0.7923
15986SOL    HW259178   9.974   4.446   1.795 -0.0403 -0.2389  3.4472
15987SOL     OW59179   9.166   1.727   5.748  0.0317  0.6200  0.2928
15987SOL    HW159180   9.068   1.718   5.766  0.0705 -0.2826  0.0358
15987SOL    HW259181   9.181   1.743   5.651  0.1671  0.4094  0.2800
15988SOL     OW59182   4.629   4.002   0.474  0.0347 -0.2677  0.4125
15988SOL    HW159183   4.697   3.949   0.525  0.2116 -0.9613 -0.5443
15988SOL    HW259184   4.666   4.026   0.385 -1.8498 -2.6983 -1.0723
15989SOL     OW59185   3.713   5.537   4.904  0.0984  0.1707  0.1939
15989SOL    HW159186   3.671   5.605   4.843 -1.0372 -0.4835  0.2331
15989SOL    HW259187   3.775   5.479   4.850  0.4151  0.6874 -0.0031
15990SOL     OW59188   7.917   3.152   3.945 -0.2884  0.0700  0.4163
15990SOL    HW159189   8.014   3.149   3.919 -0.4574  0.0544 -0.2363
15990SOL    HW259190   7.881   3.244   3.927 -0.4218  0.0404  0.5335
15991SOL     OW59191   3.222   8.360   4.894  0.5651 -0.9478  0.5163
15991SOL    HW159192   3.196   8.290   4.961 -0.1565 -1.1799  0.0014
15991SOL    HW259193   3.239   8.317   4.805 -3.4819 -0.1511 -0.7755
15992SOL     OW59194   3.381   0.389   3.738 -0.8651  0.4355  0.2638
15992SOL    HW159195   3.375   0.348   3.646 -0.6462  0.5114  0.2169
15992SOL    HW259196   3.318   0.467   3.743  1.5471  2.5244 -0.9100
15993SOL     OW59197   1.843   7.543   5.459 -0.0002  0.2906 -0.2416
15993SOL    HW159198   1.828   7.454   5.417 -1.5167  0.1104  0.6240
15993SOL    HW259199   1.791   7.613   5.408 -0.9319  0.2482  0.6287
15994SOL     OW59200   8.272   4.913   1.961 -0.2892 -0.2918 -0.7057
15994SOL    HW159201   8.253   4.861   1.878 -0.0220 -1.5498  0.0123
15994SOL    HW259202   8.371   4.923   1.971 -0.3518  2.0189 -1.8351
15995SOL     OW59203   5.684   8.476   3.242 -0.0270  0.1830  0.9130
15995SOL    HW159204   5.748   8.513   3.310 -1.0860 -0.1050  2.0712
15995SOL    HW259205   5.731   8.469   3.154  2.4899 -2.8417  2.4146
15996SOL     OW59206   7.451   6.512   5.126 -0.4093 -0.6458 -0.4615
15996SOL    HW159207   7.385   6.508   5.201  1.0558  0.2102  0.8961
15996SOL    HW259208   7.517   6.437   5.135  2.1792  1.7640  1.4339
15997SOL     OW59209   3.515   3.557   0.778 -0.3137  0.0495  0.5296
15997SOL    HW159210   3.476   3.551   0.869  0.3259 -0.3114  0.7800
15997SOL    HW259211   3.483   3.641   0.734  1.0886  1.3104  1.8832
15998SOL     OW59212   7.536   1.957   4.092 -0.1962  0.2914  0.2389
15998SOL    HW159213   7.613   1.894   4.080  0.8716  1.1204  2.4280
15998SOL    HW259214   7.489   1.935   4.178 -0.6752  1.5964  0.3150
15999SOL     OW59215   2.120   9.537   2.528  0.1933  0.4803  0.4855
15999SOL    HW159216   2.087   9.522   2.435  2.5421  1.2974 -0.5164
15999SOL    HW259217   2.044   9.564   2.586 -1.8387 -2.7671 -0.5320
16000SOL     OW59218   0.221   8.979   6.120  0.0904  0.2484  0.5967
16000SOL    HW159219   0.236   8.891   6.075 -1.0252 -0.4402  1.5509
16000SOL    HW259220   0.162   9.036   6.062 -0.4313 -0.2116  0.6713
16001SOL     OW59221   0.946   5.318   4.316 -0.2709 -0.0519 -0.2211
16001SOL    HW159222   1.017   5.319   4.246  1.3635 -1.5114  1.3892
16001SOL    HW259223   0.958   5.396   4.377 -0.0012 -0.3494  0.1050
16002SOL     OW59224   4.116   5.471   1.452  0.1039 -0.5691 -0.0237
16002SOL    HW159225   4.179   5.394   1.459 -0.1029 -0.5847  1.7852
16002SOL    HW259226   4.144   5.543   1.516 -1.7395 -0.5949  0.8347
16003SOL     OW59227   0.643   2.355   1.818 -0.2206 -0.5374 -0.0956
16003SOL    HW159228   0.634   2.329   1.722 -0.9687 -1.2866  0.1704
16003SOL    HW259229   0.709   2.295   1.864  0.8263  0.3970 -0.3442
16004SOL     OW59230   2.059   9.592   4.317  0.1356  0.1916  0.0876
16004SOL    HW159231   2.015   9.618   4.231  0.8868 -2.8657 -1.2742
16004SOL    HW259232   1.994   9.602   4.392 -0.4603  3.1041 -0.7582
16005SOL     OW59233   8.467   6.599   3.426 -1.2633 -0.2890  0.2329
16005SOL    HW159234   8.406   6.521   3.439 -0.7623 -0.7034  0.1148
16005SOL    HW259235   8.562   6.569   3.434 -1.0783  0.3859  0.5930
16006SOL     OW59236   7.208   0.954   1.754 -0.2972 -0.0038  0.1820
16006SOL    HW159237   7.160   1.041   1.767  0.1477  0.4860 -1.3130
16006SOL    HW259238   7.304   0.972   1.735 -0.4617 -0.7440 -1.4217
16007SOL     OW59239   7.221   9.588   2.557  0.9246  0.4584 -0.3609
16007SOL    HW159240   7.273   9.521   2.611  0.1150  0.3857  0.3339
16007SOL    HW259241   7.128   9.554   2.544 -0.4611  2.9277  2.7547
16008SOL     OW59242   8.429   7.206   2.203  0.8650  0.0102  0.4768
16008SOL    HW159243   8.343   7.162   2.230 -0.1635  1.0846 -1.0166
16008SOL    HW259244   8.454   7.274   2.272 -0.4705  1.0022  0.0098
16009SOL     OW59245   5.264   9.592   2.955 -0.1342 -0.3775 -0.0348
16009SOL    HW159246   5.356   9.631   2.965 -0.3694  0.5531 -1.2438
16009SOL    HW259247   5.261   9.500   2.994  1.4864 -0.6693 -0.5747
16010SOL     OW59248   1.081   2.494   1.569  0.5114  0.2365  0.0804
16010SOL    HW159249   1.018   2.570   1.586  1.8277  1.3560  0.0971
16010SOL    HW259250   1.031   2.408   1.569 -0.9344  1.0627  0.5612
16011SOL     OW59251   7.165   7.973   4.154 -0.4174 -0.5971 -0.2664
16011SOL    HW159252   7.157   7.909   4.230 -1.0633  0.3174  0.4482
16011SOL    HW259253   7.078   7.977   4.104 -0.7690  0.6262  0.4291
16012SOL     OW59254   1.899   0.793   1.747  0.2544 -0.2132 -0.3908
16012SOL    HW159255   1.895   0.886   1.710 -3.0130  0.1179  0.6565
16012SOL    HW259256   1.839   0.734   1.694 -2.1424 -0.4110  2.4303
16013SOL     OW59257   2.201   6.024   5.334 -0.5221  0.1175 -0.0801
16013SOL    HW159258   2.231   6.099   5.274 -1.9019 -0.3074 -1.3270
16013SOL    HW259259   2.221   6.048   5.429  2.4389  0.4513 -0.7366
16014SOL     OW59260   4.085   0.027   1.882  0.4158 -0.4977 -0.0462
16014SOL    HW159261   4.137   0.099   1.929  1.4729 -1.7152  0.6862
16014SOL    HW259262   4.072   0.052   1.786  1.1479  0.4758  0.1042
16015SOL     OW59263   4.889   0.191   0.481  0.0391  0.3810 -0.0467
16015SOL    HW159264   4.875   0.096   0.511 -0.7634  0.1849 -1.0141
16015SOL    HW259265   4.889   0.251   0.561 -2.2838 -0.1151  0.3785
16016SOL     OW59266   1.927   1.586   0.576 -0.2697  0.1540 -0.4217
16016SOL    HW159267   1.871   1.523   0.630  1.3306 -0.2838  0.7780
16016SOL    HW259268   2.023   1.567   0.593  0.2417  1.9503 -1.2193
16017SOL     OW59269   8.063   8.080   4.021 -1.0493  0.5731 -0.0679
16017SOL    HW159270   8.110   7.996   3.996  0.4886  0.9229  1.5230
16017SOL    HW259271   7.999   8.062   4.096 -0.9692  0.7449  0.0430
16018SOL     OW59272   4.979   1.264   4.291 -0.0924  0.3027  0.1801
16018SOL    HW159273   4.928   1.262   4.377 -1.0797 -0.5042 -0.4103
16018SOL    HW259274   4.916   1.283   4.215  0.4889 -0.6656 -0.5537
16019SOL     OW59275   4.718   4.005   4.477  0.4723 -0.4457 -0.1393
16019SOL    HW159276   4.818   4.013   4.467  0.5246 -0.8157  0.0678
16019SOL    HW259277   4.698   3.938   4.549  0.0717 -0.6388 -0.4332
16020SOL     OW59278   9.111   0.681   2.687  0.2194 -0.2905  0.3781
16020SOL    HW159279   9.205   0.677   2.720  0.5109 -0.3031 -0.4441
16020SOL    HW259280   9.062   0.755   2.733  1.1744  0.9527 -0.5609
16021SOL     OW59281   0.068   2.970   0.780 -0.4602 -0.4549 -0.2407
16021SOL    HW159282   0.115   2.971   0.868 -1.2066  1.5235  0.1625
16021SOL    HW259283   0.067   3.062   0.741 -1.1749 -1.0811 -1.7734
16022SOL     OW59284   0.573   3.331   1.670  0.4331  0.4008 -0.3874
16022SOL    HW159285   0.535   3.338   1.762 -0.0620 -0.7770 -0.4869
16022SOL    HW259286   0.670   3.354   1.672  0.4444  0.2873  0.4552
16023SOL     OW59287   2.124   6.762   0.815 -0.1856  0.7624  0.3478
16023SOL    HW159288   2.155   6.669   0.796 -0.2523  0.5739  1.1577
16023SOL    HW259289   2.196   6.813   0.862 -0.1021  1.1639 -0.2066
16024SOL     OW59290   0.573   9.232   0.188  0.0303  0.2993 -0.5553
16024SOL    HW159291   0.665   9.191   0.191 -0.1909 -0.3689 -2.2716
16024SOL    HW259292   0.577   9.324   0.226  0.7274 -0.9389  2.5248
16025SOL     OW59293   5.434   9.579   4.229 -0.3533 -0.2967  0.0721
16025SOL    HW159294   5.475   9.573   4.137 -1.8767  1.7363 -0.7757
16025SOL    HW259295   5.416   9.487   4.263  1.5666 -1.1290 -1.0510
16026SOL     OW59296   0.442   6.703   1.351 -0.5572 -0.5305 -0.1058
16026SOL    HW159297   0.462   6.780   1.412 -1.3078 -2.0690  2.1383
16026SOL    HW259298   0.462   6.617   1.397 -2.5177 -1.7940 -1.5085
16027SOL     OW59299   9.819   1.940   3.848 -0.4884 -0.1986 -0.1191
16027SOL    HW159300   9.823   1.937   3.748  0.8786 -0.6115 -0.0581
16027SOL    HW259301   9.847   2.031   3.879  1.3319 -0.7582 -0.0322
16028SOL     OW59302   3.238   3.794   1.346  0.1336 -0.1470  0.2943
16028SOL    HW159303   3.240   3.811   1.247 -4.6023  2.0605  0.4304
16028SOL    HW259304   3.224   3.697   1.362 -0.3241 -0.3691 -1.2993
16029SOL     OW59305   1.817   2.345   0.325 -0.0766 -0.4735  0.1105
16029SOL    HW159306   1.800   2.262   0.271 -0.6090 -0.5256  0.3574
16029SOL    HW259307   1.836   2.320   0.420  1.2640 -0.4080 -0.1234
16030SOL     OW59308   4.438   2.977   0.440 -0.2970 -0.3659 -0.2092
16030SOL    HW159309   4.435   3.031   0.356 -0.6142 -0.5537 -0.3173
16030SOL    HW259310   4.511   2.909   0.433 -0.1909 -0.2488 -0.2483
16031SOL     OW59311   3.669   6.097   0.802 -0.1909  0.1506 -0.2479
16031SOL    HW159312   3.600   6.136   0.864 -0.6084 -0.4745 -0.3133
16031SOL    HW259313   3.754   6.148   0.810 -0.2782  0.1424  0.7669
16032SOL     OW59314   3.036   4.254   5.531 -0.0749  0.1411  0.1911
16032SOL    HW159315   3.000   4.222   5.619 -0.3200  1.4931  0.5946
16032SOL    HW259316   3.135   4.246   5.531  0.1709  2.5664  1.6234
16033SOL     OW59317   0.952   1.276   2.919 -0.3521  0.2403 -0.2651
16033SOL    HW159318   1.018   1.312   2.854  1.2455  0.0469  1.2328
16033SOL    HW259319   0.966   1.318   3.009 -1.1490 -1.0465  0.4858
16034SOL     OW59320   2.864   7.770   1.706  0.2146  0.0311  0.0285
16034SOL    HW159321   2.775   7.803   1.735  0.2067 -0.0385  0.0839
16034SOL    HW259322   2.852   7.691   1.645  0.2120  0.5798 -0.6821
16035SOL     OW59323   6.043   9.653   1.878  0.0861 -0.1087  0.5273
16035SOL    HW159324   6.010   9.561   1.855  0.2386  0.2016 -0.9342
16035SOL    HW259325   5.965   9.711   1.902 -0.1597 -0.1640 -0.1400
16036SOL     OW59326   0.519   2.179   3.675  0.6428 -0.0579  0.0601
16036SOL    HW159327   0.472   2.242   3.614  1.4060  1.2699  0.8274
16036SOL    HW259328   0.455   2.111   3.710 -0.6664  1.6093  0.9496
16037SOL     OW59329   5.293   8.805   4.743  0.2131 -0.3178  0.4686
16037SOL    HW159330   5.349   8.879   4.706  0.9082 -0.7278  0.6953
16037SOL    HW259331   5.290   8.812   4.843 -2.8067  1.6243  0.3198
16038SOL     OW59332   2.150   7.468   3.976  0.1214  0.2962  0.0429
16038SOL    HW159333   2.055   7.436   3.977  0.1390  0.2510  1.5285
16038SOL    HW259334   2.170   7.517   4.061  0.6237  2.7579 -1.4542
16039SOL     OW59335   7.979   3.182   5.781 -0.0122 -0.3384 -0.2118
16039SOL    HW159336   7.890   3.163   5.741  0.4895  0.0750 -1.5565
16039SOL    HW259337   8.037   3.227   5.713  0.5396  1.2837  1.2902
16040SOL     OW59338   2.775   3.059   4.242 -1.1636 -0.2362 -0.0708
16040SOL    HW159339   2.729   3.030   4.326 -1.6967 -0.1810 -0.3450
16040SOL    HW259340   2.873   3.072   4.261 -1.2163 -0.5742  0.4547
16041SOL     OW59341   0.838   6.828   2.743 -0.4751 -0.3529 -0.0512
16041SOL    HW159342   0.744   6.797   2.732 -1.0191  0.6792  1.4966
16041SOL    HW259343   0.876   6.791   2.827 -0.4147  1.3665  0.7088
16042SOL     OW59344   4.013   0.486   6.226  0.1946 -0.3251  0.0421
16042SOL    HW159345   4.005   0.403   6.281 -3.4394 -0.8211 -1.0926
16042SOL    HW259346   4.084   0.473   6.157  0.1002 -2.2522  0.2789
16043SOL     OW59347   3.091   1.994   5.230 -0.5711 -0.3093 -0.2849
16043SOL    HW159348   3.174   1.945   5.255 -0.7889 -1.4616 -1.7104
16043SOL    HW259349   3.115   2.083   5.189 -0.0699 -0.3164 -0.0038
16044SOL     OW59350   0.675   1.414   1.348  0.0193 -0.3664 -0.4108
16044SOL    HW159351   0.710   1.502   1.315 -2.3916  0.5625 -0.5452
16044SOL    HW259352   0.617   1.429   1.428 -1.3419 -1.7319 -1.1376
16045SOL     OW59353   3.290   0.946   1.684 -0.0864 -0.1515 -0.7484
16045SOL    HW159354   3.356   0.988   1.621  0.3523  0.5021  0.1463
16045SOL    HW259355   3.261   1.013   1.752 -1.0843 -0.6645 -0.6637
16046SOL     OW59356   1.609   3.162   5.018  0.4215  0.2625 -0.2911
16046SOL    HW159357   1.544   3.237   5.024  1.8138  1.4977 -0.4481
16046SOL    HW259358   1.670   3.164   5.096  0.4426 -0.7384 -0.2759
16047SOL     OW59359   0.853   0.087   5.425  0.1149  0.1254 -0.0534
16047SOL    HW159360   0.826   0.143   5.503  2.0501 -0.1967  0.8972
16047SOL    HW259361   0.795   0.107   5.347 -0.3261  2.1847  0.7823
16048SOL     OW59362   7.967   3.902   5.769 -0.6346  0.0186 -0.5760
16048SOL    HW159363   8.031   3.964   5.724  0.9367 -1.1484 -0.0111
16048SOL    HW259364   7.940   3.829   5.706 -0.3044 -0.2698 -0.3884
16049SOL     OW59365   6.164   8.012   5.069  0.4078 -0.0507  0.5679
16049SOL    HW159366   6.248   8.003   5.015  0.6627  4.2803  0.0405
16049SOL    HW259367   6.087   8.030   5.007  0.2879  2.5786  1.4540
16050SOL     OW59368   9.782   7.911   3.651  0.1482 -0.7892 -0.2529
16050SOL    HW159369   9.755   7.960   3.734 -0.8674 -2.3139  0.3281
16050SOL    HW259370   9.873   7.942   3.623 -0.9027  2.1895 -0.5148
16051SOL     OW59371   0.118   4.753   1.091 -0.7199 -0.0008  0.6511
16051SOL    HW159372   0.137   4.847   1.062  0.6759 -0.1551  1.0468
16051SOL    HW259373   0.133   4.745   1.190 -0.8173 -0.6433  0.6180
16052SOL     OW59374   6.418   1.313   3.510 -0.4636 -0.9367 -0.0326
16052SOL    HW159375   6.423   1.267   3.599 -0.8328 -0.0042  0.4699
16052SOL    HW259376   6.452   1.251   3.439  1.2522 -1.1487  0.9489
16053SOL     OW59377   2.890   9.226   2.175 -0.3644  0.2605  0.0817
16053SOL    HW159378   2.907   9.212   2.077  1.1401  0.5866  0.2782
16053SOL    HW259379   2.802   9.186   2.199 -3.0107  4.2273 -2.3603
16054SOL     OW59380   3.720   5.324   2.010 -0.4246 -0.0663  0.4401
16054SOL    HW159381   3.625   5.347   2.032  0.0184  0.8360  1.4680
16054SOL    HW259382   3.722   5.249   1.943 -1.8547  0.4526 -0.1982
16055SOL     OW59383   8.967   5.454   6.499  0.4757 -0.4354  0.2687
16055SOL    HW159384   9.037   5.432   6.433  0.0175  0.9656 -0.7133
16055SOL    HW259385   9.007   5.508   6.573  0.5478 -0.1193 -0.0004
16056SOL     OW59386   7.209   6.136   5.629  0.2310 -0.3006 -0.2083
16056SOL    HW159387   7.240   6.136   5.724  0.9753  0.2820 -0.4371
16056SOL    HW259388   7.266   6.200   5.576  0.5145 -1.3971 -1.2563
16057SOL     OW59389   8.418   0.450   4.566 -0.2897 -0.1583 -0.3751
16057SOL    HW159390   8.337   0.415   4.614  0.8623 -0.0490  1.7195
16057SOL    HW259391   8.389   0.504   4.486 -2.3448  0.9314  1.0505
16058SOL     OW59392   9.781   9.333   1.241  0.8839  0.3505  0.0433
16058SOL    HW159393   9.831   9.331   1.328  2.1859  3.3714 -0.5471
16058SOL    HW259394   9.686   9.360   1.258  0.5217 -1.2983  0.7370
16059SOL     OW59395   7.559   4.452   1.230  0.2253 -0.3357  0.4916
16059SOL    HW159396   7.573   4.520   1.302  0.6434  0.2362 -0.1168
16059SOL    HW259397   7.460   4.441   1.214  0.1721  1.1141 -0.3037
16060SOL     OW59398   6.366   0.251   5.347 -0.8654 -0.2124  0.2935
16060SOL    HW159399   6.369   0.350   5.355  0.3996 -0.1853 -0.3972
16060SOL    HW259400   6.273   0.219   5.364 -1.8563  1.3309 -1.9771
16061SOL     OW59401   1.549   6.343   3.918  0.0004  0.5492  0.4536
16061SOL    HW159402   1.471   6.348   3.855  1.1912  3.1314 -0.8567
16061SOL    HW259403   1.569   6.434   3.954  1.8538 -0.2415  1.4814
16062SOL     OW59404   9.659   9.480   5.085 -0.2628  0.3166  0.3055
16062SOL    HW159405   9.681   9.384   5.104 -0.3231  0.2331 -0.0497
16062SOL    HW259406   9.562   9.488   5.062 -0.2040  0.4330  0.1037
16063SOL     OW59407   9.594   5.591   4.107 -0.0031 -0.2284 -0.4386
16063SOL    HW159408   9.498   5.571   4.090 -0.5535  0.1739  2.1020
16063SOL    HW259409   9.645   5.506   4.117 -0.5296 -0.4352  0.5276
16064SOL     OW59410   2.513   0.739   4.971 -0.2607 -0.0053  0.3936
16064SOL    HW159411   2.496   0.708   4.877 -0.3121 -0.1398  0.4473
16064SOL    HW259412   2.612   0.752   4.984 -0.3586  1.2182 -0.0486
16065SOL     OW59413   1.005   6.321   4.011 -0.5791 -0.0643  0.0384
16065SOL    HW159414   1.015   6.382   3.932  1.7547  1.5811  1.5636
16065SOL    HW259415   0.956   6.368   4.084 -0.6814 -0.7859  0.4449
16066SOL     OW59416   2.288   0.751   0.395 -0.1192 -0.0544 -0.4286
16066SOL    HW159417   2.331   0.833   0.432  1.6406 -1.1899  0.1045
16066SOL    HW259418   2.253   0.694   0.470  0.1483 -0.5790 -0.6955
16067SOL     OW59419   2.852   3.810   6.172 -0.0747 -0.1017  0.1161
16067SOL    HW159420   2.844   3.862   6.257 -0.6913 -1.6197  1.0024
16067SOL    HW259421   2.794   3.852   6.102 -0.6205  0.3529  0.8334
16068SOL     OW59422   9.518   5.966   5.988 -0.0581 -0.1618  0.1591
16068SOL    HW159423   9.485   6.055   5.958 -2.0053 -0.6910  0.6343
16068SOL    HW259424   9.612   5.975   6.023 -0.3407  1.7413  0.4891
16069SOL     OW59425   3.487   4.216   3.910  0.4636  0.5814 -0.4882
16069SOL    HW159426   3.415   4.261   3.857 -0.3633 -0.7759 -0.5174
16069SOL    HW259427   3.576   4.246   3.876 -0.0557  0.1440 -2.2762
16070SOL     OW59428   2.826   6.572   5.863  0.3183 -0.2591  0.5424
16070SOL    HW159429   2.898   6.632   5.897  1.7022 -0.9959 -1.0174
16070SOL    HW259430   2.849   6.477   5.883 -0.9559 -0.4056  1.3475
16071SOL     OW59431   1.659   8.556   3.885  0.7445 -0.6276 -0.1421
16071SOL    HW159432   1.689   8.631   3.826  1.3519 -1.2817 -0.6769
16071SOL    HW259433   1.699   8.471   3.853 -1.0802 -1.4084 -0.4033
16072SOL     OW59434   8.964   5.243   4.263 -0.1569  0.1200  0.1212
16072SOL    HW159435   8.904   5.273   4.337 -0.3151  0.6240 -0.2047
16072SOL    HW259436   9.059   5.267   4.285 -0.1953  0.2056  0.1942
16073SOL     OW59437   8.327   1.056   0.731 -0.0242  0.3408  0.3900
16073SOL    HW159438   8.400   1.101   0.782  1.8758 -0.4174 -1.5731
16073SOL    HW259439   8.367   1.004   0.655 -2.5428 -0.8676 -0.1503
16074SOL     OW59440   9.200   9.429   6.660 -0.3429 -0.1900 -0.3731
16074SOL    HW159441   9.204   9.490   6.739 -0.8581 -0.3930 -0.1924
16074SOL    HW259442   9.122   9.367   6.669  0.9388 -1.7589  0.0741
16075SOL     OW59443   8.283   5.862   0.941  0.0099  0.3479 -0.0097
16075SOL    HW159444   8.215   5.928   0.907  0.7184  0.3675 -1.4391
16075SOL    HW259445   8.355   5.851   0.873  0.7119 -0.7417  0.8920
16076SOL     OW59446   1.996   4.996   3.261 -0.7976 -0.4634  0.1214
16076SOL    HW159447   2.040   4.953   3.340 -0.8281 -0.0434  0.3720
16076SOL    HW259448   1.928   5.062   3.293 -0.1248  0.4218 -0.2339
16077SOL     OW59449   9.222   3.783   2.045 -0.6577 -0.2403 -0.2172
16077SOL    HW159450   9.299   3.720   2.056  0.0104  0.4167 -0.9901
16077SOL    HW259451   9.170   3.758   1.963 -1.1451 -0.5568  0.1876
16078SOL     OW59452   1.016   9.745   3.922 -0.5689  0.0921  0.2364
16078SOL    HW159453   0.925   9.723   3.887  0.3639  1.5652 -3.3403
16078SOL    HW259454   1.024   9.844   3.935  0.8649  0.0759 -0.4756
16079SOL     OW59455   6.776   9.380   3.328 -0.0782  0.6952 -0.0350
16079SOL    HW159456   6.820   9.357   3.415 -0.6189  0.8292  0.2765
16079SOL    HW259457   6.841   9.430   3.270  1.0780 -1.5348 -0.6937
16080SOL     OW59458   8.472   0.692   2.701 -0.3867 -0.1299 -0.0685
16080SOL    HW159459   8.463   0.595   2.676 -1.0982  0.0124 -0.3796
16080SOL    HW259460   8.553   0.704   2.759  0.5035 -0.6901 -1.1731
16081SOL     OW59461   5.375   1.686   2.674  0.4810  0.4938 -0.2000
16081SOL    HW159462   5.324   1.752   2.619  0.2818  0.0566 -0.5373
16081SOL    HW259463   5.427   1.625   2.614  1.9235  1.3503  0.1488
16082SOL     OW59464   8.910   4.665   4.532  1.1456 -0.2754 -0.0636
16082SOL    HW159465   8.823   4.622   4.559  1.4093  0.5975  2.2997
16082SOL    HW259466   8.984   4.599   4.542  0.6958 -1.2307 -2.7339
16083SOL     OW59467   1.525   6.656   5.925 -0.2490 -0.2363  0.7221
16083SOL    HW159468   1.550   6.560   5.937 -0.8217 -0.4781  0.0477
16083SOL    HW259469   1.434   6.672   5.962 -0.9169 -0.3872 -0.7834
16084SOL     OW59470   3.882   9.668   6.716  0.1005  0.2550  0.6640
16084SOL    HW159471   3.824   9.643   6.794 -0.5288  2.1419  0.8236
16084SOL    HW259472   3.950   9.735   6.745  1.7575 -1.2075  0.2414
16085SOL     OW59473   8.989   3.749   2.748 -0.2320  0.8469  1.1141
16085SOL    HW159474   9.032   3.752   2.838  0.1975 -0.1637  0.9432
16085SOL    HW259475   8.899   3.705   2.756  1.2112 -2.3182  0.4969
16086SOL     OW59476   1.232   3.670   4.494  0.0511  0.0492  0.4256
16086SOL    HW159477   1.277   3.603   4.434 -1.7454 -1.3226  0.5663
16086SOL    HW259478   1.203   3.625   4.578 -1.3230  0.9754  0.4500
16087SOL     OW59479   5.025   2.549   4.403 -0.1428  0.1740  0.0278
16087SOL    HW159480   5.094   2.488   4.365 -0.4621 -0.7876  0.9487
16087SOL    HW259481   5.016   2.531   4.501 -0.3240  1.6322  0.2899
16088SOL     OW59482   6.245   8.909   2.879  0.2046  0.3797 -0.2631
16088SOL    HW159483   6.334   8.952   2.895  1.0132 -1.0508 -0.8552
16088SOL    HW259484   6.213   8.866   2.963 -0.5115  1.9358  0.2774
16089SOL     OW59485   9.245   1.605   2.901  0.1438  0.0140  0.1161
16089SOL    HW159486   9.209   1.601   2.995  2.4147  1.4507  1.0988
16089SOL    HW259487   9.311   1.531   2.889 -1.7705 -1.5558 -1.1289
16090SOL     OW59488   1.291   0.507   2.453  0.4550  0.1374 -0.3068
16090SOL    HW159489   1.213   0.444   2.457  0.8438 -0.4235 -1.3885
16090SOL    HW259490   1.318   0.531   2.546 -0.4546 -0.3529  0.0986
16091SOL     OW59491   0.197   7.527   1.766  0.3081  0.1452 -0.1518
16091SOL    HW159492   0.208   7.592   1.691  0.7921 -1.0856 -1.1649
16091SOL    HW259493   0.257   7.448   1.751 -0.8808 -0.9277  0.6105
16092SOL     OW59494   3.931   0.038   3.416 -0.1218 -0.0449  0.0046
16092SOL    HW159495   4.022  -0.003   3.422 -0.1733 -0.1552  0.0385
16092SOL    HW259496   3.916   0.072   3.323 -0.5582 -1.2185 -0.3528
16093SOL     OW59497   0.946   0.920   1.926 -0.6226  0.0067 -0.8026
16093SOL    HW159498   0.975   1.009   1.961  0.8779  0.0443 -2.1035
16093SOL    HW259499   0.902   0.932   1.837 -3.7413 -0.1734  0.6460
16094SOL     OW59500   0.778   8.694   4.429 -0.2821 -0.3250  0.2879
16094SOL    HW159501   0.738   8.737   4.348  0.5869  0.4596  0.2622
16094SOL    HW259502   0.708   8.640   4.477 -1.2398  0.6402 -0.0073
16095SOL     OW59503   1.696   7.341   5.284  0.1707 -0.0768  0.1264
16095SOL    HW159504   1.620   7.403   5.265  0.4423  0.0830 -0.4295
16095SOL    HW259505   1.690   7.262   5.224  0.8352  0.2674 -0.3940
16096SOL     OW59506   4.023   2.979   0.474 -0.1827 -0.1415  0.7517
16096SOL    HW159507   3.979   3.052   0.526 -1.9668 -1.1197  0.6403
16096SOL    HW259508   4.015   2.892   0.524  1.4651 -0.3745  0.6433
16097SOL     OW59509   7.509   2.592   2.566 -0.0017  0.0674 -0.0901
16097SOL    HW159510   7.507   2.549   2.475 -1.5924 -0.9112  0.3900
16097SOL    HW259511   7.535   2.524   2.634  0.3103  0.5867  0.3116
16098SOL     OW59512   0.368   2.718   0.786  0.4527  0.3345  0.2845
16098SOL    HW159513   0.409   2.746   0.700  0.6467 -0.9073 -0.0381
16098SOL    HW259514   0.283   2.667   0.768  0.4591  0.1230  0.8247
16099SOL     OW59515   4.586   0.335   4.569 -0.6429  0.0901  0.1386
16099SOL    HW159516   4.531   0.252   4.555  2.9625 -2.6747  1.6494
16099SOL    HW259517   4.633   0.358   4.484 -0.5208 -0.2417  0.1170
16100SOL     OW59518   0.410   9.480   1.577  0.3272  0.1513  0.2269
16100SOL    HW159519   0.348   9.537   1.631  0.0722 -1.8036  2.0609
16100SOL    HW259520   0.491   9.458   1.631  2.2278  1.9067 -1.8250
16101SOL     OW59521   9.798   2.593   6.416  0.0769 -0.2887  0.4436
16101SOL    HW159522   9.783   2.513   6.358  0.3229  0.0406 -0.0682
16101SOL    HW259523   9.721   2.603   6.478 -1.6591  1.1590 -1.8943
16102SOL     OW59524   0.356   0.698   1.633  0.0886 -0.0691  0.2645
16102SOL    HW159525   0.411   0.648   1.566  1.0518  0.7366  0.4503
16102SOL    HW259526   0.392   0.791   1.643 -0.7123  0.1528  1.1048
16103SOL     OW59527   3.630   1.875   4.816 -0.2369  0.1003  0.3595
16103SOL    HW159528   3.719   1.833   4.799 -1.1672 -1.4216 -0.9909
16103SOL    HW259529   3.595   1.844   4.905 -0.8839 -2.0193 -0.5956
16104SOL     OW59530   3.509   3.467   5.665 -0.1899 -0.0288 -0.5261
16104SOL    HW159531   3.465   3.434   5.748  0.0011 -1.0537 -0.8190
16104SOL    HW259532   3.607   3.475   5.680 -0.5654  3.4702  0.5218
16105SOL     OW59533   9.903   5.950   4.903 -0.2531  0.1321 -0.5139
16105SOL    HW159534   9.861   5.975   4.990 -1.7515 -4.3812  0.2053
16105SOL    HW259535   9.994   5.913   4.919  0.1496  0.8729 -1.0658
16106SOL     OW59536   8.669   8.730   0.645 -0.0725 -0.4455  0.4960
16106SOL    HW159537   8.671   8.781   0.731  1.4257  2.2124 -1.0585
16106SOL    HW259538   8.638   8.791   0.572 -0.7368 -2.5214 -0.9723
16107SOL     OW59539   4.136   0.462   0.922  0.4577 -0.1278 -0.0342
16107SOL    HW159540   4.069   0.524   0.963 -0.0196 -0.7483  0.1141
16107SOL    HW259541   4.184   0.412   0.993  0.2580 -0.5468 -0.1962
16108SOL     OW59542   9.650   7.706   4.295  0.3588  0.5663 -0.1179
16108SOL    HW159543   9.560   7.732   4.330  0.0101  0.8515 -1.2266
16108SOL    HW259544   9.707   7.674   4.371 -0.5737  0.6703  0.6306
16109SOL     OW59545   3.238   5.580   3.499 -0.0912 -0.0329  0.3867
16109SOL    HW159546   3.268   5.564   3.594 -1.2403  0.4187  0.8306
16109SOL    HW259547   3.292   5.521   3.438 -0.0035 -1.0510  1.4072
16110SOL     OW59548   2.421   2.906   4.768  0.0029  0.0289 -0.3318
16110SOL    HW159549   2.405   2.999   4.735  0.1512 -0.0821 -0.7250
16110SOL    HW259550   2.350   2.881   4.834  1.2241  1.2274  1.4659
16111SOL     OW59551   1.577   1.510   2.138  0.3989  0.2805  0.1883
16111SOL    HW159552   1.555   1.448   2.063  0.1535  0.7359 -0.1215
16111SOL    HW259553   1.494   1.529   2.191  1.0102 -1.7930  1.9208
16112SOL     OW59554   7.259   9.097   3.410  0.2942  0.1605 -0.2362
16112SOL    HW159555   7.179   9.099   3.351  0.5294  0.5194 -0.5535
16112SOL    HW259556   7.342   9.092   3.353  0.4418 -1.6507  0.1305
16113SOL     OW59557   0.662   6.673   0.752 -0.1626  0.8250  0.1617
16113SOL    HW159558   0.626   6.750   0.804 -2.6833 -0.1886 -0.0436
16113SOL    HW259559   0.675   6.701   0.657 -0.1058  1.2778  0.2977
16114SOL     OW59560   2.093   1.885   1.887 -0.2092 -0.4726 -0.2984
16114SOL    HW159561   2.061   1.800   1.928  0.2568 -0.8667 -0.7403
16114SOL    HW259562   2.166   1.865   1.822  0.2706  0.3259 -0.0080
16115SOL     OW59563   8.518   0.454   1.871 -0.5204 -0.2385 -0.0082
16115SOL    HW159564   8.527   0.379   1.806  0.5519 -0.0455 -0.0941
16115SOL    HW259565   8.498   0.419   1.962 -0.4510 -0.5993 -0.1345
16116SOL     OW59566   4.310   9.340   0.019  0.5698 -0.6367 -0.6212
16116SOL    HW159567   4.364   9.329  -0.064  2.4910  2.0163  0.2141
16116SOL    HW259568   4.225   9.388  -0.002  0.2097 -1.5636 -1.3208
16117SOL     OW59569   4.751   0.134   6.558 -0.0448 -0.0801 -0.2735
16117SOL    HW159570   4.835   0.174   6.521  0.0675  0.1190  0.1831
16117SOL    HW259571   4.768   0.039   6.584  0.2748  0.2052  0.5860
16118SOL     OW59572   6.999   1.420   6.149  0.4158 -0.3881  0.0690
16118SOL    HW159573   6.979   1.389   6.056  3.1298  0.3141 -0.7996
16118SOL    HW259574   7.082   1.376   6.182 -0.8363 -1.0715  2.4222
16119SOL     OW59575   1.561   2.205   4.641 -0.0937 -0.0355  0.0103
16119SOL    HW159576   1.624   2.128   4.632 -0.6338 -0.5714  0.7237
16119SOL    HW259577   1.477   2.186   4.591  0.5203  0.9175 -1.4045
16120SOL     OW59578   8.835   6.450   4.195 -0.4921 -0.0596 -0.1697
16120SOL    HW159579   8.888   6.475   4.114 -0.2595 -0.4963 -0.1560
16120SOL    HW259580   8.795   6.532   4.236 -2.2153 -0.0435 -1.8318
16121SOL     OW59581   0.878   5.953   1.882 -0.4723  0.0739  0.5519
16121SOL    HW159582   0.817   6.031   1.892  0.1458  0.5034  0.9807
16121SOL    HW259583   0.967   5.974   1.924  0.3487 -0.1279 -1.0724
16122SOL     OW59584   0.051   1.870   5.515  0.1153 -0.1324 -0.5596
16122SOL    HW159585  -0.046   1.857   5.493  0.5685  1.5460 -3.8787
16122SOL    HW259586   0.062   1.957   5.562  0.0207 -0.3304 -0.1674
16123SOL     OW59587   4.692   4.782   2.057 -0.1862 -0.7326 -0.3115
16123SOL    HW159588   4.713   4.764   1.961 -0.4397  1.7027 -0.8599
16123SOL    HW259589   4.606   4.834   2.063 -0.0603 -0.6796  1.2170
16124SOL     OW59590   4.206   5.326   2.895  0.1060 -0.0828 -0.4191
16124SOL    HW159591   4.291   5.333   2.843  0.2768  0.4597 -0.0683
16124SOL    HW259592   4.215   5.374   2.982 -1.4866  2.4189 -1.5866
16125SOL     OW59593   3.141   6.271   6.125 -0.0207  0.7367 -0.1239
16125SOL    HW159594   3.228   6.224   6.138 -0.4356 -0.6605 -2.2984
16125SOL    HW259595   3.156   6.355   6.073 -0.2944 -0.8016 -2.7404
16126SOL     OW59596   0.415   5.555   3.946  0.4438  0.0869 -0.7431
16126SOL    HW159597   0.426   5.520   4.038 -1.4730 -0.1273 -0.5894
16126SOL    HW259598   0.479   5.508   3.884 -0.1366 -1.6751 -0.0291
16127SOL     OW59599   9.924   6.146   5.366 -0.4754 -0.2320  0.4284
16127SOL    HW159600   9.865   6.095   5.303  0.0871 -1.0745  0.5818
16127SOL    HW259601   9.900   6.122   5.460 -1.2992  1.0064  0.5472
16128SOL     OW59602   3.940   3.426   5.851  0.4489  0.3056 -0.5946
16128SOL    HW159603   4.010   3.357   5.868 -0.4637 -0.5038 -0.0569
16128SOL    HW259604   3.889   3.402   5.768 -0.6870 -0.3631  0.2723
16129SOL     OW59605   3.996   7.914   2.329 -0.0292 -0.6236 -0.4797
16129SOL    HW159606   4.086   7.885   2.362  0.4783  0.6713 -0.6678
16129SOL    HW259607   3.994   7.910   2.229  0.6449  1.5705 -0.6161
16130SOL     OW59608   6.400   9.285   3.019  0.0306  0.3983 -0.3511
16130SOL    HW159609   6.495   9.266   3.040  0.2254  0.6441 -0.9851
16130SOL    HW259610   6.376   9.242   2.931 -0.0826  1.3910 -0.8163
16131SOL     OW59611   8.817   4.783   1.268  0.3065  0.3168  0.3123
16131SOL    HW159612   8.789   4.691   1.242 -0.6183 -0.4685  3.8463
16131SOL    HW259613   8.899   4.809   1.217  0.6560 -2.5040 -0.6355
16132SOL     OW59614   0.762   9.713   3.858  0.1178  0.2343  0.3123
16132SOL    HW159615   0.688   9.647   3.870 -1.0360  0.9687 -2.3971
16132SOL    HW259616   0.723   9.803   3.835  1.7847  1.0839  0.7437
16133SOL     OW59617   7.076   2.080   4.176  0.2269 -0.2063 -0.3711
16133SOL    HW159618   7.133   2.143   4.229  0.1160 -1.2821  1.0427
16133SOL    HW259619   6.988   2.068   4.221  0.0588 -0.9817 -0.8959
16134SOL     OW59620   4.021   8.956   1.361 -0.1302  0.2559  0.2303
16134SOL    HW159621   3.924   8.937   1.345 -0.0701  0.2079 -0.0742
16134SOL    HW259622   4.041   8.946   1.459 -0.4618  0.4010  0.3160
16135SOL     OW59623   8.702   9.100   5.011 -0.0246 -0.0618  0.5441
16135SOL    HW159624   8.790   9.057   4.990 -0.5755 -1.8366  1.7233
16135SOL    HW259625   8.681   9.170   4.942  2.1198  0.1147  0.0481
16136SOL     OW59626   1.719   5.599   0.577  0.1119 -0.2437  0.1717
16136SOL    HW159627   1.636   5.648   0.550 -0.5112  0.3918  3.0965
16136SOL    HW259628   1.784   5.663   0.619  0.8445 -1.2854  0.6495
16137SOL     OW59629   9.118   2.930   3.297 -0.3856 -0.4754  0.8116
16137SOL    HW159630   9.069   2.875   3.365 -0.2514 -2.8356 -0.9576
16137SOL    HW259631   9.067   2.930   3.211  1.5206 -1.0559 -0.3662
16138SOL     OW59632   0.138   0.719   2.999  0.0716  0.1081  0.2627
16138SOL    HW159633   0.135   0.776   2.916 -1.3024  2.3322  1.7848
16138SOL    HW259634   0.053   0.667   3.006  1.2524 -2.0497 -1.0314
16139SOL     OW59635   4.618   2.767   0.366  0.0966 -0.0963  0.3041
16139SOL    HW159636   4.651   2.740   0.276  0.8190  0.8764  0.2705
16139SOL    HW259637   4.603   2.685   0.422  0.1236 -0.6729 -0.5266
16140SOL     OW59638   3.566   6.758   3.600  0.0695 -0.2556 -0.2349
16140SOL    HW159639   3.530   6.815   3.527 -0.4531 -1.1577 -0.6990
16140SOL    HW259640   3.604   6.816   3.673 -0.6809  0.6762 -0.5754
16141SOL     OW59641   9.671   4.816   0.827  1.0214  0.1682  0.3163
16141SOL    HW159642   9.766   4.786   0.833  0.9141 -0.0568  0.8525
16141SOL    HW259643   9.624   4.766   0.754  0.9042 -0.7976  1.0516
16142SOL     OW59644   0.441   0.845   2.774  0.1568 -0.0269 -0.0809
16142SOL    HW159645   0.466   0.840   2.677  0.2323 -0.1040 -0.0577
16142SOL    HW259646   0.500   0.783   2.826  0.7556  0.7205  0.1372
16143SOL     OW59647   7.290   0.896   0.147 -0.3817  0.0147  0.0320
16143SOL    HW159648   7.287   0.990   0.181 -0.6205 -0.3514  1.0300
16143SOL    HW259649   7.341   0.894   0.061  0.8729  0.8415  0.7405
16144SOL     OW59650   7.721   1.034   3.272  0.3385 -0.1669 -0.4226
16144SOL    HW159651   7.641   1.073   3.317  0.8888  1.5678 -0.9203
16144SOL    HW259652   7.786   1.003   3.341 -0.0646 -0.1303 -0.0209
16145SOL     OW59653   8.349   1.838   5.364 -0.0149  0.2664 -0.0960
16145SOL    HW159654   8.385   1.903   5.297  0.5767  0.3501  0.2930
16145SOL    HW259655   8.301   1.764   5.317  1.5159 -0.3740 -0.7014
16146SOL     OW59656   3.409   8.102   6.131 -0.0740  0.2061 -0.2838
16146SOL    HW159657   3.453   8.060   6.052  1.0591  1.7930 -0.5319
16146SOL    HW259658   3.311   8.110   6.116 -0.2432 -1.9555 -0.3917
16147SOL     OW59659   2.775   1.944   4.757  0.0681  0.6031 -1.2848
16147SOL    HW159660   2.836   1.988   4.823 -0.0379 -1.2655  0.0614
16147SOL    HW259661   2.688   1.994   4.754 -0.7524 -0.5668  1.6273
16148SOL     OW59662   2.870   2.388   0.513  0.7521 -0.5684 -0.2135
16148SOL    HW159663   2.858   2.386   0.612  0.1978 -1.3705 -0.2889
16148SOL    HW259664   2.958   2.347   0.489  0.9384 -0.2637 -0.0408
16149SOL     OW59665   2.364   5.748   5.260 -0.3428  0.2231 -0.3417
16149SOL    HW159666   2.330   5.840   5.243 -0.6068  0.7170  2.6163
16149SOL    HW259667   2.294   5.695   5.308 -0.4427 -1.7611 -2.5751
16150SOL     OW59668   8.408   5.721   6.719  0.1880  0.2800  0.2675
16150SOL    HW159669   8.318   5.759   6.740 -0.1829 -0.4035 -0.0405
16150SOL    HW259670   8.407   5.622   6.736  0.9398  0.2979  0.4399
16151SOL     OW59671   2.187   5.696   1.972 -0.5334  0.4742  0.4383
16151SOL    HW159672   2.207   5.706   2.070 -1.2925 -3.7571  1.1000
16151SOL    HW259673   2.273   5.692   1.922 -0.0917  0.3071  1.1905
16152SOL     OW59674   4.925   5.484   2.840  0.3522  0.0036 -0.0342
16152SOL    HW159675   5.020   5.483   2.807  0.6350 -0.7412  0.7879
16152SOL    HW259676   4.904   5.574   2.877  1.2067 -0.2397  1.0822
16153SOL     OW59677   6.974   4.559   0.493 -0.1527  0.4750  0.1386
16153SOL    HW159678   6.898   4.613   0.529  1.1733  2.3402  0.2237
16153SOL    HW259679   6.996   4.486   0.558 -1.6919  0.0963  0.2367
16154SOL     OW59680   7.058   8.172   3.055 -0.0899 -0.0990 -0.1694
16154SOL    HW159681   7.039   8.260   3.099  0.3529  0.4729 -1.1047
16154SOL    HW259682   7.134   8.127   3.101  0.8360  0.8221 -0.7938
16155SOL     OW59683   1.760   7.594   1.483 -0.5724  0.0045  0.3423
16155SOL    HW159684   1.709   7.521   1.438 -0.9015 -0.3523  1.2896
16155SOL    HW259685   1.857   7.586   1.460 -0.6914 -0.3730 -0.0335
16156SOL     OW59686   3.164   9.112   0.965 -0.1091  0.0394 -0.2383
16156SOL    HW159687   3.090   9.063   1.010 -1.8661  1.5357 -1.4465
16156SOL    HW259688   3.166   9.206   0.997 -0.0038  0.5357 -1.6785
16157SOL     OW59689   4.055   8.379   4.059  0.2120  0.3053 -0.4037
16157SOL    HW159690   3.958   8.404   4.067  0.2686  0.5085 -0.3760
16157SOL    HW259691   4.100   8.392   4.147  0.5908  1.5455 -0.7715
16158SOL     OW59692   4.195   4.105   0.986  0.0832  0.4104  0.7158
16158SOL    HW159693   4.156   4.013   0.999 -0.9729  0.6580 -0.6119
16158SOL    HW259694   4.292   4.097   0.963 -0.7008 -0.5611 -2.5046
16159SOL     OW59695   5.921   1.696   1.679  0.3144 -0.2237  0.1904
16159SOL    HW159696   5.993   1.759   1.651 -1.9220  2.5371  0.4261
16159SOL    HW259697   5.917   1.692   1.779 -1.9862  2.2786  0.2532
16160SOL     OW59698   7.262   3.137   6.460 -0.0889  0.2129  0.3168
16160SOL    HW159699   7.311   3.223   6.446 -0.0747  0.3454  1.1516
16160SOL    HW259700   7.184   3.153   6.520 -0.0516 -0.3705  0.5238
16161SOL     OW59701   3.760   2.799   1.917  0.0591  0.0751  0.3971
16161SOL    HW159702   3.804   2.886   1.895 -0.0062  0.3579  1.3782
16161SOL    HW259703   3.809   2.754   1.992  0.2080 -0.8295 -0.2289
16162SOL     OW59704   7.319   0.120   4.654  0.4314  0.0718  0.5627
16162SOL    HW159705   7.339   0.211   4.691 -2.2726 -0.4951  3.7758
16162SOL    HW259706   7.363   0.051   4.711 -0.5473 -0.7254  0.3673
16163SOL     OW59707   0.170   2.834   0.016  0.7692 -0.2453  0.1654
16163SOL    HW159708   0.143   2.931   0.017  0.7925 -0.2403  0.2667
16163SOL    HW259709   0.268   2.827   0.032  0.7858 -0.2800  0.0519
16164SOL     OW59710   3.405   1.814   4.184  0.2007  0.1112 -0.3700
16164SOL    HW159711   3.362   1.757   4.113 -1.4236 -0.0853  0.7652
16164SOL    HW259712   3.393   1.910   4.161 -1.8854  0.0926  0.5043
16165SOL     OW59713   0.929   9.058   3.186  1.0515  0.5119 -0.0849
16165SOL    HW159714   1.006   9.057   3.249  1.4908 -1.3355 -0.6098
16165SOL    HW259715   0.961   9.084   3.095  1.3197 -1.4558 -0.5808
16166SOL     OW59716   4.365   0.481   5.681 -0.0405 -0.3190 -0.2147
16166SOL    HW159717   4.421   0.472   5.764 -1.5928  0.8398  0.9958
16166SOL    HW259718   4.284   0.423   5.689  0.3017 -0.9775 -1.3808
16167SOL     OW59719   9.732   7.057   5.725  0.1740 -0.0888 -0.0430
16167SOL    HW159720   9.680   7.111   5.658  1.7949 -1.2935 -2.3704
16167SOL    HW259721   9.825   7.093   5.732  0.7124 -1.4076 -0.2166
16168SOL     OW59722   9.895   8.186   1.012 -0.2644 -0.3901 -0.2480
16168SOL    HW159723   9.991   8.160   1.024  0.2819  1.1211 -1.1386
16168SOL    HW259724   9.877   8.271   1.062 -0.6166  0.3956 -1.6711
16169SOL     OW59725   3.462   4.038   5.940  0.0713 -0.0223  0.0012
16169SOL    HW159726   3.527   4.037   6.016  0.8155 -2.6528 -0.6153
16169SOL    HW259727   3.369   4.038   5.975  0.4062 -2.2541  0.9495
16170SOL     OW59728   0.698   5.186   5.554 -0.0441  0.5391  0.0130
16170SOL    HW159729   0.768   5.139   5.608  0.0539 -0.2305 -0.7567
16170SOL    HW259730   0.718   5.174   5.456 -0.2871  1.7967 -0.1926
16171SOL     OW59731   4.222   5.258   5.104 -0.1608  0.4878 -0.1099
16171SOL    HW159732   4.233   5.324   5.179  0.3286 -0.5819  0.7754
16171SOL    HW259733   4.296   5.270   5.038  0.6799 -0.0661  0.7326
16172SOL     OW59734   9.945   2.879   3.105 -0.7734  0.4348  0.3978
16172SOL    HW159735   9.853   2.840   3.104 -0.0881 -1.2906  2.5588
16172SOL    HW259736   9.957   2.935   3.187  0.6620 -0.7660  1.0261
16173SOL     OW59737   3.126   5.400   0.794 -0.1082  0.3661 -0.0955
16173SOL    HW159738   3.205   5.382   0.852 -0.6802  0.3912  0.6955
16173SOL    HW259739   3.150   5.382   0.698  1.1308  1.2436  0.0308
16174SOL     OW59740   6.925   3.209   0.389 -0.3813  0.8827 -0.2711
16174SOL    HW159741   7.012   3.159   0.385 -1.5950 -1.3565  0.4071
16174SOL    HW259742   6.900   3.224   0.485 -0.4883  1.9985 -0.4677
16175SOL     OW59743   3.514   3.855   1.614  0.1405 -0.1249 -0.1934
16175SOL    HW159744   3.521   3.844   1.713  0.6797 -0.5828 -0.2836
16175SOL    HW259745   3.499   3.766   1.571  1.8565 -0.2001 -0.6852
16176SOL     OW59746   1.642   6.405   4.416  0.0486  0.3333 -0.2529
16176SOL    HW159747   1.740   6.415   4.397  0.0410 -0.6699 -0.9215
16176SOL    HW259748   1.595   6.381   4.331 -0.5734 -0.5340  0.3262
16177SOL     OW59749   4.898   9.508   6.177  0.1916 -0.5032  0.8534
16177SOL    HW159750   4.977   9.567   6.159 -1.6858  2.2529  1.2137
16177SOL    HW259751   4.832   9.519   6.103  0.0222 -2.6367  0.6541
16178SOL     OW59752   4.782   3.777   0.700  0.0853 -0.2756  0.4740
16178SOL    HW159753   4.770   3.687   0.657  0.9154  0.3794 -1.1636
16178SOL    HW259754   4.879   3.796   0.710  0.0232  1.8394 -2.2626
16179SOL     OW59755   5.225   2.492   3.155 -0.1620 -0.1669 -0.2223
16179SOL    HW159756   5.217   2.410   3.212 -1.8686  1.6584  2.3352
16179SOL    HW259757   5.285   2.558   3.200  0.7221  0.2308 -1.9537
16180SOL     OW59758   0.062   8.676   4.931 -0.2051  0.3291  0.5888
16180SOL    HW159759  -0.008   8.740   4.961 -1.8212 -1.3837  0.5584
16180SOL    HW259760   0.077   8.686   4.833 -0.4277  0.6852  0.5903
16181SOL     OW59761   6.673   8.798   4.723 -0.2649  0.4819 -0.4178
16181SOL    HW159762   6.706   8.708   4.752 -0.3187  1.1511  1.8166
16181SOL    HW259763   6.749   8.849   4.681  0.3715  0.2513  0.4287
16182SOL     OW59764   1.100   0.399   4.887 -0.2107 -0.4340  0.4476
16182SOL    HW159765   1.075   0.307   4.914  1.2531 -0.3090  2.3347
16182SOL    HW259766   1.086   0.462   4.963  1.6094  0.3680  0.1581
16183SOL     OW59767   8.509   7.155   6.552  0.0461 -0.6777  0.1414
16183SOL    HW159768   8.505   7.058   6.576 -1.8806 -0.5917  0.1986
16183SOL    HW259769   8.482   7.167   6.457 -1.4953 -0.0121  0.6555
16184SOL     OW59770   3.317   8.733   4.716 -0.0791 -0.4119  0.0361
16184SOL    HW159771   3.307   8.709   4.812  2.5385 -1.4100  0.1115
16184SOL    HW259772   3.329   8.650   4.662 -2.5646  0.0720 -1.3280
16185SOL     OW59773   1.620   5.210   5.792  0.2487  0.8696 -0.0133
16185SOL    HW159774   1.618   5.259   5.705  2.0556  2.2057  0.6716
16185SOL    HW259775   1.551   5.249   5.853  0.4817  1.4069 -0.0854
16186SOL     OW59776   8.812   8.207   2.136 -0.0037 -0.0022  0.4551
16186SOL    HW159777   8.896   8.197   2.083 -1.2334 -0.3891 -1.4722
16186SOL    HW259778   8.777   8.117   2.161 -3.1923 -0.2514 -4.2398
16187SOL     OW59779   5.936   9.914   2.427  0.0093  0.1337  0.0087
16187SOL    HW159780   5.883   9.927   2.510  1.4657 -1.0151  1.1530
16187SOL    HW259781   5.963   9.818   2.420  0.6321  0.3926 -1.3392
16188SOL     OW59782   0.135   0.895   1.619  0.2912 -0.5594  0.5603
16188SOL    HW159783   0.152   0.797   1.613  0.5599 -0.5060  0.4371
16188SOL    HW259784   0.222   0.944   1.618  0.1203 -0.2594 -0.5760
16189SOL     OW59785   6.218   0.386   3.892  0.0418 -0.0816 -0.0076
16189SOL    HW159786   6.273   0.456   3.847  0.4525  0.6013  1.5033
16189SOL    HW259787   6.274   0.338   3.959 -0.6493 -0.8187  0.0453
16190SOL     OW59788   7.589   3.102   6.644  0.1013  0.4267  0.1920
16190SOL    HW159789   7.623   3.195   6.627 -1.0342  0.8195 -0.0012
16190SOL    HW259790   7.647   3.056   6.710  0.4900  1.3969  0.5285
16191SOL     OW59791   1.937   5.227   0.587  0.3294 -0.2800  0.4844
16191SOL    HW159792   1.958   5.287   0.509  0.4468 -2.9800 -1.6427
16191SOL    HW259793   2.021   5.182   0.618 -0.2722 -1.8607 -0.1253
16192SOL     OW59794   8.002   8.966   4.094  0.3039  0.4319 -0.5014
16192SOL    HW159795   8.083   8.922   4.135 -1.3494  0.0218  2.4561
16192SOL    HW259796   8.001   8.949   3.995  2.3071 -1.9772 -0.1524
16193SOL     OW59797   5.111   9.955   3.529  0.2241 -0.3550  0.0242
16193SOL    HW159798   5.110   9.944   3.430  2.2495 -0.4769 -0.0129
16193SOL    HW259799   5.018   9.945   3.565 -0.6150  0.2708 -1.9062
16194SOL     OW59800   5.803   9.962   2.179  0.0591 -0.2352  0.2915
16194SOL    HW159801   5.852   9.952   2.266 -0.0533  0.3097  0.4214
16194SOL    HW259802   5.715  10.007   2.196 -0.1143 -0.4464 -0.0558
16195SOL     OW59803   8.592   9.979   1.318  0.2359  0.4280  0.1246
16195SOL    HW159804   8.550  10.066   1.292  1.4659  0.6782 -1.0470
16195SOL    HW259805   8.619   9.929   1.236 -0.0201 -0.8488  0.8084
16196SOL     OW59806   0.876   3.432   1.206  0.2512 -0.0074 -0.3573
16196SOL    HW159807   0.790   3.483   1.198  0.9676  1.7387  2.1549
16196SOL    HW259808   0.883   3.395   1.299  1.7556 -0.9944 -0.8616
16197SOL     OW59809   7.137   0.573   0.145 -0.1492  0.8839 -0.0518
16197SOL    HW159810   7.201   0.635   0.100  1.5901 -0.3581  0.6273
16197SOL    HW259811   7.187   0.493   0.179 -1.9175  0.3635  1.3991
16198SOL     OW59812   0.032   5.130   2.802  0.4184  0.2027 -0.0066
16198SOL    HW159813   0.124   5.094   2.788  0.4096 -0.1349  0.7808
16198SOL    HW259814   0.011   5.133   2.900 -0.7368 -0.5611 -0.2112
16199SOL     OW59815   1.698   0.061   6.067 -0.4228  0.2804  0.2352
16199SOL    HW159816   1.674   0.065   6.164 -0.1026  1.1903  0.2809
16199SOL    HW259817   1.654  -0.019   6.025  1.2678 -1.4350  1.6322
16200SOL     OW59818   4.374   4.455   2.978 -0.2895 -0.1224 -0.1966
16200SOL    HW159819   4.414   4.459   2.887  1.7780 -1.5260  0.6267
16200SOL    HW259820   4.405   4.534   3.032 -2.0789  1.0978 -0.8905
16201SOL     OW59821   9.075   9.940   5.788 -0.5885  0.6127  0.6509
16201SOL    HW159822   9.086   9.874   5.862  1.9822 -0.9779 -1.0509
16201SOL    HW259823   9.021   9.900   5.714 -0.1053  0.8491  0.1587
16202SOL     OW59824   2.800   7.244   2.911  0.2263 -1.0415 -0.5716
16202SOL    HW159825   2.723   7.213   2.968  0.4681 -2.2216 -0.8723
16202SOL    HW259826   2.807   7.343   2.916 -1.0375 -0.9623 -0.1754
16203SOL     OW59827   5.594   9.613   5.470  0.2755 -0.3688 -0.2636
16203SOL    HW159828   5.550   9.558   5.400  2.4559 -1.9278 -0.4762
16203SOL    HW259829   5.640   9.691   5.428  0.0380 -0.2812 -0.3600
16204SOL     OW59830   7.759   8.762   4.928 -0.0326  0.1990  0.5198
16204SOL    HW159831   7.693   8.833   4.952 -0.4418  0.0204 -0.0653
16204SOL    HW259832   7.785   8.712   5.011  0.6860  1.3795  1.0273
16205SOL     OW59833   1.912   4.832   2.628 -0.4796  0.3560 -0.0535
16205SOL    HW159834   1.916   4.931   2.615  0.3250 -0.0176 -3.2693
16205SOL    HW259835   1.972   4.805   2.702  1.5101  2.0300 -1.0082
16206SOL     OW59836   7.870   2.291   1.727  0.0150  0.4527 -0.1088
16206SOL    HW159837   7.868   2.304   1.826 -1.5429 -0.7015  0.0293
16206SOL    HW259838   7.796   2.229   1.700  1.1034 -0.1139 -1.8657
16207SOL     OW59839   2.008   6.313   1.682  0.3197 -0.1304 -0.2798
16207SOL    HW159840   1.929   6.303   1.622  0.1313  1.2606 -0.2588
16207SOL    HW259841   2.048   6.403   1.671  1.1936 -0.4021  0.5822
16208SOL     OW59842   1.783   3.505   0.122  0.1250  0.6295 -0.1471
16208SOL    HW159843   1.746   3.477   0.211  0.3197 -0.1803 -0.3206
16208SOL    HW259844   1.807   3.602   0.125  0.6771  0.4642  0.8642
16209SOL     OW59845   8.904   8.304   5.339  0.4529 -0.3645  0.1783
16209SOL    HW159846   8.875   8.328   5.432  1.5479  1.3592  0.1076
16209SOL    HW259847   8.981   8.363   5.312  1.2028 -1.9411 -1.2210
16210SOL     OW59848   3.064   6.421   4.218 -0.6486 -0.3156 -0.1662
16210SOL    HW159849   3.047   6.418   4.119  2.8296 -0.7086 -0.8172
16210SOL    HW259850   3.143   6.364   4.240 -2.2551 -1.4336  3.0916
16211SOL     OW59851   0.679   8.846   3.032 -0.0459 -0.3266  0.1286
16211SOL    HW159852   0.582   8.867   3.017  0.1225  0.1078 -0.3478
16211SOL    HW259853   0.704   8.871   3.125 -0.9820 -2.6163  1.0565
16212SOL     OW59854   1.608   1.769   3.569 -0.0051 -0.0096 -0.3392
16212SOL    HW159855   1.556   1.684   3.578 -0.5566  0.3123 -0.4430
16212SOL    HW259856   1.665   1.782   3.650 -1.0839  0.3026  0.3793
16213SOL     OW59857   8.376   5.719   6.317  0.1572 -0.0235 -0.0065
16213SOL    HW159858   8.419   5.632   6.339  2.3447  1.2128  0.7752
16213SOL    HW259859   8.276   5.707   6.311  0.3097 -2.2568  1.4780
16214SOL     OW59860   3.006   7.655   1.906 -0.2201  0.1941  0.1486
16214SOL    HW159861   2.956   7.714   1.843 -0.2810  1.0379  0.9709
16214SOL    HW259862   2.943   7.620   1.976  0.0214  0.0051  0.2723
16215SOL     OW59863   5.231   1.275   0.977 -0.2924  0.3580  0.2123
16215SOL    HW159864   5.149   1.223   1.001  0.1303 -0.1941  0.4814
16215SOL    HW259865   5.275   1.310   1.060 -0.9291  1.7007 -0.0110
16216SOL     OW59866   4.409   4.922   6.170 -0.4853 -0.2345 -0.0645
16216SOL    HW159867   4.423   4.840   6.116  1.0005 -0.7388  1.0463
16216SOL    HW259868   4.417   5.003   6.111  2.3785 -0.7157 -0.4188
16217SOL     OW59869   2.421   1.514   3.428  0.2371  0.4151  0.5306
16217SOL    HW159870   2.416   1.448   3.354 -0.1733  0.2698  0.6891
16217SOL    HW259871   2.509   1.506   3.474 -0.0133 -0.3677  0.8758
16218SOL     OW59872   3.429   7.929   0.839 -0.6728  0.1728  0.3385
16218SOL    HW159873   3.396   8.012   0.882 -2.0191  0.1108 -0.5504
16218SOL    HW259874   3.452   7.861   0.909  0.5356  1.3073  1.0685
16219SOL     OW59875   0.393   0.985   1.626  0.0592 -0.1941 -0.0294
16219SOL    HW159876   0.405   1.006   1.529 -2.2255  1.7234  0.0366
16219SOL    HW259877   0.437   1.056   1.681 -1.8444  0.7905  0.2692
16220SOL     OW59878   4.402   2.869   1.302  0.0282 -0.0956 -0.0460
16220SOL    HW159879   4.382   2.842   1.208  2.0752  3.6870 -1.6832
16220SOL    HW259880   4.499   2.851   1.322 -0.0114  0.5785  0.7891
16221SOL     OW59881   7.116   2.390   3.408  0.3427 -0.5343 -0.3045
16221SOL    HW159882   7.042   2.413   3.345  0.3475 -2.9064 -1.2289
16221SOL    HW259883   7.203   2.420   3.369 -0.0535  2.0956  0.7004
16222SOL     OW59884   9.051   7.582   3.115  0.2339  0.2737 -0.2152
16222SOL    HW159885   8.969   7.638   3.129 -1.2723 -1.4576 -1.6861
16222SOL    HW259886   9.121   7.636   3.070 -1.0622  1.0914 -1.2988
16223SOL     OW59887   7.495   2.584   3.500  0.0832 -0.1729  0.1805
16223SOL    HW159888   7.507   2.682   3.485 -1.5572 -0.0962 -0.7345
16223SOL    HW259889   7.461   2.568   3.592 -1.7557  0.3154 -0.3825
16224SOL     OW59890   4.655   9.803   3.255 -0.0737  0.0106 -0.5302
16224SOL    HW159891   4.672   9.900   3.273 -2.5098  0.3933 -0.0483
16224SOL    HW259892   4.728   9.748   3.295  0.1564  1.5288  1.2414
16225SOL     OW59893   0.716   3.211   4.191 -0.0421 -0.0041  0.3362
16225SOL    HW159894   0.771   3.287   4.224  0.6674 -0.9189  1.3289
16225SOL    HW259895   0.671   3.236   4.105  0.6514  1.3104  0.3461
16226SOL     OW59896   6.012   0.577   5.550 -0.4872 -0.0974  0.1606
16226SOL    HW159897   6.047   0.583   5.456  0.2509 -0.6369  0.4073
16226SOL    HW259898   6.056   0.502   5.598 -0.0415  0.8719  1.2965
16227SOL     OW59899   0.816   9.846   2.267 -0.1214 -0.4667 -0.2948
16227SOL    HW159900   0.769   9.930   2.293  0.8719  0.1844 -0.5564
16227SOL    HW259901   0.789   9.819   2.175 -0.1801 -0.2378 -0.3444
16228SOL     OW59902   3.135   0.701   3.061  0.0672 -0.1304  0.1984
16228SOL    HW159903   3.215   0.728   3.115  0.7684 -2.2218  0.2378
16228SOL    HW259904   3.154   0.616   3.012 -1.9603 -0.3939 -0.1908
16229SOL     OW59905   4.068   2.775   2.540 -0.1147 -0.1328  0.3887
16229SOL    HW159906   3.983   2.791   2.589  0.4508  1.9233  0.7411
16229SOL    HW259907   4.075   2.678   2.516 -1.5702 -0.6935  2.1406
16230SOL     OW59908   7.762   4.515   5.361 -0.0671 -0.4196 -0.5924
16230SOL    HW159909   7.752   4.429   5.410  2.2200 -0.3054  0.1573
16230SOL    HW259910   7.813   4.580   5.418  2.4816 -0.2105 -3.0200
16231SOL     OW59911   4.206   6.731   1.994 -0.3786 -0.2586 -0.6602
16231SOL    HW159912   4.243   6.660   2.053 -1.3845  0.5058  0.9393
16231SOL    HW259913   4.107   6.720   1.985 -0.2619 -0.2548 -2.0595
16232SOL     OW59914   0.612   2.270   1.275  0.6524 -0.7961  0.0576
16232SOL    HW159915   0.669   2.326   1.216  0.5360 -1.6052 -0.8424
16232SOL    HW259916   0.516   2.279   1.247  0.5800 -1.0526  0.2156
16233SOL     OW59917   2.935   8.851   4.685 -0.1987  0.4499 -0.1939
16233SOL    HW159918   2.970   8.839   4.592  0.3144 -1.6999  0.2616
16233SOL    HW259919   2.837   8.872   4.681 -0.8821 -2.7167 -1.1384
16234SOL     OW59920   2.350   9.001   1.093  0.7028  0.0811 -0.4681
16234SOL    HW159921   2.442   8.965   1.108  1.7426  2.7344 -0.2847
16234SOL    HW259922   2.296   8.993   1.177  1.5081  0.6032  0.1026
16235SOL     OW59923   2.754   2.802   1.943  0.0373 -0.0888  0.3154
16235SOL    HW159924   2.832   2.800   2.006  0.2935 -2.2664 -0.0339
16235SOL    HW259925   2.748   2.891   1.900  0.0055  1.4041  3.2485
16236SOL     OW59926   3.462   8.151   2.837  0.0174  0.0328  0.3500
16236SOL    HW159927   3.520   8.213   2.890  1.6565 -0.8637 -0.3642
16236SOL    HW259928   3.384   8.202   2.800  0.7796  1.4394  0.6312
16237SOL     OW59929   2.008   6.718   3.075 -0.1717 -0.4428 -0.0672
16237SOL    HW159930   1.996   6.804   3.125  1.9384 -1.0619  1.6063
16237SOL    HW259931   2.066   6.733   2.995 -0.3191 -0.1992 -0.1293
16238SOL     OW59932   4.399   8.677   4.972  0.3493 -0.1762  0.2262
16238SOL    HW159933   4.322   8.738   4.951  1.1406  0.6290 -0.3413
16238SOL    HW259934   4.392   8.647   5.067 -0.9130 -0.4734  0.0562
16239SOL     OW59935   1.291   7.633   2.840 -0.1754  0.1051 -0.2218
16239SOL    HW159936   1.349   7.638   2.759 -0.0442 -0.3312 -0.1599
16239SOL    HW259937   1.200   7.602   2.814 -0.7099  1.8906 -0.4739
16240SOL     OW59938   8.377   3.553   3.062  0.4097 -0.1040 -0.3241
16240SOL    HW159939   8.346   3.468   3.018 -0.0490  0.3598 -0.8965
16240SOL    HW259940   8.365   3.545   3.161 -1.4670  0.0333 -0.5163
16241SOL     OW59941   6.608   0.499   3.088  0.5015  0.6701  0.1248
16241SOL    HW159942   6.630   0.468   3.180 -1.1585  0.5042  0.4745
16241SOL    HW259943   6.510   0.494   3.073  0.8150  0.0973 -1.8871
16242SOL     OW59944   1.474   3.417   2.985 -0.0687 -0.9027  0.0387
16242SOL    HW159945   1.409   3.341   2.993 -0.2126 -0.6496  1.4247
16242SOL    HW259946   1.448   3.476   2.909  0.7533 -2.9142 -1.8770
16243SOL     OW59947   9.695   0.119   4.616  0.5109 -0.1393 -0.8732
16243SOL    HW159948   9.633   0.041   4.621  0.8202 -0.3434 -0.1297
16243SOL    HW259949   9.778   0.099   4.669 -0.6570  1.8114  1.7959
16244SOL     OW59950   1.403   8.891   4.475 -0.6081  0.3985 -0.2474
16244SOL    HW159951   1.371   8.801   4.446 -0.1165  0.8308 -2.2349
16244SOL    HW259952   1.488   8.881   4.527 -0.7122 -0.2949 -0.2023
16245SOL     OW59953   7.708   1.079   0.952 -0.0618  0.9708  0.1866
16245SOL    HW159954   7.632   1.119   0.900 -0.6449  2.2080  1.9719
16245SOL    HW259955   7.692   0.981   0.964 -1.9987  1.4266  1.5756
16246SOL     OW59956   1.962   9.340   3.511 -0.3694  0.4213  0.0220
16246SOL    HW159957   2.023   9.372   3.439 -0.3501  2.0954  0.7379
16246SOL    HW259958   1.956   9.410   3.583 -0.9634 -0.8860  1.2852
16247SOL     OW59959   9.088   2.726   6.239  0.1944 -0.3888 -0.0305
16247SOL    HW159960   9.080   2.811   6.187  1.6481 -0.7686 -0.9085
16247SOL    HW259961   9.053   2.740   6.332  1.0638  1.3489  0.0514
16248SOL     OW59962   5.197   2.217   2.884  0.0213 -0.7351 -0.2903
16248SOL    HW159963   5.175   2.313   2.896  1.2344 -0.4915  0.0444
16248SOL    HW259964   5.263   2.188   2.954 -1.4614 -2.1970  0.5581
16249SOL     OW59965   8.406   3.303   0.860  0.5522 -0.3024 -0.8796
16249SOL    HW159966   8.360   3.283   0.774  1.1541  0.9733 -1.5083
16249SOL    HW259967   8.377   3.238   0.930 -1.0325 -0.4573 -1.6771
16250SOL     OW59968   5.047   8.289   2.883 -0.5895  0.7718 -0.4515
16250SOL    HW159969   4.979   8.294   2.956 -0.7581 -0.6929 -0.4947
16250SOL    HW259970   5.005   8.315   2.796 -0.7918  1.0051 -0.2838
16251SOL     OW59971   5.712   9.146   6.571  0.2777  0.2895  0.4239
16251SOL    HW159972   5.662   9.061   6.555  2.8888 -1.4540  1.1582
16251SOL    HW259973   5.780   9.132   6.643  1.5786  2.6729 -0.2647
16252SOL     OW59974   8.262   0.722   4.774  0.6869  0.1905 -0.1453
16252SOL    HW159975   8.184   0.739   4.834  1.2746  1.1755  0.3568
16252SOL    HW259976   8.305   0.635   4.799  0.2624  0.0548  0.1225
16253SOL     OW59977   2.024   1.969   1.642 -0.6680 -0.1104 -0.7826
16253SOL    HW159978   2.026   1.938   1.737 -1.8565 -0.3852 -0.8390
16253SOL    HW259979   2.103   2.028   1.625 -2.4271  3.0479  1.4765
16254SOL     OW59980   9.367   5.311   3.783  0.0972 -0.1454  0.4217
16254SOL    HW159981   9.272   5.340   3.770 -0.4630 -1.6872  0.9107
16254SOL    HW259982   9.419   5.331   3.700 -0.8565 -0.0656 -0.1714
16255SOL     OW59983   0.132   7.971   5.143  0.4942 -0.4096 -0.5650
16255SOL    HW159984   0.165   7.942   5.054  2.2151 -0.3407  0.0287
16255SOL    HW259985   0.179   8.055   5.170 -0.9515  0.2959 -0.1549
16256SOL     OW59986   7.467   7.921   4.626 -0.3766  0.1168 -0.0189
16256SOL    HW159987   7.473   7.822   4.637  2.1007  0.1090 -1.1304
16256SOL    HW259988   7.384   7.955   4.671 -0.0028 -2.1261  2.4346
16257SOL     OW59989   0.906   6.776   0.036  0.0180 -0.0941 -0.4776
16257SOL    HW159990   0.957   6.693   0.061 -0.8815 -0.7955 -0.9346
16257SOL    HW259991   0.897   6.834   0.116  0.4978 -0.5224 -0.1039
16258SOL     OW59992   3.216   8.899   3.673 -0.2708  0.0761  0.2671
16258SOL    HW159993   3.256   8.940   3.590  0.9654 -1.6341 -0.0001
16258SOL    HW259994   3.127   8.860   3.650  0.5629 -1.3867 -0.5285
16259SOL     OW59995   3.451   8.644   5.669 -0.1461 -0.1665 -0.3442
16259SOL    HW159996   3.408   8.657   5.580 -0.3477 -4.6087 -0.9974
16259SOL    HW259997   3.550   8.639   5.658 -0.2115 -1.4023 -0.4514
16260SOL     OW59998   8.577   8.042   0.954  0.4022 -0.1199  0.3015
16260SOL    HW159999   8.608   7.960   0.907  0.0322  0.1289 -0.3882
16260SOL    HW260000   8.482   8.062   0.928  1.2438  1.8689 -1.4321
16261SOL     OW60001   4.558   3.217   5.154 -0.2547  0.0692 -0.4461
16261SOL    HW160002   4.504   3.220   5.238  0.0868 -1.6160 -0.1488
16261SOL    HW260003   4.655   3.221   5.176 -0.1605 -0.4597 -0.7649
16262SOL     OW60004   3.971   6.555   4.196 -0.3207  0.4385 -1.1918
16262SOL    HW160005   4.006   6.551   4.289 -1.4974 -1.0012 -0.7799
16262SOL    HW260006   3.885   6.605   4.195 -0.1426  0.7383 -1.5544
16263SOL     OW60007   8.668   7.413   2.880 -0.1268 -0.5026 -0.3012
16263SOL    HW160008   8.578   7.421   2.921 -0.1605  1.0664 -0.6475
16263SOL    HW260009   8.731   7.372   2.946 -0.8334 -0.5921  0.3228
16264SOL     OW60010   0.489   0.133   5.464  0.4185 -0.0090 -0.8059
16264SOL    HW160011   0.576   0.168   5.430 -0.3235  1.7703 -0.9298
16264SOL    HW260012   0.418   0.201   5.449 -0.7028 -0.8180  0.7060
16265SOL     OW60013   0.430   4.063   0.252 -0.2453  0.4060 -0.0774
16265SOL    HW160014   0.333   4.079   0.271 -0.0640  2.0368 -0.4569
16265SOL    HW260015   0.486   4.106   0.323  0.1870 -1.7502  0.9267
16266SOL     OW60016   1.392   3.386   2.257  0.1841  0.3887  0.0141
16266SOL    HW160017   1.400   3.325   2.335  1.2574 -1.4808 -1.5286
16266SOL    HW260018   1.472   3.446   2.252  0.1054  0.5225  0.3361
16267SOL     OW60019   3.959   1.259   1.236 -0.3617 -0.2873 -0.2525
16267SOL    HW160020   3.882   1.282   1.177 -1.7936 -0.4347  1.5095
16267SOL    HW260021   4.001   1.343   1.270 -0.2238 -0.2137 -0.6033
16268SOL     OW60022   1.397   9.822   4.985 -0.1506  0.2424  0.2205
16268SOL    HW160023   1.367   9.747   5.044 -1.3071  1.1643  0.8343
16268SOL    HW260024   1.497   9.829   4.987 -0.0279 -1.3614  0.0391
16269SOL     OW60025   3.696   5.109   2.998 -0.2237 -0.4202  0.5760
16269SOL    HW160026   3.775   5.163   2.970 -1.0622  0.0898 -0.8695
16269SOL    HW260027   3.663   5.140   3.087 -0.8622  1.6274 -0.3598
16270SOL     OW60028   8.071   0.279   0.168  0.0996  0.4335 -0.0760
16270SOL    HW160029   8.150   0.218   0.154  0.4832  0.9865 -0.3331
16270SOL    HW260030   8.103   0.374   0.170 -0.5799  0.6663 -0.3043
16271SOL     OW60031   8.828   0.704   0.302  0.1559  0.1834  0.4432
16271SOL    HW160032   8.829   0.792   0.350 -0.2890  0.3378  0.1833
16271SOL    HW260033   8.757   0.646   0.342 -0.5702  0.5072 -0.3529
16272SOL     OW60034   8.545   6.702   6.524 -0.2973  0.1355 -0.4664
16272SOL    HW160035   8.579   6.770   6.459 -1.9251 -0.0419 -1.5365
16272SOL    HW260036   8.573   6.727   6.617  1.5925  0.6760 -1.1609
16273SOL     OW60037   9.506   4.118   0.056 -0.2322 -0.6030  0.3030
16273SOL    HW160038   9.541   4.082  -0.031  1.9063 -0.3361  1.0180
16273SOL    HW260039   9.483   4.214   0.045  1.9503 -0.0279  0.5139
16274SOL     OW60040   1.044   8.805   3.037  0.3153 -0.0188 -0.1711
16274SOL    HW160041   0.970   8.793   3.103 -0.9944  1.9884 -1.1952
16274SOL    HW260042   1.022   8.757   2.952  1.4110 -1.5654  0.4124
16275SOL     OW60043   4.956   1.750   5.303 -0.0200  0.1948 -0.0224
16275SOL    HW160044   4.985   1.654   5.297 -0.3631  0.1371 -0.8920
16275SOL    HW260045   4.926   1.781   5.213 -0.3620  0.9788  0.3574
16276SOL     OW60046   1.267   1.379   3.031  0.3532  0.0903 -0.3038
16276SOL    HW160047   1.184   1.401   2.980  0.9469  1.0494 -0.8700
16276SOL    HW260048   1.274   1.279   3.042  0.4943 -0.1765 -2.5934
16277SOL     OW60049   4.077   0.136   1.638 -0.2694 -0.4038  0.2647
16277SOL    HW160050   4.073   0.072   1.561  1.0513  0.6603 -0.7076
16277SOL    HW260051   4.001   0.201   1.631 -0.3215 -0.4903  0.0285
16278SOL     OW60052   2.213   7.910   5.659  0.3973  0.1790 -0.5656
16278SOL    HW160053   2.303   7.866   5.658  0.2304 -0.1751 -0.1278
16278SOL    HW260054   2.161   7.882   5.579 -0.1034 -1.2598  0.2435
16279SOL     OW60055   2.538   2.652   0.390 -0.3640 -0.7383  0.1937
16279SOL    HW160056   2.547   2.622   0.485  0.3359 -0.0687  0.3418
16279SOL    HW260057   2.463   2.718   0.383 -1.2526 -1.7341  0.0422
16280SOL     OW60058   8.615   4.343   5.433  0.0087 -0.4001 -0.1510
16280SOL    HW160059   8.576   4.278   5.498  1.5513 -1.4664 -0.2697
16280SOL    HW260060   8.613   4.303   5.341  0.7494 -0.1876 -0.2605
16281SOL     OW60061   6.504   7.867   4.135  0.1099 -0.5211  0.4181
16281SOL    HW160062   6.495   7.772   4.104 -0.2127 -0.0478 -1.0010
16281SOL    HW260063   6.429   7.889   4.197  0.8357 -1.5298  1.6773
16282SOL     OW60064   4.158   8.456   2.169  1.3925 -0.6747  0.3613
16282SOL    HW160065   4.172   8.552   2.192  2.2764 -0.8532  0.5808
16282SOL    HW260066   4.069   8.445   2.125  1.2447  0.2285  0.4278
16283SOL     OW60067   4.239   4.511   0.837 -0.3011  0.1458  0.2706
16283SOL    HW160068   4.321   4.463   0.806  0.4760  1.7810 -0.2459
16283SOL    HW260069   4.209   4.472   0.925  0.8620 -0.6370  0.3372
16284SOL     OW60070   4.573   8.015   1.714  0.0973  0.4177 -0.0020
16284SOL    HW160071   4.586   8.059   1.803 -2.6548 -0.6621  0.9797
16284SOL    HW260072   4.537   8.081   1.649  0.0454  0.6717  0.2816
16285SOL     OW60073   1.303   8.826   2.626 -0.3973 -0.0959 -0.2897
16285SOL    HW160074   1.260   8.740   2.598 -0.6425 -0.3792  0.9028
16285SOL    HW260075   1.270   8.850   2.717  0.4631  0.7279 -0.1939
16286SOL     OW60076   9.038   1.336   4.170 -0.1400  0.0892 -0.2953
16286SOL    HW160077   8.965   1.348   4.237  0.0884  2.6721 -0.4644
16286SOL    HW260078   9.000   1.338   4.078  0.2321  2.4572 -0.4185
16287SOL     OW60079   3.018   4.980   3.928 -0.2925  0.0195 -0.0814
16287SOL    HW160080   3.082   5.052   3.955  0.4302  0.1317 -2.0260
16287SOL    HW260081   2.991   4.994   3.833 -0.8112 -1.8067 -0.2149
16288SOL     OW60082   4.990   8.273   1.836  0.4926 -0.1518 -0.3308
16288SOL    HW160083   5.013   8.214   1.759  2.5887 -0.0419  0.2033
16288SOL    HW260084   4.895   8.256   1.863  1.0602 -3.2687 -0.1719
16289SOL     OW60085   1.615   7.508   4.283 -0.6281  0.1986 -0.1886
16289SOL    HW160086   1.548   7.437   4.263  0.2902 -0.4193 -1.0822
16289SOL    HW260087   1.628   7.566   4.202  1.2665 -0.8101 -0.6468
16290SOL     OW60088   7.321   9.405   3.309  0.6337 -0.5876 -0.1841
16290SOL    HW160089   7.282   9.407   3.401 -0.1264  2.7223 -0.5079
16290SOL    HW260090   7.250   9.380   3.244 -0.1106  1.7664 -0.3462
16291SOL     OW60091   2.154   9.411   5.196 -0.2956 -1.1462 -0.8095
16291SOL    HW160092   2.138   9.499   5.242 -2.3838  0.3941 -4.3544
16291SOL    HW260093   2.253   9.397   5.188  0.0973 -0.0810  1.5030
16292SOL     OW60094   7.626   8.277   3.713  0.1450 -0.4962 -0.1778
16292SOL    HW160095   7.568   8.271   3.632  0.4860 -0.9847 -0.3836
16292SOL    HW260096   7.594   8.352   3.771  2.1124  2.2626 -2.5172
16293SOL     OW60097   3.909   9.723   5.064 -0.6647 -0.3386 -0.0163
16293SOL    HW160098   3.924   9.817   5.034 -1.2796 -0.5852 -1.1679
16293SOL    HW260099   3.897   9.720   5.163 -1.4849  0.9063 -0.0681
16294SOL     OW60100   0.592   8.509   3.307  0.3156 -0.0036 -0.2766
16294SOL    HW160101   0.538   8.539   3.385  1.2798  0.6810  0.1379
16294SOL    HW260102   0.689   8.520   3.327  0.5880 -0.2807 -1.3811
16295SOL     OW60103   8.485   5.611   0.408  0.1043 -0.4162  0.1593
16295SOL    HW160104   8.455   5.706   0.414 -0.6291 -0.7317  1.8071
16295SOL    HW260105   8.583   5.608   0.387 -0.1037  0.6729 -1.0508
16296SOL     OW60106   1.658   9.795   1.221 -0.1285  0.3059  0.6950
16296SOL    HW160107   1.698   9.758   1.137  2.0249 -1.0914  2.2774
16296SOL    HW260108   1.718   9.866   1.258 -0.6893  0.4010  1.4408
16297SOL     OW60109   9.650   4.551   3.516  0.2082 -0.1238 -0.7422
16297SOL    HW160110   9.621   4.647   3.521  0.0001 -0.2403  0.4892
16297SOL    HW260111   9.625   4.513   3.427  0.6988  1.0924 -1.4103
16298SOL     OW60112   0.559   6.008   3.552 -0.4742  0.1963 -0.1058
16298SOL    HW160113   0.645   5.962   3.575 -0.9082 -0.3507  0.4588
16298SOL    HW260114   0.483   5.955   3.588 -1.1437 -0.1974 -2.0434
16299SOL     OW60115   0.906   9.698   5.747  0.0726  0.4401 -0.3440
16299SOL    HW160116   0.922   9.761   5.672  0.9079 -0.9162 -1.3325
16299SOL    HW260117   0.813   9.663   5.742 -1.1584  3.2549  1.5178
16300SOL     OW60118   4.689   4.770   0.502 -0.2042  0.4939 -0.8411
16300SOL    HW160119   4.638   4.840   0.552 -1.2070 -2.1866  2.0652
16300SOL    HW260120   4.787   4.781   0.519 -0.2140  2.1191 -1.7274
16301SOL     OW60121   4.692   8.443   0.603 -0.4299  0.1591  0.1320
16301SOL    HW160122   4.749   8.508   0.653 -0.3947 -0.1385  0.4779
16301SOL    HW260123   4.628   8.399   0.666 -0.2767 -0.3325 -0.0522
16302SOL     OW60124   4.586   1.511   5.251 -0.4550  0.1224  0.1331
16302SOL    HW160125   4.582   1.416   5.280  0.5681 -0.9125 -2.9589
16302SOL    HW260126   4.678   1.533   5.219 -1.5812  1.0860 -2.5836
16303SOL     OW60127   4.157   2.854   0.136  0.3097 -0.0015 -0.6008
16303SOL    HW160128   4.158   2.944   0.179 -1.2458  0.3123 -1.1731
16303SOL    HW260129   4.088   2.797   0.180  1.6414 -1.0942  0.0941
16304SOL     OW60130   9.345   7.535   2.750 -0.2685 -0.1178  0.0115
16304SOL    HW160131   9.337   7.545   2.849  1.3252 -1.7571  0.3371
16304SOL    HW260132   9.293   7.455   2.720 -1.2519  0.7307 -0.5702
16305SOL     OW60133   1.223   9.552   4.397 -0.4060 -0.4295 -0.0499
16305SOL    HW160134   1.177   9.523   4.313  0.5515  0.1582 -0.7873
16305SOL    HW260135   1.158   9.549   4.473 -2.1091  1.8201 -1.3397
16306SOL     OW60136   3.965   4.293   0.658  0.2942 -0.1223 -0.5304
16306SOL    HW160137   4.060   4.263   0.656  0.1381 -0.5556 -2.6798
16306SOL    HW260138   3.911   4.237   0.596 -1.3696  0.1594  0.6194
16307SOL     OW60139   9.875   6.528   2.807 -0.0836 -0.6776 -0.3640
16307SOL    HW160140   9.839   6.435   2.797  0.1614 -0.6648 -1.4628
16307SOL    HW260141   9.968   6.524   2.843  0.5584 -0.9635 -1.9954
16308SOL     OW60142   2.763   3.642   0.988 -0.1183 -0.3772 -0.3537
16308SOL    HW160143   2.743   3.740   0.978 -0.2394 -0.4181 -0.5132
16308SOL    HW260144   2.682   3.596   1.026 -0.1979 -0.4809 -0.6503
16309SOL     OW60145   2.039   4.532   0.569  0.1616  0.1553  0.0477
16309SOL    HW160146   1.945   4.555   0.546  0.2204 -0.0828 -0.4384
16309SOL    HW260147   2.043   4.495   0.662 -0.0699  1.1738  0.4698
16310SOL     OW60148   0.939   6.489   2.148  0.0225 -0.1573  0.0909
16310SOL    HW160149   0.965   6.565   2.087 -1.2386 -0.1231 -0.4263
16310SOL    HW260150   0.852   6.511   2.192  1.4525  0.3056  2.7950
16311SOL     OW60151   8.905   1.790   5.365 -0.4563  1.0233 -0.1715
16311SOL    HW160152   8.914   1.790   5.464  1.5218  0.0347 -0.3276
16311SOL    HW260153   8.835   1.724   5.337  0.5939 -0.3365  0.4328
16312SOL     OW60154   4.365   9.865   2.053 -0.2457  0.0671  0.0866
16312SOL    HW160155   4.343   9.885   1.958  1.8146 -2.2732 -0.9507
16312SOL    HW260156   4.295   9.804   2.091 -1.8099  2.0884  0.5511
16313SOL     OW60157   1.945   0.175   6.597 -0.2191  0.4165  0.0333
16313SOL    HW160158   1.850   0.144   6.606 -0.1446  0.3524  0.6084
16313SOL    HW260159   1.966   0.188   6.500 -0.0977 -1.8149 -0.2718
16314SOL     OW60160   8.041   2.186   2.506 -0.1232 -0.8664 -0.7302
16314SOL    HW160161   8.047   2.260   2.573  0.3822 -1.4460 -0.1268
16314SOL    HW260162   8.088   2.213   2.422 -0.3477 -0.3187 -0.6826
16315SOL     OW60163   1.695   8.907   0.655  0.1963  0.2769  0.1630
16315SOL    HW160164   1.726   8.974   0.588  0.3454 -0.9054 -0.9597
16315SOL    HW260165   1.619   8.945   0.707 -0.5571  0.8427 -1.3309
16316SOL     OW60166   2.991   4.951   5.790 -0.5554  0.7040 -0.1548
16316SOL    HW160167   3.038   4.879   5.841 -1.1375  0.6551  0.3246
16316SOL    HW260168   2.983   5.033   5.846 -1.8314  0.4161  0.1149
16317SOL     OW60169   9.331   5.204   5.648  0.2622  0.0572 -0.3993
16317SOL    HW160170   9.292   5.296   5.653 -1.5974 -0.6871 -0.7783
16317SOL    HW260171   9.328   5.162   5.738 -1.5823 -0.6755 -0.7657
16318SOL     OW60172   7.567   0.463   3.750 -0.0549  0.4994  0.0535
16318SOL    HW160173   7.583   0.388   3.815 -0.6874  0.1144 -0.2248
16318SOL    HW260174   7.647   0.474   3.692  0.0355  0.0218  0.0835
16319SOL     OW60175   3.401   3.308   2.293 -0.2508 -0.8639  0.3110
16319SOL    HW160176   3.493   3.284   2.261  0.0248  0.8229 -0.2342
16319SOL    HW260177   3.393   3.408   2.297 -2.0296 -1.0038  0.4535
16320SOL     OW60178   0.415   5.101   3.782  0.3237 -0.3349  0.5844
16320SOL    HW160179   0.412   5.188   3.733  1.8374 -1.0627 -0.8561
16320SOL    HW260180   0.345   5.040   3.746  1.4310 -0.8678 -0.6980
16321SOL     OW60181   3.934   5.691   3.171  0.3435 -0.3863  0.1555
16321SOL    HW160182   3.971   5.774   3.130  0.2413 -0.0344  0.7575
16321SOL    HW260183   3.913   5.624   3.100  0.3176  0.1490 -0.3419
16322SOL     OW60184   3.282   4.503   2.108 -0.4409  0.3008 -0.8667
16322SOL    HW160185   3.320   4.437   2.172  0.0412  1.5511  0.1595
16322SOL    HW260186   3.313   4.595   2.132 -0.5916  0.8428 -2.6456
16323SOL     OW60187   1.263   5.379   1.363  0.1880  0.1626 -0.5234
16323SOL    HW160188   1.235   5.302   1.420  0.3483  0.2163 -0.3723
16323SOL    HW260189   1.328   5.436   1.413  0.3847  0.1700 -0.7868
16324SOL     OW60190   3.035   0.656   3.301  0.3384  0.4094 -0.6641
16324SOL    HW160191   3.068   0.671   3.208  1.7522 -1.0021 -0.4178
16324SOL    HW260192   3.112   0.659   3.365  0.1536 -3.4038 -0.1237
16325SOL     OW60193   0.455   0.399   5.065  0.1310  0.0345  0.4548
16325SOL    HW160194   0.452   0.300   5.047 -0.7952 -0.2262  1.8988
16325SOL    HW260195   0.515   0.416   5.143  0.3778  0.6330  0.1360
16326SOL     OW60196   2.935   0.441   2.589  0.0856 -0.0133  0.2394
16326SOL    HW160197   2.939   0.399   2.498  1.7397  1.4991 -0.4090
16326SOL    HW260198   2.884   0.527   2.583  1.5791  0.8925  0.4063
16327SOL     OW60199   0.664   1.382   4.283 -0.6219  0.0446  0.7986
16327SOL    HW160200   0.591   1.440   4.319 -1.7318 -1.5059  1.0850
16327SOL    HW260201   0.636   1.286   4.287  2.1022 -0.7351  2.4908
16328SOL     OW60202   0.198   0.804   1.315  0.2396 -0.6356 -0.0579
16328SOL    HW160203   0.166   0.736   1.249 -0.0703 -0.5816  0.0352
16328SOL    HW260204   0.119   0.842   1.364  0.4432 -0.4639  0.1355
16329SOL     OW60205   1.165   8.627   0.651  0.3124  0.2158  0.3705
16329SOL    HW160206   1.203   8.706   0.603  0.5288  0.3298  0.7248
16329SOL    HW260207   1.089   8.657   0.708  0.1875  0.1158  0.2562
16330SOL     OW60208   1.574   0.063   6.373  0.4698  0.7225 -0.0831
16330SOL    HW160209   1.617   0.068   6.463 -1.3402 -0.3358  0.8864
16330SOL    HW260210   1.529  -0.026   6.363 -0.1121  1.1789 -1.6863
16331SOL     OW60211   1.945   0.863   3.000  0.1144  0.1024 -0.3643
16331SOL    HW160212   1.849   0.837   2.999 -0.7015  3.0175 -1.9720
16331SOL    HW260213   1.991   0.824   2.920  0.2927 -1.2669  0.3910
16332SOL     OW60214   0.030   2.407   3.270 -0.5329 -0.4911 -0.1535
16332SOL    HW160215   0.009   2.352   3.351 -0.0042 -0.7944 -0.2239
16332SOL    HW260216  -0.054   2.421   3.217 -0.9776  0.1443  0.7111
16333SOL     OW60217   1.246   1.149   3.706 -0.2953 -0.0127  0.1076
16333SOL    HW160218   1.147   1.160   3.702 -0.3912  0.8922  3.5210
16333SOL    HW260219   1.271   1.097   3.788  2.0428 -0.4223 -0.8207
16334SOL     OW60220   9.361   7.836   6.525 -0.3702 -0.1693 -0.7654
16334SOL    HW160221   9.279   7.825   6.582 -0.3451 -0.3194 -0.7589
16334SOL    HW260222   9.406   7.748   6.514 -0.5744 -0.2087 -1.3156
16335SOL     OW60223   8.445   5.626   4.450 -0.8258  0.1172 -0.3980
16335SOL    HW160224   8.515   5.564   4.483 -1.3445  1.0396  2.5932
16335SOL    HW260225   8.392   5.661   4.527 -2.9351  1.4075 -2.3522
16336SOL     OW60226   2.329   9.753   4.752  0.1691 -0.1557 -0.8510
16336SOL    HW160227   2.419   9.718   4.726  1.5062  2.0965  0.6409
16336SOL    HW260228   2.266   9.743   4.675  1.3588 -2.7640 -1.5523
16337SOL     OW60229   5.400   2.467   3.478 -0.4083  0.0147 -0.1084
16337SOL    HW160230   5.463   2.446   3.553  1.3820 -1.8886 -2.0550
16337SOL    HW260231   5.321   2.405   3.482 -0.4201  0.0588  0.3269
16338SOL     OW60232   2.590   2.741   0.805 -0.6281 -0.0891  0.2215
16338SOL    HW160233   2.527   2.812   0.774  0.9158 -0.0984 -3.1937
16338SOL    HW260234   2.576   2.658   0.749  0.1411 -1.1930  1.6393
16339SOL     OW60235   4.316   0.054   1.051  0.1922 -0.2022 -0.0716
16339SOL    HW160236   4.299   0.022   0.957  1.6014 -1.4800  0.1005
16339SOL    HW260237   4.282   0.148   1.060  0.8056  0.2469 -2.1057
16340SOL     OW60238   7.898   6.842   3.928  0.0080  0.7116 -0.2944
16340SOL    HW160239   7.925   6.850   3.832  1.1812  0.3369  0.0001
16340SOL    HW260240   7.975   6.869   3.987  0.2250 -1.6941  0.5714
16341SOL     OW60241   5.530   8.975   6.462  0.1216  0.2234  0.0141
16341SOL    HW160242   5.501   8.941   6.372  2.3456 -1.6577 -0.0390
16341SOL    HW260243   5.452   8.972   6.525 -1.1109  0.2534 -1.4876
16342SOL     OW60244   7.976   8.956   3.842 -0.7117 -0.4107 -0.1807
16342SOL    HW160245   7.960   9.049   3.809 -1.1072 -0.4735 -0.1651
16342SOL    HW260246   7.904   8.895   3.809 -0.4738 -0.7053 -0.1614
16343SOL     OW60247   0.548   5.710   4.571 -0.4591  0.2391  0.0504
16343SOL    HW160248   0.620   5.669   4.515  0.5600 -0.7894  2.0734
16343SOL    HW260249   0.467   5.651   4.568 -0.8060  0.7469 -1.1839
16344SOL     OW60250   4.890   0.954   6.518 -0.2573  0.2352  0.2318
16344SOL    HW160251   4.958   1.006   6.466  0.2451  1.0942  1.7170
16344SOL    HW260252   4.935   0.907   6.593 -1.0119 -0.8416  0.0131
16345SOL     OW60253   3.033   5.860   3.635 -0.1608  0.2808 -0.3737
16345SOL    HW160254   2.944   5.887   3.599 -0.3384 -1.1252 -1.0484
16345SOL    HW260255   3.105   5.885   3.570 -0.3110 -0.6692 -0.9289
16346SOL     OW60256   8.284   6.438   6.360  0.5154  0.4940  0.0829
16346SOL    HW160257   8.382   6.419   6.368  0.4037 -0.0965  0.0488
16346SOL    HW260258   8.233   6.367   6.407  0.1243  1.2417  0.8113
16347SOL     OW60259   9.688   9.185   4.967 -0.0102 -0.5866 -0.1053
16347SOL    HW160260   9.733   9.183   4.878  0.5709 -0.2542  0.1746
16347SOL    HW260261   9.604   9.132   4.963  0.3060 -1.0511 -0.6953
16348SOL     OW60262   3.312   6.229   4.160 -0.5768  0.0417  0.4641
16348SOL    HW160263   3.346   6.306   4.106 -0.3734 -1.3704 -1.5028
16348SOL    HW260264   3.370   6.216   4.240  1.2759  0.0099 -0.8470
16349SOL     OW60265   9.774   7.479   0.121  0.4194 -0.5515  0.4261
16349SOL    HW160266   9.873   7.480   0.104  0.3853 -0.3375  0.2549
16349SOL    HW260267   9.756   7.521   0.210  0.2489  1.8940 -0.7302
16350SOL     OW60268   8.249   0.740   2.507  0.6023 -0.2227  0.0718
16350SOL    HW160269   8.299   0.825   2.489  1.6579 -0.9958 -0.7080
16350SOL    HW260270   8.294   0.664   2.459 -1.3650 -0.9271 -0.7234
16351SOL     OW60271   1.361   5.800   1.244 -0.2917  0.3938 -0.2518
16351SOL    HW160272   1.304   5.882   1.247 -1.0884 -0.1545 -0.2650
16351SOL    HW260273   1.323   5.736   1.177  2.0408  1.2725 -2.4868
16352SOL     OW60274   4.297   4.675   4.835 -0.1119  0.1402  0.0096
16352SOL    HW160275   4.336   4.614   4.904 -0.6241 -1.4471 -1.0857
16352SOL    HW260276   4.199   4.685   4.850 -0.3063 -0.5965 -0.7891
16353SOL     OW60277   0.764   4.548   6.227  0.0186  0.2932 -0.3267
16353SOL    HW160278   0.700   4.473   6.216  1.5032 -1.1036  0.3713
16353SOL    HW260279   0.797   4.577   6.137  0.8270 -1.1249 -0.4950
16354SOL     OW60280   2.867   3.328   0.106  0.3582 -0.3749 -0.0979
16354SOL    HW160281   2.854   3.305   0.009  0.3902  1.0298 -0.4428
16354SOL    HW260282   2.862   3.244   0.161 -2.7068 -0.8484 -1.0030
16355SOL     OW60283   9.529   2.423   1.929  0.3231  0.3140 -0.0037
16355SOL    HW160284   9.601   2.484   1.962  1.3268 -0.3145 -0.9616
16355SOL    HW260285   9.522   2.430   1.829 -0.7845  0.1904  0.0547
16356SOL     OW60286   0.660   3.309   0.949  0.3004 -0.0398 -0.1735
16356SOL    HW160287   0.755   3.340   0.935  0.9053 -1.5659  0.4287
16356SOL    HW260288   0.661   3.214   0.981 -1.4362  0.0691  0.2083
16357SOL     OW60289   4.802   4.223   2.627  0.2461  0.1222 -0.0786
16357SOL    HW160290   4.858   4.158   2.575 -0.8301 -1.2486  0.4501
16357SOL    HW260291   4.819   4.210   2.725  0.7250  1.2944  0.0023
16358SOL     OW60292   4.056   0.366   2.046 -0.4986 -0.3460 -0.1533
16358SOL    HW160293   4.075   0.432   1.973  1.2756 -0.4973  0.1461
16358SOL    HW260294   4.130   0.299   2.051 -0.2304  0.0660  2.2089
16359SOL     OW60295   2.331   2.975   4.396  0.1501  0.1382  0.0494
16359SOL    HW160296   2.385   2.990   4.313 -0.1665  0.7148 -0.0530
16359SOL    HW260297   2.361   2.890   4.440 -0.3994 -0.7420 -1.2247
16360SOL     OW60298   8.399   3.442   3.349  0.2040 -0.7377  0.2790
16360SOL    HW160299   8.463   3.371   3.319  1.5891  0.0900  1.2404
16360SOL    HW260300   8.324   3.399   3.400  1.2208 -1.4943  1.1532
16361SOL     OW60301   0.617   1.239   3.121  0.3775  0.3648 -0.6269
16361SOL    HW160302   0.697   1.232   3.181  0.7439  0.5917 -1.0882
16361SOL    HW260303   0.546   1.176   3.153  0.3276  0.9402  0.4211
16362SOL     OW60304   7.795   0.437   2.767  0.5833  0.2550 -0.1002
16362SOL    HW160305   7.760   0.502   2.699 -0.0461  0.3802  0.3360
16362SOL    HW260306   7.750   0.453   2.855  0.7822 -0.4536  0.1376
16363SOL     OW60307   6.202   7.709   2.534 -0.2162 -0.0941  0.4975
16363SOL    HW160308   6.275   7.663   2.484 -0.1191 -0.0946  0.6407
16363SOL    HW260309   6.113   7.675   2.502 -0.1543 -0.1010  0.3310
16364SOL     OW60310   0.269   0.112   0.927  0.0191 -0.0487 -0.5660
16364SOL    HW160311   0.280   0.122   0.828 -0.8707  1.8144 -0.5058
16364SOL    HW260312   0.331   0.175   0.973 -0.9138  0.4413  0.0214
16365SOL     OW60313   6.432   1.715   3.826  0.3984  0.0792  0.4070
16365SOL    HW160314   6.395   1.626   3.798  0.7359  0.2829 -0.7443
16365SOL    HW260315   6.401   1.737   3.918 -1.5569 -0.1907 -0.1670
16366SOL     OW60316   9.216   5.968   5.500  0.4463  0.1794  0.1740
16366SOL    HW160317   9.253   5.880   5.469 -0.0010  0.3117 -0.7382
16366SOL    HW260318   9.123   5.979   5.466  0.3019  0.7691  0.7464
16367SOL     OW60319   1.238   4.607   6.435 -0.7076 -0.0057  0.4946
16367SOL    HW160320   1.254   4.703   6.458  0.3134 -0.5321  2.0944
16367SOL    HW260321   1.323   4.555   6.447 -0.7519 -0.7891 -2.2372
16368SOL     OW60322   0.598   0.770   1.877  0.1795 -0.1645  0.7060
16368SOL    HW160323   0.544   0.750   1.959  0.3951  0.6292  1.0462
16368SOL    HW260324   0.677   0.708   1.872 -0.1445 -0.5875  0.7943
16369SOL     OW60325   9.661   0.141   1.196 -0.0333 -0.6984  1.0343
16369SOL    HW160326   9.587   0.196   1.158 -0.3147 -1.7389  0.0139
16369SOL    HW260327   9.633   0.103   1.284  0.9406  2.4243  2.7537
16370SOL     OW60328   0.649   8.405   0.710  0.4126  0.4350  0.7647
16370SOL    HW160329   0.682   8.442   0.797 -0.3725 -1.3332  1.8292
16370SOL    HW260330   0.727   8.384   0.651  0.9861  0.5671  1.4695
16371SOL     OW60331   7.167   1.086   2.987 -0.3677  0.2388  0.2269
16371SOL    HW160332   7.097   1.158   2.986 -1.0939 -0.4744 -1.4684
16371SOL    HW260333   7.252   1.123   3.025 -0.8349  1.8897 -0.2881
16372SOL     OW60334   8.953   6.772   1.024 -0.8704 -0.2345  0.4886
16372SOL    HW160335   8.949   6.676   1.050  2.2915 -0.2041  1.2818
16372SOL    HW260336   8.911   6.828   1.096 -1.0544 -0.8760  0.8801
16373SOL     OW60337   5.344   7.420   2.493  0.0310 -0.0566 -0.4200
16373SOL    HW160338   5.398   7.459   2.419 -0.0670  0.7654 -0.0602
16373SOL    HW260339   5.332   7.488   2.565  0.4368 -0.9601  0.5156
16374SOL     OW60340   0.256   1.119   1.880 -0.1864 -0.0676  0.3452
16374SOL    HW160341   0.283   1.027   1.852  0.6082  0.3932 -0.4284
16374SOL    HW260342   0.325   1.156   1.943 -0.5164 -0.0172  0.6732
16375SOL     OW60343   6.964   3.077   0.771 -0.2429  0.2092 -0.3249
16375SOL    HW160344   6.985   3.001   0.710  1.9017 -0.5748  1.3021
16375SOL    HW260345   6.940   3.158   0.718  1.7980 -0.3848 -2.2048
16376SOL     OW60346   9.423   7.002   3.221 -0.2517 -0.2136 -0.7549
16376SOL    HW160347   9.357   6.958   3.283 -0.7642 -0.7384 -1.6559
16376SOL    HW260348   9.438   6.943   3.142 -0.3688  0.9061 -1.6167
16377SOL     OW60349   3.114   1.461   5.660  0.1991  0.2708  0.8829
16377SOL    HW160350   3.161   1.376   5.684  0.7288  0.4347  0.4619
16377SOL    HW260351   3.020   1.459   5.693  0.7855  0.3379  2.6074
16378SOL     OW60352   9.658   7.355   1.241 -0.2310  0.4058  0.3003
16378SOL    HW160353   9.648   7.448   1.206 -0.5751 -0.0562 -0.8359
16378SOL    HW260354   9.594   7.341   1.317 -0.0029  1.1715  0.6369
16379SOL     OW60355   0.740   0.905   2.128  0.2893 -0.0579 -0.0288
16379SOL    HW160356   0.765   0.909   2.031 -1.5353 -1.5650 -0.5836
16379SOL    HW260357   0.732   0.809   2.156 -1.1609  0.3749  1.0745
16380SOL     OW60358   9.421   5.089   4.396 -0.3076 -0.0377 -0.0350
16380SOL    HW160359   9.470   5.166   4.437  0.5644 -0.0769 -0.9728
16380SOL    HW260360   9.485   5.032   4.345 -1.2161 -0.4857 -0.6989
16381SOL     OW60361   4.513   4.660   0.306  0.2188  0.0591  0.3317
16381SOL    HW160362   4.415   4.656   0.327  0.4035 -0.3284  1.1207
16381SOL    HW260363   4.565   4.677   0.390  0.7392  1.5888 -0.2882
16382SOL     OW60364   2.508   2.182   1.578  0.2974  0.0462  0.4350
16382SOL    HW160365   2.579   2.144   1.519  0.1816  0.2380  0.1714
16382SOL    HW260366   2.509   2.282   1.571  0.2533  0.0668  0.7227
16383SOL     OW60367   2.726   8.028   5.049 -0.4454 -0.3005 -0.4137
16383SOL    HW160368   2.755   7.932   5.055  0.9340  0.1160 -0.2098
16383SOL    HW260369   2.758   8.067   4.963 -1.2037 -0.0756 -0.5976
16384SOL     OW60370   4.691   9.557   5.499  0.3668  0.6130  0.0933
16384SOL    HW160371   4.698   9.637   5.439 -1.0543  0.9308  0.3512
16384SOL    HW260372   4.600   9.553   5.540  0.5936 -0.8596  0.4806
16385SOL     OW60373   3.048   5.091   0.567 -0.7620 -0.0704 -0.3777
16385SOL    HW160374   3.110   5.168   0.581  0.3054 -1.1734  1.0751
16385SOL    HW260375   2.987   5.111   0.490  0.6445  1.4910 -1.1088
16386SOL     OW60376   3.956   3.119   5.850  0.5417  0.3191  0.2655
16386SOL    HW160377   3.892   3.180   5.896  0.2092 -0.8464  1.3618
16386SOL    HW260378   4.049   3.139   5.880  0.6822  1.7908 -1.0795
16387SOL     OW60379   2.555   0.814   1.107 -0.2480  0.1107  0.0076
16387SOL    HW160380   2.527   0.875   1.181  1.2659 -0.3650  0.9812
16387SOL    HW260381   2.526   0.721   1.127 -1.4418  0.2697 -0.8845
16388SOL     OW60382   8.091   2.534   1.941  0.0621  0.2613 -0.1407
16388SOL    HW160383   8.155   2.512   1.868  0.0784  1.2772 -0.4493
16388SOL    HW260384   8.127   2.612   1.993 -0.5490  0.3329  0.1730
16389SOL     OW60385   9.251   7.110   4.958 -0.7131  0.0409 -0.3533
16389SOL    HW160386   9.260   7.037   4.890  1.0722  0.0460 -0.1443
16389SOL    HW260387   9.319   7.096   5.030 -0.8488  1.5034  0.0611
16390SOL     OW60388   7.645   3.585   1.289 -0.4305  0.3442  0.0938
16390SOL    HW160389   7.702   3.667   1.277 -0.4527  0.3394 -0.0517
16390SOL    HW260390   7.549   3.612   1.294 -0.8049  0.0700 -3.6444
16391SOL     OW60391   5.444   5.045   0.536 -0.0938 -0.4208 -0.1817
16391SOL    HW160392   5.437   5.106   0.458  1.1315 -0.3193 -0.2099
16391SOL    HW260393   5.353   5.008   0.558 -1.1123  2.5288  0.7537
16392SOL     OW60394   8.556   6.319   6.032  0.0999 -0.0941 -0.2460
16392SOL    HW160395   8.640   6.274   6.001  0.2570  0.7160 -1.0010
16392SOL    HW260396   8.560   6.330   6.131 -0.0510 -1.9661 -0.0105
16393SOL     OW60397   9.989   2.898   2.040  0.2162 -0.0213  0.0316
16393SOL    HW160398   9.902   2.878   1.996  0.2138  0.5085 -0.2106
16393SOL    HW260399  10.023   2.817   2.087  0.2039 -0.5720 -0.9173
16394SOL     OW60400   4.304   6.884   2.232 -0.8700 -0.0512 -0.0744
16394SOL    HW160401   4.306   6.829   2.148 -2.2424  1.8548 -1.3929
16394SOL    HW260402   4.382   6.945   2.235 -1.6833  1.0303 -0.7688
16395SOL     OW60403   9.267   5.305   6.698  0.2534 -0.2987  0.3878
16395SOL    HW160404   9.255   5.403   6.683 -0.3546 -0.5419 -0.7919
16395SOL    HW260405   9.365   5.284   6.706  0.4052  0.3499  0.2657
16396SOL     OW60406   0.428   7.695   6.276 -0.4252  0.1699 -0.0089
16396SOL    HW160407   0.417   7.755   6.197 -0.3170 -1.0872 -0.9878
16396SOL    HW260408   0.341   7.649   6.296 -0.1160 -0.5193 -0.2254
16397SOL     OW60409   0.896   2.231   0.456 -0.4394  0.2547 -0.3740
16397SOL    HW160410   0.883   2.188   0.367  1.5991 -1.4870  0.1194
16397SOL    HW260411   0.924   2.162   0.523  2.2163  2.1742  0.6039
16398SOL     OW60412   9.321   0.200   6.088  0.2368  0.2806  0.2170
16398SOL    HW160413   9.259   0.203   6.010 -0.8711 -1.0263  1.0371
16398SOL    HW260414   9.416   0.207   6.056 -0.2539  0.8588 -1.1400
16399SOL     OW60415   1.032   8.979   2.643 -0.7616  0.0233  0.4935
16399SOL    HW160416   1.056   8.883   2.661 -1.1457 -0.1112  0.3030
16399SOL    HW260417   0.970   9.011   2.715 -1.0635 -0.0383  0.2615
16400SOL     OW60418   7.821   5.574   0.720 -0.1999 -0.5842 -0.2032
16400SOL    HW160419   7.725   5.555   0.737 -0.2522 -0.0350  0.1412
16400SOL    HW260420   7.855   5.639   0.788  0.1116  0.1104 -0.9956
16401SOL     OW60421   9.112   1.791   0.263 -0.0111  0.1571 -0.0677
16401SOL    HW160422   9.180   1.865   0.265  0.4435 -0.1856 -1.8697
16401SOL    HW260423   9.139   1.723   0.195 -1.2353 -0.8957  0.4824
16402SOL     OW60424   8.637   2.948   5.910 -0.1828 -0.1842 -0.3168
16402SOL    HW160425   8.618   3.041   5.942 -1.3679 -0.2675 -0.7410
16402SOL    HW260426   8.610   2.883   5.980  0.6971 -0.2168  0.0021
16403SOL     OW60427   1.102   3.440   2.922  0.5629 -0.3431 -0.2699
16403SOL    HW160428   1.089   3.458   2.825  2.0619  0.0523 -0.4152
16403SOL    HW260429   1.150   3.353   2.934 -4.4526 -3.2310  0.3466
16404SOL     OW60430   3.056   8.920   5.478 -0.1316  0.0711 -0.3357
16404SOL    HW160431   3.048   8.969   5.565  0.4825 -0.8002  0.2316
16404SOL    HW260432   3.146   8.939   5.438 -0.5539  0.7588 -0.9645
16405SOL     OW60433   3.956   3.511   6.154  0.1955  0.4631  0.2159
16405SOL    HW160434   4.015   3.583   6.118 -0.9858  1.7933  0.8722
16405SOL    HW260435   3.911   3.463   6.079 -0.5662  1.7666 -0.1760
16406SOL     OW60436   0.433   0.549   1.176 -0.1233  0.1033 -0.2042
16406SOL    HW160437   0.354   0.495   1.148 -0.4906  0.0384  0.9533
16406SOL    HW260438   0.502   0.489   1.217 -0.6363  0.5376  1.3112
16407SOL     OW60439   0.657   4.740   2.349 -0.1047  0.5809  0.1251
16407SOL    HW160440   0.659   4.648   2.311 -0.3875  1.0174 -0.9910
16407SOL    HW260441   0.671   4.737   2.448  0.8940 -0.5721 -0.0496
16408SOL     OW60442   8.048   7.740   3.186 -0.1879 -0.0294  0.1538
16408SOL    HW160443   7.966   7.769   3.236  0.2067  1.8159 -0.2021
16408SOL    HW260444   8.027   7.735   3.089  0.5440  2.2278 -0.1556
16409SOL     OW60445   6.376   0.768   0.949 -0.2002 -0.2101 -0.4948
16409SOL    HW160446   6.456   0.812   0.909  0.2659  1.8519  2.5704
16409SOL    HW260447   6.297   0.828   0.940 -0.0652  0.3350  1.7070
16410SOL     OW60448   1.154   2.678   6.563 -0.2373  0.0800 -0.0671
16410SOL    HW160449   1.064   2.676   6.608 -1.0013  1.9715 -1.4460
16410SOL    HW260450   1.156   2.609   6.490 -0.3944 -0.2877  0.2718
16411SOL     OW60451   0.311   0.922   4.816  0.2216  0.2650  0.4728
16411SOL    HW160452   0.256   0.921   4.734 -0.4232  1.5799  0.8750
16411SOL    HW260453   0.374   1.000   4.814  1.9093 -1.0664  0.1295
16412SOL     OW60454   8.016   9.939   0.772 -0.0241 -0.0232  0.1744
16412SOL    HW160455   7.945   9.997   0.732 -1.2003 -0.2070  1.9675
16412SOL    HW260456   7.974   9.856   0.809  1.2833 -0.6777  0.2096
16413SOL     OW60457   2.835   1.476   5.789 -0.2855  0.4285 -0.1362
16413SOL    HW160458   2.761   1.540   5.807 -1.1559 -0.8741  1.0033
16413SOL    HW260459   2.822   1.433   5.700 -0.0858  1.2883 -0.5863
16414SOL     OW60460   9.354   4.076   5.060 -0.2665 -0.0677 -0.0142
16414SOL    HW160461   9.438   4.112   5.101 -0.2770  1.0687 -0.9512
16414SOL    HW260462   9.280   4.078   5.128 -0.6231  3.0513 -0.4133
16415SOL     OW60463   3.291   8.179   4.657  0.1522  0.0028 -0.4724
16415SOL    HW160464   3.321   8.086   4.638  0.4249  0.0276 -0.1610
16415SOL    HW260465   3.287   8.231   4.572  1.7282  0.2242 -0.4085
16416SOL     OW60466   1.647   0.111   4.481  0.1954 -0.8239  0.4031
16416SOL    HW160467   1.631   0.117   4.383  0.8867  0.2981  0.3428
16416SOL    HW260468   1.588   0.176   4.528  0.5860 -0.6405  0.6426
16417SOL     OW60469   9.176   1.074   3.995 -0.1766  0.3366  0.0188
16417SOL    HW160470   9.144   1.031   4.080  0.1181  1.0928  0.5181
16417SOL    HW260471   9.276   1.078   3.995 -0.2029  0.9762 -0.0504
16418SOL     OW60472   0.084   0.009   2.063 -0.5065  0.4793 -0.1157
16418SOL    HW160473  -0.001  -0.008   2.014  0.1925  0.4035 -1.3301
16418SOL    HW260474   0.087  -0.049   2.145 -1.6380  0.5213 -0.0338
16419SOL     OW60475   1.887   8.291   3.391 -0.0211  0.1087  0.8750
16419SOL    HW160476   1.957   8.262   3.457  0.4903 -1.3062 -0.2552
16419SOL    HW260477   1.923   8.366   3.336 -0.4806  1.3500  2.2446
16420SOL     OW60478   0.811   8.694   2.073  0.2794  0.6671 -0.1760
16420SOL    HW160479   0.900   8.739   2.066  0.6632 -0.0340  0.1928
16420SOL    HW260480   0.779   8.696   2.167 -1.8398  4.2176 -0.8704
16421SOL     OW60481   3.523   3.306   0.081 -0.4859  0.1512 -0.1349
16421SOL    HW160482   3.502   3.249   0.001  2.8476 -0.1859 -0.8487
16421SOL    HW260483   3.485   3.398   0.067  0.3382  0.1983 -2.3103
16422SOL     OW60484   9.167   7.470   3.809 -0.4960  0.1436  0.0490
16422SOL    HW160485   9.179   7.375   3.781  1.3848  0.5520 -0.5986
16422SOL    HW260486   9.254   7.519   3.802 -1.4523  1.9528  0.2808
16423SOL     OW60487   1.150   7.057   4.577  0.0855 -0.1096 -0.5123
16423SOL    HW160488   1.084   7.073   4.650  1.1318 -2.4473  0.9973
16423SOL    HW260489   1.211   7.135   4.569 -1.1333  0.8948 -0.0777
16424SOL     OW60490   0.963   8.201   0.983 -0.2701 -0.0904 -0.1125
16424SOL    HW160491   0.931   8.158   0.899  0.7775  0.8273 -1.0002
16424SOL    HW260492   1.059   8.178   0.998 -0.0529  0.9024  0.0626
16425SOL     OW60493   9.442   0.623   1.525  0.1005  0.4514  0.3095
16425SOL    HW160494   9.438   0.696   1.457  1.6781  1.5788  1.3779
16425SOL    HW260495   9.515   0.643   1.590  1.2051 -2.5961  0.0601
16426SOL     OW60496   4.404   1.003   6.412 -0.3855 -0.6809 -0.3613
16426SOL    HW160497   4.501   0.990   6.431 -0.8503  0.1608  2.8671
16426SOL    HW260498   4.373   1.088   6.456 -2.6650 -1.1127 -1.0763
16427SOL     OW60499   7.556   4.961   0.438  0.1792 -0.0555  0.7040
16427SOL    HW160500   7.482   4.905   0.401  0.8231 -0.0071 -0.6809
16427SOL    HW260501   7.536   5.057   0.422  0.9401 -0.0786 -0.4687
16428SOL     OW60502   2.735   0.341   3.662 -0.4490 -0.0913 -0.0375
16428SOL    HW160503   2.690   0.421   3.623 -0.0344  0.2391  0.1479
16428SOL    HW260504   2.667   0.283   3.706 -0.4932  1.3007  1.8052
16429SOL     OW60505   6.477   8.231   5.622 -0.4369 -0.0060 -0.0579
16429SOL    HW160506   6.388   8.205   5.585 -0.8722  0.3849  0.7109
16429SOL    HW260507   6.547   8.168   5.588 -0.8403  0.2979 -1.4821
16430SOL     OW60508   7.581   0.310   0.445  0.0470 -0.3635 -0.1503
16430SOL    HW160509   7.607   0.356   0.529 -2.4761  3.3310 -1.2563
16430SOL    HW260510   7.662   0.296   0.388  1.3003  0.0507  1.4952
16431SOL     OW60511   5.586   4.654  -0.004  0.1902  0.1722  0.6684
16431SOL    HW160512   5.526   4.589   0.044 -0.3561 -0.0187 -0.2620
16431SOL    HW260513   5.671   4.666   0.049 -0.2839 -0.2402  1.5418
16432SOL     OW60514   3.923   2.644   6.284  0.2507  0.4955 -0.3874
16432SOL    HW160515   3.888   2.726   6.330  2.1950  0.3976  1.3322
16432SOL    HW260516   4.008   2.666   6.237  1.7385 -0.8906  1.5597
16433SOL     OW60517   7.954   2.879   3.527 -0.0592 -0.1930  0.4287
16433SOL    HW160518   7.968   2.978   3.522  0.3808 -0.2976 -0.3844
16433SOL    HW260519   7.922   2.855   3.619  0.2354  0.6495  0.7578
16434SOL     OW60520   2.366   4.449   4.196 -0.2604 -0.2495 -0.2230
16434SOL    HW160521   2.457   4.410   4.181 -0.2176 -0.7932  1.3308
16434SOL    HW260522   2.297   4.379   4.175 -0.2904 -0.1676 -0.4000
16435SOL     OW60523   8.366   9.710   3.978 -0.3511 -0.5692  0.9344
16435SOL    HW160524   8.413   9.798   3.972  0.8354 -1.2306  0.3977
16435SOL    HW260525   8.289   9.709   3.915  0.9970 -0.7334 -0.7428
16436SOL     OW60526   7.959   3.620   6.418 -0.0057  0.2752  0.0935
16436SOL    HW160527   7.983   3.589   6.326 -1.2015 -1.4660  0.3422
16436SOL    HW260528   8.003   3.560   6.485  1.6476  2.1195  0.7014
16437SOL     OW60529   1.025   4.860   2.804 -0.7813 -0.1201 -0.1324
16437SOL    HW160530   1.008   4.869   2.706  1.0606  0.0749 -0.4401
16437SOL    HW260531   1.098   4.793   2.819  0.1165  1.1166  1.0246
16438SOL     OW60532   2.856   4.185   1.684  0.9095 -0.3537  0.1822
16438SOL    HW160533   2.891   4.266   1.636 -0.7405  0.2909  0.0451
16438SOL    HW260534   2.757   4.181   1.675  1.0215 -2.7526 -0.3709
16439SOL     OW60535   8.305   4.427   3.728 -0.2015  0.2237 -0.2519
16439SOL    HW160536   8.285   4.485   3.807 -0.7253  1.0441 -0.9805
16439SOL    HW260537   8.380   4.467   3.675 -0.8399  0.4670 -0.9886
16440SOL     OW60538   0.237   1.585   5.741 -0.4816  0.3029 -0.1874
16440SOL    HW160539   0.320   1.633   5.714 -0.8429  0.9360 -0.1877
16440SOL    HW260540   0.260   1.494   5.774  0.2895  0.7819  0.6060
16441SOL     OW60541   8.957   2.308   5.105  0.4053  0.6549 -0.4411
16441SOL    HW160542   8.925   2.402   5.117 -0.3623  0.0746  2.3706
16441SOL    HW260543   8.879   2.250   5.082  0.2082  0.0714  1.6262
16442SOL     OW60544   5.067   0.414   1.945  0.3291  0.6046  0.0416
16442SOL    HW160545   5.010   0.394   1.865 -0.0194  1.2801  0.1207
16442SOL    HW260546   5.082   0.513   1.951  0.2743  0.5631  0.8663
16443SOL     OW60547   1.061   0.529   1.875  0.3803  0.3872 -0.8607
16443SOL    HW160548   1.078   0.431   1.869 -0.5937  0.2670 -1.8398
16443SOL    HW260549   1.086   0.562   1.966  0.5650 -0.7880 -0.4760
16444SOL     OW60550   3.987   2.165   6.511  0.2306 -0.0137 -0.0330
16444SOL    HW160551   4.018   2.260   6.517 -1.5101  0.7762 -2.7055
16444SOL    HW260552   4.066   2.105   6.493  0.9664  1.2877 -1.2250
16445SOL     OW60553   0.248   3.015   4.921  0.1749  0.3005  0.3978
16445SOL    HW160554   0.281   3.088   4.981  1.9020  0.0217 -0.1928
16445SOL    HW260555   0.324   2.957   4.894 -1.0060 -1.0825 -0.0382
16446SOL     OW60556   9.049   6.271   4.031 -0.6903  0.2297 -0.4227
16446SOL    HW160557   8.989   6.191   4.033  0.0311 -0.2996  0.5979
16446SOL    HW260558   9.143   6.242   4.049 -0.6953  1.5506  1.9500
16447SOL     OW60559   6.672   8.792   4.381 -0.0949  0.3977  0.2175
16447SOL    HW160560   6.650   8.840   4.296 -1.0099 -0.0740  0.1761
16447SOL    HW260561   6.601   8.812   4.449 -0.9575 -1.5782 -0.0805
16448SOL     OW60562   3.423   7.017   2.279 -0.0033  0.2993  0.2701
16448SOL    HW160563   3.336   7.014   2.229  1.6076  0.3606 -2.6536
16448SOL    HW260564   3.446   6.924   2.309  0.1011 -0.1454 -1.1215
16449SOL     OW60565   8.788   7.431   2.582  0.3361 -0.2399 -0.1150
16449SOL    HW160566   8.848   7.482   2.644 -1.3792  0.8420  0.7112
16449SOL    HW260567   8.704   7.483   2.567 -0.1660 -1.4657 -1.6880
16450SOL     OW60568   9.757   5.060   2.268  0.3275 -0.2444  0.4086
16450SOL    HW160569   9.685   5.074   2.335  1.3271 -0.0038  1.4421
16450SOL    HW260570   9.827   5.131   2.278  0.6101 -0.3463 -0.7252
16451SOL     OW60571   9.523   6.218   5.916  0.0571 -0.0755 -0.6009
16451SOL    HW160572   9.623   6.209   5.914  0.1242  0.0609  1.1406
16451SOL    HW260573   9.499   6.315   5.927 -0.2596 -0.1988 -0.2164
16452SOL     OW60574   4.699   5.100   5.715  0.1096 -0.6073  0.5531
16452SOL    HW160575   4.605   5.126   5.733 -0.0938 -1.2379  0.4268
16452SOL    HW260576   4.719   5.110   5.618  0.3920  0.2236  0.6973
16453SOL     OW60577   7.864   0.023   5.185  0.0249 -0.1043  0.1521
16453SOL    HW160578   7.815   0.076   5.116  2.0504 -0.3020 -1.4876
16453SOL    HW260579   7.923   0.083   5.238 -0.5627 -0.1520  0.8667
16454SOL     OW60580   2.607   2.703   6.689 -0.2606 -0.0243  0.3562
16454SOL    HW160581   2.594   2.608   6.660 -2.0828 -0.3572  2.1158
16454SOL    HW260582   2.533   2.729   6.752  1.2897  1.9411  1.4230
16455SOL     OW60583   0.584   3.330   6.570 -0.4141 -0.2789  0.5379
16455SOL    HW160584   0.527   3.325   6.488  1.9408  0.0175 -1.1678
16455SOL    HW260585   0.615   3.239   6.595  0.9093 -0.0832 -0.3838
16456SOL     OW60586   1.480   7.551   0.142 -0.2586  0.1093  0.0584
16456SOL    HW160587   1.566   7.501   0.139 -0.0848  0.1236  3.0392
16456SOL    HW260588   1.460   7.590   0.052  1.8322 -1.5454 -1.1504
16457SOL     OW60589   8.988   1.569   6.047  0.5243  0.1054  0.1176
16457SOL    HW160590   8.995   1.660   6.007  0.3567  0.1946  0.2893
16457SOL    HW260591   8.892   1.539   6.046  0.6879 -0.4115 -0.6931
16458SOL     OW60592   0.495   3.942   4.400  0.4109 -0.1141  0.0772
16458SOL    HW160593   0.454   4.029   4.426  0.2021 -0.2669  0.2622
16458SOL    HW260594   0.491   3.879   4.477 -1.0766 -0.8780 -0.5981
16459SOL     OW60595   0.094   5.344   6.382 -0.6908 -0.4119  0.4104
16459SOL    HW160596   0.042   5.384   6.458 -0.7269 -0.3908  0.3743
16459SOL    HW260597   0.121   5.251   6.407 -0.4006 -0.2787  0.5921
16460SOL     OW60598   1.219   4.575   0.692  0.1079  0.5166  0.1764
16460SOL    HW160599   1.208   4.544   0.597  1.1361 -0.3839  0.3478
16460SOL    HW260600   1.270   4.507   0.744 -1.5250  0.4155  1.7107
16461SOL     OW60601   1.947   0.399   1.536  0.7121 -0.4769  0.3624
16461SOL    HW160602   1.914   0.423   1.628  0.1107 -0.1337  0.0560
16461SOL    HW260603   2.035   0.352   1.544  0.2436 -1.2406  1.1766
16462SOL     OW60604   4.460   8.737   4.481 -0.1493 -0.3568  0.3596
16462SOL    HW160605   4.483   8.744   4.578  1.5877 -0.3278 -0.0350
16462SOL    HW260606   4.466   8.641   4.452 -0.0078 -0.2783  0.1268
16463SOL     OW60607   1.824   4.959   4.725  0.2952 -0.0160  0.1047
16463SOL    HW160608   1.750   5.003   4.775  1.1231  2.9841 -1.2136
16463SOL    HW260609   1.912   4.997   4.756  1.0704 -1.1342 -0.6893
16464SOL     OW60610   1.703   5.504   6.341  0.7479 -0.1727  0.5666
16464SOL    HW160611   1.717   5.602   6.327  1.1771 -0.5125 -1.5164
16464SOL    HW260612   1.770   5.453   6.287  0.2089 -1.6348  1.2557
16465SOL     OW60613   8.254   0.961   6.305 -0.5228 -0.2353  0.3261
16465SOL    HW160614   8.344   0.988   6.340 -0.6652  1.9418 -0.9316
16465SOL    HW260615   8.264   0.879   6.249  0.2253 -1.6954  2.5159
16466SOL     OW60616   4.093   4.803   1.074 -0.5962  0.1487  0.5888
16466SOL    HW160617   4.026   4.763   1.137 -1.7094  0.3781 -0.4478
16466SOL    HW260618   4.050   4.873   1.018  0.7495  1.0059  0.5914
16467SOL     OW60619   0.385   0.084   3.767  0.2509  0.0745 -0.1581
16467SOL    HW160620   0.363   0.105   3.672  2.7844  1.5297 -0.4751
16467SOL    HW260621   0.344   0.153   3.827 -0.1175 -0.0036 -0.3199
16468SOL     OW60622   2.522   6.348   3.314  0.1009 -0.2956  0.1832
16468SOL    HW160623   2.570   6.288   3.250 -0.3727 -0.7679  0.2692
16468SOL    HW260624   2.425   6.350   3.291  0.1774  0.8015 -0.1108
16469SOL     OW60625   8.088   6.570   5.042 -0.5052  0.1948  0.2428
16469SOL    HW160626   8.079   6.580   4.943  1.0086  0.3699  0.1162
16469SOL    HW260627   8.117   6.657   5.082  2.7285 -0.8985  0.3709
16470SOL     OW60628   3.839   7.090   1.058 -0.1822 -0.5946 -0.0125
16470SOL    HW160629   3.816   7.172   1.005  2.2627  0.6289  0.7806
16470SOL    HW260630   3.785   7.089   1.142 -0.1544  0.2531  0.0190
16471SOL     OW60631   1.402   5.991   2.182  0.5420 -0.0098 -0.6409
16471SOL    HW160632   1.418   5.999   2.280  0.1171  1.3726 -0.6802
16471SOL    HW260633   1.465   6.051   2.132  0.9776 -0.9409 -1.2458
16472SOL     OW60634   9.159   9.112   2.709  0.4304 -0.0157  0.2808
16472SOL    HW160635   9.103   9.031   2.691  1.0334 -0.1913 -0.8492
16472SOL    HW260636   9.207   9.100   2.796  0.8887 -1.0967 -0.1080
16473SOL     OW60637   0.716   8.065   1.791 -0.5286  0.2573 -0.0918
16473SOL    HW160638   0.741   8.091   1.885  0.8427  3.4520 -1.2677
16473SOL    HW260639   0.792   8.017   1.749 -0.2613  0.8326 -0.2795
16474SOL     OW60640   6.167   1.620   4.667  0.0611 -0.1923 -0.5087
16474SOL    HW160641   6.086   1.566   4.689  1.0410 -1.8104 -0.7951
16474SOL    HW260642   6.173   1.632   4.568 -0.0991  0.3615 -0.4530
16475SOL     OW60643   0.653   7.077   3.972 -0.3341  0.1020 -0.1824
16475SOL    HW160644   0.574   7.133   3.998  0.1399  0.1355  1.2039
16475SOL    HW260645   0.697   7.041   4.054  1.7533  0.9776 -0.8953
16476SOL     OW60646   8.071   5.824   5.729 -0.2071  0.6217 -0.1745
16476SOL    HW160647   7.986   5.819   5.782 -1.6676  0.1732 -2.4426
16476SOL    HW260648   8.103   5.919   5.726 -2.1816  1.2928 -1.5479
16477SOL     OW60649   0.958   7.531   4.143  0.0824  0.1080 -0.1650
16477SOL    HW160650   0.915   7.578   4.065 -2.2039 -0.3475  0.7723
16477SOL    HW260651   0.983   7.438   4.116  0.3425  0.3166 -0.6652
16478SOL     OW60652   9.037   3.551   2.249 -0.3051  0.0204 -0.2773
16478SOL    HW160653   9.117   3.515   2.200 -0.7431  0.2262 -1.1480
16478SOL    HW260654   9.058   3.557   2.347  0.7850  0.1631 -0.5110
16479SOL     OW60655   7.680   3.385   6.550 -0.4577 -0.2002  0.6177
16479SOL    HW160656   7.733   3.467   6.568  0.2697 -0.5198  0.0071
16479SOL    HW260657   7.730   3.328   6.484 -2.4661  0.4250 -1.5177
16480SOL     OW60658   8.794   2.370   5.627  0.0261  0.5260  0.4862
16480SOL    HW160659   8.762   2.338   5.717 -1.8746  2.1931  0.4300
16480SOL    HW260660   8.743   2.323   5.555  0.0946  0.7026  0.3201
16481SOL     OW60661   2.266   1.202   5.014 -0.2156 -0.1711  0.0003
16481SOL    HW160662   2.321   1.152   4.947  1.3242  1.6639 -0.1493
16481SOL    HW260663   2.313   1.202   5.102 -0.6093  0.2932  0.2124
16482SOL     OW60664   5.614   0.653   4.759 -0.5014 -0.6335 -0.3176
16482SOL    HW160665   5.536   0.641   4.820 -0.4600  0.2027 -0.1001
16482SOL    HW260666   5.668   0.732   4.789  1.0305 -1.8538  0.1774
16483SOL     OW60667   1.476   0.117   2.003  0.3434  0.3347  0.0924
16483SOL    HW160668   1.530   0.187   1.956 -1.5116  0.4021 -2.0219
16483SOL    HW260669   1.453   0.149   2.095 -1.0728  2.8379 -1.0745
16484SOL     OW60670   2.258   7.503   2.122 -0.5682 -0.2007 -0.1224
16484SOL    HW160671   2.209   7.462   2.045 -0.3778 -0.2477 -0.2202
16484SOL    HW260672   2.251   7.603   2.117  1.4247 -0.1086 -1.5284
16485SOL     OW60673   8.064   1.943   5.951 -0.1832 -0.0499  0.1783
16485SOL    HW160674   7.981   1.995   5.972 -0.1936  0.7577 -1.7722
16485SOL    HW260675   8.133   1.961   6.021 -0.8724  1.0475  0.5839
16486SOL     OW60676   7.715   2.299   3.107 -0.4323  0.0687 -0.3500
16486SOL    HW160677   7.651   2.233   3.068 -0.0724 -0.9153  0.7014
16486SOL    HW260678   7.668   2.355   3.175 -0.3858 -0.0329 -0.2360
16487SOL     OW60679   7.522   2.822   4.535  0.3644  0.3227 -0.4154
16487SOL    HW160680   7.566   2.897   4.485  0.1114  0.7217 -0.0413
16487SOL    HW260681   7.428   2.812   4.504  0.9436 -1.0576 -1.7918
16488SOL     OW60682   2.571   1.809   3.839 -0.1426 -0.1553 -0.5325
16488SOL    HW160683   2.640   1.838   3.906  1.6386  0.6233 -2.6123
16488SOL    HW260684   2.482   1.800   3.884  0.6605  1.9241  1.6027
16489SOL     OW60685   2.995   6.073   2.034  0.6136  0.1837  0.0730
16489SOL    HW160686   3.026   6.030   2.119 -0.2143  2.2126  1.4284
16489SOL    HW260687   3.071   6.121   1.992  0.7215  0.2091  0.2975
16490SOL     OW60688   3.605   6.036   4.762  0.5570  0.2364 -0.4686
16490SOL    HW160689   3.650   6.124   4.775  0.1624  0.3351  0.2663
16490SOL    HW260690   3.645   5.989   4.684  1.0974  0.8573 -0.5658
16491SOL     OW60691   1.406   0.722   1.001 -0.0841 -0.1975 -0.4769
16491SOL    HW160692   1.453   0.702   0.915  1.3743 -1.5040  0.5827
16491SOL    HW260693   1.384   0.636   1.048  0.1169  0.5156  0.9629
16492SOL     OW60694   1.738   3.733   3.801  0.4256  0.7181 -0.3283
16492SOL    HW160695   1.779   3.822   3.820  1.4045 -0.0122  1.0960
16492SOL    HW260696   1.785   3.662   3.854  0.1863 -0.7679 -2.0258
16493SOL     OW60697   3.373   0.222   5.631  0.1519  0.0131 -0.1619
16493SOL    HW160698   3.405   0.211   5.725 -3.2699  1.3852  1.2842
16493SOL    HW260699   3.400   0.143   5.576  2.2730 -0.7786  1.9505
16494SOL     OW60700   1.741   8.077   2.032  0.5836 -0.2608 -0.6692
16494SOL    HW160701   1.751   7.983   1.997  1.8978 -0.6482  0.7188
16494SOL    HW260702   1.784   8.084   2.122 -1.0872  1.2183  0.0464
16495SOL     OW60703   6.167   9.315   2.204 -0.6469  0.1797 -0.1814
16495SOL    HW160704   6.244   9.335   2.144  0.1268 -2.1736 -0.0172
16495SOL    HW260705   6.188   9.343   2.297 -0.2365  0.1322 -0.2610
16496SOL     OW60706   4.284   9.157   6.493 -0.3593  0.1683 -0.4374
16496SOL    HW160707   4.361   9.219   6.506  0.1093 -0.5585  0.2797
16496SOL    HW260708   4.281   9.091   6.568 -1.1891 -0.3277 -0.8992
16497SOL     OW60709   3.801   7.958   2.774  0.0679  0.0812 -0.2072
16497SOL    HW160710   3.820   7.895   2.848 -0.5067 -1.7460 -1.5659
16497SOL    HW260711   3.846   7.926   2.690 -0.1452  1.5325 -0.8969
16498SOL     OW60712   3.044   2.184   0.445  0.0187  0.4181  0.6004
16498SOL    HW160713   3.002   2.213   0.359 -1.9166  1.2089  1.8013
16498SOL    HW260714   3.075   2.089   0.436 -1.9081 -0.1400 -0.3529
16499SOL     OW60715   8.432   2.570   6.599 -0.5933  0.0526  0.4276
16499SOL    HW160716   8.357   2.636   6.600  0.4448  1.2713 -0.0388
16499SOL    HW260717   8.510   2.608   6.648  1.5716  1.1181 -3.5902
16500SOL     OW60718   1.079   5.424   2.546  0.1306 -0.1330  0.2439
16500SOL    HW160719   1.130   5.496   2.499  0.7319  0.6127  1.9605
16500SOL    HW260720   1.099   5.336   2.505 -0.8337  0.7002 -2.0796
16501SOL     OW60721   1.500   4.705   0.742  0.1332  0.5945  0.3731
16501SOL    HW160722   1.402   4.717   0.755  0.1247  0.6458  0.2624
16501SOL    HW260723   1.524   4.608   0.753 -0.0841  0.4234 -0.6255
16502SOL     OW60724   0.743   1.341   5.707 -0.2234 -0.2576 -0.5904
16502SOL    HW160725   0.678   1.375   5.639  0.8658 -0.2946 -1.6832
16502SOL    HW260726   0.790   1.260   5.670 -1.3620 -1.7734  1.1867
16503SOL     OW60727   4.635   8.215   1.896 -0.4884  0.4036 -0.3854
16503SOL    HW160728   4.578   8.267   1.960  0.0242  0.6946 -0.1645
16503SOL    HW260729   4.705   8.166   1.947 -1.8886 -1.7019 -0.4525
16504SOL     OW60730   9.664   3.056   0.854  0.6177  0.7087  0.1070
16504SOL    HW160731   9.739   3.094   0.800 -0.0060 -0.4266 -1.6015
16504SOL    HW260732   9.580   3.107   0.835  0.3416  0.1453 -0.1877
16505SOL     OW60733   7.428   8.043   5.242  0.1242 -0.6753 -0.2944
16505SOL    HW160734   7.367   8.104   5.191  1.4721 -0.1622 -1.3134
16505SOL    HW260735   7.512   8.029   5.190  1.2808 -0.6177  1.5174
16506SOL     OW60736   7.365   3.111   0.032 -0.3975  0.0086 -0.0006
16506SOL    HW160737   7.459   3.108  -0.002  0.0758 -0.0781  1.2919
16506SOL    HW260738   7.303   3.129  -0.044  0.7950  1.5810 -0.6232
16507SOL     OW60739   0.964   7.092   3.354  0.5113  0.6325  0.0625
16507SOL    HW160740   0.930   7.041   3.434 -0.7713  2.1185  0.4973
16507SOL    HW260741   0.917   7.180   3.349  2.9356  1.9258 -0.4882
16508SOL     OW60742   1.131   4.842   4.723  0.0487 -0.2289  0.2222
16508SOL    HW160743   1.084   4.836   4.811  0.4486 -0.8281  0.4008
16508SOL    HW260744   1.183   4.758   4.708  0.1740 -0.0265 -0.4776
16509SOL     OW60745   4.459   8.698   4.149 -0.1785 -0.7186  0.1095
16509SOL    HW160746   4.384   8.648   4.107 -0.9368 -0.8806  1.6258
16509SOL    HW260747   4.441   8.710   4.247  1.4695 -0.2195  0.3732
16510SOL     OW60748   8.821   7.602   5.745  0.4066 -0.1099  0.5592
16510SOL    HW160749   8.917   7.623   5.724  0.0229  1.0203 -0.1091
16510SOL    HW260750   8.817   7.518   5.799  1.5716 -2.1308 -2.3695
16511SOL     OW60751   9.634   4.825   3.251 -0.3080  0.0580 -0.2271
16511SOL    HW160752   9.548   4.782   3.277 -0.5911 -0.3933 -1.8316
16511SOL    HW260753   9.631   4.922   3.272 -1.0893 -0.0186  0.0183
16512SOL     OW60754   1.528   6.788   1.730 -0.0109 -0.1448 -0.4643
16512SOL    HW160755   1.585   6.870   1.734 -0.3316 -0.0051  3.4498
16512SOL    HW260756   1.587   6.707   1.723  0.5644  0.1630  0.6476
16513SOL     OW60757   9.923   6.501   5.746  0.6110 -0.0926  0.1379
16513SOL    HW160758   9.855   6.502   5.673  1.0349  0.4994 -0.2488
16513SOL    HW260759   9.916   6.586   5.798  0.7060 -0.2607  0.4285
16514SOL     OW60760   9.490   1.467   4.357  0.6659 -0.0991  0.1275
16514SOL    HW160761   9.452   1.398   4.296  0.1258 -0.5770  0.9866
16514SOL    HW260762   9.550   1.423   4.424  0.8943  0.3597  0.2262
16515SOL     OW60763   1.748   9.692   6.431  0.2605  0.1137  0.3709
16515SOL    HW160764   1.818   9.753   6.393  0.5392 -0.2230  0.3442
16515SOL    HW260765   1.696   9.651   6.357  0.0663  0.3228  0.3897
16516SOL     OW60766   2.271   0.016   2.081  0.4097 -0.4319 -1.2301
16516SOL    HW160767   2.322   0.054   2.004 -0.3798  0.1654 -1.4575
16516SOL    HW260768   2.186  -0.024   2.049 -0.1494  0.2391 -0.6139
16517SOL     OW60769   8.007   2.730   4.184  0.6840  0.6620 -0.1077
16517SOL    HW160770   8.047   2.764   4.100  2.2318  1.0999  0.7897
16517SOL    HW260771   7.933   2.666   4.163  1.6388  0.1008 -1.7778
16518SOL     OW60772   6.423   7.624   5.366 -0.1068 -0.3189 -0.5070
16518SOL    HW160773   6.430   7.645   5.463 -2.1023  0.4690 -0.4975
16518SOL    HW260774   6.495   7.560   5.340  0.6606 -0.2713  1.4029
16519SOL     OW60775   6.887   8.894   6.088  0.6339 -0.0276  0.0251
16519SOL    HW160776   6.869   8.840   6.005  2.1045 -0.6871  0.1300
16519SOL    HW260777   6.803   8.942   6.115 -0.4403 -1.5023 -0.6134
16520SOL     OW60778   9.963   4.650   6.382  0.3076  0.3688  0.1669
16520SOL    HW160779   9.989   4.570   6.437  0.2140  0.4927  0.3929
16520SOL    HW260780   9.864   4.656   6.379  0.2887 -0.3688 -1.0812
16521SOL     OW60781   9.776   0.743   0.556  0.9111 -0.2276 -0.1143
16521SOL    HW160782   9.734   0.659   0.522  0.7955 -0.8003  1.4019
16521SOL    HW260783   9.851   0.720   0.618  2.7560  0.7887 -1.9073
16522SOL     OW60784   0.008   6.923   4.152  0.0287  0.3107 -0.4436
16522SOL    HW160785   0.107   6.910   4.143  0.0959  1.3661 -1.4575
16522SOL    HW260786  -0.031   6.945   4.062 -1.0726  0.2338  0.0079
16523SOL     OW60787   1.569   4.226   1.766 -0.1518 -0.6806  0.9479
16523SOL    HW160788   1.515   4.204   1.848 -1.2241  1.2032  0.7644
16523SOL    HW260789   1.558   4.322   1.743  2.1577 -0.5930  0.0366
16524SOL     OW60790   8.727   2.512   4.841  0.3246  0.1892  0.0856
16524SOL    HW160791   8.769   2.504   4.931  0.3196 -1.5970 -0.0482
16524SOL    HW260792   8.795   2.497   4.770  0.8376  3.9275 -0.3097
16525SOL     OW60793   9.942   8.281   0.337  0.2301  0.3278 -0.0199
16525SOL    HW160794   9.944   8.187   0.372  2.1849  0.6750  0.8124
16525SOL    HW260795   9.961   8.280   0.239 -2.9204 -0.4126 -0.6926
16526SOL     OW60796   1.591   3.458   5.845 -0.3444 -0.3118  0.2001
16526SOL    HW160797   1.675   3.431   5.892 -0.1121  0.2118  0.0898
16526SOL    HW260798   1.614   3.488   5.752 -1.1094 -4.1877 -1.3241
16527SOL     OW60799   4.303   8.910   0.225  0.4313  0.1289  0.7956
16527SOL    HW160800   4.244   8.870   0.295 -0.4186 -0.6996 -0.3737
16527SOL    HW260801   4.347   8.837   0.173 -0.4894  0.7217 -0.8319
16528SOL     OW60802   9.978   3.483   2.296 -0.8324 -0.2742  0.1790
16528SOL    HW160803   9.987   3.512   2.200  1.0825  0.4351  0.5553
16528SOL    HW260804   9.958   3.562   2.353  2.3206  0.0750  0.9192
16529SOL     OW60805   3.480   7.742   4.243  0.1610 -0.2320  0.6055
16529SOL    HW160806   3.575   7.770   4.257 -0.6823  2.0162  2.1175
16529SOL    HW260807   3.457   7.750   4.146  1.1601  0.4679  0.4203
16530SOL     OW60808   7.251   0.441   5.105 -0.3371  0.4626 -0.2434
16530SOL    HW160809   7.327   0.379   5.084  0.3842  1.8620 -1.8523
16530SOL    HW260810   7.276   0.501   5.180 -0.6370 -0.4195  0.5870
16531SOL     OW60811   1.023   3.657   4.296  0.1906  0.4795  0.1861
16531SOL    HW160812   1.083   3.642   4.375 -0.4438  0.3569  0.6432
16531SOL    HW260813   1.079   3.676   4.215  0.8157  2.5887  1.0657
16532SOL     OW60814   3.178   9.895   0.657  0.6173 -0.1836  0.1776
16532SOL    HW160815   3.267   9.852   0.642 -0.5808 -2.5154 -0.4557
16532SOL    HW260816   3.161   9.963   0.585  1.9630  0.4446  0.4382
16533SOL     OW60817   3.204   3.567   3.539  0.6245  0.3113 -0.6167
16533SOL    HW160818   3.242   3.480   3.572 -0.4575 -0.2469 -0.8104
16533SOL    HW260819   3.213   3.636   3.610 -0.2879 -0.4762  0.2829
16534SOL     OW60820   4.550   8.323   4.037  0.3289 -0.5110  0.0819
16534SOL    HW160821   4.627   8.258   4.034  1.2110  0.4593  1.2848
16534SOL    HW260822   4.577   8.405   4.087 -1.9208 -0.7073  1.7220
16535SOL     OW60823   0.568   0.073   3.030 -0.5544  0.0857  0.5615
16535SOL    HW160824   0.556   0.017   2.948 -2.3540  0.0519  0.8338
16535SOL    HW260825   0.515   0.034   3.105 -1.6106  1.9983  0.8288
16536SOL     OW60826   7.113   3.968   0.322 -0.6021  0.2976 -0.2752
16536SOL    HW160827   7.045   4.026   0.367 -0.5911 -1.2925  1.9138
16536SOL    HW260828   7.067   3.888   0.282 -0.0430 -1.0010  1.5813
16537SOL     OW60829   7.401   6.303   5.489 -0.2069  0.2432 -0.1638
16537SOL    HW160830   7.485   6.261   5.453 -0.7254 -0.0547 -1.0284
16537SOL    HW260831   7.361   6.362   5.419 -0.4529  0.7760  0.4259
16538SOL     OW60832   0.936   2.782   1.975 -0.4422 -0.8772  0.6269
16538SOL    HW160833   0.931   2.689   1.939 -2.5781 -1.3461  2.0244
16538SOL    HW260834   0.844   2.813   2.000  0.0619  2.0946 -0.9645
16539SOL     OW60835   1.709   9.216   4.782 -0.6182 -0.4017  0.0290
16539SOL    HW160836   1.756   9.182   4.864 -1.3790  0.5679  0.8854
16539SOL    HW260837   1.775   9.230   4.709 -0.0530 -2.1278  0.1831
16540SOL     OW60838   4.077   4.681   0.690  0.4481 -0.0014  0.2409
16540SOL    HW160839   4.136   4.761   0.675 -0.6404  1.0738  1.5533
16540SOL    HW260840   4.127   4.612   0.742  0.1008  1.5238  2.6572
16541SOL     OW60841   9.184   1.950   2.015  0.0725  0.6487 -0.0235
16541SOL    HW160842   9.127   1.929   2.094 -0.1634  1.1613 -0.0541
16541SOL    HW260843   9.185   2.049   2.000 -0.7072  0.4822 -1.2781
16542SOL     OW60844   4.969   7.865   4.202  0.2770  0.3766 -0.4199
16542SOL    HW160845   4.939   7.870   4.106 -1.1541 -0.7765 -0.0518
16542SOL    HW260846   4.996   7.772   4.224  0.3188  0.5749  0.3761
16543SOL     OW60847   2.393   8.496   5.002  0.1075 -0.4792 -0.6329
16543SOL    HW160848   2.330   8.441   5.057 -0.9111  1.5003  0.2543
16543SOL    HW260849   2.467   8.529   5.061 -0.4134  0.7786 -0.6623
16544SOL     OW60850   8.311   5.959   3.683  0.2214 -0.4654 -0.1652
16544SOL    HW160851   8.276   5.996   3.598  0.9475 -1.3428 -0.8530
16544SOL    HW260852   8.319   5.860   3.676 -0.1144 -0.5868  1.0659
16545SOL     OW60853   9.691   6.008   2.244 -0.5736 -0.1875  0.1938
16545SOL    HW160854   9.702   6.032   2.341 -0.9400  0.6910  0.0194
16545SOL    HW260855   9.604   5.959   2.232 -0.2245 -0.8659  0.4109
16546SOL     OW60856   9.687   1.631   2.163  0.0264 -0.2018  0.1313
16546SOL    HW160857   9.767   1.602   2.215 -1.2312  1.2280  2.9430
16546SOL    HW260858   9.612   1.567   2.179 -0.7306  0.9092  1.0323
16547SOL     OW60859   0.495   7.002   3.747  0.3744  0.0931 -0.3189
16547SOL    HW160860   0.428   7.076   3.739  0.4901  0.2145 -0.1699
16547SOL    HW260861   0.544   7.011   3.834  0.0925 -0.4072 -0.1106
16548SOL     OW60862   4.710   1.080   0.449  0.4563  0.2224 -0.5310
16548SOL    HW160863   4.753   1.104   0.362  2.0941  0.1199  0.2371
16548SOL    HW260864   4.665   1.161   0.487 -1.3513 -0.0233 -2.0514
16549SOL     OW60865   7.240   1.876   3.625 -0.6409 -0.5204 -0.3182
16549SOL    HW160866   7.318   1.883   3.564 -0.6834 -1.1578 -0.4490
16549SOL    HW260867   7.271   1.852   3.717 -0.3601  2.5882  0.4716
16550SOL     OW60868   1.769   8.003   3.716 -0.0047  0.5811  0.2113
16550SOL    HW160869   1.671   8.008   3.736 -0.3022 -0.8525 -0.8063
16550SOL    HW260870   1.783   7.966   3.624  1.5089 -0.9926  1.0427
16551SOL     OW60871   9.983   7.378   6.253 -0.4456 -0.3233 -0.2230
16551SOL    HW160872   9.907   7.397   6.316  0.3662 -0.5067  0.8175
16551SOL    HW260873  10.044   7.457   6.249 -0.6674 -0.1799 -1.0557
16552SOL     OW60874   9.079   5.767   3.536 -0.2366  0.4681  0.1366
16552SOL    HW160875   9.135   5.848   3.556  1.2019 -0.6205  0.5788
16552SOL    HW260876   9.065   5.761   3.437  0.8668  0.4708 -0.0297
16553SOL     OW60877   4.093   0.569   0.676 -0.9753  0.6306 -0.5996
16553SOL    HW160878   4.079   0.665   0.650  0.5342  0.6041 -1.5562
16553SOL    HW260879   4.128   0.565   0.769 -0.2707  1.0621 -0.8404
16554SOL     OW60880   3.712   0.108   0.341 -0.1651 -0.5224  0.3230
16554SOL    HW160881   3.772   0.150   0.409 -0.9940 -0.8822  1.2869
16554SOL    HW260882   3.767   0.062   0.271  0.6993  0.2969  0.4527
16555SOL     OW60883   8.248   2.139   0.118  0.2175 -0.0110 -0.0683
16555SOL    HW160884   8.173   2.124   0.182  0.7544 -1.0328  0.3264
16555SOL    HW260885   8.268   2.237   0.113  0.0034  0.0985  1.1237
16556SOL     OW60886   7.219   8.246   4.638 -0.1962 -1.0050 -0.6570
16556SOL    HW160887   7.272   8.286   4.712  0.4400  0.4652 -1.8991
16556SOL    HW260888   7.216   8.146   4.650  1.0851 -0.9136  0.5555
16557SOL     OW60889   2.942   5.841   3.077 -0.0635  0.2712  0.4713
16557SOL    HW160890   2.898   5.827   3.166  0.4544  1.6407  0.9504
16557SOL    HW260891   2.873   5.869   3.010  0.0442  2.2660  1.1852
16558SOL     OW60892   9.200   9.196   3.007  0.4062  0.2930 -0.2560
16558SOL    HW160893   9.109   9.210   2.970  1.4582  0.7846 -2.7418
16558SOL    HW260894   9.217   9.099   3.020 -0.8664  0.2622  1.3098
16559SOL     OW60895   9.301   9.281   5.269  0.4163 -0.2202 -0.1474
16559SOL    HW160896   9.368   9.336   5.318  0.4355 -0.2378 -0.1535
16559SOL    HW260897   9.344   9.197   5.235  0.7199  0.4150 -1.3245
16560SOL     OW60898   2.079   7.691   2.989 -0.2513  0.2511  0.1101
16560SOL    HW160899   2.164   7.728   3.026 -0.0154  0.1356 -0.3020
16560SOL    HW260900   2.100   7.638   2.906 -0.6946  0.0033  0.1577
16561SOL     OW60901   1.260   4.661   5.461  0.4423 -0.0216 -0.5293
16561SOL    HW160902   1.209   4.722   5.399  0.5749  1.3049  0.6417
16561SOL    HW260903   1.353   4.695   5.472  0.4822 -0.3679  0.2326
16562SOL     OW60904   4.485   1.261   0.715 -0.0579 -0.4236  0.2269
16562SOL    HW160905   4.538   1.195   0.768 -0.6802 -0.6620  0.5536
16562SOL    HW260906   4.462   1.220   0.626 -3.5644 -2.0803  1.8055
16563SOL     OW60907   9.805   2.529   4.808 -0.5599  0.6140 -0.7222
16563SOL    HW160908   9.747   2.493   4.881 -0.7741 -0.3454 -1.3653
16563SOL    HW260909   9.872   2.461   4.780 -0.0592  1.2042 -0.9875
16564SOL     OW60910   1.277   0.042   5.587  0.4362 -0.1077 -0.0635
16564SOL    HW160911   1.318   0.131   5.564 -0.1666  0.0325 -0.6234
16564SOL    HW260912   1.290   0.023   5.684 -0.0680  0.9216  0.2056
16565SOL     OW60913   3.100   4.293   6.273  0.0685  0.1879  0.1143
16565SOL    HW160914   3.035   4.249   6.212  0.4090 -0.0382 -0.0926
16565SOL    HW260915   3.186   4.310   6.223 -0.4189  2.0724 -0.1446
16566SOL     OW60916   8.519   4.762   5.870 -0.5190  0.1542  0.2589
16566SOL    HW160917   8.448   4.775   5.802  1.3162 -0.2939 -1.8039
16566SOL    HW260918   8.564   4.850   5.888  0.4496 -0.1184 -0.7768
16567SOL     OW60919   1.304   1.332   2.472  0.0053  0.2922 -0.0244
16567SOL    HW160920   1.346   1.247   2.506  0.5485  0.0688 -1.2264
16567SOL    HW260921   1.208   1.335   2.500 -0.6161 -1.7817 -1.8254
16568SOL     OW60922   9.390   0.713   2.669  0.0438 -0.0233 -0.4518
16568SOL    HW160923   9.484   0.704   2.702  0.0817 -1.0137 -0.8127
16568SOL    HW260924   9.380   0.664   2.582 -1.3106 -1.6253  0.5806
16569SOL     OW60925   2.822   3.693   3.014 -0.0784  0.2757 -0.0355
16569SOL    HW160926   2.903   3.637   2.996  0.8654  2.1432 -1.7697
16569SOL    HW260927   2.833   3.741   3.101  0.4492  0.1393 -0.0236
16570SOL     OW60928   2.833   6.091   0.484 -0.2970  0.0183  0.0240
16570SOL    HW160929   2.824   6.039   0.399 -1.3276  0.0989  0.0697
16570SOL    HW260930   2.793   6.039   0.559 -0.4061  0.4360  0.2554
16571SOL     OW60931   2.814   6.117   5.216 -0.2397 -0.4912  0.3718
16571SOL    HW160932   2.912   6.124   5.200 -0.6809  0.5184 -2.1777
16571SOL    HW260933   2.792   6.027   5.253  1.7415 -0.3603  1.9559
16572SOL     OW60934   4.553   2.242   0.364  0.0324 -0.3943 -0.1914
16572SOL    HW160935   4.585   2.207   0.452 -1.7162  0.3456  0.7730
16572SOL    HW260936   4.604   2.198   0.290  3.4476  1.0030  1.2586
16573SOL     OW60937   7.659   0.780   3.423 -0.7485 -0.3540 -0.9592
16573SOL    HW160938   7.582   0.759   3.482 -1.6413  1.5875 -1.3876
16573SOL    HW260939   7.631   0.846   3.353  1.4721  0.9331 -0.6975
16574SOL     OW60940   7.361   2.039   1.989  0.3758  0.5791 -0.1095
16574SOL    HW160941   7.426   2.022   1.916 -0.5421  1.3840 -1.1467
16574SOL    HW260942   7.341   2.137   1.993 -1.0047  0.3057 -0.0283
16575SOL     OW60943   7.511   4.335   0.866  0.0113 -0.3658  0.5666
16575SOL    HW160944   7.594   4.287   0.893  1.2801  2.3156  1.5994
16575SOL    HW260945   7.495   4.321   0.768  2.3268  0.0412  0.1093
16576SOL     OW60946   9.808   0.859   4.774  0.1526 -0.2155 -0.0627
16576SOL    HW160947   9.762   0.776   4.806  0.7537 -0.3925  0.3356
16576SOL    HW260948   9.884   0.882   4.835  0.8042 -0.1041 -0.9052
16577SOL     OW60949   9.297   4.779   1.307  1.1106 -0.1810 -0.3094
16577SOL    HW160950   9.350   4.696   1.324  1.7267  0.1814 -0.4602
16577SOL    HW260951   9.272   4.822   1.394  0.2679 -0.8449 -0.2107
16578SOL     OW60952   4.113   5.464   3.609 -0.2433  0.5199  0.6125
16578SOL    HW160953   4.124   5.461   3.510  2.0421 -1.2491  0.8849
16578SOL    HW260954   4.115   5.559   3.640  2.0012  0.9295 -0.7380
16579SOL     OW60955   0.525   0.375   1.414 -0.2245  0.5437 -0.5387
16579SOL    HW160956   0.588   0.318   1.360 -0.2622  0.4403 -0.4730
16579SOL    HW260957   0.577   0.434   1.475 -0.2441 -0.7699  0.7603
16580SOL     OW60958   7.938   1.504   6.069  0.2927  0.4375  0.3420
16580SOL    HW160959   7.935   1.569   5.993 -1.5106  0.4145  0.3840
16580SOL    HW260960   7.976   1.417   6.037  2.0810  1.2645  0.1294
16581SOL     OW60961   8.403   6.563   2.611 -0.1629  0.2676  0.3495
16581SOL    HW160962   8.399   6.476   2.562  1.0121 -0.4535  1.5333
16581SOL    HW260963   8.333   6.625   2.574  0.4333 -0.3982 -1.9661
16582SOL     OW60964   1.269   3.370   3.825 -0.6401 -0.1471  0.2416
16582SOL    HW160965   1.172   3.345   3.828 -0.7271  0.1640  0.0113
16582SOL    HW260966   1.325   3.287   3.818 -0.9879 -0.2263 -1.9161
16583SOL     OW60967   4.954   0.977   5.513  0.5574  0.1819  0.0164
16583SOL    HW160968   4.926   1.037   5.438 -0.5208 -0.4806 -0.1105
16583SOL    HW260969   5.011   1.029   5.577  0.0142  1.2196 -0.3309
16584SOL     OW60970   2.403   9.549   5.454 -0.6065 -0.0920 -0.1938
16584SOL    HW160971   2.467   9.477   5.428 -0.6417 -0.7729  1.5400
16584SOL    HW260972   2.453   9.624   5.497 -1.0290 -0.9338  1.8044
16585SOL     OW60973   0.049   2.665   2.118  0.2926  0.5852 -0.0564
16585SOL    HW160974   0.094   2.579   2.091 -0.0728  0.5588 -0.5822
16585SOL    HW260975  -0.021   2.645   2.186  1.7453  0.7443  1.5444
16586SOL     OW60976   7.697   7.941   2.399  0.1157 -0.7872 -0.3656
16586SOL    HW160977   7.617   7.883   2.412  0.5718 -1.5577 -0.9310
16586SOL    HW260978   7.717   7.950   2.302  0.4054 -0.1707 -0.2520
16587SOL     OW60979   8.291   8.464   6.609  0.2350 -0.1133  0.2226
16587SOL    HW160980   8.285   8.526   6.532  0.4091  1.5401  1.5186
16587SOL    HW260981   8.379   8.417   6.608  0.5288  0.4422 -0.1725
16588SOL     OW60982   5.426   1.799   1.432  0.0467  0.4038  0.0610
16588SOL    HW160983   5.375   1.862   1.373  0.3219  0.5073 -0.0672
16588SOL    HW260984   5.505   1.847   1.471  0.3034  0.1141 -0.1043
16589SOL     OW60985   8.290   6.850   1.655 -0.3871  0.4332 -0.3666
16589SOL    HW160986   8.212   6.882   1.601 -0.6738  0.5315  0.1001
16589SOL    HW260987   8.277   6.753   1.677  0.0962  0.1921 -1.1079
16590SOL     OW60988   2.932   1.586   4.806 -0.2884 -0.3440  0.5616
16590SOL    HW160989   2.997   1.540   4.866  1.4099  0.6741 -0.4471
16590SOL    HW260990   2.841   1.583   4.847  0.4919 -1.2692  2.2928
16591SOL     OW60991   0.504   9.332   4.113 -0.2403 -0.0950 -0.6220
16591SOL    HW160992   0.486   9.234   4.108  0.5328 -0.2180 -1.1343
16591SOL    HW260993   0.503   9.361   4.208 -0.6624 -0.5615 -0.4790
16592SOL     OW60994   4.852   2.207   1.493 -0.5923  0.8192  0.6281
16592SOL    HW160995   4.795   2.195   1.412  0.6087  1.4209 -0.3114
16592SOL    HW260996   4.917   2.132   1.499 -0.4853  0.9324  0.8794
16593SOL     OW60997   0.085   1.528   1.066  0.4009 -0.9309 -0.5495
16593SOL    HW160998  -0.007   1.554   1.097  0.8301 -0.3433  0.2749
16593SOL    HW260999   0.152   1.588   1.110  1.3759 -2.9492  0.8146
16594SOL     OW61000   9.846   1.640   5.097  0.1501  0.5826 -0.0292
16594SOL    HW161001   9.932   1.683   5.125 -0.1433  0.2163  1.4803
16594SOL    HW261002   9.790   1.707   5.047  1.1674  0.9088 -0.7515
16595SOL     OW61003   8.215   4.420   5.399  0.4112 -0.0698 -0.0941
16595SOL    HW161004   8.289   4.471   5.443  1.1107 -0.6286 -0.6047
16595SOL    HW261005   8.254   4.345   5.344 -0.5387 -0.4550 -0.2549
16596SOL     OW61006   0.148   0.062   3.241  0.9198  0.4851 -0.3996
16596SOL    HW161007   0.211   0.029   3.171 -1.8352 -1.5015 -2.0363
16596SOL    HW261008   0.090  -0.014   3.272  0.6499  1.8248  2.4916
16597SOL     OW61009   0.460   3.289   1.903 -0.3562  0.3348  0.9851
16597SOL    HW161010   0.488   3.366   1.961 -0.8840  1.1588  0.1579
16597SOL    HW261011   0.409   3.223   1.959 -0.5587  0.9514  1.5463
16598SOL     OW61012   0.130   9.383   2.694 -0.1883 -0.4470 -0.2109
16598SOL    HW161013   0.126   9.457   2.627  1.2771 -1.2221 -1.1745
16598SOL    HW261014   0.064   9.401   2.767  0.2233  1.8468 -0.3678
16599SOL     OW61015   9.152   4.345   4.624 -0.0069 -0.3755  0.4063
16599SOL    HW161016   9.172   4.278   4.696 -2.5070 -0.2293  1.2760
16599SOL    HW261017   9.119   4.429   4.665  1.6465  0.8833 -0.7802
16600SOL     OW61018   3.985   1.437   2.558 -0.5388 -0.5820  0.3120
16600SOL    HW161019   4.040   1.398   2.632 -1.3154 -0.3260  1.0329
16600SOL    HW261020   3.908   1.488   2.597  0.2836  1.4105 -0.6180
16601SOL     OW61021   2.837   0.097   2.940 -0.2207  0.9069  0.1300
16601SOL    HW161022   2.746   0.138   2.954 -0.2919  1.0222 -0.6479
16601SOL    HW261023   2.877   0.134   2.856 -0.1969 -0.4607 -0.4701
16602SOL     OW61024   5.963   0.369   3.134 -0.0167  0.1227  0.6566
16602SOL    HW161025   5.914   0.352   3.049 -1.5685  2.4241  1.0277
16602SOL    HW261026   5.897   0.392   3.206  1.3848 -0.3047  2.0988
16603SOL     OW61027   3.674   7.835   1.745 -0.1082 -0.2065  0.3859
16603SOL    HW161028   3.627   7.900   1.806 -0.5430  0.1366 -0.2978
16603SOL    HW261029   3.714   7.885   1.669 -1.9668 -0.9022 -1.1056
16604SOL     OW61030   5.484   8.426   5.605  0.1163  0.3913 -0.1261
16604SOL    HW161031   5.574   8.390   5.629  0.3087  1.0497  0.1400
16604SOL    HW261032   5.491   8.479   5.520 -0.5864 -2.0624 -1.7864
16605SOL     OW61033   4.750   8.440   5.749  0.2224  0.3252 -0.0255
16605SOL    HW161034   4.832   8.383   5.739  0.9361  1.4611 -0.7841
16605SOL    HW261035   4.673   8.397   5.702 -0.2932 -2.0311  2.8324
16606SOL     OW61036   9.896   9.059   2.659 -0.5983  0.0178 -0.2515
16606SOL    HW161037   9.806   9.030   2.690 -0.3311 -0.2099  0.3311
16606SOL    HW261038   9.891   9.153   2.625 -1.1877 -0.2348 -0.8575
16607SOL     OW61039   1.275   1.439   3.757  0.0873  0.1816  0.2571
16607SOL    HW161040   1.282   1.340   3.742  0.4483  0.1432  0.6712
16607SOL    HW261041   1.229   1.457   3.844 -0.8695  0.3946 -0.2863
16608SOL     OW61042   2.937   2.960   3.175  0.2513 -0.1884 -0.0465
16608SOL    HW161043   2.913   2.985   3.081  0.6642  0.5973  0.0545
16608SOL    HW261044   2.972   3.040   3.223  2.5979 -1.1838 -0.0374
16609SOL     OW61045   9.190   9.292   1.534 -0.2735 -0.2429  0.4956
16609SOL    HW161046   9.103   9.244   1.533 -0.6498  0.4300 -0.0649
16609SOL    HW261047   9.188   9.365   1.465  0.4727  0.2286  0.9643
16610SOL     OW61048   8.506   0.022   2.417  0.0837 -0.6304 -0.4913
16610SOL    HW161049   8.502  -0.064   2.468  0.6204  0.1448  0.9152
16610SOL    HW261050   8.588   0.073   2.446 -0.8451  0.8647 -0.4586
16611SOL     OW61051   0.607   4.369   0.951 -0.0770  0.0149 -0.8123
16611SOL    HW161052   0.594   4.408   0.860  1.3449  0.8983 -0.6585
16611SOL    HW261053   0.567   4.429   1.019 -0.0653 -0.0451 -0.7524
16612SOL     OW61054   0.237   7.283   5.190  0.1186 -0.2098  0.0672
16612SOL    HW161055   0.273   7.280   5.097  1.2670  2.0249  0.4215
16612SOL    HW261056   0.139   7.305   5.187  0.1583 -0.0983 -0.5840
16613SOL     OW61057   8.500   9.886   2.984 -0.4979 -0.2437  0.3069
16613SOL    HW161058   8.431   9.958   2.997  0.2569  0.4727  0.3669
16613SOL    HW261059   8.484   9.812   3.050  0.0111  0.8553  1.6788
16614SOL     OW61060   3.677   6.762   3.310  0.4977  0.1145  0.1315
16614SOL    HW161061   3.701   6.688   3.246 -0.3077  1.6187 -1.9744
16614SOL    HW261062   3.618   6.726   3.382 -0.0155 -1.2730 -0.9537
16615SOL     OW61063   2.932   2.227   0.195  0.4829 -0.1579  0.3188
16615SOL    HW161064   2.983   2.226   0.109 -2.4004  0.1994 -1.4394
16615SOL    HW261065   2.871   2.149   0.199 -0.3416  0.5364  1.4640
16616SOL     OW61066   0.317   7.958   2.868 -0.4030 -0.1552 -0.0505
16616SOL    HW161067   0.384   8.014   2.916  0.3611 -1.1964  0.1186
16616SOL    HW261068   0.258   7.912   2.934 -1.5884  1.1169 -0.2109
16617SOL     OW61069   3.401   8.519   0.167  0.2944 -0.3278  0.2065
16617SOL    HW161070   3.459   8.512   0.248  1.2946  2.0048 -0.2615
16617SOL    HW261071   3.426   8.601   0.114 -1.8166 -0.5789 -1.2875
16618SOL     OW61072   0.510   3.230   3.974  0.1150  0.2175  0.4971
16618SOL    HW161073   0.540   3.177   3.895 -0.3448 -0.4872  0.7817
16618SOL    HW261074   0.418   3.266   3.958 -0.7572 -1.4883  1.4091
16619SOL     OW61075   4.560   1.335   6.700 -0.3469 -0.8433 -0.0037
16619SOL    HW161076   4.491   1.317   6.770 -0.3104 -0.7105  0.0670
16619SOL    HW261077   4.632   1.267   6.705  0.4867  0.0989  1.1555
16620SOL     OW61078   2.003   8.766   6.233 -0.8895 -0.0529  0.0281
16620SOL    HW161079   2.103   8.773   6.230 -1.0824  3.6144  0.6508
16620SOL    HW261080   1.976   8.723   6.319  0.1349 -1.0137 -0.1207
16621SOL     OW61081   0.102   1.716   0.512 -0.1953  0.3306 -0.4530
16621SOL    HW161082   0.027   1.720   0.445  0.4957  1.0533 -1.2022
16621SOL    HW261083   0.083   1.644   0.579 -2.4260  1.6421  0.4059
16622SOL     OW61084   1.013   9.880   5.557 -0.1082  0.3882 -0.3275
16622SOL    HW161085   1.102   9.923   5.543  0.4076  0.2250  2.1462
16622SOL    HW261086   0.944   9.925   5.500  0.9014  2.8377  0.3392
16623SOL     OW61087   1.408   3.251   1.102 -0.4142  0.0712 -0.2870
16623SOL    HW161088   1.409   3.184   1.177  1.6255  0.7836  0.3650
16623SOL    HW261089   1.327   3.237   1.046 -0.6266 -2.2059  0.5232
16624SOL     OW61090   8.499   7.491   4.420  0.1249 -0.0586 -0.0777
16624SOL    HW161091   8.497   7.428   4.497  2.5628 -1.0305 -0.7916
16624SOL    HW261092   8.527   7.582   4.451  1.7487 -0.6069  0.1047
16625SOL     OW61093   3.291   5.010   1.592 -0.2796 -0.3035  0.5487
16625SOL    HW161094   3.271   4.920   1.554 -2.1127  0.0288  0.7196
16625SOL    HW261095   3.313   5.074   1.518 -0.6420 -0.4604  0.3084
16626SOL     OW61096   2.734   2.203   2.397  0.2106 -0.0742 -0.0955
16626SOL    HW161097   2.804   2.132   2.395 -0.5222 -0.7812 -1.0653
16626SOL    HW261098   2.748   2.266   2.320 -0.4972 -0.4920 -0.5686
16627SOL     OW61099   4.487   2.122   3.673  0.1552 -0.0799 -0.4737
16627SOL    HW161100   4.395   2.095   3.644  0.0251  1.0665 -1.1707
16627SOL    HW261101   4.518   2.199   3.616  1.5196 -0.4271 -0.2045
16628SOL     OW61102   8.589   0.411   0.881  0.3095 -0.2416 -0.1115
16628SOL    HW161103   8.525   0.360   0.939 -1.1813  0.7148 -0.8727
16628SOL    HW261104   8.586   0.508   0.906  1.6835 -0.2231  0.0190
16629SOL     OW61105   1.318   9.921   3.884  0.3672 -0.0146  0.1414
16629SOL    HW161106   1.327   9.829   3.844 -0.1313 -0.1118  0.2431
16629SOL    HW261107   1.316   9.989   3.811  2.7362  0.0983  0.1365
16630SOL     OW61108   4.273   2.564   2.306 -0.1398  0.5210  0.1076
16630SOL    HW161109   4.211   2.488   2.289  1.2593 -0.3608 -1.1745
16630SOL    HW261110   4.248   2.642   2.248  2.0396 -1.0303 -3.0381
16631SOL     OW61111   8.747   6.257   3.137 -0.0591  0.0819  0.2273
16631SOL    HW161112   8.709   6.177   3.090  0.2707 -0.5922  1.0910
16631SOL    HW261113   8.846   6.244   3.150  0.0056  0.6531  0.3392
16632SOL     OW61114   1.474   0.613   0.175  0.0484 -0.0417 -0.2944
16632SOL    HW161115   1.528   0.694   0.153 -0.6172  0.5537  0.2482
16632SOL    HW261116   1.482   0.547   0.101  0.8946  0.3640 -0.5711
16633SOL     OW61117   9.386   3.887   4.733  0.4890  0.3656 -0.7295
16633SOL    HW161118   9.287   3.898   4.719  0.3656 -1.0537 -1.0797
16633SOL    HW261119   9.402   3.815   4.800  1.2956  0.4473 -0.8287
16634SOL     OW61120   7.844   1.554   3.853 -0.1686 -0.7264 -0.2153
16634SOL    HW161121   7.924   1.547   3.912  0.1986 -0.8507 -0.7223
16634SOL    HW261122   7.845   1.480   3.786 -1.0808 -1.1453  0.2237
16635SOL     OW61123   9.227   1.012   6.531  0.5910 -0.3531  0.3826
16635SOL    HW161124   9.238   1.111   6.537  0.1832 -0.4205  2.5978
16635SOL    HW261125   9.316   0.968   6.535  0.8617 -0.0500 -1.7391
16636SOL     OW61126   3.003   6.118   3.778 -0.1269 -0.1854  0.4570
16636SOL    HW161127   3.082   6.144   3.834 -0.6231 -1.1716  1.6452
16636SOL    HW261128   3.021   6.030   3.735 -0.3977 -0.1978  0.3710
16637SOL     OW61129   7.465   5.212   6.506  0.0615 -1.0552  0.0158
16637SOL    HW161130   7.398   5.143   6.479 -0.2293 -1.1194  0.8951
16637SOL    HW261131   7.550   5.197   6.457 -0.1974 -1.6782 -0.2413
16638SOL     OW61132   4.508   2.934   3.027 -0.2851 -0.2456  0.0112
16638SOL    HW161133   4.420   2.973   3.002  0.0892  0.3036 -0.4689
16638SOL    HW261134   4.575   3.008   3.040 -0.3379 -0.5468  2.1393
16639SOL     OW61135   1.504   6.168   2.686 -0.0671 -0.3265 -0.0795
16639SOL    HW161136   1.431   6.221   2.730  0.7980  0.6178  0.2630
16639SOL    HW261137   1.466   6.086   2.644 -1.1283 -0.5293  1.2381
16640SOL     OW61138   3.821   9.579   5.738 -0.1078  0.3375  0.7773
16640SOL    HW161139   3.888   9.625   5.680 -0.8110 -2.1775 -2.2103
16640SOL    HW261140   3.837   9.480   5.734 -1.9844 -0.0759  2.6317
16641SOL     OW61141   9.703   7.539   3.882 -0.4159 -0.0422 -0.1712
16641SOL    HW161142   9.687   7.594   3.964 -0.7381 -1.7438  0.9195
16641SOL    HW261143   9.666   7.447   3.895  2.6832 -1.4425 -0.8495
16642SOL     OW61144   2.841   4.192   5.996  0.4851  0.4935 -0.2675
16642SOL    HW161145   2.769   4.257   5.975  0.4205 -0.0828 -1.9006
16642SOL    HW261146   2.889   4.166   5.912  0.1672 -1.9466  0.2555
16643SOL     OW61147   0.838   3.079   6.436 -0.0579 -0.0266  0.3840
16643SOL    HW161148   0.931   3.045   6.420  0.1583  0.2692  1.0121
16643SOL    HW261149   0.822   3.088   6.534 -0.1818  1.5038  0.2308
16644SOL     OW61150   4.409   5.556   0.594 -0.0338 -0.0589  0.3110
16644SOL    HW161151   4.435   5.562   0.497  2.3330 -0.6574  0.8947
16644SOL    HW261152   4.394   5.648   0.630  1.9423  0.3647  0.1150
16645SOL     OW61153   1.078   4.338   4.331 -0.6098 -0.0023 -0.2079
16645SOL    HW161154   1.055   4.393   4.411 -3.4793 -0.4025 -0.7076
16645SOL    HW261155   1.140   4.389   4.272 -1.7743  1.9605  0.2314
16646SOL     OW61156   3.543   2.732   5.780  0.3878 -0.1786 -0.2920
16646SOL    HW161157   3.599   2.652   5.799  1.3379  1.0801  2.4404
16646SOL    HW261158   3.537   2.790   5.861 -4.4029  0.0617 -0.6287
16647SOL     OW61159   8.713   8.547   2.502 -0.0913  0.0670  0.6884
16647SOL    HW161160   8.749   8.508   2.587  1.3772  0.4922  0.2804
16647SOL    HW261161   8.677   8.473   2.445  2.8113 -0.8070 -0.1393
16648SOL     OW61162   8.452   5.782   1.959  0.2625  0.3577 -0.3498
16648SOL    HW161163   8.506   5.852   2.007  0.4317 -0.3452  0.5120
16648SOL    HW261164   8.356   5.792   1.983  0.6074 -1.3748  1.9549
16649SOL     OW61165   2.073   4.591   4.017 -0.3787  0.3521  0.2147
16649SOL    HW161166   2.053   4.562   4.111  1.2141 -1.7439 -0.0394
16649SOL    HW261167   2.129   4.520   3.972  1.7775  2.8662 -1.2040
16650SOL     OW61168   7.268   1.343   4.224 -0.4393 -0.0984  0.1460
16650SOL    HW161169   7.222   1.256   4.203  0.6514 -0.4265 -0.9004
16650SOL    HW261170   7.217   1.418   4.183  0.3841 -0.5306 -1.7134
16651SOL     OW61171   4.621   3.387   1.923  0.7677  0.1060  0.0060
16651SOL    HW161172   4.720   3.384   1.910  0.7931 -0.9839  0.4297
16651SOL    HW261173   4.595   3.326   1.998 -0.3205 -0.2426 -0.6451
16652SOL     OW61174   8.112   4.150   0.088 -0.0197 -0.0906 -0.2169
16652SOL    HW161175   8.058   4.076   0.127  2.2158 -1.9966 -0.6287
16652SOL    HW261176   8.125   4.134  -0.010  1.1611  0.3995 -0.1576
16653SOL     OW61177   7.154   0.791   2.344 -0.4896 -0.0473 -0.0601
16653SOL    HW161178   7.197   0.723   2.403 -0.4875 -0.7380 -0.8558
16653SOL    HW261179   7.143   0.877   2.395  0.9300 -0.1568  0.4588
16654SOL     OW61180   1.197   5.639   5.192  1.0720  0.4683  0.0186
16654SOL    HW161181   1.287   5.680   5.207  0.7616  1.2886 -0.3264
16654SOL    HW261182   1.152   5.684   5.114  1.5444 -1.8823 -1.6886
16655SOL     OW61183   6.845   9.177   5.479  0.0437  0.0050  0.4929
16655SOL    HW161184   6.875   9.124   5.400  0.3163  1.3274 -0.3068
16655SOL    HW261185   6.785   9.252   5.448  0.7149  0.9483  1.4468
16656SOL     OW61186   2.303   6.878   6.357  0.4883 -0.2833 -0.0555
16656SOL    HW161187   2.296   6.977   6.341  0.3404 -0.3342 -0.3157
16656SOL    HW261188   2.369   6.839   6.293 -0.4236 -0.5562 -0.8560
16657SOL     OW61189   4.493   0.236   3.189  0.0181  1.0568 -0.1533
16657SOL    HW161190   4.396   0.221   3.166  0.0376 -0.3950  0.6123
16657SOL    HW261191   4.502   0.241   3.288  0.6606  1.6988 -0.2490
16658SOL     OW61192   1.910   2.149   5.348  0.6774 -0.4657  0.0259
16658SOL    HW161193   1.819   2.110   5.333  1.3467 -2.5734  1.2940
16658SOL    HW261194   1.963   2.143   5.263 -0.6194  1.5485 -0.9567
16659SOL     OW61195   7.314   9.868   3.127 -0.8525 -0.1243 -0.9684
16659SOL    HW161196   7.383   9.938   3.149 -0.1193 -0.9455 -0.6114
16659SOL    HW261197   7.240   9.910   3.075  0.1518  0.6772 -1.7892
16660SOL     OW61198   9.830   7.663   1.197  0.2590 -0.1327  0.3387
16660SOL    HW161199   9.794   7.680   1.289 -1.0178  1.1327 -0.3546
16660SOL    HW261200   9.753   7.649   1.134  0.9925  1.7386 -1.0203
16661SOL     OW61201   1.961   0.227   6.332  0.3554  0.5486 -0.4046
16661SOL    HW161202   2.010   0.213   6.245  0.6202 -1.3455  0.0293
16661SOL    HW261203   1.881   0.284   6.316  0.5272  0.4042 -1.8680
16662SOL     OW61204   8.209   5.915   0.524 -0.0568 -0.3102  0.1097
16662SOL    HW161205   8.305   5.892   0.541 -0.3038 -0.9667  0.5967
16662SOL    HW261206   8.202   5.963   0.436  0.6766 -0.5481 -0.0801
16663SOL     OW61207   9.701   7.398   4.301 -0.5067 -0.4556 -0.6438
16663SOL    HW161208   9.632   7.471   4.304 -0.3784 -0.2886 -1.4259
16663SOL    HW261209   9.663   7.314   4.337 -1.2949 -0.4932 -1.5434
16664SOL     OW61210   7.167   1.637   1.167  0.0025 -0.1611 -0.2133
16664SOL    HW161211   7.090   1.681   1.120  0.4691  1.4461  0.5004
16664SOL    HW261212   7.141   1.545   1.194 -0.0965 -1.3995 -4.1553
16665SOL     OW61213   0.128   0.141   3.925 -0.6483 -0.3582  0.0172
16665SOL    HW161214   0.140   0.239   3.939 -2.5903  0.2122 -2.0240
16665SOL    HW261215   0.064   0.106   3.993 -2.8988  0.5744 -1.5673
16666SOL     OW61216   8.421   6.026   5.085  1.0041 -0.0774  0.1672
16666SOL    HW161217   8.338   5.984   5.122  0.7603  0.6081  0.4107
16666SOL    HW261218   8.502   5.977   5.119  0.7455 -0.0432  0.8360
16667SOL     OW61219   1.248   3.103   2.102 -0.1905 -0.0985  0.5050
16667SOL    HW161220   1.188   3.164   2.051 -0.7632 -0.6081  0.5690
16667SOL    HW261221   1.335   3.150   2.121 -0.2811  0.3732 -0.2301
16668SOL     OW61222   9.184   4.196   2.243  0.5937 -0.1744  0.4056
16668SOL    HW161223   9.208   4.121   2.305  1.0280 -2.0989 -1.9768
16668SOL    HW261224   9.174   4.160   2.150 -0.3833  2.5547 -0.6075
16669SOL     OW61225   1.900   5.287   4.180 -0.1337 -0.5929  0.5489
16669SOL    HW161226   1.813   5.239   4.179 -0.3655 -0.1652 -0.0889
16669SOL    HW261227   1.975   5.221   4.190 -0.4819 -1.0293  0.2736
16670SOL     OW61228   7.498   3.985   2.282 -0.3031 -0.5691  0.4194
16670SOL    HW161229   7.458   3.901   2.245 -0.5950 -0.6396  0.8939
16670SOL    HW261230   7.574   3.962   2.343 -0.4817 -0.4922  0.6686
16671SOL     OW61231   2.568   8.104   0.047  0.0444  0.3937 -0.1408
16671SOL    HW161232   2.524   8.190   0.071  1.8595  0.9996  1.1913
16671SOL    HW261233   2.531   8.030   0.103  0.2404  0.7861  0.5198
16672SOL     OW61234   0.295   7.117   6.041  0.5814 -0.0898 -0.1895
16672SOL    HW161235   0.201   7.152   6.036  1.0015  1.0767 -0.0792
16672SOL    HW261236   0.304   7.038   5.979 -0.5489 -0.4084  0.0356
16673SOL     OW61237   1.542   0.191   1.250 -0.6166  0.1817 -0.6283
16673SOL    HW161238   1.530   0.277   1.298 -0.2714  0.3430 -0.8267
16673SOL    HW261239   1.597   0.206   1.168  2.3025 -0.7725  1.0617
16674SOL     OW61240   8.050   4.281   4.409  0.1877 -0.2401 -0.2135
16674SOL    HW161241   8.001   4.198   4.434 -0.1999 -0.4041 -1.4857
16674SOL    HW261242   7.993   4.361   4.431  0.5524 -0.3031  0.9912
16675SOL     OW61243   8.187   8.183   3.225  0.8401  0.1545  0.3862
16675SOL    HW161244   8.099   8.230   3.221  0.2381 -1.0238 -0.2650
16675SOL    HW261245   8.253   8.231   3.167 -0.8288 -1.9902 -3.4764
16676SOL     OW61246   1.902   8.847   5.823 -0.9195  0.3578 -0.1284
16676SOL    HW161247   1.820   8.893   5.856 -0.4329  1.3724 -0.3186
16676SOL    HW261248   1.934   8.782   5.892 -1.3953  0.5810  0.3030
16677SOL     OW61249   8.758   9.873   3.376  0.2804 -0.1925 -0.4583
16677SOL    HW161250   8.761   9.800   3.308 -2.2397 -1.0522  0.2899
16677SOL    HW261251   8.669   9.918   3.373  1.2879  1.9156  0.0797
16678SOL     OW61252   0.431   4.373   2.810 -0.0780 -0.1715  0.3171
16678SOL    HW161253   0.340   4.414   2.811 -0.3754 -0.8294  1.5443
16678SOL    HW261254   0.471   4.380   2.901  1.9623  1.9748 -0.6874
16679SOL     OW61255   4.028   4.997   5.857 -0.0069 -0.1951  0.0104
16679SOL    HW161256   4.094   4.922   5.867 -1.0589 -0.6768  4.3319
16679SOL    HW261257   4.061   5.077   5.907 -1.0315  0.7811 -0.8445
16680SOL     OW61258   8.368   8.651   4.300  0.1839  0.5544 -0.5239
16680SOL    HW161259   8.324   8.597   4.372 -0.9295  2.9803  0.6789
16680SOL    HW261260   8.467   8.640   4.306  0.0841  0.4411  1.1775
16681SOL     OW61261   1.723   1.174   3.880 -0.2715 -0.4140  0.4177
16681SOL    HW161262   1.814   1.139   3.860 -0.5359  0.3730 -2.3728
16681SOL    HW261263   1.693   1.141   3.970  1.5251 -3.1407  0.0704
16682SOL     OW61264   7.250   7.052   4.693  0.0282  0.0064 -0.1677
16682SOL    HW161265   7.336   7.073   4.647 -0.2592 -0.4426 -0.9104
16682SOL    HW261266   7.261   6.968   4.746  0.2378  0.3056  0.2717
16683SOL     OW61267   2.330   3.682   3.202 -0.6430 -0.0439 -0.0732
16683SOL    HW161268   2.378   3.769   3.207 -0.3409 -0.2046 -0.2092
16683SOL    HW261269   2.316   3.657   3.107  0.6840 -0.9307 -0.0447
16684SOL     OW61270   9.141   8.960   0.324  0.4554 -0.3804 -0.0458
16684SOL    HW161271   9.161   9.016   0.405  0.7881  1.6782 -1.5139
16684SOL    HW261272   9.211   8.890   0.314  1.6107  0.7129  0.2434
16685SOL     OW61273   2.021   3.873   0.021  0.4000 -0.1365  0.5079
16685SOL    HW161274   1.956   3.867   0.096  0.1809  0.8892  0.3986
16685SOL    HW261275   2.067   3.784   0.010 -0.1913 -0.5443  1.2785
16686SOL     OW61276   6.398   0.341   1.534  0.2630  0.4107 -0.4707
16686SOL    HW161277   6.466   0.287   1.584 -0.1530  0.5478  0.2452
16686SOL    HW261278   6.340   0.280   1.480  0.5512  0.2459 -0.6006
16687SOL     OW61279   6.725   9.842   5.881  0.4301 -0.8722  0.4105
16687SOL    HW161280   6.782   9.845   5.798  0.8874 -0.1554  0.7457
16687SOL    HW261281   6.750   9.919   5.941 -1.4426 -0.0752  0.1955
16688SOL     OW61282   6.598   7.957   4.590 -0.3673 -0.2293  0.3306
16688SOL    HW161283   6.646   7.874   4.564 -0.2519 -0.8629  2.4728
16688SOL    HW261284   6.511   7.933   4.633 -0.3444  0.7289  0.9372
16689SOL     OW61285   3.650   2.988   3.901 -0.0738 -0.2446 -0.1377
16689SOL    HW161286   3.662   2.892   3.928 -0.8419 -0.1698  0.5056
16689SOL    HW261287   3.573   3.027   3.952 -0.8364  0.2367 -1.6158
16690SOL     OW61288   9.870   3.983   5.051 -0.0500 -0.3640 -0.2867
16690SOL    HW161289   9.822   4.015   4.970 -2.1666 -0.4475  0.9165
16690SOL    HW261290   9.862   3.884   5.058 -3.6377  0.0339  2.3325
16691SOL     OW61291   1.426   2.207   4.891  0.1956  0.3042  0.2689
16691SOL    HW161292   1.480   2.206   4.806  0.6881  2.8686  0.4990
16691SOL    HW261293   1.478   2.254   4.962 -1.0610 -0.0080  1.4017
16692SOL     OW61294   4.877   1.105   2.798  0.5156  0.3911  0.0634
16692SOL    HW161295   4.874   1.160   2.881 -0.4517  0.3300  0.0780
16692SOL    HW261296   4.920   1.017   2.818  2.3353  1.2226 -0.0294
16693SOL     OW61297   7.004   4.382   0.725 -0.7789 -0.3636 -0.2089
16693SOL    HW161298   7.022   4.284   0.713 -0.1139 -0.2154 -0.4349
16693SOL    HW261299   7.091   4.431   0.733 -1.1312  0.0219  1.4420
16694SOL     OW61300   0.512   7.506   5.545  0.3342 -0.0968  0.4996
16694SOL    HW161301   0.597   7.454   5.549  0.9984  0.5769 -3.0554
16694SOL    HW261302   0.442   7.452   5.499 -0.4309  0.3121  1.1678
16695SOL     OW61303   1.023   7.657   6.532  0.7539  0.3505  0.3047
16695SOL    HW161304   1.117   7.694   6.534  0.8298  0.2679 -1.2953
16695SOL    HW261305   0.969   7.708   6.464 -0.1815 -0.0405  0.7564
16696SOL     OW61306   4.947   7.232   2.942  0.0870  0.2666  0.5431
16696SOL    HW161307   5.026   7.186   2.983  1.8459  0.4405 -2.4924
16696SOL    HW261308   4.873   7.166   2.929  1.0496 -0.7473  0.1395
16697SOL     OW61309   1.122   0.522   2.964 -0.0456  0.6988  0.2419
16697SOL    HW161310   1.211   0.501   3.005  0.0327  1.2671  0.3679
16697SOL    HW261311   1.053   0.463   3.004  0.5428 -0.9125 -1.0610
16698SOL     OW61312   3.044   7.479   5.211 -0.6404  0.0060 -0.2289
16698SOL    HW161313   3.141   7.503   5.202 -0.9389  1.4717  0.3309
16698SOL    HW261314   3.015   7.428   5.130  0.2718  0.6678 -0.9833
16699SOL     OW61315   1.072   0.005   0.772  0.3659 -0.2066 -0.3649
16699SOL    HW161316   1.082  -0.086   0.813 -0.0100 -0.9171 -1.7931
16699SOL    HW261317   0.975   0.025   0.760  0.4532  0.3365 -0.1666
16700SOL     OW61318   9.529   8.604   4.494  0.3069 -1.0074  0.0993
16700SOL    HW161319   9.520   8.543   4.572 -0.1126  1.2260  1.8710
16700SOL    HW261320   9.624   8.634   4.485  0.0012  0.3581  1.0959
16701SOL     OW61321   4.014   1.195   5.959 -0.1328 -0.3915  0.5342
16701SOL    HW161322   3.951   1.137   6.010  0.1328 -1.0963  0.0667
16701SOL    HW261323   4.105   1.192   6.002  0.5082 -2.2712 -0.9002
16702SOL     OW61324   4.534   8.315   5.932 -0.5532 -0.1959  0.5047
16702SOL    HW161325   4.539   8.351   6.025  1.3383  0.9252 -0.0217
16702SOL    HW261326   4.593   8.235   5.924  1.9379  1.6954 -0.5938
16703SOL     OW61327   4.834   0.205   5.519 -0.5033 -0.0978 -0.1816
16703SOL    HW161328   4.842   0.110   5.547  0.2381 -0.2170 -0.7923
16703SOL    HW261329   4.912   0.230   5.462  0.2276  1.3875  1.4299
16704SOL     OW61330   9.159   3.367   2.640  1.0341  0.4892  1.1385
16704SOL    HW161331   9.112   3.359   2.728 -0.0651 -1.3623  0.4348
16704SOL    HW261332   9.237   3.304   2.638  0.6347  0.0123  0.5343
16705SOL     OW61333   2.800   7.969   6.108 -0.1330 -0.1314 -0.5295
16705SOL    HW161334   2.737   7.989   6.034  0.6935  0.9284 -0.9469
16705SOL    HW261335   2.750   7.963   6.194 -0.5757  2.3410 -0.6061
16706SOL     OW61336   0.498   6.029   1.897  0.1921  0.2003  0.3453
16706SOL    HW161337   0.408   6.027   1.855  0.2310 -0.3009  0.2910
16706SOL    HW261338   0.566   5.996   1.831  1.0077  4.4187 -1.1181
16707SOL     OW61339   4.791   4.182   1.475  0.2331  0.7970 -0.3613
16707SOL    HW161340   4.749   4.232   1.551  0.4517  0.9959 -0.3673
16707SOL    HW261341   4.859   4.241   1.431 -0.3958  0.9327 -1.1587
16708SOL     OW61342   7.320   9.353   4.348 -0.0721 -0.2035  0.0639
16708SOL    HW161343   7.363   9.394   4.428  0.0760  1.7744 -0.9901
16708SOL    HW261344   7.220   9.353   4.361 -0.0941  0.7892 -0.0431
16709SOL     OW61345   0.818   3.519   1.685 -0.4024 -0.3862  0.3375
16709SOL    HW161346   0.786   3.557   1.772 -0.3844 -0.4525  0.3727
16709SOL    HW261347   0.879   3.442   1.703  0.9120  0.6220  0.3120
16710SOL     OW61348   0.017   7.432   5.510 -0.5833 -0.6580  0.5679
16710SOL    HW161349   0.102   7.394   5.546  1.0123  2.4788  0.2099
16710SOL    HW261350  -0.036   7.473   5.584 -0.7491 -0.6332  0.4370
16711SOL     OW61351   6.848   8.728   5.868  0.2429 -0.1679 -0.1655
16711SOL    HW161352   6.766   8.777   5.837 -0.1388 -0.7725 -0.1065
16711SOL    HW261353   6.843   8.632   5.841 -0.2101 -0.7694  1.9737
16712SOL     OW61354   1.737   0.205   1.029 -0.5597  0.0634 -0.1379
16712SOL    HW161355   1.661   0.218   0.965  1.6033  1.8421 -2.4375
16712SOL    HW261356   1.760   0.292   1.072  2.7977  0.4624 -2.5702
16713SOL     OW61357   5.867   9.600   2.213  0.3776 -0.2337  0.4793
16713SOL    HW161358   5.855   9.505   2.183  0.3273 -0.5991  1.6292
16713SOL    HW261359   5.838   9.662   2.140 -0.0882 -1.1029 -0.0822
16714SOL     OW61360   4.596   3.980   1.837 -0.2116 -0.5268  0.0734
16714SOL    HW161361   4.528   3.925   1.789 -0.6322  0.8300 -0.9097
16714SOL    HW261362   4.688   3.950   1.812 -0.4278 -2.1337  1.1381
16715SOL     OW61363   0.114   3.451   1.475  0.4364  0.3343 -0.0241
16715SOL    HW161364   0.101   3.513   1.552 -0.1598  0.8324 -0.5157
16715SOL    HW261365   0.025   3.421   1.442  0.7146 -0.4755 -0.0348
16716SOL     OW61366   6.444   1.515   1.525 -0.0202 -0.2820  0.4623
16716SOL    HW161367   6.452   1.514   1.625 -2.6516 -0.6958  0.7217
16716SOL    HW261368   6.424   1.422   1.493 -1.9323  0.2987 -0.1322
16717SOL     OW61369   4.255   0.364   3.497  0.2088 -0.5744 -0.1243
16717SOL    HW161370   4.189   0.343   3.425 -0.9838 -0.9569  1.0624
16717SOL    HW261371   4.347   0.334   3.468 -0.1275 -0.0772 -1.7599
16718SOL     OW61372   3.525   6.908   6.344  0.4418 -0.2173  0.1345
16718SOL    HW161373   3.524   7.004   6.316  0.8760  0.6236  2.8416
16718SOL    HW261374   3.452   6.891   6.410 -0.9575 -2.2795 -1.8664
16719SOL     OW61375   8.683   4.180   0.656 -0.5042  0.1050  0.0124
16719SOL    HW161376   8.627   4.250   0.611  0.5707  1.1561  0.2603
16719SOL    HW261377   8.750   4.225   0.715  0.0064 -1.1601  0.4062
16720SOL     OW61378   2.494   4.538   2.557 -0.5232  0.0521  0.3582
16720SOL    HW161379   2.412   4.513   2.507  1.0438 -1.4251 -1.5506
16720SOL    HW261380   2.469   4.593   2.637 -3.3892 -0.9398  0.1940
16721SOL     OW61381   7.108   1.525   4.096  0.1551 -0.3815  0.1196
16721SOL    HW161382   7.126   1.481   4.008  1.6642  0.8097 -0.2028
16721SOL    HW261383   7.111   1.624   4.085 -1.7319 -0.1923  1.1160
16722SOL     OW61384   9.791   6.301   4.489 -0.4805 -0.3539 -0.1657
16722SOL    HW161385   9.855   6.289   4.413 -1.8490  1.5907 -1.6834
16722SOL    HW261386   9.832   6.264   4.573  2.0276 -0.4286 -1.3586
16723SOL     OW61387   5.207   4.030   0.739  0.6499  0.3225  0.6275
16723SOL    HW161388   5.206   3.985   0.828 -1.6825  1.6815  1.3247
16723SOL    HW261389   5.137   4.102   0.737  2.4842  2.1112 -1.3795
16724SOL     OW61390   3.391   4.467   5.251 -0.1456  0.2063 -0.2825
16724SOL    HW161391   3.483   4.439   5.225 -0.0558  0.4185 -0.1884
16724SOL    HW261392   3.386   4.567   5.253 -0.4786  0.2014 -0.6655
16725SOL     OW61393   0.815   9.348   4.306  0.5778 -0.3811 -0.4270
16725SOL    HW161394   0.838   9.281   4.235 -1.9895 -0.9279 -0.7746
16725SOL    HW261395   0.843   9.439   4.276  1.7523 -0.9347 -1.0602
16726SOL     OW61396   3.511   2.161   2.169  0.3854 -0.0472  0.5569
16726SOL    HW161397   3.574   2.149   2.246  0.6841  0.8772  0.4608
16726SOL    HW261398   3.417   2.150   2.202  0.5146  0.2769  1.0345
16727SOL     OW61399   7.215   7.163   4.951  0.4308 -0.1875  0.2186
16727SOL    HW161400   7.210   7.152   4.852 -0.7801 -0.4598  0.2978
16727SOL    HW261401   7.192   7.076   4.996  2.8048 -0.5767  0.7290
16728SOL     OW61402   1.337   0.296   5.137  0.0281  0.0253  0.0686
16728SOL    HW161403   1.297   0.209   5.164  0.1619 -0.3321 -0.8419
16728SOL    HW261404   1.345   0.299   5.037  1.2847  0.5241  0.1728
16729SOL     OW61405   3.000   9.471   6.339  0.1146  0.0985  0.0116
16729SOL    HW161406   3.098   9.454   6.349  0.1456  0.3872  0.2144
16729SOL    HW261407   2.957   9.475   6.429  0.0980  1.0050 -0.0233
16730SOL     OW61408   8.433   0.925   4.839  0.3112  0.4761 -0.5491
16730SOL    HW161409   8.357   0.866   4.813  0.0703  0.1202  0.9544
16730SOL    HW261410   8.516   0.870   4.849  0.2647  0.5136  0.0534
16731SOL     OW61411   1.937   5.478   3.337  0.3678 -0.4098  0.3494
16731SOL    HW161412   1.918   5.576   3.326  0.0312 -0.4340  0.7045
16731SOL    HW261413   2.002   5.466   3.413 -0.4259 -0.5408  1.0110
16732SOL     OW61414   7.587   2.338   4.059  0.3978  0.3583  0.3717
16732SOL    HW161415   7.676   2.312   4.097 -0.4079 -1.9064  0.7860
16732SOL    HW261416   7.585   2.318   3.961  0.5788  1.0425  0.2290
16733SOL     OW61417   2.250   2.010   0.871  0.9560  0.2512 -0.6347
16733SOL    HW161418   2.183   1.984   0.941  3.4665  0.3519  1.9136
16733SOL    HW261419   2.227   2.100   0.834 -0.4197  0.1810  0.0016
16734SOL     OW61420   0.957   4.134   2.934  0.6551  0.2869  0.2644
16734SOL    HW161421   1.015   4.162   3.010  0.5878  0.8926  0.0970
16734SOL    HW261422   1.003   4.063   2.881  1.6274  1.3886 -0.3883
16735SOL     OW61423   0.418   5.884   5.367 -0.2389  0.5222  0.0255
16735SOL    HW161424   0.434   5.943   5.446  0.4465 -0.2045  0.4439
16735SOL    HW261425   0.329   5.904   5.327 -0.2360  1.4622  0.4883
16736SOL     OW61426   0.470   0.802   5.010  0.3637  0.4290  0.4973
16736SOL    HW161427   0.465   0.856   4.926 -0.3129 -0.7693 -0.2602
16736SOL    HW261428   0.377   0.781   5.040  0.6197 -0.9049  0.3772
16737SOL     OW61429   6.004   1.082   4.625  0.0530  0.2449 -0.2738
16737SOL    HW161430   5.911   1.119   4.619 -0.4744 -0.8958  0.7493
16737SOL    HW261431   6.066   1.153   4.661 -0.5747  0.7389 -0.1589
16738SOL     OW61432   7.839   5.780   0.909 -0.1730 -0.1751 -0.0263
16738SOL    HW161433   7.842   5.863   0.854 -0.7023 -1.0371 -1.3785
16738SOL    HW261434   7.917   5.779   0.972  0.1217  1.0947 -0.3586
16739SOL     OW61435   6.762   1.442   5.288  0.3324 -0.0987  0.3025
16739SOL    HW161436   6.708   1.488   5.218  0.5949 -1.8914 -1.1312
16739SOL    HW261437   6.704   1.419   5.366 -0.8043 -1.1722 -0.8221
16740SOL     OW61438   8.885   0.350   4.689  0.7977 -0.3590  0.6234
16740SOL    HW161439   8.927   0.382   4.774  1.2351 -0.7574  0.5596
16740SOL    HW261440   8.800   0.399   4.674  1.5941  0.9576  0.3898
16741SOL     OW61441   4.789   5.056   5.959  0.3386 -0.2572 -0.0019
16741SOL    HW161442   4.852   4.978   5.965  1.4404  0.4825 -1.3562
16741SOL    HW261443   4.768   5.074   5.863 -1.0833  0.2025  0.3823
16742SOL     OW61444   8.660   7.669   2.046  0.5580 -0.4415 -0.1798
16742SOL    HW161445   8.712   7.692   2.128 -0.7315  0.2388  0.4684
16742SOL    HW261446   8.570   7.633   2.073 -0.3269  0.8992 -1.3026
16743SOL     OW61447   4.331   0.015   0.717 -0.4463 -0.0102 -0.0220
16743SOL    HW161448   4.263  -0.033   0.662  0.4945  1.3040 -2.4568
16743SOL    HW261449   4.319   0.114   0.707  0.3160  0.2507  1.4403
16744SOL     OW61450   8.444   3.335   0.392 -0.2228 -0.2880  0.2215
16744SOL    HW161451   8.396   3.404   0.446 -1.4487 -0.3238 -0.8094
16744SOL    HW261452   8.442   3.248   0.441  0.5085  0.1673  1.0857
16745SOL     OW61453   5.102   9.939   0.801  0.2910  0.2943  0.6105
16745SOL    HW161454   5.164   9.942   0.880  1.6323 -0.2425 -0.4055
16745SOL    HW261455   5.152   9.965   0.719 -1.2102  1.2679 -0.0142
16746SOL     OW61456   5.556   8.609   5.129 -0.0709  0.3051  0.0426
16746SOL    HW161457   5.655   8.597   5.133 -0.1690 -0.0344  2.1720
16746SOL    HW261458   5.523   8.585   5.038  1.7542  0.0736 -0.5790
16747SOL     OW61459   1.423   3.290   6.210 -0.4461  0.0812 -0.3056
16747SOL    HW161460   1.463   3.201   6.185  2.3871  1.6476 -1.5634
16747SOL    HW261461   1.448   3.313   6.304 -0.5339 -0.0831 -0.2406
16748SOL     OW61462   9.252   0.524   3.557  0.2672 -0.9591  0.1708
16748SOL    HW161463   9.167   0.496   3.511 -0.7129 -1.6270  2.3204
16748SOL    HW261464   9.296   0.444   3.596  1.4530 -0.4823 -0.1859
16749SOL     OW61465   8.705   1.582   5.287  0.9118 -0.1271 -0.3774
16749SOL    HW161466   8.658   1.501   5.253  0.2644  0.3595 -0.6392
16749SOL    HW261467   8.667   1.664   5.245 -0.9356  0.6120  2.5655
16750SOL     OW61468   3.971   9.720   3.302  0.2351 -0.1679 -0.4297
16750SOL    HW161469   4.017   9.725   3.213  0.3847  0.5117 -0.3133
16750SOL    HW261470   4.027   9.764   3.371 -0.2745  0.0458 -0.1508
16751SOL     OW61471   1.555   4.325   2.190  0.7859 -0.3807 -0.1414
16751SOL    HW161472   1.594   4.402   2.140 -1.2642 -0.6724 -2.2741
16751SOL    HW261473   1.597   4.320   2.281  3.4767  1.0890 -1.2335
16752SOL     OW61474   7.194   8.619   4.766 -0.1728  0.3159 -0.3048
16752SOL    HW161475   7.139   8.642   4.687  0.5330 -0.2126 -0.9610
16752SOL    HW261476   7.225   8.703   4.811 -0.1183  0.6293 -0.9173
16753SOL     OW61477   1.271   1.277   0.193  0.1258 -0.1388 -0.2367
16753SOL    HW161478   1.219   1.339   0.251  0.7321 -0.2320  0.4191
16753SOL    HW261479   1.248   1.293   0.097 -1.4489 -0.4965  0.0747
16754SOL     OW61480   8.358   3.043   1.361 -0.2670 -0.0533  0.1403
16754SOL    HW161481   8.429   2.992   1.408 -0.4401  0.8989  1.4767
16754SOL    HW261482   8.273   2.991   1.362  0.1031 -0.6845 -0.4461
16755SOL     OW61483   1.442   0.430   6.730  0.1493  0.5446  0.6443
16755SOL    HW161484   1.481   0.436   6.638  0.7620  2.3670  0.9939
16755SOL    HW261485   1.482   0.352   6.778 -1.1478 -1.2011 -1.0596
16756SOL     OW61486   2.777   7.062   0.186 -0.0788 -0.4089  0.0747
16756SOL    HW161487   2.833   7.035   0.264 -1.4364  0.3681  1.3408
16756SOL    HW261488   2.690   7.012   0.188 -1.3324  1.6996  0.7307
16757SOL     OW61489   5.429   9.498   5.297  0.0058 -0.0563  0.7168
16757SOL    HW161490   5.437   9.517   5.199  1.6293  0.4779  0.9428
16757SOL    HW261491   5.339   9.528   5.329 -1.0194 -1.3836 -0.8608
16758SOL     OW61492   5.677   9.459   3.416 -1.1584 -0.0872 -0.5259
16758SOL    HW161493   5.758   9.411   3.448 -1.7018 -0.4427  0.3466
16758SOL    HW261494   5.690   9.489   3.321 -0.6021 -1.4840 -0.8969
16759SOL     OW61495   2.930   1.282   2.352 -0.1848 -0.0024  0.7034
16759SOL    HW161496   2.867   1.358   2.336  0.7624  0.6841  0.2010
16759SOL    HW261497   2.985   1.301   2.433 -0.6714 -0.6427  1.1917
16760SOL     OW61498   1.604   4.550   2.726 -0.0146  0.2575  0.0691
16760SOL    HW161499   1.580   4.603   2.807  0.4019  2.3664 -1.1620
16760SOL    HW261500   1.681   4.592   2.679  0.7306 -1.7887 -0.6128
16761SOL     OW61501   1.187   4.547   0.421  0.0410  0.0144  0.1761
16761SOL    HW161502   1.124   4.480   0.382 -0.5340 -0.4348  1.8521
16761SOL    HW261503   1.149   4.639   0.409 -1.3508 -0.3135  1.8937
16762SOL     OW61504   8.885   2.508   4.062  0.4546  0.1026 -0.0063
16762SOL    HW161505   8.954   2.574   4.032  0.3485 -0.4991 -1.6639
16762SOL    HW261506   8.841   2.541   4.145 -0.3283  2.6514 -1.3762
16763SOL     OW61507   8.091   8.060   2.650 -0.1408  0.5826 -0.4456
16763SOL    HW161508   8.157   8.080   2.723  0.6464 -0.3640 -0.9072
16763SOL    HW261509   8.041   8.144   2.628  1.4000  1.4783 -0.5992
16764SOL     OW61510   7.143   2.908   3.871  0.1551  0.1924 -0.4497
16764SOL    HW161511   7.075   2.863   3.929  1.6779 -0.5539  0.8048
16764SOL    HW261512   7.212   2.841   3.843  1.6209  1.3972  0.1855
16765SOL     OW61513   7.593   5.713   5.309  0.1825  0.0652 -0.0131
16765SOL    HW161514   7.631   5.635   5.260  2.6575  1.2116 -0.0086
16765SOL    HW261515   7.631   5.716   5.402 -1.4632  0.1267  0.6752
16766SOL     OW61516   8.945   5.007   3.344  0.2662  0.1239 -0.6711
16766SOL    HW161517   8.914   4.956   3.264  1.6848  1.6064 -2.2023
16766SOL    HW261518   9.040   4.983   3.365  0.9510  2.0398 -1.4013
16767SOL     OW61519   1.620   7.137   1.470  0.4103  0.5110 -0.0876
16767SOL    HW161520   1.640   7.231   1.441  2.1019 -0.1024 -0.9348
16767SOL    HW261521   1.687   7.075   1.431 -0.8336 -1.1026  0.2909
16768SOL     OW61522   7.603   3.384   3.794 -0.4541  0.3599  0.4770
16768SOL    HW161523   7.532   3.331   3.747 -0.1839 -0.1771  0.6613
16768SOL    HW261524   7.571   3.408   3.886  0.6187 -2.2500  1.6056
16769SOL     OW61525   7.725   2.066   1.215  0.8080 -0.2524  0.4185
16769SOL    HW161526   7.677   2.154   1.211 -2.4832 -2.0055 -1.0611
16769SOL    HW261527   7.725   2.024   1.124  1.4371 -2.2331  1.2999
16770SOL     OW61528   8.791   8.408   2.733  0.5041  0.1942 -0.0956
16770SOL    HW161529   8.869   8.349   2.717  0.2057 -1.1920  3.1213
16770SOL    HW261530   8.706   8.357   2.719  0.2406 -0.0866  2.3070
16771SOL     OW61531   8.870   3.177   3.526  0.1655 -0.1281  0.3413
16771SOL    HW161532   8.866   3.087   3.568 -0.0374 -0.6925 -0.8670
16771SOL    HW261533   8.942   3.231   3.569  0.4812 -0.9686  0.8727
16772SOL     OW61534   6.362   1.475   0.388  0.1169 -0.4053  0.2487
16772SOL    HW161535   6.335   1.543   0.456  2.0589 -1.3109  1.9966
16772SOL    HW261536   6.462   1.470   0.384  0.0048 -2.4649 -0.5737
16773SOL     OW61537   5.718   1.521   1.645 -0.0097 -0.2644  0.4751
16773SOL    HW161538   5.682   1.478   1.727  0.5934  1.0702  1.4573
16773SOL    HW261539   5.803   1.569   1.667  1.4864 -1.9383 -1.4391
16774SOL     OW61540   9.347   9.329   0.380 -0.2545 -0.5998  0.2071
16774SOL    HW161541   9.265   9.279   0.408  1.6007 -2.4749  2.5205
16774SOL    HW261542   9.401   9.272   0.318 -0.3057  0.3485 -0.7303
16775SOL     OW61543   5.948   7.616   4.006 -0.2519 -0.7667  0.0376
16775SOL    HW161544   6.047   7.613   4.015 -0.0654  2.7873 -0.2388
16775SOL    HW261545   5.922   7.616   3.910 -0.3384  1.3984  0.0386
16776SOL     OW61546   0.139   6.880   5.728  0.0283 -0.2162  0.1383
16776SOL    HW161547   0.131   6.812   5.655  0.3890 -0.8660  0.6876
16776SOL    HW261548   0.134   6.972   5.690  1.4970 -0.5323 -0.8653
16777SOL     OW61549   1.648   3.690   4.339 -0.5109 -0.1742  0.4823
16777SOL    HW161550   1.656   3.606   4.391  0.3235 -0.2358  0.2531
16777SOL    HW261551   1.723   3.752   4.363 -0.0564 -0.2501 -0.7125
16778SOL     OW61552   2.024   9.270   0.203  0.1235  0.4995  0.5170
16778SOL    HW161553   2.019   9.170   0.208 -1.1310  0.4509 -1.3618
16778SOL    HW261554   2.033   9.306   0.296 -0.2100 -1.3173  1.2959
16779SOL     OW61555   9.431   3.598   4.522 -0.1835 -0.0758  0.0218
16779SOL    HW161556   9.524   3.588   4.557 -0.6110  0.2034  1.2905
16779SOL    HW261557   9.416   3.532   4.449  1.5751  1.0999 -1.4478
16780SOL     OW61558   5.371   8.959   3.407 -0.3657  0.3601 -0.1305
16780SOL    HW161559   5.381   8.898   3.485 -0.7673 -1.2076 -1.2707
16780SOL    HW261560   5.457   9.005   3.389  0.8341 -2.1300 -1.0576
16781SOL     OW61561   0.968   0.973   1.655 -0.6528  0.6025 -0.5219
16781SOL    HW161562   1.021   0.893   1.683 -0.5914  0.6823 -0.4153
16781SOL    HW261563   0.872   0.946   1.646 -0.9988  1.0299  1.6437
16782SOL     OW61564   9.547   9.215   2.653 -0.3179 -0.2598 -0.5474
16782SOL    HW161565   9.630   9.263   2.623  0.5631 -1.8602 -0.7509
16782SOL    HW261566   9.524   9.243   2.746  0.2036  0.5055 -0.6419
16783SOL     OW61567   2.659   6.740   4.754  0.1360  0.0797  0.1666
16783SOL    HW161568   2.620   6.665   4.807 -0.1953 -1.2122 -1.8693
16783SOL    HW261569   2.759   6.731   4.751 -0.0092 -1.2495 -1.4517
16784SOL     OW61570   0.355   4.228   5.493  0.1271 -0.1203 -0.9212
16784SOL    HW161571   0.298   4.229   5.412 -0.5500 -0.8202 -0.4667
16784SOL    HW261572   0.396   4.137   5.504 -0.1613 -0.1780 -0.2344
16785SOL     OW61573   4.044   2.652   1.121  0.2498  0.0716 -0.4986
16785SOL    HW161574   3.994   2.651   1.034  1.4051  0.3317 -1.1890
16785SOL    HW261575   3.983   2.681   1.195 -0.3294  1.4825 -1.5059
16786SOL     OW61576   9.683   1.799   1.430 -0.0190 -0.0794  0.2631
16786SOL    HW161577   9.704   1.702   1.415  3.8662  0.6951  0.0856
16786SOL    HW261578   9.694   1.849   1.345 -0.2477  0.7846  0.7366
16787SOL     OW61579   8.729   2.704   6.443  0.0119 -0.2800 -0.2072
16787SOL    HW161580   8.828   2.713   6.444  0.2087 -2.2158  1.2042
16787SOL    HW261581   8.687   2.793   6.426  1.9633  0.5864 -0.6507
16788SOL     OW61582   6.824   2.101   2.021 -0.3556  0.0315  0.3842
16788SOL    HW161583   6.819   2.009   1.983  2.1979  0.2764 -0.7022
16788SOL    HW261584   6.866   2.163   1.954  0.1611  1.4575  1.9733
16789SOL     OW61585   4.547   0.753   4.218  0.3478 -0.4534 -0.5358
16789SOL    HW161586   4.507   0.765   4.127  0.7647 -1.4888 -0.8654
16789SOL    HW261587   4.627   0.693   4.212  1.6089  1.1191  0.2047
16790SOL     OW61588   4.554   4.707   5.178  0.0134  0.6281  0.3023
16790SOL    HW161589   4.620   4.766   5.131 -0.7720  0.3454 -1.1859
16790SOL    HW261590   4.589   4.684   5.269  2.2096  0.0495 -0.6557
16791SOL     OW61591   3.029   8.724   0.822 -0.0038 -0.2976  0.5005
16791SOL    HW161592   3.034   8.822   0.841  0.7393  0.4904 -3.3656
16791SOL    HW261593   3.122   8.689   0.805 -0.4248 -1.3756  0.3893
16792SOL     OW61594   8.292   0.714   4.093 -0.3457 -0.0013  0.3093
16792SOL    HW161595   8.379   0.694   4.136  0.0561  1.8284  0.4140
16792SOL    HW261596   8.264   0.807   4.117 -2.3181 -0.5624  0.2696
16793SOL     OW61597   7.914   6.167   3.146  0.5297 -0.0861 -0.4011
16793SOL    HW161598   7.965   6.185   3.062 -0.2326  0.0469 -0.8436
16793SOL    HW261599   7.817   6.153   3.124  0.3365 -0.1223  0.4466
16794SOL     OW61600   2.261   4.619   3.040  0.2224 -0.1949 -0.1823
16794SOL    HW161601   2.195   4.690   3.066 -0.3436 -1.2943  1.4927
16794SOL    HW261602   2.353   4.659   3.035 -0.0705  0.6392  0.8847
16795SOL     OW61603   3.033   6.384   1.114 -0.4772  0.4617 -0.0697
16795SOL    HW161604   2.960   6.317   1.103 -0.9677  0.6495  1.8832
16795SOL    HW261605   3.087   6.388   1.030 -2.6111  0.2267 -1.4992
16796SOL     OW61606   0.494   9.471   3.084  0.3137 -0.2401  0.2659
16796SOL    HW161607   0.569   9.481   3.150  0.4932 -0.7095  0.1298
16796SOL    HW261608   0.522   9.409   3.011 -0.5576 -1.1955  0.7340
16797SOL     OW61609   8.101   7.885   2.239 -0.2967  0.3012  0.4996
16797SOL    HW161610   8.042   7.966   2.234 -0.3911  0.0603 -3.2615
16797SOL    HW261611   8.048   7.808   2.275 -1.6744  0.6483 -0.7236
16798SOL     OW61612   5.649   4.402   0.254  0.0026 -0.0900 -0.4079
16798SOL    HW161613   5.660   4.303   0.269 -0.1705 -0.0507 -0.0111
16798SOL    HW261614   5.628   4.447   0.342  1.1186  0.4422 -0.4112
16799SOL     OW61615   5.450   9.543   5.024 -0.4038  0.4978 -0.1889
16799SOL    HW161616   5.434   9.619   4.961  0.1701  0.3209 -0.5507
16799SOL    HW261617   5.421   9.458   4.980  0.8720  0.2600 -0.5833
16800SOL     OW61618   1.581   6.411   2.542  0.1201 -0.2397 -0.2310
16800SOL    HW161619   1.680   6.423   2.532  0.3388 -0.0900  1.9848
16800SOL    HW261620   1.563   6.318   2.574 -0.6092 -0.9132 -2.4783
16801SOL     OW61621   4.642   7.941   5.283  0.1269 -0.0832  0.0070
16801SOL    HW161622   4.556   7.900   5.315  0.6505 -0.2593  1.2136
16801SOL    HW261623   4.714   7.872   5.287  1.3140  1.2764  3.3205
16802SOL     OW61624   2.418   6.212   3.945 -0.0847  0.5954  0.3262
16802SOL    HW161625   2.399   6.117   3.969  0.0250  0.4704 -0.0666
16802SOL    HW261626   2.497   6.245   3.997 -0.7893  0.8219  1.2699
16803SOL     OW61627   9.198   6.171   5.071 -0.2259  0.0721  0.2659
16803SOL    HW161628   9.276   6.231   5.056 -0.9032  1.0162  0.4871
16803SOL    HW261629   9.120   6.203   5.018 -1.1261  0.4547  1.8007
16804SOL     OW61630   9.258   7.078   4.510  0.5476  0.3494  0.2026
16804SOL    HW161631   9.283   7.157   4.566 -1.2994 -0.9395  2.9540
16804SOL    HW261632   9.318   7.001   4.533  1.3522  0.4703 -1.3855
16805SOL     OW61633   7.414   9.690   1.827 -0.5319 -0.4083 -0.5022
16805SOL    HW161634   7.411   9.621   1.754  0.5213 -1.3220  0.2975
16805SOL    HW261635   7.330   9.744   1.825 -0.5661 -0.5007 -2.3052
16806SOL     OW61636   0.500   2.159   2.270  0.5643 -0.1116 -0.0283
16806SOL    HW161637   0.486   2.256   2.249 -0.0334 -0.2565 -0.2897
16806SOL    HW261638   0.431   2.129   2.336  0.7082 -0.3769  0.0006
16807SOL     OW61639   7.386   8.154   4.338 -1.0081  0.1818  0.0541
16807SOL    HW161640   7.314   8.090   4.311 -1.3013  0.1849  0.8174
16807SOL    HW261641   7.344   8.239   4.372 -0.6271  0.8566 -1.1198
16808SOL     OW61642   7.806   3.494   5.753 -0.4098 -0.1530 -0.0749
16808SOL    HW161643   7.749   3.417   5.782 -0.9840 -0.1551 -1.1466
16808SOL    HW261644   7.887   3.501   5.811 -1.1801 -0.5585  1.0499
16809SOL     OW61645   0.915   3.297   5.912 -0.3608 -0.1349  0.2822
16809SOL    HW161646   0.887   3.292   5.817  2.2635 -0.2780 -0.5410
16809SOL    HW261647   0.868   3.372   5.958 -2.5990 -0.8747 -0.7726
16810SOL     OW61648   4.624   5.595   2.549 -0.3196 -0.4033  0.1224
16810SOL    HW161649   4.547   5.581   2.487 -0.4493  0.4696  0.0912
16810SOL    HW261650   4.668   5.507   2.566 -2.1346 -1.1338  1.2167
16811SOL     OW61651   3.901   8.021   3.171  0.1825  0.3004 -0.6609
16811SOL    HW161652   3.804   8.037   3.187  0.4036  1.4014 -0.4049
16811SOL    HW261653   3.945   7.994   3.257  0.6185  2.4418 -0.1892
16812SOL     OW61654   3.575   1.916   1.727  0.2397 -0.4194 -0.1395
16812SOL    HW161655   3.640   1.840   1.726 -1.1463 -1.6266 -0.9009
16812SOL    HW261656   3.552   1.938   1.821  0.1546 -1.3817  0.0754
16813SOL     OW61657   7.087   1.786   1.413 -0.4639 -0.0557  0.6570
16813SOL    HW161658   7.027   1.723   1.364 -1.5641 -0.2154  2.1478
16813SOL    HW261659   7.085   1.763   1.511 -0.8951  2.2725  1.2171
16814SOL     OW61660   1.098   9.804   6.702  0.2336  0.3328  0.6606
16814SOL    HW161661   1.110   9.745   6.622 -2.3287  0.9482 -0.2053
16814SOL    HW261662   1.049   9.754   6.773  0.3535  0.5741  0.9126
16815SOL     OW61663   4.034   2.752   5.761 -0.1609  0.3913 -0.1100
16815SOL    HW161664   4.062   2.846   5.745 -1.0246  0.6748  0.0423
16815SOL    HW261665   4.096   2.690   5.711  1.0832  0.9755  0.6875
16816SOL     OW61666   3.580   9.932   3.568  0.1055 -0.0871 -0.2831
16816SOL    HW161667   3.607  10.017   3.522 -1.1876  1.2726  1.3823
16816SOL    HW261668   3.662   9.878   3.590  0.9010  0.4584 -1.8273
16817SOL     OW61669   1.391   6.415   0.149  0.5166 -0.4339 -0.3366
16817SOL    HW161670   1.315   6.423   0.085 -0.2259 -0.0795  0.5861
16817SOL    HW261671   1.357   6.388   0.239  1.2657  1.4996  0.5584
16818SOL     OW61672   8.018   6.898   5.290 -0.6274  0.0850  0.0692
16818SOL    HW161673   7.989   6.896   5.195 -0.7930  1.3085  0.0820
16818SOL    HW261674   8.055   6.989   5.311  0.6826 -0.6019  0.7920
16819SOL     OW61675   2.892   5.331   3.385  0.0909  0.0728  0.0861
16819SOL    HW161676   2.914   5.421   3.422  1.9163 -0.0224 -0.7336
16819SOL    HW261677   2.850   5.341   3.295  1.9604  0.0626 -0.8090
16820SOL     OW61678   8.536   6.836   3.545 -0.2999 -0.4899 -0.2831
16820SOL    HW161679   8.598   6.822   3.622 -0.0596 -0.5017 -0.4786
16820SOL    HW261680   8.511   6.748   3.506 -0.4405 -0.4847 -0.2070
16821SOL     OW61681   0.646   3.377   0.476  0.4522 -0.1905 -0.6529
16821SOL    HW161682   0.623   3.302   0.414 -0.1312  0.6191 -1.4174
16821SOL    HW261683   0.741   3.366   0.507  0.1473 -1.6561 -0.1610
16822SOL     OW61684   5.224   7.353   2.831  0.1357 -0.3424  0.6186
16822SOL    HW161685   5.231   7.441   2.783  0.5396  0.0333  1.3578
16822SOL    HW261686   5.130   7.318   2.823  0.0144  0.0737  0.1828
16823SOL     OW61687   0.460   8.068   5.036 -0.6153 -0.3952 -0.3783
16823SOL    HW161688   0.478   8.024   5.124  1.6389  0.0716 -0.5799
16823SOL    HW261689   0.394   8.013   4.984 -1.2900 -1.1297  1.2315
16824SOL     OW61690   0.180   3.163   5.658  0.3951  0.3906  0.1367
16824SOL    HW161691   0.095   3.215   5.660 -0.2155 -0.5780 -0.1998
16824SOL    HW261692   0.190   3.111   5.743 -0.0410 -0.5776 -0.3963
16825SOL     OW61693   8.693   4.510   4.569  0.3109  0.3213  0.5473
16825SOL    HW161694   8.632   4.584   4.597 -1.1937 -0.4934 -0.5103
16825SOL    HW261695   8.714   4.452   4.647  0.2250  0.9590  1.0426
16826SOL     OW61696   9.511   2.505   4.014  0.6020 -0.6336  0.3806
16826SOL    HW161697   9.428   2.548   4.049 -0.5780 -1.5177 -1.2637
16826SOL    HW261698   9.566   2.471   4.091 -0.1797  0.6246  1.5106
16827SOL     OW61699   7.861   6.000   4.275 -0.2282  0.3555 -0.2793
16827SOL    HW161700   7.849   5.998   4.175  0.8309  1.2963 -0.4378
16827SOL    HW261701   7.844   6.093   4.308 -0.2759  0.1119  0.3812
16828SOL     OW61702   5.162   2.308   4.650 -0.0632  0.0805  0.9199
16828SOL    HW161703   5.192   2.313   4.554  0.4070 -3.3352  0.8314
16828SOL    HW261704   5.227   2.356   4.708  1.4870 -0.7041 -0.1281
16829SOL     OW61705   3.467   4.931   0.138  0.7695  0.5213 -0.6430
16829SOL    HW161706   3.487   5.000   0.207 -1.0611  1.4068 -0.9625
16829SOL    HW261707   3.546   4.919   0.079  1.9720  0.5352  0.9315
16830SOL     OW61708   8.461   6.447   2.090  0.0038  0.5638 -0.4133
16830SOL    HW161709   8.460   6.396   2.004 -1.2975 -0.3770  0.1544
16830SOL    HW261710   8.470   6.384   2.167 -3.1255  1.0029  0.3906
16831SOL     OW61711   9.276   0.485   6.198  0.1951 -0.1510 -0.2271
16831SOL    HW161712   9.375   0.470   6.203  0.3714  0.5745 -1.2789
16831SOL    HW261713   9.256   0.551   6.125 -0.9488  0.8828  0.9869
16832SOL     OW61714   0.606   4.465   0.696  0.7287  0.2294 -0.1152
16832SOL    HW161715   0.609   4.383   0.639 -2.2899 -0.2030  0.2435
16832SOL    HW261716   0.558   4.538   0.647  1.6784  1.1648  0.3216
16833SOL     OW61717   6.075   8.560   3.688 -0.4059  0.0514  0.2225
16833SOL    HW161718   6.155   8.532   3.740 -0.6057 -2.2679 -0.6612
16833SOL    HW261719   6.061   8.658   3.698  1.5247  0.1843  1.7814
16834SOL     OW61720   0.800   2.717   0.410 -0.2447 -0.2832  0.3046
16834SOL    HW161721   0.867   2.789   0.429 -0.2537 -0.1239 -0.2639
16834SOL    HW261722   0.801   2.696   0.312  0.1434 -1.4316  0.5483
16835SOL     OW61723   0.923   3.803   6.671  0.2651 -0.2158  0.0751
16835SOL    HW161724   0.925   3.822   6.573 -3.3515  3.8415  0.6034
16835SOL    HW261725   0.996   3.853   6.716  0.0723  0.3162 -0.2030
16836SOL     OW61726   0.414   6.684   1.064  0.4263 -0.9660 -0.3923
16836SOL    HW161727   0.321   6.660   1.036 -0.0701  1.1683 -0.6110
16836SOL    HW261728   0.419   6.688   1.164 -0.0547  0.2289 -0.4140
16837SOL     OW61729   4.563   8.055   4.815  0.3902 -0.0048  0.0323
16837SOL    HW161730   4.517   7.966   4.818  0.5752 -0.1128 -0.3292
16837SOL    HW261731   4.584   8.085   4.908  1.8080 -1.0939  0.0714
16838SOL     OW61732   2.803   4.885   2.520  0.6189 -0.3334 -0.3315
16838SOL    HW161733   2.900   4.888   2.547  0.3215 -1.0426  0.8726
16838SOL    HW261734   2.774   4.976   2.489  1.8514 -0.2834 -1.3715
16839SOL     OW61735   2.943   6.524   2.876 -0.4367 -0.0735 -0.1646
16839SOL    HW161736   2.972   6.478   2.792  2.6249  1.9550 -0.3266
16839SOL    HW261737   2.951   6.461   2.953  0.9427 -0.6809 -0.7930
16840SOL     OW61738   5.346   2.013   1.274 -0.6065 -0.4452 -0.3308
16840SOL    HW161739   5.359   2.099   1.323 -0.2613 -0.2590 -0.7454
16840SOL    HW261740   5.284   2.027   1.197 -3.0104 -1.2507  1.4177
16841SOL     OW61741   3.210   7.011   1.735 -0.4488  0.1334 -0.0416
16841SOL    HW161742   3.145   7.066   1.683 -0.8565 -0.7388 -0.4625
16841SOL    HW261743   3.276   7.072   1.779 -0.8209  0.9566 -0.5880
16842SOL     OW61744   9.927   6.929   3.409  0.5811 -0.0356  0.9165
16842SOL    HW161745   9.879   6.848   3.443  2.5539 -3.1048 -3.2235
16842SOL    HW261746   9.868   6.979   3.346  1.5451 -2.0278 -1.6676
16843SOL     OW61747   1.979   7.272   6.215  0.1379 -0.0423  0.4825
16843SOL    HW161748   1.969   7.238   6.122  1.4635  0.9398 -0.0422
16843SOL    HW261749   1.906   7.236   6.272 -0.2629 -1.2463 -0.7675
16844SOL     OW61750   9.800   3.862   3.247 -0.0133  0.5655  0.0648
16844SOL    HW161751   9.733   3.795   3.279  1.0712 -0.7943 -0.4497
16844SOL    HW261752   9.816   3.931   3.317 -0.7949  0.0102  0.7862
16845SOL     OW61753   9.262   8.180   4.108 -0.2685  0.2389 -0.1840
16845SOL    HW161754   9.201   8.250   4.145  1.1454  0.0847  2.6339
16845SOL    HW261755   9.239   8.091   4.149 -0.3528 -0.4781 -1.7291
16846SOL     OW61756   2.538   5.566   2.383 -0.9223  0.3441  0.2736
16846SOL    HW161757   2.556   5.524   2.472  2.5470 -0.9692 -0.9807
16846SOL    HW261758   2.544   5.665   2.392  1.0403  0.1752  1.2061
16847SOL     OW61759   8.500   6.745   5.967  0.3739  0.0833  0.6646
16847SOL    HW161760   8.560   6.701   5.900  1.3362  0.3532  1.3402
16847SOL    HW261761   8.410   6.701   5.965  0.4821 -0.0854 -0.6076
16848SOL     OW61762   4.652   2.579   1.971 -0.2898  0.2392  0.3122
16848SOL    HW161763   4.602   2.617   1.893 -0.1774  1.2430  0.7174
16848SOL    HW261764   4.713   2.506   1.940  2.4806  3.0453 -1.1370
16849SOL     OW61765   7.903   7.083   5.593 -0.6804 -0.3828 -0.7044
16849SOL    HW161766   7.854   7.157   5.639  0.3690 -0.8853  1.2722
16849SOL    HW261767   7.906   7.002   5.653 -0.0487 -1.3405 -2.0038
16850SOL     OW61768   3.821   2.395   6.219 -0.2170  0.4711  0.1612
16850SOL    HW161769   3.862   2.379   6.130 -0.2193 -1.3055  0.4628
16850SOL    HW261770   3.877   2.459   6.271  0.7928  0.0657 -0.4117
16851SOL     OW61771   0.684   8.613   6.504 -0.4564 -0.5133 -0.0012
16851SOL    HW161772   0.753   8.544   6.483 -1.9315 -1.5245 -1.6612
16851SOL    HW261773   0.692   8.640   6.600  2.3467 -0.4617 -0.2037
16852SOL     OW61774   4.871   2.378   0.775  0.0305 -0.0922 -0.0908
16852SOL    HW161775   4.905   2.341   0.688  1.9267  0.4253  0.4030
16852SOL    HW261776   4.784   2.425   0.759  0.4470  0.1636 -1.7470
16853SOL     OW61777   3.625   6.477   3.601 -0.2528  0.0029 -0.2722
16853SOL    HW161778   3.600   6.570   3.628 -3.0694 -0.2026 -1.8501
16853SOL    HW261779   3.559   6.412   3.639  0.8058 -1.1953 -0.4308
16854SOL     OW61780   5.710   2.241   3.839 -0.4217  0.5385  0.0672
16854SOL    HW161781   5.772   2.317   3.857  0.4178  0.1055 -0.9754
16854SOL    HW261782   5.697   2.188   3.923  1.0036  0.3508  0.1879
16855SOL     OW61783   5.096   0.671   3.137 -0.2518  0.4439 -0.1099
16855SOL    HW161784   5.157   0.748   3.154 -0.4200  0.6416 -0.3995
16855SOL    HW261785   5.002   0.704   3.125 -0.3125  0.2063 -0.3113
16856SOL     OW61786   9.833   3.162   5.899  0.5899  0.1462  0.2361
16856SOL    HW161787   9.738   3.162   5.869  0.1110 -1.0931  1.6454
16856SOL    HW261788   9.860   3.069   5.924  1.9273  0.6093  0.5635
16857SOL     OW61789   2.557   2.024   5.976 -1.1072 -0.4755 -0.0233
16857SOL    HW161790   2.592   2.050   6.066 -0.6081  0.1219 -0.3933
16857SOL    HW261791   2.496   2.095   5.941 -1.2336 -0.6689 -0.2045
16858SOL     OW61792   0.325   5.748   0.314  0.0874  0.6210 -0.5663
16858SOL    HW161793   0.344   5.822   0.379  0.2878  0.1635 -0.0936
16858SOL    HW261794   0.405   5.734   0.256  0.7819 -0.5203  0.6447
16859SOL     OW61795   9.211   6.505   3.141  0.8487  0.2457  0.0437
16859SOL    HW161796   9.279   6.462   3.081 -0.2292 -0.5134 -0.6410
16859SOL    HW261797   9.202   6.602   3.117  1.8906  0.4329  0.3399
16860SOL     OW61798   2.077   7.185   1.560 -0.1617 -0.6114 -0.0017
16860SOL    HW161799   2.021   7.196   1.478 -0.3300  1.1360  0.3183
16860SOL    HW261800   2.155   7.126   1.540  0.8640  1.3366 -1.9784
16861SOL     OW61801   7.900   5.098   1.614  0.0995 -0.2028  0.7102
16861SOL    HW161802   7.942   5.184   1.586 -0.1376 -0.4970 -0.5528
16861SOL    HW261803   7.831   5.116   1.684  0.8216  0.5085  1.2460
16862SOL     OW61804   2.361   5.812   4.962  0.0024  0.6160  0.2191
16862SOL    HW161805   2.361   5.738   5.029 -0.0375 -1.8343 -2.3701
16862SOL    HW261806   2.268   5.847   4.950 -0.8056 -2.0363 -1.7439
16863SOL     OW61807   2.139   4.799   5.671 -0.0050  0.0755 -0.2762
16863SOL    HW161808   2.167   4.711   5.633  1.4546 -0.1811  1.3081
16863SOL    HW261809   2.123   4.864   5.597 -1.3541 -1.5805 -1.4782
16864SOL     OW61810   3.907   3.593   1.434  0.7169  0.4077 -0.6580
16864SOL    HW161811   4.001   3.581   1.465 -0.4105 -3.0706  1.6205
16864SOL    HW261812   3.876   3.511   1.387 -2.7305 -0.4750  2.9194
16865SOL     OW61813   2.419   1.048   4.855  0.3379  0.4843 -0.0834
16865SOL    HW161814   2.513   1.030   4.828  0.5233 -1.1081  1.5526
16865SOL    HW261815   2.382   0.969   4.905 -0.9409  2.1687  1.7197
16866SOL     OW61816   3.568   0.451   1.012  0.1050  0.4041 -0.6141
16866SOL    HW161817   3.503   0.429   0.940 -0.8740  0.4424  0.2399
16866SOL    HW261818   3.560   0.384   1.086 -1.4341  2.3645  1.0756
16867SOL     OW61819   3.324   3.232   4.249  0.0119 -0.6744  0.5069
16867SOL    HW161820   3.415   3.231   4.208 -0.1539 -1.7061  0.1508
16867SOL    HW261821   3.256   3.205   4.181 -0.6199  0.5463  0.6429
16868SOL     OW61822   4.536   0.231   1.620  0.4800 -0.3703 -0.8494
16868SOL    HW161823   4.453   0.272   1.658  1.0455  1.9169 -2.0146
16868SOL    HW261824   4.599   0.208   1.694  0.0700  0.7041 -0.1549
16869SOL     OW61825   2.045   1.354   4.264  0.1105  0.2075  0.2609
16869SOL    HW161826   2.041   1.440   4.214  0.3358  0.3884  0.5484
16869SOL    HW261827   2.124   1.356   4.326  1.3002 -0.9843 -1.1771
16870SOL     OW61828   2.974   0.405   3.455 -0.5500  0.4577 -0.1022
16870SOL    HW161829   3.039   0.470   3.416  1.8130 -1.1006  1.1308
16870SOL    HW261830   2.984   0.402   3.554 -1.8468 -0.5266  0.0176
16871SOL     OW61831   8.170   6.404   2.752  0.6206 -0.1793 -0.0368
16871SOL    HW161832   8.205   6.316   2.722  0.5456 -0.5299  0.9046
16871SOL    HW261833   8.238   6.475   2.735  1.0195 -0.5512  0.0197
16872SOL     OW61834   4.913   1.553   2.593  0.2718  0.5310  0.4668
16872SOL    HW161835   4.862   1.503   2.523 -0.2240  0.8880  0.5703
16872SOL    HW261836   4.850   1.612   2.644  0.8840  1.4781  0.1563
16873SOL     OW61837   3.598   4.428   4.363  0.7931 -0.2977  0.0304
16873SOL    HW161838   3.529   4.470   4.422 -1.0877 -1.6740 -1.1429
16873SOL    HW261839   3.679   4.405   4.418 -0.4319 -0.4428  1.8054
16874SOL     OW61840   9.401   6.657   0.377 -0.2634  0.7660  0.2241
16874SOL    HW161841   9.344   6.604   0.440 -0.9287  0.1726 -0.8497
16874SOL    HW261842   9.342   6.703   0.311  0.4652  0.7146 -0.4643
16875SOL     OW61843   8.313   9.228   5.072 -0.4613  0.2229 -0.1240
16875SOL    HW161844   8.337   9.318   5.034 -2.2614  0.5169 -0.6388
16875SOL    HW261845   8.286   9.167   4.997 -1.8042  0.0820  0.4641
16876SOL     OW61846   0.620   8.516   2.073 -0.0747  0.3010 -0.1226
16876SOL    HW161847   0.554   8.492   2.003  0.9022 -0.0741 -0.9196
16876SOL    HW261848   0.672   8.597   2.045  0.6557 -0.1401 -0.0619
16877SOL     OW61849   3.726   7.562   4.050  0.0877  0.1264 -0.2016
16877SOL    HW161850   3.716   7.662   4.045  1.8705  0.5207  2.7966
16877SOL    HW261851   3.636   7.519   4.045 -0.7274  1.8882 -1.2585
16878SOL     OW61852   4.119   6.108   2.698  0.2427 -0.0460  0.4070
16878SOL    HW161853   4.104   6.025   2.645 -0.3114  0.0172  0.4596
16878SOL    HW261854   4.044   6.121   2.763  0.9463 -0.1537  1.2526
16879SOL     OW61855   9.123   9.862   3.979 -0.3976 -0.2378  0.0148
16879SOL    HW161856   9.052   9.932   3.982 -1.6421 -1.3881 -1.4580
16879SOL    HW261857   9.209   9.903   3.950 -0.8773  0.8515  0.1021
16880SOL     OW61858   8.419   5.572   5.045  0.2679  0.4182  0.0884
16880SOL    HW161859   8.358   5.651   5.035  1.6381  1.8608  2.4284
16880SOL    HW261860   8.391   5.518   5.124  1.2012  0.3537  0.3823
16881SOL     OW61861   0.774   2.553   5.935 -0.0157 -0.4147 -0.0922
16881SOL    HW161862   0.760   2.456   5.957 -0.1885 -0.4331 -0.2851
16881SOL    HW261863   0.695   2.588   5.886 -0.3208  0.0619  0.7524
16882SOL     OW61864   8.222   0.098   5.082 -0.4075  0.1873 -0.3250
16882SOL    HW161865   8.213   0.036   5.160  0.8398  0.4890  0.0694
16882SOL    HW261866   8.214   0.193   5.114  3.3167  0.4829  0.0057
16883SOL     OW61867   3.687   5.652   4.357 -0.0080 -0.1519 -0.2973
16883SOL    HW161868   3.609   5.603   4.396  0.3345  0.3571  1.0654
16883SOL    HW261869   3.720   5.604   4.276 -1.3233 -0.7272 -0.4979
16884SOL     OW61870   3.035   3.204   5.814 -0.0442  0.2365 -0.0302
16884SOL    HW161871   3.079   3.129   5.863 -0.7924  0.5754  1.1967
16884SOL    HW261872   3.099   3.242   5.747  1.2267  0.1473  1.1054
16885SOL     OW61873   1.084   2.940   0.907 -0.2088 -0.0764 -0.0150
16885SOL    HW161874   1.181   2.953   0.887 -0.2073  0.6073  0.4391
16885SOL    HW261875   1.068   2.843   0.928  0.1021 -0.4730 -1.5353
16886SOL     OW61876   8.017   9.733   1.591 -0.0230  0.0495  0.3522
16886SOL    HW161877   8.020   9.670   1.513  0.9000 -1.8765  1.9116
16886SOL    HW261878   7.923   9.743   1.621 -0.2187 -0.3204 -0.1215
16887SOL     OW61879   2.096   6.926   4.721 -0.2019 -0.0413 -0.1034
16887SOL    HW161880   2.155   6.915   4.800  0.9049 -2.8080 -1.2536
16887SOL    HW261881   2.064   7.021   4.716  1.7192  0.7749  2.2030
16888SOL     OW61882   0.377   4.566   6.707  0.3960  0.0851 -0.4394
16888SOL    HW161883   0.315   4.618   6.647  2.1474  2.1551 -0.5033
16888SOL    HW261884   0.443   4.516   6.651 -0.6420 -1.4168 -0.3439
16889SOL     OW61885   9.868   5.837   0.082 -0.0126  0.3458 -0.1380
16889SOL    HW161886   9.933   5.777   0.129 -1.6016 -0.8837  0.5440
16889SOL    HW261887   9.911   5.877   0.001  1.7226 -0.0882  0.5535
16890SOL     OW61888   6.686   8.354   3.168  0.2862  0.5949  0.2781
16890SOL    HW161889   6.725   8.268   3.202 -1.5317 -0.3062  0.1770
16890SOL    HW261890   6.642   8.338   3.080  1.3734  2.0154 -0.5416
16891SOL     OW61891   0.984   1.717   1.233 -0.2383  0.2384 -0.2725
16891SOL    HW161892   1.074   1.692   1.270 -0.4483  0.0991  0.1445
16891SOL    HW261893   0.972   1.816   1.241 -0.4422  0.1585  0.3825
16892SOL     OW61894   2.012   2.802   3.701  0.3126  0.0249  0.3709
16892SOL    HW161895   1.917   2.820   3.726 -0.0269  0.6763 -1.2831
16892SOL    HW261896   2.046   2.723   3.752 -0.9517  0.0894  1.3421
16893SOL     OW61897   9.212   7.274   0.021  0.7094 -0.0455 -0.2916
16893SOL    HW161898   9.309   7.273  -0.003  0.7035 -1.0067 -0.3051
16893SOL    HW261899   9.190   7.359   0.067  1.5733  0.1555 -0.2350
16894SOL     OW61900   0.076   1.657   0.040  0.0141 -0.1361 -0.1571
16894SOL    HW161901   0.024   1.577   0.009 -0.3728 -0.3467  0.9939
16894SOL    HW261902   0.171   1.631   0.057 -0.4166 -0.6887  1.5136
16895SOL     OW61903   8.727   0.831   2.089 -0.2179 -0.0038 -0.1923
16895SOL    HW161904   8.763   0.747   2.049 -1.2741 -0.9928  0.9032
16895SOL    HW261905   8.641   0.855   2.044 -0.2008  0.1845 -0.1240
16896SOL     OW61906   1.751   8.217   5.849  0.2096 -0.2045  0.5389
16896SOL    HW161907   1.692   8.193   5.772 -0.1485  1.0654  0.4099
16896SOL    HW261908   1.825   8.150   5.857 -0.5380 -1.1073 -0.0576
16897SOL     OW61909   2.293   6.613   4.498  0.0627  0.2065 -0.1015
16897SOL    HW161910   2.234   6.533   4.496  0.1220  0.1703 -0.3966
16897SOL    HW261911   2.269   6.675   4.423 -0.5551  0.8734  0.6457
16898SOL     OW61912   1.942   1.312   4.571 -0.1764 -0.4044  0.0404
16898SOL    HW161913   2.006   1.334   4.497 -0.1965  0.4337  0.2646
16898SOL    HW261914   1.963   1.221   4.607  1.3714  0.1505  0.5917
16899SOL     OW61915   5.023   9.265   2.934  0.0230  0.0582  0.3131
16899SOL    HW161916   5.054   9.177   2.898 -1.2780  0.0531 -0.8267
16899SOL    HW261917   5.086   9.295   3.006  2.2094 -0.3501 -1.3520
16900SOL     OW61918   3.576   1.069   5.508  0.5037  0.2273  0.5481
16900SOL    HW161919   3.477   1.062   5.496  0.6188  0.2886 -0.4840
16900SOL    HW261920   3.597   1.090   5.604 -0.5534  1.5703  0.5077
16901SOL     OW61921   5.032   9.923   6.284  0.2227 -0.2762 -0.4377
16901SOL    HW161922   4.960   9.864   6.321  0.2207 -1.7064 -2.6868
16901SOL    HW261923   5.108   9.926   6.349 -0.8910 -0.5701  0.9186
16902SOL     OW61924   7.895   3.106   4.594 -0.0215  0.4235  0.2229
16902SOL    HW161925   7.888   3.010   4.566  0.6376 -0.0782  1.7621
16902SOL    HW261926   7.839   3.121   4.675 -1.1843  1.6685 -0.7882
16903SOL     OW61927   2.793   3.951   4.074 -0.4677 -0.7294 -0.2221
16903SOL    HW161928   2.710   4.006   4.077  0.9146  1.5244 -1.4764
16903SOL    HW261929   2.845   3.965   4.159 -0.9808 -1.5111  0.2220
16904SOL     OW61930   3.506   6.869   1.630 -0.4851  0.4097 -0.4950
16904SOL    HW161931   3.430   6.805   1.637  1.6079 -2.1710 -0.5926
16904SOL    HW261932   3.533   6.899   1.721 -0.6029  0.0716 -0.3468
16905SOL     OW61933   0.209   6.446   5.703 -0.0902  0.4350 -0.1219
16905SOL    HW161934   0.110   6.450   5.719  0.4729  0.7681  3.7209
16905SOL    HW261935   0.228   6.380   5.631 -3.2600  2.2044 -2.7022
16906SOL     OW61936   1.770   0.146   3.091  0.7140  0.2643  0.7535
16906SOL    HW161937   1.792   0.122   2.996 -0.6779  0.8051  0.2716
16906SOL    HW261938   1.814   0.233   3.114  0.7900  0.2978  0.4881
16907SOL     OW61939   0.865   2.974   5.216  0.5585  0.1287 -0.0249
16907SOL    HW161940   0.933   3.010   5.152 -0.0877 -0.4237 -1.0382
16907SOL    HW261941   0.911   2.943   5.299  1.7006 -1.3094 -1.1605
16908SOL     OW61942   0.175   7.298   2.613  0.1868 -0.5236 -0.3409
16908SOL    HW161943   0.183   7.372   2.679 -1.4647 -1.9421  1.5310
16908SOL    HW261944   0.261   7.246   2.611 -0.3673 -1.6210  2.1779
16909SOL     OW61945   3.116   1.792   4.767  0.1131 -0.1570 -0.6931
16909SOL    HW161946   3.041   1.727   4.769  0.0887 -0.0951  1.9029
16909SOL    HW261947   3.082   1.883   4.793  0.6841  0.3198 -1.5844
16910SOL     OW61948   8.840   8.211   4.561  0.4877  0.0216 -0.4176
16910SOL    HW161949   8.751   8.245   4.590  0.9589 -0.5960  1.8706
16910SOL    HW261950   8.910   8.242   4.625  1.4348 -2.2170 -0.3060
16911SOL     OW61951   5.463   8.876   5.055 -0.2430  0.5318  0.3993
16911SOL    HW161952   5.467   8.962   5.106 -1.8359  1.4596 -0.9792
16911SOL    HW261953   5.490   8.800   5.114 -0.1700  1.8216  2.0409
16912SOL     OW61954   9.919   3.523   3.449  0.1120  0.1387 -0.3508
16912SOL    HW161955   9.878   3.551   3.362 -0.3278 -0.7865 -0.4563
16912SOL    HW261956   9.945   3.427   3.444  1.9941  0.6283 -0.1515
16913SOL     OW61957   1.657   5.356   2.699  0.5207 -0.4179 -0.7580
16913SOL    HW161958   1.611   5.303   2.628 -2.1821  0.2089  0.4742
16913SOL    HW261959   1.638   5.453   2.688  0.3810 -0.2727  0.5746
16914SOL     OW61960   1.143   8.441   6.079 -0.0319 -0.2074 -0.5433
16914SOL    HW161961   1.169   8.410   5.987 -0.0124 -0.7301 -0.3673
16914SOL    HW261962   1.163   8.368   6.145  0.4111  0.3534 -0.0588
16915SOL     OW61963   8.126   3.069   3.771  1.1403  0.1396  0.6609
16915SOL    HW161964   8.073   3.106   3.695  0.9656 -1.1308  0.1697
16915SOL    HW261965   8.222   3.062   3.745  1.0834 -0.2793  0.5741
16916SOL     OW61966   2.880   5.335   0.104  0.4140  0.1640 -0.1083
16916SOL    HW161967   2.848   5.322   0.010  0.6721  1.6780 -0.4243
16916SOL    HW261968   2.804   5.325   0.168 -0.1457  1.0744 -0.6362
16917SOL     OW61969   6.907   1.460   0.481  0.2421  0.1268  0.0305
16917SOL    HW161970   6.880   1.437   0.575 -1.5766 -0.9732 -0.7331
16917SOL    HW261971   6.996   1.507   0.483  0.7036 -0.7356  2.2185
16918SOL     OW61972   9.368   9.429   5.009  0.5175  0.1297 -0.1320
16918SOL    HW161973   9.354   9.439   5.107 -0.0910  2.1087 -0.4080
16918SOL    HW261974   9.365   9.332   4.985  0.3191 -0.3446  1.7406
16919SOL     OW61975   0.081   5.716   0.767 -0.1282 -0.6741 -0.2878
16919SOL    HW161976  -0.003   5.664   0.752 -0.4450  0.0284 -1.0194
16919SOL    HW261977   0.061   5.814   0.761  0.7054 -0.4968 -0.2822
16920SOL     OW61978   5.948   9.176   5.202 -0.1911 -0.3241  0.5067
16920SOL    HW161979   5.957   9.085   5.243 -0.9659  0.1005  1.6416
16920SOL    HW261980   5.937   9.244   5.274 -1.0377  0.5043 -0.3908
16921SOL     OW61981   0.669   1.966   6.397 -0.3235  0.2025  0.3473
16921SOL    HW161982   0.588   2.008   6.356  0.3588  1.4883  0.3055
16921SOL    HW261983   0.690   1.882   6.347 -0.6446  0.7444 -0.7339
16922SOL     OW61984   9.601   6.615   1.564  0.3880 -0.1804 -0.4453
16922SOL    HW161985   9.695   6.644   1.582  1.0002 -1.4595 -1.5456
16922SOL    HW261986   9.590   6.519   1.587 -0.2602 -0.4174 -1.6992
16923SOL     OW61987   1.534   9.359   4.915  0.2105  0.1510  0.1146
16923SOL    HW161988   1.607   9.306   4.873 -0.9364 -0.6392 -0.9285
16923SOL    HW261989   1.534   9.343   5.014 -0.8070 -2.7351 -0.2853
16924SOL     OW61990   7.259   6.438   5.332  0.2257  0.3473 -0.2596
16924SOL    HW161991   7.215   6.522   5.301  0.1698  0.6389  0.6160
16924SOL    HW261992   7.192   6.363   5.334  0.0576  0.5049 -0.0934
16925SOL     OW61993   2.121   2.299   5.841 -0.0743  0.2125  0.2075
16925SOL    HW161994   2.078   2.271   5.755 -0.4081 -0.9577  0.7438
16925SOL    HW261995   2.051   2.311   5.911  0.4465 -1.6113  1.0649
16926SOL     OW61996   7.109   3.735   6.319 -0.2803  0.1724  0.4951
16926SOL    HW161997   7.122   3.695   6.409 -1.3199 -0.7581  0.2413
16926SOL    HW261998   7.015   3.719   6.288 -0.2322  1.3759 -0.3133
16927SOL     OW61999   5.592   1.073   5.297  0.1077 -0.3462 -0.1317
16927SOL    HW162000   5.581   1.154   5.355 -0.9854 -0.1438 -0.6123
16927SOL    HW262001   5.506   1.021   5.295  0.0531 -0.2214 -1.7486
16928SOL     OW62002   5.982   0.616   3.341  0.1564 -0.0262  0.7695
16928SOL    HW162003   5.901   0.617   3.282 -0.0390 -1.3932  1.0108
16928SOL    HW262004   6.058   0.661   3.293 -0.3631  0.0387 -0.0018
16929SOL     OW62005   7.184   9.529   1.598  0.0024  0.6859  0.4474
16929SOL    HW162006   7.110   9.528   1.665  0.5169  0.0930  1.0121
16929SOL    HW262007   7.179   9.614   1.544 -0.6647  0.9659  0.9436
16930SOL     OW62008   9.035   4.307   5.719  0.1175  0.1434  0.1913
16930SOL    HW162009   9.135   4.306   5.717  0.1740  0.0634  2.2379
16930SOL    HW262010   9.004   4.386   5.771 -0.8850 -0.2190  0.1466
16931SOL     OW62011   4.068   8.299   0.618 -0.3300  0.7607 -0.1239
16931SOL    HW162012   4.016   8.218   0.646  0.9364 -0.3486 -0.9653
16931SOL    HW262013   4.037   8.330   0.528 -0.0584  0.5700 -0.2813
16932SOL     OW62014   9.906   1.246   1.392  0.7984 -0.4732 -0.7005
16932SOL    HW162015   9.816   1.260   1.350 -0.1672  2.2590  2.1150
16932SOL    HW262016   9.977   1.254   1.321 -0.8907  1.9246 -2.2128
16933SOL     OW62017   7.095   8.692   6.156 -0.5626  0.2708 -0.0408
16933SOL    HW162018   7.003   8.726   6.135 -0.5003  0.7338  0.4230
16933SOL    HW262019   7.157   8.770   6.166 -0.5646  0.0768  1.7290
16934SOL     OW62020   9.166   4.364   1.923 -0.1595  0.2906 -0.3317
16934SOL    HW162021   9.084   4.354   1.865 -0.1935  0.5006 -0.3215
16934SOL    HW262022   9.183   4.279   1.971 -0.7603  0.4506  0.1741
16935SOL     OW62023   4.381   4.830   6.676  0.4921 -0.1436 -0.1659
16935SOL    HW162024   4.319   4.762   6.638  0.9486  0.3280 -1.8000
16935SOL    HW262025   4.417   4.887   6.602 -0.3281  2.2383  1.2390
16936SOL     OW62026   8.060   8.558   3.225 -0.1395 -0.5031  0.4118
16936SOL    HW162027   8.037   8.519   3.315  0.6750 -0.1217  0.7940
16936SOL    HW262028   8.076   8.656   3.236 -1.0515 -0.2634 -0.3420
16937SOL     OW62029   6.018   0.073   1.213  0.8252  0.0526 -0.0995
16937SOL    HW162030   5.973   0.089   1.125  0.2421 -0.8351  0.0308
16937SOL    HW262031   5.949   0.052   1.283  1.4866 -2.6184 -0.1881
16938SOL     OW62032   3.005   1.585   1.093 -0.1634 -0.0599 -0.2836
16938SOL    HW162033   2.962   1.636   1.019 -1.5202 -1.4662 -0.4956
16938SOL    HW262034   3.022   1.491   1.064 -2.6016 -1.2099  1.8526
16939SOL     OW62035   1.667   2.045   0.651  0.3618 -0.3982 -0.2502
16939SOL    HW162036   1.597   1.989   0.696  0.7722 -0.0891  0.7945
16939SOL    HW262037   1.729   1.987   0.599  1.2587 -1.0106  1.4703
16940SOL     OW62038   8.982   7.193   5.017 -0.0874  0.0548 -0.5777
16940SOL    HW162039   9.077   7.169   5.033 -0.5155 -1.8529 -0.8260
16940SOL    HW262040   8.923   7.116   5.040 -1.7526  1.8842  1.5535
16941SOL     OW62041   8.016   0.907   2.499  0.3168 -0.0378  0.0039
16941SOL    HW162042   8.070   0.824   2.490 -1.0801 -0.9072 -0.4731
16941SOL    HW262043   8.058   0.980   2.445 -0.1529 -1.2934 -2.1202
16942SOL     OW62044   3.390   5.844   1.087 -0.6589 -0.5075  0.2744
16942SOL    HW162045   3.400   5.903   1.167 -0.1292  0.3264 -0.4064
16942SOL    HW262046   3.480   5.823   1.049 -0.8434 -1.6665  0.4409
16943SOL     OW62047   9.962   7.563   1.869  0.0006 -0.6874  0.4365
16943SOL    HW162048   9.934   7.472   1.900 -0.9704 -0.0893  1.3790
16943SOL    HW262049  10.055   7.559   1.833  0.5926 -1.7441  2.0108
16944SOL     OW62050   4.719   4.595   1.236  0.1002 -0.2936 -0.3794
16944SOL    HW162051   4.728   4.664   1.164  0.6584 -1.9519 -1.9390
16944SOL    HW262052   4.622   4.573   1.248  0.0435 -0.4631 -1.0909
16945SOL     OW62053   9.916   4.908   0.339 -0.1132  0.5916 -0.1171
16945SOL    HW162054   9.961   4.843   0.400  0.7834 -0.0445 -1.4106
16945SOL    HW262055   9.929   5.001   0.373 -0.2405  0.1865  1.0317
16946SOL     OW62056   9.654   9.016   0.383 -0.0858  0.1622 -0.3216
16946SOL    HW162057   9.573   9.012   0.324 -0.3002 -0.9730  0.0301
16946SOL    HW262058   9.641   8.954   0.461  0.8966  0.3791  0.0178
16947SOL     OW62059   5.792   2.006   3.578  0.5238 -0.6282 -0.5163
16947SOL    HW162060   5.703   2.052   3.575  1.4257  1.2071  0.1287
16947SOL    HW262061   5.811   1.963   3.490  0.1697  1.2465 -1.5333
16948SOL     OW62062   8.292   8.942   2.185  0.0210  0.1524  0.1905
16948SOL    HW162063   8.308   8.847   2.158 -0.5462  0.4286 -1.1978
16948SOL    HW262064   8.332   9.003   2.116  0.1899  0.9106  0.9581
16949SOL     OW62065   2.246   3.517   1.959 -0.3098  0.1253 -0.4876
16949SOL    HW162066   2.262   3.531   1.861  1.8327 -0.2895 -0.2067
16949SOL    HW262067   2.225   3.421   1.976  1.2779 -0.1968 -0.2971
16950SOL     OW62068   1.215   5.064   0.161 -0.2162 -0.7484  0.0834
16950SOL    HW162069   1.162   5.146   0.184  0.8366  0.6460 -2.1900
16950SOL    HW262070   1.204   5.045   0.063  1.6108 -1.8224  0.0761
16951SOL     OW62071   0.862   2.846   4.650  0.3390  0.1002  0.2994
16951SOL    HW162072   0.872   2.931   4.702 -0.1167  0.8074 -0.7739
16951SOL    HW262073   0.778   2.800   4.677  0.3071  0.2624  0.4738
16952SOL     OW62074   0.770   9.507   1.064 -0.3515  0.1333 -0.0172
16952SOL    HW162075   0.755   9.571   1.140 -1.0736  1.2398 -1.0881
16952SOL    HW262076   0.734   9.417   1.090  1.6404 -0.1622  1.9169
16953SOL     OW62077   0.543   7.847   1.439 -0.5754 -0.0401 -0.1265
16953SOL    HW162078   0.600   7.765   1.445 -1.3894 -0.5958  0.2957
16953SOL    HW262079   0.527   7.884   1.531 -1.7123 -0.4847 -0.1323
16954SOL     OW62080   9.395   5.179   4.017 -0.0229 -0.2249  0.1984
16954SOL    HW162081   9.386   5.235   3.934 -0.6629 -0.5589  0.0407
16954SOL    HW262082   9.388   5.082   3.993  0.9393 -0.3733  0.4918
16955SOL     OW62083   8.943   1.197   4.573 -0.1401  0.0790 -0.9112
16955SOL    HW162084   8.946   1.097   4.564 -0.5974  0.0852 -1.1145
16955SOL    HW262085   9.029   1.235   4.540  0.3884 -0.3120 -0.0087
16956SOL     OW62086   2.872   8.141   4.833  0.8054 -0.8252 -0.5487
16956SOL    HW162087   2.941   8.108   4.770  1.9797  2.4472 -1.1050
16956SOL    HW262088   2.806   8.197   4.784  1.3185  1.1612  0.9507
16957SOL     OW62089   1.647   1.369   1.546  0.0931  0.8904  0.0059
16957SOL    HW162090   1.548   1.363   1.560 -0.0283  0.2521 -1.0338
16957SOL    HW262091   1.674   1.464   1.534 -0.5374  0.9832 -0.6670
16958SOL     OW62092   2.332   6.775   2.407  0.2898 -0.3520  0.5754
16958SOL    HW162093   2.341   6.871   2.380 -0.8173  0.5677  3.3587
16958SOL    HW262094   2.236   6.749   2.409  0.5008 -1.1155  1.2521
16959SOL     OW62095   3.353   4.222   0.060 -0.0822 -0.2049  0.3029
16959SOL    HW162096   3.276   4.162   0.043  0.1749 -0.8085  1.2311
16959SOL    HW262097   3.343   4.305   0.005  0.2486 -1.6569 -2.0357
16960SOL     OW62098   2.915   1.248   4.391  0.2604 -0.6406 -0.5511
16960SOL    HW162099   2.864   1.163   4.393  0.1025 -0.5451 -0.5123
16960SOL    HW262100   2.871   1.313   4.330 -0.9383  0.2318  1.2010
16961SOL     OW62101   7.730   4.174   5.905  0.6008  0.1918 -0.4421
16961SOL    HW162102   7.690   4.197   5.994 -0.4346 -1.4606 -0.4570
16961SOL    HW262103   7.694   4.236   5.836  0.8189  0.9945  0.1565
16962SOL     OW62104   4.100   7.065   2.277  0.0010  0.1134 -0.8156
16962SOL    HW162105   4.178   7.002   2.273 -0.0251  0.0246 -0.0108
16962SOL    HW262106   4.029   7.034   2.215 -0.2959 -1.0484  0.0857
16963SOL     OW62107   0.656   8.263   1.532  0.0200  0.5537 -0.2990
16963SOL    HW162108   0.592   8.198   1.575  0.6047  1.1324  1.5092
16963SOL    HW262109   0.743   8.217   1.516  0.0735  0.5626 -0.0502
16964SOL     OW62110   9.265   6.635   2.744 -0.7835  0.2888 -0.4533
16964SOL    HW162111   9.358   6.635   2.708 -0.6963  2.5734 -0.2783
16964SOL    HW262112   9.233   6.541   2.755  1.4505 -0.5078 -0.6392
16965SOL     OW62113   3.455   2.640   1.562 -0.3923  0.3004  0.0406
16965SOL    HW162114   3.472   2.592   1.648 -1.4702 -0.6257 -0.2458
16965SOL    HW262115   3.370   2.691   1.568  0.2702  1.4391  0.0119
16966SOL     OW62116   7.944   0.932   2.131 -0.0197 -0.1474 -0.0012
16966SOL    HW162117   7.855   0.975   2.145  0.9447  1.4983  1.2593
16966SOL    HW262118   7.951   0.899   2.037 -2.5090 -1.6332  0.2937
16967SOL     OW62119   2.539   9.727   1.487  0.3575 -0.2598 -0.0459
16967SOL    HW162120   2.567   9.816   1.451 -1.1612 -0.3447 -1.4949
16967SOL    HW262121   2.525   9.735   1.586  0.2736  1.0987 -0.1453
16968SOL     OW62122   0.720   6.744   2.455 -0.1988  0.1195 -0.5603
16968SOL    HW162123   0.696   6.691   2.374 -1.3043  0.1999 -0.2862
16968SOL    HW262124   0.808   6.712   2.490  0.6419  0.5729 -2.2118
16969SOL     OW62125   3.085   0.437   2.843 -0.2313  0.4693  0.1438
16969SOL    HW162126   3.156   0.495   2.802 -0.9529  1.4004  0.2091
16969SOL    HW262127   3.014   0.418   2.775  0.9183 -1.8993 -0.4605
16970SOL     OW62128   0.842   2.171   6.751  0.3086  0.1011 -0.0109
16970SOL    HW162129   0.754   2.193   6.710 -0.2089 -1.2722  0.3034
16970SOL    HW262130   0.884   2.095   6.700  0.5752 -0.2892  0.7795
16971SOL     OW62131   4.399   6.339   2.416  0.1821 -0.2112 -0.8524
16971SOL    HW162132   4.437   6.431   2.427  0.5844 -0.4043 -0.5835
16971SOL    HW262133   4.463   6.283   2.364 -0.1850 -0.2631 -1.2492
16972SOL     OW62134   8.270   6.734   4.532 -0.3577 -0.0053 -0.4180
16972SOL    HW162135   8.179   6.774   4.541 -0.3275 -0.3068  1.5456
16972SOL    HW262136   8.333   6.800   4.492 -0.4089  1.8159  2.3335
16973SOL     OW62137   9.035   5.099   6.275 -0.1990  0.1137 -0.0718
16973SOL    HW162138   9.098   5.101   6.352 -2.0013  1.8473  1.4417
16973SOL    HW262139   8.982   5.014   6.277  0.7543 -0.4847 -0.2378
16974SOL     OW62140   4.369   2.529   3.388  0.1415 -0.2178  0.0030
16974SOL    HW162141   4.457   2.574   3.409 -0.7130  0.7247  1.7357
16974SOL    HW262142   4.373   2.490   3.297  2.3357 -0.0866 -0.0054
16975SOL     OW62143   2.108   8.230   0.924  0.8264  0.3248  0.0272
16975SOL    HW162144   2.065   8.294   0.860  1.0667 -1.1597 -1.6676
16975SOL    HW262145   2.037   8.177   0.970  0.7425 -0.8409 -1.4082
16976SOL     OW62146   2.058   2.373   1.170  0.1897 -0.0901  0.1795
16976SOL    HW162147   1.989   2.399   1.102  0.3393  1.4666  0.6008
16976SOL    HW262148   2.146   2.360   1.124  0.2757  0.8956  0.0398
16977SOL     OW62149   9.496   9.417   1.207  0.0536  0.4610 -0.3152
16977SOL    HW162150   9.482   9.338   1.148  1.3224  0.5835 -0.8054
16977SOL    HW262151   9.443   9.495   1.174 -2.2798 -0.5420  0.9524
16978SOL     OW62152   3.682   4.412   6.343 -0.1931 -0.5119  0.0414
16978SOL    HW162153   3.649   4.473   6.271 -0.7205 -0.7755  0.0573
16978SOL    HW262154   3.612   4.344   6.364  0.4018 -1.1533 -0.0093
16979SOL     OW62155   0.989   1.466   6.609 -0.6693  0.6292  0.5764
16979SOL    HW162156   0.927   1.451   6.532 -2.4563 -1.4505  2.3630
16979SOL    HW262157   0.991   1.563   6.632  0.0492  1.3120 -2.1807
16980SOL     OW62158   9.759   2.464   1.075 -0.1543  0.0124  0.2669
16980SOL    HW162159   9.746   2.530   1.150 -0.5373  1.1050 -0.7464
16980SOL    HW262160   9.716   2.499   0.992  0.1803 -1.2422 -0.4506
16981SOL     OW62161   2.624   2.712   2.353 -0.1312  0.4987 -0.4892
16981SOL    HW162162   2.714   2.693   2.393 -0.3900 -0.3439 -0.3128
16981SOL    HW262163   2.618   2.669   2.263 -0.2965  0.7027 -0.5760
16982SOL     OW62164   4.738   7.606   5.121  0.5992  0.0998 -0.1116
16982SOL    HW162165   4.784   7.668   5.185 -0.8901  0.1564  0.9344
16982SOL    HW262166   4.780   7.615   5.030  1.9079  0.9480  0.5539
16983SOL     OW62167   7.018   7.758   3.079  0.4761 -0.3117 -0.0127
16983SOL    HW162168   6.930   7.735   3.120 -0.8445  1.8236 -1.5450
16983SOL    HW262169   7.024   7.717   2.988 -0.5940  2.6377 -1.4781
16984SOL     OW62170   9.507   0.732   5.607  0.2886 -0.2140  0.6369
16984SOL    HW162171   9.444   0.810   5.605 -1.6676 -1.7572  0.3981
16984SOL    HW262172   9.578   0.749   5.675  1.4055  2.8847 -1.1589
16985SOL     OW62173   2.361   3.001   6.608 -0.5559 -0.0573 -0.1386
16985SOL    HW162174   2.440   2.960   6.561 -1.5007 -1.8415 -0.2296
16985SOL    HW262175   2.389   3.085   6.654  1.5693 -1.0617  0.4619
16986SOL     OW62176   9.684   8.582   1.461  0.2632 -0.4864 -0.2236
16986SOL    HW162177   9.761   8.530   1.424 -1.2513 -0.5114 -3.4922
16986SOL    HW262178   9.689   8.676   1.427  0.2469  0.2107  1.6527
16987SOL     OW62179   1.554   6.200   2.124  0.0846 -0.5935  0.0768
16987SOL    HW162180   1.631   6.202   2.188 -0.4671  3.2744  0.7194
16987SOL    HW262181   1.581   6.244   2.039 -1.6170  1.4123  0.5582
16988SOL     OW62182   0.835   5.271   3.401  0.3836  0.3988  0.0477
16988SOL    HW162183   0.862   5.265   3.305  1.6338  0.4768  0.3901
16988SOL    HW262184   0.758   5.334   3.410 -0.2457 -0.2032 -1.0028
16989SOL     OW62185   7.468   7.713   3.254  0.3877 -0.3968  0.7262
16989SOL    HW162186   7.499   7.644   3.319  0.8623 -0.1169  0.7989
16989SOL    HW262187   7.541   7.731   3.188  1.4778  2.3670  2.6051
16990SOL     OW62188   2.068   7.059   2.319 -0.0146  0.1765  0.0981
16990SOL    HW162189   2.167   7.053   2.311  0.1037  0.9505  1.0289
16990SOL    HW262190   2.032   6.970   2.346  0.4582  0.0128  0.1962
16991SOL     OW62191   6.216   1.703   4.374  0.3904  0.5012 -0.4482
16991SOL    HW162192   6.139   1.703   4.311 -0.1540  0.9063  0.2188
16991SOL    HW262193   6.210   1.781   4.436 -0.3347 -1.1285  1.6215
16992SOL     OW62194   6.347   7.896   4.687 -0.0381  0.2301 -0.1659
16992SOL    HW162195   6.368   7.913   4.783 -0.2475 -3.3227  0.5700
16992SOL    HW262196   6.256   7.855   4.680  0.9421 -1.7347 -1.6420
16993SOL     OW62197   7.070   0.747   6.420 -0.0596  0.1745  0.3930
16993SOL    HW162198   6.993   0.702   6.466 -1.1441  0.2130 -1.3292
16993SOL    HW262199   7.071   0.721   6.323  0.6159  2.1148 -0.1514
16994SOL     OW62200   1.758   4.721   0.242 -0.4025  0.0978  0.2643
16994SOL    HW162201   1.788   4.804   0.196 -0.3441 -0.8923 -1.5203
16994SOL    HW262202   1.717   4.658   0.175 -0.4967 -1.2880  1.5886
16995SOL     OW62203   1.418   7.926   3.453  0.1924 -0.0141  0.0436
16995SOL    HW162204   1.404   7.864   3.530  0.6729  1.3430  1.2423
16995SOL    HW262205   1.505   7.905   3.409  0.5828  0.1203  0.7420
16996SOL     OW62206   0.611   9.958   6.527 -0.2661 -0.1380 -0.0516
16996SOL    HW162207   0.516   9.984   6.510  0.2870  0.8935 -1.6280
16996SOL    HW262208   0.653  10.025   6.588 -0.4606 -0.4646  0.4513
16997SOL     OW62209   0.545   8.908   5.114  0.3450 -0.2551  0.3245
16997SOL    HW162210   0.601   8.928   5.194  0.5651  0.5801 -0.0233
16997SOL    HW262211   0.604   8.900   5.033 -0.0699  1.0817 -0.1216
16998SOL     OW62212   3.271   6.971   3.524  0.0603 -0.0571  0.0176
16998SOL    HW162213   3.209   6.926   3.460  0.3151 -1.5420  0.7850
16998SOL    HW262214   3.286   7.066   3.495  0.7992 -0.9141 -2.5638
16999SOL     OW62215   2.846   6.118   1.413 -0.9088  0.0160  0.4516
16999SOL    HW162216   2.892   6.058   1.347 -2.7566 -0.4809 -0.4102
16999SOL    HW262217   2.759   6.077   1.441 -0.6759  0.7543  2.3624
17000SOL     OW62218   3.584   2.351   5.051  0.0915  0.1895  0.3609
17000SOL    HW162219   3.636   2.293   4.989 -0.4250  1.8735 -1.6820
17000SOL    HW262220   3.487   2.342   5.031 -0.1886 -0.3209  1.8807
17001SOL     OW62221   4.445   4.527   1.222  0.0275 -0.5721  0.1129
17001SOL    HW162222   4.466   4.431   1.205 -0.1443 -0.2306 -2.1298
17001SOL    HW262223   4.346   4.541   1.215 -0.0674 -0.4378  1.5828
17002SOL     OW62224   2.681   3.411   5.315  0.0666 -0.1712  0.0538
17002SOL    HW162225   2.776   3.391   5.288 -0.2877  0.1106 -1.4609
17002SOL    HW262226   2.666   3.510   5.314 -0.2159 -0.2122  0.3501
17003SOL     OW62227   8.342   2.661   1.239  0.0918  0.1493 -0.3848
17003SOL    HW162228   8.278   2.732   1.267  0.6944  0.4638  0.2260
17003SOL    HW262229   8.311   2.619   1.154 -0.3000  1.0962 -0.7153
17004SOL     OW62230   4.822   9.933   0.555  0.4874 -0.2429 -0.1148
17004SOL    HW162231   4.878   9.891   0.626  0.4059  2.3786  1.5842
17004SOL    HW262232   4.734   9.960   0.594 -0.0894 -0.0238 -1.5559
17005SOL     OW62233   2.553   9.267   6.007 -0.7716  0.0106 -0.3151
17005SOL    HW162234   2.501   9.184   6.028  0.9779 -0.8973  0.5486
17005SOL    HW262235   2.590   9.305   6.092 -0.7030  1.0972 -0.8263
17006SOL     OW62236   2.834   7.267   2.617 -0.1482  0.1289  0.4203
17006SOL    HW162237   2.896   7.189   2.612  0.4819  0.7505 -2.5525
17006SOL    HW262238   2.822   7.295   2.712  4.2817  0.1247  1.0536
17007SOL     OW62239   9.304   8.124   6.752 -0.1871  0.0493  0.3066
17007SOL    HW162240   9.295   8.224   6.750 -3.9584 -0.2543 -0.7429
17007SOL    HW262241   9.343   8.092   6.665  0.0647  0.5282  0.2425
17008SOL     OW62242   2.815   4.686   0.851  0.0399 -0.2473  0.4421
17008SOL    HW162243   2.850   4.779   0.840  0.5182 -0.0831  3.0113
17008SOL    HW262244   2.769   4.657   0.767  1.0708  1.7970 -0.8542
17009SOL     OW62245   2.677   2.751   6.222  0.2949 -0.1777  0.0499
17009SOL    HW162246   2.708   2.656   6.218 -0.2747 -0.3092 -1.9151
17009SOL    HW262247   2.597   2.763   6.162  1.7291  2.0221 -1.5042
17010SOL     OW62248   9.694   1.739   3.058  0.5608 -0.3764 -0.1224
17010SOL    HW162249   9.786   1.764   3.028  1.2578 -3.2792 -0.5287
17010SOL    HW262250   9.641   1.707   2.980 -0.9345  1.5996  0.0541
17011SOL     OW62251   7.765   2.130   2.470  0.2382  0.0035 -0.1863
17011SOL    HW162252   7.862   2.132   2.496 -0.0356  0.7525  0.8010
17011SOL    HW262253   7.749   2.198   2.399  0.2304  0.6185  0.3993
17012SOL     OW62254   2.555   2.751   5.921  0.3450 -0.0612 -0.0353
17012SOL    HW162255   2.654   2.750   5.936  0.5499  1.3748 -1.1443
17012SOL    HW262256   2.536   2.775   5.825 -1.0811  1.0053  0.4888
17013SOL     OW62257   4.670   2.267   1.297 -0.0010  0.5220 -0.1818
17013SOL    HW162258   4.636   2.225   1.381  2.0774  0.1559  0.4968
17013SOL    HW262259   4.614   2.238   1.220  0.6749 -2.5710  0.4373
17014SOL     OW62260   2.350   9.958   1.585  0.0486  0.3260 -0.0266
17014SOL    HW162261   2.366   9.949   1.487 -0.4012  1.3906 -0.2087
17014SOL    HW262262   2.252   9.969   1.603 -0.0050 -1.1193  0.6547
17015SOL     OW62263   7.611   0.052   3.685 -0.3987 -0.0558  0.1352
17015SOL    HW162264   7.684   0.074   3.749  2.0534 -0.6301 -2.3907
17015SOL    HW262265   7.554   0.133   3.670 -0.3481  0.3675  2.1727
17016SOL     OW62266   4.839   9.326   0.458  0.3883  0.4717  0.3106
17016SOL    HW162267   4.844   9.298   0.362  0.2846  0.0655  0.4226
17016SOL    HW262268   4.901   9.270   0.513 -0.2170  0.1005  0.6217
17017SOL     OW62269   9.728   7.954   1.351  0.4652  0.0955 -0.0077
17017SOL    HW162270   9.799   7.955   1.281  1.9524  0.0041  1.4647
17017SOL    HW262271   9.746   7.880   1.416 -0.3812  0.7486  0.9821
17018SOL     OW62272   8.237   1.024   0.011 -0.6261  0.1799  0.0281
17018SOL    HW162273   8.335   1.039   0.024 -0.6861 -0.3897  1.1930
17018SOL    HW262274   8.193   1.110  -0.011  0.3448  0.2159 -1.8737
17019SOL     OW62275   8.582   7.109   0.280  0.1519 -0.0587  0.3475
17019SOL    HW162276   8.571   7.176   0.206  2.0309 -0.7106 -0.5572
17019SOL    HW262277   8.521   7.032   0.265  1.5571 -0.8687 -1.3432
17020SOL     OW62278   0.956   6.904   6.293  0.1063 -0.1195  0.3750
17020SOL    HW162279   0.913   6.963   6.225 -0.4092  0.9770  1.6380
17020SOL    HW262280   0.897   6.896   6.373  2.2141  1.4564  2.1566
17021SOL     OW62281   9.567   0.676   3.426 -0.5790  0.0499 -0.5023
17021SOL    HW162282   9.538   0.705   3.517  0.1726 -0.7653  0.0034
17021SOL    HW262283   9.502   0.710   3.358 -0.0708  2.3730  0.1175
17022SOL     OW62284   5.619   1.256   2.548  0.0767 -0.1079 -0.3220
17022SOL    HW162285   5.592   1.182   2.611  0.4124  0.4228  0.4555
17022SOL    HW262286   5.714   1.243   2.520  0.7903  1.1536  1.4503
17023SOL     OW62287   4.365   5.048   3.201 -0.2991  0.0182  0.2904
17023SOL    HW162288   4.391   5.144   3.186 -1.3132  0.4642  1.3105
17023SOL    HW262289   4.330   5.010   3.115  1.5254  0.0922 -0.5063
17024SOL     OW62290   4.139   6.028   0.664 -0.2099  0.0344 -0.4530
17024SOL    HW162291   4.070   6.030   0.592  0.3666 -0.1837 -1.0171
17024SOL    HW262292   4.121   5.950   0.725 -0.3861 -0.1036 -0.6787
17025SOL     OW62293   4.040   9.508   3.773  0.0484 -0.6087  0.1941
17025SOL    HW162294   4.008   9.505   3.679  1.3590 -0.6747 -0.2556
17025SOL    HW262295   4.129   9.552   3.777 -0.1515 -0.2931  1.4498
17026SOL     OW62296   3.701   9.463   1.936  0.2080  0.2380  0.5615
17026SOL    HW162297   3.718   9.483   1.839 -0.4140  0.2752  0.4609
17026SOL    HW262298   3.779   9.411   1.973  0.9248  1.1217  0.3191
17027SOL     OW62299   8.145   8.463   5.492 -0.1497  0.3918 -0.0423
17027SOL    HW162300   8.208   8.454   5.569  0.0739 -0.8395 -0.3604
17027SOL    HW262301   8.057   8.497   5.525  0.3422  1.1059  0.5583
17028SOL     OW62302   8.688   6.909   0.983  0.5510 -0.1637  0.1848
17028SOL    HW162303   8.686   7.008   0.980  0.3164 -0.1633  0.3456
17028SOL    HW262304   8.719   6.879   1.074  0.3883 -0.2389  0.2160
17029SOL     OW62305   1.158   6.602   6.216  0.6262 -0.4257 -0.6928
17029SOL    HW162306   1.218   6.598   6.296  0.0981  1.7698 -0.1670
17029SOL    HW262307   1.068   6.565   6.239  1.1068 -1.7102 -0.8661
17030SOL     OW62308   0.679   1.662   4.611  0.1104  0.0782 -0.1616
17030SOL    HW162309   0.771   1.677   4.574  0.7683  0.8841  1.7489
17030SOL    HW262310   0.632   1.750   4.618  0.5104  0.1397  2.1827
17031SOL     OW62311   3.196   7.674   3.069  0.2165 -0.0843 -0.3922
17031SOL    HW162312   3.245   7.590   3.044  0.1807 -1.1147  2.8087
17031SOL    HW262313   3.114   7.682   3.013  0.4429 -1.9574 -1.0268
17032SOL     OW62314   9.441   1.054   4.050  0.5262  1.0436 -0.2071
17032SOL    HW162315   9.475   0.969   4.089 -2.1340  0.4821  0.9799
17032SOL    HW262316   9.498   1.130   4.081  0.7432  0.1343  1.6734
17033SOL     OW62317   1.627   5.481   4.212  0.1144 -0.5139 -0.6118
17033SOL    HW162318   1.723   5.506   4.219  0.5152 -1.6238 -1.8285
17033SOL    HW262319   1.612   5.432   4.126 -1.5327 -0.3770 -0.4177
17034SOL     OW62320   8.466   5.916   6.160 -0.0245  0.0923  0.8860
17034SOL    HW162321   8.524   5.979   6.211  0.0066 -0.0383  1.0134
17034SOL    HW262322   8.441   5.839   6.219 -1.1867  0.6752  1.1581
17035SOL     OW62323   4.612   1.497   1.506 -0.3156  0.3248 -0.7192
17035SOL    HW162324   4.635   1.470   1.599 -2.5550 -0.4311 -0.3690
17035SOL    HW262325   4.629   1.595   1.495  0.2368  0.3649  0.3829
17036SOL     OW62326   2.221   3.775   1.577 -0.2240 -0.3085 -0.3569
17036SOL    HW162327   2.281   3.843   1.619  1.1451 -0.1479 -2.4718
17036SOL    HW262328   2.126   3.803   1.588  0.3048  1.9170 -1.0815
17037SOL     OW62329   3.225   5.924   1.785  0.2746 -0.1291 -0.0956
17037SOL    HW162330   3.168   5.922   1.703 -0.9426 -1.5518  0.7411
17037SOL    HW262331   3.187   5.990   1.850  0.1892 -0.3069  0.0360
17038SOL     OW62332   7.903   7.545   5.190  0.3157 -0.5712  0.2487
17038SOL    HW162333   7.940   7.452   5.193  2.2912  0.2367  1.6663
17038SOL    HW262334   7.856   7.565   5.276  0.7884  0.1063  0.3510
17039SOL     OW62335   0.916   2.705   1.626 -0.2728  0.3419 -0.1869
17039SOL    HW162336   0.865   2.671   1.547 -0.5877 -0.4063  0.3233
17039SOL    HW262337   0.865   2.778   1.670 -0.6139  0.0160 -0.0412
17040SOL     OW62338   1.484   2.255   0.595  0.1810  0.1916  0.3831
17040SOL    HW162339   1.545   2.204   0.656  0.1210  1.0161  1.1521
17040SOL    HW262340   1.492   2.220   0.502  0.3286 -1.0383  0.8595
17041SOL     OW62341   8.737   6.097   1.803  0.2628 -0.3627  0.3212
17041SOL    HW162342   8.822   6.129   1.763  1.0896 -1.9760  0.7470
17041SOL    HW262343   8.671   6.078   1.730  0.8592 -0.7468 -0.1225
17042SOL     OW62344   4.817   9.967   3.601 -0.4533  0.5711 -0.5094
17042SOL    HW162345   4.776   9.878   3.579 -0.5586  0.0644  1.5661
17042SOL    HW262346   4.778  10.001   3.686  3.2447  0.1293  1.4958
17043SOL     OW62347   2.534   3.954   5.297  0.0973 -0.0167 -0.5600
17043SOL    HW162348   2.495   4.027   5.240 -1.3287 -1.5773 -1.6071
17043SOL    HW262349   2.628   3.937   5.268  0.5253  1.5639 -0.1516
17044SOL     OW62350   0.073   9.124   0.206 -0.5609 -0.4953 -0.0402
17044SOL    HW162351   0.023   9.203   0.243  0.0958  0.0389 -0.2938
17044SOL    HW262352   0.008   9.061   0.164 -0.9936  0.3816 -0.7029
17045SOL     OW62353   0.290   5.071   0.397  0.3838 -0.1560 -0.0276
17045SOL    HW162354   0.269   5.031   0.307  0.1928  1.1493 -0.5783
17045SOL    HW262355   0.384   5.103   0.398  0.2736  0.1715  0.0965
17046SOL     OW62356   7.069   1.763   3.256 -0.0371 -0.3232  0.1146
17046SOL    HW162357   6.997   1.775   3.325 -0.5222 -0.3265 -0.3934
17046SOL    HW262358   7.035   1.705   3.182  0.2756  0.2273 -0.4576
17047SOL     OW62359   9.665   9.097   2.000 -0.2401 -0.3686 -0.0337
17047SOL    HW162360   9.744   9.062   2.050 -0.3664  0.9751  1.1512
17047SOL    HW262361   9.681   9.088   1.902  0.8234 -1.2996  0.2084
17048SOL     OW62362   7.790   3.147   5.144 -0.3146  0.5742 -0.2580
17048SOL    HW162363   7.861   3.077   5.136 -0.5154  0.4784 -1.3047
17048SOL    HW262364   7.829   3.237   5.122  0.0119  0.8383  1.3673
17049SOL     OW62365   8.688   5.126   4.777 -0.1940 -0.2199 -0.4978
17049SOL    HW162366   8.663   5.051   4.715 -0.4140  0.6174 -1.4427
17049SOL    HW262367   8.646   5.210   4.745 -1.2838  0.0065  1.4859
17050SOL     OW62368   1.110   3.283   6.405 -0.3486 -0.0350 -0.3783
17050SOL    HW162369   1.074   3.232   6.327  0.8386 -1.4777 -0.0075
17050SOL    HW262370   1.210   3.274   6.407 -0.1289  2.2571 -0.2551
17051SOL     OW62371   4.859   8.777   6.026  0.1899  0.8239 -0.1386
17051SOL    HW162372   4.916   8.844   6.074  1.0609 -0.5637  0.8122
17051SOL    HW262373   4.908   8.690   6.022 -1.0003  0.1986 -1.2058
17052SOL     OW62374   4.516   0.493   0.812 -0.4806  0.0466  0.0835
17052SOL    HW162375   4.549   0.464   0.723 -1.0506 -0.2543 -0.0340
17052SOL    HW262376   4.462   0.576   0.803 -0.5820 -0.0123  0.1397
17053SOL     OW62377   4.030   4.639   1.479  0.1472  0.4358 -0.4163
17053SOL    HW162378   4.012   4.719   1.422  1.0518  0.5284 -0.5803
17053SOL    HW262379   3.949   4.581   1.481 -0.1297  0.7826 -1.2243
17054SOL     OW62380   1.926   1.907   6.111 -0.2123  0.2958 -0.4236
17054SOL    HW162381   1.995   1.883   6.042 -0.0523 -0.9213  0.1485
17054SOL    HW262382   1.849   1.952   6.067 -0.3800 -1.0138 -1.4842
17055SOL     OW62383   9.073   5.788   3.194  0.2800 -0.1866 -0.5018
17055SOL    HW162384   9.139   5.804   3.120 -2.9436 -0.5014 -3.5731
17055SOL    HW262385   9.037   5.876   3.226 -0.7154 -0.1746 -1.6153
17056SOL     OW62386   1.472   3.987   5.003  0.5492  0.1941 -0.2956
17056SOL    HW162387   1.403   3.933   4.955  0.7460 -0.2991 -0.0283
17056SOL    HW262388   1.465   4.083   4.975  2.1310 -0.4253 -3.0076
17057SOL     OW62389   8.686   5.798   0.072 -0.1416 -0.4665 -0.2474
17057SOL    HW162390   8.594   5.760   0.074 -0.9165  1.3602  1.5243
17057SOL    HW262391   8.734   5.773   0.156  0.0501  0.7241  0.0098
17058SOL     OW62392   9.451   3.205   1.150  0.4054 -1.0070  0.2547
17058SOL    HW162393   9.480   3.300   1.137 -0.1907 -0.9327 -0.6102
17058SOL    HW262394   9.430   3.190   1.247 -0.3027 -0.0111  0.2751
17059SOL     OW62395   2.847   2.012   4.504 -0.2348  0.1027  0.5184
17059SOL    HW162396   2.764   1.997   4.450 -0.2291 -0.7792  0.7554
17059SOL    HW262397   2.834   1.979   4.597  0.1862  0.4825  0.7180
17060SOL     OW62398   1.912   3.150   6.454  0.1363 -0.2846 -0.2587
17060SOL    HW162399   1.970   3.218   6.499  0.1653 -1.0404  0.8770
17060SOL    HW262400   1.959   3.062   6.453 -0.2892 -0.5053 -0.8759
17061SOL     OW62401   0.617   1.677   3.877  0.4671 -0.0064  0.0213
17061SOL    HW162402   0.664   1.710   3.795 -0.6468  1.1032 -0.2001
17061SOL    HW262403   0.525   1.718   3.881  0.0731 -0.9765  1.2028
17062SOL     OW62404   9.832   5.463   3.306 -0.7262 -0.2274 -0.4254
17062SOL    HW162405   9.799   5.457   3.400 -0.0395  0.1559 -0.1569
17062SOL    HW262406   9.775   5.405   3.247 -1.4416 -0.1110  0.1437
17063SOL     OW62407   1.773   6.550   0.058  0.1843 -0.4954  0.3110
17063SOL    HW162408   1.697   6.602   0.019 -0.8138 -1.3889  1.0354
17063SOL    HW262409   1.739   6.463   0.094  1.6512 -1.1784  0.1019
17064SOL     OW62410   8.909   7.133   5.983 -0.4173 -0.2838 -0.0129
17064SOL    HW162411   8.825   7.084   6.006 -0.2527 -0.2922  0.5792
17064SOL    HW262412   8.980   7.110   6.049 -0.5045  1.2061  0.6309
17065SOL     OW62413   3.718   8.379   1.363 -0.2394  0.0696  0.4483
17065SOL    HW162414   3.743   8.328   1.281  3.9328  1.1894  0.9282
17065SOL    HW262415   3.695   8.473   1.339  0.0209  0.1315  0.4424
17066SOL     OW62416   2.661   4.566   3.245  0.4157 -0.3796 -0.3927
17066SOL    HW162417   2.610   4.493   3.290 -0.3359  0.5437  0.2877
17066SOL    HW262418   2.759   4.553   3.260  0.1551  0.1757  1.9627
17067SOL     OW62419   2.481   2.206   1.989  0.3684 -0.3044 -0.3482
17067SOL    HW162420   2.488   2.190   1.890  0.1740 -2.6887 -0.0081
17067SOL    HW262421   2.385   2.198   2.017  0.6160 -1.2073  0.2652
17068SOL     OW62422   8.902   3.201   3.237 -0.2112  0.2393 -0.8130
17068SOL    HW162423   8.958   3.271   3.191  0.4197 -0.3497 -0.9505
17068SOL    HW262424   8.907   3.214   3.336  0.7170 -0.2155 -0.7923
17069SOL     OW62425   1.309   3.480   5.215  0.1382 -0.7543  0.4175
17069SOL    HW162426   1.324   3.559   5.275  0.0513 -0.1460 -0.3508
17069SOL    HW262427   1.342   3.397   5.260 -1.3395 -0.5448  1.9651
17070SOL     OW62428   1.969   8.531   3.304  0.0004 -0.6120 -0.5038
17070SOL    HW162429   1.892   8.577   3.349  1.3950  0.7408  0.5535
17070SOL    HW262430   1.990   8.577   3.218  1.0265  0.4170  0.2776
17071SOL     OW62431   2.130   3.121   2.840  0.3912 -0.8555  0.3095
17071SOL    HW162432   2.207   3.186   2.835  0.8675 -1.3410  1.1478
17071SOL    HW262433   2.117   3.093   2.935 -1.0930 -0.4693  0.2344
17072SOL     OW62434   2.125   3.772   3.449 -0.3184  0.1961  0.1415
17072SOL    HW162435   2.050   3.710   3.424 -1.1986  1.7493 -1.1467
17072SOL    HW262436   2.211   3.736   3.413 -0.5607 -1.0903  0.7863
17073SOL     OW62437   2.582   6.041   2.207  0.1366  0.4664 -0.2716
17073SOL    HW162438   2.640   6.056   2.287  0.5507 -0.1026 -0.4701
17073SOL    HW262439   2.638   6.038   2.125  0.1128 -2.5030 -0.2164
17074SOL     OW62440   5.184   0.775   4.207  0.2431  0.4186  0.5965
17074SOL    HW162441   5.161   0.776   4.304  1.6995  1.6897  0.9650
17074SOL    HW262442   5.271   0.727   4.194 -0.3600 -0.4638 -0.1800
17075SOL     OW62443   2.952   2.043   6.163  0.4450  0.3182  0.3527
17075SOL    HW162444   2.951   2.065   6.260 -1.7826  1.2329  0.1469
17075SOL    HW262445   2.927   1.947   6.150  1.9550 -0.1506  0.7224
17076SOL     OW62446   4.397   5.118   5.716  0.3160 -0.1623  0.0587
17076SOL    HW162447   4.411   5.052   5.642  1.1556 -0.2953  0.3390
17076SOL    HW262448   4.338   5.192   5.683 -2.1551 -1.9441  0.2719
17077SOL     OW62449   7.607   9.116   3.509  0.1436  0.1279 -0.3117
17077SOL    HW162450   7.570   9.087   3.420 -0.6353  1.4261 -0.4235
17077SOL    HW262451   7.553   9.076   3.582 -1.2880  1.7001 -0.4706
17078SOL     OW62452   8.711   0.928   3.075  0.2263  0.3267 -0.3666
17078SOL    HW162453   8.779   0.952   3.145  1.2121 -0.6552 -0.9704
17078SOL    HW262454   8.686   1.010   3.024  0.4560  0.8234  0.3113
17079SOL     OW62455   2.255   0.868   0.995  0.3964  0.1538  0.1758
17079SOL    HW162456   2.270   0.849   1.092 -0.6793 -1.6098  0.0325
17079SOL    HW262457   2.334   0.915   0.957  1.6126 -0.8001  1.4775
17080SOL     OW62458   0.594   7.479   4.477 -0.8682 -0.0305  0.4433
17080SOL    HW162459   0.623   7.512   4.387  0.8556 -0.3394  0.8693
17080SOL    HW262460   0.644   7.527   4.549 -1.3709 -0.6229  1.2083
17081SOL     OW62461   2.661   9.343   4.164 -0.0819 -0.2349  0.5714
17081SOL    HW162462   2.754   9.353   4.200 -1.5719  3.3677  3.7391
17081SOL    HW262463   2.615   9.269   4.213  0.4968 -0.7688  0.3239
17082SOL     OW62464   1.414   4.696   3.245  0.2140 -0.5249 -0.0549
17082SOL    HW162465   1.458   4.611   3.216 -1.0918 -0.9669 -0.7671
17082SOL    HW262466   1.383   4.686   3.340 -1.1943 -1.3495 -0.5979
17083SOL     OW62467   8.945   6.025   3.213  0.0471 -0.0257  0.3396
17083SOL    HW162468   8.987   6.114   3.191 -2.1406  1.3660  1.6396
17083SOL    HW262469   8.867   6.010   3.153 -0.2805 -0.5391  0.8987
17084SOL     OW62470   5.624   9.585   5.748 -0.3056  0.3602  0.4631
17084SOL    HW162471   5.549   9.583   5.682 -0.5597  0.4730  0.7465
17084SOL    HW262472   5.706   9.546   5.706 -0.7408 -0.5301  0.4172
17085SOL     OW62473   1.974   7.651   4.318  0.6113  0.2513  0.1911
17085SOL    HW162474   1.951   7.678   4.411  0.4654 -0.6384  0.4160
17085SOL    HW262475   1.915   7.700   4.254  1.0089  1.1950  0.5338
17086SOL     OW62476   2.554   9.099   0.726 -0.2292 -0.1504 -0.4248
17086SOL    HW162477   2.462   9.065   0.743 -0.6331  1.3971  0.5317
17086SOL    HW262478   2.595   9.129   0.812  0.5001  0.8226 -1.0981
17087SOL     OW62479   9.129   9.085   5.800 -0.0026 -0.0383  0.4303
17087SOL    HW162480   9.122   8.985   5.795  0.8628 -0.0665 -0.2627
17087SOL    HW262481   9.147   9.111   5.895 -1.8062 -0.4315  0.8884
17088SOL     OW62482   4.909   0.215   4.321 -0.2336 -0.1961 -0.4323
17088SOL    HW162483   4.879   0.146   4.255 -0.2729 -0.4423 -0.1572
17088SOL    HW262484   4.915   0.174   4.412 -1.4188  0.4500 -0.0489
17089SOL     OW62485   6.912   3.744   0.746 -0.0975 -0.9138 -0.1235
17089SOL    HW162486   6.884   3.677   0.815 -2.7681  0.7648  0.5146
17089SOL    HW262487   6.952   3.824   0.791 -0.8636 -0.2706 -0.5656
17090SOL     OW62488   0.854   4.578   0.710  0.2827 -0.1713  0.2159
17090SOL    HW162489   0.772   4.523   0.725  0.7483 -1.3326 -1.2742
17090SOL    HW262490   0.917   4.567   0.787 -0.5263 -0.0784  0.8900
17091SOL     OW62491   1.509   7.443   5.919 -0.5104 -0.1868  0.6895
17091SOL    HW162492   1.598   7.421   5.880 -0.0422 -0.0291  1.6632
17091SOL    HW262493   1.507   7.416   6.015 -1.4558 -0.0312  0.7192
17092SOL     OW62494   1.954   6.949   0.081  0.3652  0.5254  0.7452
17092SOL    HW162495   2.006   6.937  -0.004  0.9678  1.6555  0.9374
17092SOL    HW262496   1.856   6.939   0.062  0.5859 -0.5510  0.1755
17093SOL     OW62497   5.501   8.590   5.387 -0.3976 -0.3441  0.1285
17093SOL    HW162498   5.512   8.597   5.287  0.0193  1.3958  0.2894
17093SOL    HW262499   5.453   8.670   5.421  0.9420 -0.1239  1.5474
17094SOL     OW62500   0.472   9.955   2.214  0.2455 -0.5083 -0.4647
17094SOL    HW162501   0.434   9.869   2.181 -2.3285 -0.0801  1.2647
17094SOL    HW262502   0.425  10.032   2.170 -1.1112  0.0274  1.8516
17095SOL     OW62503   8.925   7.657   4.878  0.1721 -0.3073  0.1670
17095SOL    HW162504   8.884   7.584   4.823 -0.1819 -1.1313  1.4810
17095SOL    HW262505   9.021   7.668   4.853 -0.7410  1.4755 -2.7841
17096SOL     OW62506   5.647   1.133   5.022 -0.2673 -0.3912 -0.0097
17096SOL    HW162507   5.621   1.102   5.113 -2.2050 -0.6807 -0.6315
17096SOL    HW262508   5.633   1.232   5.015  0.1502 -0.3250  0.0974
17097SOL     OW62509   3.080   7.192   6.627 -0.0246  0.4147 -0.7842
17097SOL    HW162510   3.109   7.187   6.723  0.5404 -0.1714 -0.9855
17097SOL    HW262511   2.981   7.183   6.622  0.2043 -2.9602 -0.5044
17098SOL     OW62512   7.574   3.152   0.966  0.1858 -0.6345 -0.1487
17098SOL    HW162513   7.478   3.124   0.966 -0.8252  2.3453 -3.7270
17098SOL    HW262514   7.588   3.223   1.034 -0.0188 -1.3818  0.6843
17099SOL     OW62515   2.861   3.680   3.849  0.1019  0.0949 -0.0173
17099SOL    HW162516   2.810   3.726   3.922 -0.3458 -2.6206  1.4586
17099SOL    HW262517   2.957   3.707   3.853  0.0238  0.2207  1.3923
17100SOL     OW62518   9.461   5.838   4.098 -0.5394  0.4424  0.2721
17100SOL    HW162519   9.503   5.917   4.143 -1.2827  0.9512  0.0846
17100SOL    HW262520   9.523   5.759   4.103  1.0410  1.5606 -1.2599
17101SOL     OW62521   1.058   9.972   5.248  0.0448 -0.1742 -0.4356
17101SOL    HW162522   1.023   9.880   5.234 -0.8904 -0.0162  0.7677
17101SOL    HW262523   1.010  10.014   5.325  1.5292  0.7603 -0.0125
17102SOL     OW62524   8.359   0.767   3.652  0.1688  0.4482  0.3997
17102SOL    HW162525   8.447   0.767   3.700  0.1012  0.2954  0.5238
17102SOL    HW262526   8.366   0.711   3.570 -0.1405 -0.5215  1.0184
17103SOL     OW62527   8.553   9.742   0.866 -0.0475 -0.4319 -0.2299
17103SOL    HW162528   8.579   9.664   0.809 -2.2208 -0.7801 -0.7846
17103SOL    HW262529   8.460   9.730   0.899  0.3138  0.9611  1.3757
17104SOL     OW62530   5.053   0.214   5.806  0.0698  0.1979  0.2682
17104SOL    HW162531   5.006   0.134   5.843 -1.3403  0.2507 -1.3352
17104SOL    HW262532   4.985   0.277   5.768  1.3149  1.2602 -0.2103
17105SOL     OW62533   9.600   9.141   3.223  0.2693  0.6612 -0.0811
17105SOL    HW162534   9.523   9.120   3.283 -0.7843  1.7860 -1.0148
17105SOL    HW262535   9.615   9.064   3.160  2.3569 -1.1956  2.5425
17106SOL     OW62536   6.592   0.868   0.815  0.5390 -0.1368 -0.2156
17106SOL    HW162537   6.610   0.963   0.791  1.0291 -0.2060 -0.1130
17106SOL    HW262538   6.677   0.816   0.816  0.2730 -0.5797 -0.2717
17107SOL     OW62539   3.656   3.272   2.232  0.4840  0.4104 -0.3684
17107SOL    HW162540   3.695   3.333   2.163  0.5843 -1.5091 -2.0599
17107SOL    HW262541   3.726   3.251   2.301  1.0927  0.5282 -0.9432
17108SOL     OW62542   2.354   7.153   4.921  0.3963  0.0024  0.4857
17108SOL    HW162543   2.444   7.128   4.885  0.2642  0.1009  0.0855
17108SOL    HW262544   2.311   7.073   4.963 -0.1056 -0.4908 -0.9562
17109SOL     OW62545   7.731   0.145   2.716  0.2063  0.3862 -0.2603
17109SOL    HW162546   7.800   0.143   2.789  1.7240  1.1508 -1.6390
17109SOL    HW262547   7.683   0.233   2.719  1.1826  0.9586 -0.9850
17110SOL     OW62548   9.242   1.623   0.011  0.6220  0.1669  0.3200
17110SOL    HW162549   9.323   1.592   0.061  0.0926 -1.2398  0.3286
17110SOL    HW262550   9.267   1.700  -0.048  2.0743 -0.5292 -0.0051
17111SOL     OW62551   3.434   1.416   4.001  0.3993 -0.0253  0.0644
17111SOL    HW162552   3.489   1.493   3.968 -0.8082  0.8625  0.0733
17111SOL    HW262553   3.483   1.330   3.984  1.5613  0.7081 -0.3649
17112SOL     OW62554   1.050   0.089   6.674 -0.2588 -0.0647 -0.3334
17112SOL    HW162555   1.082  -0.005   6.689 -0.9443  0.0861  2.4081
17112SOL    HW262556   0.961   0.100   6.719 -0.0235  2.0006 -0.3584
17113SOL     OW62557   1.363   8.608   0.330  0.2050 -0.1419  0.6639
17113SOL    HW162558   1.341   8.693   0.379  0.4191 -0.4407  1.2767
17113SOL    HW262559   1.332   8.530   0.383 -2.2069 -0.4077 -1.0016
17114SOL     OW62560   8.473   7.708   6.553 -0.2763  0.2813  0.1442
17114SOL    HW162561   8.378   7.728   6.575 -0.0891  0.6258  0.6584
17114SOL    HW262562   8.529   7.722   6.635  0.1987 -0.0182 -0.1303
17115SOL     OW62563   8.841   4.086   5.161 -0.1525  0.4919 -0.4755
17115SOL    HW162564   8.759   4.143   5.175  0.3328  0.8868  0.8454
17115SOL    HW262565   8.867   4.045   5.248  0.3450 -0.6096 -1.1479
17116SOL     OW62566   4.540   0.904   6.670 -0.4800  0.0362  0.7588
17116SOL    HW162567   4.530   0.844   6.591 -2.2273  0.0346  0.9781
17116SOL    HW262568   4.451   0.940   6.697  0.1588  0.4231  2.4237
17117SOL     OW62569   8.509   0.146   5.072 -0.6461 -0.3195  0.2447
17117SOL    HW162570   8.525   0.061   5.021 -2.2187  0.4300 -1.5497
17117SOL    HW262571   8.422   0.139   5.122 -1.3793  0.6857 -0.8794
17118SOL     OW62572   5.331   9.690   5.702  0.2010 -0.7105  0.8181
17118SOL    HW162573   5.324   9.662   5.606  1.6892  1.2834  0.1059
17118SOL    HW262574   5.416   9.741   5.715 -0.6808  0.2337  2.9087
17119SOL     OW62575   2.733   4.675   2.241  0.5739 -0.2127  0.2300
17119SOL    HW162576   2.680   4.711   2.318  2.2623 -0.0555  1.3496
17119SOL    HW262577   2.807   4.618   2.275  1.4711  0.0183 -1.2786
17120SOL     OW62578   1.026   2.947   0.106 -0.3566  0.0430 -0.0920
17120SOL    HW162579   1.092   2.939   0.032 -0.0100  0.2585  0.1882
17120SOL    HW262580   1.017   2.858   0.152  0.1904  0.1527  0.2437
17121SOL     OW62581   1.601   4.072   6.682  0.0227  0.3649 -0.3087
17121SOL    HW162582   1.613   3.983   6.638  1.3017  0.0043  0.7172
17121SOL    HW262583   1.509   4.078   6.720  0.5859 -1.3942  1.4509
17122SOL     OW62584   1.407   6.805   3.070 -0.2263  0.2119  0.3505
17122SOL    HW162585   1.466   6.746   3.126  0.2790  1.2989  0.9697
17122SOL    HW262586   1.430   6.900   3.087 -1.6441  0.6184  0.0146
17123SOL     OW62587   1.695   0.977   0.653  0.1242 -0.1209  0.4166
17123SOL    HW162588   1.607   1.006   0.689  0.4964 -0.0916  1.3149
17123SOL    HW262589   1.759   1.055   0.655  0.9960 -0.8370  2.4149
17124SOL     OW62590   2.448   9.918   2.858  0.1753  0.6642 -0.0631
17124SOL    HW162591   2.500   9.974   2.793 -0.8886  1.2431 -0.4321
17124SOL    HW262592   2.385   9.859   2.807  0.1272  0.3051  0.4085
17125SOL     OW62593   2.919   1.985   2.407 -0.5160  0.6123 -0.0296
17125SOL    HW162594   2.921   1.900   2.460 -0.4187 -0.1988 -1.3320
17125SOL    HW262595   2.904   1.965   2.311  2.7094  1.8058 -0.8518
17126SOL     OW62596   4.610   5.158   2.176 -0.7061 -0.7128 -0.3968
17126SOL    HW162597   4.593   5.102   2.257 -1.4335  1.5601  1.0719
17126SOL    HW262598   4.695   5.210   2.189 -2.6742  2.4111  0.5439
17127SOL     OW62599   3.995   5.150   2.925  0.3344 -0.2658 -0.0139
17127SOL    HW162600   4.000   5.109   3.016 -1.3361  1.7717  1.0651
17127SOL    HW262601   4.066   5.221   2.917  0.5566 -0.5253 -0.3510
17128SOL     OW62602   6.855   1.336   2.256 -0.2839 -0.3077  0.2939
17128SOL    HW162603   6.826   1.431   2.270 -1.0022 -0.5861  0.7244
17128SOL    HW262604   6.829   1.281   2.336  0.4678 -0.7890  0.2086
17129SOL     OW62605   0.287   2.452   4.326  0.3293  0.3120  0.6175
17129SOL    HW162606   0.285   2.480   4.422 -0.5212  0.0264  0.6851
17129SOL    HW262607   0.239   2.519   4.271 -2.1551 -1.2132  0.8432
17130SOL     OW62608   8.586   4.954   3.497  0.1796 -0.2538  0.1217
17130SOL    HW162609   8.611   4.968   3.593 -1.6685 -0.5396  0.6577
17130SOL    HW262610   8.608   4.860   3.471 -1.3522 -0.8693  0.9420
17131SOL     OW62611   3.108   3.440   4.971  0.0617  0.3030 -0.0671
17131SOL    HW162612   3.090   3.537   4.955 -1.6195  0.1953  1.0333
17131SOL    HW262613   3.189   3.431   5.029 -0.6381  1.1136  1.0560
17132SOL     OW62614   2.017   7.621   3.485 -0.2644 -0.0293 -0.0408
17132SOL    HW162615   2.081   7.548   3.508 -1.2329 -0.4902  1.2577
17132SOL    HW262616   2.015   7.635   3.386 -0.6189 -2.2674 -0.3722
17133SOL     OW62617   4.054   6.942   4.910 -0.0832 -0.1149 -0.0477
17133SOL    HW162618   3.973   6.910   4.959 -0.0872 -0.7227 -0.4538
17133SOL    HW262619   4.057   7.042   4.914 -1.2825 -0.0395 -0.7028
17134SOL     OW62620   9.472   3.632   2.460  0.1590 -0.1422  0.3805
17134SOL    HW162621   9.374   3.615   2.473  0.4579 -1.7409  0.6602
17134SOL    HW262622   9.498   3.608   2.367  0.3678 -0.0910  0.4259
17135SOL     OW62623   3.430   0.911   3.807  0.1898 -0.4215  0.4784
17135SOL    HW162624   3.437   0.824   3.855  0.9013 -0.5898  0.0777
17135SOL    HW262625   3.337   0.922   3.772  0.8615 -2.4139 -2.0497
17136SOL     OW62626   2.816   6.452   0.102  0.0591  0.1984  0.2050
17136SOL    HW162627   2.772   6.509   0.172  0.8937  2.0277 -0.7228
17136SOL    HW262628   2.915   6.461   0.109  0.1535  0.2978 -1.1309
17137SOL     OW62629   8.509   7.958   3.002  0.0619 -0.4633  0.0865
17137SOL    HW162630   8.417   7.919   3.003 -0.5017  0.8404  0.6673
17137SOL    HW262631   8.504   8.055   3.026  1.5597 -0.3118 -0.1681
17138SOL     OW62632   2.800   3.527   6.165  0.1289  0.0695 -0.1937
17138SOL    HW162633   2.835   3.619   6.183  0.7051 -0.3952  1.1345
17138SOL    HW262634   2.845   3.490   6.083 -0.3626  1.0903 -0.9413
17139SOL     OW62635   9.162   9.793   3.473 -0.4840 -0.6755  0.4469
17139SOL    HW162636   9.091   9.858   3.502  0.6694  0.7859  0.0465
17139SOL    HW262637   9.202   9.823   3.386 -1.7109 -3.3281 -1.0825
17140SOL     OW62638   3.995   5.425   4.999 -0.5032  0.0877  0.4372
17140SOL    HW162639   4.075   5.382   5.042 -0.6005  0.0874  0.6176
17140SOL    HW262640   3.976   5.381   4.912 -0.7954 -0.4459  0.7694
17141SOL     OW62641   8.759   1.084   4.292 -0.0754  0.1336  0.1298
17141SOL    HW162642   8.764   1.174   4.336 -1.4622 -0.1056  0.8045
17141SOL    HW262643   8.665   1.049   4.299  0.3739 -1.2016 -0.4494
17142SOL     OW62644   9.997   2.162   3.004 -0.2915 -0.4904 -0.6393
17142SOL    HW162645  10.071   2.209   3.052 -0.1906  0.6178 -1.8439
17142SOL    HW262646   9.922   2.143   3.067  0.8411 -1.2809  0.5078
17143SOL     OW62647   2.817   1.395   0.934 -0.3724  0.0978  0.5161
17143SOL    HW162648   2.742   1.399   0.867 -1.3011 -0.3230  1.5164
17143SOL    HW262649   2.902   1.424   0.890 -1.6924  3.7218  0.2182
17144SOL     OW62650   8.508   4.379   2.952  0.1648  0.4748  0.0913
17144SOL    HW162651   8.482   4.430   2.869 -0.6387 -0.4413 -0.2251
17144SOL    HW262652   8.426   4.352   3.002  0.5732 -0.6784  0.1556
17145SOL     OW62653   1.117   0.343   2.147  0.5690 -0.0227  0.2871
17145SOL    HW162654   1.066   0.259   2.166  0.3764  0.2341  0.9099
17145SOL    HW262655   1.064   0.422   2.175  0.8380  0.3048 -0.1135
17146SOL     OW62656   9.266   9.351   6.193 -0.2629 -0.5675  0.1513
17146SOL    HW162657   9.354   9.389   6.220 -0.5037  0.7655 -0.8996
17146SOL    HW262658   9.197   9.374   6.262 -0.8210  2.6043 -1.3953
17147SOL     OW62659   6.134   1.214   2.069  0.1197  0.1896 -0.1511
17147SOL    HW162660   6.103   1.253   2.156  3.8332  1.6347  0.5891
17147SOL    HW262661   6.115   1.278   1.995  0.1400  0.4787  0.0952
17148SOL     OW62662   0.473   8.859   4.677 -0.4442 -0.3380 -0.3806
17148SOL    HW162663   0.478   8.799   4.597  0.4171 -0.3959 -0.2898
17148SOL    HW262664   0.492   8.807   4.760 -1.1790 -0.2447 -0.1514
17149SOL     OW62665   0.267   8.515   6.452  0.2614 -0.1401  0.1096
17149SOL    HW162666   0.222   8.593   6.410 -0.3277 -0.4101  0.2432
17149SOL    HW262667   0.307   8.457   6.382  0.3108  0.0441 -0.0136
17150SOL     OW62668   4.409   6.686   3.290  0.2864  0.6033 -0.9223
17150SOL    HW162669   4.398   6.587   3.293 -3.5796  0.8810 -2.5144
17150SOL    HW262670   4.325   6.730   3.321  1.6846  3.3779 -0.9273
17151SOL     OW62671   2.001   4.105   5.028  0.2770  0.2688 -0.1159
17151SOL    HW162672   2.083   4.047   5.023  0.0233 -0.1109  0.1629
17151SOL    HW262673   1.947   4.080   5.108  0.0133  0.6921 -0.1604
17152SOL     OW62674   0.547   5.696   0.188 -0.0647 -0.0928 -0.1487
17152SOL    HW162675   0.563   5.599   0.202 -1.6319 -0.2788  0.4336
17152SOL    HW262676   0.627   5.748   0.219  0.9627 -1.1947 -0.8652
17153SOL     OW62677   4.677   3.061   4.806 -0.0746 -0.1574 -0.5194
17153SOL    HW162678   4.690   3.158   4.828 -1.9042 -0.0810  0.2756
17153SOL    HW262679   4.757   3.009   4.837  1.2614  1.1784 -1.6265
17154SOL     OW62680   6.926   9.339   3.547 -0.3954 -0.3832  0.2395
17154SOL    HW162681   6.917   9.240   3.555 -1.6130 -0.3943 -1.0948
17154SOL    HW262682   7.023   9.365   3.547 -0.0954 -1.4931  1.4176
17155SOL     OW62683   4.416   5.629   3.431 -0.1148  0.5897  0.3709
17155SOL    HW162684   4.491   5.571   3.398  1.1660  2.8841 -0.8950
17155SOL    HW262685   4.439   5.663   3.522 -2.2957 -3.3163  2.5277
17156SOL     OW62686   4.840   1.099   5.235 -0.1959  0.3809 -0.9198
17156SOL    HW162687   4.773   1.126   5.167 -1.0069  0.8363  0.0459
17156SOL    HW262688   4.867   1.004   5.220 -2.3313 -0.3536 -0.3176
17157SOL     OW62689   6.015   7.495   2.948  0.1880 -0.4243 -0.1716
17157SOL    HW162690   5.973   7.579   2.983  0.4990 -0.4882  0.3737
17157SOL    HW262691   5.945   7.438   2.904 -0.4203 -0.8022  1.2442
17158SOL     OW62692   5.375   0.574   1.904  0.3938  0.5721  0.4649
17158SOL    HW162693   5.401   0.515   1.828  1.4454  0.4933  0.8716
17158SOL    HW262694   5.289   0.620   1.884  0.4408  0.2015 -0.5780
17159SOL     OW62695   0.754   6.900   3.733 -0.0799 -0.6540  0.6137
17159SOL    HW162696   0.748   6.857   3.823 -0.2780 -0.5927  0.6296
17159SOL    HW262697   0.693   6.979   3.730  1.0253  0.2323  0.9281
17160SOL     OW62698   1.284   9.287   0.415 -0.8332  0.7040  0.2735
17160SOL    HW162699   1.272   9.381   0.385 -1.6925  0.5503  0.1208
17160SOL    HW262700   1.238   9.273   0.503  1.5869  1.1278  1.6557
17161SOL     OW62701   2.057   0.927   2.201 -0.2578  0.1388  0.5620
17161SOL    HW162702   2.019   1.015   2.231  0.0012  0.1962  0.7274
17161SOL    HW262703   1.993   0.882   2.140 -1.1765 -0.3572  1.8630
17162SOL     OW62704   4.881   1.872   4.783  0.6237  0.8612  0.2475
17162SOL    HW162705   4.953   1.913   4.727 -0.0244 -0.4958 -1.6249
17162SOL    HW262706   4.832   1.945   4.832  0.0550  2.2926 -2.3389
17163SOL     OW62707   0.055   8.661   3.658 -0.7647 -0.0909  0.1373
17163SOL    HW162708   0.024   8.609   3.578 -0.4336  2.0362 -1.4018
17163SOL    HW262709  -0.016   8.660   3.728 -1.6985 -0.6331 -0.8142
17164SOL     OW62710   2.973   2.643   0.425  0.3924 -0.0677 -0.3573
17164SOL    HW162711   2.918   2.719   0.390  0.2980 -0.1181 -0.3192
17164SOL    HW262712   2.914   2.578   0.473  0.1845 -1.0777 -1.9302
17165SOL     OW62713   2.444   6.164   6.704  0.2101  0.4386 -0.1177
17165SOL    HW162714   2.355   6.195   6.737 -0.3325 -3.1255  2.0407
17165SOL    HW262715   2.516   6.192   6.768 -0.1005 -1.4062  1.0733
17166SOL     OW62716   2.203   8.262   4.839  0.7889  0.1007  0.5885
17166SOL    HW162717   2.163   8.314   4.914  0.8834  1.8784 -0.5429
17166SOL    HW262718   2.294   8.230   4.865  0.9371  0.9545  1.1443
17167SOL     OW62719   5.970   1.839   3.001  0.3559  0.6808 -0.5242
17167SOL    HW162720   6.041   1.802   3.060 -0.3780  0.9105  0.5227
17167SOL    HW262721   5.905   1.767   2.977  1.1336  0.3871 -1.7777
17168SOL     OW62722   0.049   3.530   5.837  0.3691  0.2404 -0.1245
17168SOL    HW162723   0.054   3.542   5.936  1.4728  0.9051 -0.2498
17168SOL    HW262724  -0.046   3.523   5.809  0.0901 -1.4221  1.1539
17169SOL     OW62725   2.070   3.928   0.458  0.2629  0.3266 -0.1930
17169SOL    HW162726   1.987   3.960   0.413  0.3303  0.4619 -0.2217
17169SOL    HW262727   2.102   3.997   0.522 -1.1114 -0.8248  1.7590
17170SOL     OW62728   9.450   1.330   1.861 -0.2868 -0.4979  0.1575
17170SOL    HW162729   9.483   1.374   1.944  1.1342 -1.8926  0.3693
17170SOL    HW262730   9.524   1.326   1.794  0.1015 -3.7675  0.6685
17171SOL     OW62731   1.546   4.452   3.214  0.0652  0.6564 -0.0551
17171SOL    HW162732   1.500   4.364   3.229 -0.3971  0.7800 -0.7201
17171SOL    HW262733   1.633   4.453   3.263 -1.0409  0.7388  1.9289
17172SOL     OW62734   3.509   0.097   4.892  0.2171  0.0434 -0.0070
17172SOL    HW162735   3.507   0.004   4.857 -2.2930 -0.6263  1.7660
17172SOL    HW262736   3.419   0.121   4.929  1.0450  2.8828  0.3097
17173SOL     OW62737   2.502   8.211   2.817 -0.8989 -0.5645  0.0090
17173SOL    HW162738   2.435   8.183   2.748 -2.1113 -0.4337  1.0989
17173SOL    HW262739   2.492   8.154   2.899  0.8635 -1.0502 -0.1007
17174SOL     OW62740   4.867   9.980   5.638  0.2192 -0.0402  0.1299
17174SOL    HW162741   4.955   9.957   5.597  0.6503 -0.8763  1.5038
17174SOL    HW262742   4.835   9.904   5.694 -0.2730  1.1175  1.4686
17175SOL     OW62743   3.792   3.202   6.494 -0.4201  0.3637  0.4418
17175SOL    HW162744   3.844   3.279   6.457  3.6360 -2.6469 -0.5673
17175SOL    HW262745   3.797   3.203   6.594  2.7619 -0.5267  0.3470
17176SOL     OW62746   5.383   7.183   2.626  0.2447 -0.4734 -0.0056
17176SOL    HW162747   5.310   7.207   2.690 -1.3474 -2.5659 -0.9932
17176SOL    HW262748   5.421   7.267   2.587 -0.7483  0.6936  1.4548
17177SOL     OW62749   2.124   8.366   2.696  0.3479 -0.0571  0.6837
17177SOL    HW162750   2.040   8.312   2.690  1.0362 -1.0028 -0.9597
17177SOL    HW262751   2.191   8.331   2.630  0.8990  2.6742 -0.3033
17178SOL     OW62752   3.687   2.147   5.512 -0.1715  0.1871 -0.1756
17178SOL    HW162753   3.641   2.103   5.436 -0.6242 -1.4862  1.0247
17178SOL    HW262754   3.620   2.167   5.584  0.9513 -2.6994  1.7789
17179SOL     OW62755   2.036   0.514   1.198 -0.2671 -0.4870 -0.4808
17179SOL    HW162756   2.109   0.483   1.259  0.2253  1.9782  0.2236
17179SOL    HW262757   2.073   0.527   1.106  0.0040  0.0228 -0.2999
17180SOL     OW62758   9.320   1.300   4.182 -0.1634 -0.1053  0.2704
17180SOL    HW162759   9.335   1.203   4.166 -0.9851 -0.5909  2.2125
17180SOL    HW262760   9.223   1.321   4.173 -0.1609  0.2776  1.0118
17181SOL     OW62761   8.365   3.117   5.835 -0.1574  0.0178 -0.0861
17181SOL    HW162762   8.301   3.041   5.836  0.8765 -0.8485  1.3366
17181SOL    HW262763   8.341   3.182   5.907  0.3768 -0.1601  0.2564
17182SOL     OW62764   0.261   6.809   4.083 -0.5606 -0.7027 -0.1748
17182SOL    HW162765   0.298   6.812   4.176 -2.3115  0.8656  0.5212
17182SOL    HW262766   0.315   6.869   4.024  0.2198 -1.2724 -0.0468
17183SOL     OW62767   9.245   3.702   0.489 -0.2090 -0.0438 -0.0934
17183SOL    HW162768   9.332   3.733   0.525  0.2688 -2.1606  0.6317
17183SOL    HW262769   9.180   3.687   0.564  0.0051 -2.0476 -0.2646
17184SOL     OW62770   3.265   9.714   3.891 -0.4802  0.8078 -0.1742
17184SOL    HW162771   3.326   9.687   3.816 -1.9198 -0.1326 -1.0414
17184SOL    HW262772   3.195   9.776   3.856  0.8623  3.1384  1.1444
17185SOL     OW62773   2.407   2.250   2.357 -0.0850 -0.0029 -0.3852
17185SOL    HW162774   2.425   2.335   2.407 -0.0341  0.2107 -0.7665
17185SOL    HW262775   2.481   2.185   2.375  0.7117  0.6068 -1.3585
17186SOL     OW62776   4.864   6.894   3.270  0.0991 -0.8929  0.1359
17186SOL    HW162777   4.876   6.801   3.305  0.2131 -0.9086  0.0583
17186SOL    HW262778   4.767   6.917   3.268  0.0429 -1.1597 -0.2294
17187SOL     OW62779   0.784   4.217   4.886 -0.2428  0.0204 -0.0601
17187SOL    HW162780   0.779   4.234   4.787  1.6217 -0.2232 -0.2090
17187SOL    HW262781   0.713   4.151   4.912  1.1811 -2.2823 -1.7910
17188SOL     OW62782   2.346   1.184   1.136  0.6765  0.2368 -0.4831
17188SOL    HW162783   2.381   1.151   1.048  2.1627  0.3023  0.0586
17188SOL    HW262784   2.381   1.276   1.154 -1.9307  1.3974 -1.1119
17189SOL     OW62785   6.208   8.003   2.533 -0.2391  0.1099 -0.4708
17189SOL    HW162786   6.197   7.904   2.527  2.4315 -0.2240 -0.7599
17189SOL    HW262787   6.255   8.027   2.618 -0.2848  1.0456 -0.6996
17190SOL     OW62788   0.677   5.083   1.462 -0.0554  0.3344  0.0500
17190SOL    HW162789   0.763   5.117   1.501 -1.2366  1.8754  1.3928
17190SOL    HW262790   0.649   5.142   1.386 -0.8469  0.9257  0.7911
17191SOL     OW62791   3.396   2.401   5.523  0.2466 -0.0973 -0.2691
17191SOL    HW162792   3.492   2.426   5.520  0.3155 -0.5297 -3.3413
17191SOL    HW262793   3.342   2.478   5.556  1.4873  0.5903  0.1912
17192SOL     OW62794   9.593   0.080   1.859  0.1593  0.5106  0.1003
17192SOL    HW162795   9.578   0.142   1.781  1.6925  1.3834  0.4731
17192SOL    HW262796   9.680   0.103   1.903 -0.0162 -0.9080  1.2104
17193SOL     OW62797   0.687   9.631   2.412 -0.4160  0.0514 -0.1593
17193SOL    HW162798   0.641   9.685   2.482 -2.4171 -1.1863 -0.4859
17193SOL    HW262799   0.737   9.692   2.351 -1.7020  1.4442  0.1473
17194SOL     OW62800   0.070   5.253   5.553 -0.1964 -0.0952  0.6822
17194SOL    HW162801   0.016   5.311   5.491 -0.5174  0.3841  1.4081
17194SOL    HW262802   0.046   5.157   5.537 -0.6626  0.0593  0.4228
17195SOL     OW62803   8.782   3.381   4.891  0.7752 -0.3740  0.1801
17195SOL    HW162804   8.795   3.355   4.795 -1.3695 -0.5165 -0.0938
17195SOL    HW262805   8.809   3.476   4.903  0.1903 -0.0687 -0.7958
17196SOL     OW62806   9.532   4.609   1.358  0.1362 -0.6901  0.1625
17196SOL    HW162807   9.619   4.579   1.396  0.7041  0.8715  0.1383
17196SOL    HW262808   9.542   4.626   1.260 -0.4466 -1.4424 -0.0296
17197SOL     OW62809   2.068   1.298   2.815 -0.3297 -0.2382  0.2181
17197SOL    HW162810   2.043   1.303   2.911 -0.6102  2.5265  0.0513
17197SOL    HW262811   2.164   1.322   2.804 -0.2429 -0.7601 -0.1620
17198SOL     OW62812   8.258   7.249   4.717  0.0887  0.3328 -0.1612
17198SOL    HW162813   8.216   7.225   4.629  1.2018  3.1578 -1.5244
17198SOL    HW262814   8.210   7.327   4.756  2.0338  1.5431 -0.1628
17199SOL     OW62815   1.011   5.536   1.337 -0.8000 -0.2877  0.3380
17199SOL    HW162816   1.084   5.482   1.295  0.2763  0.7230  0.8644
17199SOL    HW262817   0.952   5.573   1.266  0.8029  1.1177 -0.3202
17200SOL     OW62818   1.655   1.877   3.303 -0.1230  0.4719  0.0088
17200SOL    HW162819   1.660   1.802   3.369  1.4097 -0.2404 -0.8759
17200SOL    HW262820   1.574   1.865   3.246 -1.1291  0.7634  1.3466
17201SOL     OW62821   4.259   1.137   2.961 -0.0526 -0.6046  0.0063
17201SOL    HW162822   4.249   1.194   2.879  1.6660 -0.6166 -0.2266
17201SOL    HW262823   4.256   1.195   3.042 -0.8730 -0.4906 -0.0985
17202SOL     OW62824   2.103   4.858   3.467  0.0535  0.5088 -0.2780
17202SOL    HW162825   2.070   4.882   3.558  0.8412  0.0723  0.1290
17202SOL    HW262826   2.097   4.758   3.455 -1.6416  0.7245 -1.3336
17203SOL     OW62827   1.154   6.118   6.400 -0.2301 -0.6112 -0.1156
17203SOL    HW162828   1.219   6.191   6.421  0.9673 -1.8333  0.4879
17203SOL    HW262829   1.061   6.156   6.398  0.4871  1.1660 -1.0759
17204SOL     OW62830   4.218   0.303   4.745 -0.4690  0.5300  0.1324
17204SOL    HW162831   4.203   0.375   4.678  2.4356  0.5940 -0.5243
17204SOL    HW262832   4.214   0.213   4.701  2.0260  0.5941 -0.3285
17205SOL     OW62833   7.550   9.836   1.508  0.3197 -0.4757 -0.9180
17205SOL    HW162834   7.474   9.894   1.535 -1.1034 -2.3057 -0.9063
17205SOL    HW262835   7.612   9.888   1.449 -1.0613  0.9471 -1.1504
17206SOL     OW62836   3.747   4.608   2.774 -0.1472  0.0731 -0.5197
17206SOL    HW162837   3.779   4.576   2.864 -1.9208  2.3066  0.9450
17206SOL    HW262838   3.817   4.667   2.733  0.9753 -1.5282 -0.9815
17207SOL     OW62839   0.152   6.168   3.999 -0.0436  0.0208 -0.5886
17207SOL    HW162840   0.085   6.176   3.926  0.4611 -0.1265 -1.0666
17207SOL    HW262841   0.142   6.246   4.062  2.2175  2.3944 -3.0443
17208SOL     OW62842   9.917   1.333   4.540  0.1962  0.0094 -0.2005
17208SOL    HW162843   9.838   1.371   4.588  1.4825 -0.6310  2.5181
17208SOL    HW262844   9.912   1.233   4.541 -0.9613 -0.0234 -3.5473
17209SOL     OW62845   5.086   8.846   0.946 -0.2420 -0.1266  0.2735
17209SOL    HW162846   5.033   8.921   0.984  0.1714  0.5015 -0.3783
17209SOL    HW262847   5.089   8.854   0.846 -0.8384 -1.4387  0.1473
17210SOL     OW62848   9.815   6.013   1.977 -0.5871  0.1317 -0.6317
17210SOL    HW162849   9.780   6.013   2.070  0.1465 -0.9036 -0.3516
17210SOL    HW262850   9.845   6.105   1.952 -0.2511  0.2917  0.3629
17211SOL     OW62851   1.409   2.905   2.186  0.0645 -0.0850  0.3150
17211SOL    HW162852   1.336   2.965   2.152 -0.7351 -0.2126  1.7739
17211SOL    HW262853   1.449   2.855   2.109  0.4434  1.9869 -0.8458
17212SOL     OW62854   3.683   2.962   5.038  0.2647  0.3303 -0.4360
17212SOL    HW162855   3.677   2.913   5.125  2.7297  0.2139 -0.2966
17212SOL    HW262856   3.713   2.899   4.966  1.3455  1.1074 -0.6928
17213SOL     OW62857   0.904   9.973   2.548  0.5914 -0.0680 -0.0948
17213SOL    HW162858   0.888  10.042   2.478  0.0446 -0.5158 -0.4199
17213SOL    HW262859   0.877  10.008   2.638  1.3076  0.5126 -0.1095
17214SOL     OW62860   6.662   1.035   5.866 -0.4131 -0.0492  0.3028
17214SOL    HW162861   6.725   1.085   5.806 -1.4604  1.4976  0.4638
17214SOL    HW262862   6.633   0.950   5.821  1.7158 -0.7484  0.2054
17215SOL     OW62863   3.172   0.202   4.106 -0.6094 -0.4540 -0.0154
17215SOL    HW162864   3.219   0.125   4.149 -0.4777 -0.3483  0.0287
17215SOL    HW262865   3.192   0.203   4.008 -1.4903 -1.1204 -0.2063
17216SOL     OW62866   8.949   0.246   0.371  0.1689 -0.3963  0.4511
17216SOL    HW162867   8.937   0.322   0.436 -0.6377  0.4320 -0.6578
17216SOL    HW262868   9.005   0.277   0.294 -1.7488 -0.3416 -0.9592
17217SOL     OW62869   5.645   1.952   1.604 -0.0208  0.1234 -0.1347
17217SOL    HW162870   5.702   1.991   1.676  0.0929  0.2508 -0.2928
17217SOL    HW262871   5.701   1.895   1.544  0.0435  0.6559 -0.5891
17218SOL     OW62872   3.356   4.687   4.100 -0.6103 -0.2022 -0.0485
17218SOL    HW162873   3.443   4.648   4.068 -0.7800 -0.8024  0.2019
17218SOL    HW262874   3.280   4.644   4.052 -0.7288  1.0011 -0.9477
17219SOL     OW62875   8.762   2.497   0.398 -0.2742  0.8938  0.3931
17219SOL    HW162876   8.808   2.409   0.397 -1.4857  0.2609 -0.9516
17219SOL    HW262877   8.831   2.570   0.397  0.7436 -0.0195 -2.4453
17220SOL     OW62878   0.479   1.637   2.113  0.5303 -0.4669 -0.2808
17220SOL    HW162879   0.381   1.652   2.118  0.5009 -0.1963 -1.6693
17220SOL    HW262880   0.506   1.573   2.186 -0.5191  0.1645  0.6793
17221SOL     OW62881   8.543   7.195   1.598  0.4136  0.0010  0.2406
17221SOL    HW162882   8.443   7.197   1.598  0.3588 -1.7393 -1.0971
17221SOL    HW262883   8.575   7.146   1.679  0.1970  0.7542  0.7872
17222SOL     OW62884   9.295   4.959   3.707  0.4275 -0.4970 -0.0881
17222SOL    HW162885   9.288   4.859   3.704 -0.3159 -0.4112 -1.3774
17222SOL    HW262886   9.312   4.988   3.802  0.2175 -1.8112  0.3656
17223SOL     OW62887   8.939   6.506   3.915 -0.0657 -0.6798  0.2364
17223SOL    HW162888   8.976   6.587   3.962  0.1609  0.7229 -2.2840
17223SOL    HW262889   8.978   6.423   3.956  0.6462  0.5295  2.0655
17224SOL     OW62890   9.110   8.340   3.293  0.7744 -0.1523  0.8887
17224SOL    HW162891   9.076   8.279   3.365  2.1946 -0.3737  1.3859
17224SOL    HW262892   9.159   8.416   3.335 -0.9553  1.3247  0.2673
17225SOL     OW62893   6.971   1.748   5.165  0.2185 -0.1651 -0.3389
17225SOL    HW162894   6.874   1.724   5.176  1.1643 -3.4532  1.5816
17225SOL    HW262895   6.999   1.729   5.072 -1.0917  1.2937 -1.0557
17226SOL     OW62896   9.936   5.645   1.482 -0.6562 -0.2953  0.5172
17226SOL    HW162897   9.859   5.706   1.467 -1.1054  0.2546  4.4990
17226SOL    HW262898   9.902   5.557   1.517  0.2899 -1.3912 -1.2458
17227SOL     OW62899   1.323   4.426   2.770 -0.1528 -0.4454 -0.0951
17227SOL    HW162900   1.422   4.437   2.778 -0.3337  0.3366  1.2364
17227SOL    HW262901   1.298   4.331   2.788 -0.0325  0.2066  3.9011
17228SOL     OW62902   0.804   5.607   3.602 -0.1982  0.2251  0.0312
17228SOL    HW162903   0.853   5.590   3.687 -0.7963  1.1621  0.5688
17228SOL    HW262904   0.748   5.527   3.580 -0.2452  0.0819  0.6569
17229SOL     OW62905   0.099   4.193   2.494 -0.3108 -0.2937  0.4640
17229SOL    HW162906   0.175   4.245   2.457 -0.1110 -2.1614 -1.8678
17229SOL    HW262907   0.134   4.117   2.550 -0.4768 -0.7269 -0.0192
17230SOL     OW62908   5.342   1.745   2.377 -0.7701 -0.0762  0.9996
17230SOL    HW162909   5.311   1.650   2.369 -1.1080  0.1109 -0.0068
17230SOL    HW262910   5.264   1.804   2.400 -0.5061 -0.0788  1.9135
17231SOL     OW62911   4.642   2.804   2.145 -0.7172 -0.3437 -0.4405
17231SOL    HW162912   4.572   2.776   2.211 -0.0942 -2.2399 -0.5351
17231SOL    HW262913   4.651   2.733   2.075  1.7184 -0.4091 -0.1006
17232SOL     OW62914   2.542   2.398   3.551  0.2252 -0.4649 -0.1369
17232SOL    HW162915   2.574   2.452   3.629  1.7114 -0.8144 -0.4810
17232SOL    HW262916   2.568   2.444   3.466 -1.2918 -0.1415 -0.4340
17233SOL     OW62917   0.458   4.703   5.395 -0.6060  0.3938 -0.6569
17233SOL    HW162918   0.359   4.692   5.384 -0.4218 -0.6022 -1.3819
17233SOL    HW262919   0.477   4.792   5.436 -1.8305  0.4168 -0.1062
17234SOL     OW62920   2.841   5.732   5.512  0.4751  0.6020 -0.1456
17234SOL    HW162921   2.760   5.673   5.508  0.1028  1.0258  1.0318
17234SOL    HW262922   2.923   5.675   5.525  0.1398  0.3121  0.7736
17235SOL     OW62923   9.056   9.190   0.191  0.0941  0.0414 -0.3222
17235SOL    HW162924   9.078   9.178   0.094 -0.8705 -0.2392 -0.5152
17235SOL    HW262925   9.060   9.101   0.237 -0.0724  0.0779 -0.2371
17236SOL     OW62926   1.189   4.842   6.004 -0.3744 -0.0555 -0.9560
17236SOL    HW162927   1.122   4.775   6.034 -1.2872  0.6837 -1.3305
17236SOL    HW262928   1.215   4.822   5.909 -0.7267  0.1822 -1.1030
17237SOL     OW62929   9.095   4.046   1.723  0.5449 -0.2270 -0.2458
17237SOL    HW162930   8.998   4.026   1.740  0.1891 -0.0282 -2.0120
17237SOL    HW262931   9.110   4.058   1.625  2.4686 -0.8005 -0.0391
17238SOL     OW62932   9.997   1.287   5.917  0.4345 -0.3861  0.8674
17238SOL    HW162933   9.924   1.294   5.985  0.7833 -1.4557  1.3542
17238SOL    HW262934  10.076   1.342   5.947 -0.6359  1.8788 -0.3076
17239SOL     OW62935   8.070   1.222   1.429 -0.3718 -0.2360  0.1262
17239SOL    HW162936   8.134   1.147   1.444  1.6985  1.2592 -0.8766
17239SOL    HW262937   8.069   1.246   1.332 -2.1327  0.0468  0.2027
17240SOL     OW62938   3.450   0.091   0.434 -0.2141  0.0675 -0.2413
17240SOL    HW162939   3.541   0.110   0.397 -0.0176  0.5064  0.4421
17240SOL    HW262940   3.380   0.120   0.368  0.1412 -0.4112 -0.8319
17241SOL     OW62941   2.436   5.888   1.633 -0.3115 -0.4147 -0.0781
17241SOL    HW162942   2.454   5.790   1.626 -0.3622 -0.4022 -0.3863
17241SOL    HW262943   2.400   5.909   1.724 -0.5102 -0.7149 -0.0876
17242SOL     OW62944   0.107   2.168   3.662 -0.5814  0.5649  0.2542
17242SOL    HW162945   0.031   2.178   3.726 -1.4584 -1.4129 -0.4507
17242SOL    HW262946   0.170   2.245   3.674 -1.1380  0.6634  2.9312
17243SOL     OW62947   2.420   8.136   1.315  0.1439  0.8228  0.1602
17243SOL    HW162948   2.395   8.233   1.311  0.8106  1.0752  1.9828
17243SOL    HW262949   2.460   8.115   1.404 -0.0830 -1.1563 -0.1833
17244SOL     OW62950   2.406   4.273   6.412  0.0027 -0.2928 -0.4976
17244SOL    HW162951   2.334   4.268   6.481  0.1772  0.2519 -0.2680
17244SOL    HW262952   2.409   4.189   6.360  0.1035 -0.8586  0.4075
17245SOL     OW62953   9.129   4.133   1.442 -0.0724  0.3732 -0.0982
17245SOL    HW162954   9.110   4.075   1.363  3.3079 -1.9065  0.6609
17245SOL    HW262955   9.110   4.229   1.419 -1.6170 -0.5376 -2.7870
17246SOL     OW62956   0.965   3.308   2.610 -0.0328 -0.1757 -0.1585
17246SOL    HW162957   0.908   3.356   2.677  0.8717  0.1715  0.3696
17246SOL    HW262958   1.028   3.373   2.568  2.1374 -1.1084  1.5406
17247SOL     OW62959   9.551   4.201   5.218  0.1656  0.5332 -0.2710
17247SOL    HW162960   9.649   4.199   5.198 -0.1576 -0.5769 -1.7851
17247SOL    HW262961   9.536   4.182   5.315  1.5537  2.7354  0.4198
17248SOL     OW62962   4.299   2.096   5.658  0.0591  0.3633 -0.0564
17248SOL    HW162963   4.344   2.035   5.592  1.1470  0.2363  0.7862
17248SOL    HW262964   4.308   2.191   5.627  1.1847  0.3638  0.2574
17249SOL     OW62965   2.789   7.329   4.264  0.0701 -0.2348 -0.7181
17249SOL    HW162966   2.783   7.235   4.299  1.5256 -0.5488 -1.2900
17249SOL    HW262967   2.718   7.344   4.196 -0.9539 -0.5296  0.2690
17250SOL     OW62968   3.067   6.948   1.154  0.0832  0.2974  0.5382
17250SOL    HW162969   3.043   7.018   1.086 -0.4733 -0.7420 -0.3497
17250SOL    HW262970   3.113   6.992   1.231 -1.9490  1.9144  0.8785
17251SOL     OW62971   9.035   0.567   0.181 -0.4988  0.1027 -0.3078
17251SOL    HW162972   8.961   0.611   0.232 -1.5470  0.1256 -1.8339
17251SOL    HW262973   9.014   0.470   0.169 -1.3259  0.5475 -2.6026
17252SOL     OW62974   8.039   1.216   4.835  0.0460  0.3793  0.0721
17252SOL    HW162975   8.104   1.266   4.776  0.4704  1.1630  1.1929
17252SOL    HW262976   8.089   1.147   4.887 -0.1446  0.4975  0.4068
17253SOL     OW62977   8.932   4.047   4.329 -0.8072 -0.4403 -0.1965
17253SOL    HW162978   8.895   4.017   4.241  1.8068 -0.7097 -1.2538
17253SOL    HW262979   8.974   4.137   4.318  0.2721 -0.8430  0.5966
17254SOL     OW62980   7.841   7.269   5.335  0.0337  0.3951 -0.8916
17254SOL    HW162981   7.828   7.195   5.401  1.0002  1.3485  0.4024
17254SOL    HW262982   7.820   7.236   5.243 -0.8059 -1.1101 -0.1746
17255SOL     OW62983   0.827   9.340   6.368  0.1015 -0.2864  0.1901
17255SOL    HW162984   0.762   9.354   6.293  0.1080 -0.8277  0.0823
17255SOL    HW262985   0.919   9.331   6.331  0.3065  0.9624  0.3800
17256SOL     OW62986   8.024   1.678   5.866 -0.6749  0.6013 -0.0759
17256SOL    HW162987   8.054   1.770   5.891  2.5982 -0.1625 -0.8490
17256SOL    HW262988   7.958   1.684   5.791 -1.1792  2.3466  0.4851
17257SOL     OW62989   4.025   4.647   6.224  0.6671 -0.3311  0.8193
17257SOL    HW162990   4.088   4.702   6.279  0.1651  0.3038  0.7663
17257SOL    HW262991   4.047   4.658   6.127  0.1172  0.3306  0.7713
17258SOL     OW62992   5.370   5.454   1.409  0.1393  0.2543 -0.4552
17258SOL    HW162993   5.449   5.405   1.373  0.9342  1.7200 -0.7179
17258SOL    HW262994   5.400   5.525   1.472 -0.9742  0.7290 -0.4453
17259SOL     OW62995   9.957   5.304   0.734 -0.7398 -0.0669  0.6892
17259SOL    HW162996  10.023   5.321   0.807  0.5540 -0.1470 -0.4444
17259SOL    HW262997   9.927   5.391   0.695  0.5700 -0.0939 -0.4252
17260SOL     OW62998   1.583   9.523   5.276  0.4088  0.6182 -0.1466
17260SOL    HW162999   1.656   9.559   5.332  0.5519 -0.8175  0.6193
17260SOL    HW263000   1.578   9.424   5.287 -1.4747  0.6607 -0.3884
17261SOL     OW63001   4.976   9.226   5.898 -0.0661  0.2434 -0.4161
17261SOL    HW163002   5.005   9.300   5.837 -0.6734  0.9459  0.1463
17261SOL    HW263003   5.057   9.185   5.940  0.3061  0.2535 -1.1079
17262SOL     OW63004   6.400   0.063   4.021  0.3089  0.1050 -0.4662
17262SOL    HW163005   6.451  -0.018   4.049 -1.0236 -0.3658  0.6267
17262SOL    HW263006   6.379   0.058   3.923  1.5198 -0.1340 -0.7272
17263SOL     OW63007   0.235   6.063   6.673  0.1510 -0.1287 -0.0378
17263SOL    HW163008   0.203   6.158   6.682 -0.2205 -0.2937  0.4183
17263SOL    HW263009   0.305   6.058   6.602 -1.2513  0.1513 -1.4701
17264SOL     OW63010   7.194   9.820   1.566  0.0981  0.2122  0.4334
17264SOL    HW163011   7.231   9.902   1.609  0.3309  0.7128 -0.6949
17264SOL    HW263012   7.107   9.842   1.522  0.9810  0.2744 -1.3253
17265SOL     OW63013   5.344   4.976   1.473  0.1935 -0.5574  0.2340
17265SOL    HW163014   5.245   4.965   1.473  0.1411 -0.0955 -0.0881
17265SOL    HW263015   5.372   5.027   1.392  0.7192 -0.9005  0.2020
17266SOL     OW63016   2.429   9.319   5.209  0.0905 -0.8564  0.0240
17266SOL    HW163017   2.482   9.280   5.134 -1.1229 -0.4197 -1.0710
17266SOL    HW263018   2.446   9.266   5.292  0.8851 -1.7926 -0.7156
17267SOL     OW63019   7.249   0.724   5.745 -0.0222  0.3826 -0.3618
17267SOL    HW163020   7.318   0.755   5.680  0.0864 -0.1205 -0.4825
17267SOL    HW263021   7.288   0.723   5.837 -0.0385  0.6468 -0.3521
17268SOL     OW63022   9.967   7.298   5.149 -0.4321  0.4295  0.5324
17268SOL    HW163023   9.931   7.271   5.059  0.7447 -3.2259  1.0682
17268SOL    HW263024   9.894   7.293   5.216 -0.3551 -1.1120  0.5270
17269SOL     OW63025   7.361   0.068   5.470 -0.0206 -0.5622  0.6476
17269SOL    HW163026   7.447   0.104   5.508 -0.0208 -1.6199  1.6510
17269SOL    HW263027   7.365   0.072   5.370 -0.0928  2.4233  0.7088
17270SOL     OW63028   9.099   7.703   4.196  0.3771 -0.1107  0.0012
17270SOL    HW163029   9.192   7.680   4.166  0.6213  1.2564 -0.3638
17270SOL    HW263030   9.035   7.684   4.122  0.1604 -2.4364  0.7684
17271SOL     OW63031   8.560   5.495   2.104  0.6755  0.1532 -0.9940
17271SOL    HW163032   8.562   5.595   2.104  0.4863  0.1585 -1.3501
17271SOL    HW263033   8.504   5.463   2.028  1.3110 -0.2312 -1.3059
17272SOL     OW63034   8.347   6.270   3.837  0.0188 -0.1903  0.2368
17272SOL    HW163035   8.284   6.253   3.913  0.0499 -0.5356  0.1865
17272SOL    HW263036   8.382   6.364   3.843  1.5750 -0.8209  1.8111
17273SOL     OW63037   1.495   7.993   2.783 -0.4062  0.0197  0.2705
17273SOL    HW163038   1.446   7.966   2.700 -0.4793 -1.4937  0.7987
17273SOL    HW263039   1.430   8.018   2.854 -0.4529 -2.1346  1.0212
17274SOL     OW63040   0.696   9.405   3.252 -0.6431 -0.0415 -0.0496
17274SOL    HW163041   0.781   9.358   3.226  0.2532  0.4124  1.9728
17274SOL    HW263042   0.716   9.473   3.322 -2.6711  0.1320  0.3791
17275SOL     OW63043   8.564   7.430   3.824  0.5777 -0.2635  0.8850
17275SOL    HW163044   8.510   7.352   3.856 -0.5171  0.5004  0.9327
17275SOL    HW263045   8.513   7.479   3.754  1.7719 -0.2786 -0.0016
17276SOL     OW63046   8.756   0.727   2.881  0.2790 -0.1422 -0.1789
17276SOL    HW163047   8.738   0.802   2.945 -1.8845 -1.2849  0.5954
17276SOL    HW263048   8.808   0.762   2.803  0.4949  1.8707  0.8151
17277SOL     OW63049   8.221   1.569   6.120  0.0230 -0.4287 -0.1797
17277SOL    HW163050   8.207   1.548   6.217  1.2540 -0.0048  0.0922
17277SOL    HW263051   8.132   1.572   6.074 -0.4571 -2.3169  0.5792
17278SOL     OW63052   8.459   1.163   2.644 -0.8232 -0.4819  0.0484
17278SOL    HW163053   8.478   1.104   2.566 -0.1223  0.2240 -0.3215
17278SOL    HW263054   8.405   1.113   2.711 -2.2895 -0.7820 -1.3321
17279SOL     OW63055   3.883   6.114   2.861  0.0549 -0.2767 -0.1671
17279SOL    HW163056   3.807   6.085   2.918  0.8821 -1.2336  0.4503
17279SOL    HW263057   3.894   6.213   2.868 -1.5491 -0.0383 -0.7853
17280SOL     OW63058   4.866   9.212   4.468  0.0939 -0.3750  0.1287
17280SOL    HW163059   4.792   9.202   4.401  1.3762  0.7936 -1.5255
17280SOL    HW263060   4.858   9.301   4.513  0.4155 -0.2976  0.0348
17281SOL     OW63061   9.838   6.006   5.616  0.0603  0.3437  0.0677
17281SOL    HW163062   9.814   5.921   5.569 -0.7385  2.0252 -2.6996
17281SOL    HW263063   9.769   6.026   5.686 -0.2160 -0.8539  0.1406
17282SOL     OW63064   0.686   8.676   1.712 -0.5240 -0.2599  0.0673
17282SOL    HW163065   0.601   8.725   1.697 -2.4547 -3.6324 -0.5078
17282SOL    HW263066   0.668   8.593   1.765  2.3993 -1.0496 -0.0684
17283SOL     OW63067   5.946   1.662   4.343 -0.1244 -0.3347  0.2821
17283SOL    HW163068   5.958   1.680   4.246  1.3484 -0.2034  0.4850
17283SOL    HW263069   5.922   1.566   4.356 -0.4770 -0.3172 -0.2104
17284SOL     OW63070   3.270   1.764   3.947  0.1320 -0.0059 -0.7500
17284SOL    HW163071   3.171   1.781   3.941  0.0805 -0.3620 -0.9254
17284SOL    HW263072   3.302   1.729   3.859  0.3260 -0.3576 -0.5369
17285SOL     OW63073   9.046   6.263   3.697  0.3411  0.2239  0.7941
17285SOL    HW163074   9.048   6.358   3.665  0.7428 -0.6763 -2.0770
17285SOL    HW263075   8.953   6.228   3.690  0.6493 -0.3576 -0.7234
17286SOL     OW63076   1.192   4.834   0.790  0.6549  0.6080 -0.0047
17286SOL    HW163077   1.200   4.752   0.734  0.1977 -0.3730  1.3492
17286SOL    HW263078   1.097   4.866   0.790 -0.0273 -1.2789  2.8030
17287SOL     OW63079   8.172   0.741   5.414  0.2459 -0.5020  0.0542
17287SOL    HW163080   8.220   0.806   5.474 -1.0612 -0.2668  0.8674
17287SOL    HW263081   8.237   0.700   5.350  1.4686  0.0411  0.9326
17288SOL     OW63082   0.105   2.824   2.380 -0.2589  0.5916 -0.0902
17288SOL    HW163083   0.131   2.763   2.306  1.1149 -0.1000  0.9366
17288SOL    HW263084   0.012   2.803   2.410 -0.2117 -0.2131 -0.5163
17289SOL     OW63085   2.506   0.770   4.260  0.7270 -0.1463 -0.5686
17289SOL    HW163086   2.521   0.788   4.162 -1.1021 -0.5899 -0.9492
17289SOL    HW263087   2.517   0.673   4.278  1.1915 -0.0476 -0.2816
17290SOL     OW63088   8.608   3.893   1.491 -0.4882  0.4858 -0.7131
17290SOL    HW163089   8.611   3.850   1.581 -1.2333 -1.2775 -1.5063
17290SOL    HW263090   8.697   3.933   1.470  0.9803 -2.7684 -0.9260
17291SOL     OW63091   0.524   3.096   2.353  0.0032 -0.3333 -0.1645
17291SOL    HW163092   0.586   3.106   2.275  2.0202  2.2737  1.6884
17291SOL    HW263093   0.430   3.116   2.323  0.5545 -0.7180 -2.2155
17292SOL     OW63094   3.418   6.652   0.172 -0.3175  0.1288 -0.2186
17292SOL    HW163095   3.371   6.734   0.207  2.4589  1.1782  1.1835
17292SOL    HW263096   3.471   6.677   0.091  0.7366 -0.2133  0.3618
17293SOL     OW63097   1.873   3.397   5.892 -0.3246 -0.4030  0.5652
17293SOL    HW163098   1.928   3.479   5.906  0.1960 -0.8408  1.1347
17293SOL    HW263099   1.909   3.323   5.949 -1.3932 -0.7458  0.8048
17294SOL     OW63100   0.408   2.795   4.716  0.1426 -0.3743  0.0473
17294SOL    HW163101   0.416   2.843   4.629 -0.5426 -1.6187 -0.7175
17294SOL    HW263102   0.498   2.789   4.760  0.5059  0.1661 -0.6285
17295SOL     OW63103   1.247   9.165   0.153 -0.1668  0.2511 -0.4476
17295SOL    HW163104   1.265   9.258   0.123  0.3603  0.1602 -0.4205
17295SOL    HW263105   1.233   9.165   0.252  0.4205  0.2184 -0.3636
17296SOL     OW63106   8.672   0.514   0.409  0.1076  0.0976 -0.3999
17296SOL    HW163107   8.672   0.443   0.338  1.6206  1.2087 -1.5328
17296SOL    HW263108   8.615   0.484   0.486 -0.6514 -1.5996 -1.5988
17297SOL     OW63109   4.555   0.999   1.870  0.4463  0.0787 -0.6260
17297SOL    HW163110   4.480   1.058   1.841  0.4634  0.6202  0.4228
17297SOL    HW263111   4.601   0.961   1.790  0.5251  1.6005 -1.3095
17298SOL     OW63112   0.612   6.620   5.660 -0.2034  0.6224  0.8331
17298SOL    HW163113   0.548   6.570   5.602 -2.4038  2.7270  1.3465
17298SOL    HW263114   0.638   6.564   5.738 -0.2165 -0.8171 -0.1887
17299SOL     OW63115   1.350   5.621   1.485 -0.1491 -0.6257 -0.0993
17299SOL    HW163116   1.279   5.655   1.545  0.7752  1.6414 -0.2283
17299SOL    HW263117   1.374   5.692   1.418 -0.5171 -2.7613 -2.5472
17300SOL     OW63118   1.773   8.845   1.052  0.1870  0.4373 -0.3771
17300SOL    HW163119   1.739   8.751   1.057 -1.8746  1.0329 -1.9586
17300SOL    HW263120   1.856   8.854   1.106 -0.4325 -1.9151  1.0466
17301SOL     OW63121   2.356   0.904   1.651 -0.2286  0.0850 -0.0704
17301SOL    HW163122   2.298   0.973   1.608 -0.5713 -0.1147  0.0676
17301SOL    HW263123   2.299   0.831   1.689  0.0854  0.1161  0.4741
17302SOL     OW63124   3.579   8.511   0.359 -0.3488 -0.4378 -0.6888
17302SOL    HW163125   3.597   8.586   0.423 -1.8547  0.1654 -0.9270
17302SOL    HW263126   3.615   8.426   0.395  0.2285  0.1810  0.2054
17303SOL     OW63127   8.988   1.395   1.455  0.1163  0.6046  0.3246
17303SOL    HW163128   9.045   1.326   1.410  0.7768  1.6461 -0.4549
17303SOL    HW263129   8.892   1.364   1.455  0.4213 -0.3610  0.0975
17304SOL     OW63130   2.301   7.243   3.352 -0.0473  0.3130  0.0289
17304SOL    HW163131   2.333   7.168   3.410 -0.0456  1.4131  1.4670
17304SOL    HW263132   2.374   7.269   3.289  0.9035  0.8949  1.3529
17305SOL     OW63133   8.316   5.612   1.778 -0.2980 -0.0771 -0.0046
17305SOL    HW163134   8.394   5.665   1.814 -1.1885  1.1232  0.1861
17305SOL    HW263135   8.342   5.515   1.773  1.3125  0.3423 -0.2349
17306SOL     OW63136   3.355   0.907   6.634 -0.3781 -0.1029  0.1284
17306SOL    HW163137   3.387   0.834   6.694 -0.0838  0.4753  0.6888
17306SOL    HW263138   3.366   0.995   6.680 -0.5240  0.3155 -0.6211
17307SOL     OW63139   3.526   0.591   4.693  0.0184  0.1803  0.3818
17307SOL    HW163140   3.532   0.595   4.593  2.9789  2.5805  0.5725
17307SOL    HW263141   3.548   0.498   4.723 -1.3590 -0.6874 -1.2013
17308SOL     OW63142   4.812   7.735   3.010  0.8795  0.6070  0.0013
17308SOL    HW163143   4.740   7.691   3.064  1.3706 -0.3649 -0.1108
17308SOL    HW263144   4.837   7.675   2.934  0.0437  2.0643 -1.4476
17309SOL     OW63145   8.241   6.280   5.484 -0.6312  0.1814  1.1543
17309SOL    HW163146   8.300   6.201   5.500  0.5729  0.5366 -1.2912
17309SOL    HW263147   8.297   6.363   5.480 -1.2553  0.5238 -1.1988
17310SOL     OW63148   3.815   2.155   3.578  0.0950  0.2401  0.0656
17310SOL    HW163149   3.894   2.142   3.639  1.5648  0.2234 -1.7771
17310SOL    HW263150   3.747   2.085   3.596  1.0878 -0.5511  0.8249
17311SOL     OW63151   2.317   4.965   5.829 -0.0409  0.1705 -0.3350
17311SOL    HW163152   2.254   4.920   5.766  0.0619 -0.8126  0.2431
17311SOL    HW263153   2.290   5.060   5.842 -0.8932 -0.0099 -0.7515
17312SOL     OW63154   7.764   3.288   0.773  0.2227 -0.0946 -0.5009
17312SOL    HW163155   7.704   3.251   0.844 -1.3005  0.7912 -1.3067
17312SOL    HW263156   7.802   3.376   0.803  0.9029 -0.5083 -0.1201
17313SOL     OW63157   1.245   8.524   5.371 -0.0381  0.4093 -0.5171
17313SOL    HW163158   1.336   8.552   5.339  0.8711 -1.2716  0.5333
17313SOL    HW263159   1.209   8.453   5.311 -0.5092  0.8440 -0.7433
17314SOL     OW63160   2.223   4.129   6.575 -0.6351 -0.6151 -0.1053
17314SOL    HW163161   2.251   4.095   6.665 -0.9862 -0.6858 -0.0209
17314SOL    HW263162   2.123   4.132   6.570 -0.6053  0.3258 -0.1449
17315SOL     OW63163   1.233   6.296   1.439  0.0303 -0.2583  0.9084
17315SOL    HW163164   1.255   6.376   1.494  0.8124  0.7222 -0.7677
17315SOL    HW263165   1.136   6.299   1.412  0.4236  0.9757 -0.4454
17316SOL     OW63166   8.222   4.807   1.728  0.0538 -0.0217  0.3517
17316SOL    HW163167   8.275   4.848   1.654 -0.2947  1.4690  0.9093
17316SOL    HW263168   8.128   4.792   1.697  0.6160 -2.1607 -0.4568
17317SOL     OW63169   2.913   4.788   6.341 -0.1563 -0.7239 -0.1340
17317SOL    HW163170   2.895   4.697   6.302  0.7288 -0.5981 -0.8490
17317SOL    HW263171   2.831   4.845   6.329  0.3510 -0.4490 -2.5320
17318SOL     OW63172   8.275   4.059   5.828  0.2246 -0.3709  0.1328
17318SOL    HW163173   8.252   4.025   5.737 -0.8222  0.5478  0.0460
17318SOL    HW263174   8.200   4.116   5.863  1.4760  0.9419  0.7285
17319SOL     OW63175   0.056   5.761   1.233 -0.0190  0.2034 -0.0331
17319SOL    HW163176   0.023   5.855   1.224  1.3603  0.9214  2.0811
17319SOL    HW263177   0.025   5.722   1.319  2.3541 -0.0137  0.7628
17320SOL     OW63178   0.145   2.656   4.222 -0.0409  0.0360  0.1040
17320SOL    HW163179   0.168   2.741   4.269 -0.3462  1.3737 -2.0636
17320SOL    HW263180   0.046   2.650   4.210  0.0410 -0.2066 -0.4836
17321SOL     OW63181   6.906   1.971   3.004 -0.0164  0.5050 -0.2272
17321SOL    HW163182   6.994   2.019   2.995  1.5208 -2.4464 -1.5696
17321SOL    HW263183   6.846   1.999   2.928  0.7405  0.5271 -0.8224
17322SOL     OW63184   8.304   4.213   5.257  0.1319  0.3063  0.0700
17322SOL    HW163185   8.328   4.130   5.307 -0.0571  0.1989 -0.0191
17322SOL    HW263186   8.236   4.192   5.187 -1.4250  0.8935  1.3621
17323SOL     OW63187   6.247   7.874   4.244  0.1804 -0.3260 -0.0921
17323SOL    HW163188   6.176   7.835   4.303  0.2846  0.1255  0.3407
17323SOL    HW263189   6.219   7.965   4.213  0.1308 -0.5588 -0.7341
17324SOL     OW63190   9.226   0.569   2.038  0.0226 -0.3776  0.1435
17324SOL    HW163191   9.221   0.613   1.949  0.7121  0.6695  0.6052
17324SOL    HW263192   9.158   0.496   2.044 -0.1362 -0.3430 -1.1718
17325SOL     OW63193   3.635   2.209   3.251  0.2739  0.2539 -0.2830
17325SOL    HW163194   3.598   2.258   3.172  0.9034  0.7827 -0.2512
17325SOL    HW263195   3.729   2.239   3.268  0.5282 -0.6723 -0.0174
17326SOL     OW63196   0.060   4.266   0.533  0.1945 -0.5797  0.2250
17326SOL    HW163197   0.129   4.227   0.473  0.8711 -0.0865  0.6743
17326SOL    HW263198   0.041   4.360   0.505  0.1946 -0.4940  0.5122
17327SOL     OW63199   9.478   9.576   4.508  0.1640 -0.0477 -0.0644
17327SOL    HW163200   9.383   9.557   4.483 -0.3616  0.4021  1.4632
17327SOL    HW263201   9.505   9.664   4.469 -1.0647  1.2625  1.9137
17328SOL     OW63202   3.216   6.245   5.496  0.0709 -0.0951  0.1106
17328SOL    HW163203   3.152   6.175   5.524 -0.0345 -0.5157 -1.1510
17328SOL    HW263204   3.201   6.328   5.550 -0.1424 -0.8623  1.2431
17329SOL     OW63205   4.480   2.734   2.354 -0.2210  0.3384 -0.5230
17329SOL    HW163206   4.444   2.778   2.436  1.6829 -1.4550  1.3511
17329SOL    HW263207   4.431   2.649   2.337  0.2803  0.0312 -0.4497
17330SOL     OW63208   5.968   1.439   4.782 -0.4611  0.1883  0.4380
17330SOL    HW163209   5.906   1.435   4.704 -0.9797  0.6692  0.8141
17330SOL    HW263210   6.054   1.393   4.760 -1.2067 -1.0784  0.1396
17331SOL     OW63211   3.925   5.421   0.050 -0.0454 -0.3735  0.3153
17331SOL    HW163212   3.842   5.473   0.073  0.8982  0.7828  1.1445
17331SOL    HW263213   3.997   5.484   0.022  0.7021 -1.3545  0.0072
17332SOL     OW63214   6.768   0.312   2.292  0.4238  0.0229 -0.0826
17332SOL    HW163215   6.849   0.254   2.283  0.7454  0.3098  0.8767
17332SOL    HW263216   6.722   0.292   2.379 -0.2142  0.2561 -0.3634
17333SOL     OW63217   1.030   5.651   6.678  0.0081 -0.2593  0.4889
17333SOL    HW163218   1.008   5.582   6.610 -0.8816 -0.2281  0.7367
17333SOL    HW263219   0.950   5.710   6.692  0.6904  0.6884  0.4235
17334SOL     OW63220   1.237   7.238   0.795  0.3024  0.1624  0.1253
17334SOL    HW163221   1.240   7.263   0.892  1.1824  1.4575 -0.2257
17334SOL    HW263222   1.328   7.215   0.763 -0.4632 -3.4489  0.3876
17335SOL     OW63223   0.664   7.945   2.308 -0.3424  0.0087  0.3504
17335SOL    HW163224   0.591   8.003   2.343  0.2732  1.1720 -0.2978
17335SOL    HW263225   0.630   7.890   2.232 -0.0169  2.0331 -1.2876
17336SOL     OW63226   1.946   4.611   6.301  0.0972 -0.1932  0.1314
17336SOL    HW163227   2.033   4.660   6.304  0.3423 -0.6558  0.5235
17336SOL    HW263228   1.889   4.640   6.378  0.7540 -1.4799  1.1134
17337SOL     OW63229   3.536   0.679   3.935  0.0007 -0.3690  0.5767
17337SOL    HW163230   3.554   0.584   3.963 -0.4833 -0.1363  1.6726
17337SOL    HW263231   3.541   0.739   4.015  1.6409  0.7304 -0.3140
17338SOL     OW63232   4.335   2.276   3.945  0.4849  0.1817  0.6644
17338SOL    HW163233   4.351   2.194   4.000 -0.6586 -1.0917 -0.8465
17338SOL    HW263234   4.260   2.258   3.881  1.1653  1.9580 -0.6486
17339SOL     OW63235   2.101   0.854   5.201  0.4471 -0.1112  0.0009
17339SOL    HW163236   2.063   0.919   5.266 -1.3571  0.2616 -1.3955
17339SOL    HW263237   2.073   0.761   5.226 -0.4920  0.0611 -0.4222
17340SOL     OW63238   7.631   9.085   2.439  0.2390 -0.0129  0.1219
17340SOL    HW163239   7.685   9.169   2.435  0.5327 -0.1640  0.9230
17340SOL    HW263240   7.634   9.039   2.350  0.8299  0.3513 -0.0460
17341SOL     OW63241   0.106   0.507   1.674 -0.1773 -0.1946  0.3182
17341SOL    HW163242   0.182   0.572   1.673  0.4351 -0.8638  1.2535
17341SOL    HW263243   0.034   0.541   1.734 -0.5321  0.3433 -0.4064
17342SOL     OW63244   8.225   5.345   3.461 -0.5404 -0.1470  0.2644
17342SOL    HW163245   8.230   5.366   3.558  0.1494  0.7357  0.0489
17342SOL    HW263246   8.247   5.249   3.447 -0.7791 -0.3117  0.9926
17343SOL     OW63247   3.775   2.479   2.361 -0.2820 -0.0971  0.0441
17343SOL    HW163248   3.691   2.455   2.313 -0.4922 -0.2309  0.4786
17343SOL    HW263249   3.837   2.400   2.361 -0.9540 -0.6557  1.4321
17344SOL     OW63250   3.101   3.352   2.770  0.1512  0.7429 -0.0761
17344SOL    HW163251   3.057   3.290   2.705  0.3647  2.0995 -1.5472
17344SOL    HW263252   3.200   3.335   2.770 -0.0153 -0.3264  1.0853
17345SOL     OW63253   3.925   2.981   1.136 -0.6380  0.1998  0.2365
17345SOL    HW163254   4.013   2.992   1.184  0.5805 -0.0327 -1.8762
17345SOL    HW263255   3.928   3.032   1.050 -2.2517 -0.5654 -0.2818
17346SOL     OW63256   4.407   9.847   3.897 -0.4891 -0.5582 -0.1320
17346SOL    HW163257   4.378   9.876   3.989  1.1979  2.0474 -0.3672
17346SOL    HW263258   4.478   9.778   3.905  2.2403  2.2119  0.6740
17347SOL     OW63259   2.234   0.856   2.854 -0.3900 -0.0988 -0.2461
17347SOL    HW163260   2.315   0.842   2.911 -1.1368  1.0835  1.1224
17347SOL    HW263261   2.249   0.937   2.796 -0.7277  0.3139  0.2451
17348SOL     OW63262   0.356   8.003   5.705 -0.0867  0.5703 -0.3506
17348SOL    HW163263   0.437   8.060   5.691  0.8092 -0.4409  0.6385
17348SOL    HW263264   0.384   7.910   5.729 -1.5371 -0.0983 -1.1938
17349SOL     OW63265   5.233   7.885   4.032  0.1274 -0.1365 -0.0147
17349SOL    HW163266   5.251   7.844   4.122  1.2377  0.3987  0.0210
17349SOL    HW263267   5.260   7.981   4.034 -0.6881  0.1053 -0.6635
17350SOL     OW63268   0.294   0.658   5.399 -0.3855  0.3302  0.5812
17350SOL    HW163269   0.221   0.622   5.457 -1.4661  1.1320 -0.2816
17350SOL    HW263270   0.259   0.675   5.307  0.8753  0.7652  0.1714
17351SOL     OW63271   2.087   5.220   1.343 -0.3742  0.1277  0.1562
17351SOL    HW163272   1.989   5.238   1.345 -0.5298 -0.8515  1.7428
17351SOL    HW263273   2.125   5.224   1.435  1.0431  0.2664 -0.4044
17352SOL     OW63274   5.632   7.459   5.059 -0.5946  0.3861  0.0323
17352SOL    HW163275   5.688   7.453   4.977  0.0422  1.1076  0.4028
17352SOL    HW263276   5.539   7.428   5.039 -0.0238 -0.9912 -0.5506
17353SOL     OW63277   2.547   5.987   3.527  0.1589 -0.4211  0.1563
17353SOL    HW163278   2.614   6.030   3.467  0.2805  0.1930  0.7304
17353SOL    HW263279   2.496   5.918   3.475  1.9248 -1.6166 -0.0098
17354SOL     OW63280   7.016   0.740   0.359 -0.0740  0.0117  0.3692
17354SOL    HW163281   6.973   0.830   0.348  0.9669  0.3710 -0.8369
17354SOL    HW263282   7.014   0.691   0.272  2.5241  0.2921  0.1126
17355SOL     OW63283   4.344   8.646   5.257 -0.0229  0.3419 -0.2452
17355SOL    HW163284   4.254   8.689   5.255 -0.2796 -0.0668  2.0968
17355SOL    HW263285   4.414   8.717   5.268 -0.3421  0.3501  1.9749
17356SOL     OW63286   1.968   0.802   5.970  0.5866 -0.0590  0.5144
17356SOL    HW163287   1.873   0.834   5.979  1.5731  3.0725  0.4377
17356SOL    HW263288   1.999   0.763   6.056 -0.7335 -1.0269  0.5671
17357SOL     OW63289   6.169   1.410   3.386  0.0279 -0.2882  0.7133
17357SOL    HW163290   6.224   1.358   3.450  0.8886  0.2399  0.4071
17357SOL    HW263291   6.151   1.501   3.424  1.2838  0.3410 -0.1581
17358SOL     OW63292   9.834   2.273   0.170  0.5619 -0.0779  0.4807
17358SOL    HW163293   9.925   2.247   0.200  0.3463 -1.4144 -0.0194
17358SOL    HW263294   9.802   2.210   0.099 -1.0574 -0.1072  1.2087
17359SOL     OW63295   5.705   8.900   1.762 -0.6638 -0.1200 -0.0776
17359SOL    HW163296   5.788   8.858   1.800 -0.3693 -0.7656 -1.4250
17359SOL    HW263297   5.711   8.901   1.662 -1.4152  1.6225 -0.1138
17360SOL     OW63298   1.204   1.621   5.499  0.2370  0.1956  0.2546
17360SOL    HW163299   1.227   1.587   5.408  0.2144 -0.2666  0.4226
17360SOL    HW263300   1.119   1.673   5.494  0.8791  1.2154 -0.2149
17361SOL     OW63301   4.036   7.274   2.496  0.2563 -0.0582 -0.0072
17361SOL    HW163302   3.953   7.235   2.536  1.5938 -1.9150  1.0290
17361SOL    HW263303   4.073   7.211   2.428  1.1381  0.5169 -0.0678
17362SOL     OW63304   1.959   4.010   3.630  0.5084  0.0668  0.1811
17362SOL    HW163305   1.934   3.915   3.612 -1.8996  0.6015  0.4819
17362SOL    HW263306   2.037   4.036   3.572  0.6173 -1.8071 -0.5414
17363SOL     OW63307   4.214   0.846   1.480 -0.5698  0.4737  0.0338
17363SOL    HW163308   4.152   0.925   1.480 -0.4554  0.5645  0.1413
17363SOL    HW263309   4.272   0.850   1.399 -0.1236  0.8492  0.3714
17364SOL     OW63310   3.513   6.641   5.340 -0.0596  0.1492 -0.5585
17364SOL    HW163311   3.569   6.563   5.313 -0.8429 -1.4627  2.2312
17364SOL    HW263312   3.572   6.717   5.367  0.7241 -0.1630 -1.3756
17365SOL     OW63313   8.472   2.522   2.881 -0.1080  0.2257  0.1143
17365SOL    HW163314   8.400   2.528   2.951  0.5404  0.4859  0.7664
17365SOL    HW263315   8.478   2.428   2.848  1.0817 -0.3801  2.0121
17366SOL     OW63316   5.399   9.616   3.919  0.4205 -0.0544  1.0332
17366SOL    HW163317   5.353   9.640   3.833  1.3217 -0.9239  0.2952
17366SOL    HW263318   5.446   9.697   3.955  0.4371  0.2006  0.4519
17367SOL     OW63319   0.199   4.632   5.373 -0.0105  0.4909 -0.2224
17367SOL    HW163320   0.173   4.709   5.316  1.2771  2.7066  2.0871
17367SOL    HW263321   0.151   4.637   5.461  1.1077 -0.5730  0.4841
17368SOL     OW63322   8.237   4.221   3.912  0.2432 -0.6290 -0.0966
17368SOL    HW163323   8.290   4.219   3.997 -0.9352 -0.5938  0.6379
17368SOL    HW263324   8.275   4.292   3.851  0.2337  0.2924  0.9542
17369SOL     OW63325   2.602   2.872   4.134 -0.5518 -0.0865 -0.2296
17369SOL    HW163326   2.638   2.965   4.126  0.8781 -0.5705  0.2309
17369SOL    HW263327   2.582   2.835   4.043 -0.5611  0.4687 -0.4503
17370SOL     OW63328   4.102   9.252   3.881  0.2521  0.5191 -0.3691
17370SOL    HW163329   4.071   9.347   3.885  0.4638  0.5144  2.9797
17370SOL    HW263330   4.027   9.193   3.851 -0.0209  1.6624 -1.9860
17371SOL     OW63331   2.818   0.827   4.966 -0.2817 -0.0043 -0.6747
17371SOL    HW163332   2.856   0.842   5.057 -2.3089  0.8234  0.0698
17371SOL    HW263333   2.831   0.909   4.910 -0.0037 -0.1213 -0.7834
17372SOL     OW63334   8.490   2.511   5.728 -0.1848 -0.3045 -0.2997
17372SOL    HW163335   8.581   2.544   5.755 -1.0413  0.8727  1.2113
17372SOL    HW263336   8.453   2.453   5.801 -1.2647  0.4620 -0.2261
17373SOL     OW63337   7.931   8.914   1.625  0.5794 -0.1451 -0.7319
17373SOL    HW163338   7.998   8.969   1.574 -0.2857  0.1557 -1.5707
17373SOL    HW263339   7.934   8.939   1.722  1.2284  0.3287 -0.8686
17374SOL     OW63340   3.950   7.885   4.148 -0.1191  0.0935  0.3349
17374SOL    HW163341   4.009   7.809   4.120 -1.4297 -1.2117  1.0686
17374SOL    HW263342   3.996   7.972   4.129  0.7605 -0.8427 -1.9259
17375SOL     OW63343   9.626   9.497   2.778  0.1603  0.6253  0.1091
17375SOL    HW163344   9.711   9.509   2.728 -0.6439  1.5955 -1.0654
17375SOL    HW263345   9.646   9.477   2.874  1.7061 -0.2421 -0.3834
17376SOL     OW63346  10.004   6.771   1.842  0.0752  0.6887 -0.0993
17376SOL    HW163347   9.912   6.808   1.827 -0.6510 -1.3469 -0.7725
17376SOL    HW263348  10.014   6.743   1.937  0.1472  1.3192  0.0781
17377SOL     OW63349   5.729   9.095   2.789  0.1823  0.1027  0.5943
17377SOL    HW163350   5.800   9.111   2.720 -0.9842  0.5371 -0.5280
17377SOL    HW263351   5.642   9.076   2.743 -0.4125 -0.5271  1.9533
17378SOL     OW63352   6.437   0.852   0.282 -0.5299 -0.3370 -0.2719
17378SOL    HW163353   6.359   0.799   0.249 -1.1988 -0.0762  0.8621
17378SOL    HW263354   6.474   0.808   0.365 -0.2824  0.2511 -0.0721
17379SOL     OW63355   3.227   1.966   0.228 -0.3675  0.4446 -0.2163
17379SOL    HW163356   3.255   2.062   0.232 -0.4041  0.4444  0.0401
17379SOL    HW263357   3.173   1.943   0.309  0.3671 -0.0223  0.1427
17380SOL     OW63358   3.047   5.024   2.322  0.0720  0.2523  0.0865
17380SOL    HW163359   3.042   5.050   2.225  1.3965  1.6893  0.3783
17380SOL    HW263360   3.130   5.064   2.362 -0.3179 -0.5869  1.7371
17381SOL     OW63361   7.791   1.285   1.143  0.1803 -0.1561 -0.2455
17381SOL    HW163362   7.755   1.228   1.069  1.2944 -2.0075  0.6026
17381SOL    HW263363   7.726   1.288   1.219 -1.1080  2.0058 -1.3796
17382SOL     OW63364   8.463   2.368   1.891 -0.1324 -0.1026 -0.2273
17382SOL    HW163365   8.440   2.381   1.795  1.7435  0.9592 -0.5621
17382SOL    HW263366   8.561   2.385   1.904 -0.9202  2.8695  2.3982
17383SOL     OW63367   0.131   7.679   4.647  0.0864 -0.3450  0.0333
17383SOL    HW163368   0.143   7.779   4.644  0.4033 -0.3750  0.3766
17383SOL    HW263369   0.054   7.657   4.707 -0.9669 -0.2246 -1.2487
17384SOL     OW63370   1.679   2.349   1.153 -0.4462 -0.1983 -0.4227
17384SOL    HW163371   1.624   2.304   1.223  1.6549 -0.5120  1.0666
17384SOL    HW263372   1.689   2.446   1.175  1.0371 -0.4959  0.2687
17385SOL     OW63373   6.776   1.726   0.225  0.1308 -0.0189 -0.1237
17385SOL    HW163374   6.844   1.797   0.244  0.1325 -0.0553  0.0016
17385SOL    HW263375   6.809   1.638   0.258  0.2457 -0.1281 -0.5185
17386SOL     OW63376   3.766   1.182   0.409  0.1160  0.0646  0.0829
17386SOL    HW163377   3.832   1.195   0.335  1.0275 -1.8901  0.5114
17386SOL    HW263378   3.744   1.270   0.450 -1.1625  1.3194 -3.1127
17387SOL     OW63379   1.452   8.635   0.069  0.4212 -0.3150 -0.4922
17387SOL    HW163380   1.501   8.721   0.055  0.5955 -0.1773  0.9496
17387SOL    HW263381   1.411   8.634   0.160 -0.6544 -1.2330 -0.9732
17388SOL     OW63382   3.829   3.735   2.059 -0.6291 -0.4311  0.1899
17388SOL    HW163383   3.828   3.771   2.153 -0.7995 -1.9899  0.8030
17388SOL    HW263384   3.819   3.811   1.995 -1.5509  0.5678  1.4682
17389SOL     OW63385   4.129   2.476   4.549 -0.0456 -1.0268  0.3825
17389SOL    HW163386   4.226   2.486   4.568 -0.3417  1.9583  0.6125
17389SOL    HW263387   4.085   2.424   4.623  1.4368 -2.8957 -0.0214
17390SOL     OW63388   3.761   8.589   2.922 -0.3506 -0.2330 -0.4431
17390SOL    HW163389   3.830   8.522   2.951 -0.8387 -0.2936  0.5982
17390SOL    HW263390   3.688   8.592   2.989  0.3033  2.2867  0.2052
17391SOL     OW63391   6.246   7.395   2.712 -0.0160 -0.1877  0.0626
17391SOL    HW163392   6.190   7.451   2.773 -1.3052 -0.6643 -0.6769
17391SOL    HW263393   6.325   7.449   2.681  0.0339  0.4260  1.2446
17392SOL     OW63394   8.921   0.446   6.615  0.1886  0.2524 -0.0421
17392SOL    HW163395   9.008   0.398   6.630  0.0957 -0.1591 -0.7869
17392SOL    HW263396   8.940   0.539   6.584  0.3702  0.6757  1.3310
17393SOL     OW63397   2.555   4.752   1.666  0.4795  0.2718  0.5996
17393SOL    HW163398   2.504   4.743   1.580  0.4203  1.2906  0.5292
17393SOL    HW263399   2.533   4.674   1.726 -2.1188  1.3136  1.0764
17394SOL     OW63400   7.770   6.604   3.406 -0.3794 -0.0686 -0.3504
17394SOL    HW163401   7.853   6.575   3.453 -0.1363 -1.0398 -1.3525
17394SOL    HW263402   7.717   6.666   3.465  0.5350 -0.2691  0.6834
17395SOL     OW63403   7.829   7.497   2.941  0.1001  0.1393  0.0236
17395SOL    HW163404   7.758   7.488   2.871  2.1252 -1.8124 -1.8262
17395SOL    HW263405   7.910   7.539   2.902  0.6650  0.6051  1.6506
17396SOL     OW63406   1.538   8.179   3.306  0.5214  0.7618  0.2667
17396SOL    HW163407   1.445   8.185   3.268  0.3882  0.6269  0.5681
17396SOL    HW263408   1.561   8.083   3.322  1.8323  0.5583 -2.5414
17397SOL     OW63409   9.973   5.954   2.279 -0.0108 -0.2178  0.1236
17397SOL    HW163410   9.882   5.917   2.296  0.3746 -0.5146  1.5840
17397SOL    HW263411   9.997   6.019   2.351  0.2895  1.0905 -1.1256
17398SOL     OW63412   2.998   4.215   3.857  0.8055 -0.1557 -0.2599
17398SOL    HW163413   2.905   4.182   3.875  0.3265  0.7063 -1.0614
17398SOL    HW263414   3.060   4.184   3.929  0.0369 -1.3466 -0.1005
17399SOL     OW63415   2.637   0.776   3.650  0.4340  1.1664  0.3466
17399SOL    HW163416   2.547   0.775   3.693  1.2316  0.5738  2.0440
17399SOL    HW263417   2.657   0.867   3.615 -1.3951  0.9688 -1.2991
17400SOL     OW63418   1.864   7.370   1.115 -0.1555 -0.2014 -0.1940
17400SOL    HW163419   1.774   7.399   1.081  0.6013 -0.6632 -2.6275
17400SOL    HW263420   1.936   7.418   1.065  0.9946 -0.7779  0.8806
17401SOL     OW63421   2.035   0.277   5.344  0.3512 -0.0464 -0.3750
17401SOL    HW163422   2.049   0.214   5.420 -0.8356 -2.1331 -1.8364
17401SOL    HW263423   2.072   0.236   5.260 -0.4377  1.2213 -1.3536
17402SOL     OW63424   4.709   1.524   4.369 -0.0889  0.4279  0.2459
17402SOL    HW163425   4.764   1.596   4.327 -0.0429  0.2656  0.0266
17402SOL    HW263426   4.721   1.438   4.318  0.0072  0.2172  0.6210
17403SOL     OW63427   5.982   0.974   1.936 -0.3302 -0.6816 -0.0110
17403SOL    HW163428   6.042   0.901   1.970 -1.1702 -1.5548 -0.3980
17403SOL    HW263429   6.014   1.062   1.972 -0.1571 -1.3894  1.6103
17404SOL     OW63430   7.433   0.819   5.574 -0.1348  0.3061 -0.2176
17404SOL    HW163431   7.476   0.761   5.505  2.4768  0.8082  0.9405
17404SOL    HW263432   7.411   0.908   5.533  1.9516  0.8178 -0.3026
17405SOL     OW63433   9.224   3.979   2.388  0.1069 -0.3929 -0.6066
17405SOL    HW163434   9.219   3.947   2.482  0.2513 -0.3578 -0.5865
17405SOL    HW263435   9.151   3.938   2.334  0.4694 -0.9829 -0.6489
17406SOL     OW63436   0.872   1.235   6.237  0.3650  0.3013 -0.0167
17406SOL    HW163437   0.794   1.282   6.278 -0.8561 -1.3101 -0.4000
17406SOL    HW263438   0.895   1.277   6.149  0.0795  0.9165  0.2018
17407SOL     OW63439   3.757   5.267   3.957 -0.4634 -0.3466  0.1069
17407SOL    HW163440   3.829   5.223   4.009 -0.2288 -0.4319 -0.2861
17407SOL    HW263441   3.760   5.235   3.862 -1.7967 -1.3039  0.3702
17408SOL     OW63442   8.106   4.141   1.898 -0.0262  0.2167  0.4002
17408SOL    HW163443   8.013   4.173   1.883 -0.4094 -0.6620  0.8617
17408SOL    HW263444   8.166   4.219   1.914 -0.7717  0.7561  0.6089
17409SOL     OW63445   9.012   9.249   6.637 -0.5913 -0.7363 -0.4425
17409SOL    HW163446   8.919   9.262   6.603 -0.1563  1.5809 -0.7756
17409SOL    HW263447   9.041   9.155   6.618 -2.3522 -1.0765 -1.5547
17410SOL     OW63448   9.392   7.873   0.715 -0.4932 -0.0272 -0.1467
17410SOL    HW163449   9.414   7.953   0.770 -2.3285  1.3168 -1.3344
17410SOL    HW263450   9.325   7.817   0.763  0.5949 -0.7428  0.5660
17411SOL     OW63451   2.331   3.543   0.405 -0.7103 -0.1411  0.1700
17411SOL    HW163452   2.404   3.606   0.379  0.7931 -1.4494  1.1297
17411SOL    HW263453   2.351   3.505   0.495 -2.7999 -0.2151  0.6268
17412SOL     OW63454   9.129   1.804   5.182  0.1966 -0.1610  0.5468
17412SOL    HW163455   9.072   1.792   5.264  1.7230 -1.2535  1.4602
17412SOL    HW263456   9.178   1.719   5.162  1.4444  0.7402 -0.2860
17413SOL     OW63457   0.409   4.732   5.093 -0.7870  0.1226  0.3747
17413SOL    HW163458   0.355   4.648   5.097  0.2015 -0.5834 -0.6664
17413SOL    HW263459   0.506   4.708   5.082 -0.4633  1.3920  0.4116
17414SOL     OW63460   8.127   4.440   1.641  0.5295  0.3626 -0.0797
17414SOL    HW163461   8.046   4.385   1.660 -0.0149  1.4238  0.6379
17414SOL    HW263462   8.187   4.389   1.579  0.1474 -1.1557  0.7788
17415SOL     OW63463   1.939   5.163   3.520  0.0054 -0.3280 -0.6162
17415SOL    HW163464   2.032   5.194   3.499 -0.4796  1.5694 -0.0913
17415SOL    HW263465   1.943   5.088   3.586  1.1504  0.0753 -0.2129
17416SOL     OW63466   2.504   4.294   5.782  0.0871  0.3957 -0.4012
17416SOL    HW163467   2.464   4.363   5.722  1.6682  0.8379 -0.9786
17416SOL    HW263468   2.497   4.204   5.739 -1.2525  0.2942 -0.0041
17417SOL     OW63469   9.606   1.277   4.528 -0.0741 -0.0976  0.4915
17417SOL    HW163470   9.660   1.211   4.475 -0.6108 -0.5835  0.5532
17417SOL    HW263471   9.597   1.246   4.622 -0.3554  0.0449  0.5132
17418SOL     OW63472   8.433   4.505   6.249  0.1528  0.2482 -0.4346
17418SOL    HW163473   8.417   4.445   6.170  0.8238  1.2898 -1.3687
17418SOL    HW263474   8.386   4.467   6.329  1.3597 -2.0766 -0.7596
17419SOL     OW63475   0.143   4.539   6.111 -0.3377 -0.1010  0.5841
17419SOL    HW163476   0.102   4.591   6.185  1.6190  1.0313  0.9033
17419SOL    HW263477   0.128   4.441   6.126 -1.5330  0.2121  1.4825
17420SOL     OW63478   1.505   4.107   0.453 -0.3672 -0.1639 -0.6116
17420SOL    HW163479   1.412   4.113   0.416 -1.2557  1.1445  1.6676
17420SOL    HW263480   1.557   4.188   0.426  0.3310 -1.1934 -2.4055
17421SOL     OW63481   8.789   6.893   3.091 -0.5797  0.2743  0.2909
17421SOL    HW163482   8.731   6.933   3.019 -1.2738 -1.1534  0.0327
17421SOL    HW263483   8.734   6.831   3.147  0.5594 -0.5964  0.4491
17422SOL     OW63484   4.398   3.438   1.570 -0.1210  0.0773 -0.1879
17422SOL    HW163485   4.459   3.359   1.577  0.7894  0.9515  2.2488
17422SOL    HW263486   4.452   3.519   1.548 -0.7824  0.4031 -0.6215
17423SOL     OW63487   2.126   5.965   0.454 -0.1328 -1.0877  0.2994
17423SOL    HW163488   2.069   5.885   0.471 -2.0113 -0.1564 -1.4734
17423SOL    HW263489   2.072   6.048   0.466  1.2504 -0.1393  0.0998
17424SOL     OW63490   0.441   5.100   1.812  0.3608 -0.0284 -0.2977
17424SOL    HW163491   0.507   5.071   1.882 -1.5179  1.2564  2.1181
17424SOL    HW263492   0.376   5.026   1.796 -0.0669  0.1805  0.4272
17425SOL     OW63493   4.739   9.233   5.536  0.5693  0.4145 -0.4884
17425SOL    HW163494   4.753   9.303   5.466 -0.6542 -0.9046 -2.0853
17425SOL    HW263495   4.825   9.185   5.552  0.6342  0.0674 -1.8133
17426SOL     OW63496   3.621   7.935   1.251  0.0085 -0.0372 -0.5992
17426SOL    HW163497   3.575   7.847   1.262 -1.0512  0.7258  1.2364
17426SOL    HW263498   3.607   7.969   1.158  1.0596 -2.1408 -1.5574
17427SOL     OW63499   1.978   8.685   2.425  0.3674  0.8811 -0.2319
17427SOL    HW163500   1.936   8.775   2.440  2.2130  1.5806  0.9522
17427SOL    HW263501   1.972   8.662   2.328 -0.8905  1.8918 -0.4153
17428SOL     OW63502   0.578   1.177   6.145  0.0063  0.2964 -0.5072
17428SOL    HW163503   0.504   1.138   6.090 -0.7299 -0.4301  0.9770
17428SOL    HW263504   0.631   1.241   6.089 -1.1239  0.0625 -1.8691
17429SOL     OW63505   9.453   0.974   2.319  0.2184  0.1135  0.0135
17429SOL    HW163506   9.461   0.883   2.279  1.6136 -0.1866  0.9767
17429SOL    HW263507   9.404   1.033   2.255 -1.4793 -1.5180 -0.2612
17430SOL     OW63508   4.281   0.155   3.881  0.8510 -0.1790 -0.1741
17430SOL    HW163509   4.308   0.155   3.784 -0.6406 -2.2301 -0.6228
17430SOL    HW263510   4.219   0.232   3.897 -0.5377 -1.0191 -1.3559
17431SOL     OW63511   4.674   0.721   0.133 -0.1060 -0.0524  0.3631
17431SOL    HW163512   4.628   0.632   0.134 -1.7926  0.7906  0.4393
17431SOL    HW263513   4.628   0.781   0.067  2.7423 -0.1045 -1.7711
17432SOL     OW63514   2.350   7.873   4.147 -0.1768  0.1359  0.0957
17432SOL    HW163515   2.310   7.928   4.220 -2.7736 -0.9276 -0.4902
17432SOL    HW263516   2.331   7.915   4.058 -0.7218 -0.7971 -0.2387
17433SOL     OW63517   8.563   1.612   4.250 -0.3136 -0.0920  0.2951
17433SOL    HW163518   8.552   1.705   4.215  1.3814  0.4893  1.2365
17433SOL    HW263519   8.506   1.549   4.197  0.5356  1.0749 -2.0704
17434SOL     OW63520   6.249   9.550   5.319 -0.2340  0.1588 -0.0183
17434SOL    HW163521   6.206   9.625   5.369 -0.3127  0.7629 -0.9823
17434SOL    HW263522   6.223   9.554   5.222 -0.3196 -1.1737 -0.0590
17435SOL     OW63523   7.687   1.890   2.368 -0.0560  0.6520  0.1633
17435SOL    HW163524   7.610   1.931   2.320 -1.4036  1.5477  2.9738
17435SOL    HW263525   7.724   1.955   2.435  1.2470 -0.7969  0.8985
17436SOL     OW63526   7.846   4.287   0.906 -0.9480 -0.5836  0.2966
17436SOL    HW163527   7.896   4.335   0.978 -1.5985  1.0329 -0.2897
17436SOL    HW263528   7.863   4.332   0.818 -2.5578 -0.6689 -0.0764
17437SOL     OW63529   2.066   5.665   4.482 -0.5259  0.1757  0.4897
17437SOL    HW163530   2.074   5.760   4.450  2.8456  0.1026  0.8914
17437SOL    HW263531   2.057   5.664   4.582 -1.1145  0.0875  0.4366
17438SOL     OW63532   8.607   3.139   0.156 -0.0859 -0.0539 -0.0612
17438SOL    HW163533   8.619   3.221   0.211 -1.2687  0.8709 -1.1714
17438SOL    HW263534   8.658   3.148   0.071 -1.4074  0.1521 -0.8351
17439SOL     OW63535   0.772   2.091   1.796 -0.5247  0.8041 -0.5298
17439SOL    HW163536   0.835   2.049   1.861  0.0948  2.7489  0.1756
17439SOL    HW263537   0.680   2.093   1.834 -0.7753 -0.8953 -1.0321
17440SOL     OW63538   0.991   1.263   5.893  0.3835 -0.1767  0.3917
17440SOL    HW163539   0.938   1.178   5.899  1.0253 -0.6727 -0.7318
17440SOL    HW263540   0.942   1.329   5.836  1.2817 -0.8973 -1.2550
17441SOL     OW63541   0.980   9.187   1.014  0.1157  0.1710 -0.0408
17441SOL    HW163542   0.893   9.217   1.055 -0.9808  0.0437 -2.1856
17441SOL    HW263543   1.055   9.241   1.052 -0.9605  0.5936  1.5322
17442SOL     OW63544   7.649   1.495   4.054 -0.2647 -0.0644  0.8307
17442SOL    HW163545   7.578   1.425   4.049 -1.7838  1.4912  0.3717
17442SOL    HW263546   7.705   1.491   3.972 -0.8210 -0.2431  0.4595
17443SOL     OW63547   1.230   4.899   3.144 -0.1706 -0.3023 -1.2724
17443SOL    HW163548   1.297   4.828   3.165  1.0778  1.0066 -0.8228
17443SOL    HW263549   1.263   4.955   3.068 -0.5121  0.6659 -0.7139
17444SOL     OW63550   8.581   0.051   2.127 -0.1943  0.4410  0.6842
17444SOL    HW163551   8.554  -0.038   2.091  0.5364  0.6903 -0.5204
17444SOL    HW263552   8.555   0.058   2.223 -1.4242 -0.5669  0.4314
17445SOL     OW63553   3.302   0.846   2.083 -0.3854  0.3809 -0.2498
17445SOL    HW163554   3.272   0.928   2.035  0.8189  1.5689  0.9493
17445SOL    HW263555   3.235   0.773   2.071 -1.3928  1.4869 -1.4780
17446SOL     OW63556   0.761   2.852   3.307 -0.1780  0.3780  0.0758
17446SOL    HW163557   0.727   2.788   3.238 -1.8914  1.8027 -0.4479
17446SOL    HW263558   0.714   2.836   3.394 -0.7851  1.0525 -0.1189
17447SOL     OW63559   1.889   3.055   1.686  0.1570  0.4352  0.4911
17447SOL    HW163560   1.939   3.041   1.771  0.7576  2.6182  0.5291
17447SOL    HW263561   1.794   3.080   1.707  0.2213  0.6615  0.5111
17448SOL     OW63562   7.818   1.150   0.497 -0.2690 -0.2134 -0.3078
17448SOL    HW163563   7.871   1.106   0.425 -0.0703 -1.2041  0.4431
17448SOL    HW263564   7.722   1.155   0.469 -0.3113 -1.2179 -0.3436
17449SOL     OW63565   2.044   5.716   5.836 -0.8580  0.1766 -0.4992
17449SOL    HW163566   1.972   5.649   5.854  1.4764 -2.1177  0.5756
17449SOL    HW263567   2.051   5.779   5.913 -0.2960 -0.9222  0.3587
17450SOL     OW63568   2.103   7.457   6.672 -0.2593  0.6343 -0.0973
17450SOL    HW163569   2.136   7.530   6.613  0.2836  0.5520  0.1025
17450SOL    HW263570   2.123   7.479   6.767 -0.5294  0.4477  0.0053
17451SOL     OW63571   8.731   4.394   3.148  0.0111  0.4517  0.7627
17451SOL    HW163572   8.657   4.390   3.081  0.7584  0.3727 -0.0710
17451SOL    HW263573   8.811   4.436   3.106  0.2374  1.1438  1.8560
17452SOL     OW63574   5.076   5.715   0.847 -0.4638  0.0771  0.2073
17452SOL    HW163575   5.149   5.652   0.875  0.4174  1.6493  1.5541
17452SOL    HW263576   5.023   5.742   0.927 -2.7930 -1.3011 -0.8075
17453SOL     OW63577   0.803   9.959   1.175  0.0309 -0.8364 -0.0006
17453SOL    HW163578   0.836   9.865   1.180  0.3574 -0.8683 -2.4827
17453SOL    HW263579   0.879  10.022   1.190  0.1233 -0.9441 -0.0197
17454SOL     OW63580   8.298   4.658   1.355  0.0596  0.0298  0.1571
17454SOL    HW163581   8.329   4.721   1.426  3.7492 -1.6599  0.1427
17454SOL    HW263582   8.244   4.707   1.287  1.5474  2.8592  0.9576
17455SOL     OW63583   3.470   4.248   6.272  0.3753  0.3811  0.3528
17455SOL    HW163584   3.410   4.281   6.200  2.1734  2.2128 -0.3415
17455SOL    HW263585   3.467   4.148   6.274 -1.5844  0.3879 -0.5885
17456SOL     OW63586   4.883   7.586   1.599 -0.2615  0.0704  0.0619
17456SOL    HW163587   4.881   7.589   1.699  0.2217  0.1162  0.0679
17456SOL    HW263588   4.928   7.502   1.568  0.3183  0.4506 -0.1200
17457SOL     OW63589   7.500   2.593   0.992 -0.3137 -0.0080  0.3490
17457SOL    HW163590   7.440   2.515   0.975  0.0506 -0.1208 -0.4231
17457SOL    HW263591   7.547   2.618   0.907  1.0175 -0.1691  1.0196
17458SOL     OW63592   0.395   6.010   5.657  0.3969 -0.3774 -0.1681
17458SOL    HW163593   0.308   5.978   5.694  0.4120 -0.5488 -0.2833
17458SOL    HW263594   0.441   6.067   5.726 -0.2754  0.5663 -0.4822
17459SOL     OW63595   9.246   7.716   2.998  0.0405 -0.1150 -0.4052
17459SOL    HW163596   9.293   7.679   3.077 -1.4043 -0.2497  0.4082
17459SOL    HW263597   9.246   7.816   3.003 -0.9687 -0.1460  0.3191
17460SOL     OW63598   5.377   1.210   0.730 -0.2506  0.5615 -0.4369
17460SOL    HW163599   5.385   1.115   0.700  1.1929  0.6861 -0.4564
17460SOL    HW263600   5.342   1.213   0.824 -0.8530  0.0420 -0.6407
17461SOL     OW63601   8.075   1.856   2.839 -0.1458  0.2080  0.2171
17461SOL    HW163602   8.058   1.759   2.825 -1.0710  0.4185 -0.1743
17461SOL    HW263603   7.988   1.903   2.857  0.7083  0.3430  4.4155
17462SOL     OW63604   6.143   1.422   5.447  0.1284  0.3409 -0.5417
17462SOL    HW163605   6.050   1.387   5.458  0.5014 -0.9878 -1.4506
17462SOL    HW263606   6.145   1.492   5.375 -0.1844  0.4357 -0.4561
17463SOL     OW63607   1.366   5.946   5.760  0.0931  0.3976 -0.1604
17463SOL    HW163608   1.267   5.935   5.771 -0.2242  2.1357 -1.0592
17463SOL    HW263609   1.407   5.858   5.738 -1.2849 -0.3022 -0.0057
17464SOL     OW63610   3.240   2.926   6.675 -0.0318 -0.7905  0.0939
17464SOL    HW163611   3.233   3.022   6.698  2.5258 -1.0994  2.4943
17464SOL    HW263612   3.151   2.882   6.682 -0.7703  0.9018  1.3884
17465SOL     OW63613   2.004   6.262   0.377 -0.6926  0.0826 -0.3086
17465SOL    HW163614   1.972   6.330   0.311  0.0656 -1.0049 -1.8276
17465SOL    HW263615   2.073   6.303   0.436 -0.6587  0.8010 -0.8448
17466SOL     OW63616   5.149   4.769   1.394  0.4166  0.1420  0.1232
17466SOL    HW163617   5.060   4.723   1.394 -0.7348  2.2645  1.2681
17466SOL    HW263618   5.219   4.706   1.427 -0.6125 -1.5996 -0.8864
17467SOL     OW63619   0.960   3.928   4.521  0.1190 -0.0437  0.6395
17467SOL    HW163620   1.032   3.965   4.463 -0.2545  0.9205  0.7858
17467SOL    HW263621   0.872   3.966   4.493 -0.2097 -0.4656  1.0984
17468SOL     OW63622   9.867   2.481   6.688  0.3119  0.0684  0.4156
17468SOL    HW163623   9.878   2.424   6.607 -0.6836 -0.1262  0.4125
17468SOL    HW263624   9.776   2.466   6.727  0.1075  1.4929  0.5213
17469SOL     OW63625   8.205   3.861   6.161  0.1584  0.0339  0.5647
17469SOL    HW163626   8.138   3.863   6.235  0.9892  1.2179  1.3090
17469SOL    HW263627   8.245   3.770   6.154 -2.0688 -0.9089 -0.4057
17470SOL     OW63628   1.812   9.684   5.864  0.4933 -0.5694  0.4238
17470SOL    HW163629   1.904   9.665   5.829  0.7337 -0.5521  1.0427
17470SOL    HW263630   1.752   9.708   5.788  0.8071 -1.3494 -0.0820
17471SOL     OW63631   7.667   6.690   4.457  0.6790  0.4292 -0.3161
17471SOL    HW163632   7.581   6.649   4.430 -0.5612  2.4353  0.4494
17471SOL    HW263633   7.743   6.638   4.418 -0.9118  0.1009 -3.1151
17472SOL     OW63634   3.414   0.734   6.420 -0.1564  0.2103 -0.6982
17472SOL    HW163635   3.413   0.825   6.460 -0.2577  0.5190 -1.3963
17472SOL    HW263636   3.425   0.666   6.492 -0.8597  0.7336 -0.0949
17473SOL     OW63637   0.068   1.787   4.034  0.3182  0.5538  0.1715
17473SOL    HW163638  -0.028   1.764   4.024  0.1480  0.7554  1.2527
17473SOL    HW263639   0.120   1.706   4.061  0.4375  0.4642 -0.3253
17474SOL     OW63640   7.519   1.276   5.021  0.5889  0.4256 -0.4960
17474SOL    HW163641   7.499   1.373   5.035 -0.0783  0.2207 -0.0275
17474SOL    HW263642   7.458   1.238   4.952 -1.2457 -0.3881  1.5016
17475SOL     OW63643   7.326   1.113   1.997 -0.3871 -0.2068  0.3407
17475SOL    HW163644   7.338   1.036   2.060  1.3583  1.2769  1.9202
17475SOL    HW263645   7.233   1.148   2.004 -1.3061 -2.3848 -0.6779
17476SOL     OW63646   1.389   7.353   3.829  0.2370  0.1361 -0.0364
17476SOL    HW163647   1.337   7.321   3.909  0.5310  0.3067  0.2196
17476SOL    HW263648   1.358   7.445   3.804 -1.0609 -0.5797 -1.1611
17477SOL     OW63649   3.072   8.871   0.501 -0.7502 -0.0639  0.0583
17477SOL    HW163650   2.996   8.822   0.457 -0.6133 -2.1156  1.9996
17477SOL    HW263651   3.051   8.883   0.599  0.2299  1.8115  0.0580
17478SOL     OW63652   7.112   0.370   1.627  0.0989  0.7552  0.3142
17478SOL    HW163653   7.178   0.340   1.557 -0.2740  0.1073  0.2420
17478SOL    HW263654   7.025   0.390   1.583 -0.5642 -1.0357  0.7869
17479SOL     OW63655   4.073   7.165   2.818  0.3738 -0.2625 -0.3936
17479SOL    HW163656   4.079   7.131   2.724 -0.7054 -0.5837 -0.3529
17479SOL    HW263657   4.089   7.264   2.819  0.9346 -0.3501 -0.8452
17480SOL     OW63658   8.934   8.622   4.802  0.4651 -0.7616 -0.3383
17480SOL    HW163659   8.995   8.574   4.739  0.7836 -1.2160  0.3121
17480SOL    HW263660   8.843   8.581   4.797  0.0857  0.2032 -1.6386
17481SOL     OW63661   9.280   1.094   1.120  0.6001 -0.0952  0.5026
17481SOL    HW163662   9.186   1.130   1.122  0.4605 -0.3841 -0.5388
17481SOL    HW263663   9.278   0.996   1.137  0.6405 -0.2204 -0.1831
17482SOL     OW63664   3.313   1.420   4.552  0.2122 -0.0835  0.1321
17482SOL    HW163665   3.216   1.417   4.527  0.2660  1.2809 -0.2549
17482SOL    HW263666   3.340   1.514   4.568  2.0734 -0.1996 -2.1052
17483SOL     OW63667   9.677   2.966   3.895 -0.4634  0.3605 -0.3000
17483SOL    HW163668   9.613   2.909   3.845 -2.0174  1.5762  0.2455
17483SOL    HW263669   9.682   3.056   3.852 -1.6583  1.3493  1.5194
17484SOL     OW63670   8.704   1.845   1.479 -0.4116 -0.3607 -0.5498
17484SOL    HW163671   8.676   1.938   1.503 -0.6083 -0.3709 -0.7445
17484SOL    HW263672   8.623   1.788   1.463 -0.4439 -1.5879  3.3712
17485SOL     OW63673   9.494   1.665   4.577  0.0372 -0.2927  0.1882
17485SOL    HW163674   9.396   1.663   4.598 -0.3182  2.3304 -1.0287
17485SOL    HW263675   9.510   1.619   4.489 -0.6772  2.4894 -1.4726
17486SOL     OW63676   2.308   3.554   1.690 -0.2433 -0.0920 -0.4506
17486SOL    HW163677   2.264   3.624   1.634  0.5435 -0.4543 -1.5394
17486SOL    HW263678   2.338   3.479   1.632  1.1971 -0.1715  0.3823
17487SOL     OW63679   5.347   1.376   2.094 -0.0714  0.4680 -0.5989
17487SOL    HW163680   5.289   1.433   2.152 -0.8429 -0.4207 -0.4899
17487SOL    HW263681   5.407   1.321   2.150  1.7834  2.2902 -0.7322
17488SOL     OW63682   2.066   0.046   5.496  0.4959  0.0654 -0.2419
17488SOL    HW163683   2.131   0.036   5.571  1.6138 -0.7736 -1.2946
17488SOL    HW263684   1.980   0.002   5.521  1.3228 -1.4696  0.0201
17489SOL     OW63685   2.456   5.978   1.161  0.3131 -0.5214  0.2796
17489SOL    HW163686   2.416   5.886   1.153  2.3004 -1.3302 -0.9105
17489SOL    HW263687   2.384   6.044   1.183 -1.4911 -2.0658 -0.7892
17490SOL     OW63688   9.564   7.840   3.887  0.4053 -0.3654 -0.0622
17490SOL    HW163689   9.564   7.937   3.863  0.8745 -0.6937 -1.4337
17490SOL    HW263690   9.646   7.820   3.941 -0.9323  0.4877  2.3900
17491SOL     OW63691   7.398   1.243   3.042 -0.0891  0.0568  0.0838
17491SOL    HW163692   7.373   1.340   3.044 -1.0201 -0.1680 -0.4811
17491SOL    HW263693   7.488   1.232   3.000  0.7366  0.8181  1.5912
17492SOL     OW63694   7.175   1.183   3.463  0.3784 -0.8706 -0.3971
17492SOL    HW163695   7.134   1.211   3.551  2.4736 -1.1711  0.7089
17492SOL    HW263696   7.164   1.085   3.451  0.7921 -0.9583 -0.0794
17493SOL     OW63697   9.666   4.816   0.127  0.1027 -0.0729 -0.1230
17493SOL    HW163698   9.630   4.883   0.062  1.3305 -0.1677 -0.9050
17493SOL    HW263699   9.677   4.858   0.216  0.6376  0.6891 -0.5523
17494SOL     OW63700   9.180   2.384   1.431  0.0192  0.1544 -0.0761
17494SOL    HW163701   9.246   2.315   1.400  0.9934  1.2981 -0.5753
17494SOL    HW263702   9.095   2.374   1.380  0.3176 -0.3790 -0.4742
17495SOL     OW63703   2.871   1.399   3.274 -0.3500 -0.4849 -0.0805
17495SOL    HW163704   2.885   1.411   3.372  0.4697 -2.1264  0.0155
17495SOL    HW263705   2.919   1.471   3.224 -1.4122  0.8155  0.7386
17496SOL     OW63706   8.699   5.564   5.015  0.2598  0.2955  0.7528
17496SOL    HW163707   8.611   5.576   5.061 -0.2917  0.5008 -0.3277
17496SOL    HW263708   8.683   5.553   4.917  1.3775 -0.7048  0.6850
17497SOL     OW63709   0.845   4.888   0.475 -0.3345 -0.5937  0.3710
17497SOL    HW163710   0.847   4.907   0.573  2.1464 -1.1172  0.4580
17497SOL    HW263711   0.848   4.974   0.424  0.4208 -0.3739  0.7722
17498SOL     OW63712   6.837   4.947   1.071  0.2683 -0.3393 -0.3103
17498SOL    HW163713   6.836   4.855   1.033 -0.8076 -0.8127  0.8320
17498SOL    HW263714   6.900   4.950   1.150 -1.2339 -0.6343  0.9205
17499SOL     OW63715   1.030   9.985   2.932 -0.5373  0.3003  0.1162
17499SOL    HW163716   1.072   9.933   3.006  1.8198 -0.6996 -1.8392
17499SOL    HW263717   1.094  10.055   2.900 -1.1637  0.1246 -1.5807
17500SOL     OW63718   2.264   3.749   1.220 -0.2985  0.3033 -0.1911
17500SOL    HW163719   2.193   3.817   1.241  1.0809  1.9734 -0.8284
17500SOL    HW263720   2.238   3.661   1.259 -2.4410  1.0353  0.0859
17501SOL     OW63721   0.638   7.016   6.240  0.5273 -0.8941 -0.9280
17501SOL    HW163722   0.590   7.098   6.274 -0.1176 -1.0252 -1.5099
17501SOL    HW263723   0.580   6.936   6.254  0.3521 -0.9782 -2.1247
17502SOL     OW63724   2.040   1.420   2.350 -0.3996 -0.1191  0.2193
17502SOL    HW163725   1.994   1.502   2.387  1.9295  1.0267  0.6762
17502SOL    HW263726   2.108   1.448   2.282  0.9593 -1.6250  0.9398
17503SOL     OW63727   4.272   3.091   2.911 -0.7204 -0.1755 -0.8445
17503SOL    HW163728   4.271   3.157   2.837  0.4802 -0.5039 -1.1660
17503SOL    HW263729   4.192   3.105   2.970  0.0785  2.2969 -0.2683
17504SOL     OW63730   4.697   4.321   6.272 -0.0823 -0.2152 -0.0709
17504SOL    HW163731   4.743   4.409   6.285 -0.6461  0.1799 -0.7356
17504SOL    HW263732   4.725   4.259   6.345  1.2064  0.1416 -0.2357
17505SOL     OW63733   1.445   1.081   6.022 -0.0718 -0.2364 -0.8637
17505SOL    HW163734   1.398   1.121   5.943 -0.6631 -1.1041 -0.9573
17505SOL    HW263735   1.503   1.150   6.065  0.6538  0.1142 -2.3709
17506SOL     OW63736   6.375   0.843   2.830 -0.2166  0.6833  0.1619
17506SOL    HW163737   6.310   0.918   2.815 -0.4358 -0.0672 -2.9519
17506SOL    HW263738   6.468   0.878   2.826 -0.3496  1.1766  1.1797
17507SOL     OW63739   2.586   0.686   1.680  0.1213  0.2588 -0.1947
17507SOL    HW163740   2.628   0.776   1.690  0.5129  0.1260 -0.6542
17507SOL    HW263741   2.586   0.659   1.583 -0.6952  0.1040 -0.1597
17508SOL     OW63742   3.299   4.275   3.711 -0.0986  0.1534 -0.2614
17508SOL    HW163743   3.230   4.346   3.699 -1.5915 -1.1561  0.4059
17508SOL    HW263744   3.300   4.215   3.632 -0.5679 -0.5365  0.2503
17509SOL     OW63745   5.189   4.324   1.641  0.2205  0.1583 -0.4919
17509SOL    HW163746   5.182   4.230   1.673  0.9876 -0.6471 -2.6032
17509SOL    HW263747   5.122   4.381   1.688 -0.2254 -1.4407  0.8175
17510SOL     OW63748   1.034   7.118   2.891 -0.3849 -0.2860 -0.0954
17510SOL    HW163749   0.938   7.096   2.909 -0.7414 -0.2230 -1.8456
17510SOL    HW263750   1.086   7.033   2.879 -0.8256 -0.3025 -2.1003
17511SOL     OW63751   3.490   6.879   1.201 -0.3586  0.0004  0.3464
17511SOL    HW163752   3.436   6.855   1.281  0.5597  2.0150  1.6057
17511SOL    HW263753   3.511   6.796   1.149 -1.9782 -1.1704  1.5231
17512SOL     OW63754   9.250   7.978   0.502 -0.3601 -0.1975  0.3508
17512SOL    HW163755   9.269   8.075   0.488 -2.6803  0.2130 -0.2278
17512SOL    HW263756   9.299   7.945   0.582  1.0543  1.2574  0.0968
17513SOL     OW63757   5.425   9.845   1.152 -0.1023 -0.0201 -0.1189
17513SOL    HW163758   5.357   9.794   1.098 -0.7515 -1.0572  1.6334
17513SOL    HW263759   5.391   9.937   1.171 -0.4079 -0.0689 -0.4267
17514SOL     OW63760   0.352   9.682   5.480  0.6233  0.4805  0.2240
17514SOL    HW163761   0.421   9.738   5.435  0.8159  1.7040  1.9881
17514SOL    HW263762   0.266   9.733   5.486  0.2451 -0.1396  0.1236
17515SOL     OW63763   1.556   4.349   4.465  0.0340  0.2936 -0.0950
17515SOL    HW163764   1.503   4.266   4.447  0.0547  0.3851 -0.5851
17515SOL    HW263765   1.566   4.361   4.564 -0.6679  0.1567 -0.0046
17516SOL     OW63766   3.815   3.446   1.628  0.0600  0.7884  0.4522
17516SOL    HW163767   3.833   3.500   1.546 -0.0365  1.0750  0.6187
17516SOL    HW263768   3.886   3.377   1.639  0.2646  0.9791  0.3218
17517SOL     OW63769   7.299   9.741   4.147  0.2891 -0.0561 -0.1568
17517SOL    HW163770   7.325   9.765   4.241  1.3839  0.2668 -0.5428
17517SOL    HW263771   7.336   9.808   4.083  1.6088 -1.5945 -1.0462
17518SOL     OW63772   8.364   3.438   5.023  0.1660 -0.2971 -0.8139
17518SOL    HW163773   8.433   3.371   5.048 -0.5593 -0.4675  0.7547
17518SOL    HW263774   8.285   3.392   4.981  0.2694 -0.2829 -1.0213
17519SOL     OW63775   0.104   0.674   1.096 -0.1952 -0.1022 -0.2242
17519SOL    HW163776   0.129   0.737   1.022  0.7497 -0.9369 -0.6263
17519SOL    HW263777   0.072   0.588   1.056 -0.4834 -0.2496  0.3308
17520SOL     OW63778   0.228   6.801   4.433 -0.4160 -0.4824  0.3941
17520SOL    HW163779   0.148   6.754   4.394  0.0227 -0.8052 -0.1240
17520SOL    HW263780   0.307   6.740   4.431  0.0216  0.0794  0.2396
17521SOL     OW63781   3.229   8.690   3.310 -0.1707 -0.5560  0.0437
17521SOL    HW163782   3.279   8.608   3.338 -0.5079 -0.4052  1.1009
17521SOL    HW263783   3.213   8.687   3.211 -1.0106 -2.2295  0.2030
17522SOL     OW63784   2.758   2.169   5.433 -1.1929  0.5173 -0.2240
17522SOL    HW163785   2.835   2.124   5.479 -1.1216  0.8871  0.0178
17522SOL    HW263786   2.768   2.268   5.441 -0.2815  0.6447 -2.4655
17523SOL     OW63787   3.806   3.823   1.545  0.1689  0.4680  0.1570
17523SOL    HW163788   3.742   3.826   1.621  1.6494  2.6473  1.3526
17523SOL    HW263789   3.829   3.727   1.524  0.3129 -0.1437  2.9267
17524SOL     OW63790   0.725   7.219   4.580 -0.1854  0.4106  0.8153
17524SOL    HW163791   0.665   7.291   4.615  0.5481  1.1788  0.4868
17524SOL    HW263792   0.729   7.224   4.481 -2.4035 -1.8822  0.5541
17525SOL     OW63793   0.129   3.922   0.714 -0.2686  0.9163  0.4590
17525SOL    HW163794   0.116   3.993   0.784  0.2925  0.2233  1.2684
17525SOL    HW263795   0.042   3.904   0.669 -0.8997  0.5398  1.7864
17526SOL     OW63796   1.534   2.538   1.582  0.3757 -0.0544 -0.5537
17526SOL    HW163797   1.621   2.492   1.596  0.4875  0.2703 -0.1538
17526SOL    HW263798   1.544   2.636   1.604 -0.4198 -0.2567  0.8000
17527SOL     OW63799   5.698   8.267   3.895  0.3965 -0.2978  0.0601
17527SOL    HW163800   5.687   8.343   3.959 -0.8941 -0.4360  0.0005
17527SOL    HW263801   5.763   8.293   3.824  0.6377  0.4259  0.5441
17528SOL     OW63802   1.601   1.888   5.789  0.3139 -0.1480 -0.1353
17528SOL    HW163803   1.662   1.948   5.737  0.7629 -1.1510 -0.7721
17528SOL    HW263804   1.512   1.883   5.744  0.8981 -1.5021 -1.1461
17529SOL     OW63805   4.142   3.619   4.134 -0.2717  0.5710  0.2136
17529SOL    HW163806   4.191   3.629   4.220 -1.1002 -0.1901  0.7947
17529SOL    HW263807   4.054   3.666   4.140  0.0060  1.1746 -0.4916
17530SOL     OW63808   3.111   9.310   3.576 -0.3561 -0.0546  0.2683
17530SOL    HW163809   3.095   9.402   3.611  1.9176  0.1595  0.8267
17530SOL    HW263810   3.126   9.313   3.478 -0.9782  0.0676  0.1734
17531SOL     OW63811   0.315   8.651   0.518  0.1947 -0.4776  0.3445
17531SOL    HW163812   0.275   8.559   0.511  0.5240 -0.6535  0.7297
17531SOL    HW263813   0.369   8.670   0.436 -0.4942 -0.3275 -0.0774
17532SOL     OW63814   7.585   1.401   0.655  0.3403 -0.3536 -0.3351
17532SOL    HW163815   7.577   1.308   0.691 -0.1039 -0.9682 -1.9975
17532SOL    HW263816   7.529   1.464   0.711  0.8929 -1.0089  0.9804
17533SOL     OW63817   5.289   1.212   3.618 -0.6053 -0.2622  0.0684
17533SOL    HW163818   5.191   1.224   3.634 -0.3230  1.8904  0.3736
17533SOL    HW263819   5.339   1.286   3.663  1.0552 -0.4917 -1.3430
17534SOL     OW63820   1.809   5.034   3.991 -1.0019 -0.0637 -0.6008
17534SOL    HW163821   1.841   5.126   3.967  0.0796 -0.4376 -0.6378
17534SOL    HW263822   1.821   5.018   4.089 -1.8309  0.0832 -0.4770
17535SOL     OW63823   8.026   1.275   5.956 -0.0357  0.2361 -0.0769
17535SOL    HW163824   7.957   1.281   5.885 -1.3307  1.9629  1.2605
17535SOL    HW263825   8.021   1.186   6.001 -1.4063  0.3464  0.0083
17536SOL     OW63826   2.336   6.118   2.879 -0.2598 -0.0145  0.0663
17536SOL    HW163827   2.275   6.196   2.891  0.4681  1.0214 -2.5085
17536SOL    HW263828   2.283   6.033   2.882 -1.6367  0.7970 -0.8467
17537SOL     OW63829   0.268   2.592   3.331  0.4708 -0.0055  0.1917
17537SOL    HW163830   0.205   2.526   3.291  1.1416 -0.4244 -0.1755
17537SOL    HW263831   0.339   2.617   3.264  1.0614 -0.0195  0.7995
17538SOL     OW63832   0.903   1.537   4.258  0.4522 -0.3520 -0.1238
17538SOL    HW163833   0.900   1.588   4.171 -0.7036  0.1763  0.2243
17538SOL    HW263834   0.828   1.472   4.261  0.7793 -0.7113  0.2810
17539SOL     OW63835   0.074   2.198   6.721  0.3702  0.0583 -0.3462
17539SOL    HW163836   0.111   2.290   6.738  2.4703 -0.5033 -1.8241
17539SOL    HW263837  -0.023   2.206   6.696 -0.6478  1.5250  3.5869
17540SOL     OW63838   4.316   9.743   0.361  0.1519 -0.2882  0.4283
17540SOL    HW163839   4.377   9.673   0.398 -1.2133 -1.5219  0.4216
17540SOL    HW263840   4.257   9.777   0.435 -0.8492 -0.9231 -0.0623
17541SOL     OW63841   0.180   6.385   6.133 -0.0353  0.1768 -0.3184
17541SOL    HW163842   0.240   6.422   6.204 -0.3545  0.8338 -0.3864
17541SOL    HW263843   0.104   6.448   6.118 -0.1568 -0.1334 -1.0035
17542SOL     OW63844   9.761   7.989   0.662  0.4855  0.5158 -0.0548
17542SOL    HW163845   9.772   7.954   0.756 -0.3456 -0.8745 -0.4643
17542SOL    HW263846   9.704   8.071   0.664  1.3415  1.1028  0.7710
17543SOL     OW63847   2.442   5.484   3.949  0.2232  0.3302 -0.5450
17543SOL    HW163848   2.374   5.483   4.022 -0.0160  2.7229 -0.7082
17543SOL    HW263849   2.532   5.461   3.987 -0.1639  0.0194  0.1991
17544SOL     OW63850   5.073   3.402   2.813 -0.2523 -0.5127  0.2403
17544SOL    HW163851   5.102   3.306   2.811  0.8700 -0.1712  0.2261
17544SOL    HW263852   5.045   3.427   2.906 -0.9287 -0.9577  0.1641
17545SOL     OW63853   3.884   6.627   0.425  0.0554  0.4138  0.1573
17545SOL    HW163854   3.922   6.573   0.500  1.3568  0.7770 -0.2313
17545SOL    HW263855   3.873   6.570   0.344  0.8636  0.5824 -0.0737
17546SOL     OW63856   1.134   6.068   5.248  0.2408  0.0360  0.5831
17546SOL    HW163857   1.039   6.041   5.233  0.0006 -0.3546  2.6233
17546SOL    HW263858   1.175   6.009   5.317  2.7801 -1.4482 -2.0711
17547SOL     OW63859   2.768   5.897   3.957 -0.5945 -0.7409 -0.2543
17547SOL    HW163860   2.773   5.850   3.869 -0.1269 -2.0319  0.4468
17547SOL    HW263861   2.802   5.991   3.947 -0.0421 -1.0455 -1.3275
17548SOL     OW63862   7.727   0.464   1.836  0.5007  0.4318 -0.3051
17548SOL    HW163863   7.732   0.391   1.903  2.4029  1.0146  0.2210
17548SOL    HW263864   7.757   0.430   1.747  0.1917  0.2451 -0.3366
17549SOL     OW63865   3.915   8.597   0.182  0.4522  0.2014 -0.0369
17549SOL    HW163866   3.921   8.663   0.257  0.4362  1.9402 -1.5233
17549SOL    HW263867   3.820   8.590   0.152  0.2895 -1.3012  0.7922
17550SOL     OW63868   9.965   7.405   4.377  0.1554  0.1617 -0.0465
17550SOL    HW163869   9.877   7.388   4.333 -0.0328 -0.7077  0.6316
17550SOL    HW263870   9.984   7.331   4.442  2.1863 -0.5753 -1.4184
17551SOL     OW63871   8.091   7.488   3.290 -0.4269 -0.3248 -0.3731
17551SOL    HW163872   8.087   7.569   3.230 -1.2993  0.0967  0.2470
17551SOL    HW263873   8.168   7.431   3.262  0.8245  1.2303 -0.1791
17552SOL     OW63874   8.348   0.974   1.156  0.0831  0.0258  0.1465
17552SOL    HW163875   8.291   1.042   1.111 -1.2862 -0.5871  0.9353
17552SOL    HW263876   8.374   0.903   1.090 -1.0196 -0.3031  0.0616
17553SOL     OW63877   3.948   3.105   5.573  0.3579 -0.0906  0.5699
17553SOL    HW163878   3.852   3.102   5.545  0.3505  3.1317  0.0393
17553SOL    HW263879   3.953   3.107   5.673 -0.2573  1.5560  0.5936
17554SOL     OW63880   9.615   2.082   5.155  0.6747  0.1142 -0.1904
17554SOL    HW163881   9.580   2.110   5.244  2.0942  2.0880 -0.2152
17554SOL    HW263882   9.709   2.050   5.164  0.6273 -0.2387 -0.8966
17555SOL     OW63883   4.769   8.497   4.303  0.3710 -0.3050  0.8114
17555SOL    HW163884   4.783   8.596   4.296 -0.4637 -0.1877  0.8060
17555SOL    HW263885   4.675   8.478   4.329 -0.1964 -1.1866 -1.7604
17556SOL     OW63886   3.921   7.820   2.570 -0.1409 -0.2118 -0.1076
17556SOL    HW163887   3.976   7.736   2.570 -2.5131 -1.7908  0.4830
17556SOL    HW263888   3.904   7.848   2.475  1.1489 -0.0321 -0.3024
17557SOL     OW63889   3.166   9.168   3.217  0.2055  0.5622  0.1131
17557SOL    HW163890   3.080   9.184   3.169  0.0166  0.1475  0.3138
17557SOL    HW263891   3.200   9.254   3.255 -0.7541  0.5127  1.1103
17558SOL     OW63892   1.259   0.036   2.384 -0.5591  0.1076  0.4629
17558SOL    HW163893   1.277  -0.058   2.356  0.1717  0.1752  0.6994
17558SOL    HW263894   1.344   0.089   2.379 -0.5334  0.2482  2.3169
17559SOL     OW63895   3.098   4.442   6.509 -0.1738 -0.4415 -0.1444
17559SOL    HW163896   3.016   4.443   6.566 -0.8350  1.1562 -1.1021
17559SOL    HW263897   3.081   4.388   6.426 -0.6804  0.8842 -0.9226
17560SOL     OW63898   9.030   8.322   6.174  0.6175 -0.2453 -0.0644
17560SOL    HW163899   8.947   8.378   6.168  0.7503 -0.2373 -1.9068
17560SOL    HW263900   9.029   8.272   6.261 -1.6678 -0.7705 -0.3440
17561SOL     OW63901   4.501   2.846   4.398  0.2273 -0.0245  0.0007
17561SOL    HW163902   4.416   2.836   4.345  1.3835 -0.1863 -1.8572
17561SOL    HW263903   4.560   2.768   4.380  0.6246 -0.1163  1.6159
17562SOL     OW63904   4.323   8.801   1.916  0.3777  0.6394 -0.4167
17562SOL    HW163905   4.409   8.850   1.898  0.0815  1.2873 -0.0763
17562SOL    HW263906   4.323   8.715   1.865  1.2152  0.6542 -0.4524
17563SOL     OW63907   0.543   0.597   3.172 -0.3845  0.9027  0.4588
17563SOL    HW163908   0.468   0.569   3.112 -0.5288  1.1070  0.5427
17563SOL    HW263909   0.567   0.520   3.232  1.7773 -0.3185 -1.8642
17564SOL     OW63910   4.564   3.839   0.823 -0.1401 -0.6823  0.2549
17564SOL    HW163911   4.657   3.819   0.791 -0.2276 -1.2996  0.3828
17564SOL    HW263912   4.544   3.782   0.903 -0.9355 -1.1672 -0.2850
17565SOL     OW63913   2.312   2.041   4.657 -0.1716 -0.0102  0.2148
17565SOL    HW163914   2.261   1.969   4.704 -0.4739  0.2634  0.3099
17565SOL    HW263915   2.405   2.047   4.695 -0.0360 -0.5685 -0.0193
17566SOL     OW63916   4.513   0.505   3.331 -0.8189  0.0873  0.3680
17566SOL    HW163917   4.539   0.446   3.254  2.6201 -0.0493  1.5223
17566SOL    HW263918   4.520   0.600   3.303 -1.5716  0.0092 -0.0843
17567SOL     OW63919   4.520   7.263   2.761 -0.3956 -0.1607  0.1901
17567SOL    HW163920   4.458   7.285   2.686  1.2244  1.9307 -0.5740
17567SOL    HW263921   4.469   7.254   2.846 -1.8877  0.2180 -0.6594
17568SOL     OW63922   8.239   8.851   6.430  0.3174  0.0853  0.1198
17568SOL    HW163923   8.288   8.881   6.512 -2.8132  3.1008  0.9496
17568SOL    HW263924   8.284   8.888   6.349  0.6178  1.1401  0.7595
17569SOL     OW63925   9.163   9.877   3.206  0.1991 -0.1465 -0.1673
17569SOL    HW163926   9.105   9.958   3.195 -0.0154 -0.3291 -0.4062
17569SOL    HW263927   9.256   9.898   3.177  0.1237 -0.0092 -0.3061
17570SOL     OW63928   5.333   9.444   2.313  0.3331 -0.4658  0.2984
17570SOL    HW163929   5.419   9.393   2.314  1.7785  1.8783 -1.0228
17570SOL    HW263930   5.297   9.447   2.219  0.9017  1.9533  0.1317
17571SOL     OW63931   2.117   9.494   1.626 -0.3654  0.2165 -0.0614
17571SOL    HW163932   2.031   9.444   1.639 -1.3991  2.2444  1.1242
17571SOL    HW263933   2.184   9.462   1.693 -0.3097 -1.0885 -0.7261
17572SOL     OW63934   0.901   0.841   0.284  0.1596  0.2338 -0.3068
17572SOL    HW163935   0.891   0.786   0.202 -0.2608  2.0856 -1.5296
17572SOL    HW263936   0.838   0.809   0.355 -0.5465 -0.4178 -1.2309
17573SOL     OW63937   4.011   8.808   4.103  0.0193  0.2319 -0.8766
17573SOL    HW163938   4.018   8.721   4.054 -0.9466 -1.3959  1.7696
17573SOL    HW263939   3.921   8.816   4.145  1.1648  1.0105  1.5660
17574SOL     OW63940   4.630   4.727   3.726 -0.6304  0.2812  0.1988
17574SOL    HW163941   4.685   4.649   3.697 -0.6257  0.1129  0.6532
17574SOL    HW263942   4.563   4.698   3.794  2.0753  1.3682  3.4934
17575SOL     OW63943   2.051   4.611   4.653  0.4334  0.4344 -0.1364
17575SOL    HW163944   2.097   4.697   4.631 -0.5725  0.7078 -1.2118
17575SOL    HW263945   2.050   4.598   4.752  1.3403  1.2393 -0.0178
17576SOL     OW63946   3.638   4.890   3.314 -0.1682  0.5437 -0.4265
17576SOL    HW163947   3.724   4.911   3.360  0.0943  1.0898 -1.1551
17576SOL    HW263948   3.576   4.968   3.323 -0.5513  0.1929  0.0048
17577SOL     OW63949   0.274   0.627   2.436 -0.7595 -0.0236 -0.1470
17577SOL    HW163950   0.282   0.727   2.433  0.3116 -0.1298 -1.3717
17577SOL    HW263951   0.187   0.599   2.396  0.5078  0.2443 -3.2123
17578SOL     OW63952   5.796   8.823   5.820 -0.2255  0.5867 -0.1555
17578SOL    HW163953   5.735   8.744   5.827 -0.0590  0.5723  1.3896
17578SOL    HW263954   5.800   8.870   5.908  0.7860  1.5015 -0.6693
17579SOL     OW63955   8.829   9.998   3.997  0.1963  0.1881 -0.0404
17579SOL    HW163956   8.813   9.934   3.921  0.1648  2.4686 -2.0145
17579SOL    HW263957   8.799   9.956   4.082 -0.4220 -2.1750 -1.3651
17580SOL     OW63958   7.565   1.515   4.660 -0.4508  0.1302 -0.5092
17580SOL    HW163959   7.577   1.614   4.667 -0.7827  0.0802  0.9215
17580SOL    HW263960   7.549   1.490   4.564 -3.8027  1.9004 -0.5092
17581SOL     OW63961   9.632   6.994   3.649  0.3402  0.4521  0.3119
17581SOL    HW163962   9.684   6.918   3.610 -0.1708  0.4098 -0.3005
17581SOL    HW263963   9.581   7.040   3.576 -2.2061 -0.8534  1.2211
17582SOL     OW63964   8.054   3.459   6.612 -0.2695 -0.2967  0.1447
17582SOL    HW163965   8.028   3.478   6.706  0.2219  1.7441 -0.1217
17582SOL    HW263966   8.058   3.360   6.598  1.4385 -0.6442  2.7769
17583SOL     OW63967   1.084   0.439   5.996 -0.3795  0.0836 -0.1496
17583SOL    HW163968   1.146   0.415   6.071 -1.0175 -0.0939  0.3297
17583SOL    HW263969   1.137   0.459   5.914  0.3522  0.5857  0.4341
17584SOL     OW63970   9.773   6.883   0.315  0.1492  0.1632  0.1443
17584SOL    HW163971   9.848   6.949   0.312  0.3363 -0.0852 -0.8307
17584SOL    HW263972   9.743   6.863   0.222 -0.1468 -0.8621  0.4579
17585SOL     OW63973   1.701   2.032   6.004  0.1937  0.3894 -0.7188
17585SOL    HW163974   1.649   1.989   5.930 -0.3362 -0.2723  0.0341
17585SOL    HW263975   1.639   2.080   6.065  0.4617 -0.4221  0.2010
17586SOL     OW63976   3.354   1.011   2.738 -0.4004  0.2949  0.4111
17586SOL    HW163977   3.271   0.987   2.789  0.1770 -0.1642  1.1561
17586SOL    HW263978   3.432   1.011   2.801  0.0240  1.6216 -0.0981
17587SOL     OW63979   2.214   7.164   0.956  0.7000 -0.2105 -0.2768
17587SOL    HW163980   2.257   7.161   0.866  1.4357 -1.6721  0.0918
17587SOL    HW263981   2.131   7.109   0.954  0.8831 -0.4992  0.0130
17588SOL     OW63982   4.077   1.734   1.383  0.6896 -0.5237 -0.2055
17588SOL    HW163983   4.097   1.779   1.296 -1.9208  0.6114 -0.2629
17588SOL    HW263984   4.093   1.798   1.458  0.3897 -0.6539 -0.0309
17589SOL     OW63985   8.921   3.791   5.992 -0.2287  0.6599 -0.3585
17589SOL    HW163986   8.821   3.795   6.000 -0.2296  1.7963 -0.8523
17589SOL    HW263987   8.957   3.884   5.982  0.7652  0.1584 -1.4903
17590SOL     OW63988   1.335   6.599   6.423  0.2601  0.3151 -0.3738
17590SOL    HW163989   1.406   6.641   6.366 -0.3346  1.2914 -0.4115
17590SOL    HW263990   1.362   6.506   6.447  0.0703 -0.5251 -3.1514
17591SOL     OW63991   0.126   6.893   6.306  0.1633  0.5004  0.5077
17591SOL    HW163992   0.120   6.992   6.310 -0.4957  0.4492  0.8793
17591SOL    HW263993   0.078   6.860   6.225 -2.2591  0.2900  1.9658
17592SOL     OW63994   3.612   2.172   2.422 -0.2399  0.2187 -0.0907
17592SOL    HW163995   3.554   2.242   2.464  0.2407  1.6762 -1.7949
17592SOL    HW263996   3.706   2.185   2.453 -0.3940 -0.5715  0.7091
17593SOL     OW63997   0.466   0.151   0.643  0.0144 -0.8102 -0.6836
17593SOL    HW163998   0.520   0.200   0.711 -2.1331 -0.7016  0.9783
17593SOL    HW263999   0.521   0.139   0.560  1.6469  1.6280 -0.0091
17594SOL     OW64000   6.794   4.381   0.337  0.3559  0.2735  0.1004
17594SOL    HW164001   6.714   4.419   0.292 -1.0426 -0.2773  2.0411
17594SOL    HW264002   6.848   4.454   0.378 -0.3185  0.4841  0.6230
17595SOL     OW64003   3.233   9.233   4.848 -0.0124  0.2060 -0.3472
17595SOL    HW164004   3.204   9.155   4.794 -1.9874  0.0456  0.8711
17595SOL    HW264005   3.259   9.308   4.787  1.3006 -1.1736 -1.5122
17596SOL     OW64006   5.215   5.506   0.954 -0.7645 -0.3462 -0.5200
17596SOL    HW164007   5.237   5.472   0.863 -1.1682 -0.5749 -0.5372
17596SOL    HW264008   5.291   5.489   1.016 -1.0237 -1.4410 -0.4901
17597SOL     OW64009   0.105   5.733   1.876  0.5128  0.4410  0.1140
17597SOL    HW164010   0.116   5.640   1.841 -0.0137  0.6284 -0.5744
17597SOL    HW264011   0.048   5.786   1.812 -2.0187  0.2506  2.1521
17598SOL     OW64012   6.870   2.275   2.392 -0.6991 -0.3296  0.3110
17598SOL    HW164013   6.954   2.243   2.436  1.1130 -1.7068 -3.8359
17598SOL    HW264014   6.828   2.199   2.341 -1.5171  1.5855 -1.9761
17599SOL     OW64015   3.938   5.096   6.589 -0.5222  0.0964 -0.1148
17599SOL    HW164016   3.925   5.019   6.527  1.2258 -0.6178  0.3558
17599SOL    HW264017   3.874   5.169   6.566 -2.2304 -1.4932 -0.5549
17600SOL     OW64018   1.495   5.631   0.034  0.2555 -0.1481  0.2566
17600SOL    HW164019   1.501   5.537  -0.000  1.8189  0.0126  0.0607
17600SOL    HW264020   1.580   5.655   0.081 -0.9002  0.5002  2.0716
17601SOL     OW64021   0.762   4.619   1.482  0.9626  0.8486  0.2174
17601SOL    HW164022   0.779   4.550   1.553 -1.0325 -0.3286 -0.3997
17601SOL    HW264023   0.699   4.688   1.518 -0.8261 -0.2756 -0.6626
17602SOL     OW64024   4.368   4.229   2.330 -0.6073  0.0074 -0.5713
17602SOL    HW164025   4.422   4.263   2.253 -1.1538  3.1250  0.3447
17602SOL    HW264026   4.430   4.203   2.404 -0.2392  1.1054 -0.4841
17603SOL     OW64027   7.963   6.081   5.142  0.3647 -0.0247 -0.5272
17603SOL    HW164028   7.906   6.149   5.097  0.9618  0.7179 -0.1707
17603SOL    HW264029   7.908   6.028   5.206 -0.4733 -1.0184 -2.0128
17604SOL     OW64030   0.427   9.904   4.676 -0.0247  0.2913 -0.0941
17604SOL    HW164031   0.400   9.857   4.760  0.5788 -0.4988 -0.3408
17604SOL    HW264032   0.513   9.866   4.642  0.6753  1.8111 -0.0927
17605SOL     OW64033   6.024   1.581   5.154 -0.1051  0.4358 -0.2572
17605SOL    HW164034   5.953   1.523   5.115  1.0054  1.0901 -3.4729
17605SOL    HW264035   5.998   1.677   5.146  0.9600  0.6653 -1.1478
17606SOL     OW64036   3.442   2.077   2.945 -0.1165  0.0780  0.4115
17606SOL    HW164037   3.444   2.162   2.998  0.1807  0.4149 -0.1412
17606SOL    HW264038   3.367   2.080   2.879 -0.6215 -0.4309  0.9512
17607SOL     OW64039   6.885   0.582   4.465 -0.3018 -0.1435 -0.1247
17607SOL    HW164040   6.966   0.604   4.518  1.0619 -0.1259 -2.1679
17607SOL    HW264041   6.879   0.483   4.451 -1.6627 -0.3296  1.5883
17608SOL     OW64042   9.879   7.902   5.020  0.1015 -0.5128 -0.2153
17608SOL    HW164043   9.947   7.970   5.044  1.1859 -1.2920 -1.0534
17608SOL    HW264044   9.912   7.811   5.045 -0.9143 -0.8354 -0.0030
17609SOL     OW64045   5.628   0.609   4.340  0.0138  0.2249 -0.1817
17609SOL    HW164046   5.673   0.521   4.352 -0.8611  0.0019  1.5557
17609SOL    HW264047   5.698   0.680   4.330  0.7236 -0.5545 -0.9376
17610SOL     OW64048   2.579   1.064   3.008  0.2243 -0.0138  0.2734
17610SOL    HW164049   2.588   1.124   2.929  0.9752 -0.7152 -0.1698
17610SOL    HW264050   2.665   1.061   3.058 -0.9813  2.6057  2.7107
17611SOL     OW64051   3.918   8.408   4.495 -0.2474 -0.7386  0.0524
17611SOL    HW164052   3.996   8.426   4.435 -0.6121 -2.5205 -0.9931
17611SOL    HW264053   3.928   8.461   4.580  2.2659 -1.2198  0.0922
17612SOL     OW64054   2.707   0.836   3.205 -0.3595 -0.5411 -0.4167
17612SOL    HW164055   2.617   0.875   3.183  0.5711  1.8602 -0.1667
17612SOL    HW264056   2.715   0.826   3.304 -0.0045  0.1332 -0.3767
17613SOL     OW64057   0.492   3.116   4.808  0.1764  0.0855 -0.1584
17613SOL    HW164058   0.446   3.193   4.852  0.9671 -1.1852  3.1210
17613SOL    HW264059   0.521   3.051   4.879  2.1875 -1.7551 -2.5917
17614SOL     OW64060   2.168   9.413   3.072 -0.0901  0.3716 -0.3478
17614SOL    HW164061   2.182   9.376   3.164 -0.4902 -0.2428 -0.5336
17614SOL    HW264062   2.244   9.474   3.049 -0.2672  0.9533  0.5996
17615SOL     OW64063   5.231   1.270   3.992  0.1825 -0.1968 -0.4777
17615SOL    HW164064   5.187   1.185   3.966 -1.1164  0.2563  0.1759
17615SOL    HW264065   5.205   1.342   3.927  0.6971 -0.1366 -0.6163
17616SOL     OW64066   8.786   4.883   5.236  0.1457 -0.1969 -0.7897
17616SOL    HW164067   8.755   4.955   5.174 -0.9572  1.1375  1.2417
17616SOL    HW264068   8.738   4.891   5.323  2.3599 -1.3964  0.6100
17617SOL     OW64069   4.995   1.545   0.677 -0.2436  0.1173 -0.0760
17617SOL    HW164070   5.009   1.637   0.714 -0.7152  0.5998 -1.0709
17617SOL    HW264071   4.902   1.537   0.641 -0.1307 -0.6824 -0.2005
17618SOL     OW64072   9.432   6.467   5.719  0.6018  0.3776  0.0138
17618SOL    HW164073   9.412   6.544   5.659  1.3761  0.2929 -0.3667
17618SOL    HW264074   9.530   6.447   5.715  0.4494 -0.4473  0.3235
17619SOL     OW64075   0.671   2.408   3.749  0.0218 -0.1929 -0.1485
17619SOL    HW164076   0.587   2.462   3.752  0.3302  0.2438  1.0529
17619SOL    HW264077   0.647   2.311   3.734 -0.7567 -0.1930  1.0133
17620SOL     OW64078   8.059   5.786   6.059 -0.5209  0.1404  0.3734
17620SOL    HW164079   8.102   5.721   5.996  0.0858 -0.5624  1.4908
17620SOL    HW264080   8.115   5.869   6.064 -0.8408  0.4089 -0.3940
17621SOL     OW64081   2.385   1.440   1.161  0.3898 -0.4072 -0.0516
17621SOL    HW164082   2.345   1.473   1.076  0.6114 -1.0793 -0.4252
17621SOL    HW264083   2.462   1.498   1.187  0.0164  0.0907 -0.0419
17622SOL     OW64084   1.510   9.323   2.974  0.9004 -0.7386 -0.7700
17622SOL    HW164085   1.592   9.269   2.992 -0.1213 -2.1176 -0.1481
17622SOL    HW264086   1.532   9.421   2.984  1.8037 -1.1894  2.3121
17623SOL     OW64087   9.173   9.108   6.065 -0.6102  0.0457  0.0716
17623SOL    HW164088   9.182   9.200   6.103 -1.0052  0.4127 -0.7076
17623SOL    HW264089   9.264   9.067   6.055 -0.3541  0.7543 -0.5379
17624SOL     OW64090   5.021   1.447   1.732 -0.2843 -0.0275  0.0381
17624SOL    HW164091   5.108   1.470   1.777 -0.2197 -2.5010  1.2277
17624SOL    HW264092   5.039   1.396   1.648 -0.5704  0.9165 -0.6161
17625SOL     OW64093   3.090   4.827   0.686 -0.0540  0.3397 -0.0380
17625SOL    HW164094   3.115   4.834   0.783 -0.2426 -1.6074  0.1756
17625SOL    HW264095   3.040   4.909   0.659  0.3256  1.0735  1.4188
17626SOL     OW64096   1.429   2.454   5.618 -0.0552  0.6100  0.6908
17626SOL    HW164097   1.476   2.432   5.704 -0.3154 -0.2337  0.6175
17626SOL    HW264098   1.338   2.413   5.618 -0.1557  0.8250  0.1172
17627SOL     OW64099   3.681   8.566   2.194  0.4314  0.4139  0.2989
17627SOL    HW164100   3.589   8.601   2.179  0.1370  0.5705  2.3558
17627SOL    HW264101   3.708   8.581   2.289  2.3058 -0.2780 -0.0953
17628SOL     OW64102   8.978   1.293   2.508 -0.2654  0.4240 -0.0692
17628SOL    HW164103   9.009   1.388   2.506  1.3163 -0.0859 -0.9950
17628SOL    HW264104   9.055   1.233   2.532 -0.5664 -0.8652 -2.1803
17629SOL     OW64105   4.037   8.342   2.553  0.7512 -0.5487  0.4688
17629SOL    HW164106   4.019   8.304   2.462  2.2607 -0.4392  0.1088
17629SOL    HW264107   3.965   8.407   2.578 -0.1454 -1.2606 -0.2653
17630SOL     OW64108   2.171   1.614   3.757  0.1160 -0.3000 -0.5867
17630SOL    HW164109   2.102   1.592   3.826 -2.1620  1.6616 -2.1934
17630SOL    HW264110   2.186   1.534   3.698 -1.3989 -0.4925 -0.7257
17631SOL     OW64111   2.132   5.038   0.646 -0.5674  0.0716  0.2651
17631SOL    HW164112   2.152   4.975   0.571 -1.2708 -0.2069  0.3135
17631SOL    HW264113   2.218   5.081   0.677 -0.3721  0.7048 -1.1402
17632SOL     OW64114   1.843   0.513   0.756  0.4403 -0.0101  0.5083
17632SOL    HW164115   1.830   0.603   0.713 -3.3382 -1.1533 -0.8442
17632SOL    HW264116   1.822   0.520   0.853 -0.3017  0.4852  0.3177
17633SOL     OW64117   7.741   5.663   6.500 -0.7873 -0.0876  0.2000
17633SOL    HW164118   7.759   5.762   6.501  1.1573 -0.4104 -0.7754
17633SOL    HW264119   7.796   5.619   6.571 -1.3113 -0.5295  0.3313
17634SOL     OW64120   5.193   0.976   3.506  0.1495  0.1781  0.1293
17634SOL    HW164121   5.236   1.065   3.523 -1.1887  0.9955 -0.6695
17634SOL    HW264122   5.161   0.938   3.593 -3.4064  2.6473  0.0276
17635SOL     OW64123   1.140   3.419   0.499 -0.1372 -0.4614 -0.7443
17635SOL    HW164124   1.150   3.490   0.569  0.3194 -1.4140  0.1473
17635SOL    HW264125   1.205   3.345   0.515  0.3401 -0.4547 -2.4779
17636SOL     OW64126   2.206   0.889   6.320  0.0394 -0.1995  0.0084
17636SOL    HW164127   2.296   0.860   6.351 -0.0671 -0.3408  0.1851
17636SOL    HW264128   2.209   0.986   6.295 -0.1572  0.2282  1.5890
17637SOL     OW64129   5.109   4.707   3.537  0.0041  0.0835  0.2454
17637SOL    HW164130   5.163   4.789   3.556 -0.8406  0.1087  2.7378
17637SOL    HW264131   5.021   4.733   3.498  0.2242  0.2949 -0.1073
17638SOL     OW64132   8.074   1.884   5.155  0.0919 -0.4506  0.4003
17638SOL    HW164133   8.103   1.792   5.180  1.2249  0.2239  1.6544
17638SOL    HW264134   8.149   1.948   5.171 -0.8867  0.7797  0.1314
17639SOL     OW64135   8.818   5.517   0.737  0.0207 -0.2858 -0.8831
17639SOL    HW164136   8.848   5.535   0.830  1.8221 -1.3384 -1.2381
17639SOL    HW264137   8.760   5.435   0.736  1.1981 -1.1268 -0.8836
17640SOL     OW64138   4.345   1.966   0.345 -0.2025  0.6400 -0.2679
17640SOL    HW164139   4.310   2.056   0.318 -1.9407 -0.0113 -0.2386
17640SOL    HW264140   4.419   1.939   0.283  1.0417  2.5097  0.3299
17641SOL     OW64141   5.286   4.867   1.065 -0.3139 -0.2091  0.1073
17641SOL    HW164142   5.365   4.806   1.070 -0.0754 -0.0737 -1.7656
17641SOL    HW264143   5.303   4.948   1.120  1.0811  0.0744 -0.7225
17642SOL     OW64144   0.917   4.280   3.325  0.8322  0.3902 -0.3621
17642SOL    HW164145   0.998   4.223   3.335  0.0080 -0.5931  0.7840
17642SOL    HW264146   0.915   4.319   3.233  2.0596 -0.4270 -0.7423
17643SOL     OW64147   6.646   8.522   3.385  0.2625  0.2213 -0.5493
17643SOL    HW164148   6.706   8.594   3.420  0.2306 -0.3454  0.6766
17643SOL    HW264149   6.692   8.475   3.309  0.5465  1.0960 -0.9301
17644SOL     OW64150   4.420   1.671   1.297  0.3172 -0.5916  0.0966
17644SOL    HW164151   4.381   1.691   1.207 -0.5997 -0.3434  0.5466
17644SOL    HW264152   4.380   1.586   1.332  0.8356 -0.8034  0.1764
17645SOL     OW64153   8.437   6.247   4.213 -0.3160 -0.3019  0.2084
17645SOL    HW164154   8.360   6.246   4.148  0.1533  0.3478 -0.3600
17645SOL    HW264155   8.522   6.268   4.164  0.1113 -0.2681  0.9598
17646SOL     OW64156   8.337   1.469   2.317  1.1162 -0.0655  0.0289
17646SOL    HW164157   8.275   1.473   2.396  1.9013  0.0393  0.6443
17646SOL    HW264158   8.293   1.513   2.238  0.1937 -0.4606  0.3113
17647SOL     OW64159   1.858   9.102   3.637 -0.4480 -0.0229  0.8359
17647SOL    HW164160   1.892   9.195   3.651 -0.0424 -0.1139  0.4300
17647SOL    HW264161   1.764   9.106   3.601  0.4904  0.2521 -1.6526
17648SOL     OW64162   5.529   9.364   2.684 -0.3454 -0.4542  0.3260
17648SOL    HW164163   5.560   9.459   2.692 -0.2599 -0.4556  0.0107
17648SOL    HW264164   5.591   9.314   2.625 -0.7992 -0.5225 -0.1020
17649SOL     OW64165   5.007   1.100   5.973 -0.0804 -0.1871  0.1188
17649SOL    HW164166   5.050   1.142   6.054  0.0035  0.1509 -0.1006
17649SOL    HW264167   5.044   1.142   5.890 -1.5336  0.7898 -0.0434
17650SOL     OW64168   5.703   5.239   1.257  0.4548  0.1300  0.1439
17650SOL    HW164169   5.760   5.168   1.216  1.9433  0.3483  1.7913
17650SOL    HW264170   5.717   5.325   1.209 -1.3483 -0.6334 -1.8573
17651SOL     OW64171   2.944   8.667   1.597 -0.2761 -0.1495 -0.0339
17651SOL    HW164172   3.011   8.673   1.671  0.8270  0.1282 -1.0250
17651SOL    HW264173   2.879   8.742   1.605 -0.2501 -0.2073  0.7376
17652SOL     OW64174   3.133   5.394   1.483 -0.3867  0.5469 -0.1114
17652SOL    HW164175   3.152   5.398   1.385  1.1350  1.4357  0.2012
17652SOL    HW264176   3.202   5.447   1.532 -1.4953  0.6281  1.3941
17653SOL     OW64177   2.290   4.020   2.072  0.1570 -0.4414 -0.8845
17653SOL    HW164178   2.331   4.110   2.082  2.1837 -1.0338 -3.4604
17653SOL    HW264179   2.321   3.961   2.147  0.5656  0.3863 -0.3986
17654SOL     OW64180   9.623   1.089   3.574  0.2915  0.2032 -0.2811
17654SOL    HW164181   9.618   1.131   3.665 -0.0180  1.0554 -0.6847
17654SOL    HW264182   9.531   1.072   3.540  0.4142 -2.8208  0.7752
17655SOL     OW64183   1.782   0.442   5.377  0.1581  0.3865  0.3298
17655SOL    HW164184   1.702   0.382   5.389  0.6830 -0.1685  1.0751
17655SOL    HW264185   1.865   0.387   5.378  0.6230  1.0929  0.6782
17656SOL     OW64186   7.193   0.535   3.385  0.3960  0.4510 -0.0137
17656SOL    HW164187   7.096   0.549   3.403  0.1044  1.0968 -2.0081
17656SOL    HW264188   7.240   0.510   3.470 -1.2265  1.6676  1.2481
17657SOL     OW64189   2.775   8.999   0.566 -0.6649 -0.0526  0.2834
17657SOL    HW164190   2.718   9.027   0.643  0.1722 -0.0191  0.8990
17657SOL    HW264191   2.718   8.954   0.497 -1.3761 -0.3626  1.0583
17658SOL     OW64192   3.348   0.098   5.112 -0.4733 -0.0939 -0.1481
17658SOL    HW164193   3.261   0.075   5.068 -0.5444 -0.8901  0.3866
17658SOL    HW264194   3.369   0.029   5.181  0.5389  0.1447 -0.2079
17659SOL     OW64195   4.764   0.303   3.984 -0.1999  0.0684  0.2034
17659SOL    HW164196   4.714   0.292   3.898  2.2687 -0.0400 -1.2718
17659SOL    HW264197   4.781   0.214   4.025 -0.0055 -0.0077 -0.0376
17660SOL     OW64198   3.854   3.951   5.609 -0.3843  0.0548  0.8109
17660SOL    HW164199   3.933   3.893   5.589 -1.1134 -0.7787  0.3014
17660SOL    HW264200   3.825   3.937   5.703 -0.5628 -0.4302  0.6881
17661SOL     OW64201   8.223   0.438   6.585 -0.4770 -0.3884 -1.4195
17661SOL    HW164202   8.202   0.448   6.683 -0.4836  0.4858 -1.5016
17661SOL    HW264203   8.299   0.498   6.561 -1.4063  0.4891 -2.2432
17662SOL     OW64204   1.978   8.637   5.986  0.3284 -0.3650 -0.0376
17662SOL    HW164205   1.956   8.540   5.994 -1.2033  0.0718  1.7392
17662SOL    HW264206   1.980   8.678   6.078  1.8764  1.0909 -0.6957
17663SOL     OW64207   8.623   8.856   0.386 -0.0227  0.4256 -0.1389
17663SOL    HW164208   8.603   8.770   0.339 -0.3520 -0.0117  0.7926
17663SOL    HW264209   8.573   8.931   0.342 -0.4657 -0.0099 -0.3776
17664SOL     OW64210   5.494   0.276   1.349 -0.0958  0.4326  0.6247
17664SOL    HW164211   5.572   0.332   1.323  0.3671 -0.2572  0.5258
17664SOL    HW264212   5.522   0.211   1.420 -0.3801 -0.3695  0.0018
17665SOL     OW64213   3.976   7.918   6.024  0.2202  0.2093  0.3230
17665SOL    HW164214   3.895   7.861   6.036 -0.9681  1.4577 -1.5893
17665SOL    HW264215   4.047   7.867   5.976  0.6765 -0.9670  2.2120
17666SOL     OW64216   0.170   2.858   2.648  0.1495  0.2005  0.5194
17666SOL    HW164217   0.171   2.868   2.548 -1.0896 -0.7076  0.3991
17666SOL    HW264218   0.242   2.794   2.675 -0.0925 -0.2503  0.1160
17667SOL     OW64219   9.890   3.513   4.938 -0.2457  0.2080  0.2224
17667SOL    HW164220   9.862   3.602   4.974  0.0678  0.8448 -1.0784
17667SOL    HW264221   9.942   3.463   5.008  0.7806  1.6316  0.5005
17668SOL     OW64222   7.791   0.023   3.205 -0.6719 -0.3484 -0.3953
17668SOL    HW164223   7.779   0.016   3.304 -0.7061 -0.5533 -0.4133
17668SOL    HW264224   7.820  -0.065   3.169  0.7429  0.1102 -0.3776
17669SOL     OW64225   3.427   9.379   0.564 -0.2876  0.1622  0.4804
17669SOL    HW164226   3.396   9.303   0.507  1.2445  0.5411 -0.9287
17669SOL    HW264227   3.360   9.398   0.635 -1.5726 -1.2714 -0.3238
17670SOL     OW64228   1.863   6.383   2.804 -0.4496 -0.1207  0.3995
17670SOL    HW164229   1.848   6.406   2.708  0.1939  0.1187  0.3530
17670SOL    HW264230   1.907   6.293   2.810 -1.0071 -0.3926  0.4976
17671SOL     OW64231   3.783   1.682   6.486 -0.1219 -0.7705  0.0092
17671SOL    HW164232   3.871   1.685   6.439  0.1927 -0.6045  0.5980
17671SOL    HW264233   3.729   1.763   6.463 -0.5104 -1.3371 -1.0954
17672SOL     OW64234   1.033   7.210   1.688  0.0129  0.1644 -0.3640
17672SOL    HW164235   1.127   7.217   1.655  0.5770 -1.4201  0.8554
17672SOL    HW264236   0.971   7.200   1.611  0.9612  0.0874 -1.1175
17673SOL     OW64237   1.391   0.825   5.319 -0.3039 -0.5339 -0.2568
17673SOL    HW164238   1.352   0.896   5.378  1.4773  0.0652  0.2363
17673SOL    HW264239   1.419   0.747   5.375 -0.6380 -0.8918 -0.5864
17674SOL     OW64240   2.553   7.987   2.285  0.1920  0.4203  0.1483
17674SOL    HW164241   2.606   7.989   2.200  1.2884  0.0752  0.8103
17674SOL    HW264242   2.458   8.009   2.265  0.5448  0.8913 -1.0933
17675SOL     OW64243   6.829   0.320   1.600  0.1846  0.4704  0.8225
17675SOL    HW164244   6.774   0.241   1.629  1.2336 -1.2404 -1.6824
17675SOL    HW264245   6.797   0.351   1.511  2.5326  0.1829 -0.1363
17676SOL     OW64246   2.998   0.377   3.762 -0.2040 -0.3491 -0.3525
17676SOL    HW164247   3.023   0.291   3.807 -2.6946 -0.9203 -0.0025
17676SOL    HW264248   2.901   0.375   3.737 -0.0060  1.8917 -1.4354
17677SOL     OW64249   2.836   9.535   1.413 -0.1356 -0.3313  0.3872
17677SOL    HW164250   2.847   9.633   1.428  1.0981 -0.5176  0.8028
17677SOL    HW264251   2.831   9.488   1.501 -1.0249 -0.6206  0.1917
17678SOL     OW64252   0.642   0.175   6.049 -0.2228  0.4096 -0.3651
17678SOL    HW164253   0.715   0.226   6.095  0.8220 -0.7848 -0.6732
17678SOL    HW264254   0.679   0.131   5.967 -0.8754 -1.6527  0.4299
17679SOL     OW64255   7.922   5.188   5.662  0.4954 -0.2053  0.3675
17679SOL    HW164256   7.822   5.177   5.664  0.6444 -1.6478  2.9071
17679SOL    HW264257   7.952   5.230   5.748  2.2722 -1.8403  0.5662
17680SOL     OW64258   1.803   4.732   6.484  0.9352  0.4790 -0.5369
17680SOL    HW164259   1.808   4.809   6.548  0.4755  1.3624 -1.5624
17680SOL    HW264260   1.752   4.657   6.526  0.2377  1.2286 -0.0488
17681SOL     OW64261   4.483   1.840   1.496  0.2222 -0.2656 -0.6256
17681SOL    HW164262   4.390   1.867   1.523  0.5234 -1.6980  1.9646
17681SOL    HW264263   4.479   1.782   1.416 -1.0052  0.9166 -1.4422
17682SOL     OW64264   8.896   1.857   5.033  0.1508  0.1197  0.5703
17682SOL    HW164265   8.992   1.853   5.063  0.2285  2.5568  0.6952
17682SOL    HW264266   8.880   1.942   4.983 -1.7010 -0.7573 -0.3651
17683SOL     OW64267   5.895   1.071   5.384  0.0028 -0.6898  0.1157
17683SOL    HW164268   5.803   1.053   5.351 -0.1610  0.4913 -0.0932
17683SOL    HW264269   5.957   0.999   5.353 -0.9584 -1.7703  0.7224
17684SOL     OW64270   7.616   4.856   1.253 -0.5592  0.7489 -0.2735
17684SOL    HW164271   7.705   4.901   1.251  0.0114 -0.3673 -0.1815
17684SOL    HW264272   7.619   4.773   1.198 -1.7036  0.9927 -0.7257
17685SOL     OW64273   9.233   6.194   6.720 -0.4037  0.3643 -0.2592
17685SOL    HW164274   9.148   6.240   6.747  1.2885  2.7417  1.2262
17685SOL    HW264275   9.272   6.240   6.640  0.1473  0.0941 -0.1505
17686SOL     OW64276   1.229   6.103   3.033  0.5182 -0.3297  0.2701
17686SOL    HW164277   1.195   6.189   3.072 -1.2565 -0.9727  0.1876
17686SOL    HW264278   1.201   6.027   3.092  1.9588 -0.8747  0.2671
17687SOL     OW64279   5.079   3.842   4.302 -0.1860  0.3709 -0.2889
17687SOL    HW164280   5.106   3.915   4.365 -0.0737  1.7131 -1.8654
17687SOL    HW264281   5.112   3.755   4.337 -1.6082  0.8418  2.4070
17688SOL     OW64282   3.702   9.040   2.020 -0.1651 -0.2452  0.4416
17688SOL    HW164283   3.770   9.103   2.058  2.0000 -3.8550  2.7775
17688SOL    HW264284   3.743   8.988   1.945 -1.6906  0.4185 -0.9004
17689SOL     OW64285   4.012   7.494   2.288  0.5327  0.5716  0.0782
17689SOL    HW164286   4.051   7.510   2.198 -0.1504 -0.7327 -0.4573
17689SOL    HW264287   4.060   7.417   2.332  0.0511  0.4042  0.3181
17690SOL     OW64288   9.186   9.579   1.434  0.2130  0.5223 -0.5152
17690SOL    HW164289   9.187   9.596   1.335  0.4131  0.1475 -0.5788
17690SOL    HW264290   9.275   9.605   1.473  1.7665 -3.4394 -1.1460
17691SOL     OW64291   9.096   1.802   3.449  0.1533 -0.0697 -0.1754
17691SOL    HW164292   9.181   1.800   3.501 -1.2948  1.9279  2.4284
17691SOL    HW264293   9.115   1.825   3.354  2.5281  0.1073  0.3201
17692SOL     OW64294   9.186   0.335   1.310 -0.2396  0.2885  0.0137
17692SOL    HW164295   9.106   0.374   1.355  0.1368  1.6382 -0.4591
17692SOL    HW264296   9.264   0.339   1.372  0.2366  1.9858 -0.6750
17693SOL     OW64297   7.641   1.571   2.855  0.2373  0.6042 -0.8149
17693SOL    HW164298   7.674   1.607   2.768  2.3821  2.6577  0.8029
17693SOL    HW264299   7.717   1.531   2.906 -0.9919 -0.5312  0.1804
17694SOL     OW64300   0.919   6.312   1.031  0.1078 -0.6994 -0.2188
17694SOL    HW164301   0.881   6.370   1.103 -3.3670 -2.0373 -0.8450
17694SOL    HW264302   0.930   6.219   1.066 -1.4650 -1.3212 -1.3187
17695SOL     OW64303   9.925   2.903   5.978 -0.0675 -0.2055  0.4836
17695SOL    HW164304   9.866   2.860   6.047 -0.6792 -0.7181 -0.3412
17695SOL    HW264305   9.953   2.834   5.912 -0.9886  0.6357 -0.8119
17696SOL     OW64306   3.087   5.785   1.089  0.2848  0.2457  0.2827
17696SOL    HW164307   3.176   5.830   1.090  0.0087  0.8098  0.1714
17696SOL    HW264308   3.058   5.773   0.994 -0.6303  1.8491  0.3337
17697SOL     OW64309   4.886   0.965   4.246  0.2079 -0.3766 -0.1938
17697SOL    HW164310   4.890   0.869   4.276 -0.7809 -0.5821 -0.7019
17697SOL    HW264311   4.977   1.005   4.253  0.1161 -0.5473  2.6088
17698SOL     OW64312   6.907   9.004   5.211  0.0691 -0.5213 -0.3043
17698SOL    HW164313   6.926   9.010   5.113  0.3317  0.4681 -0.2006
17698SOL    HW264314   6.816   8.965   5.225 -0.8588  1.3283 -1.0160
17699SOL     OW64315   4.702   1.301   4.198  0.1078 -0.8004  0.4600
17699SOL    HW164316   4.642   1.344   4.130  0.1965 -0.9050  0.3167
17699SOL    HW264317   4.683   1.203   4.202  2.6646 -1.4625 -2.0889
17700SOL     OW64318   7.107   1.082   1.321 -0.1586  0.0781  0.6677
17700SOL    HW164319   7.068   1.079   1.412 -1.2573 -2.3773  0.1412
17700SOL    HW264320   7.069   1.160   1.270 -0.5933  0.6150  1.8114
17701SOL     OW64321   8.945   6.007   3.989  0.3970  0.0669  0.1738
17701SOL    HW164322   8.915   5.930   4.045 -0.0942  0.8269  0.9649
17701SOL    HW264323   8.968   5.975   3.897 -1.0058 -0.8238  0.1277
17702SOL     OW64324   7.557   2.846   2.008 -0.4789 -0.6079 -0.1305
17702SOL    HW164325   7.630   2.914   1.997  0.8487 -1.7985  1.0482
17702SOL    HW264326   7.584   2.760   1.963 -1.5354 -0.7862 -0.4342
17703SOL     OW64327   3.873   1.508   4.180 -0.1307  0.1393  0.8500
17703SOL    HW164328   3.784   1.553   4.185 -0.2481 -0.1526  1.4716
17703SOL    HW264329   3.941   1.563   4.229  0.0630  0.4439  0.2335
17704SOL     OW64330   2.793   6.360   2.223  0.6850  0.2819 -0.1976
17704SOL    HW164331   2.748   6.357   2.134  1.7247 -0.8901 -0.6972
17704SOL    HW264332   2.806   6.267   2.257  1.3328  0.6726  0.6483
17705SOL     OW64333   8.434   3.712   3.697  0.0155  0.3479  0.5022
17705SOL    HW164334   8.482   3.759   3.623  0.1214  0.7161  0.7992
17705SOL    HW264335   8.479   3.625   3.716  0.1966  0.4095  0.3586
17706SOL     OW64336   0.770   1.394   2.581  0.1526 -0.7463  0.2549
17706SOL    HW164337   0.735   1.329   2.514  0.2781 -0.3141 -0.2387
17706SOL    HW264338   0.736   1.371   2.672  0.9827 -2.0721  0.2337
17707SOL     OW64339   6.106   9.770   3.696 -0.6851  0.1914 -0.2042
17707SOL    HW164340   6.131   9.866   3.700  1.2288 -0.2847  0.1710
17707SOL    HW264341   6.014   9.760   3.660 -1.5732  2.2439  1.4123
17708SOL     OW64342   9.270   7.538   1.485  0.0460  0.5031 -0.5884
17708SOL    HW164343   9.205   7.463   1.498  0.5602 -0.4109 -3.0831
17708SOL    HW264344   9.241   7.594   1.407  1.0518  1.3980 -0.3303
17709SOL     OW64345   5.208   2.763   3.966  0.1841 -0.3683 -0.3725
17709SOL    HW164346   5.135   2.831   3.971 -0.2297 -0.7626 -0.8912
17709SOL    HW264347   5.219   2.718   4.054 -1.0334 -1.1545 -0.6044
17710SOL     OW64348   0.582   6.100   6.157  0.5715  0.3815  0.1506
17710SOL    HW164349   0.572   6.199   6.165 -1.9706  0.0409  1.8992
17710SOL    HW264350   0.678   6.075   6.167  1.2456  2.6580 -0.3412
17711SOL     OW64351   2.419   9.258   0.950 -0.2553  0.4797 -0.3235
17711SOL    HW164352   2.351   9.206   1.003 -0.0874  0.7110  0.1236
17711SOL    HW264353   2.386   9.270   0.856 -0.4142 -0.2063 -0.3559
17712SOL     OW64354   1.776   2.882   1.224 -0.1067  0.4237 -0.2770
17712SOL    HW164355   1.854   2.943   1.208  0.3926 -0.1704 -0.0946
17712SOL    HW264356   1.708   2.896   1.152 -1.2614  3.2288  1.2829
17713SOL     OW64357   4.984   3.772   3.834 -0.2061  0.8900  0.4109
17713SOL    HW164358   4.987   3.673   3.845  0.2729  1.0455  1.7712
17713SOL    HW264359   4.957   3.795   3.740 -0.8765 -0.5167  0.2556
17714SOL     OW64360   8.941   0.289   5.450  0.2106  0.1284  0.6033
17714SOL    HW164361   8.926   0.203   5.498  0.3599 -0.0763  0.2869
17714SOL    HW264362   8.871   0.301   5.380  1.6976 -0.9933 -1.1074
17715SOL     OW64363   3.908   9.122   4.608 -0.0019  0.0862 -0.1668
17715SOL    HW164364   3.912   9.125   4.508  1.2400  2.1042 -0.1002
17715SOL    HW264365   4.000   9.126   4.645 -0.5034  0.6626  1.0635
17716SOL     OW64366   9.017   4.730   5.249 -0.1206  0.8163 -0.1635
17716SOL    HW164367   8.934   4.786   5.250  0.5360  1.8173 -0.2806
17716SOL    HW264368   9.078   4.761   5.323  0.8498  1.1994 -1.1086
17717SOL     OW64369   9.298   1.914   6.574  0.2729 -0.0322 -0.0068
17717SOL    HW164370   9.345   2.001   6.587  1.6378 -0.5823 -1.1766
17717SOL    HW264371   9.206   1.931   6.540  0.4128  0.9572  0.0841
17718SOL     OW64372   2.007   3.574   3.316 -0.1893  0.5127  0.3616
17718SOL    HW164373   2.092   3.521   3.308 -0.0682  0.6435  0.7783
17718SOL    HW264374   1.937   3.518   3.360  0.1668  0.9474  1.5133
17719SOL     OW64375   5.022   1.271   5.345  1.0507 -0.9001  0.6542
17719SOL    HW164376   4.977   1.304   5.427  0.6938 -1.1357  0.5528
17719SOL    HW264377   4.955   1.230   5.283  1.3614 -1.0150  0.3873
17720SOL     OW64378   1.604   2.893   2.821 -0.0449  0.0246 -0.1062
17720SOL    HW164379   1.584   2.826   2.892 -0.8745 -1.1547 -1.4346
17720SOL    HW264380   1.642   2.847   2.741 -0.5706  1.1501 -1.0176
17721SOL     OW64381   9.151   7.210   6.112  0.5629  0.0963  1.1005
17721SOL    HW164382   9.197   7.245   6.193  1.2040 -4.1695  2.6724
17721SOL    HW264383   9.219   7.172   6.049 -0.4159 -2.8717  1.7625
17722SOL     OW64384   8.553   6.445   1.577 -0.0634  0.4100  0.0042
17722SOL    HW164385   8.618   6.496   1.520 -0.4257  0.0586 -0.7310
17722SOL    HW264386   8.598   6.418   1.662  0.3788  1.2385  0.0426
17723SOL     OW64387   9.038   1.090   0.303 -0.9193  0.4224  0.3650
17723SOL    HW164388   9.115   1.142   0.267  0.1678 -1.1518  0.3352
17723SOL    HW264389   9.037   1.098   0.403 -0.6916  0.4389  0.3673
17724SOL     OW64390   3.734   0.384   0.194  0.0656  0.0994  0.0424
17724SOL    HW164391   3.794   0.314   0.234 -0.4045 -1.0102 -1.1627
17724SOL    HW264392   3.638   0.357   0.209 -0.1171  0.5655 -0.3015
17725SOL     OW64393   7.452   9.035   3.756  0.2945 -0.1614 -0.2380
17725SOL    HW164394   7.399   8.970   3.701  0.5473  0.9404 -1.8250
17725SOL    HW264395   7.473   8.994   3.845 -0.8858 -1.6425 -0.6195
17726SOL     OW64396   3.218   3.395   1.609  0.5518  0.6240 -0.1880
17726SOL    HW164397   3.311   3.360   1.602  0.5757  0.4676  0.9507
17726SOL    HW264398   3.180   3.373   1.698 -0.1530  1.7458 -0.1954
17727SOL     OW64399   3.045   0.538   6.578 -0.0365 -0.1776  0.2232
17727SOL    HW164400   2.952   0.511   6.549 -1.4233  3.6403  0.9033
17727SOL    HW264401   3.091   0.585   6.503  0.1141  0.8375  0.9459
17728SOL     OW64402   4.790   9.871   0.304  0.1743 -0.3791  1.4030
17728SOL    HW164403   4.753   9.951   0.257  1.4576  0.2069  1.3586
17728SOL    HW264404   4.818   9.896   0.396  1.9605 -0.4052  0.8845
17729SOL     OW64405   9.484   4.029   1.699 -0.0222 -0.6210  0.0044
17729SOL    HW164406   9.547   4.024   1.777 -0.1599 -0.2866  0.1346
17729SOL    HW264407   9.397   3.986   1.724  0.0960 -0.9333 -0.1203
17730SOL     OW64408   9.988   2.516   5.736 -0.1953 -0.7978  0.4633
17730SOL    HW164409   9.982   2.495   5.638  1.6783 -0.9298  0.3534
17730SOL    HW264410  10.001   2.614   5.748 -0.0925 -0.8217  0.5504
17731SOL     OW64411   8.563   0.072   2.732 -0.0787 -0.1305 -0.1774
17731SOL    HW164412   8.508   0.025   2.801  0.8600 -1.4227 -0.2783
17731SOL    HW264413   8.594   0.005   2.664  0.7083  0.7694 -0.7103
17732SOL     OW64414   2.979   2.698   3.830  0.2695 -0.1346 -0.4875
17732SOL    HW164415   2.970   2.788   3.873 -1.3612 -0.9851  1.0536
17732SOL    HW264416   3.025   2.635   3.893 -2.3175 -1.4474  0.1749
17733SOL     OW64417   1.040   8.543   0.955  0.5591 -0.2331 -0.3822
17733SOL    HW164418   1.014   8.455   0.916 -1.1426 -0.1212  0.4822
17733SOL    HW264419   1.013   8.547   1.051  0.0414  1.4636 -0.5752
17734SOL     OW64420   2.301   9.121   0.478 -0.3486  0.9489  0.2486
17734SOL    HW164421   2.252   9.072   0.550 -1.3737  2.7637  0.8370
17734SOL    HW264422   2.367   9.184   0.520 -0.3563  1.4097 -0.4111
17735SOL     OW64423   2.955   9.970   6.585 -0.1273  0.1138  0.5801
17735SOL    HW164424   2.932   9.890   6.641 -0.1494  0.1035  0.5561
17735SOL    HW264425   2.874  10.026   6.572 -0.7331 -1.2395 -1.6508
17736SOL     OW64426   3.861   2.138   5.180 -0.3966 -0.6120 -0.2470
17736SOL    HW164427   3.884   2.231   5.206  0.5480 -0.1717 -2.5292
17736SOL    HW264428   3.892   2.075   5.252  0.9648  0.6339  0.2876
17737SOL     OW64429   1.076   7.628   0.757 -0.2795  0.2975  0.0482
17737SOL    HW164430   1.117   7.574   0.684 -1.9080 -1.5042  0.4467
17737SOL    HW264431   1.000   7.681   0.720  0.2464  1.0565  0.0216
17738SOL     OW64432   9.701   0.097   3.571  0.0889  0.3715 -0.1888
17738SOL    HW164433   9.711   0.180   3.626  1.5709  0.2986 -0.3344
17738SOL    HW264434   9.720   0.118   3.475  2.5985 -0.5357  0.0562
17739SOL     OW64435   5.012   8.599   1.006  0.2790 -0.1575 -0.9858
17739SOL    HW164436   4.914   8.584   0.994  0.1254  0.6837 -0.8592
17739SOL    HW264437   5.034   8.694   0.983  1.2706 -0.6658 -2.1998
17740SOL     OW64438   1.177   0.849   6.040 -0.2429 -0.1258 -0.3464
17740SOL    HW164439   1.234   0.810   6.112  1.2485 -2.6543 -2.8040
17740SOL    HW264440   1.130   0.930   6.075  1.8261 -0.2393  2.9030
17741SOL     OW64441   3.767   1.548   4.804 -0.4144 -0.7711  0.2155
17741SOL    HW164442   3.724   1.535   4.894  0.4252 -1.9885  0.4488
17741SOL    HW264443   3.829   1.627   4.808 -0.1292 -1.0210  0.7980
17742SOL     OW64444   9.162   4.851   5.453 -0.5966 -0.5481  0.0568
17742SOL    HW164445   9.217   4.774   5.487  1.6945  1.0911  0.1559
17742SOL    HW264446   9.101   4.883   5.526 -0.7024 -1.5003  0.3925
17743SOL     OW64447   8.395   0.963   0.486  0.0290  0.5708  0.5949
17743SOL    HW164448   8.326   0.897   0.456 -0.2130  0.4556  1.3958
17743SOL    HW264449   8.381   1.050   0.438 -0.9977  0.7085  1.1431
17744SOL     OW64450   2.083   7.206   2.029 -0.2523  0.1317  0.6331
17744SOL    HW164451   2.024   7.223   1.950 -0.8440 -0.5188  0.9342
17744SOL    HW264452   2.137   7.124   2.014  1.1045  1.1006  0.0638
17745SOL     OW64453   7.855   7.997   4.167 -0.3832  0.2449 -0.5549
17745SOL    HW164454   7.766   8.021   4.129 -0.6336 -1.2144 -0.9346
17745SOL    HW264455   7.846   7.915   4.223  0.4425  0.9861  0.6833
17746SOL     OW64456   6.230   9.335   3.225  0.3872 -0.2941  0.2855
17746SOL    HW164457   6.275   9.423   3.241  1.3526 -0.8592  0.7329
17746SOL    HW264458   6.284   9.282   3.160 -1.2665  0.2560 -1.5681
17747SOL     OW64459   4.206   1.014   4.688 -0.0604 -0.2530 -0.4163
17747SOL    HW164460   4.289   0.983   4.736 -0.6438 -0.1394  0.6714
17747SOL    HW264461   4.217   0.997   4.590  1.2070 -0.3546 -0.2755
17748SOL     OW64462   1.788   4.674   0.862 -0.1365  0.2710  0.8270
17748SOL    HW164463   1.754   4.595   0.811 -1.8735  0.7202  1.2500
17748SOL    HW264464   1.824   4.742   0.798  0.6300 -0.5162  0.4140
17749SOL     OW64465   7.702   5.021   0.151 -0.0934 -0.4667 -0.5043
17749SOL    HW164466   7.629   5.088   0.167  0.7349  0.1233  0.9249
17749SOL    HW264467   7.791   5.062   0.172  0.4770 -1.8313 -0.1675
17750SOL     OW64468   5.547   9.361   2.142 -0.3770  0.4551 -0.3184
17750SOL    HW164469   5.596   9.419   2.077 -0.7105  0.4319 -0.5923
17750SOL    HW264470   5.472   9.315   2.095 -0.5609  0.3643  0.0646
17751SOL     OW64471   3.570   2.016   4.582  0.0973 -0.3509 -0.0310
17751SOL    HW164472   3.591   1.958   4.661  1.8574 -0.8431 -0.8513
17751SOL    HW264473   3.497   1.973   4.528 -0.2756 -0.5983  0.6561
17752SOL     OW64474   8.005   0.462   6.289 -0.2259  0.5300  0.0962
17752SOL    HW164475   8.057   0.451   6.374 -0.1823 -0.8137 -0.0976
17752SOL    HW264476   7.908   0.459   6.309 -0.2166  0.4654  0.1318
17753SOL     OW64477   2.374   0.437   3.688 -0.3596 -0.6032 -0.8345
17753SOL    HW164478   2.456   0.478   3.648 -0.3218 -0.0655 -0.2277
17753SOL    HW264479   2.343   0.361   3.631  1.0220 -1.3205 -0.6437
17754SOL     OW64480   1.794   3.445   5.288 -0.1015  0.0552  0.5522
17754SOL    HW164481   1.812   3.448   5.190 -2.4427 -0.0120  0.0991
17754SOL    HW264482   1.844   3.519   5.333  0.2863  0.6303 -0.7918
17755SOL     OW64483   9.750   6.409   6.217  0.2395 -0.2893  0.3558
17755SOL    HW164484   9.677   6.429   6.151 -0.4248 -0.7389  0.9411
17755SOL    HW264485   9.829   6.468   6.198  0.1241 -0.5243 -0.9358
17756SOL     OW64486   9.220   7.356   2.027 -0.5330  0.1904 -0.0378
17756SOL    HW164487   9.316   7.380   2.016 -0.7921  1.5037  0.4036
17756SOL    HW264488   9.192   7.374   2.122 -0.4387 -3.1102  0.6942
17757SOL     OW64489   5.609   1.397   3.952 -0.4887  0.5208 -0.0698
17757SOL    HW164490   5.634   1.426   4.045  1.6124  1.9915 -1.0646
17757SOL    HW264491   5.646   1.306   3.935 -1.0716  0.1498  0.5899
17758SOL     OW64492   1.879   8.863   1.681  0.4171 -0.4128  0.3857
17758SOL    HW164493   1.921   8.949   1.712 -0.2989 -0.4082  1.3640
17758SOL    HW264494   1.783   8.861   1.708  0.5962 -1.8130  0.9506
17759SOL     OW64495   8.624   5.043   0.307 -0.0314 -0.4999 -0.0891
17759SOL    HW164496   8.714   5.018   0.273  0.3824 -0.0445  0.6550
17759SOL    HW264497   8.631   5.126   0.363 -1.3469  1.3106 -2.4998
17760SOL     OW64498   0.745   5.473   1.727  0.3942 -0.3059 -0.0024
17760SOL    HW164499   0.784   5.412   1.657  1.0169  0.8130 -0.6570
17760SOL    HW264500   0.682   5.422   1.784  0.9781 -1.5918 -0.4766
17761SOL     OW64501   0.191   7.999   1.156  0.5438 -0.1776 -0.0014
17761SOL    HW164502   0.203   8.080   1.099 -0.3852  0.6313  0.9221
17761SOL    HW264503   0.277   7.948   1.161  1.0047  0.5006 -0.9755
17762SOL     OW64504   1.924   8.903   3.457  0.0981  0.1202  0.4088
17762SOL    HW164505   1.989   8.921   3.383  0.7403 -1.4534  0.5653
17762SOL    HW264506   1.905   8.988   3.506  0.3444  1.0101 -1.0069
17763SOL     OW64507   2.759   7.983   3.757 -0.3809 -0.1826 -0.2355
17763SOL    HW164508   2.840   7.925   3.747  0.4147  0.9171 -0.2659
17763SOL    HW264509   2.773   8.069   3.708 -0.0988  1.5047  2.6471
17764SOL     OW64510   0.438   9.243   6.366  0.1719 -0.2017  0.0742
17764SOL    HW164511   0.459   9.249   6.463  1.8640  0.2074 -0.3088
17764SOL    HW264512   0.444   9.334   6.325  2.4650 -0.8046 -1.0075
17765SOL     OW64513   2.918   7.868   5.741 -0.3131 -0.5812 -0.2332
17765SOL    HW164514   2.854   7.802   5.702 -0.8444 -0.2244  0.0260
17765SOL    HW264515   2.892   7.960   5.711 -0.5842 -0.3274  0.7615
17766SOL     OW64516   4.741   8.871   2.551 -0.2300 -0.3196  0.4248
17766SOL    HW164517   4.677   8.933   2.595  0.5969 -0.2123  1.4957
17766SOL    HW264518   4.766   8.798   2.615  1.4425  0.1708  0.3576
17767SOL     OW64519   9.037   8.766   3.250  0.3408 -0.0361 -0.3192
17767SOL    HW164520   8.977   8.842   3.275  1.0224  0.3899  0.0595
17767SOL    HW264521   9.035   8.697   3.322 -0.9684 -0.8065 -1.0748
17768SOL     OW64522   2.338   0.932   5.363 -0.0820 -0.1518 -0.2440
17768SOL    HW164523   2.395   0.854   5.389  1.1690  1.0811  0.7334
17768SOL    HW264524   2.298   0.914   5.273  1.2195 -1.3606 -0.6067
17769SOL     OW64525   1.962   2.888   4.075  0.2774  0.6314  0.2836
17769SOL    HW164526   1.951   2.987   4.088  1.8326  1.0556 -1.3390
17769SOL    HW264527   1.883   2.852   4.025  0.8203  1.5002 -1.2190
17770SOL     OW64528   6.453   1.127   0.429  0.0071  0.0951 -0.5705
17770SOL    HW164529   6.550   1.149   0.428  0.0429 -0.0698 -0.7054
17770SOL    HW264530   6.438   1.037   0.388 -0.1627 -0.0418 -0.2175
17771SOL     OW64531   9.462   5.428   2.698  0.2316  0.5098  0.5700
17771SOL    HW164532   9.393   5.501   2.700 -1.0614 -0.7278  1.4543
17771SOL    HW264533   9.553   5.469   2.685 -0.6957  2.1257 -1.1722
17772SOL     OW64534   6.343   9.438   4.014  0.2984  0.6672 -0.0030
17772SOL    HW164535   6.321   9.528   3.976 -0.5536  0.4992  0.0830
17772SOL    HW264536   6.317   9.435   4.110  0.8945  0.5300  0.1538
17773SOL     OW64537   0.446   9.329   6.639  0.1274  0.2794 -0.8593
17773SOL    HW164538   0.358   9.375   6.623 -0.2410 -0.1720 -0.1864
17773SOL    HW264539   0.452   9.302   6.735  0.1040 -1.5422 -1.3551
17774SOL     OW64540   2.577   1.873   1.266 -0.0811 -0.0307  0.1413
17774SOL    HW164541   2.560   1.897   1.170 -1.9390 -0.6871  0.2851
17774SOL    HW264542   2.623   1.949   1.312  0.7086  0.3343 -1.2397
17775SOL     OW64543   1.432   5.223   0.341  0.4177 -0.3640 -0.1001
17775SOL    HW164544   1.338   5.248   0.318  0.5225  0.0850 -0.0449
17775SOL    HW264545   1.477   5.302   0.383  0.6121 -0.7846  0.4761
17776SOL     OW64546   0.204   3.751   2.488  0.0889  0.2466 -0.6658
17776SOL    HW164547   0.215   3.818   2.561  1.7244 -0.3937 -0.2926
17776SOL    HW264548   0.141   3.786   2.419  1.2895  2.3636 -0.7136
17777SOL     OW64549   5.352   9.000   5.823 -0.2927  0.3293  0.0339
17777SOL    HW164550   5.446   8.983   5.792  0.1999  0.4429  1.4468
17777SOL    HW264551   5.305   8.912   5.835 -0.7453  0.3069 -1.7879
17778SOL     OW64552   0.117   4.854   5.231  0.6026  0.0901 -0.4180
17778SOL    HW164553   0.190   4.910   5.192  2.0631 -0.9451  0.7710
17778SOL    HW264554   0.047   4.837   5.162  1.5260  1.0436 -1.5948
17779SOL     OW64555   3.080   8.281   2.380 -0.2365 -0.3001  0.1190
17779SOL    HW164556   2.994   8.239   2.353 -1.0628  0.6311  1.2529
17779SOL    HW264557   3.133   8.306   2.299 -1.4201 -0.0762 -0.5827
17780SOL     OW64558   2.808   4.708   1.321  0.3186 -0.6911  0.0485
17780SOL    HW164559   2.728   4.731   1.376  0.2900 -1.8852  0.5131
17780SOL    HW264560   2.781   4.647   1.247  0.4502  0.4924 -1.0081
17781SOL     OW64561   9.564   4.728   3.740  0.2544  0.5967  0.0671
17781SOL    HW164562   9.564   4.659   3.813 -0.3694 -0.0662 -0.5610
17781SOL    HW264563   9.658   4.758   3.724  0.5976 -0.5008 -0.0270
17782SOL     OW64564   2.411   1.448   6.068 -0.2142  0.4994 -0.2847
17782SOL    HW164565   2.472   1.480   6.140  0.0792  0.6133 -0.5812
17782SOL    HW264566   2.463   1.432   5.984 -0.8092  1.9831 -0.9626
17783SOL     OW64567   9.253   9.428   2.031 -0.1874  0.2477 -0.0228
17783SOL    HW164568   9.235   9.387   2.120  1.5254 -1.1150 -0.2687
17783SOL    HW264569   9.193   9.387   1.963 -0.5425  0.3035  0.2542
17784SOL     OW64570   2.306   0.193   3.843 -0.5809  0.4742 -0.1278
17784SOL    HW164571   2.334   0.280   3.803 -3.3046  0.8228 -1.3859
17784SOL    HW264572   2.283   0.129   3.771  0.7815 -1.1110  0.8080
17785SOL     OW64573   2.999   5.141   1.616 -0.2277 -0.0848  0.1413
17785SOL    HW164574   3.055   5.209   1.568  1.5282 -0.1650  1.9772
17785SOL    HW264575   2.987   5.060   1.558  3.2105 -0.8474  0.3814
17786SOL     OW64576   3.001   3.416   5.969 -0.0886  0.3828  0.3319
17786SOL    HW164577   2.950   3.334   5.942 -1.5271  1.1140  0.7873
17786SOL    HW264578   3.091   3.389   6.004 -0.1230 -0.9154 -0.5393
17787SOL     OW64579   0.002   9.506   1.466  0.4353 -0.7140 -0.4652
17787SOL    HW164580   0.037   9.442   1.398  0.7523 -0.8822 -0.1402
17787SOL    HW264581  -0.020   9.593   1.421  0.5658 -0.8520 -0.7967
17788SOL     OW64582   4.453   8.006   6.320 -0.5127 -0.3997 -0.2861
17788SOL    HW164583   4.433   8.102   6.337  1.5037 -0.2446  1.3665
17788SOL    HW264584   4.426   7.951   6.399  1.6009 -0.7017  0.2591
17789SOL     OW64585   3.841   8.094   5.175  0.7838 -0.2462 -0.0216
17789SOL    HW164586   3.784   8.155   5.121  1.4989  0.6892  0.2678
17789SOL    HW264587   3.885   8.027   5.115  0.3458 -0.1961 -0.3979
17790SOL     OW64588   7.758   7.366   3.166  0.4149  0.6022  0.3113
17790SOL    HW164589   7.801   7.415   3.089 -2.2355  1.9332 -0.3773
17790SOL    HW264590   7.793   7.404   3.252  0.9217  1.4005 -0.2336
17791SOL     OW64591   3.408   4.692   2.442 -0.0006 -0.6585 -0.3853
17791SOL    HW164592   3.464   4.639   2.379  1.6710  1.1480 -0.4709
17791SOL    HW264593   3.321   4.715   2.398  1.2815  0.8778 -2.2049
17792SOL     OW64594   9.413   4.540   3.925  0.2327 -0.0539  0.0194
17792SOL    HW164595   9.415   4.602   4.004 -0.4225  0.8817 -0.6922
17792SOL    HW264596   9.352   4.464   3.944  0.5755 -0.1777  0.6648
17793SOL     OW64597   8.978   5.194   5.615  0.4038 -0.0100 -0.2638
17793SOL    HW164598   8.983   5.095   5.626 -0.7712 -0.2235 -1.5313
17793SOL    HW264599   8.956   5.236   5.703  1.4081 -0.8258  0.3909
17794SOL     OW64600   9.698   9.600   3.979  0.7200 -0.7534 -0.0554
17794SOL    HW164601   9.682   9.514   4.027  1.0334 -0.6949  0.1591
17794SOL    HW264602   9.648   9.601   3.893 -0.4496 -0.5727  0.6055
17795SOL     OW64603   3.400   1.197   1.509  0.1872 -0.2320  0.1201
17795SOL    HW164604   3.474   1.131   1.524  1.2076  0.6723 -0.8706
17795SOL    HW264605   3.337   1.162   1.441 -1.5633 -2.0007  2.5467
17796SOL     OW64606   7.559   1.848   5.759 -0.3348  0.3124  0.1081
17796SOL    HW164607   7.526   1.825   5.667 -0.2365 -0.3232  0.2365
17796SOL    HW264608   7.531   1.942   5.781 -3.1711 -0.6454  0.7211
17797SOL     OW64609   4.186   6.318   2.038  0.2270 -0.0729 -0.1679
17797SOL    HW164610   4.104   6.352   1.992  0.2477  0.2148  0.0073
17797SOL    HW264611   4.239   6.395   2.073  0.3319 -0.2769  0.1289
17798SOL     OW64612   5.088   9.587   4.382  0.0402  0.8026 -0.2753
17798SOL    HW164613   5.133   9.582   4.293  2.3907  1.6473  0.8301
17798SOL    HW264614   5.131   9.658   4.438 -1.0907 -0.0295  1.7172
17799SOL     OW64615   2.461   8.185   5.187 -0.1686  0.0325  0.3770
17799SOL    HW164616   2.419   8.095   5.194  0.0129 -0.0005  0.9861
17799SOL    HW264617   2.553   8.184   5.225  0.3961  0.1168 -0.9270
17800SOL     OW64618   5.357   2.139   3.181  0.0775 -0.4979 -0.1290
17800SOL    HW164619   5.357   2.039   3.185  0.2453 -0.4889  0.1711
17800SOL    HW264620   5.316   2.175   3.265 -0.0424 -0.3175 -0.2667
17801SOL     OW64621   3.649   8.671   1.218  0.6621 -0.4277  0.1101
17801SOL    HW164622   3.561   8.648   1.259  1.2045 -0.9334  0.9969
17801SOL    HW264623   3.634   8.730   1.139 -0.4936 -0.7624  0.0695
17802SOL     OW64624   2.286   4.940   2.279  0.1236  0.1104  0.5263
17802SOL    HW164625   2.328   5.025   2.311  2.5752 -0.0693 -2.0175
17802SOL    HW264626   2.317   4.864   2.336  1.7064  0.2790 -0.0795
17803SOL     OW64627   7.423   0.793   2.871  0.3979  0.1544 -0.5595
17803SOL    HW164628   7.477   0.831   2.946 -1.3363 -0.0683  0.8344
17803SOL    HW264629   7.414   0.695   2.883  1.5367 -0.1352 -1.9983
17804SOL     OW64630   0.196   6.988   1.311  0.1216  0.1916 -0.3189
17804SOL    HW164631   0.144   6.983   1.396  0.1244 -1.9883 -0.4119
17804SOL    HW264632   0.135   6.970   1.233  0.9222 -2.3142 -0.4351
17805SOL     OW64633   1.658   3.054   2.289 -0.3163 -0.0969 -0.3995
17805SOL    HW164634   1.584   2.995   2.258  0.6336 -1.7620  0.3950
17805SOL    HW264635   1.738   3.040   2.231  0.3252 -0.5686  0.5771
17806SOL     OW64636   2.268   2.528   5.687 -0.2538  0.3216  0.2355
17806SOL    HW164637   2.195   2.483   5.739 -0.4676  0.9209  0.4649
17806SOL    HW264638   2.353   2.524   5.739  0.2123 -1.5460 -0.6125
17807SOL     OW64639   5.218   1.458   2.951  0.4771  0.1064 -0.3334
17807SOL    HW164640   5.251   1.541   2.905  1.8244 -0.5541 -0.5974
17807SOL    HW264641   5.183   1.394   2.883  1.5934 -0.4843 -0.3577
17808SOL     OW64642   3.488   7.897   2.510  0.1561 -0.2362  0.1517
17808SOL    HW164643   3.576   7.940   2.491 -0.0419 -0.3788 -1.0970
17808SOL    HW264644   3.495   7.845   2.596  1.3943 -0.5567 -0.1321
17809SOL     OW64645   3.418   9.133   5.045  0.0628 -0.3142 -0.6010
17809SOL    HW164646   3.328   9.157   5.009  0.3477  1.2219 -0.2962
17809SOL    HW264647   3.474   9.092   4.972 -0.2584  0.3842 -1.2354
17810SOL     OW64648   1.748   6.155   1.161  0.3997  0.0282 -0.1149
17810SOL    HW164649   1.711   6.133   1.252 -0.1645  0.1688 -0.3071
17810SOL    HW264650   1.729   6.079   1.098  2.0500 -0.6948  0.2329
17811SOL     OW64651   5.014   9.259   2.548 -0.2702  0.0646  0.0179
17811SOL    HW164652   4.944   9.297   2.608  0.2010  1.3469 -0.2495
17811SOL    HW264653   4.987   9.271   2.452 -0.9959 -1.9327 -0.0695
17812SOL     OW64654   0.236   2.204   0.600  0.1020 -0.6112  0.2911
17812SOL    HW164655   0.257   2.251   0.514 -1.7649 -1.7213 -0.8015
17812SOL    HW264656   0.143   2.227   0.628 -0.5775 -3.1005  0.1195
17813SOL     OW64657   9.535   4.156   3.913 -0.0687  0.2062  0.0446
17813SOL    HW164658   9.571   4.244   3.882 -1.0109  0.0368 -1.6100
17813SOL    HW264659   9.492   4.167   4.003  1.4643  1.0311  0.6894
17814SOL     OW64660   6.359   1.944   4.862 -0.1489 -0.4908 -0.4519
17814SOL    HW164661   6.267   1.908   4.849  0.2121 -1.4377 -0.3768
17814SOL    HW264662   6.425   1.870   4.859  0.5903  0.1505 -0.2134
17815SOL     OW64663   3.678   0.627   1.767  0.5415  0.4999 -0.2224
17815SOL    HW164664   3.583   0.658   1.756  0.8113  1.6443  0.5755
17815SOL    HW264665   3.733   0.660   1.690  0.0080 -1.3744 -1.4333
17816SOL     OW64666   3.651   2.817   5.266  0.0139  0.3695 -0.0333
17816SOL    HW164667   3.693   2.788   5.352  0.4526  0.3676 -0.2494
17816SOL    HW264668   3.603   2.740   5.224 -2.2541  0.9406  1.4056
17817SOL     OW64669   7.557   0.639   4.681  0.6164 -0.0994 -0.3211
17817SOL    HW164670   7.639   0.690   4.707  0.4413  0.3791 -0.7016
17817SOL    HW264671   7.557   0.550   4.727  2.8070 -1.3104 -2.5718
17818SOL     OW64672   8.952   4.169   0.426  0.4355 -0.2116  0.1141
17818SOL    HW164673   9.031   4.108   0.415 -1.2544 -1.8269 -4.0744
17818SOL    HW264674   8.869   4.114   0.436 -0.5514  1.4739  1.4026
17819SOL     OW64675   0.709   4.092   1.545  0.4168 -0.2985  0.0629
17819SOL    HW164676   0.743   4.000   1.530  2.0881  0.3063  0.1061
17819SOL    HW264677   0.783   4.158   1.532 -0.1000  0.8557  2.6936
17820SOL     OW64678   3.382   5.533   6.330  0.0226  0.1089  0.1412
17820SOL    HW164679   3.337   5.589   6.399 -0.5460  0.3305 -0.4019
17820SOL    HW264680   3.341   5.442   6.329 -0.3793  0.2905 -0.3085
17821SOL     OW64681   8.196   6.391   5.751 -0.1216  0.7035  0.3861
17821SOL    HW164682   8.149   6.383   5.663 -1.8974 -0.0520  1.3683
17821SOL    HW264683   8.294   6.376   5.738 -0.2752  1.2235 -1.5501
17822SOL     OW64684   9.615   7.645   2.771  0.4273  0.4808 -0.4459
17822SOL    HW164685   9.535   7.584   2.772 -0.1217  1.1888 -0.2735
17822SOL    HW264686   9.612   7.703   2.689  0.2959  1.1000 -0.0125
17823SOL     OW64687   0.204   1.109   3.155  0.0252  0.1874  0.6187
17823SOL    HW164688   0.238   1.145   3.068 -1.8692 -1.2065 -0.7751
17823SOL    HW264689   0.233   1.014   3.165 -0.3342  0.1360  1.1780
17824SOL     OW64690   0.231   6.073   2.693 -0.4856  0.1299  0.1211
17824SOL    HW164691   0.323   6.090   2.658  0.1896 -0.8734  1.3646
17824SOL    HW264692   0.237   6.043   2.788 -1.8787 -2.6221 -0.6165
17825SOL     OW64693   3.414   6.433   3.992  0.2500  0.5237  0.4072
17825SOL    HW164694   3.396   6.530   3.976 -0.5153  0.0552 -1.6664
17825SOL    HW264695   3.423   6.386   3.905  2.4848 -0.9513  1.3827
17826SOL     OW64696   4.816   7.805   5.602  0.1060 -0.5294 -0.1142
17826SOL    HW164697   4.854   7.886   5.645 -0.2555  0.7564 -2.1294
17826SOL    HW264698   4.825   7.727   5.663 -1.0608  1.3570  2.5444
17827SOL     OW64699   0.154   6.904   3.620  0.2752  1.1012 -0.2778
17827SOL    HW164700   0.191   6.993   3.647 -0.6369  2.0220 -1.9816
17827SOL    HW264701   0.078   6.918   3.556 -0.1842 -0.8975 -0.1853
17828SOL     OW64702   3.338   9.467   0.168 -0.2256  0.3974  0.2087
17828SOL    HW164703   3.242   9.449   0.189 -0.1839 -0.1394 -0.0523
17828SOL    HW264704   3.348   9.486   0.070 -0.2410  1.6675  0.4475
17829SOL     OW64705   1.611   6.887   0.909  0.0356  0.2387  0.0180
17829SOL    HW164706   1.608   6.987   0.907  0.0295  0.2173 -3.2850
17829SOL    HW264707   1.530   6.850   0.863 -0.6512 -1.3299  2.4014
17830SOL     OW64708   9.667   3.461   5.173 -0.1260  0.1166  0.1026
17830SOL    HW164709   9.628   3.453   5.081  1.0095  1.7724 -0.5339
17830SOL    HW264710   9.652   3.553   5.208  2.0437  0.3840  0.3910
17831SOL     OW64711   9.772   8.486   0.253 -0.1452  0.2595  0.1631
17831SOL    HW164712   9.831   8.418   0.296  0.5747  0.4499 -0.5280
17831SOL    HW264713   9.825   8.540   0.188 -1.1339  0.2706 -0.6335
17832SOL     OW64714   1.802   2.498   1.611 -0.0858  0.2057 -0.8080
17832SOL    HW164715   1.823   2.579   1.666 -1.5352  0.7387 -1.0080
17832SOL    HW264716   1.856   2.501   1.527 -1.4552  1.9523 -1.6755
17833SOL     OW64717   2.291   2.593   3.149  0.4497  0.0076  0.0272
17833SOL    HW164718   2.311   2.513   3.092  0.0409  1.1095 -1.7080
17833SOL    HW264719   2.365   2.605   3.216  0.6530 -1.6439  0.1210
17834SOL     OW64720   4.108   0.146   2.423  0.3945 -0.4129  0.6740
17834SOL    HW164721   4.204   0.120   2.423  0.4113 -0.4142 -1.2410
17834SOL    HW264722   4.100   0.245   2.411  0.1284 -0.5637 -0.4088
17835SOL     OW64723   2.667   6.230   0.160 -0.1489  0.7006  0.1771
17835SOL    HW164724   2.738   6.293   0.131 -0.3036  1.1697  0.8128
17835SOL    HW264725   2.632   6.257   0.250 -0.8476  0.2391  0.0520
17836SOL     OW64726   9.090   8.928   2.292 -0.2568 -0.0775 -0.5247
17836SOL    HW164727   9.059   8.848   2.343 -0.6946  1.0455  1.0059
17836SOL    HW264728   9.184   8.949   2.316  0.1329 -0.5996 -1.5427
17837SOL     OW64729   4.573   0.518   2.409 -0.1930  0.0332  0.1777
17837SOL    HW164730   4.613   0.524   2.317  0.9287  0.2344  0.6683
17837SOL    HW264731   4.504   0.446   2.410  0.0743 -0.2492 -0.7276
17838SOL     OW64732   0.956   8.510   4.337  0.2503  0.3067  0.3419
17838SOL    HW164733   0.872   8.564   4.343  0.7297  1.0626  0.3647
17838SOL    HW264734   0.978   8.474   4.428 -0.1031  0.0237  0.3161
17839SOL     OW64735   3.761   3.668   3.201  0.0457 -0.1667 -0.5284
17839SOL    HW164736   3.795   3.587   3.249  0.8625 -0.7486 -2.0564
17839SOL    HW264737   3.686   3.709   3.253 -0.0685 -1.6519  0.4905
17840SOL     OW64738   0.815   8.087   2.045 -0.2723  0.1533 -0.6334
17840SOL    HW164739   0.882   8.160   2.033 -1.4508  1.2107 -0.9712
17840SOL    HW264740   0.745   8.118   2.110  0.4554 -1.5651  1.0070
17841SOL     OW64741   0.092   6.676   2.091 -0.2417  0.6167  0.1656
17841SOL    HW164742   0.134   6.764   2.112  0.6848 -0.2106  1.9055
17841SOL    HW264743   0.147   6.603   2.132 -2.3925 -0.6031  0.9322
17842SOL     OW64744   3.103   4.555   2.652  0.3538  0.2400 -0.5938
17842SOL    HW164745   3.146   4.631   2.700 -1.0568  1.8022 -1.7416
17842SOL    HW264746   3.085   4.581   2.557 -1.8294 -0.8655 -0.5145
17843SOL     OW64747   0.493   1.505   6.078  0.4718 -0.9164  0.3482
17843SOL    HW164748   0.479   1.603   6.092  0.8940 -0.9752  1.2492
17843SOL    HW264749   0.448   1.453   6.151 -1.1671 -1.4989 -1.0274
17844SOL     OW64750   6.623   8.761   3.051  0.2705  0.0139  0.3193
17844SOL    HW164751   6.576   8.844   3.020  0.7381  0.5394  1.0034
17844SOL    HW264752   6.632   8.697   2.974  0.5394  0.8953 -0.3992
17845SOL     OW64753   7.643   0.683   5.419  0.1260  0.0408 -0.0852
17845SOL    HW164754   7.651   0.743   5.339  0.9501 -0.7160 -0.5820
17845SOL    HW264755   7.678   0.593   5.396 -0.9155 -0.5749  0.7317
17846SOL     OW64756   1.116   3.977   0.013  0.2909  0.1352 -0.9238
17846SOL    HW164757   1.038   4.033   0.041  0.7586 -0.2517  1.2105
17846SOL    HW264758   1.197   4.035   0.004  0.5024  0.0118  0.1180
17847SOL     OW64759   6.137   1.561   2.646  0.0531  0.7648 -0.1678
17847SOL    HW164760   6.223   1.509   2.652 -0.7942 -0.7878 -1.0938
17847SOL    HW264761   6.157   1.659   2.645  1.8935  0.4006 -1.4975
17848SOL     OW64762   2.474   6.045   6.160 -0.2959  0.2537 -0.1137
17848SOL    HW164763   2.446   6.090   6.245  0.3466  1.0276 -0.3018
17848SOL    HW264764   2.410   6.068   6.087 -0.2707  0.4280 -0.0807
17849SOL     OW64765   2.734   8.692   5.388 -0.0960  0.0305  0.4303
17849SOL    HW164766   2.827   8.703   5.353 -0.9368  2.1433 -1.2720
17849SOL    HW264767   2.735   8.689   5.488  1.7313  0.6478  0.4344
17850SOL     OW64768   8.669   5.096   5.853  0.3143 -0.1480  0.0573
17850SOL    HW164769   8.731   5.154   5.905  0.2132 -0.0162  0.0314
17850SOL    HW264770   8.594   5.065   5.912 -0.5576  1.1311 -0.3617
17851SOL     OW64771   4.348   0.389   0.034 -0.1635  0.3535  0.4902
17851SOL    HW164772   4.294   0.468   0.008  0.7000  1.2117  1.2825
17851SOL    HW264773   4.405   0.360  -0.043 -1.1941 -0.1129 -0.1127
17852SOL     OW64774   9.373   9.765   5.290  0.3764  0.2686 -0.4048
17852SOL    HW164775   9.445   9.702   5.319  0.1947  0.0791 -0.3658
17852SOL    HW264776   9.311   9.783   5.367  1.8552  2.4902  0.3250
17853SOL     OW64777   2.688   3.640   1.424 -0.2802 -0.0729 -0.2935
17853SOL    HW164778   2.779   3.681   1.422  0.1536 -0.8711  1.6104
17853SOL    HW264779   2.619   3.712   1.413  0.5317  0.7194 -0.3134
17854SOL     OW64780   3.961   6.147   1.213 -0.0120 -0.5015 -0.2352
17854SOL    HW164781   4.008   6.233   1.232  0.2123 -0.6339 -0.1923
17854SOL    HW264782   3.862   6.162   1.214  0.0610  0.2158 -2.3580
17855SOL     OW64783   2.376   8.400   1.963  0.0221 -0.6056  0.4416
17855SOL    HW164784   2.354   8.393   2.060  0.2350  0.3413  0.5597
17855SOL    HW264785   2.435   8.323   1.937  1.9036  0.3940  1.6038
17856SOL     OW64786   9.392   8.693   3.918 -0.4332 -0.4316 -0.3530
17856SOL    HW164787   9.356   8.762   3.979  0.3215  0.1517 -0.5627
17856SOL    HW264788   9.432   8.737   3.837  0.8707 -1.0570 -0.0570
17857SOL     OW64789   9.565   6.213   4.678  0.2018  0.2648 -0.4072
17857SOL    HW164790   9.638   6.209   4.610 -0.6839  1.6416 -1.4510
17857SOL    HW264791   9.556   6.306   4.713 -1.2582  0.1708 -0.5131
17858SOL     OW64792   2.757   8.018   4.008 -0.3022 -0.2209  0.4734
17858SOL    HW164793   2.687   8.085   4.034 -1.0990 -0.6993 -0.4039
17858SOL    HW264794   2.746   7.995   3.911  1.4302  0.1176  0.1879
17859SOL     OW64795   8.435   1.400   4.974 -0.2138 -0.3908  0.6435
17859SOL    HW164796   8.511   1.446   4.928  0.5065  0.7813  2.9185
17859SOL    HW264797   8.349   1.425   4.929  0.6637 -1.2214 -1.5508
17860SOL     OW64798   3.379   3.227   3.185 -0.1282 -0.0242 -0.5333
17860SOL    HW164799   3.336   3.256   3.270  1.0329  2.1581 -0.6491
17860SOL    HW264800   3.383   3.127   3.182 -1.0883 -0.1520  1.4945
17861SOL     OW64801   4.440   9.647   5.214 -0.3037 -0.0985  0.0674
17861SOL    HW164802   4.509   9.714   5.243  1.4909 -1.5688 -0.6748
17861SOL    HW264803   4.424   9.582   5.287 -0.3668 -0.1674 -0.0072
17862SOL     OW64804   3.714   8.051   2.469  0.2028 -0.6750  0.1680
17862SOL    HW164805   3.804   8.063   2.427 -0.9236 -1.1312 -2.4334
17862SOL    HW264806   3.678   8.139   2.497  0.1644 -0.1413 -1.5348
17863SOL     OW64807   5.168   1.514   4.910  0.5219 -0.4251 -0.1418
17863SOL    HW164808   5.215   1.465   4.836 -0.3263 -2.6590  0.7795
17863SOL    HW264809   5.074   1.535   4.881  0.4927 -0.4408 -0.0559
17864SOL     OW64810   0.401   3.306   5.595  0.4341  0.1578 -0.1912
17864SOL    HW164811   0.476   3.297   5.660 -0.3432  1.3904  0.9094
17864SOL    HW264812   0.326   3.245   5.622  0.2466  0.4132 -0.1364
17865SOL     OW64813   9.929   8.644   5.364  0.1183 -0.1308 -0.2683
17865SOL    HW164814   9.854   8.667   5.303  0.4959 -0.6889 -0.9467
17865SOL    HW264815  10.016   8.652   5.315  0.6101  1.6506  0.8102
17866SOL     OW64816   1.883   3.529   3.902 -0.5883  0.6844 -0.6961
17866SOL    HW164817   1.881   3.446   3.958 -0.4132  1.1912  0.0710
17866SOL    HW264818   1.978   3.555   3.884 -0.5906  2.0351  1.0680
17867SOL     OW64819   1.498   4.967   2.215  0.0780  0.1139 -0.1532
17867SOL    HW164820   1.497   4.868   2.203  0.7342 -0.1372  1.7074
17867SOL    HW264821   1.591   4.997   2.237  0.2616  1.3950 -2.4377
17868SOL     OW64822   2.930   1.395   3.624  0.1872 -0.3136 -0.1181
17868SOL    HW164823   2.965   1.366   3.713  0.2462  1.0087  0.2960
17868SOL    HW264824   2.844   1.443   3.635 -0.7630 -1.7613 -0.9643
17869SOL     OW64825   2.722   3.377   4.590  1.1045  0.4231  0.1093
17869SOL    HW164826   2.693   3.288   4.553  1.5797  0.0281  0.6716
17869SOL    HW264827   2.662   3.402   4.667  0.4711  0.9755 -0.5526
17870SOL     OW64828   8.882   5.928   5.926 -0.4796 -0.0681  0.0836
17870SOL    HW164829   8.866   5.882   6.013 -2.2700  0.0208 -0.1827
17870SOL    HW264830   8.962   5.886   5.881 -0.3353 -0.9790  1.1544
17871SOL     OW64831   8.071   0.803   1.299  0.1298 -0.1214 -0.8281
17871SOL    HW164832   8.099   0.889   1.341 -2.0399  0.2188 -0.0013
17871SOL    HW264833   8.028   0.821   1.210 -1.2530 -0.2293 -0.1983
17872SOL     OW64834   9.173   2.575   3.577 -0.2989 -0.0007 -0.2324
17872SOL    HW164835   9.123   2.607   3.496 -0.2706 -0.9221 -0.6163
17872SOL    HW264836   9.271   2.579   3.559 -0.3325 -1.9706 -0.9306
17873SOL     OW64837   0.715   5.336   3.796  0.6236 -0.0799 -0.0754
17873SOL    HW164838   0.711   5.356   3.894  1.8672 -1.7356  0.3515
17873SOL    HW264839   0.622   5.323   3.761  0.2142 -0.6356  1.1613
17874SOL     OW64840   9.509   8.402   5.384 -0.1258 -0.1358 -0.4352
17874SOL    HW164841   9.502   8.319   5.328  1.4398  0.8762 -2.2435
17874SOL    HW264842   9.553   8.380   5.471 -0.2482 -1.3150 -0.6616
17875SOL     OW64843   3.784   4.676   0.693  0.3759  0.6087  0.3319
17875SOL    HW164844   3.883   4.690   0.692  0.5982 -0.8190  1.4160
17875SOL    HW264845   3.763   4.581   0.669 -0.6991  0.7559  0.6494
17876SOL     OW64846   1.650   8.938   5.141 -0.3608 -0.2131  0.0942
17876SOL    HW164847   1.634   8.854   5.089 -2.9537 -0.6509  1.4985
17876SOL    HW264848   1.728   8.924   5.203 -0.0228 -1.1669 -0.5300
17877SOL     OW64849   4.342   5.641   5.205  0.3486  0.7289 -0.2669
17877SOL    HW164850   4.421   5.697   5.228  0.4132  0.4109  0.2866
17877SOL    HW264851   4.281   5.693   5.145  1.2343  0.7845 -1.1397
17878SOL     OW64852   1.544   7.147   0.934 -0.5014 -0.6423  0.8672
17878SOL    HW164853   1.566   7.243   0.949  0.5224 -0.9328  1.2341
17878SOL    HW264854   1.484   7.115   1.007 -0.9805 -0.2446  0.6547
17879SOL     OW64855   3.216   9.954   0.917 -0.5478 -0.4314 -0.1714
17879SOL    HW164856   3.197   9.935   0.821 -3.4416 -0.5976  0.4023
17879SOL    HW264857   3.260   9.874   0.958 -0.1622 -0.7150 -1.1141
17880SOL     OW64858   9.262   4.245   0.536  0.3552 -0.0685 -0.6294
17880SOL    HW164859   9.184   4.291   0.577  0.0386 -0.9468 -0.2175
17880SOL    HW264860   9.285   4.164   0.591  1.3873  0.0360 -0.8940
17881SOL     OW64861   8.683   2.889   4.835 -0.0491  0.3544  0.0429
17881SOL    HW164862   8.768   2.858   4.877  0.2560 -1.4900 -1.8550
17881SOL    HW264863   8.606   2.836   4.871  0.1594 -0.9285 -1.3579
17882SOL     OW64864   5.671   0.783   2.299 -0.2447 -0.2445  0.2406
17882SOL    HW164865   5.589   0.728   2.312 -0.1688 -0.6760 -0.9952
17882SOL    HW264866   5.733   0.736   2.235  0.3933  0.6667  0.1757
17883SOL     OW64867   3.674   9.274   4.631  0.4480  0.3576  0.2480
17883SOL    HW164868   3.621   9.260   4.547  0.3783 -3.1452  0.8028
17883SOL    HW264869   3.758   9.220   4.627  0.5390  0.3070  2.3720
17884SOL     OW64870   8.295   4.394   2.503  0.2005 -0.2919 -0.2596
17884SOL    HW164871   8.299   4.347   2.591  1.2115 -1.5256 -0.9463
17884SOL    HW264872   8.221   4.355   2.449  0.1683 -0.1629 -0.3077
17885SOL     OW64873   0.155   2.357   0.255 -0.6625 -0.2078 -0.4942
17885SOL    HW164874   0.166   2.422   0.330  0.1480 -0.1028 -0.7039
17885SOL    HW264875   0.148   2.407   0.169 -1.8470 -0.3133 -0.4789
17886SOL     OW64876   6.976   4.435   6.594  0.3172 -0.1957  0.1201
17886SOL    HW164877   7.060   4.445   6.541  0.7749 -0.5025  0.8002
17886SOL    HW264878   6.994   4.386   6.678 -0.8319 -1.6407 -0.4488
17887SOL     OW64879   1.420   9.459   2.433 -0.4908  0.5707 -0.4536
17887SOL    HW164880   1.340   9.417   2.392 -0.2170 -2.2212  1.7065
17887SOL    HW264881   1.398   9.490   2.526  0.4718  1.3056 -0.4583
17888SOL     OW64882   8.477   0.689   5.382 -0.6799 -0.7529  0.2640
17888SOL    HW164883   8.501   0.594   5.359  1.1554 -0.3155  0.3364
17888SOL    HW264884   8.518   0.751   5.315 -0.2748  0.1281  1.3226
17889SOL     OW64885   3.393   9.630   5.188  0.1193 -0.0167 -0.2348
17889SOL    HW164886   3.296   9.649   5.173 -0.8771 -2.9613  1.9188
17889SOL    HW264887   3.430   9.581   5.109 -1.1169 -2.0647  0.4271
17890SOL     OW64888   4.904   9.836   1.990  0.0872  0.1156 -0.4337
17890SOL    HW164889   4.953   9.921   2.010  0.0421  0.0140  0.1291
17890SOL    HW264890   4.912   9.774   2.069  0.4418 -0.5504 -0.9895
17891SOL     OW64891   4.618   8.015   5.772 -0.3169  0.0661  0.2355
17891SOL    HW164892   4.702   8.034   5.822 -0.4275  0.5829  0.2303
17891SOL    HW264893   4.635   8.022   5.674 -0.3921  0.2881  0.2378
17892SOL     OW64894   9.549   9.748   0.123 -0.3806  0.0236 -0.0275
17892SOL    HW164895   9.605   9.676   0.163  1.3087  0.3091 -1.8023
17892SOL    HW264896   9.608   9.823   0.093 -1.5106 -0.3803 -3.4303
17893SOL     OW64897   2.662   1.457   0.691 -0.4487 -0.7302  0.9099
17893SOL    HW164898   2.592   1.387   0.675 -1.1486 -0.1166  1.2599
17893SOL    HW264899   2.633   1.516   0.767 -0.9927  1.4066 -0.8866
17894SOL     OW64900   0.379   5.391   4.178  0.2578 -0.0568  0.0684
17894SOL    HW164901   0.410   5.317   4.237  1.1035 -0.0075 -0.3053
17894SOL    HW264902   0.345   5.467   4.235 -0.2291 -0.5601  0.4538
17895SOL     OW64903   0.875   5.884   3.032  0.5573 -0.0415  0.5382
17895SOL    HW164904   0.938   5.825   2.980 -0.2719  1.0010 -1.6969
17895SOL    HW264905   0.839   5.955   2.972 -2.3344 -0.2888  1.9345
  10.00000  10.00000   6.74838
