chitosan Film  in water:acetic acid 2%
10700
    1CHTO  H203    1   3.997   6.414   0.504  2.1189 -0.5054 -1.3939
    1CHTO   O82    2   3.996   6.323   0.526 -0.4453 -0.2956 -0.5300
    1CHTO  C123    3   4.116   6.305   0.602  0.5432  0.4176  0.0185
    1CHTO  H227    4   4.097   6.346   0.702 -2.7625 -0.2355 -0.2848
    1CHTO   O77    5   4.122   6.157   0.608 -0.0376  0.1187  0.2760
    1CHTO  C118    6   4.243   6.095   0.664  0.6871  0.3480 -0.5557
    1CHTO  H222    7   4.239   6.126   0.770  2.0731 -2.4711  0.3812
    1CHTO  C125    8   4.219   5.938   0.652 -0.3352 -0.1143 -0.1678
    1CHTO   O84    9   4.205   5.899   0.517 -0.0439  0.0386 -0.0372
    1CHTO  H205   10   4.278   5.849   0.486  1.7690  0.4782  3.2702
    1CHTO  C114   11   4.374   6.143   0.599 -0.1008  0.8081 -0.7976
    1CHTO  H218   12   4.376   6.103   0.498  0.5606 -1.7004  0.1831
    1CHTO  C116   13   4.372   6.302   0.592 -0.1266  0.0351  0.1039
    1CHTO  H220   14   4.381   6.345   0.694 -0.1621 -0.0437  0.1403
    1CHTO   O79   15   4.487   6.330   0.518 -0.0828 -0.3639 -0.3524
    1CHTO  H201   16   4.568   6.322   0.563 -0.9528 -1.9998  0.9798
    1CHTO  C120   17   4.242   6.356   0.523  0.1297  0.6073 -0.0903
    1CHTO  H224   18   4.243   6.317   0.419 -0.8365  0.1288  0.0725
    1CHTO   N21   19   4.251   6.504   0.530 -0.0269  0.1351 -0.1696
    1CHTO  H211   20   4.189   6.537   0.612 -0.3756 -0.9464  0.0127
    1CHTO  H212   21   4.212   6.533   0.433 -0.2621  1.6940  0.3779
    1CHTO   O75   22   4.472   6.071   0.673  0.1615 -0.1108  0.8552
    1CHTO  C112   23   4.618   6.043   0.612  0.3767 -0.1743 -0.3298
    1CHTO  H216   24   4.624   6.108   0.523  0.3463  1.0606  0.5571
    1CHTO   O73   25   4.624   5.901   0.577  0.0128 -0.1411  0.3568
    1CHTO  C113   26   4.745   5.870   0.510 -0.2953 -0.2681 -0.0228
    1CHTO  H217   27   4.750   5.939   0.423  1.5334  1.0051  1.0481
    1CHTO  C124   28   4.740   5.720   0.467  0.3338 -0.0621 -0.0796
    1CHTO   O83   29   4.754   5.626   0.571  0.0147  0.1770 -0.1702
    1CHTO  H204   30   4.794   5.543   0.552  0.4103  0.3852 -0.2440
    1CHTO  C109   31   4.865   5.883   0.603 -0.6929 -0.8268 -0.0682
    1CHTO  H213   32   4.851   5.802   0.676 -0.8631 -0.4029  0.3731
    1CHTO  C110   33   4.879   6.033   0.659 -0.0708 -0.1698  0.1089
    1CHTO  H214   34   4.917   6.086   0.572 -0.0502 -1.7105 -0.8471
    1CHTO   O78   35   4.988   6.044   0.754  0.5387 -0.1488  0.2403
    1CHTO  H200   36   4.959   6.096   0.826 -0.7847 -0.1814 -0.2544
    1CHTO  C111   37   4.737   6.078   0.712 -0.0163  0.3712  0.4513
    1CHTO  H215   38   4.715   6.033   0.810 -0.1467 -0.4572  0.0490
    1CHTO   N19   39   4.739   6.222   0.733 -0.4039  0.3316  0.2246
    1CHTO  H207   40   4.818   6.251   0.800 -0.7352  0.3833  0.6010
    1CHTO  H208   41   4.646   6.252   0.780 -0.1886 -0.2589  1.0279
    1CHTO   O74   42   4.987   5.865   0.524  0.1602  0.1694  0.3788
    1CHTO  C115   43   5.109   5.776   0.601  0.5495  0.0213  1.0431
    1CHTO  H219   44   5.096   5.779   0.709  1.7096 -1.9950  1.2694
    1CHTO   O76   45   5.098   5.616   0.570  0.3029 -0.2586  0.2147
    1CHTO  C122   46   5.118   5.597   0.435  0.4368  0.2832 -1.1187
    1CHTO  H226   47   5.047   5.663   0.386  0.5169  0.4681 -0.9875
    1CHTO  C126   48   5.080   5.463   0.392  0.3044  0.3304 -0.5528
    1CHTO   O85   49   5.131   5.342   0.455  0.2499 -0.3172 -0.2355
    1CHTO  H206   50   5.137   5.280   0.386  0.3288 -0.6835  0.0994
    1CHTO  C121   51   5.262   5.628   0.390  0.0689 -0.2635 -0.3100
    1CHTO  H225   52   5.323   5.536   0.376 -0.1203 -0.3619 -0.4773
    1CHTO   O81   53   5.260   5.694   0.263  0.4328  0.1926 -0.1917
    1CHTO  H202   54   5.312   5.645   0.202  0.8754  2.0540 -1.3566
    1CHTO  C119   55   5.336   5.716   0.497  0.1144  0.1022 -0.5270
    1CHTO  H223   56   5.346   5.659   0.590  1.1907 -0.1577 -0.7941
    1CHTO  C117   57   5.246   5.836   0.548  0.9212  0.1736  0.0824
    1CHTO  H221   58   5.221   5.904   0.466  3.6504  2.4559  1.0958
    1CHTO   N20   59   5.308   5.928   0.645 -0.4252  0.1418  0.3011
    1CHTO  H209   60   5.267   5.897   0.740  0.0996  2.2530  1.2483
    1CHTO  H210   61   5.413   5.902   0.642 -1.0389 -2.3429 -2.0919
    1CHTO   O80   62   5.476   5.740   0.461 -0.6720 -0.0407 -0.5493
    1CHTO  C103   63   5.596   5.651   0.529 -0.0608 -0.1335  0.1506
    1CHTO  H190   64   5.607   5.674   0.635 -0.2394 -1.0439  0.3706
    1CHTO  C101   65   5.570   5.494   0.512 -0.2854  0.0220  0.2460
    1CHTO  H188   66   5.539   5.473   0.410  1.3694  1.4288 -0.5830
    1CHTO   O68   67   5.451   5.438   0.621  0.2273 -0.1178  0.1360
    1CHTO  H168   68   5.426   5.351   0.598 -1.8914  0.9719 -2.0468
    1CHTO   C99   69   5.708   5.412   0.535 -0.5346  0.0448  0.0225
    1CHTO  H186   70   5.737   5.435   0.640  1.0147 -0.0943 -0.3669
    1CHTO   N17   71   5.707   5.265   0.505 -0.3401 -1.1539  0.1445
    1CHTO  H174   72   5.723   5.216   0.600 -0.1807  0.5344  0.9977
    1CHTO  H175   73   5.764   5.227   0.421  0.9481  1.1060 -0.0407
    1CHTO   C97   74   5.816   5.479   0.448 -0.2930 -0.0182 -0.1566
    1CHTO  H184   75   5.774   5.472   0.347  0.1055  0.7888 -0.3773
    1CHTO   O64   76   5.829   5.613   0.496  0.3883  0.2148 -0.4232
    1CHTO  C104   77   5.720   5.692   0.450  0.2464 -0.0356  0.3301
    1CHTO  H191   78   5.706   5.682   0.342 -4.4096  1.1091  0.7299
    1CHTO  C108   79   5.756   5.840   0.468  0.1852 -0.1414  0.1483
    1CHTO   O71   80   5.870   5.891   0.397  0.9214 -0.5059 -0.0212
    1CHTO  H171   81   5.864   5.855   0.310 -3.5022  0.2978 -0.1379
    1CHTO   O62   82   5.943   5.419   0.467 -0.0475  0.4700 -0.4944
    1CHTO   C91   83   6.037   5.447   0.361  0.1431  0.0399 -0.0713
    1CHTO  H178   84   6.000   5.529   0.299  1.8452 -0.3443 -1.6290
    1CHTO   C92   85   6.046   5.317   0.273  0.3760 -0.3484 -0.2732
    1CHTO  H179   86   6.068   5.229   0.335  0.3700 -0.3175 -0.2275
    1CHTO   O66   87   5.917   5.299   0.210 -0.4253  0.4543  0.0966
    1CHTO  H166   88   5.845   5.329   0.261 -0.7986 -1.2068  0.5975
    1CHTO   C93   89   6.152   5.337   0.159 -0.1384 -0.5054  0.3288
    1CHTO  H180   90   6.120   5.424   0.100  1.9005  0.6535  0.9138
    1CHTO   N16   91   6.173   5.224   0.061  0.1118 -0.0921 -0.2867
    1CHTO  H172   92   6.278   5.200   0.057  0.0319 -0.5387  0.1900
    1CHTO  H173   93   6.146   5.249  -0.040  1.6788  0.2946 -0.6141
    1CHTO   C94   94   6.285   5.373   0.234  0.5939 -0.0789 -0.3511
    1CHTO  H181   95   6.312   5.293   0.303 -1.2471 -1.2658 -0.9504
    1CHTO   O61   96   6.270   5.499   0.299  0.3192  0.2379  0.2172
    1CHTO   C95   97   6.181   5.495   0.409  0.0074 -0.2369 -0.1642
    1CHTO  H182   98   6.221   5.428   0.485 -1.4009 -2.5187 -1.3510
    1CHTO  C106   99   6.155   5.649   0.458 -0.7698 -0.2944 -0.4321
    1CHTO   O69  100   6.288   5.688   0.507 -0.5052  0.0074  0.5962
    1CHTO  H169  101   6.273   5.746   0.579  1.4880 -0.2895  1.2784
    1CHTO   O63  102   6.407   5.394   0.128  0.5531 -0.0579 -0.2568
    1CHTO   C96  103   6.540   5.468   0.183  0.7004 -0.0500 -0.2352
    1CHTO  H183  104   6.531   5.577   0.183  0.1282 -0.0907  2.0189
    1CHTO   C98  105   6.651   5.427   0.085  0.1211  0.4857 -0.1237
    1CHTO  H185  106   6.619   5.445  -0.019 -1.0377  2.1765  0.5189
    1CHTO   O67  107   6.769   5.510   0.104  0.2369 -0.1870  0.2312
    1CHTO  H167  108   6.832   5.489   0.037  1.6408  1.5598  0.9761
    1CHTO  C102  109   6.701   5.271   0.112  0.4022  0.2379 -0.0718
    1CHTO  H189  110   6.809   5.266   0.090  0.2974 -0.5908 -0.4036
    1CHTO   N18  111   6.637   5.170   0.028 -0.0214 -0.0273  0.0375
    1CHTO  H176  112   6.704   5.117  -0.037 -0.0084  1.5912 -1.3031
    1CHTO  H177  113   6.549   5.201  -0.027 -0.2635 -1.7215 -0.5320
    1CHTO  C105  114   6.683   5.233   0.263  0.0991 -0.1088  0.4416
    1CHTO  H192  115   6.587   5.186   0.278 -0.5411  1.4500  1.3613
    1CHTO   O65  116   6.696   5.348   0.344 -0.0862  0.2366 -0.1848
    1CHTO  C100  117   6.581   5.430   0.334 -0.2916  0.0777  0.9624
    1CHTO  H187  118   6.496   5.379   0.382 -1.1998 -0.0491 -0.7613
    1CHTO  C107  119   6.597   5.551   0.421  0.7367  0.3910  0.2271
    1CHTO   O70  120   6.587   5.517   0.558 -0.0588 -0.4379 -0.2923
    1CHTO  H170  121   6.671   5.503   0.597 -0.5139 -0.7444  0.5957
    1CHTO   O57  122   6.793   5.139   0.295 -0.3368  0.1672  0.5388
    1CHTO   C85  123   6.751   5.020   0.369  0.6304 -0.5638  0.2375
    1CHTO  H157  124   6.668   4.981   0.307  1.9208 -1.7200 -0.8065
    1CHTO   C83  125   6.696   5.059   0.504  0.2116 -0.6366 -0.4478
    1CHTO  H155  126   6.607   5.121   0.488 -0.3944 -1.3747  0.0793
    1CHTO   O56  127   6.785   5.145   0.570  0.2909 -0.0365  0.0430
    1CHTO  H135  128   6.848   5.102   0.624  0.7799 -2.5617 -2.4628
    1CHTO   C81  129   6.652   4.936   0.587 -0.1228  0.2167  0.2617
    1CHTO  H153  130   6.568   4.892   0.533  0.4165  2.0146 -2.1665
    1CHTO   N14  131   6.593   4.973   0.718  0.1413 -0.0992 -0.5824
    1CHTO  H141  132   6.575   4.878   0.765  0.7469 -0.7347 -1.6043
    1CHTO  H142  133   6.499   5.024   0.710  0.4092  0.1825 -2.0690
    1CHTO   C79  134   6.772   4.836   0.608 -0.1644 -0.4390 -0.4528
    1CHTO  H151  135   6.738   4.741   0.649 -0.0902 -0.8177 -1.2595
    1CHTO   O52  136   6.834   4.806   0.474 -0.1610 -0.7646  0.0526
    1CHTO   C86  137   6.867   4.919   0.384  0.2580 -0.4010 -0.3801
    1CHTO  H158  138   6.957   4.968   0.427  0.4695  0.5394 -1.8656
    1CHTO   C90  139   6.907   4.866   0.245 -0.2910  0.8891  0.3311
    1CHTO   O60  140   6.998   4.936   0.160  0.0762  0.0022  0.1688
    1CHTO  H138  141   6.956   5.013   0.127  1.1555 -0.6891 -2.9763
    1CHTO   O50  142   6.875   4.890   0.695 -0.3973  0.3012 -0.3214
    1CHTO   C73  143   6.992   4.859   0.768 -0.1066  0.0146  0.4848
    1CHTO  H145  144   7.040   4.772   0.722  1.3384  0.6312  0.7919
    1CHTO   C74  145   6.969   4.811   0.909  0.2410 -0.1721  0.1214
    1CHTO  H146  146   6.895   4.730   0.901  0.7408 -0.5956 -0.2448
    1CHTO   O54  147   7.096   4.755   0.965  0.5338 -0.2539 -0.1140
    1CHTO  H133  148   7.075   4.698   1.037 -1.5349  1.1554  0.4648
    1CHTO   C75  149   6.918   4.926   1.001  0.7665  0.0047  0.3487
    1CHTO  H147  150   6.816   4.953   0.969 -0.0213 -1.5378  1.4719
    1CHTO   N13  151   6.890   4.871   1.137 -0.1530 -0.1656  0.0794
    1CHTO  H139  152   6.953   4.915   1.213 -0.3778  0.5290 -0.1292
    1CHTO  H140  153   6.787   4.887   1.164  0.1551  1.0087  0.5780
    1CHTO   C76  154   7.013   5.057   0.984 -0.3932  0.1289  0.2908
    1CHTO  H148  155   7.105   5.028   1.034 -0.4059  0.6383  0.6011
    1CHTO   O49  156   7.040   5.084   0.840 -0.3826 -0.3612 -0.1787
    1CHTO   C77  157   7.096   4.969   0.771  1.2044  0.5776  0.7087
    1CHTO  H149  158   7.182   4.923   0.820  0.8792 -2.6786 -1.6272
    1CHTO   C88  159   7.147   5.010   0.627 -0.1088  0.8051  0.1542
    1CHTO   O58  160   7.227   5.126   0.618  0.3869  0.0146 -0.2077
    1CHTO  H136  161   7.308   5.116   0.665  1.5245  1.1645 -1.8514
    1CHTO   O51  162   6.939   5.178   1.052 -0.5302 -0.6291  0.0634
    1CHTO   C78  163   6.936   5.322   0.963 -0.5536  0.1861 -0.1517
    1CHTO  H150  164   6.954   5.303   0.855  0.5721 -0.3331  0.1157
    1CHTO   C80  165   7.052   5.412   1.009 -0.4705  0.0402 -0.1341
    1CHTO  H152  166   7.041   5.429   1.118  1.7956 -0.1518  0.1548
    1CHTO   O55  167   7.176   5.339   0.985 -0.2677  0.0837  0.5279
    1CHTO  H134  168   7.246   5.399   0.971  0.0018 -0.6528 -1.5447
    1CHTO   C84  169   7.039   5.555   0.935  0.6220 -0.4192 -0.6599
    1CHTO  H156  170   7.053   5.545   0.827 -1.6700  1.1447 -1.1476
    1CHTO   N15  171   7.150   5.658   0.966  0.3132 -0.3280 -0.7969
    1CHTO  H143  172   7.152   5.662   1.073 -0.4660 -0.4005 -0.7772
    1CHTO  H144  173   7.241   5.615   0.931  0.2481 -2.7802  1.8325
    1CHTO   C87  174   6.900   5.616   0.962 -0.2775 -0.2112  0.0589
    1CHTO  H159  175   6.896   5.631   1.070  1.1503 -0.0100  0.0878
    1CHTO   O53  176   6.802   5.509   0.909 -0.2322 -0.0414  0.6719
    1CHTO   C82  177   6.799   5.384   0.988 -0.1769 -0.0279  1.0586
    1CHTO  H154  178   6.776   5.395   1.094 -1.5781 -0.1097  0.7693
    1CHTO   C89  179   6.694   5.296   0.932  0.8575 -0.3312 -0.1871
    1CHTO   O59  180   6.656   5.187   1.021 -0.3142 -0.4336  0.1877
    1CHTO  H137  181   6.648   5.209   1.112 -1.7069 -2.4812  0.5792
    1CHTO   O45  182   6.876   5.754   0.877  0.2535  0.9334 -0.0949
    1CHTO   C67  183   6.762   5.835   0.916  0.1516 -0.8831  0.1110
    1CHTO  H124  184   6.786   5.932   0.873 -0.7234 -0.7588 -0.0912
    1CHTO   C65  185   6.635   5.783   0.851 -0.0940 -0.4644 -0.8869
    1CHTO  H122  186   6.637   5.674   0.857  0.2898 -0.3887  0.5460
    1CHTO   O44  187   6.642   5.826   0.715  0.2783 -0.1085 -0.0683
    1CHTO  H102  188   6.572   5.792   0.664  1.7909 -1.8711 -1.0305
    1CHTO   C63  189   6.510   5.833   0.938 -0.1744  0.0382 -0.2038
    1CHTO  H120  190   6.495   5.762   1.019 -0.8527 -0.6208 -0.8932
    1CHTO   N11  191   6.384   5.832   0.862 -0.0004 -0.0379  0.8555
    1CHTO  H108  192   6.320   5.915   0.884 -1.7760 -1.1692  0.0253
    1CHTO  H109  193   6.326   5.743   0.873  0.2970 -0.0862  2.0317
    1CHTO   C61  194   6.543   5.975   1.012 -0.5518 -0.2800 -0.1933
    1CHTO  H118  195   6.453   5.998   1.070 -0.5213 -1.3511  0.2854
    1CHTO   O40  196   6.663   5.968   1.105 -0.2438 -0.0274 -0.0670
    1CHTO   C68  197   6.763   5.864   1.078 -0.4599  0.0749 -0.1278
    1CHTO  H125  198   6.740   5.777   1.143  1.3176  1.9794  3.2000
    1CHTO   C72  199   6.906   5.911   1.127 -0.1895  0.4560  0.1210
    1CHTO   O48  200   6.949   6.022   1.050  0.8703  0.2845  0.4040
    1CHTO  H105  201   6.991   6.006   0.967  3.2264  1.6802  1.2710
    1CHTO   O38  202   6.561   6.083   0.915 -0.1343  0.1783 -0.0489
    1CHTO   C55  203   6.514   6.211   0.971 -0.6702  0.1988  0.0360
    1CHTO  H112  204   6.516   6.208   1.081  2.0175 -2.2689  0.0003
    1CHTO   C56  205   6.369   6.231   0.901  0.0696  0.0117  0.3385
    1CHTO  H113  206   6.384   6.201   0.797  3.6996 -1.2416  1.1216
    1CHTO   O42  207   6.274   6.147   0.972  0.5178 -0.3287 -0.2018
    1CHTO  H100  208   6.271   6.160   1.065 -0.5155 -2.3374  0.0577
    1CHTO   C57  209   6.324   6.380   0.913  0.3763 -0.0250  0.1155
    1CHTO  H114  210   6.283   6.387   1.014  1.1903 -0.7207  0.4905
    1CHTO   N10  211   6.211   6.419   0.819 -0.0795 -0.4734 -0.0799
    1CHTO  H106  212   6.206   6.348   0.738  1.9338  1.2941 -1.8430
    1CHTO  H107  213   6.116   6.428   0.869 -0.1877 -1.2879 -0.1358
    1CHTO   C58  214   6.434   6.488   0.896 -0.5301  0.4967  0.1500
    1CHTO  H115  215   6.458   6.499   0.789 -1.0668  1.5955  0.1367
    1CHTO   O37  216   6.555   6.455   0.970 -0.5951 -0.1808  0.2746
    1CHTO   C59  217   6.620   6.327   0.928  0.3393 -0.2889  0.2777
    1CHTO  H116  218   6.646   6.334   0.822 -0.7890 -1.3872 -0.0813
    1CHTO   C70  219   6.758   6.310   0.992  0.1986  0.3060 -0.0920
    1CHTO   O46  220   6.766   6.332   1.132  1.3398 -0.1539 -0.7531
    1CHTO  H103  221   6.853   6.348   1.162  0.6326  2.1561  0.1870
    1CHTO   O39  222   6.376   6.640   0.956 -0.5218  0.2360  0.2698
    1CHTO   C60  223   6.484   6.731   0.941 -0.4473  0.3983  0.4259
    1CHTO  H117  224   6.582   6.683   0.938 -0.3472  0.5670  1.0562
    1CHTO   C62  225   6.485   6.796   0.801  0.3700 -0.2408  0.6117
    1CHTO  H119  226   6.485   6.714   0.725 -2.3218  0.6130 -0.3639
    1CHTO   O43  227   6.356   6.867   0.785  0.0321  0.2518 -0.2966
    1CHTO  H101  228   6.293   6.808   0.749  1.0642 -0.9590 -0.1625
    1CHTO   C66  229   6.610   6.887   0.784  0.5976  0.1270 -0.2607
    1CHTO  H123  230   6.696   6.826   0.810  0.0800 -0.8302 -0.7572
    1CHTO   N12  231   6.638   6.933   0.654 -0.3259 -0.0208  0.3087
    1CHTO  H110  232   6.742   6.961   0.650 -0.6858  1.2856  0.0965
    1CHTO  H111  233   6.566   7.010   0.631 -1.2937 -0.7702  0.7536
    1CHTO   C69  234   6.602   6.999   0.888 -0.4910 -0.2933 -0.0444
    1CHTO  H126  235   6.507   7.054   0.874  0.4332  1.2620 -0.3003
    1CHTO   O41  236   6.607   6.939   1.027  0.1635  0.0284  0.2690
    1CHTO   C64  237   6.490   6.834   1.050  0.8681  0.0042  0.1366
    1CHTO  H121  238   6.394   6.890   1.056  0.1274 -1.3442  1.1824
    1CHTO   C71  239   6.498   6.768   1.187 -0.2100  0.8354 -0.4412
    1CHTO   O47  240   6.497   6.873   1.283  0.1483  0.3208 -0.2335
    1CHTO  H104  241   6.494   6.832   1.367  0.5540  1.0299  0.1352
    1CHTO   O34  242   6.723   7.111   0.876  0.0683 -0.2822 -0.1666
    1CHTO   C49  243   6.864   7.157   0.892  0.4685 -0.2470 -0.3497
    1CHTO   H91  244   6.874   7.251   0.837  0.0532  0.2814  0.4786
    1CHTO   C47  245   6.965   7.061   0.827 -0.3701  0.3914 -0.4759
    1CHTO   H89  246   6.937   7.058   0.720  1.1221  1.0137 -0.8909
    1CHTO   O33  247   6.947   6.929   0.880 -0.9209 -0.3492 -0.2739
    1CHTO   H70  248   6.971   6.926   0.971  1.2407 -1.8240 -0.8664
    1CHTO   C45  249   7.114   7.114   0.841  0.0130 -0.7477  0.6003
    1CHTO   H87  250   7.169   7.034   0.892  3.3238  0.5160 -0.8679
    1CHTO    N8  251   7.185   7.131   0.712 -0.3186 -0.2372 -0.2153
    1CHTO   H75  252   7.222   7.033   0.685 -2.0242 -0.6679 -1.1088
    1CHTO   H76  253   7.272   7.194   0.720  0.3554 -0.6070 -3.8017
    1CHTO   C43  254   7.132   7.237   0.940 -0.0059  0.3842  0.0294
    1CHTO   H85  255   7.236   7.222   0.969 -0.1391  0.0407  0.3260
    1CHTO   O29  256   7.045   7.230   1.055 -0.4031  0.3506 -0.1410
    1CHTO   C50  257   6.906   7.186   1.035  0.1490  0.3409 -0.3327
    1CHTO   H92  258   6.877   7.098   1.093 -0.1638  1.5211  1.3317
    1CHTO   C54  259   6.813   7.297   1.094 -0.4428 -0.8651 -0.5454
    1CHTO   O36  260   6.832   7.312   1.238  0.2806 -0.0528 -0.1138
    1CHTO   H72  261   6.884   7.390   1.247 -1.1477  1.1063 -1.5218
    1CHTO   O27  262   7.117   7.366   0.870  0.3640  0.1933 -0.0852
    1CHTO   C37  263   7.145   7.505   0.840 -0.0153  0.2148  0.2452
    1CHTO   H79  264   7.126   7.572   0.925  1.8034  1.4686 -0.3223
    1CHTO   C38  265   7.300   7.513   0.813  0.3819  0.0212 -0.2384
    1CHTO   H80  266   7.330   7.429   0.750  3.6311  2.3466 -1.9245
    1CHTO   O31  267   7.366   7.505   0.941  0.2641  0.2750 -0.2281
    1CHTO   H68  268   7.336   7.573   0.999  0.1767 -0.4920  0.6259
    1CHTO   C39  269   7.344   7.645   0.739 -0.2106 -0.7851  0.3984
    1CHTO   H81  270   7.314   7.727   0.804 -1.6744  1.0814 -2.5424
    1CHTO    N7  271   7.494   7.656   0.701 -0.6504 -0.3876  0.1194
    1CHTO   H73  272   7.528   7.588   0.624  0.3148  0.3114 -0.0838
    1CHTO   H74  273   7.539   7.754   0.704 -0.6175 -0.3586 -1.2649
    1CHTO   C40  274   7.256   7.671   0.609  0.1503 -0.1468 -0.1365
    1CHTO   H82  275   7.270   7.584   0.544 -0.3347 -1.3848  1.3844
    1CHTO   O26  276   7.117   7.683   0.654 -0.4537  0.1906  0.6233
    1CHTO   C41  277   7.066   7.557   0.713  0.3900  0.3864 -0.4723
    1CHTO   H83  278   7.069   7.474   0.641 -3.9612 -1.5977  1.4800
    1CHTO   C52  279   6.916   7.578   0.742 -0.3020 -0.3393  0.0436
    1CHTO   O35  280   6.829   7.605   0.616  0.1522 -0.0980  0.1294
    1CHTO   H71  281   6.887   7.620   0.544  1.6539 -0.1532  1.3133
    1CHTO   O28  282   7.274   7.795   0.536  0.2398 -0.0821  0.0121
    1CHTO   C42  283   7.250   7.790   0.389  0.0855 -0.8570  0.2309
    1CHTO   H84  284   7.192   7.699   0.373 -0.5266  0.0175 -2.8764
    1CHTO   C44  285   7.377   7.762   0.307 -0.2933  0.1244  0.4892
    1CHTO   H86  286   7.440   7.851   0.306 -2.1047  1.4592  0.9052
    1CHTO   O32  287   7.445   7.648   0.358  0.0807  0.0539 -0.9131
    1CHTO   H69  288   7.388   7.605   0.418  0.4415 -0.0964 -0.6737
    1CHTO   C48  289   7.343   7.723   0.158  0.1734  0.1543  0.5293
    1CHTO   H90  290   7.298   7.624   0.166 -0.7911  0.6193  0.9792
    1CHTO    N9  291   7.466   7.714   0.074  0.0266  0.4849  0.3056
    1CHTO   H77  292   7.476   7.616   0.029  0.2792 -0.7867  3.0328
    1CHTO   H78  293   7.548   7.722   0.143 -0.7285  0.5755  1.1909
    1CHTO   C51  294   7.222   7.818   0.103 -0.6136 -0.7416  0.5522
    1CHTO   H93  295   7.260   7.903   0.046  0.4704 -1.7308 -0.2297
    1CHTO   O30  296   7.121   7.855   0.201  0.1545 -0.0965 -0.4950
    1CHTO   C46  297   7.173   7.907   0.328  0.4451  0.2659 -0.4751
    1CHTO   H88  298   7.245   7.988   0.320  1.4255 -0.4439  0.8991
    1CHTO   C53  299   7.049   7.948   0.412  0.7351  0.3057 -0.6882
    1CHTO   O72  300   7.084   8.005   0.542 -0.0359 -0.1833  0.3970
    1CHTO  H199  301   7.021   7.966   0.598 -0.9905 -0.2932 -0.7334
    1CHTO   O22  302   7.148   7.732   0.017  0.3868  0.5689  0.5754
    1CHTO   C31  303   7.058   7.769  -0.096 -0.2260  0.2506 -0.0698
    1CHTO   H59  304   7.048   7.879  -0.095  0.1865  0.2878 -0.0212
    1CHTO   C29  305   7.108   7.735  -0.236 -0.1660 -0.0008 -0.2455
    1CHTO   H57  306   7.124   7.627  -0.244 -0.9683  0.0124 -2.2609
    1CHTO   O21  307   7.238   7.790  -0.252  0.4522  0.0841 -0.7338
    1CHTO   H37  308   7.298   7.749  -0.193  0.4522  1.3871  0.1957
    1CHTO   C27  309   7.006   7.782  -0.355 -0.0189  0.1043  0.4386
    1CHTO   H55  310   7.002   7.892  -0.359 -2.6277 -0.0187 -3.0322
    1CHTO    N5  311   7.051   7.731  -0.485  0.4023  0.4550 -0.0597
    1CHTO   H43  312   7.098   7.635  -0.476  0.1304  0.2998 -0.2879
    1CHTO   H44  313   7.105   7.811  -0.532  1.2611  0.0463  0.2360
    1CHTO   C25  314   6.860   7.734  -0.318 -0.6406 -0.1043  0.2298
    1CHTO   H53  315   6.849   7.624  -0.322 -2.3880  0.0792 -0.7581
    1CHTO   O17  316   6.835   7.781  -0.181 -0.4778  0.7445  0.2820
    1CHTO   C32  317   6.913   7.708  -0.082 -0.2375  0.8129  0.1627
    1CHTO   H60  318   6.915   7.602  -0.104 -1.8489  0.3604  1.9681
    1CHTO   C36  319   6.837   7.737   0.057 -0.1632 -0.4451 -0.2582
    1CHTO   O25  320   6.895   7.642   0.146  0.4812  0.3068  0.5608
    1CHTO   H40  321   6.985   7.662   0.161  0.7697 -1.2890  1.0785
    1CHTO   O15  322   6.747   7.788  -0.416 -0.1036  0.2063 -0.2367
    1CHTO   C19  323   6.634   7.722  -0.482  0.0660 -0.4518  0.4092
    1CHTO   H47  324   6.573   7.798  -0.533  1.9500 -0.5703 -2.0669
    1CHTO   C20  325   6.685   7.622  -0.594  0.1671 -0.1603 -0.3599
    1CHTO   H48  326   6.759   7.552  -0.551 -0.4032 -0.5359  0.0244
    1CHTO   O19  327   6.747   7.694  -0.701 -0.2354 -0.2140 -0.0461
    1CHTO   H35  328   6.838   7.708  -0.684 -0.7298  0.8818  1.8599
    1CHTO   C21  329   6.571   7.529  -0.654 -0.3862  0.1549 -0.0346
    1CHTO   H49  330   6.506   7.583  -0.722  0.7853 -0.2345 -1.4896
    1CHTO    N4  331   6.631   7.416  -0.732 -0.2034  0.4844 -0.3833
    1CHTO   H41  332   6.702   7.447  -0.807  1.1601 -2.4858 -0.4078
    1CHTO   H42  333   6.555   7.362  -0.788 -0.3671  0.7152 -0.3860
    1CHTO   C22  334   6.482   7.471  -0.545 -0.4844  0.1007  0.4420
    1CHTO   H50  335   6.526   7.395  -0.480 -1.4930 -0.1432  0.8556
    1CHTO   O14  336   6.447   7.574  -0.452 -0.5669 -0.1937 -0.3718
    1CHTO   C23  337   6.547   7.645  -0.380 -0.6974 -0.9067 -0.2420
    1CHTO   H51  338   6.608   7.576  -0.319  0.1013  0.7926  0.9525
    1CHTO   C34  339   6.467   7.729  -0.286  0.1075 -0.2383  0.5679
    1CHTO   O23  340   6.534   7.823  -0.199 -0.0922  0.5432  0.0411
    1CHTO   H38  341   6.587   7.887  -0.242  0.2314  0.5317  0.4197
    1CHTO   O16  342   6.351   7.429  -0.589  0.0851  0.5832 -0.4038
    1CHTO   C24  343   6.346   7.251  -0.616 -0.2773 -0.0669  0.1553
    1CHTO   H52  344   6.444   7.206  -0.635 -0.8930 -1.4234  0.1543
    1CHTO   C26  345   6.254   7.229  -0.739 -0.0852  0.6500  0.0427
    1CHTO   H54  346   6.159   7.284  -0.723 -0.8184 -0.3469 -0.8355
    1CHTO   O20  347   6.315   7.297  -0.851 -0.4155 -0.2990 -0.4484
    1CHTO   H36  348   6.373   7.243  -0.902 -0.2180 -0.9568  0.4704
    1CHTO   C30  349   6.239   7.075  -0.756  0.4671 -0.1583 -0.0342
    1CHTO   H58  350   6.336   7.029  -0.779  1.3014  1.4803  0.1615
    1CHTO    N6  351   6.148   7.044  -0.868 -0.5163 -0.1037 -0.0027
    1CHTO   H45  352   6.183   6.961  -0.928 -1.7961 -1.0283  0.5210
    1CHTO   H46  353   6.135   7.132  -0.930  0.1362 -0.0001  0.0069
    1CHTO   C33  354   6.181   7.014  -0.626 -0.6264 -0.1369  0.1232
    1CHTO   H61  355   6.089   7.066  -0.598  0.2517  0.1608  2.5719
    1CHTO   O18  356   6.276   7.040  -0.522 -0.6682  0.3109  0.0132
    1CHTO   C28  357   6.288   7.178  -0.490 -0.3284  0.0567 -0.0223
    1CHTO   H56  358   6.191   7.221  -0.466 -0.6365 -0.0277 -1.0885
    1CHTO   C35  359   6.366   7.192  -0.360  0.5516 -0.3334  0.4006
    1CHTO   O24  360   6.502   7.148  -0.361 -0.3048 -0.6155 -0.0436
    1CHTO   H39  361   6.546   7.207  -0.303 -1.9946 -0.7686  1.4213
    1CHTO    O9  362   6.144   6.874  -0.627  0.7140  0.0086  0.4615
    1CHTO   C13  363   6.018   6.830  -0.525 -1.0268 -0.0295 -0.3105
    1CHTO   H26  364   5.934   6.901  -0.540 -0.2655  1.1146  0.7453
    1CHTO   C11  365   6.073   6.825  -0.376  0.1534  0.4264 -0.1224
    1CHTO   H24  366   6.079   6.929  -0.341 -1.9874  0.9067 -1.0888
    1CHTO    O8  367   6.204   6.767  -0.372 -0.3606 -0.8564 -0.0245
    1CHTO    H3  368   6.246   6.780  -0.289 -1.4391 -1.5594  0.6444
    1CHTO    C9  369   5.956   6.764  -0.297 -0.3280 -0.3915 -0.3345
    1CHTO   H22  370   5.866   6.822  -0.320 -0.1652  0.3069  0.7401
    1CHTO    N2  371   5.962   6.780  -0.148 -0.4774  0.2742  0.2995
    1CHTO   H10  372   5.857   6.767  -0.125 -0.8457  0.7833 -1.0702
    1CHTO   H11  373   5.987   6.881  -0.117  0.0280  0.3219 -0.2739
    1CHTO    C7  374   5.935   6.618  -0.334  0.0147  0.2987  0.5593
    1CHTO   H20  375   5.861   6.567  -0.269 -1.0588 -0.2877 -1.0724
    1CHTO    O4  376   5.888   6.614  -0.469  0.4131 -0.1048 -0.2439
    1CHTO   C14  377   5.955   6.688  -0.575 -0.1683  0.3950 -0.1524
    1CHTO   H27  378   5.877   6.704  -0.652 -2.0850 -0.9086  1.4785
    1CHTO   C18  379   6.067   6.595  -0.639 -0.7253 -0.1940  0.2567
    1CHTO   O13  380   6.014   6.486  -0.711 -0.5250 -0.5827  0.2430
    1CHTO    H7  381   6.035   6.409  -0.662 -1.0163 -0.7871  0.1355
    1CHTO    O2  382   6.079   6.527  -0.324  0.1840 -0.5115  0.8371
    1CHTO    C1  383   6.116   6.467  -0.197 -0.0507  0.1036  0.5231
    1CHTO   H14  384   6.037   6.484  -0.121 -0.6797  1.0412 -0.3282
    1CHTO    C2  385   6.254   6.510  -0.133 -0.0581 -0.1306 -0.2808
    1CHTO   H15  386   6.322   6.538  -0.215 -1.2879  2.2919 -0.5299
    1CHTO    O6  387   6.231   6.637  -0.071 -0.5475 -0.3717  0.6155
    1CHTO    H1  388   6.313   6.680  -0.053  0.4794 -0.5238 -3.2589
    1CHTO    C3  389   6.314   6.402  -0.032 -0.5818 -0.5878  0.3596
    1CHTO   H16  390   6.250   6.413   0.058  0.2353  0.0774  0.8627
    1CHTO    N1  391   6.456   6.440   0.006  0.3924  0.4094  0.1292
    1CHTO    H8  392   6.516   6.351  -0.009  1.0360  1.0282 -1.0053
    1CHTO    H9  393   6.460   6.468   0.110 -0.6307  0.1397  0.2543
    1CHTO    C4  394   6.292   6.257  -0.089 -0.4702 -0.7338 -0.6072
    1CHTO   H17  395   6.341   6.249  -0.186  2.1471  3.3580  0.2410
    1CHTO    O1  396   6.148   6.243  -0.108 -0.3042  0.2197 -0.2157
    1CHTO    C5  397   6.109   6.315  -0.218 -0.0607 -0.1169 -0.3887
    1CHTO   H18  398   6.176   6.291  -0.301  0.9008 -0.3031  0.4316
    1CHTO   C16  399   5.968   6.276  -0.261 -0.5582 -0.2860  0.0381
    1CHTO   O11  400   5.882   6.261  -0.148  0.0390 -0.0452  0.6655
    1CHTO    H5  401   5.794   6.274  -0.178  0.6831  1.9239 -0.4370
    1CHTO    O3  402   6.320   6.146  -0.003  0.2169 -0.9170 -0.3836
    1CHTO    C6  403   6.330   6.016  -0.069  0.6493 -0.5114  0.5859
    1CHTO   H19  404   6.295   6.010  -0.173  2.1358 -1.2382  0.1200
    1CHTO    C8  405   6.481   5.961  -0.076  0.0220 -0.4983  0.1991
    1CHTO   H21  406   6.517   5.964   0.027  1.1313  0.9286 -0.1987
    1CHTO    O7  407   6.550   6.054  -0.162  0.8628 -0.1288  0.6418
    1CHTO    H2  408   6.635   6.070  -0.127  1.4499 -2.0970  0.1811
    1CHTO   C12  409   6.477   5.811  -0.128  0.7922  0.2620 -0.1647
    1CHTO   H25  410   6.429   5.814  -0.228  2.1258  1.7730 -0.7816
    1CHTO    N3  411   6.617   5.750  -0.156 -0.0343  0.2879 -0.2763
    1CHTO   H12  412   6.695   5.819  -0.184  0.1032  0.2941  0.1228
    1CHTO   H13  413   6.653   5.691  -0.073 -1.0312  0.4932  0.3056
    1CHTO   C15  414   6.392   5.724  -0.029  0.4061  0.0113 -0.3883
    1CHTO   H28  415   6.436   5.725   0.070 -2.4159 -0.6941  0.9300
    1CHTO   O10  416   6.362   5.590  -0.071 -0.5122 -0.3447 -0.3185
    1CHTO    H4  417   6.299   5.589  -0.141 -0.7506 -1.8313 -0.1136
    1CHTO    O5  418   6.257   5.778  -0.033 -0.2767 -0.2599  0.0362
    1CHTO   C10  419   6.238   5.911   0.016 -0.9113  0.5137 -0.9545
    1CHTO   H23  420   6.270   5.905   0.120 -2.1377 -2.8021 -0.6877
    1CHTO   C17  421   6.091   5.951   0.004  0.5436 -0.1117 -0.4055
    1CHTO   O12  422   6.008   5.857   0.072 -0.1443  0.2599  0.1041
    1CHTO    H6  423   5.971   5.800   0.008 -1.1489  0.3238  0.6200
    2CHTO  H203  424   3.421   4.523   1.858  1.2688  1.8953  0.8819
    2CHTO   O82  425   3.402   4.577   1.784  0.2364  0.4438  0.0475
    2CHTO  C123  426   3.509   4.599   1.695  0.6273  0.6772  0.0805
    2CHTO  H227  427   3.564   4.505   1.679 -0.9026 -0.3974  0.9523
    2CHTO   O77  428   3.439   4.632   1.562 -0.1716  0.1489 -0.3119
    2CHTO  C118  429   3.532   4.649   1.452 -0.1150  0.4769 -0.0362
    2CHTO  H222  430   3.599   4.562   1.442 -1.4141 -0.5273 -0.1015
    2CHTO  C125  431   3.450   4.668   1.323  0.4032 -0.1568 -0.2272
    2CHTO   O84  432   3.393   4.542   1.291 -0.0024 -0.3073  0.2844
    2CHTO  H205  433   3.314   4.555   1.241  0.0602 -0.3395  0.1757
    2CHTO  C114  434   3.619   4.775   1.483  0.5628 -0.4002 -0.8365
    2CHTO  H218  435   3.555   4.863   1.486 -0.0946 -0.8676 -0.9477
    2CHTO  C116  436   3.697   4.759   1.621  0.1209  0.4858  0.1489
    2CHTO  H220  437   3.784   4.690   1.609  0.9289  1.1813  1.8153
    2CHTO   O79  438   3.757   4.883   1.657 -0.2460 -0.2196 -1.1716
    2CHTO  H201  439   3.802   4.874   1.739 -2.3063  2.0816  0.2834
    2CHTO  C120  440   3.595   4.720   1.741  0.0372  0.3419  0.0814
    2CHTO  H224  441   3.536   4.811   1.765 -1.8961 -1.1897  1.2568
    2CHTO   N21  442   3.664   4.696   1.870 -0.2768 -0.4994 -0.1383
    2CHTO  H211  443   3.600   4.628   1.924 -1.1175  1.1411  1.0019
    2CHTO  H212  444   3.764   4.656   1.861 -0.1896 -0.0873 -1.0649
    2CHTO   O75  445   3.711   4.791   1.371  0.3266  0.3632  0.0819
    2CHTO  C112  446   3.691   4.949   1.285 -0.1421 -0.6364  0.2540
    2CHTO  H216  447   3.735   5.018   1.359  0.9666  0.6693 -1.5717
    2CHTO   O73  448   3.552   4.975   1.264  0.0535 -0.2095  0.5032
    2CHTO  C113  449   3.505   5.099   1.206 -0.0476 -0.1354  0.6199
    2CHTO  H217  450   3.530   5.183   1.273 -0.0230  0.7923 -0.5379
    2CHTO  C124  451   3.351   5.090   1.199 -0.2043  0.8236  0.1473
    2CHTO   O83  452   3.291   5.216   1.179  0.3404 -0.1458  0.2384
    2CHTO  H204  453   3.344   5.273   1.125 -0.6083 -0.0249 -0.5826
    2CHTO  C109  454   3.566   5.107   1.061 -0.5981  0.1210  0.6748
    2CHTO  H213  455   3.520   5.024   1.005 -0.9896  2.5268 -2.7472
    2CHTO  C110  456   3.723   5.085   1.067  1.0034  0.2315 -0.1222
    2CHTO  H214  457   3.768   5.172   1.113  0.2203  0.0163  1.0666
    2CHTO   O78  458   3.763   5.077   0.929 -0.0447  0.0399  0.5255
    2CHTO  H200  459   3.749   5.157   0.883  1.3250 -0.2029 -0.3465
    2CHTO  C111  460   3.763   4.956   1.146 -0.5094  0.1713  0.1843
    2CHTO  H215  461   3.724   4.872   1.087  0.1559  0.4691 -0.6868
    2CHTO   N19  462   3.907   4.937   1.156 -0.2235  0.4481 -0.2801
    2CHTO  H207  463   3.953   4.958   1.251  1.0356  1.9284 -1.1898
    2CHTO  H208  464   3.962   4.982   1.075  0.4076  0.7593  0.3182
    2CHTO   O74  465   3.526   5.233   0.994 -0.2424  0.0558 -0.1191
    2CHTO  C115  466   3.487   5.212   0.838 -0.1180  0.8214  1.2253
    2CHTO  H219  467   3.494   5.108   0.807 -1.1968  0.9722  0.4402
    2CHTO   O76  468   3.342   5.241   0.811  0.2162  0.0362 -0.2642
    2CHTO  C122  469   3.311   5.380   0.814  0.2652 -0.4591 -0.3318
    2CHTO  H226  470   3.302   5.397   0.921  3.7907 -1.0439  0.1059
    2CHTO  C126  471   3.170   5.405   0.753 -0.1143  0.1016  0.1461
    2CHTO   O85  472   3.178   5.390   0.609 -0.0213 -0.2559 -0.1152
    2CHTO  H206  473   3.263   5.399   0.569  0.6844  0.4664  1.5089
    2CHTO  C121  474   3.419   5.479   0.761 -0.0075  0.0816  0.1376
    2CHTO  H225  475   3.367   5.556   0.700  1.3246  0.2579 -0.7899
    2CHTO   O81  476   3.494   5.552   0.862  0.2937  0.2105 -0.0789
    2CHTO  H202  477   3.437   5.612   0.904  0.6224  0.6232 -0.2211
    2CHTO  C119  478   3.507   5.405   0.666  0.0087 -0.1403 -0.1822
    2CHTO  H223  479   3.445   5.363   0.587 -0.9222  3.6313 -1.5366
    2CHTO  C117  480   3.583   5.293   0.742  1.2609 -0.4158 -0.1267
    2CHTO  H221  481   3.663   5.332   0.806 -0.5459 -1.0015  2.5959
    2CHTO   N20  482   3.650   5.200   0.638  0.4369 -0.8021 -0.0258
    2CHTO  H209  483   3.594   5.195   0.546  3.0203 -1.8846 -1.5845
    2CHTO  H210  484   3.741   5.253   0.612  1.1201 -1.7244  0.4771
    2CHTO   O80  485   3.607   5.498   0.582  0.2143 -0.1600 -0.4187
    2CHTO  C103  486   3.571   5.553   0.434  0.3835  0.0632 -0.0997
    2CHTO  H190  487   3.662   5.545   0.373  1.5177  3.8407  0.9788
    2CHTO  C101  488   3.451   5.481   0.366 -0.4157 -0.3549 -0.8898
    2CHTO  H188  489   3.370   5.486   0.439 -0.5232  1.5305 -1.1197
    2CHTO   O68  490   3.481   5.334   0.324  0.3785 -0.6475  0.1317
    2CHTO  H168  491   3.405   5.308   0.275  0.6206 -2.2840  0.6015
    2CHTO   C99  492   3.405   5.561   0.235  0.2263 -0.2514 -0.5958
    2CHTO  H186  493   3.483   5.561   0.157  0.9913  1.5359  0.1294
    2CHTO   N17  494   3.280   5.505   0.166  0.3255  0.2545  0.5887
    2CHTO  H174  495   3.315   5.432   0.096 -0.7187  0.7883 -0.4995
    2CHTO  H175  496   3.227   5.584   0.115 -3.1219 -1.2733  1.6738
    2CHTO   C97  497   3.388   5.715   0.273 -0.4483 -0.2722  0.4473
    2CHTO  H184  498   3.292   5.735   0.322 -0.6271  0.3217 -0.1522
    2CHTO   O64  499   3.502   5.771   0.344 -0.7409 -0.0843  0.3537
    2CHTO  C104  500   3.548   5.710   0.465  0.2295  0.0227 -0.0348
    2CHTO  H191  501   3.480   5.715   0.551  1.9658 -0.4279  1.3938
    2CHTO  C108  502   3.677   5.777   0.505 -0.2086 -1.1493 -0.7175
    2CHTO   O71  503   3.654   5.915   0.537 -0.2784 -0.2415 -0.0141
    2CHTO  H171  504   3.728   5.956   0.498 -0.0550 -0.2276  0.4199
    2CHTO   O62  505   3.382   5.794   0.157 -0.4223 -0.4306  0.1330
    2CHTO   C91  506   3.359   5.936   0.165  0.0688 -0.7569  0.0248
    2CHTO  H178  507   3.396   5.971   0.261 -0.7247 -1.7500  0.7055
    2CHTO   C92  508   3.206   5.970   0.179 -0.3961 -0.0098  0.0181
    2CHTO  H179  509   3.167   5.908   0.261  0.5596 -0.2902  0.2666
    2CHTO   O66  510   3.189   6.102   0.225  0.2451 -0.2132  0.1693
    2CHTO  H166  511   3.102   6.138   0.226  0.6222  0.7186  0.7257
    2CHTO   C93  512   3.130   5.943   0.036 -0.2847  0.2443  0.0668
    2CHTO  H180  513   3.032   5.992   0.044 -0.4163 -0.0195  0.1146
    2CHTO   N16  514   3.108   5.796   0.010 -0.8522 -0.5483 -0.4374
    2CHTO  H172  515   3.149   5.728   0.083  0.7810  1.5823  0.6732
    2CHTO  H173  516   3.005   5.771  -0.013  0.0618 -1.1212 -4.0970
    2CHTO   C94  517   3.207   6.011  -0.084  0.1480 -0.4963 -0.0346
    2CHTO  H181  518   3.251   5.934  -0.147  0.4510 -0.7771  0.5257
    2CHTO   O61  519   3.313   6.090  -0.038  0.3255  0.5209  0.0554
    2CHTO   C95  520   3.407   6.031   0.048 -0.1443  1.0151  0.3269
    2CHTO  H182  521   3.480   5.978  -0.014  0.8552  1.4729  1.0819
    2CHTO  C106  522   3.489   6.150   0.101  0.5255 -0.2341  0.2198
    2CHTO   O69  523   3.597   6.110   0.186 -0.0297 -0.7230 -0.3142
    2CHTO  H169  524   3.567   6.091   0.273  0.8556 -0.8217 -0.0203
    2CHTO   O63  525   3.110   6.094  -0.171  0.2683  0.1001 -1.0687
    2CHTO   C96  526   3.072   6.237  -0.118  0.7753 -0.9741  0.1152
    2CHTO  H183  527   3.079   6.232  -0.009  1.6093 -0.6140  0.0806
    2CHTO   C98  528   2.919   6.268  -0.147  0.2513  0.0832  0.0686
    2CHTO  H185  529   2.905   6.254  -0.256  0.2222 -1.5015  0.2605
    2CHTO   O67  530   2.832   6.165  -0.080  0.0072  0.0034  0.0811
    2CHTO  H167  531   2.849   6.080  -0.116  1.3467  0.4598 -0.3836
    2CHTO  C102  532   2.889   6.419  -0.109  0.3433  0.6713 -0.5192
    2CHTO  H189  533   2.925   6.431  -0.006 -1.7370  1.6470  0.1290
    2CHTO   N18  534   2.745   6.462  -0.105  0.1230  0.8292  0.0642
    2CHTO  H176  535   2.676   6.385  -0.136 -0.3073  1.8811 -1.6926
    2CHTO  H177  536   2.731   6.545  -0.174  1.6340  0.2863 -0.9087
    2CHTO  C105  537   2.978   6.511  -0.192  0.6615 -0.2556 -0.5316
    2CHTO  H192  538   2.921   6.559  -0.272  1.9778  0.6625 -0.9308
    2CHTO   O65  539   3.101   6.455  -0.247 -0.2865  0.3329  0.6945
    2CHTO  C100  540   3.168   6.350  -0.177 -0.5529  0.0469 -0.1125
    2CHTO  H187  541   3.236   6.296  -0.244 -0.1536  0.9497 -0.4433
    2CHTO  C107  542   3.262   6.416  -0.068  0.6683 -0.2753 -0.2185
    2CHTO   O70  543   3.197   6.462   0.053  0.3825  0.1563  0.4096
    2CHTO  H170  544   3.265   6.476   0.115 -0.9628  1.3896  1.6327
    2CHTO   O57  545   3.008   6.628  -0.102  0.4691 -0.4897  0.0712
    2CHTO   C85  546   3.018   6.770  -0.120  0.2139  0.7428  0.1611
    2CHTO  H157  547   2.926   6.804  -0.172 -0.9144 -1.0425  0.9405
    2CHTO   C83  548   3.130   6.795  -0.220  0.0054 -0.0360 -0.5925
    2CHTO  H155  549   3.102   6.750  -0.315 -1.6875 -1.8547  0.7563
    2CHTO   O56  550   3.240   6.709  -0.184  0.5595  0.7640 -0.5498
    2CHTO  H135  551   3.295   6.703  -0.260  0.6314  0.6179 -0.4885
    2CHTO   C81  552   3.156   6.946  -0.230 -0.3065  0.5222 -0.1770
    2CHTO  H153  553   3.062   6.990  -0.261 -0.1430 -0.9692 -2.9269
    2CHTO   N14  554   3.264   6.983  -0.332  0.1428  0.1947 -0.3929
    2CHTO  H141  555   3.224   6.996  -0.430 -0.1878  0.2768 -0.2481
    2CHTO  H142  556   3.318   7.068  -0.296  0.3293 -1.0566  2.5125
    2CHTO   C79  557   3.196   7.006  -0.089 -0.3700 -0.0190  0.8154
    2CHTO  H151  558   3.222   7.111  -0.104 -1.7290  0.6532  3.0494
    2CHTO   O52  559   3.088   6.989   0.009 -0.0570  0.4454  0.2884
    2CHTO   C86  560   3.044   6.845   0.016  0.0808 -0.8466  0.4617
    2CHTO  H158  561   3.122   6.796   0.078 -0.5066 -0.2548  1.6805
    2CHTO   C90  562   2.907   6.843   0.100 -0.0094 -0.2642 -0.2066
    2CHTO   O60  563   2.908   6.883   0.237  0.4056  0.0850 -0.1287
    2CHTO  H138  564   2.860   6.963   0.247 -0.3210 -0.3982  0.3412
    2CHTO   O50  565   3.321   6.955  -0.039  0.3330  0.0619 -0.1919
    2CHTO   C73  566   3.436   6.968   0.040 -1.1534 -0.4993  0.3219
    2CHTO  H145  567   3.485   7.062   0.010  0.6119 -1.3026  0.6292
    2CHTO   C74  568   3.548   6.863   0.026 -0.1894  0.3834  0.6984
    2CHTO  H146  569   3.578   6.862  -0.080 -1.2574  1.3874  0.3810
    2CHTO   O54  570   3.670   6.901   0.096 -0.2386  0.0812  1.1317
    2CHTO  H133  571   3.744   6.857   0.059 -2.1212 -1.1461 -1.2912
    2CHTO   C75  572   3.486   6.720   0.070 -0.0304 -0.3565 -0.2594
    2CHTO  H147  573   3.385   6.709   0.028 -0.1757 -2.7585  0.6251
    2CHTO   N13  574   3.569   6.600   0.046  0.2399  0.2937  0.1401
    2CHTO  H139  575   3.569   6.580  -0.060  0.7600 -0.0647  0.2083
    2CHTO  H140  576   3.521   6.516   0.095 -0.3199 -0.1482 -1.1324
    2CHTO   C76  577   3.446   6.739   0.225  0.2921 -0.4189 -0.0252
    2CHTO  H148  578   3.533   6.762   0.287 -1.1122 -0.3127  1.9458
    2CHTO   O49  579   3.351   6.855   0.237 -0.1525  0.0367  0.2288
    2CHTO   C77  580   3.411   6.979   0.195 -0.6582  0.3736 -0.3376
    2CHTO  H149  581   3.508   6.991   0.243  0.9235 -1.2786 -3.0178
    2CHTO   C88  582   3.319   7.098   0.233  0.2703 -0.3633  0.2222
    2CHTO   O58  583   3.298   7.124   0.397  0.0710 -0.1879 -0.6154
    2CHTO  H136  584   3.243   7.055   0.428 -0.6156  1.1332  1.1435
    2CHTO   O51  585   3.349   6.621   0.283 -0.0178  0.2244 -0.2070
    2CHTO   C78  586   3.398   6.562   0.411 -0.0977  0.5764 -0.0593
    2CHTO  H150  587   3.495   6.608   0.441  0.5451 -0.6455 -0.2126
    2CHTO   C80  588   3.416   6.411   0.395 -0.0021  0.4055 -0.1620
    2CHTO  H152  589   3.331   6.363   0.343  0.8419 -2.2618  0.8517
    2CHTO   O55  590   3.533   6.400   0.312 -0.0949 -0.3138  0.3595
    2CHTO  H134  591   3.538   6.316   0.270  2.2328  0.1591 -0.3959
    2CHTO   C84  592   3.434   6.344   0.534  0.4648  0.0931 -0.2747
    2CHTO  H156  593   3.532   6.365   0.577 -0.0078 -0.6159  1.1861
    2CHTO   N15  594   3.431   6.194   0.511  1.1076 -0.0035  0.0598
    2CHTO  H143  595   3.330   6.177   0.480  1.2010 -0.7812  0.1751
    2CHTO  H144  596   3.451   6.144   0.604 -0.0611  2.7455  1.8398
    2CHTO   C87  597   3.320   6.392   0.626 -0.1966  0.4666  0.0687
    2CHTO  H159  598   3.221   6.351   0.604  0.5056 -1.5870  0.6313
    2CHTO   O53  599   3.324   6.535   0.638  0.3779  0.3455 -0.1767
    2CHTO   C82  600   3.294   6.592   0.515  0.5139 -0.4801  0.2460
    2CHTO  H154  601   3.194   6.567   0.480  1.1456 -0.5485 -1.5978
    2CHTO   C89  602   3.303   6.752   0.538  0.0081 -0.5666  0.5330
    2CHTO   O59  603   3.188   6.797   0.607 -0.0234  0.1789  0.3008
    2CHTO  H137  604   3.132   6.840   0.545 -0.4715 -1.3435 -0.3709
    2CHTO   O45  605   3.350   6.336   0.763  0.3528 -0.2150 -0.1506
    2CHTO   C67  606   3.261   6.371   0.872  0.2967 -0.5727  0.7250
    2CHTO  H124  607   3.266   6.480   0.885 -0.6298 -0.3579 -0.6752
    2CHTO   C65  608   3.111   6.326   0.853 -0.4395  0.4400  0.7175
    2CHTO  H122  609   3.117   6.258   0.768 -0.7220  1.5629 -0.2134
    2CHTO   O44  610   3.024   6.433   0.821 -0.3165 -0.5736  0.5000
    2CHTO  H102  611   2.935   6.408   0.809 -0.3339 -0.1916 -0.2268
    2CHTO   C63  612   3.068   6.228   0.976  0.1980 -0.3562 -0.2450
    2CHTO  H120  613   3.128   6.138   0.971  0.0258 -0.4858 -0.0017
    2CHTO   N11  614   2.937   6.168   0.964 -0.0857  0.3093 -0.2582
    2CHTO  H108  615   2.943   6.082   0.901 -1.5970  0.4901 -0.6484
    2CHTO  H109  616   2.872   6.240   0.918 -0.3492  0.8313  0.9074
    2CHTO   C61  617   3.104   6.300   1.110 -0.8213 -0.3078 -0.3969
    2CHTO  H118  618   3.084   6.230   1.192 -2.2300 -0.3335 -0.7409
    2CHTO   O40  619   3.239   6.335   1.117  0.0248 -0.4189 -0.2446
    2CHTO   C68  620   3.327   6.316   1.005 -0.3176  0.1891  0.2277
    2CHTO  H125  621   3.343   6.206   1.000  0.1414  0.2227  0.8388
    2CHTO   C72  622   3.469   6.379   1.043 -0.8847  0.8873  0.6166
    2CHTO   O48  623   3.457   6.520   1.061  0.6185 -0.0449  0.1433
    2CHTO  H105  624   3.531   6.545   1.113  0.6562 -0.4420  0.2800
    2CHTO   O38  625   3.029   6.411   1.137  0.2541 -0.9281  0.7965
    2CHTO   C55  626   3.068   6.510   1.234 -0.2987  0.3530 -0.6715
    2CHTO  H112  627   3.175   6.534   1.230  0.3450 -1.6049  2.7879
    2CHTO   C56  628   3.026   6.461   1.379  0.1037 -0.0096  0.2329
    2CHTO  H113  629   2.927   6.415   1.373  0.8494 -1.4704 -1.1658
    2CHTO   O42  630   3.103   6.349   1.425 -0.0292 -0.0425  0.4030
    2CHTO  H100  631   3.187   6.388   1.440  0.2534 -0.1321 -0.9134
    2CHTO   C57  632   3.029   6.575   1.496  0.1514 -0.2545 -0.1559
    2CHTO  H114  633   3.133   6.583   1.529  0.9981 -1.6527 -2.3824
    2CHTO   N10  634   2.962   6.541   1.625  0.0214 -0.1509 -0.1025
    2CHTO  H106  635   2.867   6.497   1.600  0.4614 -0.5149 -1.1157
    2CHTO  H107  636   3.022   6.467   1.675  2.1632  0.3434 -1.8987
    2CHTO   C58  637   2.988   6.715   1.440  0.1434 -0.7468 -0.0243
    2CHTO  H115  638   2.877   6.725   1.445  0.0250 -1.7101 -0.4252
    2CHTO   O37  639   3.041   6.743   1.311  0.2920  0.3432 -0.4212
    2CHTO   C59  640   3.005   6.651   1.209  0.5955 -0.2906 -0.5500
    2CHTO  H116  641   2.897   6.646   1.208  0.5737  0.1109 -0.1339
    2CHTO   C70  642   3.055   6.722   1.082 -0.2535  0.0943  0.6761
    2CHTO   O46  643   3.016   6.860   1.068  0.1394 -0.2521 -0.5157
    2CHTO  H103  644   2.995   6.878   0.979  1.6199 -0.1447 -0.8395
    2CHTO   O39  645   3.054   6.831   1.527 -0.3317  0.0001 -0.0177
    2CHTO   C60  646   2.984   6.960   1.516  0.3788 -0.2114 -0.0928
    2CHTO  H117  647   2.923   6.973   1.427  0.6274  0.8390 -0.1146
    2CHTO   C62  648   2.883   6.970   1.639 -0.1615  0.2309  0.0813
    2CHTO  H119  649   2.800   6.897   1.622  1.5452 -1.8030  0.2153
    2CHTO   O43  650   2.959   6.936   1.754  0.5198  1.0381  0.1027
    2CHTO  H101  651   2.971   6.843   1.745  0.7016  1.1393 -0.7593
    2CHTO   C66  652   2.826   7.115   1.655 -0.4567 -1.0837  0.0477
    2CHTO  H123  653   2.758   7.134   1.572 -0.5322  3.9121  1.0721
    2CHTO   N12  654   2.731   7.143   1.774 -0.4595  0.4714  0.1789
    2CHTO  H110  655   2.777   7.108   1.865 -1.0816 -2.1307 -0.4649
    2CHTO  H111  656   2.650   7.074   1.754 -0.3320  0.0365  1.1382
    2CHTO   C69  657   2.934   7.228   1.641 -0.5024  0.5163 -0.1924
    2CHTO  H126  658   2.995   7.235   1.734 -0.6066  0.1358 -0.0969
    2CHTO   O41  659   3.039   7.206   1.515  0.3627 -0.2736 -0.4278
    2CHTO   C64  660   3.096   7.068   1.514 -1.1290  0.2641 -0.6070
    2CHTO  H121  661   3.166   7.045   1.597 -0.1725  0.1311 -1.4444
    2CHTO   C71  662   3.178   7.056   1.380  0.3586 -0.3436  0.4674
    2CHTO   O47  663   3.113   7.087   1.257  0.3906 -0.3950  0.2568
    2CHTO  H104  664   3.053   7.157   1.272  1.5266  0.9366 -1.1891
    2CHTO   O34  665   2.870   7.366   1.625  0.1793 -0.7775  0.0602
    2CHTO   C49  666   2.754   7.448   1.546 -0.4349 -0.6394  0.1761
    2CHTO   H91  667   2.658   7.414   1.584 -0.6991  1.4099  1.4174
    2CHTO   C47  668   2.755   7.425   1.396 -0.5225 -0.0991  0.3466
    2CHTO   H89  669   2.666   7.478   1.358  0.2555  1.4940  0.7065
    2CHTO   O33  670   2.738   7.280   1.379 -0.0896 -0.8531 -0.1229
    2CHTO   H70  671   2.648   7.259   1.362  0.3743 -2.6012 -0.5345
    2CHTO   C45  672   2.889   7.484   1.333 -0.3716  0.3324 -0.0225
    2CHTO   H87  673   2.976   7.450   1.392  0.1008  1.9207  0.2148
    2CHTO    N8  674   2.914   7.447   1.190  0.0110 -0.2463 -0.1337
    2CHTO   H75  675   2.922   7.341   1.174 -0.2440 -0.5097  1.4523
    2CHTO   H76  676   2.999   7.509   1.165 -0.0928  0.5144  1.3191
    2CHTO   C43  677   2.885   7.645   1.360 -0.6864  0.5034 -0.2009
    2CHTO   H85  678   2.976   7.687   1.316  0.1046 -2.1167 -1.1705
    2CHTO   O29  679   2.869   7.663   1.498 -0.8396 -0.0469  0.5526
    2CHTO   C50  680   2.766   7.599   1.570  0.0826  0.3546 -0.4597
    2CHTO   H92  681   2.792   7.609   1.677  3.8482 -0.4140 -1.2126
    2CHTO   C54  682   2.632   7.674   1.564  0.1838  0.1723 -0.2416
    2CHTO   O36  683   2.626   7.792   1.648  0.2079 -0.2355 -0.4043
    2CHTO   H72  684   2.575   7.773   1.725  1.7054 -3.2040 -0.0528
    2CHTO   O27  685   2.780   7.713   1.293  0.3656 -0.7913  0.2487
    2CHTO   C37  686   2.745   7.813   1.193 -0.0809  0.2880 -0.2836
    2CHTO   H79  687   2.692   7.763   1.111 -1.1980  0.4072  0.3504
    2CHTO   C38  688   2.641   7.915   1.249 -0.0789 -0.9888 -0.0924
    2CHTO   H80  689   2.677   7.960   1.343 -1.8064 -3.0485  1.6269
    2CHTO   O31  690   2.519   7.845   1.266 -0.0458  0.1433  0.0178
    2CHTO   H68  691   2.516   7.805   1.351  0.0060  0.9348  0.4010
    2CHTO   C39  692   2.624   8.036   1.152  0.1255  0.4303  0.1513
    2CHTO   H81  693   2.576   7.993   1.063  0.4752  1.8080 -0.7089
    2CHTO    N7  694   2.535   8.139   1.208 -0.1295  0.1763  0.3308
    2CHTO   H73  695   2.524   8.227   1.146 -0.2727 -0.6821 -0.8821
    2CHTO   H74  696   2.441   8.090   1.229 -0.4516 -0.8420 -3.1730
    2CHTO   C40  697   2.763   8.110   1.127 -0.6610 -0.5070  0.1193
    2CHTO   H82  698   2.797   8.137   1.227  2.3242 -1.4257 -0.5829
    2CHTO   O26  699   2.850   8.012   1.067 -0.2091  0.4697  0.1121
    2CHTO   C41  700   2.873   7.885   1.141 -0.9336  0.1219 -0.4033
    2CHTO   H83  701   2.941   7.907   1.225 -0.3175 -1.9775 -0.3386
    2CHTO   C52  702   2.956   7.793   1.049 -0.5143  0.1803 -0.0342
    2CHTO   O35  703   3.078   7.868   0.992 -0.5810 -0.2765  0.2393
    2CHTO   H71  704   3.152   7.853   1.048 -0.4842 -0.3055  0.1029
    2CHTO   O28  705   2.773   8.219   1.037 -0.4898 -0.4786  0.1364
    2CHTO   C42  706   2.894   8.304   1.030  0.1872 -1.1677 -0.9934
    2CHTO   H84  707   2.874   8.347   0.932 -1.4137  0.5914  0.0684
    2CHTO   C44  708   3.039   8.244   1.029  0.0309  0.1999  0.6521
    2CHTO   H86  709   3.046   8.171   1.110  0.9872 -0.2957  0.1283
    2CHTO   O32  710   3.044   8.163   0.909 -0.0292  0.4226  0.2174
    2CHTO   H69  711   3.105   8.095   0.930  0.0167  0.6116  0.7021
    2CHTO   C48  712   3.148   8.346   1.038 -0.2734  0.0821  0.5786
    2CHTO   H90  713   3.138   8.412   0.951  1.2789 -0.7817 -0.2770
    2CHTO    N9  714   3.288   8.285   1.032  0.0689 -0.3684  0.1838
    2CHTO   H77  715   3.303   8.200   1.097  1.3902  1.4749  2.3942
    2CHTO   H78  716   3.357   8.362   1.062 -0.7209 -0.0846  1.3415
    2CHTO   C51  717   3.127   8.427   1.168  0.0902 -1.2248 -0.2238
    2CHTO   H93  718   3.107   8.355   1.248  0.0472  1.2228  2.0290
    2CHTO   O30  719   3.016   8.516   1.142 -0.2262  0.7697 -0.5073
    2CHTO   C46  720   2.872   8.419   1.135  0.0182 -0.2196  0.0695
    2CHTO   H88  721   2.859   8.382   1.237 -0.3870  0.5537  0.3075
    2CHTO   C53  722   2.756   8.518   1.113  0.3549 -0.2507  0.6722
    2CHTO   O72  723   2.632   8.459   1.098  0.0345 -0.3611  0.0644
    2CHTO  H199  724   2.571   8.528   1.082  2.4010  1.7558 -0.0070
    2CHTO   O22  725   3.222   8.523   1.213 -0.4019 -0.0684  0.0259
    2CHTO   C31  726   3.246   8.525   1.359  0.1529 -0.1164  0.0092
    2CHTO   H59  727   3.320   8.607   1.367 -0.8915  0.9202 -0.8457
    2CHTO   C29  728   3.121   8.565   1.445  0.3431  0.4540  0.9186
    2CHTO   H57  729   3.041   8.492   1.424 -0.4127  1.3131  0.7662
    2CHTO   O21  730   3.077   8.696   1.398 -0.0427  0.1019 -0.5781
    2CHTO   H37  731   3.057   8.697   1.306 -0.4141  0.7018 -0.4890
    2CHTO   C27  732   3.152   8.566   1.596  0.6196 -0.0375 -0.1073
    2CHTO   H55  733   3.225   8.647   1.612 -0.3930  1.1656 -1.3689
    2CHTO    N5  734   3.031   8.598   1.674 -0.6680  0.6537 -0.1137
    2CHTO   H43  735   3.033   8.689   1.732 -1.0200  0.4164  0.2717
    2CHTO   H44  736   2.947   8.577   1.610  1.1057  0.0951 -2.3199
    2CHTO   C25  737   3.212   8.425   1.630  0.2475 -0.6204  0.0701
    2CHTO   H53  738   3.139   8.353   1.591 -0.7424  0.2440  0.3061
    2CHTO   O17  739   3.335   8.420   1.552  0.2742  0.0451 -0.4073
    2CHTO   C32  740   3.318   8.396   1.414  0.4614  0.5340 -0.7347
    2CHTO   H60  741   3.254   8.311   1.392  0.8524  0.5361 -1.8960
    2CHTO   C36  742   3.457   8.394   1.345  0.4344 -0.6319 -0.0795
    2CHTO   O25  743   3.539   8.294   1.403  0.4937 -0.2230 -0.4135
    2CHTO   H40  744   3.616   8.278   1.352 -0.4682  0.3349 -2.0692
    2CHTO   O15  745   3.244   8.401   1.774  0.3434  0.0116 -0.1115
    2CHTO   C19  746   3.242   8.297   1.880  0.0922 -0.6009 -0.1842
    2CHTO   H47  747   3.153   8.237   1.860  0.0530 -0.1713 -1.3119
    2CHTO   C20  748   3.365   8.207   1.877  0.2132 -0.4354 -0.4587
    2CHTO   H48  749   3.457   8.267   1.871 -1.9686  2.9124 -1.8224
    2CHTO   O19  750   3.356   8.128   1.759 -0.2797  0.2933  0.8652
    2CHTO   H35  751   3.430   8.145   1.704 -0.9518  0.1230 -0.1012
    2CHTO   C21  752   3.382   8.109   2.005  0.5139  0.1510 -1.0963
    2CHTO   H49  753   3.296   8.042   2.006 -1.6549  2.8475  0.0174
    2CHTO    N4  754   3.508   8.032   2.003  1.1444  0.2676 -0.3952
    2CHTO   H41  755   3.587   8.105   1.990  3.1995 -1.0617  3.7548
    2CHTO   H42  756   3.519   7.968   2.089 -0.3501  0.7295  0.1444
    2CHTO   C22  757   3.359   8.195   2.131 -0.1303 -0.5705  1.0482
    2CHTO   H50  758   3.438   8.269   2.136  0.2277 -0.4748 -3.5163
    2CHTO   O14  759   3.231   8.260   2.130 -0.1078 -0.6377  0.2152
    2CHTO   C23  760   3.224   8.359   2.025  0.2695 -0.4051 -0.4442
    2CHTO   H51  761   3.306   8.427   2.051 -0.2060  0.3435 -0.9053
    2CHTO   C34  762   3.084   8.414   2.057 -0.1463  0.0288 -0.0306
    2CHTO   O23  763   2.981   8.334   2.000  0.1666 -0.0487  0.1112
    2CHTO   H38  764   2.972   8.336   1.907  2.7315 -1.9012 -0.2153
    2CHTO   O16  765   3.366   8.123   2.256 -0.0269  0.1639  0.1522
    2CHTO   C24  766   3.446   8.212   2.395 -0.1646  0.3703  0.0706
    2CHTO   H52  767   3.438   8.319   2.380 -0.9940  0.0017 -2.4824
    2CHTO   C26  768   3.589   8.169   2.418  0.3230  0.7363  0.3517
    2CHTO   H54  769   3.590   8.058   2.425 -2.4710  0.7037  0.9609
    2CHTO   O20  770   3.655   8.203   2.297  0.2454  0.3408 -0.0991
    2CHTO   H36  771   3.746   8.228   2.305  0.7561 -1.3225 -0.5868
    2CHTO   C30  772   3.646   8.229   2.549  0.2034  0.1205  0.4036
    2CHTO   H58  773   3.664   8.337   2.540 -0.6769  0.3825  1.5964
    2CHTO    N6  774   3.780   8.187   2.588 -0.1802  0.8382 -0.3987
    2CHTO   H45  775   3.838   8.159   2.501  0.2239 -0.0749  0.1614
    2CHTO   H46  776   3.828   8.267   2.643  0.1387  0.6511 -0.4087
    2CHTO   C33  777   3.536   8.218   2.665  0.1328 -0.1905 -0.2489
    2CHTO   H61  778   3.523   8.114   2.696 -0.1122  0.4436  1.8681
    2CHTO   O18  779   3.410   8.265   2.612 -1.0171  0.4661 -0.1527
    2CHTO   C28  780   3.357   8.180   2.512  0.0487 -0.6865  0.3684
    2CHTO   H56  781   3.356   8.076   2.544 -1.3106 -0.0491  2.5319
    2CHTO   C35  782   3.211   8.228   2.495 -0.8190  0.0821  0.4688
    2CHTO   O24  783   3.121   8.140   2.419  0.0378  0.4459  0.5897
    2CHTO   H39  784   3.160   8.140   2.333  1.8550  0.8806  1.3865
    2CHTO    O9  785   3.576   8.289   2.783 -0.0062  0.3747 -0.1109
    2CHTO   C13  786   3.478   8.246   2.916 -0.0162  0.1562 -0.4290
    2CHTO   H26  787   3.446   8.140   2.913 -0.6427  0.3975 -2.6306
    2CHTO   C11  788   3.364   8.338   2.919 -0.2901 -0.1183 -0.3615
    2CHTO   H24  789   3.298   8.305   2.837 -1.8463  3.5337 -0.6819
    2CHTO    O8  790   3.408   8.474   2.883 -0.7460  0.3269  1.0298
    2CHTO    H3  791   3.343   8.517   2.831  0.7320 -0.8336 -1.8636
    2CHTO    C9  792   3.297   8.321   3.058 -0.4231 -0.8139 -0.3738
    2CHTO   H22  793   3.270   8.215   3.062 -2.5102 -0.3154 -0.9307
    2CHTO    N2  794   3.160   8.380   3.072 -0.4132  0.5354  0.0761
    2CHTO   H10  795   3.168   8.440   3.161 -0.1495  1.0314 -0.2795
    2CHTO   H11  796   3.094   8.296   3.086  1.0075 -0.6830 -0.3980
    2CHTO    C7  797   3.399   8.358   3.179 -0.2568 -0.3555 -0.2692
    2CHTO   H20  798   3.378   8.269   3.242  1.4022 -0.5968 -0.0549
    2CHTO    O4  799   3.534   8.357   3.133 -0.4848 -0.0637 -0.5683
    2CHTO   C14  800   3.571   8.250   3.042  0.5495  0.2028 -0.3805
    2CHTO   H27  801   3.559   8.153   3.094  0.1740  1.8568  2.7281
    2CHTO   C18  802   3.719   8.265   3.010 -0.3581 -0.4514  0.1357
    2CHTO   O13  803   3.785   8.165   2.926 -0.3959  0.1593 -0.2485
    2CHTO    H7  804   3.860   8.198   2.881 -0.6168  0.1709 -0.6113
    2CHTO    O2  805   3.371   8.494   3.255 -0.2918 -0.4605 -0.5878
    2CHTO    C1  806   3.346   8.486   3.394  0.1953  0.3835 -0.7700
    2CHTO   H14  807   3.367   8.383   3.430 -1.3259  1.0006  1.9867
    2CHTO    C2  808   3.194   8.516   3.431 -0.0192 -0.2138  0.9769
    2CHTO   H15  809   3.160   8.604   3.375  0.8151 -0.3856  0.1842
    2CHTO    O6  810   3.123   8.389   3.391 -0.7582  0.3030 -0.3821
    2CHTO    H1  811   3.106   8.376   3.300  1.5279 -1.5174 -0.5966
    2CHTO    C3  812   3.177   8.536   3.588 -0.7815 -0.4202  0.4452
    2CHTO   H16  813   3.186   8.438   3.638  1.1165 -0.2769  0.3998
    2CHTO    N1  814   3.040   8.593   3.620 -0.0210  0.7706  0.1412
    2CHTO    H8  815   3.009   8.579   3.723 -2.0237  0.5945 -0.4539
    2CHTO    H9  816   2.971   8.566   3.542  1.3788 -0.4187 -0.6872
    2CHTO    C4  817   3.294   8.620   3.647 -0.6103  0.6057  0.1455
    2CHTO   H17  818   3.285   8.724   3.617  0.9003  0.8125  0.3709
    2CHTO    O1  819   3.422   8.560   3.599  0.1670  0.1695 -0.1463
    2CHTO    C5  820   3.446   8.579   3.462  0.2816  0.0994  0.3026
    2CHTO   H18  821   3.415   8.679   3.433  1.5264  0.0715 -1.1765
    2CHTO   C16  822   3.597   8.566   3.428  0.7082  0.2117  0.3947
    2CHTO   O11  823   3.666   8.656   3.512  0.0918  0.1849  0.5686
    2CHTO    H5  824   3.743   8.673   3.460  0.3708  1.6906  1.4500
    2CHTO    O3  825   3.302   8.620   3.788  0.2980 -0.1465 -0.5196
    2CHTO    C6  826   3.347   8.743   3.854  0.0892 -0.4803  0.5590
    2CHTO   H19  827   3.386   8.812   3.779 -1.4478  0.3543  0.5116
    2CHTO    C8  828   3.227   8.802   3.922  0.5985  0.0087 -0.0628
    2CHTO   H21  829   3.182   8.738   3.998  0.7971  1.4217  1.2886
    2CHTO    O7  830   3.120   8.829   3.815  0.3367  0.2984 -0.1682
    2CHTO    H2  831   3.033   8.854   3.838  0.4313 -0.5527  1.1410
    2CHTO   C12  832   3.274   8.928   4.008 -0.0632  0.5079  0.4782
    2CHTO   H25  833   3.308   9.002   3.933 -2.6284 -0.7157 -1.9649
    2CHTO    N3  834   3.163   8.990   4.084  0.0475  0.1143 -0.5289
    2CHTO   H12  835   3.201   9.062   4.155 -1.9598  0.7377 -0.0455
    2CHTO   H13  836   3.104   8.916   4.138  1.7307 -0.9102 -0.0505
    2CHTO   C15  837   3.407   8.894   4.102 -0.5368  0.3229 -0.6168
    2CHTO   H28  838   3.383   8.817   4.175 -0.1722  0.4129 -0.4004
    2CHTO   O10  839   3.482   9.023   4.162  0.1036 -0.2086  0.1902
    2CHTO    H4  840   3.551   8.993   4.217  2.2552  0.8848 -1.8180
    2CHTO    O5  841   3.508   8.831   4.008 -0.0190  1.1186  0.0439
    2CHTO   C10  842   3.461   8.706   3.952 -0.8257  0.2451  0.4408
    2CHTO   H23  843   3.437   8.653   4.044  2.4283  0.5169  1.4758
    2CHTO   C17  844   3.588   8.646   3.888 -0.1789 -0.3028  0.0318
    2CHTO   O12  845   3.579   8.511   3.828  0.0618 -0.2931  0.0113
    2CHTO    H6  846   3.645   8.455   3.866 -1.8332 -1.2642  1.9580
    3CHTO  H203  847   7.613   2.658   2.523 -0.1481 -0.2658 -0.8899
    3CHTO   O82  848   7.526   2.623   2.513 -0.4781  0.2611  0.1241
    3CHTO  C123  849   7.547   2.481   2.529  0.2700  0.5635  0.0568
    3CHTO  H227  850   7.626   2.456   2.601 -0.4689 -1.9886  0.0242
    3CHTO   O77  851   7.419   2.430   2.574  0.6075  0.2973  0.3371
    3CHTO  C118  852   7.415   2.289   2.589  0.8027  0.0356 -1.1438
    3CHTO  H222  853   7.498   2.250   2.650  0.9047 -0.7289 -1.7770
    3CHTO  C125  854   7.281   2.258   2.673 -0.6539  0.2316 -0.2883
    3CHTO   O84  855   7.156   2.283   2.610 -0.0670  0.0418 -0.0758
    3CHTO  H205  856   7.090   2.230   2.649  0.2334  1.8383  3.1277
    3CHTO  C114  857   7.416   2.230   2.446 -0.4918 -0.0400 -0.7519
    3CHTO  H218  858   7.328   2.270   2.394 -0.5458  1.7184  0.6133
    3CHTO  C116  859   7.547   2.265   2.371 -0.7763 -0.3076  0.1532
    3CHTO  H220  860   7.634   2.217   2.421 -0.2251  0.3876 -0.1305
    3CHTO   O79  861   7.547   2.202   2.239 -0.1090  0.1153  0.2681
    3CHTO  H201  862   7.627   2.224   2.195  0.3123 -0.0943  0.9239
    3CHTO  C120  863   7.578   2.426   2.378 -0.4219 -0.1247  1.1433
    3CHTO  H224  864   7.505   2.461   2.302  0.8547  0.3997  0.1568
    3CHTO   N21  865   7.719   2.459   2.335 -0.0511 -0.2389 -0.0062
    3CHTO  H211  866   7.760   2.550   2.378  1.7631 -1.4237  0.8662
    3CHTO  H212  867   7.728   2.476   2.229  0.4603  1.0113  0.2287
    3CHTO   O75  868   7.398   2.089   2.468  0.5578 -0.2118 -0.2643
    3CHTO  C112  869   7.309   1.994   2.350 -0.6362 -0.1750 -0.1843
    3CHTO  H216  870   7.341   2.026   2.250  2.1448 -1.9193  0.1043
    3CHTO   O73  871   7.167   2.023   2.371  0.1799 -0.0433  0.2085
    3CHTO  C113  872   7.079   1.947   2.287 -0.0572 -0.7991  0.2710
    3CHTO  H217  873   7.104   1.975   2.182  3.0251  0.4521  1.2944
    3CHTO  C124  874   6.939   2.010   2.307 -0.0116 -0.2840  0.1052
    3CHTO   O83  875   6.895   2.014   2.450 -0.3155 -0.2022  0.5664
    3CHTO  H204  876   6.801   2.004   2.449 -0.2841 -0.5439  0.9806
    3CHTO  C109  877   7.080   1.794   2.320 -0.5848 -0.2199 -0.0602
    3CHTO  H213  878   7.052   1.791   2.427 -0.1262  1.0285  0.1106
    3CHTO  C110  879   7.231   1.751   2.299 -0.2264 -0.0658  0.5274
    3CHTO  H214  880   7.253   1.762   2.192 -2.4762 -1.2665 -0.0787
    3CHTO   O78  881   7.242   1.614   2.334  0.4354  0.2268 -0.4514
    3CHTO  H200  882   7.258   1.565   2.256 -0.7949 -0.1141 -0.5089
    3CHTO  C111  883   7.333   1.842   2.378 -0.1010 -0.2528 -0.6904
    3CHTO  H215  884   7.320   1.827   2.486 -1.7116  1.1252 -0.6593
    3CHTO   N19  885   7.473   1.818   2.347 -0.1256 -0.0456 -0.5478
    3CHTO  H207  886   7.501   1.714   2.353  0.1356  0.0801  0.6188
    3CHTO  H208  887   7.504   1.868   2.257 -0.6762  2.5863  0.6628
    3CHTO   O74  888   6.993   1.711   2.239 -0.4215  0.0397 -0.0872
    3CHTO  C115  889   6.938   1.578   2.326 -0.4366 -0.1401  0.6332
    3CHTO  H219  890   7.012   1.544   2.398  0.1076  1.8187  1.0266
    3CHTO   O76  891   6.811   1.614   2.407  0.3985  0.4033  0.2246
    3CHTO  C122  892   6.705   1.664   2.326  0.6940 -0.6693  0.4988
    3CHTO  H226  893   6.753   1.750   2.278 -2.1440  1.3343  1.1266
    3CHTO  C126  894   6.589   1.715   2.404  1.0218  0.0854  0.1704
    3CHTO   O85  895   6.500   1.623   2.466 -0.4402  0.4336  0.4047
    3CHTO  H206  896   6.457   1.569   2.402  1.1139 -0.5414  0.1583
    3CHTO  C121  897   6.661   1.557   2.211 -0.4425  0.4117  0.3040
    3CHTO  H225  898   6.556   1.525   2.226 -0.6685  0.9595 -0.0794
    3CHTO   O81  899   6.671   1.624   2.085  0.1195 -0.1119  0.4182
    3CHTO  H202  900   6.745   1.682   2.086 -1.5000  2.1109 -1.6134
    3CHTO  C119  901   6.750   1.427   2.206  1.1283  0.4691 -1.3721
    3CHTO  H223  902   6.718   1.373   2.295 -0.1690 -1.1183 -2.7814
    3CHTO  C117  903   6.905   1.463   2.222  0.1410 -0.0298 -0.0881
    3CHTO  H221  904   6.956   1.493   2.130 -0.9830  0.6389 -0.5123
    3CHTO   N20  905   6.975   1.337   2.261  0.8536 -0.1149  0.1665
    3CHTO  H209  906   6.932   1.251   2.212  1.2661 -0.1898 -0.0662
    3CHTO  H210  907   7.078   1.345   2.230  0.9740  1.4532  0.9292
    3CHTO   O80  908   6.708   1.313   2.083  0.2240 -0.2788  0.3981
    3CHTO  C103  909   6.586   1.247   2.090 -0.0132  0.3317 -0.3629
    3CHTO  H190  910   6.518   1.295   2.161  0.7877  0.9817 -0.0291
    3CHTO  C101  911   6.508   1.232   1.956  0.3172  0.1530 -0.1035
    3CHTO  H188  912   6.575   1.177   1.889 -0.3993  1.3088 -1.8043
    3CHTO   O68  913   6.487   1.375   1.902  0.0233  0.3140  0.0565
    3CHTO  H168  914   6.436   1.431   1.958 -0.9041  1.5019 -1.8989
    3CHTO   C99  915   6.380   1.151   1.985  0.3485 -0.0652  0.2686
    3CHTO  H186  916   6.320   1.201   2.063  1.0235 -0.3617  0.9887
    3CHTO   N17  917   6.298   1.130   1.858 -0.8249 -0.4312 -0.0855
    3CHTO  H174  918   6.230   1.046   1.860 -0.3924 -0.8484 -1.8746
    3CHTO  H175  919   6.354   1.118   1.766 -0.1706 -1.7154  0.4571
    3CHTO   C97  920   6.407   1.012   2.051  0.5753  0.6777 -0.2477
    3CHTO  H184  921   6.460   0.945   1.982  0.4764  1.1447 -0.7809
    3CHTO   O64  922   6.484   1.041   2.170 -0.1552  0.2451  0.5805
    3CHTO  C104  923   6.615   1.099   2.143 -0.4052  0.1310  0.2151
    3CHTO  H191  924   6.675   1.053   2.065  0.3928  0.7423  0.4617
    3CHTO  C108  925   6.697   1.083   2.268  0.1348 -0.6119  0.3247
    3CHTO   O71  926   6.749   0.957   2.300  0.3812 -0.1345 -0.0302
    3CHTO  H171  927   6.841   0.973   2.298  0.9239 -2.9952 -0.5555
    3CHTO   O62  928   6.295   0.944   2.119  0.0700  0.2601  0.1102
    3CHTO   C91  929   6.256   0.813   2.063  0.2032 -0.0107  0.0742
    3CHTO  H178  930   6.282   0.806   1.957  0.1023 -0.9797  0.1051
    3CHTO   C92  931   6.101   0.799   2.072 -0.5443 -0.0398 -0.2507
    3CHTO  H179  932   6.062   0.821   2.172  1.6801  3.7997 -0.1487
    3CHTO   O66  933   6.048   0.901   1.983  0.2378  0.0043  0.5819
    3CHTO  H166  934   5.963   0.928   2.012  0.5753  0.3539  1.2769
    3CHTO   C93  935   6.045   0.654   2.032 -0.3174  0.0572  0.3104
    3CHTO  H180  936   6.069   0.624   1.929 -2.3454 -2.1491  0.4365
    3CHTO   N16  937   5.898   0.637   2.035 -0.7851  0.0056 -0.0462
    3CHTO  H172  938   5.849   0.630   2.131 -0.3188  0.5943  0.2312
    3CHTO  H173  939   5.848   0.711   1.974 -0.6889  0.3139  0.2563
    3CHTO   C94  940   6.113   0.542   2.119 -0.2726  0.2383 -0.4753
    3CHTO  H181  941   6.041   0.499   2.188 -1.1739  0.2075 -1.4149
    3CHTO   O61  942   6.223   0.602   2.190 -0.6215  0.2778  0.1582
    3CHTO   C95  943   6.323   0.687   2.120  0.1169 -0.3576  0.3138
    3CHTO  H182  944   6.393   0.723   2.195  0.6151  1.5083 -1.0268
    3CHTO  C106  945   6.404   0.611   2.022 -0.0228  0.1862  0.1002
    3CHTO   O69  946   6.505   0.684   1.965 -0.4331  0.1551 -0.2798
    3CHTO  H169  947   6.480   0.722   1.883 -3.7199  1.6868  1.3586
    3CHTO   O63  948   6.173   0.424   2.027 -0.2652 -0.1216  0.0305
    3CHTO   C96  949   6.124   0.273   2.087  0.6303  0.0067  0.3624
    3CHTO  H183  950   6.179   0.202   2.026 -0.7749 -2.4265  1.8314
    3CHTO   C98  951   5.972   0.256   2.074  0.7180 -0.4497 -0.3486
    3CHTO  H185  952   5.910   0.323   2.135  0.2644  0.4280 -1.7320
    3CHTO   O67  953   5.926   0.283   1.936 -0.8391 -0.1057 -0.1349
    3CHTO  H167  954   5.981   0.248   1.868 -0.3196 -1.1050  0.7801
    3CHTO  C102  955   5.932   0.105   2.125  0.1345 -0.7502  0.2004
    3CHTO  H189  956   5.971   0.037   2.047 -0.4104 -1.1304  0.2582
    3CHTO   N18  957   5.789   0.077   2.136  0.7761  0.2636  0.6388
    3CHTO  H176  958   5.767  -0.028   2.141  0.0295  0.4255  0.9321
    3CHTO  H177  959   5.735   0.131   2.060  1.0811  0.0133  0.2483
    3CHTO  C105  960   5.994   0.060   2.263 -0.3801 -0.4699  0.4303
    3CHTO  H192  961   5.938   0.100   2.347 -0.2957 -1.3388  0.9099
    3CHTO   O65  962   6.136   0.102   2.271  1.0231  0.5232 -0.3271
    3CHTO  C100  963   6.154   0.242   2.245 -0.3853  0.8200 -0.3362
    3CHTO  H187  964   6.085   0.298   2.308  0.0428 -1.0609  1.8624
    3CHTO  C107  965   6.297   0.275   2.289 -0.2732 -0.3474 -0.6725
    3CHTO   O70  966   6.291   0.275   2.435  0.1958  0.1263 -0.0365
    3CHTO  H170  967   6.223   0.220   2.471  1.1941 -2.6654 -2.2249
    3CHTO   O57  968   6.000  -0.103   2.272 -0.2946  0.3714 -0.1011
    3CHTO   C85  969   5.984  -0.189   2.388  0.5233  0.4586  0.7555
    3CHTO  H157  970   6.011  -0.291   2.353  0.6549  1.2414 -1.4948
    3CHTO   C83  971   5.832  -0.191   2.438 -0.8245 -1.0136 -0.0705
    3CHTO  H155  972   5.772  -0.234   2.358 -2.5731  0.1899  0.5635
    3CHTO   O56  973   5.780  -0.059   2.459  0.3278  0.1264 -0.0788
    3CHTO  H135  974   5.813  -0.017   2.537  0.5848  1.5244 -0.9311
    3CHTO   C81  975   5.821  -0.283   2.557  0.4079  0.3236  0.9669
    3CHTO  H153  976   5.862  -0.380   2.529 -0.0564  0.3525  0.1670
    3CHTO   N14  977   5.682  -0.307   2.600  0.3476  0.3145 -0.1854
    3CHTO  H141  978   5.627  -0.217   2.619  6.0579  4.2710 -1.0547
    3CHTO  H142  979   5.640  -0.362   2.519  1.5691 -0.8872 -0.0390
    3CHTO   C79  980   5.910  -0.231   2.677 -0.0796 -0.5439 -0.4136
    3CHTO  H151  981   5.910  -0.312   2.750 -2.2619 -1.8977 -1.8606
    3CHTO   O52  982   6.049  -0.214   2.637  0.2039 -0.7743  0.3142
    3CHTO   C86  983   6.068  -0.142   2.506  0.0874  0.2302 -0.3790
    3CHTO  H158  984   6.058  -0.033   2.525  2.4729  0.3332  0.4337
    3CHTO   C90  985   6.212  -0.160   2.456 -0.1041  0.6921 -0.2067
    3CHTO   O60  986   6.267  -0.288   2.482 -0.0960 -0.3852 -0.5158
    3CHTO  H138  987   6.339  -0.309   2.426  0.6157  0.0568  0.2237
    3CHTO   O50  988   5.875  -0.102   2.732 -0.3752  0.0281  0.1217
    3CHTO   C73  989   5.849  -0.044   2.859 -0.5311  0.2915  0.2906
    3CHTO  H145  990   5.905  -0.100   2.935  0.1529  1.5114  0.7068
    3CHTO   C74  991   5.692  -0.065   2.887  0.7467 -0.4465  0.0907
    3CHTO  H146  992   5.666  -0.172   2.885 -1.7613  0.1512 -3.0513
    3CHTO   O54  993   5.645  -0.024   3.018 -0.1271  0.1307  0.4376
    3CHTO  H133  994   5.686  -0.076   3.084 -2.4456 -0.9089  1.1019
    3CHTO   C75  995   5.622   0.014   2.768  0.5490 -0.5662 -0.1120
    3CHTO  H147  996   5.658  -0.019   2.669  0.2276 -1.5752  0.0963
    3CHTO   N13  997   5.475   0.002   2.764 -0.6037 -0.4076  0.5546
    3CHTO  H139  998   5.442   0.061   2.680  1.0208  1.5985  1.3013
    3CHTO  H140  999   5.448  -0.102   2.747 -0.4607 -0.1831 -1.1458
    3CHTO   C76 1000   5.661   0.167   2.778  0.0737 -0.6681 -0.3719
    3CHTO  H148 1001   5.615   0.210   2.867  0.2737 -2.1537  0.4725
    3CHTO   O49 1002   5.807   0.187   2.788  0.1896  0.2405 -0.8702
    3CHTO   C77 1003   5.888   0.104   2.870 -0.0545 -1.0410 -1.4704
    3CHTO  H149 1004   5.879   0.139   2.972 -0.2686 -1.0410 -1.4898
    3CHTO   C88 1005   6.037   0.121   2.824 -0.1736 -0.6142 -0.8194
    3CHTO   O58 1006   6.071   0.274   2.847  0.3591 -0.3552  0.0925
    3CHTO  H136 1007   6.164   0.275   2.859  0.4725  2.2937 -0.6352
    3CHTO   O51 1008   5.630   0.248   2.641  0.0372 -0.2132  0.0814
    3CHTO   C78 1009   5.609   0.392   2.677 -0.6040 -0.3859 -0.6225
    3CHTO  H150 1010   5.623   0.414   2.785  1.4192 -0.3898 -0.8557
    3CHTO   C80 1011   5.463   0.436   2.646 -0.1849  0.1809  0.2213
    3CHTO  H152 1012   5.440   0.393   2.546  0.1391 -0.1534  0.2870
    3CHTO   O55 1013   5.385   0.368   2.746  0.0764 -0.2305 -0.0271
    3CHTO  H134 1014   5.295   0.389   2.735  0.2866  0.5732 -0.2406
    3CHTO   C84 1015   5.444   0.589   2.665 -0.3594 -1.2126 -0.7653
    3CHTO  H156 1016   5.438   0.615   2.771  0.1426  0.5676 -1.1634
    3CHTO   N15 1017   5.301   0.631   2.620 -0.4342 -0.5840  0.2943
    3CHTO  H143 1018   5.254   0.573   2.543  0.0552  1.9861 -1.9877
    3CHTO  H144 1019   5.302   0.733   2.588  0.3947 -1.0896 -1.3336
    3CHTO   C87 1020   5.553   0.664   2.581  0.2942 -0.0503  0.5329
    3CHTO  H159 1021   5.533   0.644   2.476  0.1506 -1.0315  0.7398
    3CHTO   O53 1022   5.681   0.620   2.624  0.5800 -0.2858  0.1766
    3CHTO   C82 1023   5.706   0.482   2.598 -0.1433  0.6034 -0.1146
    3CHTO  H154 1024   5.693   0.452   2.493  1.0670 -0.7669  0.0994
    3CHTO   C89 1025   5.862   0.464   2.630  0.4069  0.5477  0.2233
    3CHTO   O59 1026   5.919   0.348   2.573  0.6072  0.6850  0.0051
    3CHTO  H137 1027   5.912   0.339   2.480 -1.8690 -2.9561  0.4514
    3CHTO   O45 1028   5.551   0.818   2.612  0.3478  0.2570  0.8340
    3CHTO   C67 1029   5.640   0.898   2.532 -0.0016 -0.1347 -0.2672
    3CHTO  H124 1030   5.741   0.857   2.544  0.2453  0.0936 -1.5477
    3CHTO   C65 1031   5.605   0.896   2.377 -0.0239 -0.8784 -0.4177
    3CHTO  H122 1032   5.496   0.901   2.372  0.1095  0.7573 -2.0587
    3CHTO   O44 1033   5.654   0.768   2.331  0.0170 -0.0051  0.5914
    3CHTO  H102 1034   5.581   0.716   2.304  0.3895  0.2134 -0.8646
    3CHTO   C63 1035   5.659   1.024   2.291  0.9342 -0.8207  0.1116
    3CHTO  H120 1036   5.584   1.102   2.300  1.6788 -0.1994  1.0984
    3CHTO   N11 1037   5.673   1.011   2.141  0.3258  0.3300 -0.0098
    3CHTO  H108 1038   5.708   1.105   2.103 -2.5983  1.3847 -0.2083
    3CHTO  H109 1039   5.752   0.944   2.113  1.3084  1.6390 -0.4220
    3CHTO   C61 1040   5.786   1.078   2.355 -0.9820 -0.2560 -0.6094
    3CHTO  H118 1041   5.810   1.171   2.302  0.8462 -0.8199 -0.8238
    3CHTO   O40 1042   5.759   1.116   2.497  0.0773 -0.2253 -0.5792
    3CHTO   C68 1043   5.657   1.047   2.577 -0.2547 -0.1608 -0.0855
    3CHTO  H125 1044   5.558   1.096   2.560 -0.2950 -0.5710 -1.0306
    3CHTO   C72 1045   5.698   1.073   2.723 -0.2080  0.0387 -0.0501
    3CHTO   O48 1046   5.833   1.048   2.763  0.4737 -0.1860  0.7008
    3CHTO  H105 1047   5.887   1.124   2.766 -1.2648  1.2155 -2.0555
    3CHTO   O38 1048   5.906   0.993   2.345 -0.4129  0.3115  0.6163
    3CHTO   C55 1049   6.004   0.993   2.447 -0.4559  0.0689 -0.1423
    3CHTO  H112 1050   5.953   0.995   2.545  2.8658  2.0529  1.6185
    3CHTO   C56 1051   6.098   1.124   2.425 -0.8014 -0.0938  0.1427
    3CHTO  H113 1052   6.133   1.126   2.321 -1.7419  2.8751 -0.1804
    3CHTO   O42 1053   6.031   1.250   2.436 -0.2310 -0.4859  0.2144
    3CHTO  H100 1054   5.999   1.249   2.524  0.2663  1.7505  0.4487
    3CHTO   C57 1055   6.227   1.129   2.518 -0.6622 -0.4286 -0.3368
    3CHTO  H114 1056   6.192   1.148   2.619 -2.1904 -1.1625 -0.7200
    3CHTO   N10 1057   6.334   1.232   2.497  0.4219 -0.0343 -0.1486
    3CHTO  H106 1058   6.390   1.249   2.588 -2.3393  1.6215  1.2826
    3CHTO  H107 1059   6.276   1.319   2.473 -2.3493 -2.0823 -1.1908
    3CHTO   C58 1060   6.294   0.993   2.511 -0.8387 -0.0449 -0.2418
    3CHTO  H115 1061   6.338   0.977   2.410  0.9934  1.9384  0.1926
    3CHTO   O37 1062   6.197   0.890   2.544 -0.7712 -0.1478 -0.8077
    3CHTO   C59 1063   6.099   0.874   2.444 -0.2957 -0.0280  0.1757
    3CHTO  H116 1064   6.144   0.868   2.346 -0.5687 -1.2153  0.1159
    3CHTO   C70 1065   6.024   0.745   2.477 -0.1589  0.3722 -0.0901
    3CHTO   O46 1066   6.112   0.633   2.481  0.2099  0.4010  0.3452
    3CHTO  H103 1067   6.154   0.640   2.397  2.6834 -1.9711  1.2985
    3CHTO   O39 1068   6.429   0.974   2.647  0.0009  0.1064  0.1505
    3CHTO   C60 1069   6.474   0.857   2.717  0.0410  0.7170  0.1778
    3CHTO  H117 1070   6.583   0.861   2.716  0.1043 -1.0832 -0.8726
    3CHTO   C62 1071   6.408   0.845   2.859  0.4981 -0.1516 -0.4820
    3CHTO  H119 1072   6.424   0.944   2.906 -2.4651  2.0101 -3.7841
    3CHTO   O43 1073   6.265   0.834   2.845  0.6575  0.0095 -0.5053
    3CHTO  H101 1074   6.245   0.757   2.794  1.1978 -1.8119  1.9763
    3CHTO   C66 1075   6.476   0.731   2.943 -0.5497  0.4336 -1.0901
    3CHTO  H123 1076   6.584   0.746   2.947 -0.5753  0.3418 -0.1641
    3CHTO   N12 1077   6.439   0.734   3.083 -0.1868  0.4456 -0.5255
    3CHTO  H110 1078   6.510   0.674   3.139 -0.4453  0.7533  0.1429
    3CHTO  H111 1079   6.428   0.835   3.121  1.1181  0.9275 -1.4066
    3CHTO   C69 1080   6.448   0.589   2.877 -0.1055  0.0252  0.6116
    3CHTO  H126 1081   6.340   0.566   2.881 -0.0766 -0.4083 -0.7730
    3CHTO   O41 1082   6.499   0.597   2.714  0.5426  0.4442 -0.5177
    3CHTO   C64 1083   6.441   0.730   2.639 -0.3788  0.6927 -0.2784
    3CHTO  H121 1084   6.335   0.722   2.608 -0.2280 -0.3942 -0.5156
    3CHTO   C71 1085   6.516   0.730   2.506 -0.9117  0.8876  0.0698
    3CHTO   O47 1086   6.474   0.611   2.437 -0.4267 -0.3343  0.4508
    3CHTO  H104 1087   6.549   0.557   2.424 -2.1524 -1.9955 -3.3764
    3CHTO   O34 1088   6.541   0.470   2.961 -0.2263  0.1009  0.2130
    3CHTO   C49 1089   6.548   0.310   2.936 -0.3109 -0.3440  0.1685
    3CHTO   H91 1090   6.558   0.305   2.828 -2.7269  2.9609 -0.2942
    3CHTO   C47 1091   6.425   0.230   2.980  0.4416 -0.0704 -0.3071
    3CHTO   H89 1092   6.358   0.247   2.892  1.5621  2.1047 -0.7736
    3CHTO   O33 1093   6.355   0.282   3.098 -0.0672 -0.1906 -0.9447
    3CHTO   H70 1094   6.337   0.374   3.087 -2.0699 -0.6785 -1.8838
    3CHTO   C45 1095   6.451   0.073   3.005 -0.4743  0.2237  0.3836
    3CHTO   H87 1096   6.484   0.053   3.108 -0.7970 -0.1176  0.4211
    3CHTO    N8 1097   6.336  -0.017   2.972 -0.0067  0.2423  0.8346
    3CHTO   H75 1098   6.245   0.032   2.941 -0.7653 -2.1748 -0.9282
    3CHTO   H76 1099   6.358  -0.076   2.884  1.2484  0.9981  0.6229
    3CHTO   C43 1100   6.588   0.035   2.921  0.1992 -0.6382 -0.2033
    3CHTO   H85 1101   6.605  -0.073   2.926  0.7686 -0.5620 -0.4177
    3CHTO   O29 1102   6.698   0.106   2.978 -0.1641 -0.9161 -0.5026
    3CHTO   C50 1103   6.677   0.248   2.996  0.2569  0.2666  0.0982
    3CHTO   H92 1104   6.682   0.261   3.105  1.0019 -1.4218  0.2820
    3CHTO   C54 1105   6.795   0.333   2.961 -0.2995  0.1740 -0.4020
    3CHTO   O36 1106   6.906   0.320   3.049 -0.2670  0.3025 -0.1383
    3CHTO   H72 1107   6.978   0.268   3.018 -0.7933 -1.5545  1.6364
    3CHTO   O27 1108   6.582   0.073   2.781  0.1028  0.4103  0.8485
    3CHTO   C37 1109   6.630   0.043   2.651  0.3540  0.0287 -1.8705
    3CHTO   H79 1110   6.738   0.068   2.652  0.8643 -2.0465  1.4661
    3CHTO   C38 1111   6.600  -0.111   2.617 -0.0297 -0.3646  0.2017
    3CHTO   H80 1112   6.493  -0.128   2.635  0.3245 -0.4627  2.2879
    3CHTO   O31 1113   6.670  -0.187   2.711 -0.8667  0.3425  0.1628
    3CHTO   H68 1114   6.632  -0.273   2.717 -1.7714  0.7284 -0.0546
    3CHTO   C39 1115   6.636  -0.139   2.474  0.0769 -0.5801  0.3855
    3CHTO   H81 1116   6.744  -0.139   2.465  0.0077  0.5699 -0.6038
    3CHTO    N7 1117   6.608  -0.278   2.427 -0.0460  0.3802 -0.2891
    3CHTO   H73 1118   6.573  -0.341   2.507 -2.5291  1.7984 -0.2033
    3CHTO   H74 1119   6.683  -0.324   2.364  0.4660 -0.7569  1.1175
    3CHTO   C40 1120   6.590  -0.035   2.364  0.3279  0.1172  0.0038
    3CHTO   H82 1121   6.485  -0.043   2.337  0.6532  0.3993 -1.3882
    3CHTO   O26 1122   6.619   0.098   2.416 -0.0054 -0.3911  0.1851
    3CHTO   C41 1123   6.562   0.133   2.549  0.1594 -1.0400 -0.0342
    3CHTO   H83 1124   6.455   0.110   2.546 -0.3963  1.4424 -0.2492
    3CHTO   C52 1125   6.589   0.280   2.556  0.3365 -0.1146  0.1128
    3CHTO   O35 1126   6.725   0.323   2.605 -0.3024 -0.2005  0.1332
    3CHTO   H71 1127   6.788   0.267   2.564  0.3134 -0.4033  1.3255
    3CHTO   O28 1128   6.659  -0.042   2.239 -0.1200 -0.0023  0.0079
    3CHTO   C42 1129   6.747   0.064   2.181 -0.0541  0.2135  0.2566
    3CHTO   H84 1130   6.781   0.007   2.095  0.3395  0.1805  0.4326
    3CHTO   C44 1131   6.877   0.098   2.259  0.4722 -0.2838 -0.2881
    3CHTO   H86 1132   6.855   0.123   2.363  0.7112  0.8837 -0.5083
    3CHTO   O32 1133   6.942  -0.027   2.277  0.2170  0.3786 -0.1428
    3CHTO   H69 1134   6.996  -0.024   2.354  0.8498  1.3980 -0.6098
    3CHTO   C48 1135   6.973   0.196   2.180  0.6172 -0.2934  0.3602
    3CHTO   H90 1136   7.010   0.153   2.087  1.8895  1.2270  0.1297
    3CHTO    N9 1137   7.102   0.223   2.262  0.0369 -0.1780  0.2593
    3CHTO   H77 1138   7.178   0.159   2.220  0.1500  0.0661  0.0932
    3CHTO   H78 1139   7.130   0.326   2.246 -1.4444  0.3336  0.8627
    3CHTO   C51 1140   6.887   0.322   2.134  0.3592 -0.6301 -0.6716
    3CHTO   H93 1141   6.849   0.375   2.222 -1.3706 -1.2025 -1.0661
    3CHTO   O30 1142   6.775   0.278   2.057 -0.3515 -0.4878 -0.7256
    3CHTO   C46 1143   6.680   0.189   2.125 -0.6348  0.3609  0.5579
    3CHTO   H88 1144   6.643   0.248   2.208  2.2461  0.4807  1.8111
    3CHTO   C53 1145   6.563   0.145   2.033 -0.3198 -0.0290  0.4222
    3CHTO   O72 1146   6.491   0.265   2.025  0.1302 -0.1856 -0.1168
    3CHTO  H199 1147   6.534   0.323   1.965 -0.3439 -0.9639 -1.2211
    3CHTO   O22 1148   6.967   0.415   2.055 -0.0155 -0.5313 -0.1437
    3CHTO   C31 1149   6.927   0.551   2.014  0.4364 -0.0723  0.5312
    3CHTO   H59 1150   6.822   0.566   2.046  0.3214  2.0817 -0.7154
    3CHTO   C29 1151   7.008   0.662   2.075  0.9371 -0.2258  0.1846
    3CHTO   H57 1152   7.113   0.651   2.042  0.2217 -3.1579 -1.3456
    3CHTO   O21 1153   6.996   0.642   2.221  0.2121  0.1441  0.8061
    3CHTO   H37 1154   7.063   0.695   2.259 -0.6980  0.7741  1.5604
    3CHTO   C27 1155   6.954   0.812   2.036 -0.0731  0.0019 -0.7588
    3CHTO   H55 1156   6.853   0.828   2.078  0.5139  1.7195  0.0773
    3CHTO    N5 1157   7.047   0.923   2.081 -0.1176 -0.1005 -0.1391
    3CHTO   H43 1158   6.996   1.018   2.077  1.0720  0.5660  0.1725
    3CHTO   H44 1159   7.123   0.934   2.005 -0.7675  0.6938 -0.6710
    3CHTO   C25 1160   6.941   0.813   1.880 -0.3661 -0.3296  0.6547
    3CHTO   H53 1161   7.040   0.816   1.833 -1.4921 -1.3119 -1.8442
    3CHTO   O17 1162   6.866   0.696   1.830  0.4851 -0.5689  0.0357
    3CHTO   C32 1163   6.917   0.568   1.855  0.1208  0.6298 -0.2111
    3CHTO   H60 1164   7.016   0.556   1.811 -0.3774 -1.1374 -0.8980
    3CHTO   C36 1165   6.830   0.465   1.775 -0.2445 -0.8426 -0.0272
    3CHTO   O25 1166   6.882   0.325   1.768  0.6338 -0.4387 -0.7262
    3CHTO   H40 1167   6.968   0.320   1.805  0.6179 -0.3656 -0.6774
    3CHTO   O15 1168   6.856   0.952   1.842 -0.0700 -0.4447  0.1121
    3CHTO   C19 1169   6.804   1.001   1.714 -0.3089  1.1007 -0.4027
    3CHTO   H47 1170   6.867   0.951   1.638 -0.7513 -0.1642  0.0447
    3CHTO   C20 1171   6.653   0.949   1.676 -0.3621 -0.3807 -0.4918
    3CHTO   H48 1172   6.579   0.975   1.753  0.3469  0.4810 -0.1052
    3CHTO   O19 1173   6.654   0.805   1.670  0.1077 -0.0793  0.2624
    3CHTO   H35 1174   6.641   0.765   1.754 -2.7347 -1.9053 -0.9675
    3CHTO   C21 1175   6.607   1.010   1.533  0.2090  0.5544  0.1065
    3CHTO   H49 1176   6.658   0.955   1.455 -0.1931  1.0329 -0.5042
    3CHTO    N4 1177   6.466   0.978   1.512  0.1197  0.1791 -0.5159
    3CHTO   H41 1178   6.433   0.985   1.409  0.8480 -0.3390 -0.7883
    3CHTO   H42 1179   6.405   1.045   1.571 -1.0418 -1.1889 -0.1300
    3CHTO   C22 1180   6.633   1.160   1.526  0.2918 -0.4246 -0.2429
    3CHTO   H50 1181   6.571   1.222   1.591  1.6915  1.2635 -0.4924
    3CHTO   O14 1182   6.773   1.184   1.560 -0.3071  0.1891 -0.2327
    3CHTO   C23 1183   6.820   1.152   1.698  0.6792 -0.2179  0.2683
    3CHTO   H51 1184   6.761   1.210   1.771 -1.4105 -2.2659  0.2604
    3CHTO   C34 1185   6.965   1.202   1.701 -0.2490  0.4728 -0.3645
    3CHTO   O23 1186   7.035   1.161   1.825  0.4221 -0.3820 -0.0009
    3CHTO   H38 1187   7.075   1.234   1.869  0.8153 -0.8072  0.3528
    3CHTO   O16 1188   6.629   1.193   1.388 -0.2664 -0.1157  0.0495
    3CHTO   C24 1189   6.614   1.347   1.374  0.3475  0.1044 -0.4923
    3CHTO   H52 1190   6.633   1.399   1.468  0.9928 -0.4227 -0.3276
    3CHTO   C26 1191   6.470   1.382   1.342  0.0329 -0.6031  0.2666
    3CHTO   H54 1192   6.449   1.331   1.245  0.0859  1.5608 -0.9007
    3CHTO   O20 1193   6.385   1.324   1.445 -0.2215  0.0893  0.0873
    3CHTO   H36 1194   6.346   1.384   1.505 -0.5376  2.3376 -2.2910
    3CHTO   C30 1195   6.449   1.536   1.313 -0.1657  0.0187  0.1463
    3CHTO   H58 1196   6.481   1.596   1.399 -0.7739 -0.7875  0.9420
    3CHTO    N6 1197   6.308   1.581   1.277 -0.5901 -0.4622  0.4609
    3CHTO   H45 1198   6.297   1.563   1.171  0.6201  0.2964  0.1897
    3CHTO   H46 1199   6.227   1.535   1.331 -0.0980 -0.9411  0.7935
    3CHTO   C33 1200   6.558   1.579   1.210 -0.7951  0.8559 -0.1059
    3CHTO   H61 1201   6.532   1.521   1.120 -0.2330 -0.4968  0.5901
    3CHTO   O18 1202   6.687   1.542   1.261  0.7019  0.0312  0.2240
    3CHTO   C28 1203   6.713   1.405   1.272  0.3185  0.6555  0.0964
    3CHTO   H56 1204   6.700   1.354   1.177  2.2716  1.8158 -0.8235
    3CHTO   C35 1205   6.860   1.379   1.317  0.2089  0.1750 -0.2531
    3CHTO   O24 1206   6.970   1.397   1.221 -0.5735 -0.0487  0.1537
    3CHTO   H39 1207   6.964   1.350   1.140 -1.2484  1.5365 -0.7414
    3CHTO    O9 1208   6.556   1.718   1.168 -0.2263 -0.1269  0.3696
    3CHTO   C13 1209   6.620   1.814   1.279 -1.3129  0.2799 -0.1880
    3CHTO   H26 1210   6.624   1.748   1.368 -2.0337 -0.2401 -0.5317
    3CHTO   C11 1211   6.527   1.935   1.300  0.7948 -0.4687  0.3514
    3CHTO   H24 1212   6.452   1.905   1.375 -0.5076  0.6261 -0.4850
    3CHTO    O8 1213   6.455   1.963   1.182  0.1417  0.1678  0.0601
    3CHTO    H3 1214   6.507   1.977   1.105 -1.6857  1.4279 -0.9834
    3CHTO    C9 1215   6.601   2.052   1.368  0.7287 -0.1396 -0.3318
    3CHTO   H22 1216   6.644   2.009   1.459 -0.3191 -0.9806 -0.2214
    3CHTO    N2 1217   6.509   2.165   1.410  0.1814  0.7085  0.6839
    3CHTO   H10 1218   6.467   2.215   1.324  1.0770 -0.3411 -0.3835
    3CHTO   H11 1219   6.428   2.125   1.469 -0.2215  0.1754 -0.2227
    3CHTO    C7 1220   6.715   2.103   1.269  0.4444 -0.4179 -0.0508
    3CHTO   H20 1221   6.795   2.151   1.330 -0.5757 -0.1384  1.0741
    3CHTO    O4 1222   6.771   2.003   1.186 -0.7599 -0.0270  0.7066
    3CHTO   C14 1223   6.763   1.863   1.230 -0.3683  0.1248 -0.0890
    3CHTO   H27 1224   6.835   1.849   1.313  0.2682 -0.0334 -0.6698
    3CHTO   C18 1225   6.818   1.771   1.114  0.0616  0.0710 -0.4252
    3CHTO   O13 1226   6.963   1.788   1.094 -0.1478 -0.3389 -0.0741
    3CHTO    H7 1227   6.997   1.802   1.180 -0.5721  0.0651  0.0267
    3CHTO    O2 1228   6.655   2.221   1.154 -0.3509  0.1909  0.4312
    3CHTO    C1 1229   6.748   2.319   1.105 -0.1358  0.2800 -0.0048
    3CHTO   H14 1230   6.700   2.369   1.018  1.9848 -0.9562 -1.9436
    3CHTO    C2 1231   6.885   2.265   1.059 -0.1792  0.0541 -0.4770
    3CHTO   H15 1232   6.909   2.196   1.142  0.1155 -0.0690 -0.6627
    3CHTO    O6 1233   6.869   2.186   0.940 -0.0736  0.4450  0.0130
    3CHTO    H1 1234   6.823   2.230   0.872 -1.2755  0.3026  0.7057
    3CHTO    C3 1235   6.990   2.384   1.042  0.1579 -0.4076 -0.0447
    3CHTO   H16 1236   6.958   2.456   0.965  0.6710  0.6023  0.6778
    3CHTO    N1 1237   7.121   2.322   1.011  0.2204  0.8790 -0.1996
    3CHTO    H8 1238   7.176   2.367   0.930  3.0392 -1.5969  0.2501
    3CHTO    H9 1239   7.120   2.215   0.999 -0.2771  1.0776 -2.0479
    3CHTO    C4 1240   6.990   2.462   1.181  0.0747  0.1953 -0.0821
    3CHTO   H17 1241   7.005   2.387   1.260 -1.7499 -0.6792 -0.5559
    3CHTO    O1 1242   6.862   2.521   1.203  0.4390  0.2181  0.4344
    3CHTO    C5 1243   6.759   2.421   1.224  0.5792  0.3343  0.4816
    3CHTO   H18 1244   6.781   2.368   1.317  0.0388 -0.1749  0.3209
    3CHTO   C16 1245   6.622   2.489   1.238  0.1486 -0.2691  0.7746
    3CHTO   O11 1246   6.573   2.548   1.116  0.1678  0.5380 -0.2808
    3CHTO    H5 1247   6.479   2.542   1.116  0.1906  0.1944 -0.4303
    3CHTO    O3 1248   7.084   2.573   1.190  0.3691 -0.1757  0.0968
    3CHTO    C6 1249   7.141   2.607   1.323  0.1359 -0.4999 -0.5976
    3CHTO   H19 1250   7.084   2.553   1.398  0.8834 -1.8568 -0.9854
    3CHTO    C8 1251   7.294   2.578   1.328 -0.1273 -0.5978 -0.0972
    3CHTO   H21 1252   7.342   2.640   1.252  0.2575  0.2215  0.8029
    3CHTO    O7 1253   7.302   2.431   1.314  0.4717 -0.4870  0.3322
    3CHTO    H2 1254   7.285   2.389   1.396 -0.9769 -1.2360 -0.3385
    3CHTO   C12 1255   7.350   2.621   1.470  0.2394  0.9287  0.2022
    3CHTO   H25 1256   7.294   2.550   1.535 -0.1870  0.1871 -0.9586
    3CHTO    N3 1257   7.503   2.585   1.474 -0.3442  0.2166  0.6254
    3CHTO   H12 1258   7.535   2.604   1.575  1.9642 -0.7205  0.0914
    3CHTO   H13 1259   7.518   2.482   1.447  1.4506 -0.4478  3.9896
    3CHTO   C15 1260   7.312   2.770   1.511  0.1234  0.4045 -0.5490
    3CHTO   H28 1261   7.364   2.841   1.447 -1.7618 -0.7287 -3.4526
    3CHTO   O10 1262   7.326   2.820   1.661 -0.9274 -0.2123  0.6038
    3CHTO    H4 1263   7.327   2.913   1.650  1.8914 -0.0655  1.8699
    3CHTO    O5 1264   7.173   2.787   1.488  0.5372 -0.2976  0.0780
    3CHTO   C10 1265   7.122   2.761   1.353  0.0695 -1.0444 -0.0688
    3CHTO   H23 1266   7.182   2.825   1.288  2.8717 -1.1703  2.3042
    3CHTO   C17 1267   6.975   2.798   1.340  0.2120 -0.0852 -0.0322
    3CHTO   O12 1268   6.966   2.941   1.352 -0.0046  0.2249 -0.1350
    3CHTO    H6 1269   6.900   2.964   1.414 -1.1278 -2.1869 -0.4033
    4CHTO  H203 1270   5.560   7.099   0.122  0.6345 -1.1743  1.2779
    4CHTO   O82 1271   5.641   7.140   0.148  0.2843  0.3631  0.0429
    4CHTO  C123 1272   5.626   7.271   0.204  0.0747 -0.0780 -0.2146
    4CHTO  H227 1273   5.559   7.262   0.291  3.0953 -0.3074  2.1672
    4CHTO   O77 1274   5.760   7.301   0.256  0.2140  0.6414 -0.7302
    4CHTO  C118 1275   5.774   7.427   0.323  0.6136 -0.4338  0.4147
    4CHTO  H222 1276   5.702   7.441   0.405  0.0802  0.6474 -0.2282
    4CHTO  C125 1277   5.917   7.447   0.380  0.4945 -0.5363 -1.0645
    4CHTO   O84 1278   5.944   7.355   0.485  0.3565 -0.8891 -0.0921
    4CHTO  H205 1279   5.868   7.323   0.529  2.0712 -4.1664  0.6584
    4CHTO  C114 1280   5.752   7.531   0.213 -0.2062 -0.5732  0.1876
    4CHTO  H218 1281   5.820   7.510   0.130  1.0439  0.8322  0.8343
    4CHTO  C116 1282   5.610   7.523   0.159 -0.1360 -0.2668 -0.9199
    4CHTO  H220 1283   5.544   7.561   0.240  1.3965 -1.8423  1.1030
    4CHTO   O79 1284   5.572   7.614   0.052 -0.3043 -0.4553  0.1735
    4CHTO  H201 1285   5.565   7.701   0.085  1.4252 -0.0229 -0.5489
    4CHTO  C120 1286   5.566   7.379   0.104 -0.2529  0.0223 -0.1686
    4CHTO  H224 1287   5.624   7.368   0.010  0.0470  1.0176 -0.1028
    4CHTO   N21 1288   5.420   7.362   0.080  0.1012 -0.1273  0.3494
    4CHTO  H211 1289   5.400   7.396  -0.021  2.0530 -1.1323 -0.4123
    4CHTO  H212 1290   5.364   7.427   0.145 -0.6972  0.0789 -0.5265
    4CHTO   O75 1291   5.782   7.661   0.270  0.1897  0.2224 -0.0145
    4CHTO  C112 1292   5.847   7.762   0.167  0.8737  0.0487 -0.1876
    4CHTO  H216 1293   5.812   7.735   0.066 -0.5498 -2.0341  0.8425
    4CHTO   O73 1294   5.993   7.754   0.180 -0.4654 -0.5405  0.0422
    4CHTO  C113 1295   6.053   7.836   0.081  0.5125 -0.4642 -0.1850
    4CHTO  H217 1296   6.012   7.815  -0.020 -0.9466 -2.0555  0.7051
    4CHTO  C124 1297   6.202   7.816   0.088 -0.1422 -0.1662  0.2137
    4CHTO   O83 1298   6.267   7.838   0.214  0.3707 -0.3776  0.7636
    4CHTO  H204 1299   6.305   7.924   0.209  0.8516 -0.6683 -1.0848
    4CHTO  C109 1300   6.016   7.986   0.100  0.0058 -0.4297  1.5115
    4CHTO  H213 1301   6.060   8.015   0.197  0.6208  0.5720  0.9444
    4CHTO  C110 1302   5.862   8.012   0.096 -0.1202  0.1940 -0.4689
    4CHTO  H214 1303   5.830   7.996  -0.007 -1.6769 -1.7124  0.2897
    4CHTO   O78 1304   5.826   8.145   0.137 -0.4417 -0.2453 -0.3633
    4CHTO  H200 1305   5.819   8.148   0.230  0.9003  0.1071 -0.2534
    4CHTO  C111 1306   5.792   7.911   0.194  0.2368  0.0599  0.4137
    4CHTO  H215 1307   5.820   7.933   0.298 -0.3024 -1.7882  0.9671
    4CHTO   N19 1308   5.643   7.916   0.184 -0.1548 -0.1536  0.2964
    4CHTO  H207 1309   5.614   7.931   0.081  1.3647  0.3085 -0.0842
    4CHTO  H208 1310   5.597   7.838   0.241 -0.0950 -0.1486  0.3515
    4CHTO   O74 1311   6.085   8.070  -0.005 -0.1405  0.1492  0.1864
    4CHTO  C115 1312   6.149   8.199   0.035  1.1465 -0.3683 -0.1414
    4CHTO  H219 1313   6.112   8.231   0.133 -0.4565  0.3389 -0.9576
    4CHTO   O76 1314   6.298   8.182   0.057  0.0700  0.5241 -0.4103
    4CHTO  C122 1315   6.361   8.133  -0.055 -0.2549 -0.3324 -0.1766
    4CHTO  H226 1316   6.310   8.038  -0.074 -0.0324 -0.0763 -2.1458
    4CHTO  C126 1317   6.514   8.093  -0.018 -0.5120 -0.4194 -0.7077
    4CHTO   O85 1318   6.519   7.976   0.065 -0.8032  0.3363  0.0642
    4CHTO  H206 1319   6.609   7.962   0.087 -1.4114 -0.9934  1.8051
    4CHTO  C121 1320   6.347   8.227  -0.174  0.5813  0.2083 -0.2067
    4CHTO  H225 1321   6.450   8.256  -0.203  1.6451 -2.8070  0.3413
    4CHTO   O81 1322   6.284   8.159  -0.287  0.1468  0.1105 -0.0017
    4CHTO  H202 1323   6.330   8.186  -0.364  0.0738  0.2309 -0.0037
    4CHTO  C119 1324   6.259   8.360  -0.136 -0.1377  0.6052 -0.2144
    4CHTO  H223 1325   6.309   8.416  -0.056 -0.8717  0.8067  0.1076
    4CHTO  C117 1326   6.120   8.312  -0.068 -0.4935 -0.3211 -0.3001
    4CHTO  H221 1327   6.051   8.263  -0.136 -2.2286 -0.4408  1.5283
    4CHTO   N20 1328   6.047   8.434  -0.013 -0.2761 -0.4287 -0.5457
    4CHTO  H209 1329   5.951   8.405   0.028 -0.5295  0.4738 -0.4871
    4CHTO  H210 1330   6.108   8.490   0.056 -3.0552  0.2396  1.4729
    4CHTO   O80 1331   6.252   8.456  -0.237 -0.2863 -0.2502  0.6170
    4CHTO  C103 1332   6.377   8.573  -0.245 -0.2682  0.3973 -0.2771
    4CHTO  H190 1333   6.386   8.616  -0.146  0.4920 -0.4340  0.0160
    4CHTO  C101 1334   6.520   8.542  -0.302  0.1512  0.0672 -0.7661
    4CHTO  H188 1335   6.518   8.478  -0.390 -0.7645 -2.1896  0.8436
    4CHTO   O68 1336   6.596   8.474  -0.181 -0.2423  0.2226 -0.0864
    4CHTO  H168 1337   6.618   8.385  -0.202  2.5840  1.0775 -0.9510
    4CHTO   C99 1338   6.605   8.672  -0.341 -0.1145  0.3971 -0.9933
    4CHTO  H186 1339   6.618   8.731  -0.248  0.7832 -1.4759  0.1041
    4CHTO   N17 1340   6.748   8.640  -0.402  0.2053 -0.6053 -0.2850
    4CHTO  H174 1341   6.800   8.729  -0.437 -1.4858  0.0680 -1.1577
    4CHTO  H175 1342   6.804   8.605  -0.316 -1.8740  0.0113  1.3700
    4CHTO   C97 1343   6.524   8.752  -0.437  0.4781  0.1677 -0.8840
    4CHTO  H184 1344   6.504   8.693  -0.527 -1.6796 -0.7514  0.1390
    4CHTO   O64 1345   6.404   8.787  -0.369  0.1170 -0.1426 -0.2139
    4CHTO  C104 1346   6.309   8.684  -0.339 -0.2956  0.0635  0.3100
    4CHTO  H191 1347   6.279   8.639  -0.434 -0.3042  0.0577  0.3155
    4CHTO  C108 1348   6.182   8.747  -0.278 -0.0810 -0.3738 -0.0413
    4CHTO   O71 1349   6.132   8.847  -0.364 -0.1646  0.0363 -0.1698
    4CHTO  H171 1350   6.200   8.911  -0.366 -0.0116 -0.1437 -0.7230
    4CHTO   O62 1351   6.580   8.877  -0.470 -0.2022  0.8196  1.0340
    4CHTO   C91 1352   6.619   8.897  -0.610  0.0560  0.0039  0.1001
    4CHTO  H178 1353   6.636   8.798  -0.652 -0.8712 -0.1022 -0.0233
    4CHTO   C92 1354   6.757   8.976  -0.617 -0.3266 -0.4566 -0.1907
    4CHTO  H179 1355   6.750   9.080  -0.582 -0.4219 -0.3689 -0.4735
    4CHTO   O66 1356   6.853   8.906  -0.538 -0.0527  0.7930 -0.1049
    4CHTO  H166 1357   6.925   8.965  -0.534  0.6775  0.0376 -1.5601
    4CHTO   C93 1358   6.803   8.979  -0.769 -0.0989 -0.3535  0.3369
    4CHTO  H180 1359   6.844   8.878  -0.783 -0.6027 -0.5924  0.5754
    4CHTO   N16 1360   6.925   9.066  -0.800  0.4139  0.8187  0.1940
    4CHTO  H172 1361   6.901   9.169  -0.780 -0.1859  1.2782 -2.6877
    4CHTO  H173 1362   6.954   9.059  -0.904  2.7239 -2.4847  0.9509
    4CHTO   C94 1363   6.685   8.991  -0.870  0.4671 -0.3077  0.2559
    4CHTO  H181 1364   6.703   9.059  -0.953  1.0878  0.8236  1.2871
    4CHTO   O61 1365   6.571   9.044  -0.811 -0.2952  0.3245 -0.0384
    4CHTO   C95 1366   6.512   8.976  -0.691  0.1477 -0.4519  0.1637
    4CHTO  H182 1367   6.473   9.051  -0.622  1.3899 -0.4208  0.8452
    4CHTO  C106 1368   6.390   8.877  -0.718 -0.3798 -0.3424 -0.4460
    4CHTO   O69 1369   6.414   8.776  -0.810  0.5336 -0.5744 -1.1001
    4CHTO  H169 1370   6.461   8.705  -0.771  1.3544 -0.5070 -1.9383
    4CHTO   O63 1371   6.647   8.855  -0.927 -0.0455  0.7983  0.1547
    4CHTO   C96 1372   6.754   8.783  -1.043  0.1162 -0.0877  0.3466
    4CHTO  H183 1373   6.854   8.800  -1.004 -0.7427  3.6492  1.1371
    4CHTO   C98 1374   6.750   8.849  -1.181  0.2148 -0.1939 -0.2374
    4CHTO  H185 1375   6.645   8.868  -1.207 -0.5000 -2.3695  0.9245
    4CHTO   O67 1376   6.810   8.975  -1.165 -0.4579 -0.2429 -0.2357
    4CHTO  H167 1377   6.884   8.991  -1.221  0.4444  1.8776  1.4757
    4CHTO  C102 1378   6.827   8.761  -1.285  0.0358  0.1845 -0.2928
    4CHTO  H189 1379   6.935   8.767  -1.265  0.2131 -1.1917 -0.7773
    4CHTO   N18 1380   6.810   8.809  -1.422  0.2019  0.1463  0.6812
    4CHTO  H176 1381   6.863   8.900  -1.447  1.7516 -0.6827  0.8950
    4CHTO  H177 1382   6.704   8.831  -1.424 -0.0874 -1.2290 -1.5852
    4CHTO  C105 1383   6.779   8.618  -1.277  0.2499  0.5345 -0.0000
    4CHTO  H192 1384   6.675   8.608  -1.310  0.1191  1.5664  0.0889
    4CHTO   O65 1385   6.787   8.560  -1.151 -0.2966 -0.2189  0.5459
    4CHTO  C100 1386   6.729   8.628  -1.040 -0.3395 -0.2441 -0.8914
    4CHTO  H187 1387   6.621   8.611  -1.042 -0.6420  1.6742 -2.5787
    4CHTO  C107 1388   6.791   8.562  -0.911 -0.4550  0.3933  0.5966
    4CHTO   O70 1389   6.737   8.592  -0.785 -0.0632  0.2416  0.1143
    4CHTO  H170 1390   6.807   8.608  -0.725  1.0725  1.9436 -1.6174
    4CHTO   O57 1391   6.875   8.527  -1.368 -0.2215  0.2745  0.6467
    4CHTO   C85 1392   6.846   8.387  -1.402  0.5586  0.2482 -0.0822
    4CHTO  H157 1393   6.737   8.372  -1.392  0.7365  0.1682  1.7518
    4CHTO   C83 1394   6.922   8.305  -1.297 -0.2769  0.3275 -0.1042
    4CHTO  H155 1395   6.880   8.330  -1.199  2.1699  0.4047  0.9590
    4CHTO   O56 1396   7.063   8.332  -1.302  0.0067  0.2714  0.3341
    4CHTO  H135 1397   7.098   8.315  -1.217  2.3717  2.5417 -0.1454
    4CHTO   C81 1398   6.899   8.156  -1.322 -0.5151 -0.1062 -0.2871
    4CHTO  H153 1399   6.793   8.136  -1.309 -0.2114 -0.6802  1.5397
    4CHTO   N14 1400   6.957   8.072  -1.215 -0.7158 -0.5157  0.3340
    4CHTO  H141 1401   6.920   8.093  -1.117 -0.8894 -2.8903  0.7925
    4CHTO  H142 1402   7.063   8.088  -1.213 -0.4900 -1.8464 -0.4556
    4CHTO   C79 1403   6.936   8.126  -1.467 -0.2907 -0.5550  0.7462
    4CHTO  H151 1404   6.897   8.027  -1.493  0.0237  0.2102 -2.8844
    4CHTO   O52 1405   6.880   8.211  -1.576 -0.4018 -0.7583  0.6247
    4CHTO   C86 1406   6.892   8.352  -1.544  0.1004 -1.4001 -0.5362
    4CHTO  H158 1407   7.001   8.370  -1.556 -0.2759  0.5986 -1.1750
    4CHTO   C90 1408   6.823   8.435  -1.650  0.2525  0.5911  0.2601
    4CHTO   O60 1409   6.694   8.380  -1.682  0.1178  0.4885  0.0694
    4CHTO  H138 1410   6.637   8.454  -1.672 -1.4136 -0.6356 -0.1051
    4CHTO   O50 1411   7.079   8.135  -1.487 -0.0535  0.0633 -0.2791
    4CHTO   C73 1412   7.206   8.124  -1.555  0.1741 -0.4608 -0.7100
    4CHTO  H145 1413   7.260   8.218  -1.538  1.2236 -0.8746 -1.6063
    4CHTO   C74 1414   7.189   8.088  -1.708  0.4642  0.1692  0.5138
    4CHTO  H146 1415   7.138   8.175  -1.752 -1.9316  0.1514  3.1142
    4CHTO   O54 1416   7.317   8.077  -1.771 -0.0446 -0.2634 -0.0379
    4CHTO  H133 1417   7.373   8.015  -1.729  1.5151  0.7042 -0.6538
    4CHTO   C75 1418   7.101   7.960  -1.722  0.5848  0.4155 -0.5455
    4CHTO  H147 1419   7.006   7.983  -1.672  1.9922  0.6585  2.1419
    4CHTO   N13 1420   7.061   7.922  -1.859  0.1808 -0.2519  0.3670
    4CHTO  H139 1421   6.955   7.937  -1.871 -0.2534 -2.5385  1.1118
    4CHTO  H140 1422   7.125   7.969  -1.933 -1.7683 -0.0648 -1.2285
    4CHTO   C76 1423   7.171   7.844  -1.634 -0.0307 -0.1771  0.5590
    4CHTO  H148 1424   7.261   7.819  -1.690  0.7802  1.7093  0.9673
    4CHTO   O49 1425   7.210   7.883  -1.499  0.0046 -0.0864  0.4274
    4CHTO   C77 1426   7.291   8.005  -1.496  1.0315 -0.0087 -0.4301
    4CHTO  H149 1427   7.382   7.985  -1.554  0.1792 -0.0516 -1.7775
    4CHTO   C88 1428   7.331   8.033  -1.346  0.3447  0.2404  0.2017
    4CHTO   O58 1429   7.433   7.923  -1.288  0.6512 -0.0848 -0.3278
    4CHTO  H136 1430   7.397   7.837  -1.295  2.6674 -0.8798 -1.3098
    4CHTO   O51 1431   7.063   7.722  -1.611 -1.0274 -0.3947 -0.2043
    4CHTO   C78 1432   7.131   7.586  -1.523  0.2638  0.3137 -0.1005
    4CHTO  H150 1433   7.200   7.627  -1.446 -1.2501  0.8509  1.0097
    4CHTO   C80 1434   7.207   7.495  -1.615 -0.2973 -0.3841 -0.4539
    4CHTO  H152 1435   7.144   7.451  -1.695  3.3706 -1.3498 -2.9510
    4CHTO   O55 1436   7.317   7.565  -1.669 -0.2512  0.3090  0.3368
    4CHTO  H134 1437   7.283   7.605  -1.747 -1.9204 -0.3342  0.7023
    4CHTO   C84 1438   7.250   7.369  -1.531 -0.8359  0.3877  0.2200
    4CHTO  H156 1439   7.324   7.402  -1.458  0.6529 -1.1720 -0.5395
    4CHTO   N15 1440   7.338   7.272  -1.614  0.1066  0.2100  0.3552
    4CHTO  H143 1441   7.444   7.283  -1.622  0.2638 -1.6543 -0.2765
    4CHTO  H144 1442   7.296   7.271  -1.712  1.2448  2.8422 -0.2031
    4CHTO   C87 1443   7.118   7.303  -1.476 -0.1753  0.1786  0.0749
    4CHTO  H159 1444   7.053   7.263  -1.553 -1.5169 -0.4025  1.4937
    4CHTO   O53 1445   7.053   7.397  -1.387 -1.1969  0.0127 -0.1462
    4CHTO   C82 1446   7.011   7.517  -1.449 -0.8159  0.3543  0.1475
    4CHTO  H154 1447   6.934   7.494  -1.522 -3.2378  2.2080  2.0062
    4CHTO   C89 1448   6.945   7.610  -1.344  0.5118  0.6932  0.3155
    4CHTO   O59 1449   7.045   7.615  -1.237  0.7456  0.2413  0.1170
    4CHTO  H137 1450   7.026   7.674  -1.167 -1.1955  0.0964 -0.2632
    4CHTO   O45 1451   7.160   7.182  -1.379  0.1664  0.3983 -0.0990
    4CHTO   C67 1452   7.121   7.055  -1.432  0.3867 -0.1502 -0.3261
    4CHTO  H124 1453   7.131   7.039  -1.540 -0.1079  0.3946 -0.4519
    4CHTO   C65 1454   7.217   6.950  -1.362  0.7029 -0.2216  0.1357
    4CHTO  H122 1455   7.314   6.999  -1.363 -0.3719  1.9920 -0.4539
    4CHTO   O44 1456   7.227   6.818  -1.424  0.1085  0.2419 -0.1891
    4CHTO  H102 1457   7.266   6.829  -1.509  1.6141 -0.6442  0.3667
    4CHTO   C63 1458   7.177   6.945  -1.206 -0.0127 -1.1359  0.3122
    4CHTO  H120 1459   7.194   7.044  -1.164 -0.9624 -1.7952  2.3089
    4CHTO   N11 1460   7.272   6.867  -1.119 -0.1401  0.1004  0.9455
    4CHTO  H108 1461   7.286   6.913  -1.024  0.9477  0.3193  0.6794
    4CHTO  H109 1462   7.228   6.769  -1.109 -1.2527  0.6906  1.9879
    4CHTO   C61 1463   7.023   6.913  -1.178  0.1839  0.0699  0.4948
    4CHTO  H118 1464   6.995   6.939  -1.075 -0.6674  0.6152  0.1257
    4CHTO   O40 1465   6.935   6.987  -1.262  0.4789  0.3797  0.3187
    4CHTO   C68 1466   6.967   7.022  -1.399 -0.5465 -0.3101  0.2544
    4CHTO  H125 1467   6.914   7.117  -1.424 -1.0790 -0.8493 -0.7035
    4CHTO   C72 1468   6.902   6.913  -1.496 -0.5033  0.1859  0.3198
    4CHTO   O48 1469   6.768   6.930  -1.513  0.0793 -0.0317  0.6337
    4CHTO  H105 1470   6.740   6.854  -1.561 -0.5050  0.3022  0.4360
    4CHTO   O38 1471   6.983   6.772  -1.200 -0.1940 -0.0346 -0.2760
    4CHTO   C55 1472   6.891   6.712  -1.101  0.2557  0.5491 -0.4146
    4CHTO  H112 1473   6.825   6.786  -1.055  0.1619  1.2525 -1.6672
    4CHTO   C56 1474   6.976   6.626  -1.007  0.3417 -1.2469  0.0130
    4CHTO  H113 1475   7.035   6.551  -1.062  1.5901  1.5675 -2.6641
    4CHTO   O42 1476   7.077   6.703  -0.940  0.1308  0.0047  0.2958
    4CHTO  H100 1477   7.158   6.657  -0.931  1.5483  2.4572  0.6334
    4CHTO   C57 1478   6.884   6.548  -0.903 -0.3098 -0.2848 -0.8032
    4CHTO  H114 1479   6.839   6.622  -0.836  1.3747 -2.3341  2.7112
    4CHTO   N10 1480   6.954   6.462  -0.807 -0.1102 -0.0978  0.6739
    4CHTO  H106 1481   7.040   6.416  -0.853 -1.0863  0.1969 -1.4866
    4CHTO  H107 1482   6.979   6.521  -0.720 -0.8528  0.2747  0.6441
    4CHTO   C58 1483   6.766   6.472  -0.978 -0.1744  0.9323  0.6312
    4CHTO  H115 1484   6.810   6.385  -1.031 -1.8843  0.4141  0.0167
    4CHTO   O37 1485   6.709   6.566  -1.068  0.1831  0.0644  0.7036
    4CHTO   C59 1486   6.796   6.612  -1.174 -0.8603 -0.2018 -0.1640
    4CHTO  H116 1487   6.848   6.536  -1.232  0.4542  0.2163  0.4508
    4CHTO   C70 1488   6.721   6.688  -1.277  0.0965 -0.2486 -0.1446
    4CHTO   O46 1489   6.647   6.801  -1.232  0.3560 -0.1072  0.0924
    4CHTO  H103 1490   6.696   6.881  -1.224 -0.4337  0.2627  1.3797
    4CHTO   O39 1491   6.649   6.430  -0.879 -0.5533  0.0186  0.2392
    4CHTO   C60 1492   6.519   6.400  -0.937 -0.3306 -0.1668 -0.0101
    4CHTO  H117 1493   6.507   6.439  -1.039 -2.0154  0.2583  0.3365
    4CHTO   C62 1494   6.499   6.241  -0.948  0.3276 -0.3258 -0.0317
    4CHTO  H119 1495   6.584   6.206  -1.009  1.2550 -0.2848  1.2152
    4CHTO   O43 1496   6.525   6.190  -0.815  0.4316  0.0672  0.5681
    4CHTO  H101 1497   6.447   6.199  -0.763 -0.7724 -1.4571 -0.8846
    4CHTO   C66 1498   6.350   6.209  -1.016 -0.3308 -0.6746 -0.4029
    4CHTO  H123 1499   6.340   6.255  -1.114  2.1320  0.6193 -0.0764
    4CHTO   N12 1500   6.331   6.064  -1.039  0.7548 -0.2250  0.2033
    4CHTO  H110 1501   6.249   6.032  -0.978  1.8437 -1.4633  1.0391
    4CHTO  H111 1502   6.331   6.037  -1.144 -0.9883  1.9161 -0.3797
    4CHTO   C69 1503   6.242   6.275  -0.929 -0.4624  1.0070  0.2517
    4CHTO  H126 1504   6.227   6.229  -0.829 -1.2007  1.0024  0.1445
    4CHTO   O41 1505   6.270   6.431  -0.917  1.0182 -0.5163  0.5131
    4CHTO   C64 1506   6.405   6.464  -0.856 -1.1763 -0.2670  0.2149
    4CHTO  H121 1507   6.413   6.433  -0.749 -0.5835  1.6729  0.7508
    4CHTO   C71 1508   6.431   6.613  -0.866 -0.5302 -0.5381  0.4476
    4CHTO   O47 1509   6.362   6.689  -0.770 -0.1065 -0.5174 -0.0770
    4CHTO  H104 1510   6.273   6.701  -0.798  0.6872 -1.5507 -3.1941
    4CHTO   O34 1511   6.090   6.249  -0.985 -0.3195 -0.1469  0.0574
    4CHTO   C49 1512   5.978   6.294  -1.012  0.6432 -0.6681  0.4543
    4CHTO   H91 1513   5.941   6.352  -0.928  1.5047  2.2524 -1.0885
    4CHTO   C47 1514   5.877   6.189  -1.058 -0.4785  0.1587  0.0267
    4CHTO   H89 1515   5.784   6.245  -1.077 -0.8308 -0.2909  0.4165
    4CHTO   O33 1516   5.854   6.097  -0.953 -0.3046 -0.2062 -0.1791
    4CHTO   H70 1517   5.836   6.013  -0.991  0.4110 -0.1497 -0.6688
    4CHTO   C45 1518   5.934   6.114  -1.191 -0.3841  0.2489  0.1629
    4CHTO   H87 1519   6.007   6.034  -1.170 -1.1157 -0.8671 -1.4269
    4CHTO    N8 1520   5.822   6.043  -1.259  0.0713  0.0467 -0.2317
    4CHTO   H75 1521   5.724   6.069  -1.221  0.6932  0.2836  1.2580
    4CHTO   H76 1522   5.819   6.079  -1.361 -0.8013 -0.6284 -0.4516
    4CHTO   C43 1523   6.013   6.217  -1.284  0.7002 -0.7943  0.0695
    4CHTO   H85 1524   6.119   6.216  -1.258  0.6548  0.6119  0.3261
    4CHTO   O29 1525   5.954   6.347  -1.261 -0.0388  0.4657 -0.7833
    4CHTO   C50 1526   5.989   6.396  -1.130 -0.7974 -0.3241  0.5998
    4CHTO   H92 1527   6.085   6.448  -1.140 -0.5427 -1.3030 -2.3757
    4CHTO   C54 1528   5.899   6.522  -1.089 -0.2302 -0.1996  0.2657
    4CHTO   O36 1529   5.758   6.487  -1.086 -0.5257 -0.2540  0.0414
    4CHTO   H72 1530   5.707   6.533  -1.022  0.8903 -0.5296  1.4057
    4CHTO   O27 1531   6.028   6.185  -1.427  0.0038 -0.1987  0.6053
    4CHTO   C37 1532   6.146   6.179  -1.511 -0.3713 -0.1353  0.5186
    4CHTO   H79 1533   6.113   6.169  -1.615  0.5884 -2.8433  0.4388
    4CHTO   C38 1534   6.223   6.315  -1.488  0.3459 -0.0822 -0.1442
    4CHTO   H80 1535   6.227   6.342  -1.381  1.6826 -0.4871 -0.0888
    4CHTO   O31 1536   6.151   6.422  -1.555  0.2529 -0.1876  0.1650
    4CHTO   H68 1537   6.162   6.416  -1.648 -1.1890  2.1289 -0.1830
    4CHTO   C39 1538   6.375   6.309  -1.536  0.3841  0.5646 -0.2726
    4CHTO   H81 1539   6.371   6.300  -1.644  0.8886 -1.9013 -0.1095
    4CHTO    N7 1540   6.450   6.435  -1.502 -0.2537 -0.1563 -0.4387
    4CHTO   H73 1541   6.478   6.464  -1.402 -1.3017  0.0707 -0.2113
    4CHTO   H74 1542   6.511   6.469  -1.585  0.5284 -1.2331 -0.3241
    4CHTO   C40 1543   6.439   6.182  -1.476 -0.6118 -0.0744 -0.3366
    4CHTO   H82 1544   6.443   6.188  -1.368  1.9081 -0.3717 -0.3964
    4CHTO   O26 1545   6.359   6.069  -1.519 -0.4935 -0.0144 -0.1811
    4CHTO   C41 1546   6.228   6.057  -1.462 -0.4645  0.4786  0.2554
    4CHTO   H83 1547   6.235   6.059  -1.352  0.2847  2.1703  0.1980
    4CHTO   C52 1548   6.178   5.919  -1.499  0.8015 -1.4347  0.1982
    4CHTO   O35 1549   6.160   5.897  -1.655 -0.1586 -0.1405  0.1406
    4CHTO   H71 1550   6.220   5.832  -1.689 -0.5938  0.1884 -1.3191
    4CHTO   O28 1551   6.575   6.159  -1.520  0.0573 -0.6062 -0.1776
    4CHTO   C42 1552   6.667   6.089  -1.437 -0.2183  0.3349 -0.9687
    4CHTO   H84 1553   6.751   6.074  -1.505 -0.2313 -1.1009 -0.6887
    4CHTO   C44 1554   6.626   5.944  -1.388 -0.5709  0.4097 -0.2019
    4CHTO   H86 1555   6.522   5.946  -1.356 -0.4383  0.2197  0.2466
    4CHTO   O32 1556   6.619   5.865  -1.506 -0.3583  0.0855 -0.0797
    4CHTO   H69 1557   6.593   5.778  -1.481  0.6066 -0.5907 -1.3664
    4CHTO   C48 1558   6.718   5.885  -1.275 -0.3322 -0.1719 -0.1729
    4CHTO   H90 1559   6.817   5.870  -1.318 -0.4037  2.2933 -1.2921
    4CHTO    N9 1560   6.665   5.751  -1.240  0.2027 -0.4075  0.5010
    4CHTO   H77 1561   6.695   5.680  -1.316 -0.8305 -0.5454  0.2102
    4CHTO   H78 1562   6.689   5.717  -1.141 -2.0906  0.8528  1.5288
    4CHTO   C51 1563   6.721   5.984  -1.155  0.5261 -0.7034 -0.1295
    4CHTO   H93 1564   6.621   5.996  -1.114  0.9456 -0.2737  0.8019
    4CHTO   O30 1565   6.780   6.109  -1.193  0.4668  0.1764 -0.5121
    4CHTO   C46 1566   6.720   6.185  -1.320 -0.0875  0.6223 -0.5698
    4CHTO   H88 1567   6.642   6.250  -1.281 -0.2388  0.5942 -0.8254
    4CHTO   C53 1568   6.836   6.267  -1.374 -0.6896 -0.6860  0.4561
    4CHTO   O72 1569   6.795   6.372  -1.468 -0.3547  0.0091 -0.6394
    4CHTO  H199 1570   6.862   6.432  -1.492  0.1544 -0.7833 -1.2439
    4CHTO   O22 1571   6.805   5.935  -1.045 -0.3279 -0.4782  0.5963
    4CHTO   C31 1572   6.766   5.965  -0.903 -0.2271  0.3403  0.2327
    4CHTO   H59 1573   6.710   6.060  -0.908 -0.9629  0.0826  2.8577
    4CHTO   C29 1574   6.660   5.861  -0.838  0.3235 -0.3647  0.4741
    4CHTO   H57 1575   6.701   5.760  -0.843 -0.0252 -0.4253 -1.7101
    4CHTO   O21 1576   6.532   5.859  -0.902  0.4583  0.3636  0.0473
    4CHTO   H37 1577   6.477   5.932  -0.881 -1.4065 -1.5540  2.1223
    4CHTO   C27 1578   6.633   5.902  -0.688  0.2524 -0.0452 -0.2713
    4CHTO   H55 1579   6.560   5.984  -0.689  0.8879  0.5197 -0.8340
    4CHTO    N5 1580   6.584   5.797  -0.602 -0.0854 -0.0009 -0.1870
    4CHTO   H43 1581   6.637   5.703  -0.605 -0.5419 -0.3268  1.3110
    4CHTO   H44 1582   6.476   5.794  -0.607 -0.1483  1.3327  0.1886
    4CHTO   C25 1583   6.762   5.959  -0.611  0.3200 -0.5155 -0.6504
    4CHTO   H53 1584   6.826   5.878  -0.577 -0.7861 -1.1761 -0.1119
    4CHTO   O17 1585   6.841   6.054  -0.697 -0.7722 -0.1732 -0.4334
    4CHTO   C32 1586   6.886   5.991  -0.818  0.1131 -0.2007 -0.9630
    4CHTO   H60 1587   6.940   5.899  -0.796  1.0342  0.4546 -0.4705
    4CHTO   C36 1588   6.991   6.079  -0.889  0.2128 -0.2085 -0.2702
    4CHTO   O25 1589   7.116   6.093  -0.818 -0.0329  0.6142 -0.5809
    4CHTO   H40 1590   7.118   6.175  -0.773  0.2836  1.2844 -1.7778
    4CHTO   O15 1591   6.725   6.051  -0.500  0.4182 -0.2578 -0.3851
    4CHTO   C19 1592   6.747   6.176  -0.440 -0.4807 -0.3375  0.1387
    4CHTO   H47 1593   6.739   6.157  -0.332  1.2403  1.2194  0.5626
    4CHTO   C20 1594   6.891   6.239  -0.455 -0.6628 -0.4181  0.4025
    4CHTO   H48 1595   6.914   6.264  -0.560 -0.0057 -0.1711  0.6015
    4CHTO   O19 1596   6.986   6.139  -0.408 -0.2209  0.0264  0.0261
    4CHTO   H35 1597   7.063   6.174  -0.366 -0.8913  1.0671  0.4218
    4CHTO   C21 1598   6.904   6.377  -0.369  0.3175 -0.1480 -0.5117
    4CHTO   H49 1599   6.912   6.355  -0.262  0.3965  0.7258 -0.3336
    4CHTO    N4 1600   7.031   6.447  -0.393  0.0237 -0.5817  0.2140
    4CHTO   H41 1601   7.022   6.519  -0.473  0.1374  0.5217  1.1675
    4CHTO   H42 1602   7.072   6.493  -0.304  1.1134 -0.5714 -0.2911
    4CHTO   C22 1603   6.785   6.465  -0.405  0.0752 -0.2850 -0.4087
    4CHTO   H50 1604   6.785   6.518  -0.500  1.1196  1.4246  0.5056
    4CHTO   O14 1605   6.658   6.400  -0.387  1.1308  0.5807 -0.6104
    4CHTO   C23 1606   6.635   6.288  -0.473  0.7598 -0.5390 -0.6621
    4CHTO   H51 1607   6.645   6.327  -0.575  2.0844 -1.2134 -0.8047
    4CHTO   C34 1608   6.485   6.243  -0.455 -0.3343  0.2733 -0.3195
    4CHTO   O23 1609   6.391   6.342  -0.478 -0.3670  0.5052 -0.2039
    4CHTO   H38 1610   6.308   6.298  -0.485  0.6007 -1.5264  0.6016
    4CHTO   O16 1611   6.771   6.557  -0.293  0.1219 -0.1063 -0.0747
    4CHTO   C24 1612   6.701   6.700  -0.320  0.5125 -0.0929 -0.3896
    4CHTO   H52 1613   6.634   6.699  -0.405  2.6921 -0.2397 -2.1580
    4CHTO   C26 1614   6.812   6.807  -0.343 -0.1193  0.0352 -0.2449
    4CHTO   H54 1615   6.888   6.763  -0.410  0.0367 -0.3063  0.1552
    4CHTO   O20 1616   6.765   6.924  -0.411  0.1331  0.1538  0.0074
    4CHTO   H36 1617   6.785   6.919  -0.502  0.9119  1.4494  0.0939
    4CHTO   C30 1618   6.882   6.859  -0.207 -0.2563  0.2099  0.1467
    4CHTO   H58 1619   6.837   6.955  -0.181  0.6310  0.7925 -0.4231
    4CHTO    N6 1620   7.028   6.889  -0.211 -0.1073 -0.0185 -0.0260
    4CHTO   H45 1621   7.082   6.796  -0.205 -0.3623 -0.3097 -1.9618
    4CHTO   H46 1622   7.058   6.953  -0.128 -1.3183  2.2075 -1.2548
    4CHTO   C33 1623   6.843   6.764  -0.089  0.0777  0.1579 -0.7114
    4CHTO   H61 1624   6.862   6.658  -0.109 -1.4194 -0.2838  0.1168
    4CHTO   O18 1625   6.701   6.775  -0.078  0.0357 -0.2917  0.2934
    4CHTO   C28 1626   6.622   6.732  -0.190  0.2176  0.7531 -0.6038
    4CHTO   H56 1627   6.565   6.641  -0.171  1.1274 -0.0905 -1.8308
    4CHTO   C35 1628   6.513   6.836  -0.221 -0.1459 -0.6163 -0.5524
    4CHTO   O24 1629   6.402   6.859  -0.130  0.4491  0.3449  0.2593
    4CHTO   H39 1630   6.424   6.896  -0.047  1.3694 -1.0826  0.6678
    4CHTO    O9 1631   6.909   6.798   0.038 -0.0889 -0.1117  0.0106
    4CHTO   C13 1632   7.010   6.677   0.090  0.3292  0.4721 -0.0398
    4CHTO   H26 1633   7.083   6.662   0.007 -1.2429  2.1278 -1.8029
    4CHTO   C11 1634   6.938   6.538   0.127 -0.0547 -0.1938 -0.0599
    4CHTO   H24 1635   6.899   6.494   0.034  1.8099 -1.2101 -0.3971
    4CHTO    O8 1636   6.836   6.546   0.226 -0.0191  0.8542 -0.5163
    4CHTO    H3 1637   6.774   6.477   0.213 -1.4781  1.4999  2.5488
    4CHTO    C9 1638   7.053   6.437   0.167 -0.1584 -0.6068  0.1881
    4CHTO   H22 1639   7.122   6.447   0.082  0.2275  2.6802  0.8065
    4CHTO    N2 1640   7.012   6.295   0.169  0.4832  0.3853  0.7759
    4CHTO   H10 1641   7.050   6.252   0.077 -0.3525  0.6872  0.2818
    4CHTO   H11 1642   6.906   6.277   0.163  0.6398 -0.2814 -0.1604
    4CHTO    C7 1643   7.123   6.485   0.294 -0.0050 -0.1077  0.0429
    4CHTO   H20 1644   7.213   6.420   0.290  0.8228  1.0958 -1.9489
    4CHTO    O4 1645   7.174   6.616   0.271 -0.0185 -0.5515 -0.1500
    4CHTO   C14 1646   7.106   6.724   0.206  0.4589 -0.4280  0.4479
    4CHTO   H27 1647   7.189   6.779   0.157  0.0250 -0.9169 -0.8707
    4CHTO   C18 1648   7.035   6.824   0.304 -0.0163 -0.0895 -0.1826
    4CHTO   O13 1649   7.139   6.905   0.358 -0.5996  0.4677  0.6771
    4CHTO    H7 1650   7.185   6.957   0.294 -0.9190  0.6467  0.5921
    4CHTO    O2 1651   7.042   6.479   0.427  0.3786  0.4081 -0.3150
    4CHTO    C1 1652   7.097   6.523   0.555 -0.6041 -0.7224  0.2115
    4CHTO   H14 1653   7.127   6.630   0.548 -0.8156 -0.6988 -0.3380
    4CHTO    C2 1654   7.222   6.434   0.599  0.2515  0.7369 -0.1937
    4CHTO   H15 1655   7.185   6.333   0.578  0.5606  0.2212  1.6168
    4CHTO    O6 1656   7.328   6.461   0.516  0.2581  0.5937  0.4966
    4CHTO    H1 1657   7.412   6.430   0.543  0.7592  0.4165 -1.2107
    4CHTO    C3 1658   7.263   6.446   0.757  0.2253 -0.1094 -0.4482
    4CHTO   H16 1659   7.329   6.534   0.769  0.2631 -0.0247 -1.2241
    4CHTO    N1 1660   7.355   6.337   0.797 -0.1659  0.4505 -0.4574
    4CHTO    H8 1661   7.337   6.236   0.761  1.6962 -0.1813  0.2940
    4CHTO    H9 1662   7.461   6.357   0.793 -0.0899  0.1509  0.0017
    4CHTO    C4 1663   7.135   6.463   0.846 -0.0032 -0.6513  0.2030
    4CHTO   H17 1664   7.106   6.361   0.871  4.1485 -1.8494  0.4184
    4CHTO    O1 1665   7.040   6.551   0.783 -0.1529 -0.2104  0.2741
    4CHTO    C5 1666   6.984   6.508   0.657 -0.2775 -0.2255  0.1371
    4CHTO   H18 1667   6.950   6.404   0.660  1.7514 -0.8641  1.8033
    4CHTO   C16 1668   6.860   6.599   0.621  0.2102  0.1077  0.2694
    4CHTO   O11 1669   6.754   6.582   0.715  0.3100 -0.3824  0.0808
    4CHTO    H5 1670   6.738   6.494   0.744 -0.2674 -0.1357  0.5130
    4CHTO    O3 1671   7.176   6.534   0.960  0.6046 -0.5166  0.1673
    4CHTO    C6 1672   7.103   6.487   1.081  0.8194 -0.1251  0.3993
    4CHTO   H19 1673   6.999   6.460   1.063  0.8328  1.4424 -2.2218
    4CHTO    C8 1674   7.181   6.376   1.155 -0.4561  0.9520 -0.1713
    4CHTO   H21 1675   7.286   6.406   1.157 -0.1945  0.0725 -0.4393
    4CHTO    O7 1676   7.160   6.253   1.081  0.2835 -0.4982 -0.2636
    4CHTO    H2 1677   7.067   6.242   1.076  0.2054 -0.0550  0.0825
    4CHTO   C12 1678   7.144   6.354   1.306  0.1584  0.1163 -0.9824
    4CHTO   H25 1679   7.035   6.332   1.307  0.0854  0.4496 -1.2750
    4CHTO    N3 1680   7.219   6.244   1.367  0.2019  0.3524  0.0656
    4CHTO   H12 1681   7.222   6.161   1.297 -0.0560 -0.5468  1.0971
    4CHTO   H13 1682   7.321   6.272   1.387  1.3425 -1.8742 -2.3191
    4CHTO   C15 1683   7.163   6.499   1.366  0.0769 -0.2700  0.3442
    4CHTO   H28 1684   7.263   6.544   1.367 -0.5584  1.2427 -0.7784
    4CHTO   O10 1685   7.119   6.501   1.507  0.4452 -0.0351 -0.0431
    4CHTO    H4 1686   7.027   6.518   1.509  0.5038  0.2217  0.5453
    4CHTO    O5 1687   7.072   6.596   1.303 -0.6063  0.7402 -0.1146
    4CHTO   C10 1688   7.100   6.619   1.165  0.2704 -0.0619  0.5573
    4CHTO   H23 1689   7.192   6.676   1.150 -1.3773  2.2259 -1.0610
    4CHTO   C17 1690   6.986   6.711   1.108 -0.4854  0.4909  0.3611
    4CHTO   O12 1691   6.859   6.653   1.117  0.2896  0.1993 -0.1044
    4CHTO    H6 1692   6.850   6.639   1.209  2.2722 -1.4536 -0.1093
    5CHTO  H203 1693   7.145   3.846   2.273 -1.9599 -0.1883 -1.0121
    5CHTO   O82 1694   7.134   3.753   2.281 -0.0994 -0.3568 -0.1935
    5CHTO  C123 1695   7.131   3.711   2.423 -0.0812 -0.3162 -0.2135
    5CHTO  H227 1696   7.232   3.710   2.465  0.3947 -2.4110 -1.3523
    5CHTO   O77 1697   7.051   3.813   2.499  0.3163  0.2455  0.3897
    5CHTO  C118 1698   7.009   3.780   2.631  0.1080 -0.2401  0.1750
    5CHTO  H222 1699   7.088   3.759   2.706  0.0787  0.2506  0.3468
    5CHTO  C125 1700   6.936   3.905   2.682 -0.0015  0.9742 -0.2442
    5CHTO   O84 1701   7.022   4.018   2.686 -0.5701 -0.0032  0.4866
    5CHTO  H205 1702   6.971   4.097   2.685  1.6445  1.4867 -0.8527
    5CHTO  C114 1703   6.925   3.653   2.632 -1.1790  0.4407  0.1998
    5CHTO  H218 1704   6.844   3.665   2.560  0.9233  2.2592 -1.9368
    5CHTO  C116 1705   7.020   3.535   2.582  0.3736 -0.2020 -0.6556
    5CHTO  H220 1706   7.098   3.503   2.654 -1.0017 -1.3174  0.3650
    5CHTO   O79 1707   6.938   3.416   2.578 -0.6374  0.4772  0.3471
    5CHTO  H201 1708   6.898   3.407   2.662 -1.1420  2.2257  0.3055
    5CHTO  C120 1709   7.082   3.563   2.442 -0.0085  0.6140  0.3027
    5CHTO  H224 1710   6.997   3.552   2.371  0.1194  1.5419 -0.0017
    5CHTO   N21 1711   7.182   3.464   2.391  0.3777 -0.2000 -0.1352
    5CHTO  H211 1712   7.143   3.367   2.417  1.5655 -1.4723 -2.9582
    5CHTO  H212 1713   7.199   3.482   2.286  0.0006  1.0032  0.0060
    5CHTO   O75 1714   6.882   3.641   2.765 -0.3726 -0.0031 -0.1439
    5CHTO  C112 1715   6.730   3.610   2.787  0.5776  0.0880 -0.3894
    5CHTO  H216 1716   6.699   3.524   2.726 -0.2567  1.5791 -2.1476
    5CHTO   O73 1717   6.660   3.726   2.746  0.2815  0.1298 -0.8774
    5CHTO  C113 1718   6.517   3.709   2.741 -0.5283 -0.1408  0.1049
    5CHTO  H217 1719   6.484   3.617   2.688 -0.3104 -0.0172 -0.2486
    5CHTO  C124 1720   6.451   3.829   2.673 -0.4018  0.4259  0.2829
    5CHTO   O83 1721   6.469   3.945   2.759  0.4833  0.2995  0.4677
    5CHTO  H204 1722   6.412   4.008   2.720 -0.3098 -1.7048 -1.7168
    5CHTO  C109 1723   6.472   3.679   2.885  0.1511  0.3010 -0.6526
    5CHTO  H213 1724   6.471   3.774   2.940 -0.8078 -0.4166  0.6034
    5CHTO  C110 1725   6.552   3.575   2.964 -0.0024  0.3359 -0.3410
    5CHTO  H214 1726   6.516   3.479   2.926  1.4285 -0.3537  0.0402
    5CHTO   O78 1727   6.526   3.578   3.108 -0.1971 -0.5291 -0.0473
    5CHTO  H200 1728   6.436   3.594   3.131  0.3016  0.7740  1.0723
    5CHTO  C111 1729   6.703   3.579   2.942 -0.0278  0.2682 -0.2712
    5CHTO  H215 1730   6.744   3.663   3.000  0.2586  0.9982 -1.4987
    5CHTO   N19 1731   6.773   3.459   2.988 -0.1694  0.1869 -0.0961
    5CHTO  H207 1732   6.853   3.477   3.058 -0.0462 -0.6414 -0.0187
    5CHTO  H208 1733   6.803   3.405   2.900  1.5976  1.6454 -0.4116
    5CHTO   O74 1734   6.336   3.627   2.880  0.1466  0.0583  0.4347
    5CHTO  C115 1735   6.229   3.717   2.972  0.2774  0.4550 -0.1266
    5CHTO  H219 1736   6.278   3.758   3.061 -0.3235  1.5037 -0.2678
    5CHTO   O76 1737   6.188   3.843   2.894  0.3962 -0.0118 -0.0362
    5CHTO  C122 1738   6.098   3.807   2.789  0.1235 -0.2640  0.0778
    5CHTO  H226 1739   6.160   3.759   2.713  0.7712  0.5663  0.0693
    5CHTO  C126 1740   6.069   3.950   2.726  0.6362 -0.5118 -0.1841
    5CHTO   O85 1741   5.987   3.943   2.607 -0.0700 -0.3758 -0.0014
    5CHTO  H206 1742   6.041   3.903   2.542  2.3369  0.3382  1.4887
    5CHTO  C121 1743   5.972   3.717   2.830  0.8235  0.2582 -0.1934
    5CHTO  H225 1744   5.881   3.775   2.803  1.9032  1.2982 -1.7268
    5CHTO   O81 1745   5.987   3.599   2.754  0.1770  0.6112  0.1581
    5CHTO  H202 1746   5.981   3.623   2.663  0.7006 -0.4963 -0.1768
    5CHTO  C119 1747   5.974   3.686   2.978  0.2930  0.0683  0.0683
    5CHTO  H223 1748   5.968   3.784   3.025  0.9266 -0.0511  0.3960
    5CHTO  C117 1749   6.109   3.621   3.014  0.2647  0.5167 -0.4848
    5CHTO  H221 1750   6.140   3.530   2.964  0.5895  0.1188  0.4161
    5CHTO   N20 1751   6.124   3.584   3.162  0.8635 -0.0287  0.5244
    5CHTO  H209 1752   6.128   3.476   3.169 -2.0614 -0.2570 -0.6925
    5CHTO  H210 1753   6.052   3.630   3.228  0.5442  2.3988 -1.4544
    5CHTO   O80 1754   5.826   3.600   3.042 -0.2671 -0.5569 -0.4401
    5CHTO  C103 1755   5.747   3.514   2.965  0.6920  0.4505  0.0688
    5CHTO  H190 1756   5.752   3.537   2.858 -0.5474 -0.7234 -0.2511
    5CHTO  C101 1757   5.786   3.363   2.979  0.3663  0.4903  0.3117
    5CHTO  H188 1758   5.763   3.326   3.079  0.7929  1.0370  0.6147
    5CHTO   O68 1759   5.944   3.338   2.927  0.1833  0.0270 -0.9836
    5CHTO  H168 1760   5.987   3.298   3.000 -1.1266  0.9469  0.3240
    5CHTO   C99 1761   5.683   3.275   2.879  0.2162  0.5493  0.4744
    5CHTO  H186 1762   5.694   3.306   2.773  2.9392  0.5880  0.7222
    5CHTO   N17 1763   5.714   3.128   2.877  0.2356 -0.0046 -0.7020
    5CHTO  H174 1764   5.692   3.094   2.977 -0.1609 -0.0590 -0.8071
    5CHTO  H175 1765   5.679   3.064   2.797 -1.6259 -2.2500  1.8076
    5CHTO   C97 1766   5.539   3.306   2.928  0.4864 -0.2790  0.1821
    5CHTO  H184 1767   5.543   3.273   3.033 -1.0743  1.5028  0.8319
    5CHTO   O64 1768   5.517   3.445   2.921  0.3762 -0.6535  0.0662
    5CHTO  C104 1769   5.601   3.525   3.006  0.3266 -0.1887  0.1023
    5CHTO  H191 1770   5.592   3.490   3.109 -1.6665  0.3965  0.1489
    5CHTO  C108 1771   5.535   3.665   3.008  0.4026  0.3631 -0.2181
    5CHTO   O71 1772   5.590   3.737   3.120  0.5352  0.1061 -0.6533
    5CHTO  H171 1773   5.664   3.784   3.085  1.2359 -1.5559 -1.4414
    5CHTO   O62 1774   5.441   3.237   2.852  0.1642  0.0936 -0.0317
    5CHTO   C91 1775   5.315   3.210   2.913 -0.8242  0.2851 -0.5996
    5CHTO  H178 1776   5.292   3.293   2.979  1.8710  0.3252  0.3309
    5CHTO   C92 1777   5.331   3.077   3.000 -0.2906  0.1875 -0.7451
    5CHTO  H179 1778   5.421   3.078   3.063 -0.9321 -0.3989  0.2023
    5CHTO   O66 1779   5.226   3.079   3.105 -0.6795  0.4880  0.1376
    5CHTO  H166 1780   5.227   3.164   3.145 -3.5734  0.4981  0.3379
    5CHTO   C93 1781   5.315   2.942   2.916 -0.4145  0.3500  0.4970
    5CHTO  H180 1782   5.274   2.861   2.977 -0.4995  0.4606  0.5875
    5CHTO   N16 1783   5.444   2.891   2.870  0.0486  0.2173  0.4549
    5CHTO  H172 1784   5.526   2.931   2.927  0.1693 -0.1988  0.5734
    5CHTO  H173 1785   5.447   2.784   2.863  1.7962  0.3556 -1.5135
    5CHTO   C94 1786   5.206   2.968   2.801 -1.0765  0.7665  0.1680
    5CHTO  H181 1787   5.253   2.990   2.704  0.4950 -0.2268  0.6860
    5CHTO   O61 1788   5.123   3.073   2.812 -0.1778 -0.2174 -0.1633
    5CHTO   C95 1789   5.195   3.201   2.814 -0.7545  0.2137  0.4319
    5CHTO  H182 1790   5.226   3.226   2.712 -2.8266 -0.7567 -0.4739
    5CHTO  C106 1791   5.086   3.304   2.852 -0.1750  0.0013  1.3306
    5CHTO   O69 1792   5.001   3.339   2.742  0.2331  0.1101  0.0303
    5CHTO  H169 1793   4.982   3.260   2.693  2.2126  0.1845 -0.9094
    5CHTO   O63 1794   5.130   2.854   2.796  0.3122 -0.2765 -0.2447
    5CHTO   C96 1795   5.079   2.794   2.654 -0.2105  0.1716 -0.1560
    5CHTO  H183 1796   5.168   2.791   2.590  1.8052  0.4263  2.5189
    5CHTO   C98 1797   4.960   2.865   2.588 -0.1175 -0.1543 -0.4904
    5CHTO  H185 1798   4.870   2.869   2.652  0.5554 -1.2074  0.5370
    5CHTO   O67 1799   5.005   3.001   2.560  0.0642  0.3666 -0.0616
    5CHTO  H167 1800   5.066   2.997   2.489 -1.3054 -0.3921 -1.2182
    5CHTO  C102 1801   4.918   2.794   2.454  0.4354  0.0611 -0.1931
    5CHTO  H189 1802   5.004   2.814   2.388  0.6842  0.2794  0.1934
    5CHTO   N18 1803   4.795   2.851   2.390 -0.3669 -0.1749 -0.1741
    5CHTO  H176 1804   4.788   2.804   2.293  0.6300 -3.0655  1.0867
    5CHTO  H177 1805   4.716   2.814   2.453  0.1477  0.3861  0.8097
    5CHTO  C105 1806   4.905   2.642   2.477 -0.6027  0.5078  0.6847
    5CHTO  H192 1807   4.819   2.620   2.540  0.7475 -1.5469  1.8723
    5CHTO   O65 1808   5.017   2.588   2.552 -0.5443 -0.2613 -0.1231
    5CHTO  C100 1809   5.047   2.636   2.684  0.6229  0.5173  0.2975
    5CHTO  H187 1810   4.964   2.624   2.755 -1.6040 -3.0312 -2.7329
    5CHTO  C107 1811   5.160   2.554   2.753  0.1996  0.2847 -0.3978
    5CHTO   O70 1812   5.202   2.601   2.884  0.3509  0.2481  0.0952
    5CHTO  H170 1813   5.128   2.596   2.942  0.5474  1.0317  0.4225
    5CHTO   O57 1814   4.903   2.571   2.323 -0.3749 -0.3709  0.0838
    5CHTO   C85 1815   4.874   2.431   2.309 -0.4310  0.5196 -0.8279
    5CHTO  H157 1816   4.792   2.428   2.384  1.7910 -1.1711  1.6350
    5CHTO   C83 1817   4.982   2.350   2.376 -0.4505 -0.3858  0.6175
    5CHTO  H155 1818   4.966   2.364   2.482 -1.5553 -0.2513  0.4360
    5CHTO   O56 1819   5.111   2.405   2.340 -0.4828 -0.4838 -0.0264
    5CHTO  H135 1820   5.184   2.347   2.348  0.3225  0.5988  0.6733
    5CHTO   C81 1821   4.956   2.198   2.340  0.0222  0.8748 -1.4921
    5CHTO  H153 1822   4.861   2.165   2.383  2.8780 -0.3304  4.4713
    5CHTO   N14 1823   5.048   2.099   2.409  0.0664 -0.1302  0.0902
    5CHTO  H141 1824   5.042   2.110   2.515 -0.0857  1.8977 -0.1151
    5CHTO  H142 1825   5.150   2.107   2.379 -0.3879  0.1087 -1.4504
    5CHTO   C79 1826   4.952   2.177   2.184  0.0655  0.1755 -0.1057
    5CHTO  H151 1827   4.948   2.069   2.168 -0.2799  0.1852 -0.0850
    5CHTO   O52 1828   4.830   2.238   2.135  0.5824  0.2264  0.3385
    5CHTO   C86 1829   4.829   2.383   2.160  0.5898 -0.2031  0.0730
    5CHTO  H158 1830   4.909   2.420   2.092  1.6883 -1.3818  0.6961
    5CHTO   C90 1831   4.697   2.458   2.114 -0.5369  0.1037 -0.0563
    5CHTO   O60 1832   4.582   2.390   2.170  0.3371  0.1238  0.0533
    5CHTO  H138 1833   4.502   2.413   2.127 -0.8678 -0.4818  1.9376
    5CHTO   O50 1834   5.073   2.220   2.117 -0.5193  0.0416  0.1959
    5CHTO   C73 1835   5.157   2.191   2.010 -0.2575 -0.3657  0.3566
    5CHTO  H145 1836   5.094   2.188   1.920 -0.8526 -1.0936  0.7940
    5CHTO   C74 1837   5.219   2.049   2.025 -0.3483 -0.0888  0.7689
    5CHTO  H146 1838   5.131   1.990   2.056 -1.1745  0.0336 -1.2691
    5CHTO   O54 1839   5.255   2.009   1.892  0.1337  0.3749 -0.0233
    5CHTO  H133 1840   5.215   1.927   1.868 -0.2711  0.7575 -0.6727
    5CHTO   C75 1841   5.341   2.045   2.140  0.2997 -0.4566 -0.0821
    5CHTO  H147 1842   5.296   2.070   2.237  2.4286  1.7498  0.4015
    5CHTO   N13 1843   5.411   1.913   2.147  0.1735  0.4997 -0.6669
    5CHTO  H139 1844   5.452   1.887   2.243  1.0520 -1.6081 -1.5852
    5CHTO  H140 1845   5.469   1.883   2.061 -0.7011 -2.2010 -0.3629
    5CHTO   C76 1846   5.433   2.168   2.119 -0.7095  0.7353  0.0196
    5CHTO  H148 1847   5.484   2.152   2.024  0.0034 -1.2265  0.7000
    5CHTO   O49 1848   5.351   2.296   2.109  0.4292 -0.0776  0.1829
    5CHTO   C77 1849   5.265   2.297   1.993 -0.7963  0.0869 -0.9534
    5CHTO  H149 1850   5.324   2.279   1.903 -0.7921 -0.4366 -0.8463
    5CHTO   C88 1851   5.223   2.442   1.981 -0.2020 -0.6154  0.1739
    5CHTO   O58 1852   5.118   2.472   1.856  0.0228  0.1746  0.0152
    5CHTO  H136 1853   5.163   2.527   1.795 -1.2170 -1.0121 -2.0235
    5CHTO   O51 1854   5.524   2.191   2.243 -0.2020 -0.3319 -0.3505
    5CHTO   C78 1855   5.632   2.289   2.226 -0.4920  1.0919  0.0168
    5CHTO  H150 1856   5.608   2.340   2.130 -1.3941 -0.8252 -0.8203
    5CHTO   C80 1857   5.764   2.217   2.210  0.2092 -0.0031 -0.4861
    5CHTO  H152 1858   5.782   2.139   2.287  0.8180  0.0519 -0.5715
    5CHTO   O55 1859   5.754   2.126   2.096  0.4018 -0.1711  0.2113
    5CHTO  H134 1860   5.693   2.057   2.113  1.0636 -0.9566 -0.5482
    5CHTO   C84 1861   5.872   2.331   2.201 -0.3720 -0.4472  0.3073
    5CHTO  H156 1862   5.865   2.378   2.103  0.0203  0.1580  0.5688
    5CHTO   N15 1863   6.010   2.263   2.205  0.0034  0.0260  0.4700
    5CHTO  H143 1864   6.019   2.184   2.133  0.8594 -0.5144  1.1565
    5CHTO  H144 1865   6.077   2.343   2.182 -1.2725  0.7660 -0.7023
    5CHTO   C87 1866   5.850   2.445   2.303  0.0958 -0.2848  0.7991
    5CHTO  H159 1867   5.858   2.404   2.403  0.3738  1.5716  1.5559
    5CHTO   O53 1868   5.708   2.504   2.281 -0.3406  0.6982  0.4640
    5CHTO   C82 1869   5.617   2.403   2.326 -0.2952  1.0256 -0.2424
    5CHTO  H154 1870   5.644   2.382   2.429 -1.9791  0.7708  0.1642
    5CHTO   C89 1871   5.476   2.463   2.323 -0.0414 -0.1004 -0.1929
    5CHTO   O59 1872   5.473   2.561   2.432  0.1162 -0.4337  0.2057
    5CHTO  H137 1873   5.385   2.560   2.463 -0.0115  1.6658 -0.0029
    5CHTO   O45 1874   5.959   2.564   2.278  0.0615  0.2972  0.6929
    5CHTO   C67 1875   5.998   2.652   2.388  0.6264 -0.0779 -0.6422
    5CHTO  H124 1876   5.968   2.612   2.484  1.8942  0.3446 -0.0529
    5CHTO   C65 1877   6.157   2.657   2.397  0.5528 -0.2624  0.4874
    5CHTO  H122 1878   6.200   2.621   2.303  0.5189 -0.4017  0.5247
    5CHTO   O44 1879   6.188   2.559   2.496  0.0339 -0.2814 -0.3741
    5CHTO  H102 1880   6.189   2.479   2.449  0.1445 -0.8744  0.6193
    5CHTO   C63 1881   6.211   2.803   2.423 -0.5465 -0.2830 -0.4920
    5CHTO  H120 1882   6.211   2.863   2.332  2.1251  0.4913 -0.0435
    5CHTO   N11 1883   6.360   2.810   2.451 -0.6483 -0.2404 -0.2599
    5CHTO  H108 1884   6.393   2.772   2.545  0.3029  1.9577  0.3383
    5CHTO  H109 1885   6.398   2.909   2.436  0.8439 -0.5534  1.3462
    5CHTO   C61 1886   6.117   2.872   2.524  0.1193  0.2171  0.0183
    5CHTO  H118 1887   6.153   2.974   2.548  0.3981  0.5663 -1.8261
    5CHTO   O40 1888   5.981   2.882   2.480  0.0279  0.4743  0.3058
    5CHTO   C68 1889   5.931   2.793   2.374 -0.0697  0.3118 -0.8233
    5CHTO  H125 1890   5.959   2.836   2.275  1.8483  0.5148 -0.2181
    5CHTO   C72 1891   5.784   2.793   2.384 -0.1077 -0.3849 -0.1522
    5CHTO   O48 1892   5.718   2.916   2.353 -0.5549 -0.3706 -0.6620
    5CHTO  H105 1893   5.638   2.916   2.400 -0.0978  0.9846  0.1325
    5CHTO   O38 1894   6.118   2.800   2.645 -0.6814 -0.2789 -0.1858
    5CHTO   C55 1895   6.079   2.868   2.759  0.2107 -0.6483 -1.0207
    5CHTO  H112 1896   6.005   2.949   2.743  0.2882 -0.5849 -1.0591
    5CHTO   C56 1897   6.207   2.929   2.834  0.8543  0.1291 -0.2928
    5CHTO  H113 1898   6.289   2.857   2.830  0.6122 -0.1946  0.5148
    5CHTO   O42 1899   6.264   3.037   2.756 -0.2017 -0.1275 -0.2558
    5CHTO  H100 1900   6.320   3.087   2.812  0.2912 -0.7545 -0.1765
    5CHTO   C57 1901   6.183   2.977   2.986  0.0167 -0.4191  0.5251
    5CHTO  H114 1902   6.127   3.070   2.979  2.2450  0.8987 -0.0627
    5CHTO   N10 1903   6.306   3.015   3.053  0.0773 -0.5643 -0.4457
    5CHTO  H106 1904   6.379   3.043   2.979  0.5600 -1.2870 -0.2489
    5CHTO  H107 1905   6.296   3.090   3.131  0.8291 -0.1663 -0.7252
    5CHTO   C58 1906   6.100   2.870   3.054 -1.1749  0.1376  0.8566
    5CHTO  H115 1907   6.156   2.774   3.062  0.7943  1.2958  1.2509
    5CHTO   O37 1908   5.983   2.846   2.978 -0.3803 -0.1441  0.4574
    5CHTO   C59 1909   6.005   2.771   2.856  0.1665 -0.5952 -0.4419
    5CHTO  H116 1910   6.069   2.684   2.868 -1.0085 -1.5388 -0.9476
    5CHTO   C70 1911   5.869   2.726   2.796  0.0036 -0.1025 -0.2259
    5CHTO   O46 1912   5.782   2.828   2.759  0.6120 -0.0559  0.3738
    5CHTO  H103 1913   5.695   2.792   2.753 -0.1441  1.2493  2.6402
    5CHTO   O39 1914   6.051   2.913   3.208 -0.1045  0.1962 -0.0482
    5CHTO   C60 1915   5.929   2.995   3.219  0.3683 -0.2906  0.4103
    5CHTO  H117 1916   5.914   3.045   3.123 -1.1135 -0.1529  0.7086
    5CHTO   C62 1917   5.808   2.907   3.249 -0.1080 -0.5568  0.0124
    5CHTO  H119 1918   5.804   2.825   3.175 -1.2354  1.8857 -2.7184
    5CHTO   O43 1919   5.835   2.838   3.373  0.2956 -0.1576  0.1347
    5CHTO  H101 1920   5.908   2.783   3.353  0.7111  1.4121 -2.9257
    5CHTO   C66 1921   5.677   3.000   3.260  0.3637  0.5276  0.8010
    5CHTO  H123 1922   5.670   3.044   3.161 -0.6066 -0.6388  0.3544
    5CHTO   N12 1923   5.552   2.924   3.290  0.0111  0.3143  0.9565
    5CHTO  H110 1924   5.525   2.852   3.214 -2.9732  0.2775  2.0028
    5CHTO  H111 1925   5.563   2.876   3.386 -0.3999  0.6009  1.1440
    5CHTO   C69 1926   5.702   3.110   3.366 -0.6973 -0.3974  0.0019
    5CHTO  H126 1927   5.709   3.056   3.462 -0.2224 -1.2017 -0.4767
    5CHTO   O41 1928   5.831   3.189   3.342  0.4223 -0.3731 -0.5653
    5CHTO   C64 1929   5.941   3.106   3.325 -0.2821  0.0005  0.4788
    5CHTO  H121 1930   5.960   3.045   3.415 -1.7751 -1.6063 -0.2641
    5CHTO   C71 1931   6.067   3.191   3.291 -0.3336  0.0335  0.5136
    5CHTO   O47 1932   6.117   3.260   3.405  0.4327  0.2732 -0.6673
    5CHTO  H104 1933   6.179   3.326   3.378  0.7283  1.1515  1.9428
    5CHTO   O34 1934   5.585   3.220   3.350 -0.1349 -0.0324  0.2776
    5CHTO   C49 1935   5.531   3.326   3.456  0.0932  0.0275 -0.0303
    5CHTO   H91 1936   5.620   3.375   3.495 -0.0110 -0.3461  0.7009
    5CHTO   C47 1937   5.452   3.255   3.572 -0.3209 -0.0085  0.5903
    5CHTO   H89 1938   5.435   3.337   3.645  0.9013  1.6019 -0.8870
    5CHTO   O33 1939   5.551   3.159   3.628  0.3361 -0.0985  0.5506
    5CHTO   H70 1940   5.523   3.070   3.629  2.8058 -0.9491 -1.0204
    5CHTO   C45 1941   5.317   3.179   3.514  0.0692  0.0168  0.2049
    5CHTO   H87 1942   5.351   3.119   3.428  1.1488 -1.2119  1.4769
    5CHTO    N8 1943   5.240   3.087   3.603 -0.3500 -0.8286  0.1747
    5CHTO   H75 1944   5.145   3.063   3.558  0.3957  0.9303 -2.4354
    5CHTO   H76 1945   5.238   3.123   3.705  0.8680  1.9532 -0.7462
    5CHTO   C43 1946   5.233   3.301   3.451  0.1671 -0.0064 -0.6249
    5CHTO   H85 1947   5.145   3.247   3.416 -0.0700  0.2814 -0.4821
    5CHTO   O29 1948   5.310   3.373   3.349  0.6824  0.0963 -0.0414
    5CHTO   C50 1949   5.438   3.431   3.387  0.3469  0.3373  0.0150
    5CHTO   H92 1950   5.494   3.456   3.296  1.1999 -0.9201  0.1756
    5CHTO   C54 1951   5.439   3.561   3.463 -0.2605  0.1116 -0.3592
    5CHTO   O36 1952   5.385   3.666   3.382 -1.0027  0.4165 -0.7060
    5CHTO   H72 1953   5.428   3.745   3.408  0.3566  0.1731 -2.1064
    5CHTO   O27 1954   5.186   3.395   3.553 -0.1215 -0.3894  0.4566
    5CHTO   C37 1955   5.081   3.420   3.641  1.0829  0.5837 -0.9184
    5CHTO   H79 1956   5.024   3.326   3.650  0.0684  1.3058  0.4218
    5CHTO   C38 1957   5.135   3.456   3.782  0.4719  0.3412 -0.4964
    5CHTO   H80 1958   5.199   3.545   3.765  1.0275 -0.1199 -0.8278
    5CHTO   O31 1959   5.222   3.348   3.831  0.5305  0.0054 -0.1941
    5CHTO   H68 1960   5.163   3.278   3.850 -0.6907  0.0679 -3.4397
    5CHTO   C39 1961   5.013   3.488   3.878 -0.0363  0.0447  0.1541
    5CHTO   H81 1962   4.972   3.390   3.901 -0.8565  0.6036  1.1202
    5CHTO    N7 1963   5.070   3.553   4.007  0.3167 -0.4289  0.8694
    5CHTO   H73 1964   5.065   3.660   4.003  2.1725 -0.3595 -1.4778
    5CHTO   H74 1965   5.005   3.524   4.088 -2.0789  0.4372 -0.6963
    5CHTO   C40 1966   4.905   3.582   3.814 -0.3039  0.9267  0.3572
    5CHTO   H82 1967   4.943   3.684   3.814  0.5412  0.6229  0.5296
    5CHTO   O26 1968   4.872   3.537   3.682 -0.4549 -0.2004 -0.7407
    5CHTO   C41 1969   4.982   3.535   3.585  0.1090  0.2453 -0.5270
    5CHTO   H83 1970   5.031   3.633   3.580  0.8139 -0.0178  0.9710
    5CHTO   C52 1971   4.916   3.510   3.449  0.7388 -0.2801  0.4160
    5CHTO   O35 1972   4.995   3.565   3.351  0.7191  0.1042 -0.5340
    5CHTO   H71 1973   5.016   3.515   3.274  0.6311 -0.4268 -0.2167
    5CHTO   O28 1974   4.784   3.592   3.887 -0.8718 -0.0978  0.0189
    5CHTO   C42 1975   4.698   3.479   3.940 -0.2477  0.2166 -0.3375
    5CHTO   H84 1976   4.603   3.531   3.952 -0.6140 -0.1421 -1.6324
    5CHTO   C44 1977   4.736   3.422   4.080  0.4202  0.3245 -0.2869
    5CHTO   H86 1978   4.843   3.414   4.100  0.3464  2.6361  1.2958
    5CHTO   O32 1979   4.695   3.526   4.173 -0.4681  0.0168  0.8791
    5CHTO   H69 1980   4.755   3.529   4.245 -0.4119  0.3630  0.8196
    5CHTO   C48 1981   4.676   3.289   4.125 -0.3621  0.0918  0.2839
    5CHTO   H90 1982   4.567   3.298   4.128 -0.4872 -1.0641 -0.4624
    5CHTO    N9 1983   4.725   3.237   4.255  0.1015 -0.0473 -0.7513
    5CHTO   H77 1984   4.654   3.277   4.325  0.4443 -0.4041 -0.1965
    5CHTO   H78 1985   4.826   3.267   4.281 -1.0863  1.3516  2.4422
    5CHTO   C51 1986   4.695   3.178   4.005  0.4068  0.4893 -0.1130
    5CHTO   H93 1987   4.803   3.177   3.985  0.8168  0.3257  1.9889
    5CHTO   O30 1988   4.617   3.234   3.900  0.2073  0.3224 -0.1234
    5CHTO   C46 1989   4.673   3.369   3.826  0.3792  0.5072 -0.3071
    5CHTO   H88 1990   4.765   3.342   3.774 -0.9961 -1.1373 -1.9906
    5CHTO   C53 1991   4.564   3.409   3.726 -0.0882  0.4494  0.2229
    5CHTO   O72 1992   4.430   3.398   3.782  0.1490 -0.0337  0.4609
    5CHTO  H199 1993   4.419   3.452   3.858 -1.0600  1.5177 -0.7624
    5CHTO   O22 1994   4.635   3.048   4.027 -0.3470 -0.2597 -0.0888
    5CHTO   C31 1995   4.714   2.925   3.967 -0.5960  0.2161 -0.0223
    5CHTO   H59 1996   4.647   2.837   3.962  0.1344 -0.4113  1.0470
    5CHTO   C29 1997   4.767   2.949   3.819  0.3472  0.1503 -0.3424
    5CHTO   H57 1998   4.841   3.031   3.821 -1.2824  1.6458  0.0910
    5CHTO   O21 1999   4.664   2.999   3.734  0.3776 -0.2220  0.7713
    5CHTO   H37 2000   4.634   3.080   3.770  0.7046  0.8521 -1.3203
    5CHTO   C27 2001   4.842   2.813   3.773 -0.4090  0.2942  0.0576
    5CHTO   H55 2002   4.773   2.727   3.784  1.7967 -1.1628  3.2922
    5CHTO    N5 2003   4.887   2.823   3.634 -0.1504  0.1074 -0.2617
    5CHTO   H43 2004   4.912   2.726   3.594 -1.0685 -0.0460 -0.4732
    5CHTO   H44 2005   4.808   2.877   3.583 -0.1584 -0.2743 -0.6585
    5CHTO   C25 2006   4.969   2.797   3.865  0.1397 -0.1948  0.0260
    5CHTO   H53 2007   5.030   2.888   3.848 -0.6887  0.4373  0.3865
    5CHTO   O17 2008   4.931   2.779   4.003 -0.0651 -0.3251  0.2409
    5CHTO   C32 2009   4.839   2.877   4.058  0.2282 -0.1079 -0.5989
    5CHTO   H60 2010   4.902   2.961   4.086  2.2229 -1.3805 -1.1853
    5CHTO   C36 2011   4.801   2.812   4.195  0.2287 -0.2567  0.4376
    5CHTO   O25 2012   4.717   2.894   4.277  0.2564  0.0401  0.4883
    5CHTO   H40 2013   4.683   2.838   4.344 -0.5983  0.1731  0.1657
    5CHTO   O15 2014   5.073   2.658   3.820 -0.1126 -0.1984 -0.0941
    5CHTO   C19 2015   5.207   2.625   3.870  0.4558 -0.2757 -0.1254
    5CHTO   H47 2016   5.240   2.715   3.924 -0.1900  0.1700 -0.4704
    5CHTO   C20 2017   5.199   2.509   3.965  0.4888  0.3890  0.5486
    5CHTO   H48 2018   5.169   2.417   3.913 -0.9999  1.3934 -0.4244
    5CHTO   O19 2019   5.118   2.548   4.074  0.0716 -0.4010  0.2251
    5CHTO   H35 2020   5.062   2.482   4.108 -1.1112 -0.0175 -0.9436
    5CHTO   C21 2021   5.348   2.472   4.028 -0.0797 -0.4040  0.1787
    5CHTO   H49 2022   5.369   2.548   4.103  0.5974 -2.0172  1.6458
    5CHTO    N4 2023   5.354   2.347   4.102  0.3468 -0.1223  0.4817
    5CHTO   H41 2024   5.446   2.359   4.158  1.3638  0.0428 -1.2022
    5CHTO   H42 2025   5.373   2.264   4.035 -1.7609 -0.2414  0.0087
    5CHTO   C22 2026   5.459   2.482   3.921 -0.1519 -0.4077  0.1965
    5CHTO   H50 2027   5.465   2.388   3.866  0.1748 -0.8704  1.0166
    5CHTO   O14 2028   5.441   2.596   3.828 -0.0146  0.2567 -0.3481
    5CHTO   C23 2029   5.312   2.608   3.761 -0.6780  0.2597  0.3416
    5CHTO   H51 2030   5.299   2.512   3.709  0.9038  0.5126 -0.5297
    5CHTO   C34 2031   5.307   2.721   3.654 -0.3751 -0.3521  0.4940
    5CHTO   O23 2032   5.396   2.690   3.543 -0.0647  0.8189  0.1233
    5CHTO   H38 2033   5.373   2.736   3.464  0.4865 -1.8013 -1.6339
    5CHTO   O16 2034   5.593   2.502   3.978 -0.4363  0.0137 -0.1739
    5CHTO   C24 2035   5.725   2.511   3.880 -0.0871 -0.0152 -0.3815
    5CHTO   H52 2036   5.703   2.513   3.773  1.5881 -0.6283 -0.7470
    5CHTO   C26 2037   5.814   2.389   3.892 -1.3628 -0.1782 -0.5572
    5CHTO   H54 2038   5.835   2.373   4.000  0.3386  2.4184 -0.4751
    5CHTO   O20 2039   5.735   2.284   3.839  0.3461  0.4128 -0.0177
    5CHTO   H36 2040   5.784   2.205   3.853 -0.1906 -0.1923 -1.5351
    5CHTO   C30 2041   5.950   2.398   3.810  0.4140 -0.0128  0.0909
    5CHTO   H58 2042   5.922   2.394   3.704 -0.0121  0.2260  0.1940
    5CHTO    N6 2043   6.044   2.290   3.837  0.6116 -0.3406  0.2261
    5CHTO   H45 2044   5.987   2.198   3.834 -0.1979  0.1508  0.3362
    5CHTO   H46 2045   6.095   2.296   3.932  1.1976  0.7226 -0.1435
    5CHTO   C33 2046   6.017   2.539   3.830  0.6294  0.1394 -0.4645
    5CHTO   H61 2047   6.058   2.545   3.932 -0.5698 -0.9780  0.1085
    5CHTO   O18 2048   5.920   2.642   3.820 -0.0346 -0.6352  0.3367
    5CHTO   C28 2049   5.811   2.641   3.914  0.5159 -0.0658  0.1440
    5CHTO   H56 2050   5.831   2.648   4.021 -0.8272  2.1473  0.2806
    5CHTO   C35 2051   5.730   2.763   3.877  0.3526 -0.1239 -0.1035
    5CHTO   O24 2052   5.796   2.884   3.914 -0.4223 -0.0980 -0.0133
    5CHTO   H39 2053   5.876   2.901   3.868 -1.4904 -1.1556 -2.3185
    5CHTO    O9 2054   6.125   2.557   3.737 -0.0073  0.0106 -0.0993
    5CHTO   C13 2055   6.088   2.558   3.578 -0.2769 -0.7587  0.4081
    5CHTO   H26 2056   5.978   2.540   3.570 -0.4999  0.2462  1.1814
    5CHTO   C11 2057   6.171   2.444   3.515 -0.1030 -0.1844  0.4023
    5CHTO   H24 2058   6.129   2.349   3.552 -1.5046  0.0412 -0.5904
    5CHTO    O8 2059   6.315   2.454   3.544 -0.4426  0.4842  0.2490
    5CHTO    H3 2060   6.334   2.403   3.621  1.1938  1.1365  0.3040
    5CHTO    C9 2061   6.141   2.444   3.367 -0.0163 -0.0182  0.0621
    5CHTO   H22 2062   6.032   2.444   3.355  0.0140 -1.7963 -0.3772
    5CHTO    N2 2063   6.171   2.315   3.296  0.0707  0.2725  0.1087
    5CHTO   H10 2064   6.274   2.292   3.320 -0.7738 -0.5426  3.2489
    5CHTO   H11 2065   6.156   2.326   3.190  2.8953  0.1531 -0.3346
    5CHTO    C7 2066   6.210   2.571   3.298  0.0808 -0.4448  0.3911
    5CHTO   H20 2067   6.148   2.603   3.211 -0.9192 -1.0163  0.8839
    5CHTO    O4 2068   6.211   2.678   3.396  0.1321 -0.1657 -0.4799
    5CHTO   C14 2069   6.120   2.693   3.505  0.2374 -0.2291  0.6729
    5CHTO   H27 2070   6.023   2.731   3.465 -1.0879 -1.3268  2.7490
    5CHTO   C18 2071   6.181   2.808   3.593  0.9846  0.0432 -0.0496
    5CHTO   O13 2072   6.179   2.934   3.529  0.0147  0.5306  0.0359
    5CHTO    H7 2073   6.103   2.986   3.547  0.0036  0.5430 -0.0480
    5CHTO    O2 2074   6.360   2.543   3.241  0.1428 -0.2281  0.1610
    5CHTO    C1 2075   6.430   2.650   3.178  0.5387 -0.7043  0.5567
    5CHTO   H14 2076   6.361   2.737   3.178  0.4248 -0.7937  1.0270
    5CHTO    C2 2077   6.470   2.612   3.027 -0.3399  1.0576  0.4809
    5CHTO   H15 2078   6.532   2.521   3.035 -1.7121  0.2727  2.5438
    5CHTO    O6 2079   6.356   2.583   2.950  0.4715  0.0222  0.1035
    5CHTO    H1 2080   6.305   2.662   2.945  2.2888  1.2823  1.2378
    5CHTO    C3 2081   6.556   2.723   2.959  0.2634  0.0584  0.7562
    5CHTO   H16 2082   6.485   2.807   2.948 -0.9379 -0.6294  2.9938
    5CHTO    N1 2083   6.611   2.687   2.817 -0.2045  0.4883 -0.2265
    5CHTO    H8 2084   6.527   2.651   2.759  0.8797  1.4169 -2.4561
    5CHTO    H9 2085   6.682   2.607   2.830  2.0274  2.4732  0.1770
    5CHTO    C4 2086   6.671   2.775   3.052  0.1698 -0.0261 -0.6903
    5CHTO   H17 2087   6.749   2.699   3.049 -0.0776 -0.2822 -0.6677
    5CHTO    O1 2088   6.615   2.803   3.183  0.0623  0.3273 -0.0471
    5CHTO    C5 2089   6.559   2.691   3.254  1.0559 -0.5772 -0.1163
    5CHTO   H18 2090   6.633   2.612   3.245  3.4792  1.2606  2.4688
    5CHTO   C16 2091   6.542   2.729   3.403  0.4034  0.2737  0.6323
    5CHTO   O11 2092   6.507   2.606   3.468  0.5058  0.0623  0.2357
    5CHTO    H5 2093   6.417   2.616   3.495  0.9577  2.0549  1.1003
    5CHTO    O3 2094   6.731   2.901   3.007 -0.2279  0.3522  0.2578
    5CHTO    C6 2095   6.871   2.904   3.041  0.6134 -0.4188  0.1377
    5CHTO   H19 2096   6.896   2.816   3.101 -1.6343 -1.0304  0.2194
    5CHTO    C8 2097   6.951   2.903   2.904 -0.6670 -0.0047  0.2635
    5CHTO   H21 2098   6.922   2.989   2.843 -2.1083 -0.0725  0.8330
    5CHTO    O7 2099   6.922   2.774   2.846  0.1540 -0.4134 -0.7126
    5CHTO    H2 2100   6.836   2.776   2.807 -0.3045 -3.8467 -0.0358
    5CHTO   C12 2101   7.099   2.924   2.944 -0.9019 -0.1957  0.1515
    5CHTO   H25 2102   7.114   2.840   3.014 -0.2933 -0.0687  0.1755
    5CHTO    N3 2103   7.189   2.897   2.831  0.2130 -0.5230  0.2452
    5CHTO   H12 2104   7.278   2.850   2.872 -0.9666 -2.1990  0.9950
    5CHTO   H13 2105   7.166   2.814   2.766  1.0545 -1.0166  0.5608
    5CHTO   C15 2106   7.118   3.064   3.010  0.0342  0.4250 -0.8132
    5CHTO   H28 2107   7.083   3.148   2.949 -1.2414 -0.5572 -1.4539
    5CHTO   O10 2108   7.273   3.083   3.071 -0.3476 -0.5258  0.1773
    5CHTO    H4 2109   7.290   3.011   3.128 -1.2496 -0.6654  0.2709
    5CHTO    O5 2110   7.044   3.058   3.133  0.4110 -0.1971 -0.7130
    5CHTO   C10 2111   6.902   3.027   3.123  0.5667 -0.1807 -0.2102
    5CHTO   H23 2112   6.861   3.116   3.075  0.1852 -0.4906 -0.4574
    5CHTO   C17 2113   6.825   3.023   3.258  0.2512 -0.5101 -0.2086
    5CHTO   O12 2114   6.871   2.941   3.367  0.8045  0.6228  0.8013
    5CHTO    H6 2115   6.958   2.971   3.381  1.1862 -0.5532  0.9902
    6CHTO  H203 2116   4.236   4.668   0.088 -1.9475  0.9164 -0.1903
    6CHTO   O82 2117   4.263   4.726   0.157 -0.6104 -0.0653  0.1453
    6CHTO  C123 2118   4.401   4.704   0.182  0.0356  0.0110  0.4290
    6CHTO  H227 2119   4.457   4.668   0.095  3.2408  1.3409  1.8525
    6CHTO   O77 2120   4.442   4.832   0.222 -0.8708 -0.4382 -0.1581
    6CHTO  C118 2121   4.576   4.842   0.277  0.2638  0.4651 -0.2186
    6CHTO  H222 2122   4.638   4.809   0.192  0.1561  0.3309 -0.2439
    6CHTO  C125 2123   4.598   4.996   0.306 -0.4855 -0.4740  0.3691
    6CHTO   O84 2124   4.616   5.077   0.192  0.3694 -0.4050 -0.2055
    6CHTO  H205 2125   4.639   5.162   0.224  3.6624 -1.6182  0.8345
    6CHTO  C114 2126   4.595   4.764   0.404  0.1863  0.0453 -0.6054
    6CHTO  H218 2127   4.521   4.796   0.478 -0.2380 -1.1852 -0.4825
    6CHTO  C116 2128   4.565   4.616   0.361  0.1758 -0.4825  0.4136
    6CHTO  H220 2129   4.646   4.582   0.294  0.0131  1.0390 -0.5922
    6CHTO   O79 2130   4.584   4.542   0.484 -0.3019 -0.3644 -0.0865
    6CHTO  H201 2131   4.673   4.522   0.502 -0.5025 -1.8562 -0.6959
    6CHTO  C120 2132   4.423   4.600   0.299 -0.0538 -0.2161 -0.6008
    6CHTO  H224 2133   4.357   4.629   0.383  2.2232  0.3350  1.0282
    6CHTO   N21 2134   4.397   4.456   0.262 -0.6321  0.2576 -0.3472
    6CHTO  H211 2135   4.479   4.397   0.226  0.7721  0.9660  1.5806
    6CHTO  H212 2136   4.303   4.448   0.209 -0.9866 -1.2054  0.4576
    6CHTO   O75 2137   4.728   4.785   0.443 -0.5023 -0.2256 -0.2041
    6CHTO  C112 2138   4.737   4.776   0.626  0.3710 -0.4088 -0.0704
    6CHTO  H216 2139   4.690   4.682   0.659  0.1338  0.4653  2.2360
    6CHTO   O73 2140   4.661   4.890   0.672 -0.0288  0.8999 -0.6828
    6CHTO  C113 2141   4.636   4.882   0.812 -0.1024  0.1108  0.5352
    6CHTO  H217 2142   4.576   4.796   0.847 -0.5603  0.7221  1.2740
    6CHTO  C124 2143   4.543   4.989   0.853  0.5174  0.5453 -0.3379
    6CHTO   O83 2144   4.427   5.009   0.766  0.0483 -0.3078  0.1626
    6CHTO  H204 2145   4.386   4.938   0.721  1.1512  0.2878 -1.8323
    6CHTO  C109 2146   4.775   4.901   0.888  0.1738  0.2413 -0.4397
    6CHTO  H213 2147   4.821   4.998   0.863  2.0692 -0.8687 -1.3777
    6CHTO  C110 2148   4.880   4.795   0.838 -1.0940  0.0948 -0.8889
    6CHTO  H214 2149   4.852   4.698   0.878  1.2938 -0.3583 -0.2440
    6CHTO   O78 2150   5.011   4.822   0.894 -0.2658  0.3839 -0.0424
    6CHTO  H200 2151   5.000   4.827   0.987  0.6392 -0.4251  0.1116
    6CHTO  C111 2152   4.884   4.788   0.682  0.1754 -0.7392  0.5220
    6CHTO  H215 2153   4.934   4.877   0.640  0.5189 -1.6942 -1.1637
    6CHTO   N19 2154   4.962   4.668   0.626 -0.7821 -0.3355 -0.3155
    6CHTO  H207 2155   4.972   4.669   0.519 -2.1215 -2.1535 -0.4875
    6CHTO  H208 2156   4.917   4.576   0.661 -0.5511  0.4615  2.2279
    6CHTO   O74 2157   4.753   4.891   1.028 -0.1259  0.0586 -1.2179
    6CHTO  C115 2158   4.810   5.024   1.107  0.4374 -0.3950  0.3541
    6CHTO  H219 2159   4.848   5.099   1.039  0.9371 -0.1401  0.9085
    6CHTO   O76 2160   4.693   5.098   1.197 -0.2365  0.4100 -0.1019
    6CHTO  C122 2161   4.615   5.009   1.272  0.1572 -0.8131  0.3242
    6CHTO  H226 2162   4.547   4.964   1.199 -0.4485 -2.0457  1.6160
    6CHTO  C126 2163   4.521   5.090   1.375 -0.4516 -0.4446  0.3071
    6CHTO   O85 2164   4.590   5.142   1.483 -0.2995  0.2390  0.3481
    6CHTO  H206 2165   4.615   5.072   1.541 -1.1616  0.0720  0.5353
    6CHTO  C121 2166   4.697   4.896   1.340 -0.2108 -0.9676 -0.7020
    6CHTO  H225 2167   4.663   4.891   1.445  1.3704 -1.6850 -0.2068
    6CHTO   O81 2168   4.665   4.774   1.277  0.0320  0.6695  0.0716
    6CHTO  H202 2169   4.729   4.708   1.297 -0.8472  0.3605  2.0051
    6CHTO  C119 2170   4.854   4.930   1.349  0.2144  0.2012  0.3246
    6CHTO  H223 2171   4.862   5.020   1.410 -0.7843  1.1506 -0.9059
    6CHTO  C117 2172   4.914   4.971   1.207 -0.0988  0.5997  0.0817
    6CHTO  H221 2173   4.950   4.882   1.155  0.2823 -0.7067  2.5249
    6CHTO   N20 2174   5.032   5.048   1.223 -0.3384  0.7501 -0.7120
    6CHTO  H209 2175   5.077   5.071   1.128  0.7555  0.2205 -0.3345
    6CHTO  H210 2176   5.010   5.140   1.275  0.4317  0.1649  0.6863
    6CHTO   O80 2177   4.947   4.817   1.434  0.0923  0.4339  0.2976
    6CHTO  C103 2178   4.983   4.833   1.581  0.4251  0.2459 -0.0857
    6CHTO  H190 2179   5.047   4.750   1.612 -0.9026 -0.7617 -0.0104
    6CHTO  C101 2180   5.043   4.969   1.628  0.4049 -0.0817 -0.0294
    6CHTO  H188 2181   4.968   5.043   1.599 -0.5720 -1.3353 -0.7608
    6CHTO   O68 2182   5.188   4.978   1.554 -0.0251 -0.3736 -0.1296
    6CHTO  H168 2183   5.181   4.968   1.461  0.3350  0.9323 -0.3069
    6CHTO   C99 2184   5.041   4.982   1.794 -0.0695 -0.2758 -0.1385
    6CHTO  H186 2185   5.108   4.909   1.843  0.7453  1.7047  1.7839
    6CHTO   N17 2186   5.074   5.122   1.850  0.1737  0.1142  0.2954
    6CHTO  H174 2187   5.148   5.118   1.929 -0.5255  0.3838  0.9730
    6CHTO  H175 2188   5.114   5.182   1.769  0.2280  0.8302  0.8433
    6CHTO   C97 2189   4.897   4.949   1.846  0.1694 -0.1263 -0.5448
    6CHTO  H184 2190   4.828   5.028   1.813  1.1026  1.5625  1.4363
    6CHTO   O64 2191   4.861   4.823   1.795 -0.1080  0.5831  0.0089
    6CHTO  C104 2192   4.844   4.815   1.654  0.8083  0.6442  0.2243
    6CHTO  H191 2193   4.765   4.882   1.622 -1.4902 -1.3095  1.6738
    6CHTO  C108 2194   4.792   4.670   1.626  0.4279 -0.1385 -0.2889
    6CHTO   O71 2195   4.662   4.644   1.678  0.1971 -0.5863 -0.4335
    6CHTO  H171 2196   4.648   4.701   1.751  1.1770 -0.5430 -0.2754
    6CHTO   O62 2197   4.889   4.942   1.992 -0.3466  0.2403  0.0934
    6CHTO   C91 2198   4.758   4.938   2.059 -0.1702  0.1555 -0.0872
    6CHTO  H178 2199   4.769   4.983   2.157 -2.2294  1.9160 -0.6257
    6CHTO   C92 2200   4.728   4.787   2.093 -0.0263 -0.2821 -0.8915
    6CHTO  H179 2201   4.775   4.724   2.016 -0.1003 -2.0278  0.4554
    6CHTO   O66 2202   4.794   4.754   2.216 -0.1692 -0.3149 -0.9098
    6CHTO  H166 2203   4.808   4.661   2.212  1.2889 -0.0848 -1.6407
    6CHTO   C93 2204   4.575   4.754   2.096 -0.2938  0.8468  0.1474
    6CHTO  H180 2205   4.523   4.784   2.188  2.5196 -1.1633  2.5198
    6CHTO   N16 2206   4.548   4.612   2.092  0.3499  0.2333 -0.1990
    6CHTO  H172 2207   4.611   4.568   2.015  2.6291 -0.3825  1.9608
    6CHTO  H173 2208   4.581   4.567   2.184 -1.2156 -1.1057 -0.2674
    6CHTO   C94 2209   4.504   4.820   1.978  0.1053  0.4906 -0.0591
    6CHTO  H181 2210   4.553   4.800   1.882 -0.8640 -0.7618 -0.3043
    6CHTO   O61 2211   4.500   4.954   2.001 -0.0789  0.4583  0.2267
    6CHTO   C95 2212   4.634   5.009   1.983  0.3874 -0.6624 -0.0658
    6CHTO  H182 2213   4.644   5.033   1.877  2.5775 -1.8378 -0.1329
    6CHTO  C106 2214   4.616   5.158   2.037  0.2327 -0.3905  0.0114
    6CHTO   O69 2215   4.582   5.150   2.177  0.3482 -0.0339 -0.1478
    6CHTO  H169 2216   4.489   5.140   2.184  0.7048 -1.8376  2.5300
    6CHTO   O63 2217   4.354   4.784   1.973  0.0700 -0.1451 -0.6321
    6CHTO   C96 2218   4.315   4.725   1.813 -0.0204 -0.1297 -1.1469
    6CHTO  H183 2219   4.403   4.664   1.794  0.2260 -0.2895  0.4011
    6CHTO   C98 2220   4.305   4.835   1.712  0.2963 -0.5286  1.5262
    6CHTO  H185 2221   4.240   4.915   1.749 -2.6880 -2.1817  0.0424
    6CHTO   O67 2222   4.437   4.890   1.693 -0.1947 -0.1450  0.1507
    6CHTO  H167 2223   4.442   4.978   1.726 -1.4304 -0.6388  1.7154
    6CHTO  C102 2224   4.257   4.781   1.567 -0.8609 -0.0515 -0.1386
    6CHTO  H189 2225   4.342   4.726   1.524  0.4950  2.1205 -0.2946
    6CHTO   N18 2226   4.227   4.882   1.463  0.1406 -0.3701  0.0551
    6CHTO  H176 2227   4.150   4.952   1.492 -1.5750 -3.1393  2.4760
    6CHTO  H177 2228   4.316   4.934   1.431 -1.0961  1.7017 -0.1001
    6CHTO  C105 2229   4.142   4.681   1.587  0.2978  0.9167  0.0275
    6CHTO  H192 2230   4.048   4.737   1.595 -0.0369  0.1764  1.6222
    6CHTO   O65 2231   4.152   4.590   1.693 -0.6919 -0.3331  0.4042
    6CHTO  C100 2232   4.178   4.646   1.825  0.1218  0.0407  0.7547
    6CHTO  H187 2233   4.098   4.715   1.854 -1.3266 -1.5463  0.6322
    6CHTO  C107 2234   4.190   4.526   1.932  0.0124  0.1308 -0.0140
    6CHTO   O70 2235   4.298   4.441   1.894  0.2674  0.5195 -0.7057
    6CHTO  H170 2236   4.349   4.426   1.972 -1.0296 -0.0646  0.0537
    6CHTO   O57 2237   4.135   4.591   1.453 -0.5237  0.1271  0.3743
    6CHTO   C85 2238   4.042   4.490   1.417  0.4044 -0.3345  0.0120
    6CHTO  H157 2239   3.960   4.562   1.395 -1.1236 -2.2423 -0.6079
    6CHTO   C83 2240   4.004   4.387   1.532 -0.2260  0.1469 -0.6102
    6CHTO  H155 2241   3.959   4.435   1.620 -1.6858 -0.0037 -1.2518
    6CHTO   O56 2242   4.131   4.337   1.576  0.8096  0.5220  0.6309
    6CHTO  H135 2243   4.128   4.261   1.631  0.4482 -0.7346 -1.0689
    6CHTO   C81 2244   3.902   4.282   1.485 -0.2297 -0.1527 -0.1451
    6CHTO  H153 2245   3.814   4.340   1.457  0.3503  0.0393 -1.6458
    6CHTO   N14 2246   3.851   4.198   1.597 -0.2610 -0.1866 -0.4452
    6CHTO  H141 2247   3.905   4.108   1.576  2.1828  1.0232  0.4913
    6CHTO  H142 2248   3.746   4.187   1.580 -0.5342  1.5742  0.0302
    6CHTO   C79 2249   3.946   4.205   1.352  0.4703 -0.6334 -0.0564
    6CHTO  H151 2250   3.858   4.156   1.311  0.4347  1.1943 -2.2585
    6CHTO   O52 2251   4.002   4.294   1.249  0.4500  0.0774  0.0767
    6CHTO   C86 2252   4.086   4.402   1.287 -0.2120  0.3759 -0.0580
    6CHTO  H158 2253   4.175   4.338   1.301 -2.0806 -1.5501  3.6769
    6CHTO   C90 2254   4.108   4.474   1.151 -0.1925  0.1124  0.4061
    6CHTO   O60 2255   4.179   4.387   1.055 -0.1548  0.2697  0.0689
    6CHTO  H138 2256   4.185   4.431   0.972  0.4546 -0.6781 -0.4076
    6CHTO   O50 2257   4.045   4.108   1.390  0.7133  0.0139  0.1541
    6CHTO   C73 2258   4.114   3.990   1.378 -0.2445  0.1806  0.7196
    6CHTO  H145 2259   4.055   3.916   1.321  0.2011 -0.5189  1.1626
    6CHTO   C74 2260   4.165   3.927   1.509 -0.4968  0.4605  0.3621
    6CHTO  H146 2261   4.075   3.895   1.564  0.0336 -1.2097  0.2674
    6CHTO   O54 2262   4.231   3.802   1.489  0.0880  0.1351  0.1861
    6CHTO  H133 2263   4.307   3.801   1.434 -0.5963 -3.3882 -0.7937
    6CHTO   C75 2264   4.247   4.034   1.590 -0.4172 -0.0738 -0.4164
    6CHTO  H147 2265   4.180   4.117   1.617 -1.7824 -1.3837  0.2783
    6CHTO   N13 2266   4.295   3.989   1.721 -0.0361  0.3851 -0.0597
    6CHTO  H139 2267   4.281   3.884   1.743  2.7082 -0.1516 -0.7160
    6CHTO  H140 2268   4.266   4.048   1.806  0.5209 -1.2933  1.3339
    6CHTO   C76 2269   4.369   4.081   1.500 -0.5100  0.0783  0.2184
    6CHTO  H148 2270   4.444   4.002   1.502 -0.3734  0.2199  1.0392
    6CHTO   O49 2271   4.326   4.123   1.361  0.1504  0.2836  0.4408
    6CHTO   C77 2272   4.251   4.016   1.299  0.4416 -0.4044  0.1422
    6CHTO  H149 2273   4.311   3.925   1.299 -0.0036 -0.7041 -0.7258
    6CHTO   C88 2274   4.243   4.050   1.152  0.1633 -0.4421  0.2775
    6CHTO   O58 2275   4.386   4.070   1.092 -0.7069 -0.3865  0.4094
    6CHTO  H136 2276   4.413   4.157   1.113  1.2053 -1.1924  1.4818
    6CHTO   O51 2277   4.428   4.224   1.560  0.0612 -0.1788 -0.2178
    6CHTO   C78 2278   4.558   4.311   1.481  0.0364 -0.1993 -0.9258
    6CHTO  H150 2279   4.581   4.394   1.551 -1.2988 -0.2392 -0.4169
    6CHTO   C80 2280   4.513   4.368   1.343  0.4233  0.2472 -0.0348
    6CHTO  H152 2281   4.483   4.281   1.280  0.9238  1.1812 -1.5852
    6CHTO   O55 2282   4.400   4.453   1.372 -0.0062  0.4213  0.4069
    6CHTO  H134 2283   4.334   4.412   1.424  0.7019 -0.8884  0.3044
    6CHTO   C84 2284   4.630   4.440   1.272  0.0625  0.3488 -0.4121
    6CHTO  H156 2285   4.661   4.526   1.332  2.7667 -1.1571  0.4363
    6CHTO   N15 2286   4.595   4.495   1.136 -0.0105 -0.5956 -0.2460
    6CHTO  H143 2287   4.520   4.441   1.083 -0.9674 -0.2807  0.7865
    6CHTO  H144 2288   4.577   4.601   1.128 -0.0657 -0.3995  2.1824
    6CHTO   C87 2289   4.753   4.343   1.260  0.4939 -0.3464 -0.5335
    6CHTO  H159 2290   4.711   4.263   1.199 -0.5255 -2.0313  2.3049
    6CHTO   O53 2291   4.786   4.280   1.409 -0.5439 -0.1517  0.7829
    6CHTO   C82 2292   4.677   4.217   1.474  0.0586 -0.4449 -0.2355
    6CHTO  H154 2293   4.651   4.129   1.415  1.4761 -1.0645  0.0453
    6CHTO   C89 2294   4.715   4.175   1.616  0.3144 -0.6237  0.4644
    6CHTO   O59 2295   4.785   4.047   1.608 -0.5284  0.6000  1.2914
    6CHTO  H137 2296   4.725   3.975   1.605  2.0014 -1.5878  0.3404
    6CHTO   O45 2297   4.893   4.416   1.198 -0.4846 -0.3380  0.2787
    6CHTO   C67 2298   5.024   4.375   1.256  0.0728  0.0435  0.3018
    6CHTO  H124 2299   5.019   4.269   1.279  0.4991 -0.0466 -0.0106
    6CHTO   C65 2300   5.134   4.403   1.149 -0.2458 -0.2543 -0.0212
    6CHTO  H122 2301   5.093   4.361   1.058  0.9379  0.4020 -0.8578
    6CHTO   O44 2302   5.248   4.330   1.185 -0.0711 -0.4068  0.5974
    6CHTO  H102 2303   5.313   4.330   1.117 -0.3409 -2.3796  0.3152
    6CHTO   C63 2304   5.155   4.553   1.124 -0.4237 -0.3272 -0.2790
    6CHTO  H120 2305   5.060   4.595   1.091 -0.6369 -2.8098 -3.0780
    6CHTO   N11 2306   5.243   4.598   1.007  0.3298  0.1870 -0.3814
    6CHTO  H108 2307   5.219   4.702   0.992  0.4003  0.1281 -0.9036
    6CHTO  H109 2308   5.347   4.592   1.030  0.7309  1.7338 -1.6717
    6CHTO   C61 2309   5.180   4.630   1.266 -0.4421  0.0265  0.1706
    6CHTO  H118 2310   5.144   4.731   1.240 -0.3499 -0.1285 -0.5693
    6CHTO   O40 2311   5.099   4.590   1.368 -0.3226 -0.2213 -0.4474
    6CHTO   C68 2312   5.054   4.457   1.387  0.2065 -0.2544  0.3602
    6CHTO  H125 2313   4.950   4.476   1.421 -0.1769 -1.2198 -0.2458
    6CHTO   C72 2314   5.123   4.392   1.503 -0.5805 -0.2228 -0.2908
    6CHTO   O48 2315   5.261   4.384   1.487  0.2830  0.6371  0.1011
    6CHTO  H105 2316   5.305   4.418   1.562  0.0872 -1.0702  1.0207
    6CHTO   O38 2317   5.314   4.636   1.323  0.6240 -0.1023 -0.4440
    6CHTO   C55 2318   5.353   4.763   1.383  0.0652 -0.2111 -0.1293
    6CHTO  H112 2319   5.266   4.829   1.398  1.2892  1.3220  0.3812
    6CHTO   C56 2320   5.459   4.827   1.274 -0.1183 -0.5838  0.0597
    6CHTO  H113 2321   5.544   4.758   1.270  1.3611  1.2491 -1.4293
    6CHTO   O42 2322   5.395   4.846   1.151  0.2256  0.3360 -0.3535
    6CHTO  H100 2323   5.374   4.769   1.102  0.6507 -0.4851  0.7335
    6CHTO   C57 2324   5.514   4.969   1.326 -0.5468 -1.0871 -0.0763
    6CHTO  H114 2325   5.442   5.051   1.315  0.9512  0.3018  0.2656
    6CHTO   N10 2326   5.623   5.031   1.238  0.0608  0.6667 -0.5403
    6CHTO  H106 2327   5.694   5.087   1.297  0.8871 -0.8571 -0.0673
    6CHTO  H107 2328   5.675   4.954   1.181 -1.0891 -0.6214  0.1317
    6CHTO   C58 2329   5.561   4.967   1.474  0.7344  1.2292  0.0503
    6CHTO  H115 2330   5.663   4.923   1.474 -0.4425 -1.7343 -2.7937
    6CHTO   O37 2331   5.474   4.882   1.552  0.5851  0.5867 -0.2064
    6CHTO   C59 2332   5.445   4.749   1.508  0.2438 -0.9327 -0.3187
    6CHTO  H116 2333   5.535   4.694   1.483 -0.0109  0.1384 -3.7485
    6CHTO   C70 2334   5.369   4.673   1.621  0.3930 -0.5101 -0.0471
    6CHTO   O46 2335   5.279   4.737   1.708  0.0601 -0.5085  0.0186
    6CHTO  H103 2336   5.193   4.698   1.715 -1.0193  1.2694 -2.4823
    6CHTO   O39 2337   5.553   5.108   1.544  0.3386  0.5796  0.7623
    6CHTO   C60 2338   5.641   5.137   1.652 -0.7790 -0.0938 -0.2332
    6CHTO  H117 2339   5.635   5.050   1.718 -2.6748 -0.5610 -1.0093
    6CHTO   C62 2340   5.788   5.159   1.604 -0.2658  0.3110 -0.9345
    6CHTO  H119 2341   5.818   5.063   1.558 -1.4091 -0.1349 -0.7743
    6CHTO   O43 2342   5.782   5.267   1.506  0.0286  0.4577  0.4693
    6CHTO  H101 2343   5.843   5.239   1.441 -2.1831 -2.1534 -0.5304
    6CHTO   C66 2344   5.891   5.192   1.728  0.6125 -0.1845 -0.1232
    6CHTO  H123 2345   5.901   5.103   1.790 -3.7640 -0.6403  0.0859
    6CHTO   N12 2346   6.025   5.207   1.682  0.5160 -0.0314 -0.0646
    6CHTO  H110 2347   6.048   5.203   1.576  1.0549  1.4836 -0.0182
    6CHTO  H111 2348   6.078   5.287   1.732 -1.4104  1.3739 -0.2168
    6CHTO   C69 2349   5.833   5.318   1.805 -0.3048 -0.0010 -0.0903
    6CHTO  H126 2350   5.822   5.396   1.726  1.0657  1.9652  1.5958
    6CHTO   O41 2351   5.680   5.283   1.852  0.5576  0.0783 -0.4335
    6CHTO   C64 2352   5.580   5.253   1.736  0.5347 -0.6914  0.4896
    6CHTO  H121 2353   5.560   5.338   1.667  0.5938 -0.8528  0.2760
    6CHTO   C71 2354   5.443   5.209   1.798 -0.0552  0.1920 -0.2766
    6CHTO   O47 2355   5.379   5.326   1.854  0.4370  0.1155  0.4121
    6CHTO  H104 2356   5.420   5.363   1.930 -0.2793  0.3770  0.6685
    6CHTO   O34 2357   5.933   5.367   1.915 -0.2795 -0.2376 -0.0687
    6CHTO   C49 2358   6.022   5.361   2.052 -0.4848  0.6619 -0.6580
    6CHTO   H91 2359   5.954   5.372   2.136 -0.3960 -2.4744 -0.1413
    6CHTO   C47 2360   6.112   5.485   2.047 -0.1838  0.1021 -0.6203
    6CHTO   H89 2361   6.162   5.486   2.147 -1.5857 -0.1029  0.0945
    6CHTO   O33 2362   6.031   5.603   2.037 -0.2815  0.1782  0.2875
    6CHTO   H70 2363   5.958   5.592   2.094 -0.2815  0.7507  0.4027
    6CHTO   C45 2364   6.213   5.463   1.925 -0.6901 -0.4210  1.0388
    6CHTO   H87 2365   6.158   5.444   1.832  0.3614  2.8025 -0.3113
    6CHTO    N8 2366   6.296   5.582   1.909 -0.8384  0.0774  0.0498
    6CHTO   H75 2367   6.356   5.567   1.821 -1.0602  0.1732 -0.1169
    6CHTO   H76 2368   6.345   5.626   1.994  0.6852 -1.7384  0.1381
    6CHTO   C43 2369   6.297   5.333   1.946 -0.5402  0.6792  0.7254
    6CHTO   H85 2370   6.350   5.311   1.853 -0.2871 -0.6202  1.1633
    6CHTO   O29 2371   6.218   5.218   1.977  0.0607  0.0682  0.1893
    6CHTO   C50 2372   6.108   5.232   2.066  0.1580 -0.4354 -0.1248
    6CHTO   H92 2373   6.048   5.144   2.039  0.7037 -1.0827  0.7390
    6CHTO   C54 2374   6.155   5.212   2.216 -0.1005 -0.1757  0.0335
    6CHTO   O36 2375   6.201   5.079   2.245  0.1122  0.0887  0.5761
    6CHTO   H72 2376   6.286   5.068   2.207 -0.5356  0.1908 -0.9470
    6CHTO   O27 2377   6.402   5.344   2.047 -0.3016  0.3171 -0.5598
    6CHTO   C37 2378   6.541   5.325   2.067 -0.5465 -0.7256  0.1527
    6CHTO   H79 2379   6.565   5.229   2.019 -2.7582 -1.1569 -0.1401
    6CHTO   C38 2380   6.621   5.443   1.989  0.5717  0.1652 -0.4799
    6CHTO   H80 2381   6.588   5.540   2.029 -1.2730 -1.7397  2.8374
    6CHTO   O31 2382   6.608   5.430   1.848 -0.2779  0.0086  0.3968
    6CHTO   H68 2383   6.627   5.345   1.815  1.0342 -0.0789  1.3704
    6CHTO   C39 2384   6.777   5.434   2.024  0.3887  0.2192  0.3338
    6CHTO   H81 2385   6.821   5.348   1.974  1.3236  0.6703  0.3780
    6CHTO    N7 2386   6.848   5.553   1.966 -0.1902  0.0781 -0.5266
    6CHTO   H73 2387   6.844   5.632   2.040 -1.3738 -1.9748  1.6720
    6CHTO   H74 2388   6.953   5.536   1.952 -0.1290  0.6968 -0.8722
    6CHTO   C40 2389   6.802   5.420   2.179  0.3183  0.2888  0.4478
    6CHTO   H82 2390   6.785   5.518   2.225  0.1437  0.9269 -0.9543
    6CHTO   O26 2391   6.720   5.315   2.242 -0.5557 -0.1266  0.4022
    6CHTO   C41 2392   6.575   5.321   2.213 -0.5097 -0.6000 -0.3555
    6CHTO   H83 2393   6.534   5.409   2.263  1.6918 -0.0119  0.4761
    6CHTO   C52 2394   6.512   5.201   2.289  0.0411  0.2481  0.9205
    6CHTO   O35 2395   6.432   5.240   2.405 -0.2626 -0.1774  0.3936
    6CHTO   H71 2396   6.386   5.159   2.417 -0.3163 -0.1782  0.1747
    6CHTO   O28 2397   6.945   5.386   2.197  0.1268  0.0359 -0.5753
    6CHTO   C42 2398   7.014   5.403   2.327 -0.3883 -0.0960 -0.3169
    6CHTO   H84 2399   7.118   5.379   2.307  0.0815  1.6191  0.0761
    6CHTO   C44 2400   6.967   5.301   2.445  0.5857 -0.4433  0.1772
    6CHTO   H86 2401   6.863   5.326   2.460  0.9613  1.5572 -0.4889
    6CHTO   O32 2402   6.982   5.172   2.370  0.5695 -0.2728 -0.0243
    6CHTO   H69 2403   7.001   5.097   2.423 -1.2161  1.0610  2.6242
    6CHTO   C48 2404   7.046   5.319   2.584  0.6618  0.2557  0.0395
    6CHTO   H90 2405   7.147   5.286   2.559  0.1960 -1.4607  0.3448
    6CHTO    N9 2406   7.006   5.213   2.685  0.2289 -0.0117  0.4290
    6CHTO   H77 2407   7.052   5.247   2.776  1.6260 -3.0836  0.9099
    6CHTO   H78 2408   6.899   5.225   2.686  0.0047 -1.8980  0.8367
    6CHTO   C51 2409   7.041   5.474   2.626  0.1229  0.2952 -0.3271
    6CHTO   H93 2410   6.936   5.494   2.649  0.7984  1.5254  1.8609
    6CHTO   O30 2411   7.095   5.555   2.517 -0.6285  0.1418  0.2460
    6CHTO   C46 2412   7.006   5.550   2.381  0.3159 -0.2408  0.1247
    6CHTO   H88 2413   6.905   5.581   2.408 -0.3118 -0.2333 -2.0810
    6CHTO   C53 2414   7.062   5.642   2.275  0.1792 -0.4692 -0.0726
    6CHTO   O72 2415   7.081   5.772   2.326 -0.6022 -0.2433  0.0987
    6CHTO  H199 2416   7.164   5.786   2.367  1.0164  0.0577 -3.1686
    6CHTO   O22 2417   7.124   5.497   2.740  0.3696  0.1059 -0.3496
    6CHTO   C31 2418   7.091   5.565   2.869 -0.2535 -0.2797 -0.0911
    6CHTO   H59 2419   6.984   5.594   2.859  0.0872  2.0975  2.6865
    6CHTO   C29 2420   7.111   5.488   3.001 -0.3964 -0.9602 -0.2682
    6CHTO   H57 2421   7.218   5.466   3.001 -0.1108  0.3818 -1.6093
    6CHTO   O21 2422   7.048   5.360   2.986  0.3758 -0.3954 -0.3245
    6CHTO   H37 2423   6.972   5.355   2.931 -0.6711 -2.1193  1.2186
    6CHTO   C27 2424   7.073   5.574   3.127  0.0419  0.9599 -0.7972
    6CHTO   H55 2425   6.966   5.597   3.126 -0.4606 -1.1264  0.8617
    6CHTO    N5 2426   7.115   5.509   3.250  0.0339 -0.4661  0.0889
    6CHTO   H43 2427   7.193   5.572   3.291 -1.7002  2.1667 -0.5372
    6CHTO   H44 2428   7.125   5.402   3.249 -2.8028 -0.7542 -0.1640
    6CHTO   C25 2429   7.147   5.717   3.115 -0.0471 -0.0670  0.4450
    6CHTO   H53 2430   7.256   5.706   3.119 -0.1297 -0.7962  0.8336
    6CHTO   O17 2431   7.117   5.775   2.988 -0.5074 -0.3297 -0.5221
    6CHTO   C32 2432   7.170   5.700   2.878  0.3394 -0.9897  0.3384
    6CHTO   H60 2433   7.276   5.676   2.886  0.7460  0.5495 -0.2627
    6CHTO   C36 2434   7.151   5.790   2.748  0.2441 -0.5013 -0.0839
    6CHTO   O25 2435   7.013   5.815   2.712  0.2347 -0.1677 -0.1214
    6CHTO   H40 2436   7.008   5.860   2.630 -0.3014  0.2588  0.1425
    6CHTO   O15 2437   7.095   5.819   3.217  0.0965  0.5173 -0.0628
    6CHTO   C19 2438   6.976   5.861   3.289  0.7767 -0.6975  0.0685
    6CHTO   H47 2439   6.925   5.775   3.334  0.8571  0.0623  1.6370
    6CHTO   C20 2440   7.008   5.970   3.399  0.3695  0.4407  0.8915
    6CHTO   H48 2441   7.062   6.055   3.354  2.6281 -1.5937 -0.3920
    6CHTO   O19 2442   7.101   5.915   3.491  0.4658  0.0382  0.2088
    6CHTO   H35 2443   7.180   5.966   3.496 -0.2011  0.8003  3.9095
    6CHTO   C21 2444   6.878   6.024   3.479  0.2080  0.3564  0.1279
    6CHTO   H49 2445   6.830   5.938   3.526 -0.0408  1.2713  1.5739
    6CHTO    N4 2446   6.901   6.125   3.579 -0.0417 -0.4475 -0.0469
    6CHTO   H41 2447   6.947   6.073   3.662  0.6498  1.5957  0.8598
    6CHTO   H42 2448   6.805   6.159   3.614  0.6565  0.4911  0.9936
    6CHTO   C22 2449   6.777   6.077   3.369 -0.4899 -0.0856 -0.0522
    6CHTO   H50 2450   6.830   6.161   3.323 -2.0598  0.1209 -1.5674
    6CHTO   O14 2451   6.751   5.967   3.273 -0.5073 -0.0788 -0.1619
    6CHTO   C23 2452   6.870   5.925   3.193  0.0568 -0.1687  0.2419
    6CHTO   H51 2453   6.911   6.011   3.138 -0.9148  0.6169  0.7217
    6CHTO   C34 2454   6.818   5.821   3.098  0.2208 -0.8951  0.2260
    6CHTO   O23 2455   6.742   5.887   2.991 -0.0953  0.5325  0.0579
    6CHTO   H38 2456   6.661   5.918   3.027 -1.8443 -1.0055 -2.4687
    6CHTO   O16 2457   6.647   6.120   3.422  0.2835  0.5526 -0.1886
    6CHTO   C24 2458   6.555   6.210   3.319 -0.1620  0.3955  0.5598
    6CHTO   H52 2459   6.581   6.188   3.215  0.4337 -0.2228  0.8422
    6CHTO   C26 2460   6.567   6.361   3.348 -0.9484 -0.8407 -0.3134
    6CHTO   H54 2461   6.539   6.380   3.454  0.1212 -0.0323 -0.1703
    6CHTO   O20 2462   6.706   6.390   3.332 -0.4035  0.4327 -0.4120
    6CHTO   H36 2463   6.745   6.380   3.417  2.1804  1.5708 -1.4068
    6CHTO   C30 2464   6.480   6.445   3.255  0.0787 -0.7230  0.4560
    6CHTO   H58 2465   6.509   6.420   3.152  0.8266  2.0703 -0.0355
    6CHTO    N6 2466   6.501   6.586   3.277 -0.5530  0.4012  0.4736
    6CHTO   H45 2467   6.609   6.599   3.278 -0.5128  0.5029 -2.0180
    6CHTO   H46 2468   6.455   6.631   3.364 -1.6942  1.5504 -0.7010
    6CHTO   C33 2469   6.331   6.395   3.270  0.0770 -0.2060  0.1883
    6CHTO   H61 2470   6.299   6.419   3.372 -1.1991  1.0988 -0.4991
    6CHTO   O18 2471   6.324   6.250   3.256 -0.3846 -0.2195  0.2725
    6CHTO   C28 2472   6.401   6.167   3.336 -0.0055  0.1728  0.0153
    6CHTO   H56 2473   6.373   6.176   3.441  0.2904  0.3851  0.0754
    6CHTO   C35 2474   6.396   6.022   3.278  0.3341  0.2658  0.1924
    6CHTO   O24 2475   6.435   6.021   3.142  0.0148  0.1737  0.0841
    6CHTO   H39 2476   6.526   6.037   3.126 -0.2475 -1.0783 -3.1063
    6CHTO    O9 2477   6.237   6.461   3.188  0.4121  0.1540 -0.5899
    6CHTO   C13 2478   6.088   6.438   3.234  0.3509 -0.9000 -0.3871
    6CHTO   H26 2479   6.088   6.399   3.338  0.1810  0.2908  0.0760
    6CHTO   C11 2480   6.013   6.339   3.140  0.8521 -0.1689  0.4146
    6CHTO   H24 2481   6.058   6.239   3.144  1.2329  0.0697  3.8404
    6CHTO    O8 2482   6.005   6.378   3.006  0.2107  0.4450  0.6431
    6CHTO    H3 2483   5.927   6.426   2.988  0.2772 -0.2564 -1.6795
    6CHTO    C9 2484   5.869   6.332   3.207  0.0047  0.4786  0.4321
    6CHTO   H22 2485   5.878   6.293   3.310 -2.4997 -0.6069  0.2782
    6CHTO    N2 2486   5.783   6.229   3.138 -0.2406  0.4216  0.4933
    6CHTO   H10 2487   5.680   6.226   3.169 -0.7658  1.7600 -1.0393
    6CHTO   H11 2488   5.775   6.262   3.036 -0.0125 -0.5093  0.1688
    6CHTO    C7 2489   5.802   6.476   3.223 -0.0796  0.1636 -0.5188
    6CHTO   H20 2490   5.774   6.481   3.330 -1.6047  1.0557 -0.9372
    6CHTO    O4 2491   5.889   6.583   3.182 -0.2131 -0.2166  0.0992
    6CHTO   C14 2492   6.014   6.578   3.251 -0.4021 -0.0690  0.2946
    6CHTO   H27 2493   5.991   6.583   3.360 -1.9953 -0.8612  0.0155
    6CHTO   C18 2494   6.085   6.710   3.211 -0.6437  0.9980  0.9565
    6CHTO   O13 2495   6.096   6.732   3.073  0.3410  0.5392 -0.4276
    6CHTO    H7 2496   6.019   6.763   3.029  0.7630  0.0185 -1.5524
    6CHTO    O2 2497   5.659   6.488   3.121  0.4021 -0.8093  0.3134
    6CHTO    C1 2498   5.562   6.561   3.195  0.6246 -0.1013 -0.1870
    6CHTO   H14 2499   5.604   6.644   3.255 -1.4412  1.3432 -0.6754
    6CHTO    C2 2500   5.455   6.485   3.286 -0.7965  1.1981 -0.3572
    6CHTO   H15 2501   5.414   6.395   3.239  0.0120 -1.1104  3.1191
    6CHTO    O6 2502   5.526   6.443   3.402  0.0758 -0.3434 -0.1872
    6CHTO    H1 2503   5.604   6.395   3.381 -0.4413 -0.7803 -1.1499
    6CHTO    C3 2504   5.335   6.572   3.335 -0.0763  0.3504 -0.2737
    6CHTO   H16 2505   5.364   6.644   3.413  0.7592 -0.5098  0.2179
    6CHTO    N1 2506   5.223   6.493   3.394 -0.5753 -0.8414 -0.2046
    6CHTO    H8 2507   5.267   6.418   3.457 -0.0483 -0.3455  0.0268
    6CHTO    H9 2508   5.160   6.439   3.324  0.1484 -1.5543 -0.3211
    6CHTO    C4 2509   5.280   6.661   3.211 -0.2412  0.4459  0.3027
    6CHTO   H17 2510   5.239   6.598   3.132 -2.3186 -1.2310  2.6268
    6CHTO    O1 2511   5.391   6.731   3.151  0.3176 -0.1021 -0.1873
    6CHTO    C5 2512   5.482   6.643   3.087  0.6865 -0.4314  0.6026
    6CHTO   H18 2513   5.430   6.572   3.024  4.3852 -1.9765 -0.8815
    6CHTO   C16 2514   5.575   6.722   3.000 -0.0893  0.3081  0.3448
    6CHTO   O11 2515   5.667   6.807   3.068  0.3461  0.5000  0.2833
    6CHTO    H5 2516   5.736   6.755   3.104  0.0199 -0.2413 -0.1428
    6CHTO    O3 2517   5.182   6.762   3.243  0.6746 -0.1855 -0.5630
    6CHTO    C6 2518   5.080   6.797   3.134 -0.4098 -0.1490 -0.0921
    6CHTO   H19 2519   5.022   6.885   3.162 -1.1930 -0.4785 -0.6537
    6CHTO    C8 2520   5.139   6.830   2.994 -0.1730  0.2072 -0.1702
    6CHTO   H21 2521   5.225   6.767   2.974  0.1000  1.1871 -2.2205
    6CHTO    O7 2522   5.193   6.961   2.996 -0.0191  0.1762  0.1003
    6CHTO    H2 2523   5.138   7.019   2.948  0.2820 -0.0448 -0.5212
    6CHTO   C12 2524   5.029   6.817   2.876  0.5294 -0.3265  0.3458
    6CHTO   H25 2525   4.972   6.912   2.884  1.2236  0.2026 -0.8456
    6CHTO    N3 2526   5.097   6.822   2.746  0.4915 -0.3545  0.2106
    6CHTO   H12 2527   5.185   6.760   2.742  0.8086  0.0178  1.3888
    6CHTO   H13 2528   5.115   6.927   2.725 -1.1266 -0.4371 -1.7426
    6CHTO   C15 2529   4.928   6.690   2.896 -0.1801  0.2213 -0.3755
    6CHTO   H28 2530   4.971   6.596   2.862  0.2066 -0.0393  0.8227
    6CHTO   O10 2531   4.800   6.718   2.834 -0.2984 -0.1388  0.0949
    6CHTO    H4 2532   4.811   6.725   2.741  2.4537  0.8072  0.4322
    6CHTO    O5 2533   4.882   6.679   3.032 -0.4062  0.6908  0.3483
    6CHTO   C10 2534   4.980   6.672   3.136  0.5050  0.0719  0.1105
    6CHTO   H23 2535   5.031   6.577   3.122 -0.0118  0.1093 -2.2702
    6CHTO   C17 2536   4.892   6.658   3.264 -0.5855  0.1319  0.4531
    6CHTO   O12 2537   4.819   6.533   3.283 -0.5948 -0.6782 -0.2492
    6CHTO    H6 2538   4.764   6.543   3.358  0.2863 -1.1196  0.4729
    7CHTO  H203 2539   4.508   1.657   0.208  0.8546 -2.5397  2.0346
    7CHTO   O82 2540   4.501   1.722   0.275  0.1521  0.1385 -0.5431
    7CHTO  C123 2541   4.573   1.837   0.221 -0.5725 -0.8499  0.2454
    7CHTO  H227 2542   4.508   1.923   0.203 -1.0436 -0.7003  2.6079
    7CHTO   O77 2543   4.647   1.869   0.340  0.4575 -0.2019  0.7578
    7CHTO  C118 2544   4.735   1.982   0.326 -0.2104  0.0822 -0.1569
    7CHTO  H222 2545   4.682   2.074   0.295 -0.4779  0.4161  1.2867
    7CHTO  C125 2546   4.798   2.018   0.472 -0.6451  0.0385 -0.2124
    7CHTO   O84 2547   4.878   1.919   0.537 -0.6864  0.2354  0.0741
    7CHTO  H205 2548   4.905   1.954   0.620 -2.8006 -0.5442  1.1337
    7CHTO  C114 2549   4.845   1.948   0.223  0.0832  0.1520 -0.3484
    7CHTO  H218 2550   4.900   1.864   0.266 -0.4815 -1.3231 -2.4489
    7CHTO  C116 2551   4.779   1.922   0.088 -0.0866  0.7065  0.9415
    7CHTO  H220 2552   4.736   2.018   0.051  0.9844  1.3008  1.2260
    7CHTO   O79 2553   4.885   1.883  -0.004  0.4367 -0.4077 -0.1642
    7CHTO  H201 2554   4.903   1.942  -0.075 -0.5650 -0.6320 -0.6073
    7CHTO  C120 2555   4.670   1.806   0.098 -0.1686  0.4868 -0.5536
    7CHTO  H224 2556   4.722   1.708   0.114 -0.6770  0.5773  1.8993
    7CHTO   N21 2557   4.591   1.790  -0.025  0.0388 -0.8335  0.6158
    7CHTO  H211 2558   4.509   1.859  -0.040  0.7036  0.0459  0.9330
    7CHTO  H212 2559   4.642   1.760  -0.115 -1.1815 -0.8726 -0.0662
    7CHTO   O75 2560   4.928   2.068   0.224  0.2310  0.5661  0.1479
    7CHTO  C112 2561   5.098   2.042   0.181 -1.1874  0.5609 -0.1488
    7CHTO  H216 2562   5.103   1.954   0.116  2.0771  0.8888 -0.4350
    7CHTO   O73 2563   5.164   2.017   0.311  0.1613  0.1938 -0.0921
    7CHTO  C113 2564   5.303   2.041   0.318 -0.0243  0.5787 -0.1912
    7CHTO  H217 2565   5.348   1.957   0.261  1.1780  1.1448 -0.0878
    7CHTO  C124 2566   5.345   2.024   0.461 -0.0425 -0.6024 -0.2595
    7CHTO   O83 2567   5.313   1.895   0.521  0.2377 -0.2234 -0.3757
    7CHTO  H204 2568   5.341   1.904   0.611  1.0632  2.5347 -0.8533
    7CHTO  C109 2569   5.351   2.175   0.257 -0.4511 -0.4801 -0.0175
    7CHTO  H213 2570   5.306   2.257   0.315  1.1174  0.9473 -0.7860
    7CHTO  C110 2571   5.301   2.178   0.111  0.2148  0.1834 -0.4339
    7CHTO  H214 2572   5.351   2.094   0.063 -0.3520  0.1353 -0.9433
    7CHTO   O78 2573   5.347   2.298   0.044 -0.6038  0.3334 -0.2547
    7CHTO  H200 2574   5.284   2.368   0.051  0.1299  0.9042  0.8418
    7CHTO  C111 2575   5.146   2.171   0.107  0.1948  0.0086  0.4391
    7CHTO  H215 2576   5.107   2.257   0.163  0.7761 -0.3349  1.3822
    7CHTO   N19 2577   5.090   2.180  -0.031 -0.0229 -0.4870  1.1152
    7CHTO  H207 2578   4.983   2.195  -0.025  0.0658 -0.0916  1.7221
    7CHTO  H208 2579   5.110   2.090  -0.087 -1.1590 -0.6107  0.8824
    7CHTO   O74 2580   5.486   2.178   0.271  0.5177 -0.1425 -0.1780
    7CHTO  C115 2581   5.544   2.348   0.287 -0.2065  0.3016 -0.6609
    7CHTO  H219 2582   5.478   2.413   0.230 -0.6725 -0.5564 -1.1179
    7CHTO   O76 2583   5.537   2.398   0.434  0.3647 -0.0700 -0.8197
    7CHTO  C122 2584   5.623   2.330   0.528  0.2763 -0.6714  0.6160
    7CHTO  H226 2585   5.587   2.227   0.533  1.1178 -1.0127 -0.2665
    7CHTO  C126 2586   5.596   2.397   0.666 -0.0990 -0.9319 -0.5273
    7CHTO   O85 2587   5.481   2.341   0.726 -0.0981  0.2763 -0.1312
    7CHTO  H206 2588   5.414   2.327   0.662 -0.0923  0.2841 -0.1392
    7CHTO  C121 2589   5.771   2.331   0.486  0.1191 -0.0729 -0.0708
    7CHTO  H225 2590   5.808   2.435   0.497  0.2552 -0.4830  4.2384
    7CHTO   O81 2591   5.849   2.245   0.575 -0.3285  0.0099 -0.0733
    7CHTO  H202 2592   5.804   2.247   0.657  0.6862 -2.2732  0.5748
    7CHTO  C119 2593   5.785   2.278   0.335 -0.0048 -0.5560  0.1402
    7CHTO  H223 2594   5.888   2.294   0.305  0.5990 -3.3717  0.6294
    7CHTO  C117 2595   5.685   2.350   0.229 -0.5715  0.3008  0.4116
    7CHTO  H221 2596   5.666   2.290   0.139 -1.6301  0.6750  0.3812
    7CHTO   N20 2597   5.739   2.477   0.184  0.0877 -0.3351  0.4780
    7CHTO  H209 2598   5.679   2.508   0.100  1.4851 -2.5428 -1.4026
    7CHTO  H210 2599   5.844   2.459   0.162 -0.0827 -0.7618  0.0130
    7CHTO   O80 2600   5.782   2.135   0.326  0.1204  0.5023 -0.1239
    7CHTO  C103 2601   5.842   2.051   0.197 -0.4560  0.2921 -0.1371
    7CHTO  H190 2602   5.784   2.066   0.106  0.9219 -2.3205 -1.5052
    7CHTO  C101 2603   5.999   2.071   0.153  0.1518  0.1359  0.3230
    7CHTO  H188 2604   6.059   2.054   0.243  0.1596  1.4337  0.5662
    7CHTO   O68 2605   6.026   2.208   0.106 -0.6216 -0.4193 -0.6597
    7CHTO  H168 2606   6.106   2.241   0.142 -0.4779 -0.4060 -0.9854
    7CHTO   C99 2607   6.040   1.959   0.048 -0.1846 -0.6737  0.1341
    7CHTO  H186 2608   5.980   1.964  -0.045 -0.6350 -1.2945  0.3834
    7CHTO   N17 2609   6.183   1.957   0.019 -0.3862  0.4528 -0.4896
    7CHTO  H174 2610   6.205   1.872  -0.044 -0.0249 -0.1656  0.4561
    7CHTO  H175 2611   6.205   2.051  -0.028 -2.3677  1.4039  0.4175
    7CHTO   C97 2612   5.999   1.821   0.109  0.1950  0.5566  0.5688
    7CHTO  H184 2613   6.054   1.807   0.203 -1.3637  1.8488  1.6889
    7CHTO   O64 2614   5.855   1.813   0.131  0.1255 -0.1981  0.0892
    7CHTO  C104 2615   5.823   1.896   0.241  0.2445  0.5811  0.1895
    7CHTO  H191 2616   5.888   1.875   0.326  1.6118 -1.4292 -1.2945
    7CHTO  C108 2617   5.676   1.869   0.282  0.1067  0.0925 -0.4528
    7CHTO   O71 2618   5.598   1.899   0.167 -0.5993 -0.0588  0.3249
    7CHTO  H171 2619   5.609   1.830   0.104  0.9312  1.6616 -1.3445
    7CHTO   O62 2620   6.005   1.699   0.023 -0.3946  0.0811 -0.0166
    7CHTO   C91 2621   6.115   1.611   0.048  0.6403  0.0524  0.1420
    7CHTO  H178 2622   6.206   1.669   0.037 -1.0543  3.4235  2.9172
    7CHTO   C92 2623   6.115   1.496  -0.061  0.3318 -0.1428  0.1451
    7CHTO  H179 2624   6.114   1.537  -0.163 -0.6872  0.6169  0.4563
    7CHTO   O66 2625   6.237   1.416  -0.050  1.2370  0.4766  0.2641
    7CHTO  H166 2626   6.235   1.338  -0.102 -1.0096  0.0882  0.8745
    7CHTO   C93 2627   5.994   1.404  -0.039 -0.3733  0.5202 -1.0781
    7CHTO  H180 2628   6.032   1.307  -0.075 -0.3430 -0.8371  2.3674
    7CHTO   N16 2629   5.874   1.440  -0.119  0.1539  0.6497 -0.0224
    7CHTO  H172 2630   5.822   1.510  -0.056  0.3549 -0.3636  1.2904
    7CHTO  H173 2631   5.815   1.354  -0.144  0.4319  0.9886 -1.9619
    7CHTO   C94 2632   5.958   1.386   0.115 -0.0048 -0.6210 -0.1856
    7CHTO  H181 2633   5.886   1.461   0.149  0.3960 -1.2756  2.1804
    7CHTO   O61 2634   6.069   1.405   0.204 -0.1769 -0.0911 -0.2608
    7CHTO   C95 2635   6.114   1.544   0.196 -0.2460 -0.7422  0.1946
    7CHTO  H182 2636   6.058   1.609   0.263 -1.0905 -2.2126  0.9281
    7CHTO  C106 2637   6.260   1.544   0.257  0.1369 -0.3800  0.0368
    7CHTO   O69 2638   6.271   1.494   0.393  0.0505 -0.6653  0.1783
    7CHTO  H169 2639   6.328   1.420   0.395 -2.2537 -2.5471 -1.4711
    7CHTO   O63 2640   5.893   1.253   0.135  0.0511 -0.7679  0.3280
    7CHTO   C96 2641   5.867   1.224   0.303  0.0783  0.6136  0.4532
    7CHTO  H183 2642   5.848   1.317   0.358 -0.0844  1.3674 -0.8631
    7CHTO   C98 2643   5.985   1.163   0.380 -0.4381  0.1284 -0.0049
    7CHTO  H185 2644   6.076   1.224   0.369 -0.1384  0.0513  1.9185
    7CHTO   O67 2645   5.956   1.163   0.518  0.2865 -0.1928  0.1732
    7CHTO  H167 2646   6.024   1.115   0.563 -0.3729  0.3786  1.8172
    7CHTO  C102 2647   6.016   1.014   0.322  0.1239 -0.6910  0.6357
    7CHTO  H189 2648   6.064   0.951   0.398  1.2346 -1.9085 -1.0456
    7CHTO   N18 2649   6.112   1.010   0.208  0.5780  0.1345  0.0008
    7CHTO  H176 2650   6.117   0.911   0.164 -2.3418  0.1722 -0.4911
    7CHTO  H177 2651   6.214   1.038   0.234 -0.0357 -0.5843  3.4963
    7CHTO  C105 2652   5.877   0.944   0.287  1.0054  0.0499  0.4218
    7CHTO  H192 2653   5.855   0.956   0.181  2.1101 -1.4346  0.0105
    7CHTO   O65 2654   5.765   1.004   0.357 -0.3637  0.1480 -0.0355
    7CHTO  C100 2655   5.732   1.140   0.317 -1.2156 -0.6644 -0.6250
    7CHTO  H187 2656   5.683   1.134   0.219  0.8068  2.1875 -1.8684
    7CHTO  C107 2657   5.631   1.214   0.416  0.0860 -0.0370  0.1228
    7CHTO   O70 2658   5.521   1.125   0.451  0.1824  0.3733 -0.0723
    7CHTO  H170 2659   5.476   1.098   0.374 -0.5343 -1.6963  1.0663
    7CHTO   O57 2660   5.897   0.800   0.311  0.1552 -0.4181 -0.0727
    7CHTO   C85 2661   5.847   0.697   0.224  1.0813 -0.5451 -0.5235
    7CHTO  H157 2662   5.849   0.743   0.123  0.6542  0.7513  0.0519
    7CHTO   C83 2663   5.696   0.680   0.253  0.4186  0.1131 -0.1100
    7CHTO  H155 2664   5.646   0.776   0.245  0.8740  0.2423 -1.6084
    7CHTO   O56 2665   5.687   0.629   0.388 -0.6270  0.0859 -0.1826
    7CHTO  H135 2666   5.612   0.578   0.414 -0.3827  0.8355  2.1182
    7CHTO   C81 2667   5.639   0.576   0.154  0.0277  0.1526  1.2743
    7CHTO  H153 2668   5.662   0.603   0.051  0.3264 -1.7774  0.8128
    7CHTO   N14 2669   5.492   0.562   0.169  0.0608 -0.0668  0.3173
    7CHTO  H141 2670   5.444   0.575   0.264 -1.2977 -0.6150 -0.2809
    7CHTO  H142 2671   5.442   0.620   0.094  0.9553  0.1641 -0.1043
    7CHTO   C79 2672   5.711   0.441   0.175  0.0272  0.0868 -0.0652
    7CHTO  H151 2673   5.679   0.373   0.096  1.6551 -1.3084  0.4574
    7CHTO   O52 2674   5.859   0.462   0.141 -0.0828 -0.1825 -0.1147
    7CHTO   C86 2675   5.923   0.560   0.218  0.2368  0.0890 -0.7311
    7CHTO  H158 2676   5.934   0.510   0.317  2.3320  1.5064 -0.2191
    7CHTO   C90 2677   6.064   0.586   0.182  0.4259 -0.2619 -0.1047
    7CHTO   O60 2678   6.071   0.603   0.038 -0.1209  0.2153 -0.1951
    7CHTO  H138 2679   6.137   0.548   0.001 -0.0393 -0.4879  0.9949
    7CHTO   O50 2680   5.696   0.386   0.307 -0.2943 -0.4562 -0.3194
    7CHTO   C73 2681   5.685   0.272   0.393 -0.3704  0.7301  0.1740
    7CHTO  H145 2682   5.766   0.201   0.372  0.5355  2.3872 -2.1368
    7CHTO   C74 2683   5.548   0.200   0.375 -0.6603 -0.4384  0.0060
    7CHTO  H146 2684   5.552   0.181   0.267  2.1170 -0.4223  0.0702
    7CHTO   O54 2685   5.553   0.073   0.441  0.5934  0.2658  0.3347
    7CHTO  H133 2686   5.544   0.096   0.532  0.4388 -0.3520  0.4783
    7CHTO   C75 2687   5.428   0.299   0.418  0.3441  0.4959  0.4648
    7CHTO  H147 2688   5.433   0.390   0.356 -1.3754  0.8098  0.7685
    7CHTO   N13 2689   5.303   0.232   0.388  0.4036  0.0897 -0.0378
    7CHTO  H139 2690   5.209   0.284   0.381  0.3620  0.2518  1.5600
    7CHTO  H140 2691   5.287   0.145   0.451  0.4888 -0.3727 -0.6501
    7CHTO   C76 2692   5.453   0.338   0.562  0.4936  0.6535 -0.7947
    7CHTO  H148 2693   5.457   0.248   0.622  1.6048  0.1097 -1.6472
    7CHTO   O49 2694   5.584   0.406   0.564 -0.1629 -0.7133 -0.2451
    7CHTO   C77 2695   5.699   0.324   0.538  0.3523  0.3269  0.4921
    7CHTO  H149 2696   5.714   0.239   0.604  2.0530  0.4695  0.3173
    7CHTO   C88 2697   5.827   0.397   0.558 -0.4583  0.1121 -0.0093
    7CHTO   O58 2698   5.825   0.452   0.698  0.4520  0.4208 -0.5558
    7CHTO  H136 2699   5.749   0.499   0.726  1.3353  2.3465 -1.2950
    7CHTO   O51 2700   5.342   0.468   0.626 -0.0018 -0.1832  0.2240
    7CHTO   C78 2701   5.334   0.434   0.788 -0.2223  0.5072 -0.1563
    7CHTO  H150 2702   5.425   0.386   0.829 -1.6002 -1.6400  0.5123
    7CHTO   C80 2703   5.217   0.344   0.823 -0.1195  0.3324  1.1019
    7CHTO  H152 2704   5.128   0.385   0.772 -0.3696 -1.5959 -0.0503
    7CHTO   O55 2705   5.237   0.211   0.763 -0.5414 -0.6579  0.9644
    7CHTO  H134 2706   5.249   0.219   0.670  5.1428 -0.7769  1.4969
    7CHTO   C84 2707   5.181   0.331   0.977 -0.0132 -0.6988 -0.4092
    7CHTO  H156 2708   5.264   0.286   1.031  0.2934 -1.4956 -1.5196
    7CHTO   N15 2709   5.068   0.236   1.003  0.2210 -0.4077  1.1054
    7CHTO  H143 2710   5.037   0.197   0.908  0.4813 -3.5734  2.2486
    7CHTO  H144 2711   5.104   0.151   1.058  2.3429 -1.6535 -2.0559
    7CHTO   C87 2712   5.159   0.474   1.027 -0.1873  0.9147 -0.0354
    7CHTO  H159 2713   5.076   0.523   0.975 -0.1586  0.2828 -0.6910
    7CHTO   O53 2714   5.290   0.561   0.991  0.4088  0.6087 -0.0546
    7CHTO   C82 2715   5.310   0.573   0.849 -0.1045 -0.6524  0.3036
    7CHTO  H154 2716   5.229   0.627   0.801  0.3873  1.2178  1.5066
    7CHTO   C89 2717   5.437   0.661   0.827 -0.5070 -0.5390 -0.7535
    7CHTO   O59 2718   5.451   0.706   0.693 -0.2007 -0.6720  0.4900
    7CHTO  H137 2719   5.514   0.776   0.690 -2.5657  1.6930  2.6732
    7CHTO   O45 2720   5.147   0.460   1.188 -0.2912  0.4714  0.8796
    7CHTO   C67 2721   5.185   0.573   1.263  0.0347  0.4798 -0.4577
    7CHTO  H124 2722   5.261   0.636   1.217 -0.1680  1.1954  0.1792
    7CHTO   C65 2723   5.061   0.665   1.298 -0.1986  0.2503  0.0114
    7CHTO  H122 2724   4.970   0.604   1.293 -0.5660  0.8196 -0.2202
    7CHTO   O44 2725   5.052   0.775   1.202 -0.1359 -0.1822  0.0632
    7CHTO  H102 2726   5.105   0.851   1.221 -0.9402  0.5456 -0.5364
    7CHTO   C63 2727   5.078   0.715   1.449  0.2704  0.0175 -0.6540
    7CHTO  H120 2728   5.053   0.631   1.514 -1.5516  1.8723  1.0881
    7CHTO   N11 2729   4.976   0.823   1.487  0.2525  0.1033 -0.3673
    7CHTO  H108 2730   4.965   0.841   1.592 -1.5073 -2.1859 -0.1118
    7CHTO  H109 2731   4.984   0.909   1.424 -0.6792 -1.3531 -2.5307
    7CHTO   C61 2732   5.234   0.748   1.480  0.1789 -0.2038 -0.8638
    7CHTO  H118 2733   5.229   0.784   1.584 -2.3734 -1.1770 -0.6069
    7CHTO   O40 2734   5.315   0.626   1.479  0.0647 -0.2649  0.1223
    7CHTO   C68 2735   5.264   0.518   1.392 -0.1875 -0.4948 -0.0660
    7CHTO  H125 2736   5.202   0.454   1.458  1.3789 -1.0780  0.8859
    7CHTO   C72 2737   5.388   0.427   1.352 -1.0590  0.0658  0.4734
    7CHTO   O48 2738   5.371   0.301   1.283 -0.2622  0.8397  0.0357
    7CHTO  H105 2739   5.334   0.327   1.201 -0.5729  0.3559  0.0215
    7CHTO   O38 2740   5.285   0.851   1.392  0.1773  0.0335 -0.0979
    7CHTO   C55 2741   5.411   0.906   1.435 -0.3663 -0.0404  0.0975
    7CHTO  H112 2742   5.457   0.846   1.515 -1.0736  1.6381  1.7983
    7CHTO   C56 2743   5.384   1.058   1.484 -0.8229  0.6462  0.1627
    7CHTO  H113 2744   5.323   1.104   1.405 -0.1611 -1.0690 -1.3979
    7CHTO   O42 2745   5.314   1.056   1.614 -0.2894 -0.0966  0.2281
    7CHTO  H100 2746   5.222   1.053   1.601 -0.1149  0.0132 -1.1131
    7CHTO   C57 2747   5.519   1.148   1.484 -0.3517 -0.1752  0.5018
    7CHTO  H114 2748   5.568   1.114   1.575  0.5591  2.9170  1.2445
    7CHTO   N10 2749   5.504   1.291   1.496 -0.5962  0.0389 -0.7290
    7CHTO  H106 2750   5.418   1.312   1.557 -1.0311 -0.7852 -1.0546
    7CHTO  H107 2751   5.594   1.320   1.548 -0.7841 -1.9977  0.7878
    7CHTO   C58 2752   5.604   1.123   1.359 -0.0765 -0.3430 -0.4537
    7CHTO  H115 2753   5.558   1.170   1.270 -0.0025  2.0631  0.7088
    7CHTO   O37 2754   5.623   0.981   1.340 -0.5401 -0.2745  0.4955
    7CHTO   C59 2755   5.504   0.916   1.308  0.9928  0.8003  0.2577
    7CHTO  H116 2756   5.460   0.980   1.232 -0.1323 -0.1047  0.1264
    7CHTO   C70 2757   5.550   0.779   1.261  0.2998 -0.1939  0.5692
    7CHTO   O46 2758   5.657   0.716   1.338 -0.1523 -0.0099  0.0385
    7CHTO  H103 2759   5.706   0.764   1.401 -2.0251  0.0244  1.5177
    7CHTO   O39 2760   5.761   1.191   1.380  0.1340  0.0374 -0.5814
    7CHTO   C60 2761   5.867   1.168   1.286 -0.3230 -0.3820  0.1709
    7CHTO  H117 2762   5.868   1.063   1.256 -0.1854 -0.0094 -1.1375
    7CHTO   C62 2763   5.853   1.248   1.156 -0.1345 -0.7673 -0.2069
    7CHTO  H119 2764   5.755   1.210   1.119 -0.9732  2.4965 -1.5474
    7CHTO   O43 2765   5.850   1.395   1.175 -0.6286  0.3452  0.6254
    7CHTO  H101 2766   5.825   1.439   1.096 -0.3520  1.0602  0.9301
    7CHTO   C66 2767   5.969   1.200   1.055  0.0931  0.0356  0.2900
    7CHTO  H123 2768   5.954   1.094   1.037 -3.6204  0.5053  0.1971
    7CHTO   N12 2769   5.960   1.254   0.920 -0.5749 -0.9253  0.5997
    7CHTO  H110 2770   5.859   1.254   0.880  0.8432  0.8079 -3.1530
    7CHTO  H111 2771   5.995   1.355   0.910 -0.6872 -0.8941  0.5142
    7CHTO   C69 2772   6.108   1.228   1.122 -0.3518 -0.1529 -0.0462
    7CHTO  H126 2773   6.117   1.339   1.128 -1.5599  0.0963 -2.2205
    7CHTO   O41 2774   6.125   1.175   1.266  0.2496 -0.8617  0.0709
    7CHTO   C64 2775   5.999   1.192   1.363  0.1977  0.7087 -0.2259
    7CHTO  H121 2776   5.984   1.295   1.402 -1.0924  1.1451 -1.8358
    7CHTO   C71 2777   5.999   1.080   1.472 -0.0913 -0.1831 -0.7243
    7CHTO   O47 2778   6.089   1.101   1.580 -0.4429  0.2786 -0.3939
    7CHTO  H104 2779   6.038   1.147   1.644 -2.0207 -2.0195  0.0759
    7CHTO   O34 2780   6.230   1.164   1.039 -0.1423 -0.1482 -0.4785
    7CHTO   C49 2781   6.319   1.078   0.978 -0.5679 -0.5941  0.2219
    7CHTO   H91 2782   6.359   1.116   0.884  2.0279 -2.5781  0.4590
    7CHTO   C47 2783   6.256   0.940   0.953 -0.0314  0.6870  0.0482
    7CHTO   H89 2784   6.324   0.873   0.896  0.4982  1.7311 -0.5774
    7CHTO   O33 2785   6.140   0.969   0.867  0.3318 -0.1673 -0.5629
    7CHTO   H70 2786   6.166   0.973   0.777  0.1329 -0.3452 -0.6283
    7CHTO   C45 2787   6.225   0.870   1.099  0.3790  0.0432  0.2831
    7CHTO   H87 2788   6.167   0.944   1.157 -1.2897  1.1436 -2.7280
    7CHTO    N8 2789   6.143   0.749   1.093 -0.1853  0.2054  0.1724
    7CHTO   H75 2790   6.044   0.783   1.118 -0.2697  0.9611 -1.1609
    7CHTO   H76 2791   6.143   0.708   0.993  1.9657  0.3620  0.0740
    7CHTO   C43 2792   6.360   0.846   1.180 -0.0214 -0.2645  0.1605
    7CHTO   H85 2793   6.333   0.797   1.273  0.1319  1.7861  1.2936
    7CHTO   O29 2794   6.427   0.980   1.195 -0.0787 -0.4224  0.9800
    7CHTO   C50 2795   6.442   1.059   1.073  0.3576 -0.1918 -0.2948
    7CHTO   H92 2796   6.474   1.159   1.105  0.4237 -0.3911  0.2721
    7CHTO   C54 2797   6.572   1.016   0.987  0.4323 -0.3670 -0.0813
    7CHTO   O36 2798   6.695   1.040   1.057  0.5505 -0.1240  0.6253
    7CHTO   H72 2799   6.702   0.979   1.128 -2.6487 -0.2579  0.8690
    7CHTO   O27 2800   6.447   0.754   1.116 -0.0688  0.1012 -0.4562
    7CHTO   C37 2801   6.524   0.638   1.137  0.0573  0.1074  0.7650
    7CHTO   H79 2802   6.501   0.597   1.237 -0.6131 -0.1594  0.4967
    7CHTO   C38 2803   6.494   0.522   1.036 -0.6139  0.8789  0.3698
    7CHTO   H80 2804   6.503   0.570   0.937 -0.3815 -0.0844 -0.0803
    7CHTO   O31 2805   6.358   0.490   1.062 -0.1731 -0.7116  0.1606
    7CHTO   H68 2806   6.337   0.427   0.995 -1.7782  0.3524 -0.3684
    7CHTO   C39 2807   6.597   0.399   1.046  0.6229  0.0398 -0.2900
    7CHTO   H81 2808   6.586   0.348   1.142 -2.1998 -0.6160 -0.9144
    7CHTO    N7 2809   6.578   0.293   0.936  0.5461  0.1611 -0.5255
    7CHTO   H73 2810   6.661   0.270   0.871  0.4045 -1.8633 -0.0267
    7CHTO   H74 2811   6.494   0.331   0.878  0.3332  1.9707  0.9566
    7CHTO   C40 2812   6.748   0.460   1.038  0.9313  0.0647  0.3912
    7CHTO   H82 2813   6.763   0.492   0.935 -0.9400  0.0343  0.0919
    7CHTO   O26 2814   6.768   0.568   1.132  0.5302 -0.2185 -0.0314
    7CHTO   C41 2815   6.678   0.673   1.128 -0.3597 -0.2519 -0.1732
    7CHTO   H83 2816   6.700   0.733   1.038  0.7128  0.7755  0.7410
    7CHTO   C52 2817   6.713   0.767   1.245 -0.1799  0.4234 -0.7341
    7CHTO   O35 2818   6.862   0.841   1.235 -0.2305  0.4362  0.7083
    7CHTO   H71 2819   6.876   0.899   1.308  0.1188  0.1020  0.9070
    7CHTO   O28 2820   6.846   0.355   1.062  0.0935  0.6542 -0.4648
    7CHTO   C42 2821   6.981   0.359   1.014 -0.1366 -0.9015  0.1400
    7CHTO   H84 2822   7.029   0.273   1.061  1.7815  0.9663  1.6781
    7CHTO   C44 2823   7.068   0.482   1.058 -0.2271 -0.1367 -0.4818
    7CHTO   H86 2824   7.010   0.571   1.033 -2.5237 -1.7279 -0.9043
    7CHTO   O32 2825   7.066   0.467   1.201  0.6470 -0.0577 -0.5437
    7CHTO   H69 2826   7.128   0.407   1.238 -1.1535 -2.0127 -0.6472
    7CHTO   C48 2827   7.212   0.495   1.000 -0.3262 -0.6294  0.3434
    7CHTO   H90 2828   7.283   0.424   1.043  2.8734  1.7907 -0.8174
    7CHTO    N9 2829   7.282   0.625   1.033 -0.6000  0.0132 -0.0990
    7CHTO   H77 2830   7.286   0.634   1.141  0.2882 -0.6241 -0.0773
    7CHTO   H78 2831   7.382   0.630   0.995 -1.0783 -1.9582 -1.6922
    7CHTO   C51 2832   7.205   0.471   0.847 -0.3733  0.8621  0.1498
    7CHTO   H93 2833   7.141   0.547   0.801  0.2813  0.3669 -1.6148
    7CHTO   O30 2834   7.152   0.340   0.822  0.5498  0.0604  0.1053
    7CHTO   C46 2835   6.995   0.341   0.855  0.3406  0.0678 -0.1377
    7CHTO   H88 2836   6.957   0.421   0.791 -1.5080 -1.6985 -1.3276
    7CHTO   C53 2837   6.942   0.209   0.796 -0.3720  0.3465 -0.1348
    7CHTO   O72 2838   6.939   0.217   0.646  0.7291 -0.1099  0.5582
    7CHTO  H199 2839   6.878   0.153   0.616  0.3138  0.1627  0.8139
    7CHTO   O22 2840   7.332   0.479   0.778 -0.4705  0.8414  0.4117
    7CHTO   C31 2841   7.342   0.520   0.634 -1.0172 -0.1709 -0.5165
    7CHTO   H59 2842   7.451   0.518   0.610 -1.0625 -2.2340 -0.6015
    7CHTO   C29 2843   7.279   0.416   0.541 -0.0669 -0.0215  0.9839
    7CHTO   H57 2844   7.172   0.422   0.563  0.2907  0.4047  2.6482
    7CHTO   O21 2845   7.313   0.284   0.575 -0.7340  0.0268  0.3798
    7CHTO   H37 2846   7.282   0.264   0.661 -0.7573 -1.6582  0.0035
    7CHTO   C27 2847   7.309   0.457   0.386 -0.0050 -0.6546 -0.2718
    7CHTO   H55 2848   7.416   0.450   0.365 -0.2854 -1.0091 -1.6375
    7CHTO    N5 2849   7.234   0.375   0.287 -0.1295 -0.0144 -0.5221
    7CHTO   H43 2850   7.292   0.322   0.213  0.7401  0.4355 -0.1703
    7CHTO   H44 2851   7.160   0.307   0.327  0.5324 -0.6164 -0.3160
    7CHTO   C25 2852   7.256   0.600   0.358 -0.0744  0.5641  0.3476
    7CHTO   H53 2853   7.149   0.617   0.377 -0.2730 -0.1943 -0.0596
    7CHTO   O17 2854   7.292   0.697   0.457 -0.0988  0.2151  0.1965
    7CHTO   C32 2855   7.288   0.661   0.596 -1.0007  0.0669 -0.4312
    7CHTO   H60 2856   7.185   0.679   0.627 -0.4036  1.6744  0.6726
    7CHTO   C36 2857   7.364   0.771   0.667 -0.9258  0.3471 -0.2056
    7CHTO   O25 2858   7.320   0.905   0.669  0.6274  0.0901  0.4283
    7CHTO   H40 2859   7.369   0.958   0.609 -1.7453  0.6985 -1.0246
    7CHTO   O15 2860   7.309   0.663   0.204  0.3645  0.1967  0.9430
    7CHTO   C19 2861   7.223   0.739   0.116 -0.2134 -0.1727 -0.5412
    7CHTO   H47 2862   7.288   0.744   0.027  0.0332 -0.9991 -0.4106
    7CHTO   C20 2863   7.084   0.669   0.082  0.2910 -0.2411 -0.7348
    7CHTO   H48 2864   7.028   0.648   0.175 -1.0733  1.5371 -1.1355
    7CHTO   O19 2865   7.118   0.536   0.026 -0.1186  0.4570 -0.2625
    7CHTO   H35 2866   7.159   0.484   0.093  0.0438 -0.1339 -0.8197
    7CHTO   C21 2867   7.001   0.761  -0.015  0.0485 -0.9969 -0.5393
    7CHTO   H49 2868   7.065   0.779  -0.102  0.5673 -1.7198 -0.3056
    7CHTO    N4 2869   6.860   0.714  -0.040 -0.2787 -0.0464  0.4043
    7CHTO   H41 2870   6.825   0.710  -0.142 -3.1215  1.7975  1.2633
    7CHTO   H42 2871   6.782   0.765   0.014 -1.5688  0.8340 -2.2435
    7CHTO   C22 2872   6.994   0.913   0.041 -0.2792  0.3828  0.1841
    7CHTO   H50 2873   6.934   0.917   0.132 -0.0500  0.4279  0.3314
    7CHTO   O14 2874   7.126   0.962   0.074 -0.4737 -0.7077  0.0591
    7CHTO   C23 2875   7.202   0.886   0.165 -0.6983 -0.2819 -0.0863
    7CHTO   H51 2876   7.149   0.895   0.261 -0.0355  0.2356  0.2312
    7CHTO   C34 2877   7.335   0.960   0.170  0.1049  0.2322  0.1409
    7CHTO   O23 2878   7.411   0.918   0.283 -0.0176 -0.5888  0.1387
    7CHTO   H38 2879   7.501   0.940   0.268 -0.5835  1.7225  0.0567
    7CHTO   O16 2880   6.931   0.998  -0.052 -0.5047 -0.7547 -0.0839
    7CHTO   C24 2881   6.879   1.149   0.021  0.8674 -0.5659 -0.2614
    7CHTO   H52 2882   6.931   1.172   0.114 -2.3111  0.7655  1.2898
    7CHTO   C26 2883   6.733   1.132   0.060  0.1400  0.6449  0.0044
    7CHTO   H54 2884   6.678   1.078  -0.020  0.4498  0.1599  0.1195
    7CHTO   O20 2885   6.733   1.036   0.168  0.0878 -0.2434  0.5574
    7CHTO   H36 2886   6.790   0.962   0.153 -1.0105 -0.9194 -0.4174
    7CHTO   C30 2887   6.666   1.267   0.110 -0.4341  0.1937 -0.5342
    7CHTO   H58 2888   6.719   1.319   0.191 -1.8696  1.8093 -0.5780
    7CHTO    N6 2889   6.528   1.258   0.160 -0.0553  0.3563 -0.5597
    7CHTO   H45 2890   6.441   1.285   0.102  0.1827  0.2763 -0.9540
    7CHTO   H46 2891   6.517   1.288   0.263 -2.0427 -0.8230 -0.3862
    7CHTO   C33 2892   6.686   1.378   0.004 -0.4126 -0.0370  0.2971
    7CHTO   H61 2893   6.622   1.347  -0.080  0.4882 -0.0340 -0.3950
    7CHTO   O18 2894   6.820   1.386  -0.046  0.0295  0.3242 -0.4129
    7CHTO   C28 2895   6.893   1.268  -0.082 -0.1346 -0.4824 -0.0402
    7CHTO   H56 2896   6.853   1.235  -0.178 -0.1381 -1.7112  0.3821
    7CHTO   C35 2897   7.051   1.297  -0.103 -0.4782  0.9632 -0.1480
    7CHTO   O24 2898   7.128   1.335   0.012 -0.1155  0.1002  0.7207
    7CHTO   H39 2899   7.164   1.254   0.042  2.0721  0.5994 -0.4170
    7CHTO    O9 2900   6.639   1.507   0.046 -0.2502  0.6900 -0.2409
    7CHTO   C13 2901   6.655   1.639  -0.051 -0.4000  0.2464  0.5506
    7CHTO   H26 2902   6.634   1.609  -0.155  2.3774 -1.9459  0.5611
    7CHTO   C11 2903   6.801   1.694  -0.040 -0.2635  0.5985 -0.4373
    7CHTO   H24 2904   6.863   1.627  -0.101 -0.7267 -0.7191  0.5195
    7CHTO    O8 2905   6.858   1.690   0.092  0.0393 -0.2172  1.1033
    7CHTO    H3 2906   6.951   1.680   0.092  0.3273  1.8938 -1.6612
    7CHTO    C9 2907   6.813   1.834  -0.104 -0.2543  0.2923  0.9760
    7CHTO   H22 2908   6.791   1.816  -0.211  0.5875 -1.5543  1.1079
    7CHTO    N2 2909   6.955   1.875  -0.113  0.6635 -0.1200 -0.2242
    7CHTO   H10 2910   6.951   1.969  -0.165 -2.0258  0.6124  1.2112
    7CHTO   H11 2911   6.988   1.894  -0.012  3.7310 -0.5862 -1.1070
    7CHTO    C7 2912   6.707   1.931  -0.046  0.2414  1.4005  0.1881
    7CHTO   H20 2913   6.704   2.014  -0.118 -2.3471 -0.0269 -1.4167
    7CHTO    O4 2914   6.573   1.874  -0.056 -0.4766 -0.1619 -0.0040
    7CHTO   C14 2915   6.546   1.743  -0.008  0.0936  0.3728  0.0318
    7CHTO   H27 2916   6.450   1.703  -0.048  0.5753 -0.8454  0.0878
    7CHTO   C18 2917   6.532   1.752   0.144  0.0460 -0.1551  0.2949
    7CHTO   O13 2918   6.416   1.826   0.177  0.3460  0.2202  0.7976
    7CHTO    H7 2919   6.442   1.916   0.182  2.2024 -0.0319 -2.6292
    7CHTO    O2 2920   6.732   1.984   0.102 -0.6715  0.1573 -0.2250
    7CHTO    C1 2921   6.746   2.126   0.105  0.5393  1.0843  0.2315
    7CHTO   H14 2922   6.677   2.167   0.027  1.4071  1.0904 -0.5451
    7CHTO    C2 2923   6.889   2.189   0.065  0.4999  0.5193  0.8618
    7CHTO   H15 2924   6.965   2.129   0.117 -0.1848 -0.0123  1.2472
    7CHTO    O6 2925   6.908   2.181  -0.074  0.4187 -0.2775  0.1055
    7CHTO    H1 2926   6.880   2.104  -0.120  0.1841  0.8098 -1.6195
    7CHTO    C3 2927   6.898   2.346   0.124 -0.1673  0.2844  0.1276
    7CHTO   H16 2928   6.836   2.410   0.059 -0.2878  0.4723  0.4269
    7CHTO    N1 2929   7.041   2.396   0.112 -0.2858 -0.3325 -0.2569
    7CHTO    H8 2930   7.107   2.316   0.084  1.8523  0.8097  1.3937
    7CHTO    H9 2931   7.074   2.443   0.203  0.5051  1.3164 -1.3672
    7CHTO    C4 2932   6.831   2.356   0.269 -0.2142  0.3453  0.6282
    7CHTO   H17 2933   6.878   2.286   0.337 -0.3963 -0.0297  0.3706
    7CHTO    O1 2934   6.691   2.319   0.261 -0.2884 -1.2455  0.4211
    7CHTO    C5 2935   6.681   2.179   0.233 -0.0396 -0.2378  0.8346
    7CHTO   H18 2936   6.738   2.137   0.317  0.8337 -1.3073 -0.2814
    7CHTO   C16 2937   6.526   2.138   0.246 -0.6861  0.0441 -0.1295
    7CHTO   O11 2938   6.484   2.118   0.378  0.1595 -0.1953 -0.1199
    7CHTO    H5 2939   6.392   2.102   0.381  0.5050 -2.0395  0.7143
    7CHTO    O3 2940   6.836   2.487   0.328 -0.7297 -0.3336 -0.2418
    7CHTO    C6 2941   6.923   2.501   0.450  0.4006 -0.2816 -0.2742
    7CHTO   H19 2942   7.004   2.428   0.460  0.2421 -0.5147 -0.6922
    7CHTO    C8 2943   6.999   2.635   0.438 -0.0569  0.6023 -0.8100
    7CHTO   H21 2944   6.922   2.712   0.426 -1.7066 -1.0349 -0.8575
    7CHTO    O7 2945   7.072   2.632   0.320 -1.2604  0.4638 -0.4930
    7CHTO    H2 2946   7.021   2.642   0.242 -1.0248 -1.0301 -0.8453
    7CHTO   C12 2947   7.092   2.657   0.561  0.9286  0.2198  0.4277
    7CHTO   H25 2948   7.160   2.569   0.559 -0.2647 -0.6979 -0.6337
    7CHTO    N3 2949   7.164   2.794   0.556 -0.7853 -0.7396  0.2791
    7CHTO   H12 2950   7.122   2.856   0.478  0.0100 -2.2374 -1.3646
    7CHTO   H13 2951   7.268   2.786   0.526 -2.2082 -2.5930 -4.6954
    7CHTO   C15 2952   7.010   2.644   0.690  0.5085  0.2749 -0.6563
    7CHTO   H28 2953   6.940   2.729   0.690 -1.4508 -1.2716 -2.3660
    7CHTO   O10 2954   7.095   2.645   0.814 -0.7115  0.3464 -0.2439
    7CHTO    H4 2955   7.040   2.647   0.890  1.3221  1.9499  1.2585
    7CHTO    O5 2956   6.940   2.519   0.700 -0.2965 -0.0161 -0.1054
    7CHTO   C10 2957   6.849   2.495   0.588  0.6852 -0.3390 -0.0856
    7CHTO   H23 2958   6.774   2.574   0.593 -0.5366 -1.4289 -0.8712
    7CHTO   C17 2959   6.774   2.363   0.591  0.2546 -0.3975 -0.4427
    7CHTO   O12 2960   6.699   2.349   0.715  0.2662  0.4642 -0.1131
    7CHTO    H6 2961   6.619   2.398   0.709  0.1827  0.3105 -0.2839
    8CHTO  H203 2962   7.087   8.174   2.548  0.1824 -0.3898  0.1557
    8CHTO   O82 2963   7.086   8.115   2.475  0.2002  0.3997 -0.4756
    8CHTO  C123 2964   6.975   8.158   2.403  0.1714 -0.0055  0.2863
    8CHTO  H227 2965   6.986   8.265   2.380  0.9683 -0.6300 -2.5209
    8CHTO   O77 2966   6.997   8.086   2.278 -0.1619  0.0949 -0.0719
    8CHTO  C118 2967   6.899   8.096   2.178  0.4406 -0.1083 -0.0929
    8CHTO  H222 2968   6.893   8.201   2.146 -0.6652  0.0510  0.6336
    8CHTO  C125 2969   6.954   8.007   2.061 -0.0856 -0.0845 -0.1646
    8CHTO   O84 2970   7.072   8.065   2.007 -0.1763  0.2794 -0.9150
    8CHTO  H205 2971   7.126   8.004   1.960 -0.3903 -0.3818 -0.2971
    8CHTO  C114 2972   6.763   8.053   2.230  0.2620  0.7517 -0.1455
    8CHTO  H218 2973   6.772   7.949   2.260  0.6735  0.4710 -1.2103
    8CHTO  C116 2974   6.720   8.130   2.358  0.0484 -0.0996 -0.4511
    8CHTO  H220 2975   6.689   8.231   2.323  0.4285 -0.9273 -3.3424
    8CHTO   O79 2976   6.599   8.071   2.404  0.9938  0.0974 -0.7321
    8CHTO  H201 2977   6.531   8.090   2.342 -1.4119 -1.5692  1.2572
    8CHTO  C120 2978   6.836   8.125   2.464  0.2421  0.1355  0.2468
    8CHTO  H224 2979   6.835   8.022   2.504  1.5334  0.4023  1.0191
    8CHTO   N21 2980   6.806   8.200   2.587  0.4787 -0.0571 -0.6486
    8CHTO  H211 2981   6.899   8.215   2.640  1.5606 -0.2248 -2.4336
    8CHTO  H212 2982   6.756   8.294   2.567 -0.4662 -0.7489 -1.5854
    8CHTO   O75 2983   6.674   8.061   2.115  1.2789 -0.0700 -0.7419
    8CHTO  C112 2984   6.602   8.221   2.092 -0.0571 -0.5060 -0.2205
    8CHTO  H216 2985   6.680   8.298   2.096  1.6079 -2.0551 -2.1457
    8CHTO   O73 2986   6.496   8.246   2.188  0.2880 -0.0649  0.1226
    8CHTO  C113 2987   6.430   8.372   2.178 -0.1566  0.6370 -0.3799
    8CHTO  H217 2988   6.506   8.451   2.193 -0.4818  0.9326 -0.2821
    8CHTO  C124 2989   6.329   8.390   2.292 -0.3317 -0.3792 -0.0932
    8CHTO   O83 2990   6.215   8.305   2.282  0.3466  0.0483 -0.4133
    8CHTO  H204 2991   6.249   8.218   2.288 -0.9616 -0.3802  1.1489
    8CHTO  C109 2992   6.368   8.382   2.043 -0.0666 -0.0589 -0.0111
    8CHTO  H213 2993   6.302   8.296   2.025  0.7485 -0.0118 -3.7085
    8CHTO  C110 2994   6.483   8.362   1.930 -0.4104 -0.0717 -0.3656
    8CHTO  H214 2995   6.554   8.444   1.934 -1.8863  1.1436  2.0312
    8CHTO   O78 2996   6.424   8.376   1.798 -0.5284  0.2756  0.1690
    8CHTO  H200 2997   6.459   8.312   1.738 -1.3425  1.1946 -1.3251
    8CHTO  C111 2998   6.542   8.230   1.953  0.4310  0.0718  0.2452
    8CHTO  H215 2999   6.461   8.155   1.952 -3.1687  3.7799 -0.4508
    8CHTO   N19 3000   6.651   8.184   1.860  0.6150  0.2235  0.3333
    8CHTO  H207 3001   6.731   8.120   1.895 -1.0589 -2.1359 -0.0679
    8CHTO  H208 3002   6.613   8.152   1.765  3.6061  1.0184 -1.1749
    8CHTO   O74 3003   6.292   8.508   2.017 -0.1164  0.3056  0.9491
    8CHTO  C115 3004   6.132   8.483   1.992  0.8830  1.1684  0.2393
    8CHTO  H219 3005   6.102   8.380   2.006 -0.3867  1.7254  1.6565
    8CHTO   O76 3006   6.033   8.570   2.091 -0.1425 -0.0145  0.1701
    8CHTO  C122 3007   6.020   8.710   2.065  0.5470  0.1937 -1.0102
    8CHTO  H226 3008   6.117   8.750   2.094 -0.4377  2.9483 -1.3769
    8CHTO  C126 3009   5.914   8.769   2.170  0.6805  0.0524 -0.3831
    8CHTO   O85 3010   5.944   8.738   2.303 -0.1466  0.6751 -0.8471
    8CHTO  H206 3011   5.861   8.736   2.348  0.7647  0.6223  0.8525
    8CHTO  C121 3012   5.983   8.747   1.915 -0.3389 -0.2251 -0.1758
    8CHTO  H225 3013   5.882   8.703   1.900 -0.0150 -1.4073  1.0092
    8CHTO   O81 3014   5.985   8.890   1.901  0.1689  0.2305 -0.1891
    8CHTO  H202 3015   6.066   8.922   1.936  0.4370 -0.9362  0.2759
    8CHTO  C119 3016   6.085   8.674   1.818  0.1550  0.0323 -0.4569
    8CHTO  H223 3017   6.048   8.678   1.716 -0.8042 -0.7276 -0.1385
    8CHTO  C117 3018   6.099   8.520   1.841 -0.6727 -0.1204 -0.4334
    8CHTO  H221 3019   6.180   8.476   1.782  0.6222  1.3869  0.1886
    8CHTO   N20 3020   5.976   8.451   1.795  0.0814 -0.3769  0.7742
    8CHTO  H209 3021   5.894   8.504   1.840 -0.3816 -0.2972 -0.1493
    8CHTO  H210 3022   5.974   8.347   1.824 -1.1623  0.2153  2.9641
    8CHTO   O80 3023   6.235   8.740   1.798  0.1949  0.6398 -0.4583
    8CHTO  C103 3024   6.238   8.882   1.732 -0.6719 -0.4417  0.2203
    8CHTO  H190 3025   6.137   8.915   1.709 -0.4604  0.1604  0.1360
    8CHTO  C101 3026   6.308   9.004   1.810 -0.3026 -0.0930 -0.2662
    8CHTO  H188 3027   6.405   8.972   1.848 -0.9483 -1.2700  0.4343
    8CHTO   O68 3028   6.227   9.053   1.947  0.1649  0.5380  0.0201
    8CHTO  H168 3029   6.216   8.973   1.995 -0.1341  0.6691  0.1730
    8CHTO   C99 3030   6.323   9.140   1.722 -0.4976  0.0132 -0.0608
    8CHTO  H186 3031   6.221   9.173   1.695 -0.7805 -1.7428 -1.2338
    8CHTO   N17 3032   6.398   9.253   1.784 -0.2005  0.6459  0.4703
    8CHTO  H174 3033   6.348   9.348   1.767 -0.3947 -0.0946 -3.7985
    8CHTO  H175 3034   6.495   9.247   1.738 -0.7634  0.3955 -0.7109
    8CHTO   C97 3035   6.392   9.106   1.587 -0.2525  0.7974  1.0742
    8CHTO  H184 3036   6.490   9.076   1.627 -0.5115  0.4948  1.4833
    8CHTO   O64 3037   6.326   8.994   1.523 -0.0889 -0.5705  0.4392
    8CHTO  C104 3038   6.316   8.874   1.600 -0.3947 -0.0499 -0.0056
    8CHTO  H191 3039   6.415   8.833   1.620 -0.4998 -0.2074  0.1836
    8CHTO  C108 3040   6.248   8.776   1.504 -0.3761  0.0838  0.0793
    8CHTO   O71 3041   6.338   8.707   1.411  0.2537 -0.4255 -0.0516
    8CHTO  H171 3042   6.307   8.723   1.323  2.5172 -0.5139 -0.8965
    8CHTO   O62 3043   6.382   9.212   1.487 -0.4864 -0.4187 -0.2242
    8CHTO   C91 3044   6.503   9.224   1.404  0.0764  0.6505  0.3453
    8CHTO  H178 3045   6.559   9.130   1.410  1.5593  1.5021  0.0882
    8CHTO   C92 3046   6.588   9.338   1.471 -0.7474  0.3774 -0.8517
    8CHTO  H179 3047   6.586   9.328   1.580  3.0428 -0.4456 -0.8020
    8CHTO   O66 3048   6.728   9.329   1.432  0.2820  0.1281  0.7967
    8CHTO  H166 3049   6.742   9.327   1.339  0.3770 -0.1422  0.8191
    8CHTO   C93 3050   6.538   9.482   1.441  0.7191 -0.0910  0.2222
    8CHTO  H180 3051   6.622   9.546   1.469  0.5208 -0.6034  2.0793
    8CHTO   N16 3052   6.419   9.536   1.521 -0.5239  0.7989  0.0846
    8CHTO  H172 3053   6.455   9.533   1.623  1.3237  2.1257 -0.4965
    8CHTO  H173 3054   6.389   9.632   1.483 -0.5941  0.8385  0.2428
    8CHTO   C94 3055   6.502   9.489   1.280 -0.0137  0.0362 -0.1533
    8CHTO  H181 3056   6.395   9.496   1.262  0.0256  0.0475 -0.3857
    8CHTO   O61 3057   6.545   9.379   1.211  0.2320  0.3925 -0.8753
    8CHTO   C95 3058   6.484   9.254   1.251  0.3304 -0.2596  0.0651
    8CHTO  H182 3059   6.381   9.251   1.217  0.5018  2.2617 -0.8079
    8CHTO  C106 3060   6.555   9.146   1.171 -0.0471  0.4504 -0.1647
    8CHTO   O69 3061   6.480   9.121   1.049  0.3059  0.0087 -0.1924
    8CHTO  H169 3062   6.522   9.159   0.974  0.0583  2.0342  0.6669
    8CHTO   O63 3063   6.569   9.625   1.210  0.1814  0.1100 -0.4082
    8CHTO   C96 3064   6.489   9.680   1.090 -0.0595 -0.1070 -0.7755
    8CHTO  H183 3065   6.395   9.625   1.092  0.1869 -0.5427 -1.1347
    8CHTO   C98 3066   6.566   9.663   0.955 -0.2516 -0.6839 -0.2103
    8CHTO  H185 3067   6.661   9.718   0.953 -0.4997 -0.2805 -0.9156
    8CHTO   O67 3068   6.603   9.524   0.964  0.4051  0.0223 -0.2367
    8CHTO  H167 3069   6.561   9.478   0.894  0.1318 -1.2018  0.7225
    8CHTO  C102 3070   6.468   9.699   0.828  0.0062 -0.5751 -0.4020
    8CHTO  H189 3071   6.394   9.617   0.816  0.7408 -1.0237 -1.9581
    8CHTO   N18 3072   6.534   9.701   0.695  0.1552  0.2898 -0.3297
    8CHTO  H176 3073   6.572   9.602   0.671  1.2804  1.2350 -2.5624
    8CHTO  H177 3074   6.613   9.774   0.704 -1.5075  2.0470  0.4209
    8CHTO  C105 3075   6.394   9.831   0.864 -0.4312  0.9531  0.5621
    8CHTO  H192 3076   6.449   9.916   0.823 -0.8674  1.3375  0.7737
    8CHTO   O65 3077   6.378   9.873   1.003  0.0500  0.7432 -0.2288
    8CHTO  C100 3078   6.465   9.830   1.106  0.6504  0.7550  0.0004
    8CHTO  H187 3079   6.555   9.893   1.101  0.9329  0.2899 -1.1096
    8CHTO  C107 3080   6.384   9.855   1.234  0.0113  0.8804 -0.1935
    8CHTO   O70 3081   6.369   9.997   1.264 -0.2580  0.2201 -0.3936
    8CHTO  H170 3082   6.459  10.024   1.275 -0.4759  0.7277  0.1406
    8CHTO   O57 3083   6.254   9.801   0.792 -0.0482 -0.5231 -0.0868
    8CHTO   C85 3084   6.179   9.910   0.733  0.6568  0.8002  0.5609
    8CHTO  H157 3085   6.247   9.975   0.674 -0.0099  1.7692  0.8673
    8CHTO   C83 3086   6.136  10.003   0.840 -0.0771 -0.0527  0.0974
    8CHTO  H155 3087   6.227  10.042   0.885 -0.2814 -0.7425  1.1389
    8CHTO   O56 3088   6.067   9.937   0.947  0.3589  0.4589 -0.2376
    8CHTO  H135 3089   6.057   9.984   1.028  0.5119 -3.1637  2.0137
    8CHTO   C81 3090   6.058  10.120   0.770 -0.1986 -0.1461 -0.1325
    8CHTO  H153 3091   6.119  10.160   0.689  0.4445 -1.9381 -0.5557
    8CHTO   N14 3092   6.052  10.241   0.864  0.6640 -0.0402 -0.1381
    8CHTO  H141 3093   6.007  10.220   0.959 -0.1498  2.1808 -0.0218
    8CHTO  H142 3094   5.988  10.310   0.814 -0.5618 -0.2278  1.1277
    8CHTO   C79 3095   5.930  10.055   0.710 -0.2062 -0.0828  0.0999
    8CHTO  H151 3096   5.868  10.133   0.665 -0.1966 -0.8955 -1.3753
    8CHTO   O52 3097   5.961   9.960   0.605  0.1647 -0.2968  0.4063
    8CHTO   C86 3098   6.060   9.861   0.641 -0.0184  0.2668  0.2137
    8CHTO  H158 3099   6.001   9.787   0.700  0.0176  0.2684  0.2506
    8CHTO   C90 3100   6.105   9.786   0.515  0.6774  0.0473  0.1423
    8CHTO   O60 3101   6.210   9.691   0.531  0.1631 -0.2119 -0.2087
    8CHTO  H138 3102   6.195   9.605   0.496  1.5187 -1.2433  1.6261
    8CHTO   O50 3103   5.844   9.992   0.806  0.4996 -0.5319 -0.2855
    8CHTO   C73 3104   5.707   9.972   0.828  0.1114  0.0675  0.7482
    8CHTO  H145 3105   5.647   9.940   0.742 -0.4275 -1.7548  1.7575
    8CHTO   C74 3106   5.634  10.099   0.887 -0.3887 -0.2366 -0.0896
    8CHTO  H146 3107   5.626  10.180   0.814 -0.6230 -1.2107 -1.1652
    8CHTO   O54 3108   5.503  10.058   0.912  0.3788  0.5457 -0.2327
    8CHTO  H133 3109   5.467  10.023   0.832 -0.6812 -0.5282  0.7038
    8CHTO   C75 3110   5.713  10.142   1.015  0.1613  0.3318 -0.6327
    8CHTO  H147 3111   5.816  10.167   0.989  0.2137  1.3892  0.5378
    8CHTO   N13 3112   5.658  10.267   1.075  0.0754 -0.4052 -0.4029
    8CHTO  H139 3113   5.551  10.263   1.089  0.5174 -0.3954  3.6052
    8CHTO  H140 3114   5.704  10.286   1.171  1.2266 -0.1968 -0.9842
    8CHTO   C76 3115   5.709  10.024   1.121 -0.0996  0.6543  0.0386
    8CHTO  H148 3116   5.607  10.020   1.160 -0.0896 -0.4098 -0.0030
    8CHTO   O49 3117   5.740   9.891   1.073 -0.7957 -0.5254 -0.1760
    8CHTO   C77 3118   5.695   9.853   0.940  0.0423  0.4674  0.7511
    8CHTO  H149 3119   5.592   9.819   0.951  0.8196 -2.9148 -1.5825
    8CHTO   C88 3120   5.766   9.719   0.900  0.1775 -0.2255 -0.0302
    8CHTO   O58 3121   5.702   9.675   0.762  0.2389  0.0256 -0.2265
    8CHTO  H136 3122   5.700   9.735   0.690  0.8456  0.7736  0.3824
    8CHTO   O51 3123   5.823  10.048   1.219 -0.2898  0.3820 -0.2443
    8CHTO   C78 3124   5.778   9.968   1.356  0.3222  0.6243 -0.1552
    8CHTO  H150 3125   5.700   9.892   1.336 -1.6624  2.3832  0.8227
    8CHTO   C80 3126   5.715  10.070   1.454 -0.0499 -0.7337 -0.9077
    8CHTO  H152 3127   5.781  10.159   1.462 -0.3595 -0.4610 -1.3929
    8CHTO   O55 3128   5.592  10.109   1.395 -0.4658 -0.4849  0.3883
    8CHTO  H134 3129   5.577  10.200   1.413 -0.6625  0.1113 -2.5358
    8CHTO   C84 3130   5.696  10.013   1.603  0.0961  0.1005  0.3364
    8CHTO  H156 3131   5.619   9.936   1.604  0.5522 -0.3666 -0.2481
    8CHTO   N15 3132   5.647  10.119   1.699  0.0453  0.4569 -0.2086
    8CHTO  H143 3133   5.544  10.144   1.686  0.1153  1.1649  0.5505
    8CHTO  H144 3134   5.664  10.089   1.801  1.1033  0.5234 -0.3591
    8CHTO   C87 3135   5.818   9.927   1.646  0.4107 -0.1272 -0.1328
    8CHTO  H159 3136   5.904   9.994   1.657  0.8789 -0.4773 -1.5892
    8CHTO   O53 3137   5.859   9.834   1.536  0.0489 -0.0558  0.2407
    8CHTO   C82 3138   5.896   9.896   1.416 -0.7075 -0.8976  0.4308
    8CHTO  H154 3139   5.978   9.965   1.439 -0.4290 -1.4682  1.1572
    8CHTO   C89 3140   5.951   9.794   1.324 -0.4129 -0.0118 -0.0390
    8CHTO   O59 3141   6.083   9.759   1.347  0.0058  0.3656 -0.0122
    8CHTO  H137 3142   6.112   9.701   1.279 -0.6562 -1.0064  0.8527
    8CHTO   O45 3143   5.787   9.846   1.793 -0.5406  0.3104  0.1181
    8CHTO   C67 3144   5.879   9.746   1.837  0.4635  0.3396 -0.1751
    8CHTO  H124 3145   5.858   9.651   1.787  0.7305 -0.8276  1.8931
    8CHTO   C65 3146   6.034   9.784   1.813 -0.5103 -0.2031 -0.1269
    8CHTO  H122 3147   6.035   9.891   1.795  0.9015 -0.4907 -1.9540
    8CHTO   O44 3148   6.081   9.713   1.701 -0.1663 -0.4680  0.3445
    8CHTO  H102 3149   6.135   9.638   1.718  1.3325 -0.2832 -3.1448
    8CHTO   C63 3150   6.128   9.770   1.943  0.4580 -0.0828  0.5264
    8CHTO  H120 3151   6.115   9.858   2.006 -0.9809 -0.4664  0.7822
    8CHTO   N11 3152   6.275   9.777   1.915  0.7208 -0.5287  0.3175
    8CHTO  H108 3153   6.320   9.801   2.010  0.6829 -0.6607  0.3689
    8CHTO  H109 3154   6.303   9.850   1.842  1.9113 -1.4532 -0.1707
    8CHTO   C61 3155   6.088   9.647   2.030 -0.5212 -0.0400  0.3439
    8CHTO  H118 3156   6.132   9.655   2.130  1.2351 -0.1161 -0.4038
    8CHTO   O40 3157   5.943   9.640   2.049 -0.0194 -0.2667  0.0117
    8CHTO   C68 3158   5.849   9.731   1.987 -0.0291 -0.5967 -0.2473
    8CHTO  H125 3159   5.860   9.827   2.043 -1.7469 -0.0691 -0.7958
    8CHTO   C72 3160   5.706   9.682   2.024  0.2844  0.5462 -0.0624
    8CHTO   O48 3161   5.696   9.552   1.968 -0.2711  0.2412  0.4620
    8CHTO  H105 3162   5.685   9.560   1.876  0.1972  0.0133  0.3823
    8CHTO   O38 3163   6.133   9.518   1.982  0.2319 -0.0834 -0.2175
    8CHTO   C55 3164   6.084   9.388   2.017  0.5126 -0.4593 -0.4941
    8CHTO  H112 3165   6.167   9.316   2.013  1.0487  0.1889 -1.0230
    8CHTO   C56 3166   5.968   9.345   1.916  0.0627  0.2825 -0.3779
    8CHTO  H113 3167   5.897   9.429   1.908  0.4502  0.5212 -1.2794
    8CHTO   O42 3168   6.036   9.342   1.790 -0.3235 -0.3982 -0.0609
    8CHTO  H100 3169   6.114   9.289   1.786 -1.0847 -1.6698  1.4797
    8CHTO   C57 3170   5.897   9.214   1.966 -0.4164  0.2588 -0.5163
    8CHTO  H114 3171   5.973   9.136   1.968 -1.4195 -0.8022 -2.4072
    8CHTO   N10 3172   5.788   9.178   1.875 -0.6185  0.1115 -0.2052
    8CHTO  H106 3173   5.826   9.208   1.779  0.0212 -0.1217 -0.0298
    8CHTO  H107 3174   5.777   9.071   1.879 -2.6590  0.3078 -0.2062
    8CHTO   C58 3175   5.856   9.241   2.109 -0.1306  0.9697 -0.0664
    8CHTO  H115 3176   5.802   9.338   2.119 -0.8452  0.6538 -0.7573
    8CHTO   O37 3177   5.973   9.252   2.191 -0.2165  0.6316  0.1293
    8CHTO   C59 3178   6.039   9.376   2.163 -0.4522 -0.1506  0.3596
    8CHTO  H116 3179   5.972   9.455   2.195 -0.1439  0.1544  0.2639
    8CHTO   C70 3180   6.153   9.384   2.262  0.0594  0.3021  0.0866
    8CHTO   O46 3181   6.109   9.395   2.397  0.3243 -0.1201  0.0115
    8CHTO  H103 3182   6.038   9.335   2.406 -1.8974  2.2680 -0.9984
    8CHTO   O39 3183   5.749   9.132   2.164 -0.1375 -0.2845 -0.4895
    8CHTO   C60 3184   5.631   9.186   2.227  0.7180 -0.3682  0.0480
    8CHTO  H117 3185   5.618   9.290   2.196  0.2137 -0.6804 -0.8049
    8CHTO   C62 3186   5.497   9.117   2.178 -0.3970 -0.0556  0.0668
    8CHTO  H119 3187   5.505   9.105   2.068 -2.6538 -0.6618 -0.0564
    8CHTO   O43 3188   5.501   8.976   2.209 -0.1012 -0.3627  0.7077
    8CHTO  H101 3189   5.581   8.939   2.178  1.6739  1.4356  2.8987
    8CHTO   C66 3190   5.374   9.200   2.230 -0.1640  0.5888  0.3312
    8CHTO  H123 3191   5.390   9.302   2.196 -1.9347  0.1699 -1.9233
    8CHTO   N12 3192   5.240   9.169   2.178 -0.0891  0.2818  0.5613
    8CHTO  H110 3193   5.236   9.062   2.163 -0.6748  0.6178 -1.8628
    8CHTO  H111 3194   5.239   9.198   2.074 -1.0559 -2.1434 -0.1607
    8CHTO   C69 3195   5.378   9.187   2.384 -0.4565 -0.7902 -0.2379
    8CHTO  H126 3196   5.371   9.082   2.419  0.8063  0.0997  2.8390
    8CHTO   O41 3197   5.518   9.247   2.440 -0.2179 -0.0096  0.1211
    8CHTO   C64 3198   5.642   9.192   2.387 -0.4343  0.2227 -0.0235
    8CHTO  H121 3199   5.661   9.088   2.422  0.0375  0.1618 -0.4563
    8CHTO   C71 3200   5.771   9.273   2.433  0.6789 -0.3750  0.3861
    8CHTO   O47 3201   5.790   9.282   2.577 -0.0893  0.7120  0.3375
    8CHTO  H104 3202   5.709   9.318   2.608 -1.0658  0.8616 -2.2004
    8CHTO   O34 3203   5.264   9.271   2.470  0.8096 -0.2999  1.1395
    8CHTO   C49 3204   5.230   9.433   2.501 -0.2111  0.1279  0.1756
    8CHTO   H91 3205   5.267   9.456   2.601 -0.1602  1.6395 -0.1755
    8CHTO   C47 3206   5.080   9.456   2.501 -0.5422 -0.7108  0.3501
    8CHTO   H89 3207   5.058   9.559   2.536  0.8177 -0.2448 -0.1422
    8CHTO   O33 3208   5.021   9.359   2.588 -0.4047 -0.4091  0.1116
    8CHTO   H70 3209   5.031   9.273   2.552  2.6063  0.5167 -1.4473
    8CHTO   C45 3210   5.029   9.445   2.350  0.1523  0.3706 -0.7090
    8CHTO   H87 3211   5.046   9.341   2.319  2.2757  0.8461 -1.2043
    8CHTO    N8 3212   4.887   9.473   2.343 -0.3861 -0.0216  1.0115
    8CHTO   H75 3213   4.861   9.574   2.371 -0.5147  0.6749 -1.5744
    8CHTO   H76 3214   4.838   9.433   2.256 -1.0065  1.4351  0.6878
    8CHTO   C43 3215   5.107   9.541   2.248 -0.2076  0.1574 -0.1889
    8CHTO   H85 3216   5.076   9.523   2.145 -0.8662  3.0407 -0.5341
    8CHTO   O29 3217   5.247   9.512   2.268 -0.1177 -0.0542  0.4049
    8CHTO   C50 3218   5.304   9.530   2.402 -0.3082  0.4557  0.1890
    8CHTO   H92 3219   5.408   9.494   2.404 -0.9153 -1.5751 -1.8970
    8CHTO   C54 3220   5.317   9.672   2.448  0.4761  0.1744  0.1070
    8CHTO   O36 3221   5.393   9.749   2.351 -0.1696 -0.3786 -0.2993
    8CHTO   H72 3222   5.339   9.754   2.274 -2.6965 -0.0964  1.4307
    8CHTO   O27 3223   5.083   9.680   2.260  0.1602 -0.4837 -0.3301
    8CHTO   C37 3224   5.039   9.784   2.171  0.3325  0.1871  0.1264
    8CHTO   H79 3225   4.991   9.746   2.080  0.7522  1.6480 -0.7247
    8CHTO   C38 3226   4.941   9.880   2.248 -0.0268 -0.3654  0.1801
    8CHTO   H80 3227   4.997   9.916   2.335 -2.1796 -1.2397  1.9650
    8CHTO   O31 3228   4.832   9.800   2.298 -0.0751  0.0455  0.1660
    8CHTO   H68 3229   4.755   9.852   2.314 -0.0699  1.2214 -3.1031
    8CHTO   C39 3230   4.900  10.001   2.152  0.6342  0.2125  0.4890
    8CHTO   H81 3231   4.846   9.954   2.070 -2.6245  0.8551  2.1984
    8CHTO    N7 3232   4.814  10.093   2.224  0.4057 -0.4522  0.2771
    8CHTO   H73 3233   4.760  10.048   2.306 -0.0559  1.5449  1.0908
    8CHTO   H74 3234   4.877  10.171   2.264 -1.0847  1.7408 -1.5145
    8CHTO   C40 3235   5.035  10.071   2.102 -0.5707 -0.0248  0.6039
    8CHTO   H82 3236   5.087  10.113   2.189 -1.6208  0.3776  1.0457
    8CHTO   O26 3237   5.114   9.973   2.039 -0.0347 -0.1317  0.0910
    8CHTO   C41 3238   5.161   9.868   2.131 -0.0045  0.0780  0.4008
    8CHTO   H83 3239   5.202   9.910   2.223  1.1873 -0.4153  0.1030
    8CHTO   C52 3240   5.264   9.793   2.048  0.4707  0.4657  0.4407
    8CHTO   O35 3241   5.365   9.862   2.031 -0.2668 -0.1704  0.2957
    8CHTO   H71 3242   5.419   9.820   1.967 -0.3685  0.9456 -0.5315
    8CHTO   O28 3243   5.025  10.173   2.005 -0.4995 -0.3570  0.2092
    8CHTO   C42 3244   4.999  10.176   1.860  0.2259  0.2869  0.3883
    8CHTO   H84 3245   4.959  10.274   1.835  4.1430  1.5112 -1.5105
    8CHTO   C44 3246   4.884  10.072   1.816 -0.8814  0.5337  0.0676
    8CHTO   H86 3247   4.923   9.976   1.849  0.7944  0.5741 -1.7200
    8CHTO   O32 3248   4.760  10.091   1.886  0.1629 -0.7363  0.1685
    8CHTO   H69 3249   4.780  10.092   1.977 -1.7408  0.9726  0.5967
    8CHTO   C48 3250   4.859  10.072   1.658 -0.0069  0.2009 -0.0312
    8CHTO   H90 3251   4.810  10.165   1.627 -2.2114 -0.2012  2.0682
    8CHTO    N9 3252   4.756   9.974   1.617  0.7874  0.9422 -0.3181
    8CHTO   H77 3253   4.669   9.973   1.682  0.0822 -1.1696 -1.2405
    8CHTO   H78 3254   4.723  10.021   1.526  0.8627  0.4377 -0.6100
    8CHTO   C51 3255   4.997  10.056   1.586 -0.1476  0.8542  0.3299
    8CHTO   H93 3256   5.038   9.956   1.597  1.3080  1.2543 -1.2912
    8CHTO   O30 3257   5.088  10.159   1.623  0.7373 -0.3642 -0.0575
    8CHTO   C46 3258   5.123  10.162   1.778 -0.5077  1.0579  0.2724
    8CHTO   H88 3259   5.170  10.068   1.807  1.5905  1.8859 -0.2707
    8CHTO   C53 3260   5.217  10.270   1.778 -0.5477  0.3908  0.2196
    8CHTO   O72 3261   5.278  10.289   1.905 -0.4758  1.0271 -0.3149
    8CHTO  H199 3262   5.247  10.369   1.942  0.1937  0.7711  0.8259
    8CHTO   O22 3263   4.977  10.081   1.448 -0.2724  0.5953  0.3605
    8CHTO   C31 3264   5.073  10.023   1.347 -0.1485 -0.0513 -0.2344
    8CHTO   H59 3265   5.114  10.110   1.291  0.3919 -0.0934  0.0892
    8CHTO   C29 3266   5.195   9.938   1.396  0.3394 -0.2732  0.2937
    8CHTO   H57 3267   5.164   9.857   1.464 -1.2239  1.2081  1.3962
    8CHTO   O21 3268   5.277  10.023   1.480 -0.3185  0.4872  0.3799
    8CHTO   H37 3269   5.350   9.977   1.519 -0.7591 -0.4573  0.1081
    8CHTO   C27 3270   5.273   9.875   1.277 -0.1916 -0.2752 -0.4032
    8CHTO   H55 3271   5.313   9.957   1.216 -0.5585  1.2505  1.3725
    8CHTO    N5 3272   5.389   9.794   1.314 -0.0375  0.1792 -0.5732
    8CHTO   H43 3273   5.384   9.731   1.402 -0.6367 -1.4917 -1.7645
    8CHTO   H44 3274   5.429   9.738   1.231 -1.8248 -0.0909 -1.2736
    8CHTO   C25 3275   5.171   9.804   1.179  0.4226 -0.4003 -0.3113
    8CHTO   H53 3276   5.121   9.721   1.230  0.8650 -0.0672  0.6850
    8CHTO   O17 3277   5.079   9.901   1.138  0.0034  0.1762  0.3490
    8CHTO   C32 3278   4.993   9.946   1.249 -1.5061  0.7071 -0.1872
    8CHTO   H60 3279   4.941   9.867   1.303  0.9818 -0.4785  0.5264
    8CHTO   C36 3280   4.878  10.023   1.178  0.5212  0.6110 -0.0168
    8CHTO   O25 3281   4.766  10.047   1.261  0.1363 -0.2272 -0.8708
    8CHTO   H40 3282   4.717  10.119   1.228  1.3018 -0.1047 -2.3709
    8CHTO   O15 3283   5.253   9.739   1.048  0.3119  0.5418  0.0432
    8CHTO   C19 3284   5.237   9.712   0.900 -0.1715  0.0927  0.1201
    8CHTO   H47 3285   5.150   9.644   0.908  0.7650 -1.1397  0.0809
    8CHTO   C20 3286   5.222   9.839   0.819  0.6030  0.4268  0.2226
    8CHTO   H48 3287   5.305   9.910   0.835 -1.1824  2.4711  0.7040
    8CHTO   O19 3288   5.095   9.899   0.854  0.1068 -0.3291 -0.2547
    8CHTO   H35 3289   5.098   9.988   0.825 -0.6668  0.0278  0.7551
    8CHTO   C21 3290   5.228   9.814   0.664  0.5782  0.4684 -0.5717
    8CHTO   H49 3291   5.146   9.749   0.633  1.6326 -0.9022 -0.5443
    8CHTO    N4 3292   5.232   9.941   0.579  0.4060 -0.1350  0.3101
    8CHTO   H41 3293   5.326   9.993   0.595  0.0097  0.2256  1.4830
    8CHTO   H42 3294   5.230   9.907   0.476  1.2086 -0.8427  0.5227
    8CHTO   C22 3295   5.352   9.725   0.631  0.3529  0.3026 -0.3464
    8CHTO   H50 3296   5.440   9.786   0.652  0.6047 -0.7249  1.7583
    8CHTO   O14 3297   5.363   9.603   0.707 -0.1477 -0.0171  0.3306
    8CHTO   C23 3298   5.359   9.623   0.850 -1.0174  0.1737 -0.3659
    8CHTO   H51 3299   5.455   9.664   0.884  0.5108 -3.5682 -0.0397
    8CHTO   C34 3300   5.350   9.480   0.916  0.5139 -0.0946  0.8731
    8CHTO   O23 3301   5.473   9.413   0.934  0.0919 -0.1368  0.2042
    8CHTO   H38 3302   5.476   9.349   1.002 -0.1962  1.2194  1.5236
    8CHTO   O16 3303   5.362   9.691   0.492  0.1327  0.2011 -0.2285
    8CHTO   C24 3304   5.508   9.600   0.468  0.3615 -0.3722 -0.2527
    8CHTO   H52 3305   5.549   9.564   0.562 -0.6435  0.0948  0.3800
    8CHTO   C26 3306   5.605   9.697   0.401  0.0763  0.1411  0.5504
    8CHTO   H54 3307   5.556   9.742   0.311  0.6750 -1.0701 -0.3951
    8CHTO   O20 3308   5.638   9.804   0.496 -0.1548  0.6578 -0.3342
    8CHTO   H36 3309   5.588   9.799   0.575  0.0353  0.1666 -0.2462
    8CHTO   C30 3310   5.736   9.633   0.361 -0.8082  0.2240  0.9993
    8CHTO   H58 3311   5.792   9.610   0.452 -0.6658 -1.4793  0.4912
    8CHTO    N6 3312   5.819   9.731   0.282 -0.0941  0.4242 -0.1685
    8CHTO   H45 3313   5.800   9.721   0.176  1.4457 -0.2981 -0.3804
    8CHTO   H46 3314   5.924   9.715   0.302  0.8786  2.7931 -3.0121
    8CHTO   C33 3315   5.719   9.499   0.289  0.2862 -0.3728  0.4663
    8CHTO   H61 3316   5.685   9.511   0.185 -0.2191  0.0592  0.6746
    8CHTO   O18 3317   5.623   9.416   0.348  0.4101  0.2997 -0.2337
    8CHTO   C28 3318   5.493   9.476   0.373  0.1957  0.3792 -0.8885
    8CHTO   H56 3319   5.449   9.504   0.278 -1.4125  0.8618 -0.0077
    8CHTO   C35 3320   5.403   9.369   0.446 -0.1862  0.0307 -0.4621
    8CHTO   O24 3321   5.265   9.393   0.414  0.0202  0.0813 -0.2103
    8CHTO   H39 3322   5.241   9.484   0.418  1.8980  0.5574  1.0676
    8CHTO    O9 3323   5.848   9.436   0.282 -0.1946  0.2952 -0.2139
    8CHTO   C13 3324   5.901   9.358   0.136 -0.1317 -0.8169 -0.6579
    8CHTO   H26 3325   5.849   9.399   0.047  1.2518  2.4981 -0.0181
    8CHTO   C11 3326   5.876   9.205   0.152 -0.0431  0.0250 -0.1080
    8CHTO   H24 3327   5.771   9.193   0.123 -0.8752  2.0610  1.9403
    8CHTO    O8 3328   5.891   9.151   0.286  0.0236 -0.2052 -0.4812
    8CHTO    H3 3329   5.982   9.161   0.305 -0.4658  1.3045  1.2568
    8CHTO    C9 3330   5.959   9.126   0.045  0.2036 -0.0293  0.0381
    8CHTO   H22 3331   5.935   9.167  -0.055  1.2481  0.7858  0.1120
    8CHTO    N2 3332   5.930   8.984   0.041  0.1180 -0.1915 -0.2864
    8CHTO   H10 3333   5.941   8.949   0.143  1.0468  0.6153 -0.0997
    8CHTO   H11 3334   5.830   8.954   0.015 -0.4734  0.6627  0.9327
    8CHTO    C7 3335   6.107   9.161   0.075  0.4855  0.4051  0.1717
    8CHTO   H20 3336   6.174   9.100   0.011 -0.3027 -0.0762 -0.1923
    8CHTO    O4 3337   6.138   9.300   0.055  0.7110 -0.0012 -0.1796
    8CHTO   C14 3338   6.060   9.403   0.122  0.4807 -0.5918 -0.5110
    8CHTO   H27 3339   6.074   9.490   0.054 -0.4858 -1.4239 -1.7924
    8CHTO   C18 3340   6.121   9.444   0.256  0.5698  0.3531 -0.2583
    8CHTO   O13 3341   6.252   9.503   0.233  0.0611 -0.2351  0.3366
    8CHTO    H7 3342   6.290   9.517   0.317  0.0954 -2.9759  0.7930
    8CHTO    O2 3343   6.158   9.110   0.237  0.3608 -0.1229  0.0818
    8CHTO    C1 3344   6.293   9.054   0.245  0.1603 -0.2239  0.1184
    8CHTO   H14 3345   6.315   9.048   0.353 -5.0582 -1.1214  1.2137
    8CHTO    C2 3346   6.416   9.135   0.176  0.1084  0.1416  0.2832
    8CHTO   H15 3347   6.394   9.160   0.071  1.8991  1.7361  0.2748
    8CHTO    O6 3348   6.430   9.255   0.247  0.2432 -0.6962 -0.1951
    8CHTO    H1 3349   6.385   9.324   0.201  0.4494 -1.3936 -1.4776
    8CHTO    C3 3350   6.549   9.042   0.182  0.4600  0.0972  0.1045
    8CHTO   H16 3351   6.579   9.039   0.287  0.3706  2.9688  0.2422
    8CHTO    N1 3352   6.661   9.101   0.098 -0.0718  0.7174 -0.3178
    8CHTO    H8 3353   6.693   9.191   0.149 -2.4798  0.7397  1.2571
    8CHTO    H9 3354   6.638   9.116  -0.006 -0.0894 -0.2451 -0.4563
    8CHTO    C4 3355   6.518   8.891   0.137 -0.0931  0.0589 -0.1262
    8CHTO   H17 3356   6.484   8.894   0.033 -0.5869  0.0059  0.0328
    8CHTO    O1 3357   6.412   8.843   0.218  0.0631  0.8749 -0.3284
    8CHTO    C5 3358   6.289   8.909   0.198 -0.0757 -0.3784  0.4306
    8CHTO   H18 3359   6.270   8.899   0.091 -2.1507 -1.9366  0.9012
    8CHTO   C16 3360   6.181   8.826   0.271 -0.0077 -0.3379  0.0991
    8CHTO   O11 3361   6.136   8.710   0.195  0.5323  0.5517  0.3246
    8CHTO    H5 3362   6.111   8.727   0.106  1.2975 -1.1706 -0.2512
    8CHTO    O3 3363   6.608   8.785   0.172  0.2949 -0.2868 -0.4184
    8CHTO    C6 3364   6.641   8.687   0.069  0.1183  0.5038 -0.3543
    8CHTO   H19 3365   6.570   8.679  -0.014 -1.1762  0.1643  0.7623
    8CHTO    C8 3366   6.790   8.724   0.027 -0.4818  0.6877  0.2618
    8CHTO   H21 3367   6.839   8.759   0.118 -1.8967  0.8692  0.9805
    8CHTO    O7 3368   6.767   8.834  -0.063  0.8139 -0.4423  0.4730
    8CHTO    H2 3369   6.842   8.890  -0.067  2.0230 -1.9309  1.5212
    8CHTO   C12 3370   6.866   8.595  -0.030  0.5385 -0.1465  0.6573
    8CHTO   H25 3371   6.820   8.577  -0.130 -0.2471  1.7381  0.6611
    8CHTO    N3 3372   7.013   8.631  -0.044  0.8262 -0.0757 -0.6179
    8CHTO   H12 3373   7.060   8.628   0.053 -1.6772  1.2165  0.6842
    8CHTO   H13 3374   7.028   8.725  -0.095 -0.3958  0.8728  0.7547
    8CHTO   C15 3375   6.846   8.468   0.064 -0.7450  0.0063 -0.0860
    8CHTO   H28 3376   6.882   8.484   0.165 -2.7155 -0.6899  0.7422
    8CHTO   O10 3377   6.897   8.333   0.009  0.4783 -0.1420  0.9215
    8CHTO    H4 3378   6.857   8.328  -0.075 -0.2011 -2.6865  1.3477
    8CHTO    O5 3379   6.703   8.448   0.074 -0.8532 -0.1109 -0.0558
    8CHTO   C10 3380   6.632   8.555   0.145  0.0521  0.1487 -0.5711
    8CHTO   H23 3381   6.680   8.564   0.242 -0.3101  2.9724 -0.6115
    8CHTO   C17 3382   6.496   8.495   0.168  0.0745 -0.3322  0.7069
    8CHTO   O12 3383   6.493   8.411   0.287  0.4143 -0.6498  0.2553
    8CHTO    H6 3384   6.565   8.441   0.339  0.2585 -2.6202  1.7156
    9CHTO  H203 3385   6.496   2.839   1.018  0.2011 -3.0639  1.6694
    9CHTO   O82 3386   6.506   2.799   0.934  0.7749 -0.0456  0.2083
    9CHTO  C123 3387   6.610   2.867   0.871 -0.1911 -0.4749 -0.4623
    9CHTO  H227 3388   6.645   2.803   0.788  1.8840 -1.0344  0.7841
    9CHTO   O77 3389   6.535   2.973   0.814 -0.0690  0.3256 -0.2053
    9CHTO  C118 3390   6.614   3.053   0.719 -0.8314  0.4658  0.1012
    9CHTO  H222 3391   6.651   2.984   0.642 -1.8717 -1.3551  1.1865
    9CHTO  C125 3392   6.532   3.162   0.657  0.4452 -0.8149  0.1950
    9CHTO   O84 3393   6.419   3.099   0.591 -0.3736  0.0766 -0.3548
    9CHTO  H205 3394   6.455   3.066   0.511 -1.2696 -0.6587 -0.4524
    9CHTO  C114 3395   6.744   3.109   0.785 -0.2260 -0.6946 -0.2528
    9CHTO  H218 3396   6.711   3.188   0.853  0.0736 -2.2242  1.7075
    9CHTO  C116 3397   6.824   3.004   0.865  0.7931 -0.3032 -0.1603
    9CHTO  H220 3398   6.876   2.930   0.800  0.3410  0.2319 -1.1367
    9CHTO   O79 3399   6.928   3.064   0.939  0.7014 -0.4177 -0.3793
    9CHTO  H201 3400   6.996   3.004   0.964  0.0210 -0.8023  0.5570
    9CHTO  C120 3401   6.726   2.921   0.964  0.7688 -0.2455  0.4004
    9CHTO  H224 3402   6.692   2.983   1.049  0.9778 -0.6552  0.7829
    9CHTO   N21 3403   6.802   2.808   1.020 -0.1414 -0.3272 -0.4917
    9CHTO  H211 3404   6.759   2.783   1.116  1.0114 -2.6527 -0.5419
    9CHTO  H212 3405   6.791   2.724   0.953 -0.1696 -0.0454 -0.8404
    9CHTO   O75 3406   6.818   3.158   0.675  0.6826 -0.0961  0.3524
    9CHTO  C112 3407   6.882   3.291   0.694 -0.3719 -0.0756  0.1973
    9CHTO  H216 3408   6.893   3.309   0.802  1.5162  3.5999 -0.5557
    9CHTO   O73 3409   6.803   3.393   0.628 -0.4322  0.1174 -0.3446
    9CHTO  C113 3410   6.861   3.524   0.616 -0.5520 -0.2527 -0.1680
    9CHTO  H217 3411   6.845   3.568   0.717  0.3073 -3.0984  1.2606
    9CHTO  C124 3412   6.773   3.588   0.511 -0.2352 -0.4226 -0.2482
    9CHTO   O83 3413   6.774   3.728   0.494  0.2573  0.0952  0.0110
    9CHTO  H204 3414   6.791   3.780   0.571  0.0344 -0.2106  0.2687
    9CHTO  C109 3415   7.017   3.534   0.576 -0.1009  0.0493 -0.5846
    9CHTO  H213 3416   7.022   3.512   0.468  2.3915 -0.5623 -0.3681
    9CHTO  C110 3417   7.100   3.426   0.658 -0.1843 -0.5964  0.5270
    9CHTO  H214 3418   7.094   3.455   0.763  1.6651  0.5979  0.3176
    9CHTO   O78 3419   7.232   3.439   0.598 -0.1465  0.0731 -0.2528
    9CHTO  H200 3420   7.243   3.386   0.522  0.0262  0.9041 -0.8072
    9CHTO  C111 3421   7.032   3.285   0.639  0.3085  0.3098  0.7391
    9CHTO  H215 3422   7.018   3.265   0.532 -1.4808 -0.8590  1.1798
    9CHTO   N19 3423   7.109   3.176   0.701  0.1425 -0.0960 -0.1951
    9CHTO  H207 3424   7.083   3.169   0.805 -0.7417  2.3355 -0.2347
    9CHTO  H208 3425   7.130   3.095   0.631  1.7162  0.4796 -0.4104
    9CHTO   O74 3426   7.053   3.677   0.604 -0.0869  0.1192 -0.0002
    9CHTO  C115 3427   7.188   3.726   0.535 -0.0081 -0.8722  0.4040
    9CHTO  H219 3428   7.277   3.708   0.596  0.5637  0.6146  0.0332
    9CHTO   O76 3429   7.215   3.645   0.396  0.0352 -0.4242  0.3545
    9CHTO  C122 3430   7.141   3.696   0.287  0.0411 -0.1499  0.2921
    9CHTO  H226 3431   7.035   3.673   0.300 -0.0764  0.7277  0.9578
    9CHTO  C126 3432   7.181   3.626   0.149  0.0613 -0.2907 -0.9394
    9CHTO   O85 3433   7.128   3.492   0.128 -0.4286 -0.4311 -0.4233
    9CHTO  H206 3434   7.151   3.445   0.206  2.8877  1.2431 -0.2934
    9CHTO  C121 3435   7.166   3.851   0.262 -0.2215 -0.5425  0.7875
    9CHTO  H225 3436   7.272   3.881   0.249 -0.5956  0.2584 -0.5476
    9CHTO   O81 3437   7.104   3.911   0.141 -0.1079 -0.4469 -0.7524
    9CHTO  H202 3438   7.170   3.938   0.081  0.8067 -0.4329  0.2482
    9CHTO  C119 3439   7.112   3.930   0.391  0.3345 -0.2621 -0.1094
    9CHTO  H223 3440   7.127   4.035   0.367 -0.4815 -0.7084 -2.6318
    9CHTO  C117 3441   7.185   3.891   0.526  0.2883 -0.0260  0.4443
    9CHTO  H221 3442   7.145   3.921   0.622 -0.2580  0.5229  0.0484
    9CHTO   N20 3443   7.323   3.953   0.533 -0.4900  0.0273  0.3269
    9CHTO  H209 3444   7.323   4.052   0.575 -2.2213 -0.0649  0.6092
    9CHTO  H210 3445   7.393   3.911   0.604 -0.4678  1.0848  0.9470
    9CHTO   O80 3446   6.963   3.926   0.415 -0.2378  0.4138 -0.8909
    9CHTO  C103 3447   6.873   4.053   0.447 -0.0151  0.4682  0.2410
    9CHTO  H190 3448   6.783   4.037   0.506 -0.0941  0.2981  0.0786
    9CHTO  C101 3449   6.936   4.180   0.516  0.2819  0.0336  0.1976
    9CHTO  H188 3450   7.037   4.202   0.482  0.5207 -0.7228  0.3952
    9CHTO   O68 3451   6.944   4.150   0.660 -0.3484 -0.1304 -0.5837
    9CHTO  H168 3452   6.982   4.206   0.725 -0.5295 -1.0638  0.3160
    9CHTO   C99 3453   6.837   4.303   0.504  0.1655  0.0856  0.2875
    9CHTO  H186 3454   6.756   4.299   0.580 -1.0982  0.4463 -1.0210
    9CHTO   N17 3455   6.904   4.438   0.540  0.0999 -0.1570 -0.1329
    9CHTO  H174 3456   6.981   4.465   0.468  0.0667 -1.2928 -0.5945
    9CHTO  H175 3457   6.819   4.504   0.546 -0.6540 -1.0536 -0.8406
    9CHTO   C97 3458   6.764   4.312   0.363 -0.1575 -0.4400  0.3447
    9CHTO  H184 3459   6.839   4.348   0.291  1.7594 -0.0457  2.4749
    9CHTO   O64 3460   6.712   4.182   0.326  0.1127 -0.1622 -0.2378
    9CHTO  C104 3461   6.815   4.085   0.304  0.4814 -0.0249  0.2977
    9CHTO  H191 3462   6.887   4.121   0.230  0.7938  2.5957  1.8322
    9CHTO  C108 3463   6.735   3.963   0.241 -0.1955 -0.2298  0.2099
    9CHTO   O71 3464   6.815   3.893   0.145 -0.5655  0.3018  0.2739
    9CHTO  H171 3465   6.801   3.803   0.167 -0.2765  0.2523  0.2610
    9CHTO   O62 3466   6.653   4.403   0.381 -0.0859  0.2879  1.0182
    9CHTO   C91 3467   6.596   4.462   0.261  0.0663  0.5200  0.0340
    9CHTO  H178 3468   6.662   4.453   0.175  0.6216 -0.9040  0.5913
    9CHTO   C92 3469   6.588   4.617   0.289  0.0791  0.2935  0.1207
    9CHTO  H179 3470   6.686   4.658   0.318 -0.0280  1.2096 -0.7924
    9CHTO   O66 3471   6.564   4.674   0.158 -0.2220 -0.3216 -0.0480
    9CHTO  H166 3472   6.550   4.765   0.176  2.1799 -0.2763  1.7391
    9CHTO   C93 3473   6.472   4.652   0.385 -0.7987  0.1550  0.2765
    9CHTO  H180 3474   6.469   4.762   0.387  1.1696  0.2143  1.3124
    9CHTO   N16 3475   6.488   4.631   0.527 -0.2396  0.2883  0.1009
    9CHTO  H172 3476   6.579   4.580   0.556  1.1209  1.7494 -1.4472
    9CHTO  H173 3477   6.459   4.715   0.588  2.1396  0.9895  0.3166
    9CHTO   C94 3478   6.336   4.595   0.333 -0.0272 -0.1010  0.5455
    9CHTO  H181 3479   6.294   4.522   0.403  0.3012 -0.2116  0.6270
    9CHTO   O61 3480   6.352   4.514   0.214 -0.4483  0.1972  0.0993
    9CHTO   C95 3481   6.451   4.407   0.223  0.8017 -0.1557 -0.5221
    9CHTO  H182 3482   6.418   4.337   0.300 -1.5916  2.3283  0.7901
    9CHTO  C106 3483   6.448   4.329   0.087  0.4342 -0.5876  0.0239
    9CHTO   O69 3484   6.519   4.201   0.091 -0.4871  0.0251  0.4042
    9CHTO  H169 3485   6.479   4.142   0.151  2.5353 -1.8766  0.6458
    9CHTO   O63 3486   6.242   4.718   0.291  0.0503 -0.0946 -0.1502
    9CHTO   C96 3487   6.183   4.802   0.426 -0.3988 -0.0390  0.5283
    9CHTO  H183 3488   6.245   4.778   0.512 -1.6894 -0.8896  1.2431
    9CHTO   C98 3489   6.041   4.765   0.467  0.3582  0.1938 -0.8134
    9CHTO  H185 3490   5.982   4.758   0.374 -1.8941  2.4293  0.3972
    9CHTO   O67 3491   6.058   4.634   0.513 -0.0826  0.4930  0.3222
    9CHTO  H167 3492   5.993   4.574   0.481  0.2103  1.8696 -2.9420
    9CHTO  C102 3493   5.981   4.855   0.586 -0.1227 -0.1016  0.8724
    9CHTO  H189 3494   6.041   4.828   0.675  1.5117 -1.1803 -0.5374
    9CHTO   N18 3495   5.838   4.841   0.627 -0.9142 -0.1542  0.1652
    9CHTO  H176 3496   5.815   4.920   0.697 -0.4140  0.1637 -0.0272
    9CHTO  H177 3497   5.805   4.741   0.651  0.4107 -0.7906 -0.5626
    9CHTO  C105 3498   6.024   5.005   0.561  0.1050 -0.5901 -0.4385
    9CHTO  H192 3499   5.957   5.050   0.489 -1.7431  0.5186  1.8960
    9CHTO   O65 3500   6.167   5.018   0.525  0.4654  0.4419  0.0384
    9CHTO  C100 3501   6.191   4.952   0.396 -0.3711  0.0096 -0.3122
    9CHTO  H187 3502   6.122   4.972   0.312  0.0289 -1.3808 -0.9853
    9CHTO  C107 3503   6.330   4.999   0.352 -0.3225 -0.1869  0.1866
    9CHTO   O70 3504   6.367   4.941   0.227 -0.0073 -0.1011  0.2537
    9CHTO  H170 3505   6.308   4.974   0.162 -0.2043  1.3852  1.1558
    9CHTO   O57 3506   6.009   5.069   0.715 -0.2423  0.2490 -0.2269
    9CHTO   C85 3507   6.030   5.207   0.758 -0.3642 -0.1565  0.3858
    9CHTO  H157 3508   5.993   5.272   0.676 -0.1575 -1.3633 -0.6755
    9CHTO   C83 3509   6.185   5.223   0.771 -0.1785  0.0880 -0.0174
    9CHTO  H155 3510   6.230   5.203   0.673 -0.6167  1.0125 -0.4201
    9CHTO   O56 3511   6.239   5.116   0.855  0.4062 -0.1217 -0.3112
    9CHTO  H135 3512   6.330   5.108   0.833 -0.0042 -1.5782 -1.5154
    9CHTO   C81 3513   6.213   5.373   0.814  0.4636  0.1792  0.6511
    9CHTO  H153 3514   6.164   5.437   0.741  0.6790 -3.5431 -2.9950
    9CHTO   N14 3515   6.359   5.403   0.811  0.0530  0.1122  0.0482
    9CHTO  H141 3516   6.390   5.466   0.892 -1.5561  1.6931 -0.5091
    9CHTO  H142 3517   6.379   5.450   0.717 -0.4604  2.2074  0.9541
    9CHTO   C79 3518   6.147   5.410   0.949  0.6898  0.0832 -0.9247
    9CHTO  H151 3519   6.155   5.518   0.962  2.7357 -0.2706  1.1873
    9CHTO   O52 3520   6.001   5.377   0.958  0.1887  0.2711 -0.3278
    9CHTO   C86 3521   5.963   5.247   0.903 -0.6123  0.9671  0.4310
    9CHTO  H158 3522   6.003   5.176   0.979 -0.6087 -0.3839 -0.7946
    9CHTO   C90 3523   5.812   5.232   0.901  0.0808  0.1542  0.3702
    9CHTO   O60 3524   5.760   5.240   1.030  0.0510 -0.4951 -0.1894
    9CHTO  H138 3525   5.669   5.221   1.022  0.4101 -2.0891 -0.8356
    9CHTO   O50 3526   6.204   5.344   1.060 -0.0557 -0.2621  0.7104
    9CHTO   C73 3527   6.179   5.338   1.198  0.1820 -0.0159  0.5898
    9CHTO  H145 3528   6.071   5.346   1.215  0.1505  0.1134  0.3335
    9CHTO   C74 3529   6.237   5.463   1.254  0.8046  0.6040  0.1143
    9CHTO  H146 3530   6.189   5.535   1.186 -1.4826  1.8152  2.9252
    9CHTO   O54 3531   6.189   5.483   1.391  0.4734  0.0641 -0.3899
    9CHTO  H133 3532   6.190   5.576   1.396 -0.5472  0.1245 -1.2680
    9CHTO   C75 3533   6.391   5.468   1.245 -0.8832 -0.1502 -0.2227
    9CHTO  H147 3534   6.422   5.459   1.140 -1.7345 -0.4704 -0.4497
    9CHTO   N13 3535   6.447   5.596   1.295  0.2622  0.3070 -0.4916
    9CHTO  H139 3536   6.539   5.618   1.245  0.1031 -1.4172 -1.5747
    9CHTO  H140 3537   6.371   5.673   1.286  0.1478  0.3227  0.5347
    9CHTO   C76 3538   6.443   5.334   1.321 -0.2622  0.1269 -0.2689
    9CHTO  H148 3539   6.411   5.340   1.425  1.4239  0.7523  0.2145
    9CHTO   O49 3540   6.376   5.219   1.273 -0.3734 -0.3563  0.6314
    9CHTO   C77 3541   6.231   5.210   1.276 -0.3051 -0.0882 -0.1500
    9CHTO  H149 3542   6.188   5.214   1.376  1.3007  1.2146  0.5090
    9CHTO   C88 3543   6.187   5.072   1.215 -0.0380  0.0182  0.5109
    9CHTO   O58 3544   6.038   5.052   1.212  0.2670 -0.7551  0.2209
    9CHTO  H136 3545   5.998   5.134   1.234  1.2167 -0.8348  2.3362
    9CHTO   O51 3546   6.597   5.300   1.299  0.2629 -0.1289 -0.4515
    9CHTO   C78 3547   6.703   5.323   1.430  0.6592 -0.1926 -0.2625
    9CHTO  H150 3548   6.651   5.380   1.509  2.0190  2.0253 -0.9269
    9CHTO   C80 3549   6.831   5.400   1.394 -0.3046  0.3000 -0.3496
    9CHTO  H152 3550   6.884   5.351   1.309 -0.4150 -0.6761  0.1304
    9CHTO   O55 3551   6.778   5.524   1.331 -0.3281 -0.1791  0.0273
    9CHTO  H134 3552   6.773   5.507   1.239 -1.4790 -1.5929  0.3188
    9CHTO   C84 3553   6.927   5.415   1.523 -0.6846 -0.2708  0.4810
    9CHTO  H156 3554   6.871   5.476   1.595 -0.5096 -0.1985  0.5578
    9CHTO   N15 3555   7.062   5.486   1.484 -0.5903 -0.2888 -0.6462
    9CHTO  H143 3556   7.050   5.592   1.470 -2.2144 -0.6200 -1.8879
    9CHTO  H144 3557   7.127   5.473   1.568 -0.4830 -2.7190 -1.0696
    9CHTO   C87 3558   6.945   5.272   1.584 -0.2613  0.0482 -0.5794
    9CHTO  H159 3559   7.016   5.212   1.527 -1.3450 -0.7677 -1.1066
    9CHTO   O53 3560   6.815   5.198   1.597 -0.2695 -0.3466 -0.0726
    9CHTO   C82 3561   6.742   5.185   1.478  0.8400 -0.4478  0.3910
    9CHTO  H154 3562   6.796   5.133   1.399 -1.2672 -0.5304 -1.0282
    9CHTO   C89 3563   6.619   5.108   1.514 -0.0102  0.1325 -0.4147
    9CHTO   O59 3564   6.655   4.978   1.568  0.0422  0.0253 -0.2377
    9CHTO  H137 3565   6.686   4.928   1.495 -1.2010 -1.2426  0.0793
    9CHTO   O45 3566   7.010   5.288   1.747  0.4755 -0.7606  0.4856
    9CHTO   C67 3567   7.080   5.164   1.773 -0.1564 -0.1086  0.4010
    9CHTO  H124 3568   7.034   5.084   1.714  0.2278 -0.5257  0.6670
    9CHTO   C65 3569   7.233   5.177   1.730  0.0018 -0.1073 -0.1488
    9CHTO  H122 3570   7.256   5.283   1.727  0.7812 -0.2590  0.4270
    9CHTO   O44 3571   7.239   5.114   1.601  0.0960  0.0092 -0.0257
    9CHTO  H102 3572   7.190   5.164   1.538  1.4238  0.7406 -0.5225
    9CHTO   C63 3573   7.319   5.120   1.843  0.4536  0.0947 -1.2466
    9CHTO  H120 3574   7.306   5.188   1.928 -0.3744 -0.8202 -0.6312
    9CHTO   N11 3575   7.467   5.140   1.823  0.3056 -0.6155 -0.1808
    9CHTO  H108 3576   7.524   5.112   1.910 -0.0407  1.0539  0.6039
    9CHTO  H109 3577   7.502   5.089   1.735 -0.0485  0.7592 -1.1367
    9CHTO   C61 3578   7.253   4.984   1.895  0.3079  0.1349 -0.0204
    9CHTO  H118 3579   7.319   4.963   1.981 -1.3466  0.3036  1.3133
    9CHTO   O40 3580   7.123   4.997   1.949 -0.0921  0.0843 -0.2215
    9CHTO   C68 3581   7.049   5.117   1.921 -0.3597  0.0956  0.3099
    9CHTO  H125 3582   7.088   5.194   1.991 -0.4551  0.6415 -0.2315
    9CHTO   C72 3583   6.895   5.103   1.947  0.2869 -0.3454  0.4633
    9CHTO   O48 3584   6.869   5.082   2.087 -0.4815 -0.1920 -0.1742
    9CHTO  H105 3585   6.816   5.150   2.124 -0.7781 -1.2181  1.3107
    9CHTO   O38 3586   7.263   4.887   1.790  0.5014 -0.8248 -0.1893
    9CHTO   C55 3587   7.180   4.768   1.786 -0.6708 -0.3853  0.4479
    9CHTO  H112 3588   7.079   4.810   1.798  0.1295  1.2907  1.5371
    9CHTO   C56 3589   7.218   4.651   1.891  0.0096  0.1152 -0.1600
    9CHTO  H113 3590   7.325   4.628   1.875  0.1592 -0.0302  1.0004
    9CHTO   O42 3591   7.196   4.698   2.026 -0.5415  0.3850  0.0460
    9CHTO  H100 3592   7.251   4.774   2.038  1.6093 -0.9388 -1.0040
    9CHTO   C57 3593   7.126   4.519   1.870  0.3226  0.3752 -0.1713
    9CHTO  H114 3594   7.018   4.526   1.884  0.5405 -0.4016  2.3086
    9CHTO   N10 3595   7.155   4.410   1.960 -0.1844 -0.1731 -0.2413
    9CHTO  H106 3596   7.252   4.424   2.006 -0.2563  0.1045 -0.1750
    9CHTO  H107 3597   7.079   4.404   2.036  2.5633 -0.1461  2.6056
    9CHTO   C58 3598   7.151   4.486   1.718  0.2687 -0.1602 -0.5679
    9CHTO  H115 3599   7.260   4.472   1.705  0.4115 -0.1049  0.5034
    9CHTO   O37 3600   7.102   4.595   1.637  0.1069  0.0801  0.6400
    9CHTO   C59 3601   7.182   4.710   1.646 -0.2003  0.3678  0.0400
    9CHTO  H116 3602   7.281   4.678   1.616  0.5595  1.3715  1.4187
    9CHTO   C70 3603   7.123   4.804   1.538 -0.1774  0.8587  0.3298
    9CHTO   O46 3604   7.005   4.875   1.575 -0.1887  0.6831 -0.1386
    9CHTO  H103 3605   6.979   4.847   1.661 -1.1396 -0.5615 -0.8163
    9CHTO   O39 3606   7.071   4.355   1.668  0.2172 -0.1688 -0.7009
    9CHTO   C60 3607   7.107   4.307   1.541  0.1447 -0.2129  0.2325
    9CHTO  H117 3608   7.131   4.384   1.467  0.3111  0.8059  1.3392
    9CHTO   C62 3609   7.227   4.215   1.551 -0.9423 -0.1303  0.3156
    9CHTO  H119 3610   7.308   4.277   1.595 -0.0462 -0.0997 -1.3338
    9CHTO   O43 3611   7.200   4.107   1.635  0.0333  0.5273  0.0808
    9CHTO  H101 3612   7.240   4.117   1.719 -1.0324 -2.2066  0.9807
    9CHTO   C66 3613   7.270   4.173   1.400  0.2113 -0.0770 -0.2440
    9CHTO  H123 3614   7.277   4.266   1.342  0.3920 -0.1618 -0.3568
    9CHTO   N12 3615   7.396   4.104   1.396 -0.4556 -0.1955 -0.2845
    9CHTO  H110 3616   7.462   4.153   1.466 -1.1665  0.1623  0.1392
    9CHTO  H111 3617   7.391   3.998   1.415  2.1528 -0.0787  1.3407
    9CHTO   C69 3618   7.149   4.094   1.337 -0.0044  0.1339 -0.1220
    9CHTO  H126 3619   7.123   4.005   1.398  1.2757 -0.8123 -0.9541
    9CHTO   O41 3620   7.018   4.182   1.335  0.0070  0.2942 -0.1615
    9CHTO   C64 3621   6.986   4.224   1.487  0.0013  0.6235  0.0945
    9CHTO  H121 3622   6.984   4.130   1.545 -1.3545  1.2070  1.0415
    9CHTO   C71 3623   6.846   4.295   1.496  0.3240  1.2015 -0.1794
    9CHTO   O47 3624   6.735   4.200   1.478  0.3148 -0.0730  0.6834
    9CHTO  H104 3625   6.731   4.174   1.387  0.5019  0.6151  0.4783
    9CHTO   O34 3626   7.189   4.039   1.182  0.3040  0.3710 -0.7470
    9CHTO   C49 3627   7.211   3.941   1.071 -0.4046 -0.2788 -0.1663
    9CHTO   H91 3628   7.310   3.961   1.030 -0.1219  1.4863  1.3252
    9CHTO   C47 3629   7.105   3.961   0.960 -0.8541  0.4170 -0.0829
    9CHTO   H89 3630   7.155   3.908   0.876 -1.3897  0.4181 -0.4055
    9CHTO   O33 3631   7.094   4.097   0.932 -0.0935 -0.0152  0.8190
    9CHTO   H70 3632   7.055   4.108   0.847  0.8849 -0.3579  0.3153
    9CHTO   C45 3633   6.959   3.914   1.003 -0.0293  0.3941 -0.3751
    9CHTO   H87 3634   6.900   4.003   1.032 -0.0066 -0.2780  1.8284
    9CHTO    N8 3635   6.892   3.848   0.891  0.4471 -0.0294  0.2988
    9CHTO   H75 3636   6.787   3.831   0.914 -0.6039  1.1634 -3.2425
    9CHTO   H76 3637   6.901   3.922   0.813 -1.4094  1.3882  1.3695
    9CHTO   C43 3638   6.961   3.836   1.136 -0.5277 -0.2136  0.0442
    9CHTO   H85 3639   6.973   3.910   1.215 -0.9165 -1.9127  1.7295
    9CHTO   O29 3640   7.066   3.737   1.145 -0.2860 -0.0767 -0.3152
    9CHTO   C50 3641   7.203   3.793   1.121 -0.3755 -0.0094  1.0280
    9CHTO   H92 3642   7.250   3.785   1.220  1.9306  0.0736 -0.0207
    9CHTO   C54 3643   7.294   3.694   1.053  0.1775  0.2766 -0.6136
    9CHTO   O36 3644   7.249   3.656   0.925 -0.1566  0.2683  0.4832
    9CHTO   H72 3645   7.304   3.690   0.858 -1.4726 -0.0939 -0.8056
    9CHTO   O27 3646   6.831   3.784   1.176 -0.2660 -0.1033  0.3130
    9CHTO   C37 3647   6.766   3.764   1.300 -0.5816  0.0073 -0.3719
    9CHTO   H79 3648   6.693   3.683   1.283  1.1417 -1.6420  0.0278
    9CHTO   C38 3649   6.863   3.711   1.411 -0.0865  0.1576 -0.1302
    9CHTO   H80 3650   6.944   3.783   1.428  1.0476 -0.8085 -1.3405
    9CHTO   O31 3651   6.914   3.587   1.360 -0.2293 -0.0390 -0.5439
    9CHTO   H68 3652   7.007   3.594   1.352 -0.0747 -1.3764 -0.0318
    9CHTO   C39 3653   6.800   3.685   1.553 -0.0817  0.2139  0.8252
    9CHTO   H81 3654   6.728   3.605   1.541  0.4840 -0.1572 -0.1380
    9CHTO    N7 3655   6.903   3.642   1.647  0.1829 -0.3141  0.2793
    9CHTO   H73 3656   6.853   3.641   1.742 -1.8263 -3.3259 -0.7127
    9CHTO   H74 3657   6.979   3.719   1.647 -1.9309  1.8284 -0.7987
    9CHTO   C40 3658   6.707   3.806   1.599 -0.2614 -0.8122  0.7345
    9CHTO   H82 3659   6.776   3.887   1.622  0.3327 -1.2800  0.6000
    9CHTO   O26 3660   6.621   3.840   1.489 -0.1125  0.0035  0.2591
    9CHTO   C41 3661   6.690   3.884   1.366  0.6694  0.0065 -0.1014
    9CHTO   H83 3662   6.770   3.954   1.394  0.1333 -0.0787  1.6962
    9CHTO   C52 3663   6.593   3.947   1.258 -0.4598 -0.7601  0.9609
    9CHTO   O35 3664   6.524   4.067   1.300  0.0599 -0.2289  0.4581
    9CHTO   H71 3665   6.452   4.079   1.241 -1.0419 -0.6228  1.6999
    9CHTO   O28 3666   6.626   3.791   1.714  0.6424 -0.1555 -0.1067
    9CHTO   C42 3667   6.529   3.893   1.752  0.4808  0.0313  0.3334
    9CHTO   H84 3668   6.514   3.866   1.857 -0.2762 -0.5262  0.0898
    9CHTO   C44 3669   6.389   3.884   1.684 -0.7590  0.4735 -0.8239
    9CHTO   H86 3670   6.401   3.862   1.578  3.7141 -0.1854 -0.2845
    9CHTO   O32 3671   6.327   3.764   1.734 -0.4362 -0.0231  0.5245
    9CHTO   H69 3672   6.298   3.772   1.823 -0.9377  1.0049  0.2701
    9CHTO   C48 3673   6.293   4.007   1.696  0.1796 -0.0825 -0.5559
    9CHTO   H90 3674   6.269   4.012   1.803 -0.0027  0.1106 -0.6058
    9CHTO    N9 3675   6.167   4.000   1.616  0.0795  0.0671  0.3648
    9CHTO   H77 3676   6.141   4.098   1.578  0.8274 -0.5537 -1.7917
    9CHTO   H78 3677   6.174   3.925   1.539  0.1594 -0.5145  0.9291
    9CHTO   C51 3678   6.371   4.134   1.678  0.4933 -0.1965  0.6712
    9CHTO   H93 3679   6.410   4.139   1.576 -1.9730  0.7433 -0.2546
    9CHTO   O30 3680   6.475   4.134   1.777  0.6362  0.2763  0.0208
    9CHTO   C46 3681   6.578   4.041   1.747 -0.5945  0.0039 -0.6908
    9CHTO   H88 3682   6.606   4.072   1.646 -3.2486  1.3475 -1.0825
    9CHTO   C53 3683   6.693   4.060   1.842 -0.4021 -0.2455  0.5350
    9CHTO   O72 3684   6.744   4.194   1.842 -0.2322  0.3682  0.2022
    9CHTO  H199 3685   6.678   4.253   1.872 -1.5060 -1.8764  1.9386
    9CHTO   O22 3686   6.303   4.259   1.698  0.3523  0.8060  0.0997
    9CHTO   C31 3687   6.339   4.384   1.629  0.1784  0.4291  0.6372
    9CHTO   H59 3688   6.269   4.462   1.667 -0.3299 -0.5292  1.7016
    9CHTO   C29 3689   6.480   4.431   1.670 -0.7668 -0.0162  0.1026
    9CHTO   H57 3690   6.539   4.347   1.631 -0.8226  0.8949 -2.0158
    9CHTO   O21 3691   6.490   4.442   1.809  0.0512  0.0562 -0.1228
    9CHTO   H37 3692   6.578   4.434   1.839 -0.1633 -0.0344  0.4934
    9CHTO   C27 3693   6.523   4.558   1.591  0.5459 -0.0133 -0.3187
    9CHTO   H55 3694   6.456   4.642   1.614  1.4767  1.1066 -1.6316
    9CHTO    N5 3695   6.657   4.606   1.624  0.2129 -0.1774  0.0111
    9CHTO   H43 3696   6.672   4.708   1.593 -0.8022  0.0206  0.1435
    9CHTO   H44 3697   6.732   4.542   1.580 -1.2179 -0.9132 -1.4051
    9CHTO   C25 3698   6.514   4.530   1.441 -0.3822  0.2673  0.4532
    9CHTO   H53 3699   6.582   4.444   1.430 -0.3082  0.3027  0.6319
    9CHTO   O17 3700   6.378   4.499   1.409 -0.2045 -0.7895  0.0119
    9CHTO   C32 3701   6.323   4.378   1.470 -0.8234 -0.0391 -0.0531
    9CHTO   H60 3702   6.379   4.294   1.430  0.8331  1.9050 -1.9307
    9CHTO   C36 3703   6.171   4.374   1.433 -0.0296  0.3114 -0.1307
    9CHTO   O25 3704   6.143   4.399   1.296 -0.0316 -0.0478  0.0713
    9CHTO   H40 3705   6.153   4.492   1.290 -2.6923  0.3214  0.7147
    9CHTO   O15 3706   6.556   4.636   1.336  0.2701  0.3700 -0.2495
    9CHTO   C19 3707   6.585   4.621   1.190 -0.0367 -0.2996 -0.7018
    9CHTO   H47 3708   6.627   4.720   1.166 -1.8339  0.8001  0.5771
    9CHTO   C20 3709   6.689   4.501   1.162 -0.6452 -0.1760 -0.1471
    9CHTO   H48 3710   6.661   4.410   1.217 -3.5218  1.1606  0.6866
    9CHTO   O19 3711   6.816   4.549   1.215 -0.6623 -0.2035 -0.0588
    9CHTO   H35 3712   6.852   4.616   1.159 -0.6389 -0.0209  0.1736
    9CHTO   C21 3713   6.703   4.457   1.004  0.6009 -0.7380  0.2788
    9CHTO   H49 3714   6.757   4.537   0.953 -0.9088 -0.1533 -0.4162
    9CHTO    N4 3715   6.773   4.333   0.987 -0.1251  0.5190 -0.1511
    9CHTO   H41 3716   6.715   4.243   1.003 -0.3713  0.5715 -0.7231
    9CHTO   H42 3717   6.807   4.328   0.885  0.1005  0.9392 -0.0963
    9CHTO   C22 3718   6.554   4.450   0.951 -0.2443  0.3251 -0.1545
    9CHTO   H50 3719   6.507   4.372   1.011  2.9258 -2.6395 -1.3725
    9CHTO   O14 3720   6.498   4.578   0.967  0.5592 -0.2722 -0.0516
    9CHTO   C23 3721   6.455   4.603   1.104 -0.2202 -0.5502  0.1192
    9CHTO   H51 3722   6.399   4.514   1.137  0.4643 -0.3770  1.7867
    9CHTO   C34 3723   6.367   4.728   1.119  0.1980 -0.5626 -0.0780
    9CHTO   O23 3724   6.407   4.845   1.042  0.2373 -0.0825  0.4129
    9CHTO   H38 3725   6.341   4.910   1.056 -1.2467 -1.7332  1.3808
    9CHTO   O16 3726   6.548   4.416   0.810  0.1881 -0.4779 -0.2104
    9CHTO   C24 3727   6.433   4.308   0.758  0.7795  0.0703  0.3055
    9CHTO   H52 3728   6.405   4.240   0.838 -0.6357 -0.5565 -0.7015
    9CHTO   C26 3729   6.491   4.219   0.646  0.6114  0.7948  0.0053
    9CHTO   H54 3730   6.516   4.285   0.560  1.1900  0.0935 -0.3702
    9CHTO   O20 3731   6.606   4.156   0.711 -0.0087  0.1534 -0.7875
    9CHTO   H36 3732   6.655   4.107   0.648 -0.0705 -0.4466 -0.3729
    9CHTO   C30 3733   6.384   4.118   0.596 -0.1921  0.2115 -0.0769
    9CHTO   H58 3734   6.344   4.056   0.677  1.5747 -0.2293  0.4844
    9CHTO    N6 3735   6.438   4.031   0.484 -0.4201  0.2550 -0.0604
    9CHTO   H45 3736   6.491   4.086   0.407 -4.1561  1.2140 -2.0416
    9CHTO   H46 3737   6.504   3.958   0.531  0.1041  0.5119 -0.3932
    9CHTO   C33 3738   6.261   4.201   0.545  0.3793  0.4414 -0.0569
    9CHTO   H61 3739   6.292   4.269   0.464  0.1823  2.5577  1.5915
    9CHTO   O18 3740   6.215   4.270   0.660  0.1572 -1.1033  0.2728
    9CHTO   C28 3741   6.299   4.375   0.713  0.1393  0.3057  0.2654
    9CHTO   H56 3742   6.318   4.455   0.641 -1.8678  0.1876 -0.4071
    9CHTO   C35 3743   6.221   4.425   0.832  0.0303 -0.1779  0.0767
    9CHTO   O24 3744   6.112   4.503   0.788  0.4589 -0.5811  0.2551
    9CHTO   H39 3745   6.075   4.553   0.858 -0.0512 -0.4188 -0.1225
    9CHTO    O9 3746   6.156   4.115   0.490 -0.5082 -0.5689  0.5182
    9CHTO   C13 3747   6.101   4.143   0.365 -0.3492  0.3990  0.7928
    9CHTO   H26 3748   6.181   4.149   0.288 -2.0929 -0.1436 -1.0878
    9CHTO   C11 3749   6.016   4.278   0.372  0.7424  0.1869 -0.1735
    9CHTO   H24 3750   6.086   4.351   0.414 -0.0857  1.1700 -0.4939
    9CHTO    O8 3751   5.905   4.261   0.459  0.0575 -0.4024 -0.1061
    9CHTO    H3 3752   5.827   4.283   0.412  0.3270 -1.8052 -1.2431
    9CHTO    C9 3753   5.982   4.315   0.227  0.1383 -0.1853 -0.1886
    9CHTO   H22 3754   6.079   4.320   0.177 -0.8163 -1.5831 -2.2450
    9CHTO    N2 3755   5.932   4.453   0.211 -0.4984  0.4407  0.2337
    9CHTO   H10 3756   5.906   4.465   0.107 -4.1749 -0.9569  0.9172
    9CHTO   H11 3757   6.005   4.528   0.239  1.6459 -1.8121  0.8914
    9CHTO    C7 3758   5.885   4.208   0.168 -0.3847 -0.5946  0.7215
    9CHTO   H20 3759   5.876   4.227   0.059 -1.2849 -0.4102  0.8277
    9CHTO    O4 3760   5.927   4.070   0.184 -0.5077  0.6181 -0.3629
    9CHTO   C14 3761   6.004   4.031   0.300  0.2530 -0.2004  0.2994
    9CHTO   H27 3762   6.073   3.952   0.266 -1.0399 -1.6410  0.9335
    9CHTO   C18 3763   5.903   3.963   0.406  0.1306 -0.6263  0.2864
    9CHTO   O13 3764   5.834   3.852   0.337  0.3351 -0.0459 -0.1596
    9CHTO    H7 3765   5.892   3.792   0.296 -1.0635 -0.3982 -1.6935
    9CHTO    O2 3766   5.731   4.221   0.225 -0.0259  0.3414 -0.0122
    9CHTO    C1 3767   5.624   4.124   0.180 -0.1044 -0.0590  0.3405
    9CHTO   H14 3768   5.658   4.022   0.208 -0.3382 -0.5016 -0.9479
    9CHTO    C2 3769   5.605   4.131   0.022  0.2513  0.3666  0.2760
    9CHTO   H15 3770   5.586   4.236  -0.004 -2.5084  0.0211  0.7042
    9CHTO    O6 3771   5.725   4.082  -0.045 -0.2039  0.5319  0.1360
    9CHTO    H1 3772   5.725   4.103  -0.137  0.2902 -0.4085 -0.0937
    9CHTO    C3 3773   5.474   4.046  -0.014  0.0949 -0.2153 -0.6448
    9CHTO   H16 3774   5.499   3.942   0.009  1.3441 -0.0181 -1.0507
    9CHTO    N1 3775   5.439   4.055  -0.162  0.0720 -0.2382  0.0342
    9CHTO    H8 3776   5.334   4.078  -0.175  0.6966  2.6266 -0.3110
    9CHTO    H9 3777   5.495   4.121  -0.227 -0.7036  1.3991  1.0016
    9CHTO    C4 3778   5.358   4.085   0.083 -0.1961  0.1248 -0.8917
    9CHTO   H17 3779   5.327   4.188   0.065  1.1884  0.8719  0.8179
    9CHTO    O1 3780   5.382   4.072   0.221  0.1210 -0.1982 -0.0467
    9CHTO    C5 3781   5.493   4.148   0.260  0.4649 -0.3092  0.6060
    9CHTO   H18 3782   5.482   4.256   0.249 -0.9628 -0.5701 -0.7472
    9CHTO   C16 3783   5.520   4.115   0.410  0.2577  0.0768 -0.0184
    9CHTO   O11 3784   5.439   4.200   0.488  0.1162  0.0047  0.2421
    9CHTO    H5 3785   5.346   4.189   0.478 -0.1867  0.8059  1.9570
    9CHTO    O3 3786   5.238   4.015   0.051 -0.4583  0.5843  0.2825
    9CHTO    C6 3787   5.109   4.057   0.113  0.0208  0.4836 -0.3193
    9CHTO   H19 3788   5.124   4.097   0.214 -1.1871 -2.1544  0.9475
    9CHTO    C8 3789   5.013   4.147   0.030 -0.0072 -0.4100  0.3047
    9CHTO   H21 3790   5.007   4.103  -0.070  1.2070  0.0332  0.0277
    9CHTO    O7 3791   5.074   4.272   0.007  0.2254 -0.3945 -0.3389
    9CHTO    H2 3792   5.041   4.317  -0.069  0.7988 -0.9390 -0.9125
    9CHTO   C12 3793   4.868   4.160   0.096 -0.2477  0.3324  0.2901
    9CHTO   H25 3794   4.883   4.227   0.184  0.6751  0.3490  0.1274
    9CHTO    N3 3795   4.772   4.233   0.009  0.0665  0.0113  0.0056
    9CHTO   H12 3796   4.683   4.175  -0.012 -0.4252  0.8884 -0.3459
    9CHTO   H13 3797   4.751   4.325   0.061 -0.7806  0.8494 -1.7741
    9CHTO   C15 3798   4.817   4.016   0.141 -0.0186  0.2297 -0.4801
    9CHTO   H28 3799   4.780   3.950   0.063 -1.1022  0.2594 -0.0053
    9CHTO   O10 3800   4.704   4.017   0.258 -0.5213  0.6001 -0.0814
    9CHTO    H4 3801   4.631   4.071   0.238  1.0422  2.7376 -0.1687
    9CHTO    O5 3802   4.924   3.946   0.209  0.8689  0.1058 -0.2705
    9CHTO   C10 3803   5.042   3.927   0.131  0.3206  0.1036 -0.7204
    9CHTO   H23 3804   5.024   3.881   0.034  2.6978 -1.6164 -0.3890
    9CHTO   C17 3805   5.125   3.819   0.208  0.3557 -0.0831 -0.2668
    9CHTO   O12 3806   5.161   3.858   0.339  0.0264 -0.4928  0.2483
    9CHTO    H6 3807   5.239   3.811   0.361  0.4841  0.0850 -0.1058
   10CHTO  H203 3808   3.701   7.465   2.497 -0.0461 -0.2418  0.0370
   10CHTO   O82 3809   3.771   7.405   2.509  0.4771  0.2973 -0.2921
   10CHTO  C123 3810   3.813   7.395   2.645  0.0296 -0.0191 -0.5240
   10CHTO  H227 3811   3.875   7.482   2.672  1.4720 -1.9275  2.5274
   10CHTO   O77 3812   3.689   7.402   2.712  0.3081 -0.3468  0.1754
   10CHTO  C118 3813   3.701   7.438   2.858 -0.2285 -0.2376  0.8246
   10CHTO  H222 3814   3.757   7.529   2.880  0.5648 -1.0986  2.4139
   10CHTO  C125 3815   3.552   7.458   2.922  0.2871  0.6670 -0.0119
   10CHTO   O84 3816   3.485   7.334   2.936  0.1874  0.0870  0.2896
   10CHTO  H205 3817   3.494   7.307   3.025  1.8176 -2.7135 -0.6554
   10CHTO  C114 3818   3.776   7.329   2.926  0.0933 -0.7707 -0.3474
   10CHTO  H218 3819   3.715   7.239   2.936  0.2102 -0.7375  0.7380
   10CHTO  C116 3820   3.907   7.265   2.853 -0.1534  0.0626 -1.1691
   10CHTO  H220 3821   3.998   7.316   2.889  0.0650 -0.9846 -0.2012
   10CHTO   O79 3822   3.936   7.125   2.887 -0.1733 -0.1783  0.5254
   10CHTO  H201 3823   3.923   7.116   2.979  1.6018 -1.2205  0.6963
   10CHTO  C120 3824   3.895   7.262   2.694 -0.0482 -0.3724 -0.4351
   10CHTO  H224 3825   3.830   7.172   2.680 -2.2741  1.0121  0.6334
   10CHTO   N21 3826   4.027   7.240   2.629 -0.0573 -0.7015  0.1538
   10CHTO  H211 3827   4.046   7.138   2.602  1.1667 -0.2389 -0.7808
   10CHTO  H212 3828   4.110   7.262   2.695 -0.5701 -1.3735  1.0256
   10CHTO   O75 3829   3.812   7.378   3.058 -0.2346 -0.1225 -0.6239
   10CHTO  C112 3830   3.752   7.348   3.209  0.4125  0.7650 -0.9841
   10CHTO  H216 3831   3.732   7.240   3.211 -1.3271  1.0969  0.6727
   10CHTO   O73 3832   3.638   7.425   3.231 -0.2013  0.0727  0.2258
   10CHTO  C113 3833   3.565   7.381   3.350 -0.6382  0.2291  0.8638
   10CHTO  H217 3834   3.565   7.270   3.340  1.0983  0.5640 -4.0626
   10CHTO  C124 3835   3.424   7.441   3.338  0.1314  0.7733 -0.0727
   10CHTO   O83 3836   3.329   7.378   3.427  0.1919 -0.1384  0.0743
   10CHTO  H204 3837   3.293   7.298   3.392  2.0858 -1.6357  1.4164
   10CHTO  C109 3838   3.658   7.430   3.468 -0.4706 -0.3175  0.3115
   10CHTO  H213 3839   3.665   7.539   3.455 -0.7637 -0.6002 -2.5214
   10CHTO  C110 3840   3.793   7.366   3.464 -0.4097  1.3817  0.4964
   10CHTO  H214 3841   3.785   7.267   3.509  0.6115  0.4923 -1.2204
   10CHTO   O78 3842   3.880   7.420   3.560  0.3518 -0.0998 -0.0428
   10CHTO  H200 3843   3.858   7.382   3.643  1.9246 -1.5400 -0.2507
   10CHTO  C111 3844   3.858   7.369   3.323  0.2442  0.3901 -0.4313
   10CHTO  H215 3845   3.899   7.469   3.303  3.3241 -0.8083 -0.4232
   10CHTO   N19 3846   3.968   7.274   3.297  0.4822 -0.7105  0.2325
   10CHTO  H207 3847   3.945   7.175   3.333 -0.8226 -0.6605 -0.4554
   10CHTO  H208 3848   3.987   7.270   3.190  0.5145 -0.4766  0.2279
   10CHTO   O74 3849   3.586   7.403   3.593 -0.3847 -0.2947 -0.2805
   10CHTO  C115 3850   3.608   7.519   3.698  0.3208 -0.1832 -0.2054
   10CHTO  H219 3851   3.713   7.539   3.716  0.1237  0.9534 -0.2982
   10CHTO   O76 3852   3.554   7.652   3.640 -0.6579 -0.6837  0.5247
   10CHTO  C122 3853   3.410   7.656   3.651  0.5311  0.5999 -0.1178
   10CHTO  H226 3854   3.379   7.599   3.564  3.2517  1.9490 -2.0381
   10CHTO  C126 3855   3.360   7.807   3.608 -0.4054 -0.0626 -0.5431
   10CHTO   O85 3856   3.221   7.818   3.602 -0.1619 -0.0935  0.8385
   10CHTO  H206 3857   3.182   7.777   3.677  2.0128 -0.8896  1.5542
   10CHTO  C121 3858   3.349   7.613   3.790  0.0811  0.2830  0.0145
   10CHTO  H225 3859   3.277   7.691   3.825  0.6336  0.0045  1.8438
   10CHTO   O81 3860   3.253   7.508   3.774  0.7951  0.0872 -0.0353
   10CHTO  H202 3861   3.283   7.449   3.708  2.1673  0.5279  0.1859
   10CHTO  C119 3862   3.451   7.579   3.898  0.5214 -0.1636 -0.4381
   10CHTO  H223 3863   3.516   7.664   3.922 -0.9622  0.5551  1.0513
   10CHTO  C117 3864   3.548   7.472   3.833  0.4501  0.3619 -0.0372
   10CHTO  H221 3865   3.502   7.377   3.808  0.8867  0.0120  0.4828
   10CHTO   N20 3866   3.657   7.434   3.934  0.5324 -0.3329  0.3704
   10CHTO  H209 3867   3.719   7.354   3.895 -0.2345 -1.1887  0.9144
   10CHTO  H210 3868   3.729   7.513   3.951  1.7985 -1.0265 -1.5500
   10CHTO   O80 3869   3.383   7.549   4.035  0.2882 -0.7671 -0.9489
   10CHTO  C103 3870   3.383   7.662   4.158 -0.6895  0.8062 -0.4897
   10CHTO  H190 3871   3.482   7.686   4.199 -0.9266  0.4728  0.2745
   10CHTO  C101 3872   3.315   7.804   4.124  0.4425 -0.7203 -0.4393
   10CHTO  H188 3873   3.209   7.785   4.108 -0.1783  0.2394  2.3079
   10CHTO   O68 3874   3.376   7.869   4.008  0.0280  0.2352 -0.4020
   10CHTO  H168 3875   3.468   7.873   4.026  0.2340  0.4013 -1.4273
   10CHTO   C99 3876   3.302   7.896   4.254  0.2253  0.0019  0.4934
   10CHTO  H186 3877   3.404   7.923   4.289  0.3148 -3.0262  2.6972
   10CHTO   N17 3878   3.226   8.027   4.244  0.2845  0.0046 -0.0043
   10CHTO  H174 3879   3.121   8.004   4.235  0.8456 -1.9123 -2.4457
   10CHTO  H175 3880   3.266   8.081   4.160 -1.8621  0.4996 -0.7339
   10CHTO   C97 3881   3.232   7.815   4.368 -0.2271  0.1041 -0.0800
   10CHTO  H184 3882   3.128   7.799   4.336  0.4902 -2.2053 -1.4490
   10CHTO   O64 3883   3.301   7.688   4.389  0.1966 -0.4965  0.4325
   10CHTO  C104 3884   3.301   7.601   4.276  0.0039 -0.0971 -0.6003
   10CHTO  H191 3885   3.203   7.568   4.241  0.1914  0.7949 -1.9929
   10CHTO  C108 3886   3.378   7.474   4.306  0.2362  0.0851  0.2825
   10CHTO   O71 3887   3.297   7.392   4.394 -0.4270 -0.0100 -0.7380
   10CHTO  H171 3888   3.247   7.332   4.342 -0.9928  0.3072 -0.5554
   10CHTO   O62 3889   3.236   7.866   4.502 -0.5431  0.1604 -0.0400
   10CHTO   C91 3890   3.118   7.838   4.583 -0.0581  0.6028 -0.4793
   10CHTO  H178 3891   3.048   7.781   4.522  1.7460 -2.5300  0.2580
   10CHTO   C92 3892   3.040   7.974   4.614 -0.6548  0.4496  0.2573
   10CHTO  H179 3893   3.112   8.044   4.658  1.2996 -1.1022 -0.3850
   10CHTO   O66 3894   2.999   8.030   4.492 -0.2558  0.1782 -0.4447
   10CHTO  H166 3895   2.950   7.964   4.445 -0.8379  0.3231 -0.0517
   10CHTO   C93 3896   2.919   7.938   4.708  0.3021  0.2494  0.2858
   10CHTO  H180 3897   2.844   7.886   4.648 -0.5244  0.4171  1.1744
   10CHTO   N16 3898   2.858   8.060   4.753  0.1704 -0.4599 -0.1321
   10CHTO  H172 3899   2.751   8.045   4.744 -0.0464  1.1523 -0.2865
   10CHTO  H173 3900   2.884   8.071   4.857 -0.1690 -0.8893  0.0036
   10CHTO   C94 3901   2.967   7.842   4.825 -0.3506  0.2134 -0.0954
   10CHTO  H181 3902   3.043   7.892   4.885 -0.3392  1.1783 -0.9115
   10CHTO   O61 3903   3.028   7.728   4.769 -0.1534 -0.1552  0.2669
   10CHTO   C95 3904   3.155   7.758   4.706  0.2710 -0.0375  0.1371
   10CHTO  H182 3905   3.213   7.826   4.768  1.4251 -0.8069 -0.0615
   10CHTO  C106 3906   3.236   7.623   4.689  0.4216  0.4468 -0.3247
   10CHTO   O69 3907   3.277   7.580   4.819 -0.3339 -0.4975 -0.0737
   10CHTO  H169 3908   3.352   7.523   4.821 -2.0475 -2.8097  0.1444
   10CHTO   O63 3909   2.844   7.797   4.904  0.2560  0.0928  0.0983
   10CHTO   C96 3910   2.876   7.727   5.029  0.3657  0.6592 -0.2011
   10CHTO  H183 3911   2.981   7.707   5.049 -0.0620 -0.5269  0.9069
   10CHTO   C98 3912   2.799   7.597   5.049  0.4481  0.5668  0.5227
   10CHTO  H185 3913   2.699   7.612   5.005  1.4820  1.5798 -1.5115
   10CHTO   O67 3914   2.855   7.492   4.964  0.0094  0.4698  0.3483
   10CHTO  H167 3915   2.947   7.507   4.954  0.1443 -1.0830 -0.9114
   10CHTO  C102 3916   2.797   7.543   5.200 -0.3153 -0.2411  0.3354
   10CHTO  H189 3917   2.898   7.503   5.216  0.3296  1.4005  0.4457
   10CHTO   N18 3918   2.701   7.431   5.228 -0.1568  0.2433  0.1703
   10CHTO  H176 3919   2.678   7.419   5.333  0.2930  1.9993  0.4879
   10CHTO  H177 3920   2.607   7.448   5.178  0.1021  0.7159 -0.1611
   10CHTO  C105 3921   2.781   7.658   5.307 -0.0197 -0.4093  0.2543
   10CHTO  H192 3922   2.679   7.696   5.315  0.2273  0.3594 -0.1384
   10CHTO   O65 3923   2.864   7.766   5.272 -0.1237 -0.3747 -0.3615
   10CHTO  C100 3924   2.836   7.822   5.146 -0.4925 -0.6743  0.2828
   10CHTO  H187 3925   2.727   7.840   5.142 -0.4453 -0.7915 -4.5745
   10CHTO  C107 3926   2.903   7.967   5.137  0.3975  0.1511  0.8227
   10CHTO   O70 3927   2.854   8.059   5.234  0.0919 -0.0113  0.4965
   10CHTO  H170 3928   2.865   8.027   5.322 -0.5031 -0.9253  0.2470
   10CHTO   O57 3929   2.843   7.610   5.441  0.0034 -0.0660 -0.3893
   10CHTO   C85 3930   2.782   7.683   5.554 -0.0817 -0.6794  0.4364
   10CHTO  H157 3931   2.679   7.712   5.524 -0.4426  0.0761  2.3573
   10CHTO   C83 3932   2.865   7.817   5.568 -0.4358 -0.1079  0.0900
   10CHTO  H155 3933   2.850   7.881   5.482  0.2960 -0.5389 -0.3636
   10CHTO   O56 3934   3.007   7.785   5.574  0.1313 -0.5055  0.4532
   10CHTO  H135 3935   3.019   7.693   5.592 -0.1123 -0.1088  2.8456
   10CHTO   C81 3936   2.809   7.892   5.689 -0.1033  0.3623  0.2070
   10CHTO  H153 3937   2.703   7.914   5.673  0.4915  1.7729 -2.1199
   10CHTO   N14 3938   2.865   8.028   5.707 -0.0544  0.5724  0.2210
   10CHTO  H141 3939   2.855   8.089   5.620 -1.0475 -3.2018 -2.4599
   10CHTO  H142 3940   2.834   8.086   5.792 -0.6403  0.4256  0.1070
   10CHTO   C79 3941   2.829   7.811   5.822  0.3126 -0.2738  0.3575
   10CHTO  H151 3942   2.773   7.870   5.894 -1.5241 -0.2143 -1.0690
   10CHTO   O52 3943   2.753   7.683   5.825 -0.2771  0.7210  0.0109
   10CHTO   C86 3944   2.780   7.604   5.699  0.0107 -0.9546 -0.3490
   10CHTO  H158 3945   2.877   7.561   5.732  1.3229  1.1629 -1.3350
   10CHTO   C90 3946   2.680   7.487   5.691 -0.2205  0.4810 -0.5706
   10CHTO   O60 3947   2.691   7.411   5.577 -0.8708  0.0315 -0.0842
   10CHTO  H138 3948   2.694   7.460   5.497  1.8751  1.2232  0.7031
   10CHTO   O50 3949   2.972   7.789   5.854 -0.0588 -0.5806 -0.0130
   10CHTO   C73 3950   3.004   7.728   5.976 -0.1030  0.4430 -0.5676
   10CHTO  H145 3951   2.929   7.651   5.997 -0.9559  1.2929 -0.4433
   10CHTO   C74 3952   3.007   7.835   6.096  0.7606  0.5993 -0.0544
   10CHTO  H146 3953   2.909   7.884   6.103 -0.5593 -1.9484 -0.2972
   10CHTO   O54 3954   3.018   7.756   6.214  0.4583  0.4235 -0.1614
   10CHTO  H133 3955   2.935   7.717   6.231  0.3280 -0.1320 -1.9621
   10CHTO   C75 3956   3.123   7.942   6.091 -0.1095  0.3316  0.0001
   10CHTO  H147 3957   3.106   8.001   6.000 -0.1253 -1.3809 -1.1248
   10CHTO   N13 3958   3.140   8.031   6.211 -0.4481 -0.0808 -0.2694
   10CHTO  H139 3959   3.045   8.081   6.225 -0.0796  0.8566 -0.9879
   10CHTO  H140 3960   3.216   8.105   6.189 -0.8557 -0.1474 -2.0446
   10CHTO   C76 3961   3.257   7.861   6.065 -0.4984 -0.2055 -0.1110
   10CHTO  H148 3962   3.279   7.819   6.163  2.0335  0.8558 -0.1672
   10CHTO   O49 3963   3.234   7.764   5.954  0.0518 -0.2555  0.6872
   10CHTO   C77 3964   3.144   7.656   5.983  0.6205  0.1713  1.0388
   10CHTO  H149 3965   3.158   7.614   6.082  3.3080 -1.4379  0.0151
   10CHTO   C88 3966   3.169   7.544   5.884 -0.0290 -0.6951 -0.1158
   10CHTO   O58 3967   3.139   7.587   5.747 -0.0426 -0.1011  0.0576
   10CHTO  H136 3968   3.197   7.650   5.707 -1.5101  1.7357  0.7815
   10CHTO   O51 3969   3.390   7.945   6.013 -0.1222 -0.4420 -0.4564
   10CHTO   C78 3970   3.517   7.844   6.010  0.4761 -0.3297  0.8257
   10CHTO  H150 3971   3.488   7.737   6.011 -1.4381  0.0943 -1.9926
   10CHTO   C80 3972   3.607   7.868   6.128 -0.2768  0.4635 -0.1350
   10CHTO  H152 3973   3.650   7.970   6.116  2.9156 -0.9747 -1.6661
   10CHTO   O55 3974   3.542   7.858   6.257  0.4300 -0.5536 -0.4346
   10CHTO  H134 3975   3.563   7.932   6.311  0.7985 -0.1862 -1.0739
   10CHTO   C84 3976   3.733   7.765   6.122 -0.5744  0.1793 -0.3934
   10CHTO  H156 3977   3.704   7.660   6.131 -2.8062  0.6913 -1.0881
   10CHTO   N15 3978   3.842   7.784   6.225 -0.4415 -0.6540  0.7896
   10CHTO  H143 3979   3.827   7.719   6.308 -2.6447 -0.0816  0.8648
   10CHTO  H144 3980   3.853   7.883   6.264 -1.2840  0.1259 -0.8673
   10CHTO   C87 3981   3.803   7.775   5.982 -0.7845 -0.7149  0.3070
   10CHTO  H159 3982   3.858   7.869   5.983  0.0049 -1.1690 -0.1382
   10CHTO   O53 3983   3.702   7.774   5.869 -0.4179 -0.0323  0.1508
   10CHTO   C82 3984   3.593   7.869   5.880 -0.2112  0.3669  0.1931
   10CHTO  H154 3985   3.633   7.970   5.881  2.0025 -0.4570 -0.6226
   10CHTO   C89 3986   3.502   7.855   5.757  0.0301  0.2972  0.0801
   10CHTO   O59 3987   3.568   7.854   5.635 -0.1731  0.4486 -0.5703
   10CHTO  H137 3988   3.555   7.778   5.581  1.4935 -1.2597  1.3370
   10CHTO   O45 3989   3.918   7.643   5.949 -0.1871  0.2157 -0.1036
   10CHTO   C67 3990   4.048   7.685   5.902  0.4050  0.0821  0.1112
   10CHTO  H124 3991   4.050   7.792   5.922 -0.7937  0.1332  0.0146
   10CHTO   C65 3992   4.160   7.618   5.984  0.5202 -0.1038 -0.2813
   10CHTO  H122 3993   4.117   7.525   6.019 -0.2042  0.6123  0.7391
   10CHTO   O44 3994   4.203   7.707   6.085 -0.0810  0.3182  0.5094
   10CHTO  H102 3995   4.244   7.661   6.155  0.9672  0.5519  0.0602
   10CHTO   C63 3996   4.278   7.574   5.887  0.2677 -0.5830 -0.4624
   10CHTO  H120 3997   4.243   7.487   5.831  1.7107 -3.2918  2.6655
   10CHTO   N11 3998   4.399   7.510   5.956 -0.2422 -0.1039 -0.3319
   10CHTO  H108 3999   4.470   7.494   5.878  1.4191 -1.8812  1.4724
   10CHTO  H109 4000   4.449   7.573   6.026  2.4468 -0.9573 -1.4416
   10CHTO   C61 4001   4.303   7.688   5.781  0.0644  0.8381 -0.2021
   10CHTO  H118 4002   4.383   7.646   5.717 -1.1714  0.2806 -1.4136
   10CHTO   O40 4003   4.193   7.721   5.692 -0.7498 -0.4596  0.1547
   10CHTO   C68 4004   4.062   7.667   5.744 -0.4728  0.0771  0.2111
   10CHTO  H125 4005   4.049   7.561   5.711 -3.4686 -0.4384  2.7819
   10CHTO   C72 4006   3.959   7.749   5.662 -0.8763  0.3897  0.0913
   10CHTO   O48 4007   3.953   7.888   5.683 -0.0299  0.1533  0.1440
   10CHTO  H105 4008   3.927   7.933   5.605 -0.1580 -0.8692 -0.4076
   10CHTO   O38 4009   4.347   7.809   5.847  0.2438 -0.1906  0.5046
   10CHTO   C55 4010   4.461   7.881   5.798  0.1205  0.0580 -0.5561
   10CHTO  H112 4011   4.503   7.837   5.706 -0.1281  1.2843 -1.2695
   10CHTO   C56 4012   4.573   7.890   5.912  0.0405  0.4366 -0.7479
   10CHTO  H113 4013   4.525   7.886   6.011  0.9221  0.3871 -0.3243
   10CHTO   O42 4014   4.659   7.776   5.913 -0.7341  0.3908 -0.2587
   10CHTO  H100 4015   4.637   7.716   5.844  2.0851 -2.5798  1.2692
   10CHTO   C57 4016   4.664   8.018   5.909 -0.1951 -0.0641 -0.5795
   10CHTO  H114 4017   4.744   7.998   5.838 -1.5684  0.1163 -2.2225
   10CHTO   N10 4018   4.731   8.049   6.032 -0.3847  0.2667  0.1758
   10CHTO  H106 4019   4.669   8.015   6.113 -1.0141 -1.8352 -1.1462
   10CHTO  H107 4020   4.822   7.990   6.037  0.7316  1.9817  0.4034
   10CHTO   C58 4021   4.594   8.142   5.845  0.3028 -0.2296 -0.2500
   10CHTO  H115 4022   4.538   8.195   5.924 -0.3655 -1.8601  0.3854
   10CHTO   O37 4023   4.521   8.106   5.728  0.1873 -0.1571  0.4624
   10CHTO   C59 4024   4.411   8.019   5.756  0.6368 -0.3417  0.5257
   10CHTO  H116 4025   4.351   8.068   5.833 -1.4657 -0.3400 -1.0917
   10CHTO   C70 4026   4.325   8.013   5.623 -0.5791  0.3886 -0.2263
   10CHTO   O46 4027   4.387   7.926   5.525  0.1762 -0.3934  0.3138
   10CHTO  H103 4028   4.467   7.884   5.551 -0.4338 -2.3381 -0.7596
   10CHTO   O39 4029   4.705   8.245   5.782  0.1519  0.3771 -0.3870
   10CHTO   C60 4030   4.673   8.381   5.780 -0.5157 -0.0743 -0.5034
   10CHTO  H117 4031   4.567   8.401   5.763 -0.4285  1.1389  0.3213
   10CHTO   C62 4032   4.691   8.454   5.912  0.3017 -0.3652  0.5790
   10CHTO  H119 4033   4.645   8.390   5.989 -0.0108 -0.9186 -0.0622
   10CHTO   O43 4034   4.837   8.455   5.942 -0.2123 -0.9241  0.5942
   10CHTO  H101 4035   4.865   8.530   5.991  0.6547 -1.5494  1.0616
   10CHTO   C66 4036   4.616   8.597   5.909 -0.6501  0.2047  0.9242
   10CHTO  H123 4037   4.513   8.580   5.879 -0.9472  0.6716  1.6772
   10CHTO   N12 4038   4.603   8.658   6.038  0.2455 -0.3768 -0.3537
   10CHTO  H110 4039   4.554   8.754   6.029  1.4944  0.2838 -0.2018
   10CHTO  H111 4040   4.700   8.658   6.085 -0.0322 -0.8170  0.2328
   10CHTO   C69 4041   4.692   8.682   5.798  0.0028  0.9954 -0.4520
   10CHTO  H126 4042   4.796   8.699   5.832 -0.2526 -0.3708  1.0852
   10CHTO   O41 4043   4.691   8.602   5.667 -0.6323  0.5735  0.2737
   10CHTO   C64 4044   4.753   8.457   5.670 -0.1051  0.0037  0.4522
   10CHTO  H121 4045   4.859   8.456   5.702  0.6017  2.2840 -1.6199
   10CHTO   C71 4046   4.734   8.396   5.533 -0.5060  0.0513  0.2072
   10CHTO   O47 4047   4.724   8.484   5.420  0.1009 -0.5058 -0.0208
   10CHTO  H104 4048   4.718   8.432   5.341  0.2716  0.2961 -0.5656
   10CHTO   O34 4049   4.624   8.815   5.776  0.0811  0.1539 -0.1051
   10CHTO   C49 4050   4.529   8.926   5.740 -0.6585  0.3809  0.5721
   10CHTO   H91 4051   4.584   9.013   5.776 -1.2086  0.6288  0.8162
   10CHTO   C47 4052   4.397   8.908   5.817  0.2179  0.3753 -0.2293
   10CHTO   H89 4053   4.421   8.953   5.916  1.5664  0.2759 -0.5012
   10CHTO   O33 4054   4.357   8.776   5.827  0.3726  0.5184 -0.1280
   10CHTO   H70 4055   4.276   8.769   5.873  0.6182 -2.1087 -0.0487
   10CHTO   C45 4056   4.279   9.004   5.750  0.9509 -0.9363 -0.1131
   10CHTO   H87 4057   4.208   8.940   5.694 -1.0321  0.0059  1.2567
   10CHTO    N8 4058   4.205   9.079   5.856 -0.1417 -0.3163 -0.0062
   10CHTO   H75 4059   4.108   9.110   5.818  0.3628 -0.2771 -1.2873
   10CHTO   H76 4060   4.188   9.019   5.944  0.9185  0.9666  1.0899
   10CHTO   C43 4061   4.333   9.101   5.632  0.2446  0.2011 -0.3593
   10CHTO   H85 4062   4.249   9.152   5.588  0.7294 -0.1662 -1.7409
   10CHTO   O29 4063   4.408   9.033   5.533 -0.4543 -0.8992  0.0272
   10CHTO   C50 4064   4.500   8.937   5.584  0.5281  0.1400 -0.1922
   10CHTO   H92 4065   4.468   8.835   5.557 -0.2003 -0.6525  3.3383
   10CHTO   C54 4066   4.634   8.943   5.508  0.2904 -0.4669 -0.0103
   10CHTO   O36 4067   4.626   8.927   5.369  0.4255  0.1434  0.4887
   10CHTO   H72 4068   4.671   8.994   5.321 -0.3312  0.1951 -0.1527
   10CHTO   O27 4069   4.411   9.212   5.675 -0.3748  0.2269 -0.2340
   10CHTO   C37 4070   4.500   9.311   5.621 -0.3003 -0.3957 -0.2559
   10CHTO   H79 4071   4.601   9.268   5.620  0.6188  1.6211  0.9959
   10CHTO   C38 4072   4.468   9.347   5.474 -0.2767  0.0373 -0.0498
   10CHTO   H80 4073   4.360   9.365   5.468 -0.8881 -2.9019  1.2789
   10CHTO   O31 4074   4.512   9.241   5.388 -0.1526  0.1939 -0.5855
   10CHTO   H68 4075   4.605   9.234   5.399 -0.2751 -0.9502 -0.1767
   10CHTO   C39 4076   4.539   9.487   5.434  0.4895  0.8179  0.6660
   10CHTO   H81 4077   4.643   9.454   5.424  0.7339  1.8210 -0.1312
   10CHTO    N7 4078   4.488   9.544   5.307 -0.1347 -0.7835  0.2167
   10CHTO   H73 4079   4.404   9.487   5.271  0.2855 -0.7626 -0.8156
   10CHTO   H74 4080   4.564   9.557   5.231 -0.5049  1.6432  0.2112
   10CHTO   C40 4081   4.545   9.593   5.548  0.1088 -0.3949  0.8095
   10CHTO   H82 4082   4.452   9.651   5.553  0.0055 -0.1503 -2.4822
   10CHTO   O26 4083   4.585   9.542   5.672  0.5727  0.3237  0.3732
   10CHTO   C41 4084   4.495   9.433   5.722 -0.1050 -0.2829 -0.8773
   10CHTO   H83 4085   4.390   9.465   5.729 -0.2653 -1.1349  1.1365
   10CHTO   C52 4086   4.534   9.379   5.860 -0.0828 -0.1635  0.6329
   10CHTO   O35 4087   4.526   9.480   5.959 -0.2803  0.3000  0.2559
   10CHTO   H71 4088   4.454   9.535   5.936 -0.4718 -0.3530 -0.7518
   10CHTO   O28 4089   4.644   9.692   5.497 -0.4107  0.5121 -0.2011
   10CHTO   C42 4090   4.674   9.814   5.567  0.4900  0.6472 -0.3412
   10CHTO   H84 4091   4.665   9.789   5.672 -0.8966  0.7078 -0.4390
   10CHTO   C44 4092   4.579   9.938   5.539  0.4398 -0.4861  0.0245
   10CHTO   H86 4093   4.581   9.959   5.432 -1.9952 -2.5714 -0.4859
   10CHTO   O32 4094   4.448   9.905   5.588 -0.0617  0.4381 -0.2702
   10CHTO   H69 4095   4.391   9.978   5.596 -0.0438  0.5538 -1.1430
   10CHTO   C48 4096   4.633  10.075   5.610  0.1205  0.2102 -0.0840
   10CHTO   H90 4097   4.630  10.066   5.718  1.6032 -1.6164 -0.1794
   10CHTO    N9 4098   4.537  10.193   5.581 -0.2125 -0.2212 -0.4057
   10CHTO   H77 4099   4.512  10.211   5.478 -0.0026  0.8242 -0.2752
   10CHTO   H78 4100   4.574  10.281   5.632 -1.9119  0.7196 -0.7581
   10CHTO   C51 4101   4.779  10.091   5.563 -0.3162 -0.7275  0.5738
   10CHTO   H93 4102   4.777  10.082   5.454  0.1835  0.8791  0.4163
   10CHTO   O30 4103   4.853   9.983   5.625  0.5498  0.1049  0.3307
   10CHTO   C46 4104   4.824   9.858   5.540  0.3693  0.3638  0.1359
   10CHTO   H88 4105   4.830   9.884   5.435  2.4703  0.9401  0.3713
   10CHTO   C53 4106   4.915   9.738   5.579  0.5906 -0.2888 -0.7988
   10CHTO   O72 4107   5.053   9.772   5.558 -0.0277 -0.1524 -0.6465
   10CHTO  H199 4108   5.090   9.696   5.517 -0.1586 -0.8887  0.5523
   10CHTO   O22 4109   4.842  10.216   5.597 -0.0643  0.0136 -0.1339
   10CHTO   C31 4110   4.944  10.284   5.508  0.2359  0.4056 -0.0661
   10CHTO   H59 4111   4.983  10.365   5.574 -0.5760  1.5981 -1.0283
   10CHTO   C29 4112   5.062  10.198   5.457  1.4679  0.0571  0.0652
   10CHTO   H57 4113   5.017  10.116   5.399  2.1956 -1.2166  1.2660
   10CHTO   O21 4114   5.130  10.141   5.575 -0.5966 -0.5806 -0.0392
   10CHTO   H37 4115   5.218  10.115   5.556 -1.0485 -2.4346  0.3172
   10CHTO   C27 4116   5.154  10.275   5.363 -0.7646  0.1490  1.0881
   10CHTO   H55 4117   5.209  10.350   5.421  0.0796  1.8725 -1.8663
   10CHTO    N5 4118   5.256  10.180   5.310 -0.2158  0.4543  0.2530
   10CHTO   H43 4119   5.310  10.119   5.381 -1.7289  0.0691  1.0912
   10CHTO   H44 4120   5.335  10.237   5.262  0.0505 -1.4150 -1.5970
   10CHTO   C25 4121   5.082  10.346   5.249 -0.0517 -0.2846  0.3323
   10CHTO   H53 4122   5.042  10.266   5.185 -0.4525 -0.5219  0.8779
   10CHTO   O17 4123   4.971  10.416   5.314  0.5889  0.1470 -0.4112
   10CHTO   C32 4124   4.874  10.357   5.396  0.2151 -0.3598  1.0895
   10CHTO   H60 4125   4.816  10.285   5.338  1.7339 -0.9929  0.3370
   10CHTO   C36 4126   4.777  10.469   5.452 -0.0798 -0.1684  0.3974
   10CHTO   O25 4127   4.720  10.552   5.354  0.8353  0.0711 -0.4017
   10CHTO   H40 4128   4.647  10.599   5.389 -0.3111 -1.2279 -0.9697
   10CHTO   O15 4129   5.152  10.435   5.169 -0.4753  0.7527 -0.0887
   10CHTO   C19 4130   5.197  10.480   5.035 -0.0104 -0.5702 -0.2082
   10CHTO   H47 4131   5.205  10.383   4.986 -1.6417 -0.5492 -0.5587
   10CHTO   C20 4132   5.094  10.579   4.962  0.1832 -1.0831  1.4329
   10CHTO   H48 4133   5.078  10.673   5.016  3.1833 -0.3367  1.1626
   10CHTO   O19 4134   4.967  10.520   4.957  0.6062  0.3333  0.0187
   10CHTO   H35 4135   4.913  10.517   5.034  0.3071 -1.0712 -0.2208
   10CHTO   C21 4136   5.149  10.628   4.820 -0.0257  0.1122  0.1532
   10CHTO   H49 4137   5.138  10.552   4.743  1.3750 -0.3367  0.3814
   10CHTO    N4 4138   5.065  10.743   4.763 -0.1292 -0.5261 -0.2175
   10CHTO   H41 4139   4.983  10.709   4.701 -0.9789 -2.4070  1.8538
   10CHTO   H42 4140   5.126  10.801   4.696 -1.6565  3.7599  1.8799
   10CHTO   C22 4141   5.294  10.672   4.828 -0.1228  0.1313  0.1187
   10CHTO   H50 4142   5.313  10.762   4.886 -0.6356  0.9537 -0.9739
   10CHTO   O14 4143   5.368  10.569   4.897  0.0149 -0.0275  0.0035
   10CHTO   C23 4144   5.332  10.543   5.035 -0.0138 -0.1846 -0.2711
   10CHTO   H51 4145   5.330  10.641   5.087 -1.0576 -1.0673  1.3898
   10CHTO   C34 4146   5.443  10.463   5.101  0.0021  0.2930 -0.0129
   10CHTO   O23 4147   5.464  10.348   5.018  0.6789  0.1389  0.4253
   10CHTO   H38 4148   5.541  10.300   5.044  0.9367 -1.2044 -2.6033
   10CHTO   O16 4149   5.343  10.685   4.690  0.4495  1.2023  0.0076
   10CHTO   C24 4150   5.524  10.710   4.694 -0.1023  0.3742 -0.6576
   10CHTO   H52 4151   5.566  10.668   4.786 -2.7741  3.2451  1.9984
   10CHTO   C26 4152   5.562  10.854   4.676  0.0951 -0.0006  0.1566
   10CHTO   H54 4153   5.524  10.893   4.579  2.9457  1.5110 -0.3964
   10CHTO   O20 4154   5.485  10.928   4.771  0.2770  0.6567  0.0489
   10CHTO   H36 4155   5.524  10.914   4.854 -0.0906  1.0533  0.2933
   10CHTO   C30 4156   5.712  10.876   4.674 -0.4861  0.8564 -0.0732
   10CHTO   H58 4157   5.743  10.855   4.778  0.1864  0.3286 -0.3821
   10CHTO    N6 4158   5.753  11.016   4.653 -0.2885  0.0735  0.1743
   10CHTO   H45 4159   5.840  11.015   4.589  1.2553  1.2664  2.1809
   10CHTO   H46 4160   5.676  11.078   4.609 -0.0561  1.0788  1.1664
   10CHTO   C33 4161   5.772  10.777   4.564  0.1276  0.3422  0.0967
   10CHTO   H61 4162   5.739  10.808   4.464 -1.1782 -0.4510  0.2579
   10CHTO   O18 4163   5.728  10.644   4.586  0.0031 -0.1713  0.2941
   10CHTO   C28 4164   5.581  10.624   4.577 -0.2398 -0.9573 -0.0603
   10CHTO   H56 4165   5.529  10.653   4.485 -0.5018 -1.6090 -0.1232
   10CHTO   C35 4166   5.560  10.471   4.594  0.4537 -0.0890 -0.4167
   10CHTO   O24 4167   5.609  10.416   4.714  0.2494  0.2352  0.1119
   10CHTO   H39 4168   5.665  10.341   4.706 -3.0273 -2.1084 -1.5246
   10CHTO    O9 4169   5.915  10.791   4.564  0.4013  0.2496  0.1706
   10CHTO   C13 4170   6.001  10.705   4.427 -0.7527  0.2992  0.7524
   10CHTO   H26 4171   5.978  10.754   4.330  0.0501 -1.2910 -0.2691
   10CHTO   C11 4172   5.966  10.554   4.423 -0.2224 -0.1123 -0.3420
   10CHTO   H24 4173   5.859  10.545   4.400 -0.5272  0.6263  0.7304
   10CHTO    O8 4174   5.981  10.486   4.549 -0.0018  0.2245 -0.3548
   10CHTO    H3 4175   5.925  10.410   4.550  1.6463 -1.0336  2.1494
   10CHTO    C9 4176   6.038  10.488   4.307  0.1608 -0.3699  0.4287
   10CHTO   H22 4177   6.003  10.541   4.217 -1.9299  0.3816  1.6632
   10CHTO    N2 4178   5.988  10.360   4.269 -0.2763 -0.0965  0.2013
   10CHTO   H10 4179   5.997  10.287   4.349 -1.0444  0.2733  0.6281
   10CHTO   H11 4180   6.032  10.319   4.179 -2.7024 -1.6826 -0.3193
   10CHTO    C7 4181   6.196  10.489   4.338  0.1456  0.2330 -0.0354
   10CHTO   H20 4182   6.242  10.448   4.246  1.8311  0.1756  0.8176
   10CHTO    O4 4183   6.231  10.632   4.342  0.0701  0.2596 -0.2001
   10CHTO   C14 4184   6.164  10.728   4.431 -0.3469  0.8953 -0.7883
   10CHTO   H27 4185   6.189  10.825   4.383  0.0452  0.3953 -1.6131
   10CHTO   C18 4186   6.214  10.725   4.577 -0.7549  0.1925  0.0879
   10CHTO   O13 4187   6.346  10.767   4.608  0.6497 -0.4857 -0.4388
   10CHTO    H7 4188   6.405  10.735   4.543  1.3253  0.0980 -0.1354
   10CHTO    O2 4189   6.243  10.421   4.479 -0.2327 -0.4741  0.0655
   10CHTO    C1 4190   6.364  10.344   4.479  0.2037  0.0393  0.2168
   10CHTO   H14 4191   6.386  10.333   4.587 -0.7192  0.6468  0.4784
   10CHTO    C2 4192   6.483  10.415   4.405  0.0951  0.5811  0.4325
   10CHTO   H15 4193   6.446  10.430   4.303  2.1295  0.9028 -0.2843
   10CHTO    O6 4194   6.532  10.538   4.470  0.0603 -0.0889 -0.1032
   10CHTO    H1 4195   6.562  10.596   4.402  0.3782  1.7994  1.6076
   10CHTO    C3 4196   6.606  10.320   4.402  0.9618 -0.2215 -0.1094
   10CHTO   H16 4197   6.646  10.305   4.503 -0.5025  4.3426  1.2878
   10CHTO    N1 4198   6.724  10.376   4.317  0.6489 -0.0215  0.3580
   10CHTO    H8 4199   6.775  10.435   4.391  0.0098  1.1353 -0.1178
   10CHTO    H9 4200   6.774  10.284   4.288 -2.7078 -1.5682 -0.8276
   10CHTO    C4 4201   6.569  10.182   4.340  0.2797  0.3430  0.1124
   10CHTO   H17 4202   6.551  10.188   4.233 -2.0485 -0.0962  0.4432
   10CHTO    O1 4203   6.455  10.123   4.405  0.2244  0.1077 -0.1291
   10CHTO    C5 4204   6.336  10.209   4.406 -0.0081  0.3467  1.0110
   10CHTO   H18 4205   6.307  10.234   4.304  0.7624 -1.8383  0.2326
   10CHTO   C16 4206   6.215  10.138   4.472  0.3761 -0.3108 -0.3740
   10CHTO   O11 4207   6.242  10.074   4.596  0.3166 -0.4473  0.9528
   10CHTO    H5 4208   6.301  10.125   4.647  0.9911  0.8754 -1.0608
   10CHTO    O3 4209   6.669  10.087   4.377  0.1832 -0.0765  0.0941
   10CHTO    C6 4210   6.703   9.987   4.279  0.2440 -0.2006  0.1738
   10CHTO   H19 4211   6.614   9.946   4.231  0.7360 -1.6120  0.4441
   10CHTO    C8 4212   6.803  10.034   4.167  0.5211  0.0285 -0.1277
   10CHTO   H21 4213   6.888  10.081   4.217  0.0440 -0.2689  0.9800
   10CHTO    O7 4214   6.741  10.129   4.081  0.2943  0.1150  0.0986
   10CHTO    H2 4215   6.784  10.212   4.084 -0.8575  0.6954  1.1500
   10CHTO   C12 4216   6.861   9.914   4.080 -0.3612  0.1494  0.4844
   10CHTO   H25 4217   6.782   9.869   4.015  0.5777  1.8885 -1.9670
   10CHTO    N3 4218   6.966   9.956   3.979 -0.5407  0.3910 -0.0449
   10CHTO   H12 4219   6.932   9.996   3.884  1.3136  0.6123 -0.6477
   10CHTO   H13 4220   7.036   9.876   3.958  1.0026  1.7508 -0.1741
   10CHTO   C15 4221   6.910   9.797   4.181 -0.3864  0.7722 -0.4011
   10CHTO   H28 4222   7.001   9.830   4.231  0.2605  0.8366 -1.5864
   10CHTO   O10 4223   6.944   9.681   4.110  0.4062  0.6542 -0.3064
   10CHTO    H4 4224   6.994   9.698   4.033  0.6899 -2.0072 -0.7579
   10CHTO    O5 4225   6.813   9.758   4.277 -0.3102  0.6334  0.0901
   10CHTO   C10 4226   6.765   9.871   4.358  0.6353  0.3774  0.6454
   10CHTO   H23 4227   6.847   9.906   4.422 -0.7533 -0.1129  2.7590
   10CHTO   C17 4228   6.665   9.812   4.456 -0.6954 -0.1431  0.2081
   10CHTO   O12 4229   6.738   9.729   4.548  0.3488 -0.4819  0.0327
   10CHTO    H6 4230   6.773   9.646   4.521 -0.1478 -0.7446  0.1891
   11CHTO  H203 4231   4.848   5.347   1.381 -0.0817  1.0719 -0.1460
   11CHTO   O82 4232   4.935   5.348   1.348  0.1211 -0.4401  0.2989
   11CHTO  C123 4233   5.029   5.344   1.456 -0.4074 -0.7578 -0.7586
   11CHTO  H227 4234   5.047   5.241   1.490  0.7896 -0.0682  0.7338
   11CHTO   O77 4235   5.153   5.400   1.396 -0.4695  0.1507  0.8255
   11CHTO  C118 4236   5.262   5.426   1.485  0.1457 -0.0874  0.0872
   11CHTO  H222 4237   5.288   5.343   1.552  0.8056 -0.4231 -0.5801
   11CHTO  C125 4238   5.384   5.473   1.409  0.5483  0.3085  0.4464
   11CHTO   O84 4239   5.446   5.372   1.322 -0.1950  0.5968 -0.3038
   11CHTO  H205 4240   5.432   5.288   1.363 -0.0603  1.9510  2.6327
   11CHTO  C114 4241   5.209   5.533   1.583 -0.2611  0.0867 -0.7172
   11CHTO  H218 4242   5.177   5.619   1.526  0.2598  0.1135 -0.9750
   11CHTO  C116 4243   5.097   5.480   1.672 -0.0375 -0.2730  0.2323
   11CHTO  H220 4244   5.123   5.387   1.727 -0.6638 -0.2953  0.4864
   11CHTO   O79 4245   5.061   5.579   1.768 -0.0483  1.0202  0.3302
   11CHTO  H201 4246   5.129   5.603   1.828 -0.5445 -0.1460  1.3798
   11CHTO  C120 4247   4.980   5.440   1.574 -0.0000  0.1712  0.2608
   11CHTO  H224 4248   4.937   5.534   1.535 -2.0259 -1.2764 -1.1277
   11CHTO   N21 4249   4.857   5.393   1.647  0.2028  0.6336  0.5220
   11CHTO  H211 4250   4.894   5.344   1.736  1.4145  1.0380  0.2572
   11CHTO  H212 4251   4.781   5.464   1.673 -1.0798 -0.6931  0.4783
   11CHTO   O75 4252   5.325   5.587   1.653 -0.3432  1.1217 -0.1660
   11CHTO  C112 4253   5.329   5.702   1.757  0.5913 -0.0398 -0.2415
   11CHTO  H216 4254   5.317   5.659   1.858  3.2061  1.3457  0.7061
   11CHTO   O73 4255   5.227   5.799   1.721  0.0617 -0.3681 -0.3990
   11CHTO  C113 4256   5.212   5.899   1.824 -0.1769  0.3594 -0.4838
   11CHTO  H217 4257   5.185   5.837   1.912  2.6422  0.0124  0.1667
   11CHTO  C124 4258   5.094   5.994   1.788 -0.2612  0.3025  0.1708
   11CHTO   O83 4259   4.970   5.921   1.811 -0.4570 -0.3793 -0.2497
   11CHTO  H204 4260   4.913   5.934   1.737 -0.0718  0.9201 -0.3285
   11CHTO  C109 4261   5.344   5.976   1.846 -0.3252  1.0795 -0.6627
   11CHTO  H213 4262   5.354   6.041   1.758  0.1631 -3.6203 -4.2207
   11CHTO  C110 4263   5.468   5.893   1.850  0.6210 -0.2223 -0.8015
   11CHTO  H214 4264   5.476   5.849   1.950 -0.4458  0.0190 -0.6064
   11CHTO   O78 4265   5.580   5.986   1.845 -0.7293 -0.7324  0.7241
   11CHTO  H200 4266   5.663   5.943   1.833  0.7767  1.6270  2.3522
   11CHTO  C111 4267   5.461   5.774   1.748  0.1644 -0.1910 -0.0468
   11CHTO  H215 4268   5.474   5.816   1.647  0.9375 -1.4412 -0.4695
   11CHTO   N19 4269   5.573   5.682   1.772  0.5804  0.5949  0.1984
   11CHTO  H207 4270   5.564   5.634   1.868  1.7343  0.1753  0.1138
   11CHTO  H208 4271   5.665   5.738   1.779 -0.0375  1.6182  0.1613
   11CHTO   O74 4272   5.335   6.048   1.974  0.4287  0.0503  0.3596
   11CHTO  C115 4273   5.370   6.208   1.966 -0.1967 -0.0571  0.1649
   11CHTO  H219 4274   5.441   6.235   1.887  0.6171  2.9774  1.8585
   11CHTO   O76 4275   5.236   6.294   1.924  0.1404 -0.4078  0.3827
   11CHTO  C122 4276   5.157   6.314   2.039  0.5061 -0.8307  0.0247
   11CHTO  H226 4277   5.139   6.215   2.082  0.8143 -0.8824  0.0328
   11CHTO  C126 4278   5.014   6.377   2.003 -0.2987 -0.4003  0.0533
   11CHTO   O85 4279   4.935   6.386   2.125  0.4398 -0.0566 -0.9555
   11CHTO  H206 4280   4.924   6.476   2.150  1.4755 -0.2431  0.2087
   11CHTO  C121 4281   5.231   6.410   2.143  0.4349  0.4702 -0.0681
   11CHTO  H225 4282   5.203   6.513   2.114  2.0635  0.4674 -1.7019
   11CHTO   O81 4283   5.192   6.372   2.280  0.2161  0.6049 -0.4175
   11CHTO  H202 4284   5.186   6.449   2.335  0.3250  0.1757  0.2004
   11CHTO  C119 4285   5.391   6.402   2.127 -0.1253 -0.0637  0.1039
   11CHTO  H223 4286   5.428   6.452   2.037  2.4161 -1.2774  0.4382
   11CHTO  C117 4287   5.433   6.251   2.110  0.4941  0.3728  0.1472
   11CHTO  H221 4288   5.389   6.181   2.181  0.8165  0.4655  0.4368
   11CHTO   N20 4289   5.580   6.219   2.110 -0.1098 -0.4096  0.0231
   11CHTO  H209 4290   5.594   6.113   2.128 -0.8155 -0.1831  2.1507
   11CHTO  H210 4291   5.612   6.273   2.199  0.9402 -0.0683 -0.5549
   11CHTO   O80 4292   5.461   6.476   2.237 -0.7117 -0.1075  0.2281
   11CHTO  C103 4293   5.529   6.626   2.214  0.0374 -0.3625 -0.1714
   11CHTO  H190 4294   5.637   6.616   2.210  0.2810  1.3392  1.6191
   11CHTO  C101 4295   5.486   6.711   2.086 -0.3188 -0.4085  0.7323
   11CHTO  H188 4296   5.378   6.725   2.090 -0.3307  0.4166 -1.6569
   11CHTO   O68 4297   5.547   6.634   1.949  0.2422 -0.0533 -0.0613
   11CHTO  H168 4298   5.623   6.591   1.983 -0.0717 -0.1163  0.5722
   11CHTO   C99 4299   5.546   6.860   2.086  0.0136  0.0301  0.0437
   11CHTO  H186 4300   5.657   6.851   2.082  0.3781  3.3850  0.5318
   11CHTO   N17 4301   5.513   6.945   1.962  0.5872  0.7621  0.0655
   11CHTO  H174 4302   5.418   6.996   1.967  1.3164  2.1678 -0.1025
   11CHTO  H175 4303   5.518   6.879   1.876 -0.2403 -1.5009  1.7003
   11CHTO   C97 4304   5.520   6.924   2.224 -0.1669  0.6895  0.3922
   11CHTO  H184 4305   5.413   6.944   2.232 -0.1010  1.9317 -1.4963
   11CHTO   O64 4306   5.566   6.835   2.331 -0.3367  0.5869 -0.1570
   11CHTO  C104 4307   5.497   6.711   2.340  0.1734 -0.0114 -0.8246
   11CHTO  H191 4308   5.390   6.731   2.337  0.6053  2.3247 -1.8456
   11CHTO  C108 4309   5.520   6.629   2.471  0.4360 -0.7593  0.0426
   11CHTO   O71 4310   5.479   6.702   2.584 -0.7857  0.0920  0.2261
   11CHTO  H171 4311   5.544   6.764   2.610  0.8324 -1.8044  0.8176
   11CHTO   O62 4312   5.593   7.045   2.250  0.0635 -0.4935 -0.3433
   11CHTO   C91 4313   5.528   7.135   2.342 -0.0371  0.4878  0.0074
   11CHTO  H178 4314   5.423   7.131   2.314  0.2948  0.1938 -1.2502
   11CHTO   C92 4315   5.581   7.274   2.321  0.8683 -0.0660  0.5959
   11CHTO  H179 4316   5.579   7.287   2.211 -2.3300 -0.5374  0.5412
   11CHTO   O66 4317   5.489   7.369   2.381 -0.1786 -0.3885  0.2496
   11CHTO  H166 4318   5.492   7.367   2.475 -0.8533  2.3143  0.3832
   11CHTO   C93 4319   5.729   7.295   2.375  0.3619 -0.3527 -0.2583
   11CHTO  H180 4320   5.750   7.401   2.392 -1.1397 -0.5245  3.0229
   11CHTO   N16 4321   5.836   7.236   2.287  0.2008  0.0676  0.5431
   11CHTO  H172 4322   5.932   7.274   2.320 -0.1508  1.9011 -0.4582
   11CHTO  H173 4323   5.824   7.280   2.189  0.8144  2.8839  1.6734
   11CHTO   C94 4324   5.743   7.228   2.517  0.0711 -0.0549 -0.0353
   11CHTO  H181 4325   5.805   7.138   2.515  3.0074  1.9355 -0.7330
   11CHTO   O61 4326   5.615   7.197   2.575 -0.1135  0.5560  0.1272
   11CHTO   C95 4327   5.551   7.098   2.495 -0.0285  0.4311 -0.5174
   11CHTO  H182 4328   5.603   7.003   2.508  0.1745  0.3748 -1.6497
   11CHTO  C106 4329   5.414   7.067   2.562  0.5357  0.2536 -0.1208
   11CHTO   O69 4330   5.432   7.004   2.687  0.2168 -0.0057 -0.4897
   11CHTO  H169 4331   5.484   7.062   2.740 -0.8325  0.8315 -0.3693
   11CHTO   O63 4332   5.805   7.327   2.612  0.0248  0.3582 -0.1697
   11CHTO   C96 4333   5.928   7.261   2.698  0.3547  0.1324  0.0378
   11CHTO  H183 4334   6.008   7.210   2.644  0.7871 -0.2691  1.0426
   11CHTO   C98 4335   5.876   7.171   2.810 -0.0581  0.1786  0.2099
   11CHTO  H185 4336   5.805   7.229   2.870 -0.9750 -0.1680 -0.5190
   11CHTO   O67 4337   5.804   7.065   2.757  0.2597  0.5312  0.1661
   11CHTO  H167 4338   5.738   7.042   2.819  0.9980  1.8195  1.4736
   11CHTO  C102 4339   5.994   7.119   2.905 -0.5019 -0.2177 -0.5448
   11CHTO  H189 4340   6.064   7.061   2.842 -0.8606 -0.6511 -0.5468
   11CHTO   N18 4341   5.937   7.029   3.008  0.2684  0.4664  0.3695
   11CHTO  H176 4342   5.859   7.080   3.063 -1.1241 -1.4991  0.2828
   11CHTO  H177 4343   6.008   6.972   3.066  1.3348  0.3485 -1.0390
   11CHTO  C105 4344   6.075   7.243   2.958  0.8246  0.9142 -0.1328
   11CHTO  H192 4345   6.013   7.293   3.033 -0.2023  1.0821 -1.0899
   11CHTO   O65 4346   6.112   7.336   2.854  0.0093  0.1524 -0.6352
   11CHTO  C100 4347   6.010   7.380   2.757  0.2249  0.0456  0.4993
   11CHTO  H187 4348   5.946   7.449   2.813 -1.1564  1.6312 -2.8928
   11CHTO  C107 4349   6.084   7.459   2.652 -0.2796  0.0236 -0.1401
   11CHTO   O70 4350   6.136   7.588   2.696 -0.2485 -0.4448 -0.3474
   11CHTO  H170 4351   6.068   7.652   2.691  0.0293 -0.1622 -0.5557
   11CHTO   O57 4352   6.206   7.180   3.025  0.1854 -0.5008 -0.5369
   11CHTO   C85 4353   6.258   7.258   3.134  0.2535  0.7120  0.1459
   11CHTO  H157 4354   6.181   7.321   3.184  0.9068  1.8170 -0.2268
   11CHTO   C83 4355   6.350   7.364   3.070  0.1144  0.0576 -0.3823
   11CHTO  H155 4356   6.282   7.433   3.022 -2.4595 -2.8878 -1.1228
   11CHTO   O56 4357   6.439   7.308   2.975  0.3916  0.2698  0.6443
   11CHTO  H135 4358   6.496   7.369   2.932 -0.7134 -1.0578 -2.9379
   11CHTO   C81 4359   6.422   7.444   3.183  0.5310 -0.2844  0.0058
   11CHTO  H153 4360   6.346   7.487   3.248  0.5701 -0.4171  0.1407
   11CHTO   N14 4361   6.502   7.562   3.144 -0.0828 -0.1231  0.1949
   11CHTO  H141 4362   6.600   7.535   3.109  0.8034  2.1023  0.8918
   11CHTO  H142 4363   6.515   7.620   3.233 -0.9488 -0.0458  0.2713
   11CHTO   C79 4364   6.507   7.337   3.269  0.0597  0.0587  0.0761
   11CHTO  H151 4365   6.557   7.394   3.347  0.9172  0.8743 -1.0430
   11CHTO   O52 4366   6.412   7.241   3.327  0.0133  0.4119 -0.1015
   11CHTO   C86 4367   6.329   7.171   3.232 -0.4228 -0.1218 -0.0067
   11CHTO  H158 4368   6.402   7.107   3.179  0.3662  0.1415  0.7501
   11CHTO   C90 4369   6.241   7.071   3.300 -0.5950  0.3164  0.3087
   11CHTO   O60 4370   6.150   7.129   3.399 -0.0303 -0.3441  0.2202
   11CHTO  H138 4371   6.114   7.059   3.451 -0.4900 -1.0953 -1.0897
   11CHTO   O50 4372   6.616   7.280   3.200 -0.2192  0.0793  0.1012
   11CHTO   C73 4373   6.723   7.188   3.223 -0.0212  0.6109 -1.6466
   11CHTO  H145 4374   6.699   7.110   3.297  0.8290  0.2375 -1.7584
   11CHTO   C74 4375   6.850   7.255   3.284  0.0514 -0.0555  0.4151
   11CHTO  H146 4376   6.817   7.314   3.370  0.4957 -0.0859  0.6092
   11CHTO   O54 4377   6.935   7.146   3.326  0.2625  0.6601  0.2433
   11CHTO  H133 4378   7.025   7.173   3.326  0.6511 -0.5908 -0.3347
   11CHTO   C75 4379   6.909   7.350   3.178 -0.2191 -0.0360  0.6248
   11CHTO  H147 4380   6.838   7.432   3.162 -1.5392 -1.1844  0.5508
   11CHTO   N13 4381   7.040   7.411   3.221 -0.4694  0.2988 -0.2292
   11CHTO  H139 4382   7.124   7.366   3.170 -0.8577 -1.2925  0.4942
   11CHTO  H140 4383   7.037   7.518   3.207 -2.0946  0.2578 -0.2533
   11CHTO   C76 4384   6.935   7.275   3.043 -0.1180  0.5763  0.0620
   11CHTO  H148 4385   7.010   7.197   3.060 -0.9182  0.1234  1.6227
   11CHTO   O49 4386   6.810   7.222   3.001 -0.1926  0.3576 -0.4498
   11CHTO   C77 4387   6.759   7.121   3.088  1.0486 -0.4895 -0.1579
   11CHTO  H149 4388   6.825   7.037   3.112  2.1665  0.4150 -0.0199
   11CHTO   C88 4389   6.635   7.057   3.027 -0.5928 -0.6289  1.1630
   11CHTO   O58 4390   6.584   6.955   3.100 -0.0130  0.4080 -0.0178
   11CHTO  H136 4391   6.504   6.981   3.141 -0.2706 -1.9771  1.1082
   11CHTO   O51 4392   6.982   7.374   2.917 -0.0208  0.0110 -0.2160
   11CHTO   C78 4393   7.029   7.297   2.780  0.9948  0.4141 -0.0214
   11CHTO  H150 4394   7.018   7.187   2.789 -1.3002  0.6194  0.0016
   11CHTO   C80 4395   7.178   7.340   2.755  0.5864 -0.2801  0.2508
   11CHTO  H152 4396   7.186   7.451   2.748 -1.2906 -0.2444 -1.6836
   11CHTO   O55 4397   7.258   7.303   2.868 -0.4318  0.7402  0.3939
   11CHTO  H134 4398   7.314   7.371   2.903 -0.9228  1.0771  0.5207
   11CHTO   C84 4399   7.223   7.284   2.614 -0.4496 -0.0815 -0.3376
   11CHTO  H156 4400   7.210   7.176   2.613 -0.7721 -0.0468 -2.3477
   11CHTO   N15 4401   7.362   7.308   2.575  0.7369 -0.5465 -0.5012
   11CHTO  H143 4402   7.417   7.275   2.660 -2.1820 -0.8540  1.3256
   11CHTO  H144 4403   7.381   7.410   2.549  0.3795 -0.1128  0.9030
   11CHTO   C87 4404   7.125   7.306   2.495  0.0638  0.0188 -0.1383
   11CHTO  H159 4405   7.116   7.406   2.452 -1.9947  0.4796  1.2785
   11CHTO   O53 4406   6.988   7.268   2.547 -0.5123 -0.3801  0.0453
   11CHTO   C82 4407   6.941   7.342   2.661 -0.3355 -0.1459 -0.7257
   11CHTO  H154 4408   6.955   7.448   2.636 -0.7823  0.0259 -0.2455
   11CHTO   C89 4409   6.792   7.320   2.675  0.6530  0.4058  0.1607
   11CHTO   O59 4410   6.728   7.357   2.554  1.0734 -0.4088 -0.6836
   11CHTO  H137 4411   6.638   7.332   2.564  1.0146 -0.6062 -1.5907
   11CHTO   O45 4412   7.159   7.214   2.375 -0.2124 -0.1317 -0.4905
   11CHTO   C67 4413   7.062   7.194   2.268  0.0040  0.5373 -0.4201
   11CHTO  H124 4414   6.961   7.171   2.303  0.3091  0.3734  0.3564
   11CHTO   C65 4415   7.054   7.320   2.171 -0.3832  0.3232  0.1113
   11CHTO  H122 4416   7.130   7.395   2.195  0.3648 -0.2821 -0.3168
   11CHTO   O44 4417   6.932   7.383   2.195  0.2063 -0.2817  0.2115
   11CHTO  H102 4418   6.853   7.333   2.183  0.4645 -1.5110  3.1748
   11CHTO   C63 4419   7.093   7.283   2.022  0.4112  0.1710  1.0717
   11CHTO  H120 4420   7.195   7.244   2.020  0.0080 -0.8575 -0.0434
   11CHTO   N11 4421   7.100   7.399   1.929 -0.0403 -0.8593  0.4117
   11CHTO  H108 4422   7.155   7.371   1.841  2.7991  0.5206  1.6960
   11CHTO  H109 4423   7.003   7.424   1.891  0.7015  1.5781  0.0958
   11CHTO   C61 4424   7.003   7.159   1.977 -0.2251  0.2905  0.0561
   11CHTO  H118 4425   7.034   7.122   1.878  0.1566  0.1830  0.2125
   11CHTO   O40 4426   7.013   7.042   2.074  0.3242 -0.4366 -0.9049
   11CHTO   C68 4427   7.107   7.064   2.187 -0.0509 -0.4485  0.0484
   11CHTO  H125 4428   7.208   7.081   2.143  0.6009 -3.4213  0.3217
   11CHTO   C72 4429   7.111   6.935   2.272  0.1748 -0.3993 -0.6746
   11CHTO   O48 4430   7.155   6.828   2.197 -0.6808 -0.6327  0.4312
   11CHTO  H105 4431   7.169   6.750   2.247  0.2396 -0.8807 -0.1932
   11CHTO   O38 4432   6.861   7.188   1.974 -0.5247 -0.1302 -0.7173
   11CHTO   C55 4433   6.769   7.121   1.879 -0.2105 -0.1217  0.2161
   11CHTO  H112 4434   6.816   7.028   1.845  0.2243  1.0934 -2.5913
   11CHTO   C56 4435   6.732   7.218   1.762 -0.7512 -0.3396  0.7922
   11CHTO  H113 4436   6.689   7.307   1.810  1.1153 -0.1677  2.1733
   11CHTO   O42 4437   6.855   7.257   1.703 -0.1365  0.3991  0.2570
   11CHTO  H100 4438   6.837   7.296   1.620 -0.4702  0.5288  0.3887
   11CHTO   C57 4439   6.644   7.146   1.660 -0.0195 -0.1259  0.0582
   11CHTO  H114 4440   6.697   7.063   1.611 -0.3208  0.1907 -0.8259
   11CHTO   N10 4441   6.616   7.241   1.544  0.2838  0.1055  0.1106
   11CHTO  H106 4442   6.522   7.295   1.551 -1.0439 -1.8554 -1.8637
   11CHTO  H107 4443   6.614   7.185   1.452 -0.2310  0.0508  0.1522
   11CHTO   C58 4444   6.525   7.089   1.729  0.5266  0.0645 -0.6172
   11CHTO  H115 4445   6.458   7.168   1.769 -0.2605 -1.5785  1.3926
   11CHTO   O37 4446   6.565   7.012   1.846  0.0556 -0.1441  0.9524
   11CHTO   C59 4447   6.628   7.090   1.950  0.4166 -0.1284  0.4120
   11CHTO  H116 4448   6.571   7.180   1.973  0.3869 -0.0851  0.1685
   11CHTO   C70 4449   6.646   7.008   2.077  0.1029 -0.3401 -0.3449
   11CHTO   O46 4450   6.703   7.079   2.186  0.3969  0.4651  0.2742
   11CHTO  H103 4451   6.770   7.022   2.217 -0.9153 -0.0890  2.1657
   11CHTO   O39 4452   6.435   6.984   1.625 -0.1302  0.2239 -0.5078
   11CHTO   C60 4453   6.294   7.004   1.629  0.0887 -0.3757 -0.6417
   11CHTO  H117 4454   6.261   7.002   1.733  1.9704 -0.4641 -0.0127
   11CHTO   C62 4455   6.256   7.137   1.550  0.2238  0.9756  0.0010
   11CHTO  H119 4456   6.292   7.215   1.621  1.6370  0.9612 -0.6891
   11CHTO   O43 4457   6.333   7.143   1.424 -0.3407 -0.5426  0.5670
   11CHTO  H101 4458   6.425   7.156   1.435 -0.0698  0.5905 -2.4347
   11CHTO   C66 4459   6.097   7.153   1.529  0.4734 -0.1285  0.4960
   11CHTO  H123 4460   6.054   7.168   1.628 -1.9289 -0.9018 -0.3975
   11CHTO   N12 4461   6.066   7.276   1.460  0.2024 -0.2470  1.2918
   11CHTO  H110 4462   6.123   7.356   1.504 -2.7039  2.7059 -0.0953
   11CHTO  H111 4463   5.960   7.298   1.461  0.7393  2.5585  1.4000
   11CHTO   C69 4464   6.036   7.024   1.474  0.4728 -0.0513 -0.3486
   11CHTO  H126 4465   6.069   6.998   1.371  0.5416 -0.6690 -0.1699
   11CHTO   O41 4466   6.069   6.920   1.545 -0.8047  0.1599 -0.3714
   11CHTO   C64 4467   6.219   6.885   1.552  0.1681  0.4070  0.7106
   11CHTO  H121 4468   6.252   6.873   1.447 -0.8993  2.5110  0.0949
   11CHTO   C71 4469   6.225   6.749   1.627  0.1663  0.3278 -0.3715
   11CHTO   O47 4470   6.146   6.646   1.567 -0.3386 -0.2348  0.3216
   11CHTO  H104 4471   6.159   6.569   1.618  0.8434 -0.4850 -0.3465
   11CHTO   O34 4472   5.876   7.045   1.478 -0.0509  0.2845  0.0451
   11CHTO   C49 4473   5.762   7.078   1.559  0.3666  0.1121  0.1317
   11CHTO   H91 4474   5.800   7.143   1.638  0.7736  0.2068 -0.1358
   11CHTO   C47 4475   5.711   6.953   1.626 -0.0481  0.3120  0.7089
   11CHTO   H89 4476   5.627   6.979   1.695 -2.0455  0.6622 -1.7742
   11CHTO   O33 4477   5.811   6.896   1.711  0.2361 -0.3852  0.4616
   11CHTO   H70 4478   5.898   6.919   1.682  1.1322 -2.2145  1.6028
   11CHTO   C45 4479   5.651   6.856   1.515 -0.3908  0.1232 -0.6403
   11CHTO   H87 4480   5.731   6.837   1.441 -1.5566 -1.7362 -1.4482
   11CHTO    N8 4481   5.605   6.726   1.562 -0.2864 -0.4507 -0.0713
   11CHTO   H75 4482   5.688   6.667   1.599 -0.1738 -1.2330 -1.5447
   11CHTO   H76 4483   5.553   6.667   1.488 -2.6518  0.8985  0.4692
   11CHTO   C43 4484   5.527   6.933   1.442 -0.2145  0.1355  0.1148
   11CHTO   H85 4485   5.493   6.866   1.363  0.7411 -0.7747  0.4670
   11CHTO   O29 4486   5.565   7.065   1.392  0.2369  0.2483  0.3846
   11CHTO   C50 4487   5.648   7.149   1.482 -0.0637 -0.0084 -0.1681
   11CHTO   H92 4488   5.693   7.229   1.422  0.1405 -0.9668 -1.3029
   11CHTO   C54 4489   5.560   7.229   1.580  0.0587 -0.3612 -0.1018
   11CHTO   O36 4490   5.443   7.295   1.532 -0.2099  0.2374  0.3192
   11CHTO   H72 4491   5.391   7.225   1.497  1.4110 -0.5806 -0.5295
   11CHTO   O27 4492   5.409   6.945   1.534 -0.1183 -0.2084 -0.0097
   11CHTO   C37 4493   5.270   6.931   1.520  0.5213 -0.2124  0.1632
   11CHTO   H79 4494   5.228   7.007   1.587 -1.7491 -0.4725 -0.9234
   11CHTO   C38 4495   5.209   6.953   1.375 -0.5230  0.2871 -0.2917
   11CHTO   H80 4496   5.249   6.873   1.311 -0.6186 -0.5933  0.7431
   11CHTO   O31 4497   5.252   7.081   1.323 -0.3716  0.4201  0.0372
   11CHTO   H68 4498   5.181   7.138   1.345 -2.9812 -2.7130  0.2014
   11CHTO   C39 4499   5.053   6.939   1.381  0.2320  0.4881  0.0310
   11CHTO   H81 4500   5.008   7.016   1.444  0.4778  0.6489  0.0108
   11CHTO    N7 4501   4.976   6.952   1.249  0.1350  0.4647 -0.1947
   11CHTO   H73 4502   4.923   7.046   1.240 -0.7685  0.1677  1.8401
   11CHTO   H74 4503   5.046   6.937   1.168  1.1715  1.6090  0.4813
   11CHTO   C40 4504   5.013   6.801   1.448  0.4106  0.2399  0.2758
   11CHTO   H82 4505   5.043   6.722   1.379  0.1758  1.2130 -0.9567
   11CHTO   O26 4506   5.082   6.790   1.574  0.6812 -0.6691  0.2175
   11CHTO   C41 4507   5.224   6.789   1.564  0.3770  0.3226  0.0430
   11CHTO   H83 4508   5.255   6.721   1.483 -0.8884 -0.2356  0.0029
   11CHTO   C52 4509   5.267   6.751   1.707  0.3351  0.0634 -0.0211
   11CHTO   O35 4510   5.246   6.636   1.754 -0.2444  0.1016 -0.1054
   11CHTO   H71 4511   5.154   6.615   1.747 -0.2923  0.4890 -0.7118
   11CHTO   O28 4512   4.872   6.794   1.479  0.2074  0.1225 -0.1228
   11CHTO   C42 4513   4.790   6.677   1.475  0.1726  0.1611 -0.0542
   11CHTO   H84 4514   4.836   6.606   1.406  0.8056  1.2727 -0.7793
   11CHTO   C44 4515   4.646   6.705   1.425  0.0764  0.4954  0.0137
   11CHTO   H86 4516   4.600   6.778   1.492  0.4749  0.2117  0.5971
   11CHTO   O32 4517   4.654   6.767   1.295 -0.5013 -0.4311 -0.4235
   11CHTO   H69 4518   4.696   6.851   1.286  1.6754 -1.1117  2.6355
   11CHTO   C48 4519   4.556   6.580   1.421 -0.3595 -0.0844 -0.3154
   11CHTO   H90 4520   4.608   6.521   1.346 -0.9333  0.0316 -0.8105
   11CHTO    N9 4521   4.416   6.601   1.368 -0.2540  0.2033  0.4570
   11CHTO   H77 4522   4.341   6.562   1.436 -1.3125  1.3908 -0.0202
   11CHTO   H78 4523   4.407   6.559   1.269  0.8048 -2.9196  1.6180
   11CHTO   C51 4524   4.560   6.513   1.563  0.7446  0.2755 -0.1183
   11CHTO   H93 4525   4.505   6.573   1.636  1.9009 -1.2463  2.0509
   11CHTO   O30 4526   4.696   6.497   1.600 -0.5715 -0.2679  0.3685
   11CHTO   C46 4527   4.773   6.609   1.610 -0.5297  0.0441 -0.5202
   11CHTO   H88 4528   4.737   6.682   1.682 -0.3470  0.1158 -0.5003
   11CHTO   C53 4529   4.910   6.560   1.671 -0.5201 -0.0634 -0.1817
   11CHTO   O72 4530   4.959   6.442   1.597  0.0573  0.3122  0.0144
   11CHTO  H199 4531   5.046   6.458   1.565  0.1932  0.3270  0.3875
   11CHTO   O22 4532   4.523   6.375   1.546 -0.4594 -0.6998  0.1896
   11CHTO   C31 4533   4.478   6.291   1.656 -1.1082 -0.4473  0.4674
   11CHTO   H59 4534   4.531   6.333   1.745 -0.1974  2.0164 -1.1774
   11CHTO   C29 4535   4.330   6.308   1.685 -0.4638  0.1129  0.3467
   11CHTO   H57 4536   4.280   6.273   1.593  1.1993  0.2735 -0.6354
   11CHTO   O21 4537   4.296   6.444   1.696 -0.2864 -0.0204  0.1042
   11CHTO   H37 4538   4.343   6.492   1.762 -1.3733 -2.0761  2.4118
   11CHTO   C27 4539   4.285   6.216   1.801  0.2110 -0.1197 -0.7162
   11CHTO   H55 4540   4.335   6.254   1.891 -1.3430  1.0510 -0.3242
   11CHTO    N5 4541   4.134   6.221   1.817  0.1431  0.0066  0.2803
   11CHTO   H43 4542   4.090   6.181   1.728  0.5944  0.9148 -0.3556
   11CHTO   H44 4543   4.093   6.312   1.859 -0.0644 -0.0871  0.2804
   11CHTO   C25 4544   4.335   6.074   1.761 -0.0002 -0.6325  0.0043
   11CHTO   H53 4545   4.285   6.052   1.666 -1.1328  0.6756  0.2788
   11CHTO   O17 4546   4.475   6.072   1.755 -0.0047 -0.3658 -0.4709
   11CHTO   C32 4547   4.518   6.145   1.637  0.0347  0.0621  0.3809
   11CHTO   H60 4548   4.471   6.106   1.547  1.9706  0.0890 -0.6648
   11CHTO   C36 4549   4.665   6.131   1.630  0.3722 -0.3480  0.4143
   11CHTO   O25 4550   4.695   5.998   1.624 -0.0161  0.2927 -0.2846
   11CHTO   H40 4551   4.659   5.960   1.702 -1.2482 -0.0514 -1.0022
   11CHTO   O15 4552   4.308   5.978   1.883  0.4094 -0.4523 -0.4334
   11CHTO   C19 4553   4.300   5.835   1.910  0.3285 -0.2170  0.6621
   11CHTO   H47 4554   4.231   5.797   1.833 -0.2493 -0.8550  1.4852
   11CHTO   C20 4555   4.432   5.762   1.908  0.6084  0.2905  0.5521
   11CHTO   H48 4556   4.508   5.809   1.972 -0.2934  0.0829  1.7915
   11CHTO   O19 4557   4.490   5.767   1.779 -0.1304 -0.2416  0.8444
   11CHTO   H35 4558   4.531   5.851   1.779 -1.5804  0.4794  1.4547
   11CHTO   C21 4559   4.426   5.605   1.947 -0.0047 -0.4650  0.0326
   11CHTO   H49 4560   4.375   5.561   1.862 -2.1460  2.9149 -0.5143
   11CHTO    N4 4561   4.556   5.531   1.953 -0.0213 -0.2425  0.0091
   11CHTO   H41 4562   4.611   5.542   1.861  1.4379 -2.3010  0.6059
   11CHTO   H42 4563   4.524   5.428   1.959 -0.1256 -0.2027  0.1343
   11CHTO   C22 4564   4.342   5.587   2.072  0.3282 -0.7239 -0.2063
   11CHTO   H50 4565   4.397   5.606   2.164 -1.6164  1.6444  0.5409
   11CHTO   O14 4566   4.227   5.675   2.078 -0.6302  0.2021  0.5866
   11CHTO   C23 4567   4.231   5.812   2.045  0.7395  0.4331  0.3452
   11CHTO   H51 4568   4.281   5.862   2.128 -0.3025  2.6036 -0.2928
   11CHTO   C34 4569   4.089   5.872   2.039  0.3886  0.3560  0.3729
   11CHTO   O23 4570   3.997   5.844   2.148  0.2747  0.2147  0.3280
   11CHTO   H38 4571   4.028   5.897   2.219 -1.5643  2.4156 -0.4472
   11CHTO   O16 4572   4.291   5.450   2.074  0.0012  0.2088 -0.2963
   11CHTO   C24 4573   4.159   5.415   1.977  0.4736 -0.7376 -0.0622
   11CHTO   H52 4574   4.129   5.499   1.914  0.7898 -1.0534 -0.6299
   11CHTO   C26 4575   4.045   5.379   2.074  0.3545  0.3302 -0.0049
   11CHTO   H54 4576   4.079   5.301   2.146  0.7003 -0.1468 -0.6771
   11CHTO   O20 4577   4.018   5.494   2.160  0.2118  0.2286 -0.6427
   11CHTO   H36 4578   4.079   5.504   2.231 -0.2014 -2.2397  0.1141
   11CHTO   C30 4579   3.910   5.331   2.007  0.0709  0.3122  0.3966
   11CHTO   H58 4580   3.867   5.416   1.953  1.2864  1.2296  0.8522
   11CHTO    N6 4581   3.811   5.283   2.108 -0.5082  0.4540 -0.4927
   11CHTO   H45 4582   3.845   5.223   2.191 -1.1022  1.0480  0.1748
   11CHTO   H46 4583   3.751   5.365   2.142 -0.1786  0.8938 -0.9515
   11CHTO   C33 4584   3.943   5.221   1.903  0.6527 -0.1504 -0.0965
   11CHTO   H61 4585   3.970   5.127   1.954 -1.9286 -0.7843  0.1752
   11CHTO   O18 4586   4.055   5.259   1.821 -0.1159  0.0510 -0.4371
   11CHTO   C28 4587   4.180   5.291   1.886  0.3008  0.2684  0.0966
   11CHTO   H56 4588   4.210   5.207   1.948  1.0249  0.4753  0.0384
   11CHTO   C35 4589   4.286   5.329   1.769  0.2933  0.2314  0.0037
   11CHTO   O24 4590   4.331   5.213   1.701  0.0014  0.6704 -0.5408
   11CHTO   H39 4591   4.415   5.231   1.665  0.1272 -0.2937 -0.7353
   11CHTO    O9 4592   3.828   5.185   1.821 -0.2823  0.1902  0.1319
   11CHTO   C13 4593   3.748   5.298   1.738  0.1022 -1.0485 -0.9375
   11CHTO   H26 4594   3.748   5.397   1.788  0.6385 -1.5836  0.1190
   11CHTO   C11 4595   3.599   5.246   1.722  0.1214  0.3588  0.4125
   11CHTO   H24 4596   3.555   5.233   1.822 -1.6152 -1.5595 -0.5519
   11CHTO    O8 4597   3.600   5.114   1.654  0.1689  0.4529  0.2790
   11CHTO    H3 4598   3.538   5.118   1.584 -1.2617 -2.0473  1.3487
   11CHTO    C9 4599   3.523   5.367   1.651 -0.4051 -0.3002  0.4810
   11CHTO   H22 4600   3.523   5.450   1.724  0.9840 -0.8393  1.1083
   11CHTO    N2 4601   3.375   5.332   1.645  0.3339  0.1405  0.7602
   11CHTO   H10 4602   3.325   5.418   1.603  0.9407  0.3810  0.5268
   11CHTO   H11 4603   3.325   5.318   1.740 -1.5107  0.7172 -0.1060
   11CHTO    C7 4604   3.603   5.415   1.524 -0.7108 -0.2451  0.1416
   11CHTO   H20 4605   3.630   5.521   1.545 -0.7638 -0.4698  1.3561
   11CHTO    O4 4606   3.717   5.332   1.489  0.4708 -0.7217  0.9104
   11CHTO   C14 4607   3.814   5.319   1.596  0.7380 -0.7298  0.0479
   11CHTO   H27 4608   3.876   5.411   1.601 -0.3514 -0.1119  2.5736
   11CHTO   C18 4609   3.908   5.203   1.548  0.2561  0.0103  0.1574
   11CHTO   O13 4610   3.984   5.242   1.432 -0.0630 -0.0197  0.0593
   11CHTO    H7 4611   4.074   5.247   1.456  0.1622  0.0013 -0.8110
   11CHTO    O2 4612   3.507   5.438   1.394  0.4941 -0.6173 -0.1612
   11CHTO    C1 4613   3.470   5.574   1.362  0.5135 -0.1804 -0.1405
   11CHTO   H14 4614   3.524   5.644   1.430 -0.3222  1.0115 -0.6907
   11CHTO    C2 4615   3.314   5.598   1.379  0.0002 -0.0060  0.2874
   11CHTO   H15 4616   3.262   5.508   1.345  1.3238 -0.2766 -1.0822
   11CHTO    O6 4617   3.277   5.611   1.520  0.4910 -0.0060  0.0391
   11CHTO    H1 4618   3.313   5.686   1.564 -2.1430  0.4845  1.4728
   11CHTO    C3 4619   3.260   5.718   1.286  0.4206  0.0333 -0.2700
   11CHTO   H16 4620   3.285   5.815   1.332  0.2913  1.2487 -2.6517
   11CHTO    N1 4621   3.109   5.710   1.280 -0.5417  0.0942  0.7006
   11CHTO    H8 4622   3.070   5.740   1.376 -0.8971  0.9605  0.2882
   11CHTO    H9 4623   3.064   5.781   1.213  1.5377  0.1593 -0.6814
   11CHTO    C4 4624   3.326   5.720   1.143 -0.1743  0.8207 -0.0193
   11CHTO   H17 4625   3.297   5.633   1.085 -1.2077  1.5707 -0.6443
   11CHTO    O1 4626   3.465   5.727   1.161 -0.0651  0.0657  0.0262
   11CHTO    C5 4627   3.519   5.602   1.215 -0.1125 -0.1423  0.4961
   11CHTO   H18 4628   3.483   5.530   1.141 -1.0648  0.1428  0.6754
   11CHTO   C16 4629   3.676   5.606   1.210  0.1939 -0.0199  0.6412
   11CHTO   O11 4630   3.751   5.482   1.215 -0.4345  0.6202 -0.3164
   11CHTO    H5 4631   3.698   5.405   1.206  0.2066  0.2032 -0.4700
   11CHTO    O3 4632   3.289   5.839   1.066 -0.1512  0.0971 -0.3920
   11CHTO    C6 4633   3.302   5.829   0.920 -1.1102  0.3979 -0.1659
   11CHTO   H19 4634   3.361   5.742   0.891 -0.3916  0.6620  0.4947
   11CHTO    C8 4635   3.160   5.808   0.867  1.2597  0.5809  0.2882
   11CHTO   H21 4636   3.098   5.889   0.905  0.1113 -0.0393 -0.2488
   11CHTO    O7 4637   3.105   5.678   0.914 -0.7615  0.8674 -0.3120
   11CHTO    H2 4638   3.014   5.662   0.901 -0.8283  0.6788  0.3805
   11CHTO   C12 4639   3.150   5.821   0.712  0.2647  1.1686  0.2820
   11CHTO   H25 4640   3.206   5.730   0.681 -0.6175  0.9234 -0.6270
   11CHTO    N3 4641   3.012   5.813   0.657  0.2963 -0.1009 -0.1379
   11CHTO   H12 4642   2.946   5.845   0.736 -1.0066 -3.5350  0.2763
   11CHTO   H13 4643   2.997   5.709   0.632  1.6323  0.1054 -1.9050
   11CHTO   C15 4644   3.227   5.945   0.665 -0.3213 -0.7036 -0.1359
   11CHTO   H28 4645   3.180   6.040   0.687  2.6483  0.4443  1.5288
   11CHTO   O10 4646   3.258   5.938   0.505 -0.0553  0.2621  0.2183
   11CHTO    H4 4647   3.305   6.015   0.478  0.2071 -0.8332 -2.5904
   11CHTO    O5 4648   3.363   5.953   0.716 -0.1023  0.3352  0.1722
   11CHTO   C10 4649   3.368   5.954   0.855 -0.7812 -0.3156 -0.6335
   11CHTO   H23 4650   3.308   6.040   0.882 -1.1182 -0.6635 -0.2586
   11CHTO   C17 4651   3.518   5.970   0.902  0.0260 -0.1917  0.4044
   11CHTO   O12 4652   3.570   6.094   0.856 -0.3275 -0.3973  0.4242
   11CHTO    H6 4653   3.659   6.107   0.884 -0.4524 -1.0086  1.1141
   12CHTO  H203 4654   5.211   1.784   0.032 -0.8637  2.7081  0.8648
   12CHTO   O82 4655   5.290   1.788   0.082  0.1914  0.1304 -0.4669
   12CHTO  C123 4656   5.305   1.670   0.161  0.0311  0.0563 -0.1996
   12CHTO  H227 4657   5.377   1.693   0.241  0.5439  1.2107 -0.9885
   12CHTO   O77 4658   5.172   1.646   0.215  0.5061 -0.0489  0.5589
   12CHTO  C118 4659   5.168   1.564   0.327 -0.6937  0.1611  0.2224
   12CHTO  H222 4660   5.239   1.612   0.395  0.4004 -2.5375  1.0584
   12CHTO  C125 4661   5.032   1.562   0.396 -0.3030  0.3905  0.5028
   12CHTO   O84 4662   4.999   1.693   0.445  0.3031 -0.0790  0.6933
   12CHTO  H205 4663   5.028   1.704   0.533  2.4534 -1.3513  0.1790
   12CHTO  C114 4664   5.221   1.425   0.291  0.5349  0.0902  0.6218
   12CHTO  H218 4665   5.151   1.382   0.219  1.6333 -0.4725 -0.1263
   12CHTO  C116 4666   5.362   1.426   0.208 -0.0019  0.7640  0.0353
   12CHTO  H220 4667   5.447   1.452   0.275 -0.9298  1.4285  0.9696
   12CHTO   O79 4668   5.386   1.299   0.155  0.8525 -0.2809  0.4070
   12CHTO  H201 4669   5.304   1.281   0.112  1.0058  1.8522 -0.8299
   12CHTO  C120 4670   5.361   1.542   0.098  0.1543  0.4365 -0.4550
   12CHTO  H224 4671   5.295   1.511   0.014  2.5410  0.1335 -2.2850
   12CHTO   N21 4672   5.499   1.549   0.039  0.1706  0.4233  0.0206
   12CHTO  H211 4673   5.569   1.466   0.040 -0.7400 -0.3974  3.5603
   12CHTO  H212 4674   5.510   1.588  -0.061 -1.8895  0.3794 -0.2266
   12CHTO   O75 4675   5.230   1.354   0.414  0.6244 -0.0318  0.0125
   12CHTO  C112 4676   5.208   1.177   0.410 -0.2416  0.2908  0.0443
   12CHTO  H216 4677   5.280   1.135   0.482  2.2207 -0.4720 -2.7381
   12CHTO   O73 4678   5.236   1.129   0.276  0.7853  0.9937  0.1007
   12CHTO  C113 4679   5.256   0.985   0.281 -0.0216  0.2955  0.1860
   12CHTO  H217 4680   5.347   0.958   0.339  0.0437 -0.0938 -0.0956
   12CHTO  C124 4681   5.296   0.947   0.137 -0.6267 -0.4809  1.0669
   12CHTO   O83 4682   5.323   0.815   0.117  0.1175 -0.2912 -0.2436
   12CHTO  H204 4683   5.277   0.789   0.039 -0.2329 -1.9568  0.4906
   12CHTO  C109 4684   5.118   0.917   0.324 -0.1306  0.1074  0.1267
   12CHTO  H213 4685   5.050   0.937   0.239 -0.1148  2.3047  0.5883
   12CHTO  C110 4686   5.062   0.982   0.451 -0.0081 -1.0258  0.0324
   12CHTO  H214 4687   5.123   0.947   0.534 -0.5360  0.8945  1.2455
   12CHTO   O78 4688   4.931   0.926   0.479  0.6958 -0.6309  0.0146
   12CHTO  H200 4689   4.865   0.957   0.420  1.3517  1.3027  0.2493
   12CHTO  C111 4690   5.058   1.137   0.445  0.2943 -0.1681  0.1424
   12CHTO  H215 4691   4.990   1.161   0.362  2.0731 -0.7712 -1.5379
   12CHTO   N19 4692   5.010   1.210   0.569  0.0758 -0.1764  0.8106
   12CHTO  H207 4693   4.972   1.140   0.641 -2.3697  0.4427  0.1872
   12CHTO  H208 4694   4.948   1.292   0.535  1.4344  0.6321  0.2284
   12CHTO   O74 4695   5.137   0.773   0.337 -0.0304  0.4121  0.0587
   12CHTO  C115 4696   5.017   0.688   0.284  0.9311  0.2064  0.0528
   12CHTO  H219 4697   4.921   0.737   0.300  1.7963  2.1717 -0.5723
   12CHTO   O76 4698   5.022   0.672   0.141  0.2212 -0.4162  0.6581
   12CHTO  C122 4699   4.932   0.576   0.073  0.0646 -0.5018  0.2235
   12CHTO  H226 4700   4.972   0.559  -0.027  2.0598 -0.2451  0.9631
   12CHTO  C126 4701   4.791   0.640   0.055  0.0669  0.3775 -0.3242
   12CHTO   O85 4702   4.692   0.540   0.023 -0.0425  0.6359  0.1012
   12CHTO  H206 4703   4.725   0.462  -0.018 -0.4701 -0.1608  1.2651
   12CHTO  C121 4704   4.935   0.431   0.145 -0.4883 -0.1194  0.4686
   12CHTO  H225 4705   4.847   0.373   0.110 -2.4864  2.8691  0.3722
   12CHTO   O81 4706   5.057   0.352   0.119 -0.5932 -0.0197 -0.0058
   12CHTO  H202 4707   5.137   0.399   0.106  0.2298 -1.3025  0.3012
   12CHTO  C119 4708   4.929   0.448   0.297 -0.4266  0.4316  0.4266
   12CHTO  H223 4709   4.826   0.479   0.318 -0.7323 -1.1124  1.2483
   12CHTO  C117 4710   5.019   0.548   0.367  0.1478 -0.2295 -0.2250
   12CHTO  H221 4711   5.125   0.525   0.372  0.0072 -1.0965 -1.1762
   12CHTO   N20 4712   4.978   0.575   0.514  0.0554  0.6021 -0.6190
   12CHTO  H209 4713   5.009   0.499   0.584 -4.6209  1.0746  2.1356
   12CHTO  H210 4714   4.871   0.577   0.524  0.1839  0.4954  0.9144
   12CHTO   O80 4715   4.934   0.304   0.356  0.9415 -0.6527  0.1425
   12CHTO  C103 4716   4.806   0.216   0.373  0.7060 -0.4876 -0.2123
   12CHTO  H190 4717   4.725   0.276   0.415  0.6839  0.9059 -2.1850
   12CHTO  C101 4718   4.748   0.126   0.254 -0.0681  0.1878 -0.6042
   12CHTO  H188 4719   4.832   0.089   0.194 -0.3249 -0.3829 -0.6166
   12CHTO   O68 4720   4.665   0.227   0.166 -0.2116  0.6035  0.3197
   12CHTO  H168 4721   4.724   0.284   0.121  0.5909 -0.5698 -0.1524
   12CHTO   C99 4722   4.659  -0.003   0.307  0.6517 -0.2095  0.8727
   12CHTO  H186 4723   4.559   0.030   0.341 -0.3088  0.8501 -2.8251
   12CHTO   N17 4724   4.628  -0.095   0.189  0.2788  0.0328  0.1320
   12CHTO  H174 4725   4.578  -0.034   0.116  2.1844  0.4855 -0.8231
   12CHTO  H175 4726   4.566  -0.179   0.219 -0.9701  0.8344 -0.1781
   12CHTO   C97 4727   4.716  -0.074   0.429 -0.3667  0.4618  0.2911
   12CHTO  H184 4728   4.803  -0.137   0.410 -1.3475  0.1134 -3.3636
   12CHTO   O64 4729   4.748   0.037   0.522 -0.7441  1.0975 -0.0587
   12CHTO  C104 4730   4.858   0.119   0.484  0.5355  0.2142  0.3012
   12CHTO  H191 4731   4.945   0.065   0.448 -0.6146 -1.5618  0.1271
   12CHTO  C108 4732   4.907   0.195   0.610 -0.5523  0.4058  0.3190
   12CHTO   O71 4733   4.961   0.103   0.704 -0.2596  0.0339  0.1739
   12CHTO  H171 4734   5.054   0.111   0.712 -0.3378  2.0519 -0.7104
   12CHTO   O62 4735   4.616  -0.145   0.506 -0.4851 -0.2930  0.0742
   12CHTO   C91 4736   4.626  -0.284   0.501  0.3538 -0.2952  0.7850
   12CHTO  H178 4737   4.644  -0.319   0.399  1.2748 -1.9198  1.4875
   12CHTO   C92 4738   4.480  -0.331   0.535 -0.0339  0.0913  0.1037
   12CHTO  H179 4739   4.409  -0.275   0.472  0.2627  0.6862  0.3023
   12CHTO   O66 4740   4.457  -0.461   0.495  0.3938  0.4699  0.8566
   12CHTO  H166 4741   4.465  -0.461   0.401  0.3037  0.0249  0.8496
   12CHTO   C93 4742   4.441  -0.328   0.693 -0.0405  0.2849  0.2661
   12CHTO  H180 4743   4.388  -0.419   0.725 -2.0922  1.9358  1.6875
   12CHTO   N16 4744   4.335  -0.229   0.731  1.0326 -0.1472 -0.0463
   12CHTO  H172 4745   4.361  -0.155   0.805 -0.2078 -0.3923  0.6484
   12CHTO  H173 4746   4.242  -0.273   0.763  2.1677 -2.8149 -0.3414
   12CHTO   C94 4747   4.570  -0.320   0.773 -0.2626  0.0073 -0.5384
   12CHTO  H181 4748   4.609  -0.219   0.779  1.0975 -0.5695  0.6417
   12CHTO   O61 4749   4.668  -0.400   0.708 -0.0091  0.3766  0.1507
   12CHTO   C95 4750   4.733  -0.350   0.593  0.2750 -0.1673  1.0192
   12CHTO  H182 4751   4.813  -0.282   0.621  1.3743 -1.5353  1.3181
   12CHTO  C106 4752   4.799  -0.470   0.508  0.7596  0.6394  0.1569
   12CHTO   O69 4753   4.876  -0.548   0.590 -0.3268 -0.3495 -0.0802
   12CHTO  H169 4754   4.914  -0.622   0.548 -0.8673 -0.8998  0.3833
   12CHTO   O63 4755   4.559  -0.383   0.908 -0.1599  0.7930  0.6294
   12CHTO   C96 4756   4.685  -0.340   1.023 -0.0637  0.0130 -0.2548
   12CHTO  H183 4757   4.702  -0.232   1.025  0.4749 -0.0827  0.5341
   12CHTO   C98 4758   4.814  -0.426   1.012 -0.4197  0.6656  0.8159
   12CHTO  H185 4759   4.850  -0.426   0.908 -2.7137  0.9749 -0.0048
   12CHTO   O67 4760   4.913  -0.356   1.092  0.0700 -0.0989  0.2111
   12CHTO  H167 4761   4.993  -0.368   1.044 -0.9522 -1.7556 -1.1081
   12CHTO  C102 4762   4.802  -0.575   1.077 -0.6536 -0.9319  0.0364
   12CHTO  H189 4763   4.904  -0.616   1.083  0.3231  1.5688  1.0513
   12CHTO   N18 4764   4.732  -0.676   0.995 -0.0100  0.5170  0.5749
   12CHTO  H176 4765   4.798  -0.688   0.911 -0.2789  0.6427  0.3402
   12CHTO  H177 4766   4.747  -0.765   1.054  3.0887  0.5928 -0.0247
   12CHTO  C105 4767   4.755  -0.560   1.222 -0.4686  0.2383  0.0453
   12CHTO  H192 4768   4.684  -0.638   1.248  0.0664  0.2331  1.5801
   12CHTO   O65 4769   4.710  -0.428   1.259  0.1361  0.2730 -0.2503
   12CHTO  C100 4770   4.620  -0.365   1.167 -0.1020 -0.3828 -0.6334
   12CHTO  H187 4771   4.541  -0.440   1.154 -2.8914  2.5330 -1.2525
   12CHTO  C107 4772   4.558  -0.235   1.232  1.2741 -0.0222  0.1247
   12CHTO   O70 4773   4.466  -0.276   1.334  1.0749  0.0348  0.6137
   12CHTO  H170 4774   4.379  -0.281   1.299  0.0253 -0.8519  3.2311
   12CHTO   O57 4775   4.887  -0.594   1.310 -0.0067 -0.2977 -0.0735
   12CHTO   C85 4776   4.881  -0.597   1.454 -0.4843 -0.8306  0.1923
   12CHTO  H157 4777   4.776  -0.571   1.479 -0.0316  1.6477 -0.3669
   12CHTO   C83 4778   4.965  -0.475   1.493  0.4440 -0.1349  0.8755
   12CHTO  H155 4779   4.914  -0.389   1.449  0.8256  0.5294  1.7287
   12CHTO   O56 4780   5.099  -0.470   1.437  0.4336  0.1621  0.4069
   12CHTO  H135 4781   5.101  -0.503   1.349  0.9941  2.1031 -0.3376
   12CHTO   C81 4782   4.965  -0.463   1.650 -0.2423 -0.2315  0.9468
   12CHTO  H153 4783   4.861  -0.465   1.682 -0.6484 -0.0233 -0.3313
   12CHTO   N14 4784   5.011  -0.336   1.709  0.2979 -0.5036 -0.7830
   12CHTO  H141 4785   5.035  -0.258   1.640  1.3863  1.4140  1.6489
   12CHTO  H142 4786   4.940  -0.300   1.781  0.9106 -0.0994 -0.3760
   12CHTO   C79 4787   5.031  -0.583   1.719 -0.7256  0.2616  0.0799
   12CHTO  H151 4788   5.016  -0.571   1.826  0.0493  1.0768  0.0977
   12CHTO   O52 4789   4.954  -0.701   1.676 -0.2877 -0.7294  0.4763
   12CHTO   C86 4790   4.938  -0.727   1.535 -0.6991 -0.9232  0.0973
   12CHTO  H158 4791   5.035  -0.767   1.498 -0.7684 -1.3598  0.3948
   12CHTO   C90 4792   4.834  -0.843   1.512 -0.5383 -0.4381  0.2437
   12CHTO   O60 4793   4.853  -0.894   1.384  0.4733  0.8143 -0.1616
   12CHTO  H138 4794   4.935  -0.937   1.373 -0.1454 -0.5657  0.4534
   12CHTO   O50 4795   5.171  -0.605   1.685  0.3251 -0.1282  0.3546
   12CHTO   C73 4796   5.266  -0.623   1.792  0.2847 -0.3657  0.4257
   12CHTO  H145 4797   5.215  -0.672   1.876 -1.3466 -2.7584 -1.8990
   12CHTO   C74 4798   5.322  -0.496   1.837 -0.2104  0.3344 -0.2533
   12CHTO  H146 4799   5.231  -0.444   1.871 -0.9561  0.3720 -2.2607
   12CHTO   O54 4800   5.407  -0.513   1.955  0.1668 -0.5509  0.3939
   12CHTO  H133 4801   5.362  -0.543   2.032 -0.9766  0.8463  0.3032
   12CHTO   C75 4802   5.393  -0.428   1.718  0.0922 -0.1649  0.3166
   12CHTO  H147 4803   5.316  -0.416   1.640  1.1289 -1.1734 -0.8988
   12CHTO   N13 4804   5.452  -0.293   1.742 -0.1023  0.6742 -0.2269
   12CHTO  H139 4805   5.424  -0.264   1.842 -2.3027  2.0164 -1.2086
   12CHTO  H140 4806   5.559  -0.303   1.732 -0.2784 -2.2129  0.3239
   12CHTO   C76 4807   5.504  -0.531   1.660 -0.2567 -0.5898 -0.2788
   12CHTO  H148 4808   5.588  -0.533   1.730 -0.1148  0.3133 -0.4184
   12CHTO   O49 4809   5.457  -0.658   1.628  0.0128 -0.4391 -0.0363
   12CHTO   C77 4810   5.371  -0.721   1.731  0.6605 -0.1366 -0.3542
   12CHTO  H149 4811   5.439  -0.751   1.811  0.2645  1.4864  0.6209
   12CHTO   C88 4812   5.319  -0.866   1.706 -0.2210  0.2038  0.1491
   12CHTO   O58 4813   5.413  -0.966   1.700  0.1009  0.5654  0.6527
   12CHTO  H136 4814   5.418  -0.996   1.789 -0.1500  0.3932  0.6108
   12CHTO   O51 4815   5.560  -0.483   1.507 -0.1634  0.7207 -0.5269
   12CHTO   C78 4816   5.657  -0.594   1.419 -0.4093 -0.0320  0.2077
   12CHTO  H150 4817   5.636  -0.694   1.463 -2.7546  0.5918  0.6120
   12CHTO   C80 4818   5.806  -0.565   1.445  0.6345 -0.4529  0.5537
   12CHTO  H152 4819   5.826  -0.459   1.418  1.9671 -0.4715  1.4256
   12CHTO   O55 4820   5.828  -0.583   1.587  0.4006  0.2540  0.4364
   12CHTO  H134 4821   5.899  -0.642   1.606 -0.4448 -0.3263  1.9180
   12CHTO   C84 4822   5.890  -0.664   1.361 -0.5955  0.3194 -0.8051
   12CHTO  H156 4823   5.861  -0.766   1.387  2.3721 -0.2491  0.4896
   12CHTO   N15 4824   6.044  -0.641   1.375  0.6881 -0.4056 -0.1096
   12CHTO  H143 4825   6.065  -0.554   1.434  0.0057 -0.6517  0.4961
   12CHTO  H144 4826   6.100  -0.725   1.410  0.2907 -1.1745 -1.2880
   12CHTO   C87 4827   5.854  -0.638   1.216 -0.6890 -0.0221 -0.1109
   12CHTO  H159 4828   5.880  -0.535   1.190 -1.3927  0.7415  2.0959
   12CHTO   O53 4829   5.702  -0.668   1.184 -0.7154  0.1861  0.4312
   12CHTO   C82 4830   5.623  -0.584   1.272  0.4722  0.5692  0.4297
   12CHTO  H154 4831   5.632  -0.480   1.241  1.4913  1.1364  2.5855
   12CHTO   C89 4832   5.470  -0.627   1.246  1.1713  0.5838  0.3920
   12CHTO   O59 4833   5.367  -0.572   1.329 -0.6080 -0.2804 -0.3143
   12CHTO  H137 4834   5.356  -0.617   1.410 -0.0844  0.7125  0.3354
   12CHTO   O45 4835   5.961  -0.750   1.115  0.2984 -0.4035 -0.5323
   12CHTO   C67 4836   5.975  -0.724   0.975  0.3580 -0.5258 -0.9228
   12CHTO  H124 4837   6.053  -0.792   0.941  1.3512  0.0534  0.1583
   12CHTO   C65 4838   5.849  -0.759   0.889 -0.0999  0.0358 -0.6378
   12CHTO  H122 4839   5.758  -0.737   0.945 -0.3286 -0.7218 -0.7095
   12CHTO   O44 4840   5.858  -0.901   0.859  0.5334 -0.3457  0.1979
   12CHTO  H102 4841   5.904  -0.916   0.778  1.2810 -0.6016  0.6650
   12CHTO   C63 4842   5.840  -0.659   0.771 -0.7460 -0.7773  1.2419
   12CHTO  H120 4843   5.789  -0.571   0.809  0.8058 -0.2932  2.2045
   12CHTO   N11 4844   5.742  -0.696   0.657  0.0571 -0.6037  0.1407
   12CHTO  H108 4845   5.791  -0.719   0.564 -0.5827  0.4312 -0.4700
   12CHTO  H109 4846   5.660  -0.758   0.687 -1.8840  0.1970 -3.2836
   12CHTO   C61 4847   5.981  -0.619   0.709  0.2457  0.9163 -0.0761
   12CHTO  H118 4848   5.948  -0.544   0.637 -1.9193  0.1120  0.0464
   12CHTO   O40 4849   6.063  -0.553   0.811  0.0835 -0.2050  0.3624
   12CHTO   C68 4850   6.032  -0.575   0.951 -0.0518 -0.0570  0.1809
   12CHTO  H125 4851   5.967  -0.496   0.993 -0.6392 -0.2585 -0.3471
   12CHTO   C72 4852   6.169  -0.558   1.018  0.0586  0.1523  0.2496
   12CHTO   O48 4853   6.282  -0.630   0.954  0.1828 -0.6330 -0.0678
   12CHTO  H105 4854   6.271  -0.723   0.950  0.9983 -0.6839 -1.3578
   12CHTO   O38 4855   6.036  -0.730   0.633  0.0542 -0.6164  0.3313
   12CHTO   C55 4856   6.169  -0.780   0.663  0.6575  0.5097  0.0477
   12CHTO  H112 4857   6.171  -0.774   0.773 -0.0749 -2.9094  0.2979
   12CHTO   C56 4858   6.287  -0.690   0.599  0.6710  0.2562  0.0747
   12CHTO  H113 4859   6.280  -0.695   0.490  1.9872  0.3260 -0.0159
   12CHTO   O42 4860   6.276  -0.554   0.641  0.8681 -0.0453  0.1341
   12CHTO  H100 4861   6.187  -0.525   0.640  0.0882 -2.3082  0.8862
   12CHTO   C57 4862   6.429  -0.742   0.648 -1.3486  0.2078 -0.5033
   12CHTO  H114 4863   6.436  -0.722   0.754  1.1859  2.0055 -0.9756
   12CHTO   N10 4864   6.544  -0.666   0.592  0.4786  0.3995 -0.6667
   12CHTO  H106 4865   6.502  -0.566   0.593 -1.9952 -0.6096 -0.8683
   12CHTO  H107 4866   6.622  -0.672   0.667  0.7843  1.2599 -0.9071
   12CHTO   C58 4867   6.445  -0.891   0.619 -0.1621  0.4440 -1.0037
   12CHTO  H115 4868   6.462  -0.917   0.513  0.1427  0.4012 -0.9445
   12CHTO   O37 4869   6.332  -0.969   0.672 -0.1526  0.0778  0.0934
   12CHTO   C59 4870   6.201  -0.936   0.628  0.2935  0.1961 -0.1189
   12CHTO  H116 4871   6.199  -0.943   0.519 -2.4151  0.5355 -0.1295
   12CHTO   C70 4872   6.109  -1.036   0.689 -0.1196 -0.9098  0.3939
   12CHTO   O46 4873   6.143  -1.173   0.682  0.6135  0.0748  0.0165
   12CHTO  H103 4874   6.151  -1.202   0.593 -0.3954 -1.5365  0.4235
   12CHTO   O39 4875   6.574  -0.938   0.714  0.0082 -0.1821 -0.8992
   12CHTO   C60 4876   6.621  -1.062   0.671 -0.6414 -0.0454  0.1811
   12CHTO  H117 4877   6.541  -1.120   0.624 -0.8645 -0.2845  0.8390
   12CHTO   C62 4878   6.731  -1.056   0.555 -0.3546  0.4523  0.4503
   12CHTO  H119 4879   6.690  -1.018   0.459  0.6976 -0.6742 -0.4618
   12CHTO   O43 4880   6.833  -0.968   0.609  0.2555  0.0125  0.1180
   12CHTO  H101 4881   6.856  -0.907   0.541  1.2930 -0.7969 -0.2676
   12CHTO   C66 4882   6.798  -1.201   0.533  0.0558  0.4239  0.0643
   12CHTO  H123 4883   6.725  -1.273   0.497  1.8099 -2.4837  2.1605
   12CHTO   N12 4884   6.898  -1.193   0.427 -0.6070 -0.2378 -0.0986
   12CHTO  H110 4885   6.939  -1.287   0.395  0.7139  0.2262  0.1906
   12CHTO  H111 4886   6.858  -1.131   0.348 -2.8318  2.2008  2.7924
   12CHTO   C69 4887   6.852  -1.259   0.665  0.2727 -0.0121  0.0435
   12CHTO  H126 4888   6.932  -1.208   0.723  0.2782  0.1423 -0.0992
   12CHTO   O41 4889   6.733  -1.281   0.757 -0.4383  0.6819 -0.1907
   12CHTO   C64 4890   6.671  -1.143   0.791 -0.8182 -0.7786  0.5385
   12CHTO  H121 4891   6.747  -1.080   0.843 -1.6249  0.6662 -0.0206
   12CHTO   C71 4892   6.566  -1.169   0.890  0.1832 -0.6330 -0.1442
   12CHTO   O47 4893   6.627  -1.218   1.009 -0.2067  0.1354 -0.0703
   12CHTO  H104 4894   6.691  -1.284   0.989  0.8851  1.1614  0.0124
   12CHTO   O34 4895   6.913  -1.393   0.637  0.4680  0.1254 -0.3184
   12CHTO   C49 4896   6.944  -1.545   0.663  0.4391  0.1461  0.5238
   12CHTO   H91 4897   7.053  -1.555   0.660  0.4938  0.9723 -0.6012
   12CHTO   C47 4898   6.901  -1.626   0.539  1.0923  0.3271 -0.5108
   12CHTO   H89 4899   6.955  -1.722   0.553 -0.5321 -0.5512 -0.1950
   12CHTO   O33 4900   6.945  -1.558   0.417 -0.4054 -0.1870 -0.3515
   12CHTO   H70 4901   6.931  -1.621   0.349 -1.7574  0.5224 -0.7409
   12CHTO   C45 4902   6.742  -1.651   0.536 -0.1983 -0.7031 -0.4027
   12CHTO   H87 4903   6.701  -1.574   0.468  0.4710  0.9699  1.0385
   12CHTO    N8 4904   6.714  -1.792   0.489  1.0182 -0.3206 -0.0153
   12CHTO   H75 4905   6.749  -1.861   0.565  0.7290  0.1596  0.5618
   12CHTO   H76 4906   6.609  -1.807   0.474  0.5448  1.6319  1.1490
   12CHTO   C43 4907   6.670  -1.605   0.675  0.0506  0.0114  0.9479
   12CHTO   H85 4908   6.680  -1.497   0.663 -1.0169 -0.1809 -2.2025
   12CHTO   O29 4909   6.750  -1.658   0.781  0.0665 -0.6500 -0.1917
   12CHTO   C50 4910   6.884  -1.600   0.797  0.2712  0.0945  0.2013
   12CHTO   H92 4911   6.889  -1.523   0.875  1.2950 -0.6581  0.9010
   12CHTO   C54 4912   6.978  -1.716   0.847 -0.4072  0.7511  0.2854
   12CHTO   O36 4913   7.109  -1.664   0.868 -0.2047 -0.6369  0.1753
   12CHTO   H72 4914   7.150  -1.649   0.784  0.0381  0.0889  0.4172
   12CHTO   O27 4915   6.528  -1.636   0.674 -0.2393  0.0198 -0.5525
   12CHTO   C37 4916   6.416  -1.622   0.764 -0.0274  0.2483  0.4459
   12CHTO   H79 4917   6.370  -1.722   0.770  1.3574 -0.4158  0.1933
   12CHTO   C38 4918   6.460  -1.592   0.907  0.1638 -0.7015 -0.4220
   12CHTO   H80 4919   6.514  -1.497   0.904 -2.2667  0.7178 -0.5424
   12CHTO   O31 4920   6.535  -1.708   0.950 -0.0833  0.7674  0.0648
   12CHTO   H68 4921   6.616  -1.709   0.904  0.2583 -0.4176  0.6749
   12CHTO   C39 4922   6.339  -1.567   1.005 -0.8318  0.0344  0.8864
   12CHTO   H81 4923   6.292  -1.665   1.017  1.0584 -0.8113  1.5944
   12CHTO    N7 4924   6.378  -1.515   1.148  0.8972 -0.0235 -0.0461
   12CHTO   H73 4925   6.485  -1.500   1.149  1.1556 -1.7746  0.1121
   12CHTO   H74 4926   6.340  -1.580   1.226  0.4072 -1.1643 -1.2157
   12CHTO   C40 4927   6.233  -1.470   0.945 -0.3813  0.1663  0.0854
   12CHTO   H82 4928   6.266  -1.367   0.955  0.3750 -0.0680  0.0518
   12CHTO   O26 4929   6.203  -1.502   0.811  0.0774  0.0034  0.3386
   12CHTO   C41 4930   6.311  -1.517   0.716  0.4588 -0.2686 -0.1888
   12CHTO   H83 4931   6.350  -1.415   0.702  2.2169 -1.0051 -0.7535
   12CHTO   C52 4932   6.259  -1.566   0.575 -0.6224 -0.3674  0.7127
   12CHTO   O35 4933   6.185  -1.470   0.495 -0.1241 -0.0404  0.5097
   12CHTO   H71 4934   6.244  -1.433   0.432 -0.8155 -1.7387 -1.1964
   12CHTO   O28 4935   6.108  -1.467   1.008  0.9662 -0.1882  0.7354
   12CHTO   C42 4936   6.019  -1.346   1.012 -0.7225 -0.0076 -0.3560
   12CHTO   H84 4937   6.064  -1.274   0.943  1.4616  0.2415  1.2899
   12CHTO   C44 4938   6.002  -1.271   1.151  0.0449  0.3982  0.5415
   12CHTO   H86 4939   5.952  -1.341   1.218  0.1879 -0.6617 -0.4280
   12CHTO   O32 4940   6.132  -1.246   1.202 -0.3178  0.1146 -0.1705
   12CHTO   H69 4941   6.126  -1.237   1.296  0.9203  1.0413 -0.1642
   12CHTO   C48 4942   5.917  -1.136   1.134 -0.1528  0.3794  0.8668
   12CHTO   H90 4943   5.970  -1.070   1.065  1.5181 -0.0191  1.7355
   12CHTO    N9 4944   5.911  -1.062   1.268 -0.4489 -0.0565 -0.1844
   12CHTO   H77 4945   5.999  -1.002   1.284 -1.0160  0.3705  1.4747
   12CHTO   H78 4946   5.894  -1.133   1.348  0.6415  0.0791  0.1797
   12CHTO   C51 4947   5.782  -1.180   1.075 -0.5719  0.1958  0.1747
   12CHTO   H93 4948   5.726  -1.247   1.141 -1.3124  0.5528 -0.0869
   12CHTO   O30 4949   5.808  -1.234   0.953  0.7619 -0.2152 -0.7293
   12CHTO   C46 4950   5.878  -1.377   0.961 -0.0119  0.6402  0.1416
   12CHTO   H88 4951   5.818  -1.434   1.033 -1.9927  1.2984 -0.9343
   12CHTO   C53 4952   5.866  -1.446   0.826  0.3125 -0.7787  0.0323
   12CHTO   O72 4953   5.878  -1.340   0.724 -0.5434  0.1777 -0.0186
   12CHTO  H199 4954   5.970  -1.324   0.725 -0.3032 -1.0712  1.7251
   12CHTO   O22 4955   5.701  -1.066   1.040  0.3159 -0.3441  0.5704
   12CHTO   C31 4956   5.553  -1.078   1.022  0.1210  0.3049 -0.4645
   12CHTO   H59 4957   5.530  -1.186   1.017 -2.1605  0.7749 -0.5867
   12CHTO   C29 4958   5.478  -1.016   1.147  0.2324  0.0653  0.4391
   12CHTO   H57 4959   5.512  -0.912   1.162 -0.2961  0.3077 -0.0355
   12CHTO   O21 4960   5.522  -1.084   1.260 -0.0899  0.2170 -0.2848
   12CHTO   H37 4961   5.608  -1.122   1.265 -0.5852 -0.6722  2.3433
   12CHTO   C27 4962   5.322  -1.022   1.136  0.3398  0.6050 -0.1338
   12CHTO   H55 4963   5.293  -1.128   1.136  0.0996  0.6721 -0.5397
   12CHTO    N5 4964   5.254  -0.957   1.250 -0.2235  0.5383  0.1193
   12CHTO   H43 4965   5.306  -0.865   1.274  1.1527 -0.3978  0.8209
   12CHTO   H44 4966   5.149  -0.944   1.230  0.3371  1.7013 -2.3352
   12CHTO   C25 4967   5.286  -0.960   0.992  0.9767  0.3270 -0.4081
   12CHTO   H53 4968   5.307  -0.852   0.989 -0.3741  0.6317  0.6248
   12CHTO   O17 4969   5.353  -1.021   0.885  0.6568 -0.3871 -0.1498
   12CHTO   C32 4970   5.498  -1.007   0.892 -0.5071 -0.0762 -0.0398
   12CHTO   H60 4971   5.521  -0.900   0.896  1.2055 -0.3273 -2.1144
   12CHTO   C36 4972   5.553  -1.068   0.755 -0.0279 -0.6482  0.5725
   12CHTO   O25 4973   5.520  -0.986   0.643 -0.5708  0.0340  0.6918
   12CHTO   H40 4974   5.551  -1.033   0.567 -0.6563  0.0929  0.6200
   12CHTO   O15 4975   5.156  -0.984   0.970 -0.0704 -0.4586  0.1278
   12CHTO   C19 4976   5.044  -0.939   0.890 -0.3083 -0.6812  0.4256
   12CHTO   H47 4977   5.023  -0.836   0.922 -1.0764 -0.3725 -1.0491
   12CHTO   C20 4978   5.075  -0.915   0.739  0.2011 -0.0283 -0.3001
   12CHTO   H48 4979   5.116  -1.005   0.691  0.2679 -1.6635  2.7361
   12CHTO   O19 4980   5.176  -0.808   0.728 -0.0300 -0.2742 -0.2592
   12CHTO   H35 4981   5.163  -0.775   0.641 -1.9134 -0.4487 -0.0630
   12CHTO   C21 4982   4.951  -0.875   0.650 -0.8308 -0.0493  0.4816
   12CHTO   H49 4983   4.926  -0.770   0.665 -2.3048 -0.3803  0.3757
   12CHTO    N4 4984   4.972  -0.878   0.501  0.3628  0.2432 -0.1753
   12CHTO   H41 4985   4.980  -0.980   0.468 -0.4135  0.4464 -1.0027
   12CHTO   H42 4986   5.057  -0.818   0.470  1.1084 -0.0589  1.2498
   12CHTO   C22 4987   4.828  -0.956   0.697  0.0608  0.3300 -0.0367
   12CHTO   H50 4988   4.836  -1.060   0.667 -1.9478  0.2564 -0.3793
   12CHTO   O14 4989   4.817  -0.950   0.842  0.3610  0.4702  0.3672
   12CHTO   C23 4990   4.916  -1.021   0.913 -0.5040 -0.4328 -0.3323
   12CHTO   H51 4991   4.922  -1.125   0.878  1.7339 -0.3179 -0.3594
   12CHTO   C34 4992   4.871  -1.018   1.056  0.5596 -0.2006 -1.1849
   12CHTO   O23 4993   4.967  -1.076   1.136  0.4311 -0.0584 -0.0589
   12CHTO   H38 4994   4.974  -1.169   1.124  1.7006  0.0702 -0.4186
   12CHTO   O16 4995   4.708  -0.899   0.637  0.3673 -0.0910  0.3319
   12CHTO   C24 4996   4.566  -0.984   0.635 -0.1252 -0.2154  0.2926
   12CHTO   H52 4997   4.481  -0.917   0.623  0.5540  0.7718  0.8171
   12CHTO   C26 4998   4.535  -1.071   0.758 -0.1856 -0.4425  0.9364
   12CHTO   H54 4999   4.613  -1.150   0.759 -0.2531 -0.6975 -3.3788
   12CHTO   O20 5000   4.538  -0.982   0.872 -0.0836  0.6216 -0.3576
   12CHTO   H36 5001   4.539  -1.035   0.950 -4.8221  0.0928 -0.5378
   12CHTO   C30 5002   4.402  -1.143   0.733 -0.2538 -0.4799 -0.6201
   12CHTO   H58 5003   4.322  -1.067   0.727  0.6940  0.5066 -0.9259
   12CHTO    N6 5004   4.374  -1.230   0.850 -0.0050  0.8965  0.2637
   12CHTO   H45 5005   4.357  -1.165   0.934 -0.8340  0.2838  0.5759
   12CHTO   H46 5006   4.456  -1.296   0.876  0.3792  0.8378 -1.0696
   12CHTO   C33 5007   4.405  -1.223   0.597  0.3910  0.7985 -0.4491
   12CHTO   H61 5008   4.480  -1.303   0.606  0.2719  0.9645  2.2873
   12CHTO   O18 5009   4.446  -1.139   0.493  0.0169 -0.2466  0.2386
   12CHTO   C28 5010   4.566  -1.067   0.515  0.0674  0.8783 -0.2556
   12CHTO   H56 5011   4.648  -1.139   0.519 -0.7881 -0.0025  1.9264
   12CHTO   C35 5012   4.589  -0.982   0.387 -0.3997  0.1494 -0.0583
   12CHTO   O24 5013   4.480  -0.897   0.357 -0.1999  0.0405 -0.0288
   12CHTO   H39 5014   4.490  -0.867   0.269 -1.3038 -0.6188 -0.3868
   12CHTO    O9 5015   4.284  -1.293   0.569  0.1031 -0.7582  0.0344
   12CHTO   C13 5016   4.288  -1.437   0.468 -0.3641  0.4880 -0.1000
   12CHTO   H26 5017   4.364  -1.436   0.387 -2.5160  3.7678 -2.2223
   12CHTO   C11 5018   4.143  -1.447   0.410  0.3356 -0.0271  0.2977
   12CHTO   H24 5019   4.120  -1.364   0.342  0.9117 -2.3356 -2.8431
   12CHTO    O8 5020   4.035  -1.435   0.505  0.5937  0.0206  0.2689
   12CHTO    H3 5021   4.054  -1.379   0.578 -2.1999  0.8169  0.4415
   12CHTO    C9 5022   4.137  -1.576   0.327  0.0946 -0.5793  0.4264
   12CHTO   H22 5023   4.223  -1.573   0.260  0.0630  1.4174  0.4314
   12CHTO    N2 5024   4.018  -1.576   0.240 -0.3877  0.0239 -0.2345
   12CHTO   H10 5025   4.030  -1.650   0.162  0.8130 -0.1755  0.1251
   12CHTO   H11 5026   4.001  -1.481   0.191  0.8773 -0.0973 -0.9366
   12CHTO    C7 5027   4.155  -1.695   0.430  1.0779  0.2263 -1.4342
   12CHTO   H20 5028   4.155  -1.779   0.357 -0.5988 -1.9242  0.9641
   12CHTO    O4 5029   4.284  -1.695   0.487 -0.4494 -0.1861  0.0030
   12CHTO   C14 5030   4.319  -1.569   0.551  0.3140 -0.2960  0.7515
   12CHTO   H27 5031   4.429  -1.578   0.565  0.4893  1.9929  1.0558
   12CHTO   C18 5032   4.255  -1.550   0.696  0.0249  0.0319 -1.0225
   12CHTO   O13 5033   4.313  -1.633   0.797 -0.2209 -0.6004 -0.4498
   12CHTO    H7 5034   4.403  -1.606   0.801 -0.0261 -1.2589 -0.3619
   12CHTO    O2 5035   4.040  -1.705   0.549 -0.5418  0.0223  0.4014
   12CHTO    C1 5036   3.971  -1.827   0.579  0.7773  0.0973 -0.4235
   12CHTO   H14 5037   3.978  -1.903   0.498 -2.7308 -0.6487 -0.0886
   12CHTO    C2 5038   3.823  -1.791   0.600 -0.5754  0.5339  0.0135
   12CHTO   H15 5039   3.824  -1.697   0.657 -1.4795  0.8761 -0.5315
   12CHTO    O6 5040   3.762  -1.773   0.474 -0.5758 -0.3495 -0.1160
   12CHTO    H1 5041   3.700  -1.842   0.459 -0.4394  0.1523 -3.3264
   12CHTO    C3 5042   3.737  -1.901   0.686 -0.0003  0.2454 -0.4651
   12CHTO   H16 5043   3.717  -1.986   0.620  0.4033  0.6172 -1.0787
   12CHTO    N1 5044   3.610  -1.838   0.749  0.5863  0.6099 -0.2073
   12CHTO    H8 5045   3.545  -1.787   0.680 -0.4526  0.3782  0.5975
   12CHTO    H9 5046   3.564  -1.917   0.805 -1.1081  2.1096  0.5722
   12CHTO    C4 5047   3.828  -1.964   0.805  0.4994 -0.1510 -0.1915
   12CHTO   H17 5048   3.842  -1.883   0.877  2.4894  0.3915 -1.1470
   12CHTO    O1 5049   3.951  -2.006   0.747 -0.2929 -0.1005 -0.0852
   12CHTO    C5 5050   4.030  -1.894   0.698  0.3627 -0.4205  0.1009
   12CHTO   H18 5051   4.038  -1.826   0.783 -0.4307 -1.2851  0.8767
   12CHTO   C16 5052   4.169  -1.959   0.679 -0.2153  0.2823 -0.3137
   12CHTO   O11 5053   4.163  -2.068   0.590 -0.4876 -0.9614 -0.0996
   12CHTO    H5 5054   4.102  -2.133   0.621  0.1287 -0.9792  1.1041
   12CHTO    O3 5055   3.769  -2.083   0.871  0.2437 -0.3004 -0.8269
   12CHTO    C6 5056   3.826  -2.096   1.009 -0.0786 -0.5707  0.2052
   12CHTO   H19 5057   3.919  -2.042   1.025 -0.7697 -0.0355  2.7230
   12CHTO    C8 5058   3.727  -2.052   1.121 -0.0012  0.5431 -0.1448
   12CHTO   H21 5059   3.641  -2.120   1.116 -0.6373  1.4395 -1.6098
   12CHTO    O7 5060   3.682  -1.919   1.084 -0.2402 -0.3692 -0.2621
   12CHTO    H2 5061   3.657  -1.928   0.994  2.7870 -0.1262 -1.1970
   12CHTO   C12 5062   3.800  -2.076   1.259  0.2619  1.1247 -0.0379
   12CHTO   H25 5063   3.893  -2.016   1.273  0.1317  1.5336 -0.8501
   12CHTO    N3 5064   3.718  -2.027   1.377 -0.2499 -0.6526 -0.0781
   12CHTO   H12 5065   3.668  -2.105   1.432 -1.2203 -0.7459 -1.0659
   12CHTO   H13 5066   3.773  -1.954   1.435 -2.1207  0.7454 -0.0165
   12CHTO   C15 5067   3.839  -2.228   1.263  0.5392 -0.3571 -1.1529
   12CHTO   H28 5068   3.753  -2.295   1.256  1.3933 -1.3169 -2.5550
   12CHTO   O10 5069   3.937  -2.251   1.372  0.0102 -0.3695  0.2968
   12CHTO    H4 5070   3.912  -2.205   1.451 -1.1381 -1.1039  0.3620
   12CHTO    O5 5071   3.918  -2.265   1.151  0.6794 -0.2047  0.1422
   12CHTO   C10 5072   3.856  -2.247   1.023  0.1021  0.5262 -0.0885
   12CHTO   H23 5073   3.767  -2.309   1.009  0.3602  0.2445 -0.4937
   12CHTO   C17 5074   3.966  -2.293   0.927  0.1481 -0.1239  0.7650
   12CHTO   O12 5075   3.915  -2.298   0.792 -0.1466 -0.3874 -0.3357
   12CHTO    H6 5076   3.860  -2.374   0.788 -0.6095 -0.0620 -0.1136
   13CHTO  H203 5077   7.143   4.285   0.083 -0.3056  0.6223 -1.2908
   13CHTO   O82 5078   7.057   4.254   0.061 -0.4205 -0.0164  0.0246
   13CHTO  C123 5079   7.014   4.334  -0.051 -0.8050 -0.2707  0.2579
   13CHTO  H227 5080   7.082   4.315  -0.135  0.6294  2.4612  0.7363
   13CHTO   O77 5081   6.874   4.281  -0.073 -0.0950 -0.2611  0.6583
   13CHTO  C118 5082   6.810   4.331  -0.194  0.4205 -0.3447 -0.1837
   13CHTO  H222 5083   6.884   4.323  -0.275  0.8582 -1.9916  0.3698
   13CHTO  C125 5084   6.691   4.226  -0.222 -0.0583 -0.9109 -0.1371
   13CHTO   O84 5085   6.600   4.281  -0.316  0.3956 -0.0512 -0.0038
   13CHTO  H205 5086   6.559   4.359  -0.284 -0.0436 -0.1069 -0.4330
   13CHTO  C114 5087   6.781   4.481  -0.156  0.5996 -0.1625  0.1820
   13CHTO  H218 5088   6.721   4.492  -0.066 -0.3887 -0.0539 -0.4903
   13CHTO  C116 5089   6.916   4.565  -0.127  0.7630  0.6677 -0.6299
   13CHTO  H220 5090   6.978   4.570  -0.219  1.6864 -0.3586 -0.0705
   13CHTO   O79 5091   6.872   4.693  -0.084  0.0495 -0.0777 -0.1284
   13CHTO  H201 5092   6.934   4.763  -0.090 -1.8584  1.7425  0.5832
   13CHTO  C120 5093   7.000   4.490  -0.013  0.1914  0.0351 -0.4779
   13CHTO  H224 5094   6.943   4.500   0.082  1.0279 -0.6093  0.0942
   13CHTO   N21 5095   7.130   4.565   0.011  0.1199  0.2057  0.3407
   13CHTO  H211 5096   7.194   4.486   0.047 -1.8306 -0.7499  1.8053
   13CHTO  H212 5097   7.111   4.638   0.089  0.2399 -0.2911  0.8407
   13CHTO   O75 5098   6.708   4.533  -0.266 -0.6796 -0.5134  0.0448
   13CHTO  C112 5099   6.544   4.624  -0.221 -0.2396 -0.4724  1.2324
   13CHTO  H216 5100   6.534   4.646  -0.114  0.8359 -1.0364  1.4617
   13CHTO   O73 5101   6.441   4.536  -0.272  0.0345 -0.2606 -0.0509
   13CHTO  C113 5102   6.311   4.564  -0.244  0.2737  0.2455  0.4551
   13CHTO  H217 5103   6.303   4.573  -0.133  1.4751  4.3262  0.3055
   13CHTO  C124 5104   6.217   4.450  -0.290 -0.4696  0.1397  0.3250
   13CHTO   O83 5105   6.225   4.333  -0.204 -0.1662 -0.4592  0.1243
   13CHTO  H204 5106   6.318   4.321  -0.197 -0.0497  0.3975  0.0123
   13CHTO  C109 5107   6.273   4.717  -0.296 -0.7931 -0.3059  0.1299
   13CHTO  H213 5108   6.277   4.717  -0.406  0.2331 -2.1991  0.1440
   13CHTO  C110 5109   6.385   4.813  -0.246  0.2649  0.1871  0.1284
   13CHTO  H214 5110   6.374   4.821  -0.138 -1.5245 -2.4442  0.1804
   13CHTO   O78 5111   6.346   4.945  -0.300 -0.0738 -0.6801 -0.2685
   13CHTO  H200 5112   6.404   5.014  -0.274 -0.7196 -0.5545  0.8682
   13CHTO  C111 5113   6.521   4.762  -0.289  0.0274 -0.1759  0.3156
   13CHTO  H215 5114   6.520   4.744  -0.397 -1.6140 -0.7568  0.4070
   13CHTO   N19 5115   6.637   4.845  -0.257 -0.5264 -0.2456  0.9764
   13CHTO  H207 5116   6.719   4.845  -0.327 -1.9116 -1.3123 -0.6706
   13CHTO  H208 5117   6.654   4.853  -0.151  3.7332  1.5759  0.2984
   13CHTO   O74 5118   6.136   4.732  -0.247 -0.1529 -0.3074 -0.4116
   13CHTO  C115 5119   6.069   4.869  -0.203 -0.5258 -0.1997  0.3644
   13CHTO  H219 5120   6.139   4.934  -0.150  0.0903 -1.0207  0.5712
   13CHTO   O76 5121   6.012   4.953  -0.326  0.3695 -0.5808 -0.2777
   13CHTO  C122 5122   5.900   4.899  -0.397 -0.3040  0.1010 -0.3130
   13CHTO  H226 5123   5.937   4.823  -0.466  0.0476  0.8991 -1.0129
   13CHTO  C126 5124   5.832   5.006  -0.484  0.2441  0.1553  0.3135
   13CHTO   O85 5125   5.899   5.033  -0.609  0.1379 -0.3642 -0.0562
   13CHTO  H206 5126   5.876   5.115  -0.648  1.0935 -1.5600 -3.3032
   13CHTO  C121 5127   5.792   4.835  -0.302 -0.5759 -0.0405 -0.3046
   13CHTO  H225 5128   5.686   4.851  -0.330 -0.1672  0.7213 -1.4332
   13CHTO   O81 5129   5.808   4.693  -0.313  0.3840  0.0544  0.1497
   13CHTO  H202 5130   5.730   4.651  -0.281  0.2762 -0.0831 -0.2970
   13CHTO  C119 5131   5.815   4.879  -0.149  0.7375 -0.4384  0.0206
   13CHTO  H223 5132   5.814   4.987  -0.143  1.2927 -0.1170 -4.4008
   13CHTO  C117 5133   5.958   4.843  -0.095  0.5181 -0.0340 -0.3882
   13CHTO  H221 5134   5.974   4.737  -0.074  0.9982  0.1689  0.2751
   13CHTO   N20 5135   5.987   4.911   0.041  0.0371  0.0300 -0.4181
   13CHTO  H209 5136   5.995   5.018   0.032 -2.4935  0.1889 -1.1476
   13CHTO  H210 5137   5.892   4.889   0.088  1.2002  0.4054  2.1894
   13CHTO   O80 5138   5.700   4.836  -0.055  0.6165  0.7960  0.0983
   13CHTO  C103 5139   5.573   4.943  -0.008 -0.0953  0.6547 -0.0875
   13CHTO  H190 5140   5.505   4.891   0.059 -0.0582  2.1248  1.1204
   13CHTO  C101 5141   5.623   5.075   0.072  0.1153 -0.1152  0.2084
   13CHTO  H188 5142   5.697   5.130   0.015  0.5555  0.5316  1.3865
   13CHTO   O68 5143   5.683   5.032   0.188 -0.1726 -0.0302  0.3244
   13CHTO  H168 5144   5.738   5.097   0.228 -0.8563 -0.6632  2.3214
   13CHTO   C99 5145   5.500   5.170   0.096 -0.0824  0.2589 -0.2281
   13CHTO  H186 5146   5.427   5.121   0.163  1.8576 -1.5519  0.5899
   13CHTO   N17 5147   5.538   5.304   0.165 -0.1100  0.5611 -0.6225
   13CHTO  H174 5148   5.485   5.309   0.259 -0.3493  1.0929 -0.7845
   13CHTO  H175 5149   5.644   5.322   0.180  0.1287  0.6837 -2.3439
   13CHTO   C97 5150   5.429   5.196  -0.036 -0.0750  0.0420 -0.2238
   13CHTO  H184 5151   5.507   5.253  -0.089 -0.9946  2.1445  0.6303
   13CHTO   O64 5152   5.388   5.072  -0.105 -0.1041  0.3827  0.2019
   13CHTO  C104 5153   5.495   4.987  -0.136 -0.3822  0.0536 -0.2737
   13CHTO  H191 5154   5.562   5.035  -0.207 -0.5293 -1.2271 -1.3046
   13CHTO  C108 5155   5.445   4.859  -0.202  0.0103  0.5754 -0.4986
   13CHTO   O71 5156   5.406   4.882  -0.335  0.4761 -0.2600 -0.1362
   13CHTO  H171 5157   5.332   4.940  -0.339  1.9332  1.5470 -1.8378
   13CHTO   O62 5158   5.309   5.270  -0.016  0.1666 -0.6944  0.1986
   13CHTO   C91 5159   5.261   5.343  -0.127 -0.1059  0.2279 -0.1072
   13CHTO  H178 5160   5.305   5.306  -0.219  0.8107  1.3589 -0.1376
   13CHTO   C92 5161   5.317   5.491  -0.126  0.3267  0.4253 -0.0105
   13CHTO  H179 5162   5.291   5.548  -0.035  0.6713  2.3431 -1.0969
   13CHTO   O66 5163   5.462   5.490  -0.127  0.0143 -0.0891 -0.3794
   13CHTO  H166 5164   5.514   5.562  -0.155  1.8999 -1.2215  0.1039
   13CHTO   C93 5165   5.256   5.569  -0.247 -0.6604 -0.2225  0.3739
   13CHTO  H180 5166   5.288   5.520  -0.340 -1.8768 -1.4340  0.5795
   13CHTO   N16 5167   5.302   5.707  -0.262 -0.1401  0.0891  0.4141
   13CHTO  H172 5168   5.240   5.764  -0.329 -1.2972 -1.1762  0.3806
   13CHTO  H173 5169   5.405   5.692  -0.292 -0.3140  2.4221 -1.4496
   13CHTO   C94 5170   5.100   5.558  -0.236  0.3326 -0.4111 -0.7531
   13CHTO  H181 5171   5.067   5.589  -0.137  0.4144  0.7069 -1.0694
   13CHTO   O61 5172   5.070   5.421  -0.250 -0.6317 -0.1198 -0.1856
   13CHTO   C95 5173   5.106   5.334  -0.140 -0.2570 -0.4283  0.0026
   13CHTO  H182 5174   5.067   5.381  -0.049 -0.5892 -1.8895  0.6249
   13CHTO  C106 5175   5.050   5.195  -0.157  0.2650 -0.5850  0.5831
   13CHTO   O69 5176   4.921   5.198  -0.209 -0.0931 -0.0863 -0.3550
   13CHTO  H169 5177   4.864   5.257  -0.163  0.0604  0.6821 -1.1362
   13CHTO   O63 5178   5.025   5.634  -0.331  0.8068 -0.0826  0.4399
   13CHTO   C96 5179   4.860   5.643  -0.285  0.0604  0.4019  0.3388
   13CHTO  H183 5180   4.822   5.720  -0.351  0.0380 -0.1018 -0.2402
   13CHTO   C98 5181   4.821   5.676  -0.133 -0.1495 -0.3550 -0.2632
   13CHTO  H185 5182   4.866   5.598  -0.070  1.5725  1.1262  0.3807
   13CHTO   O67 5183   4.874   5.801  -0.096  0.0380  0.3628 -0.0600
   13CHTO  H167 5184   4.872   5.805  -0.002 -1.2035  1.6886 -0.1227
   13CHTO  C102 5185   4.663   5.660  -0.107  0.5606 -0.6334  0.2523
   13CHTO  H189 5186   4.621   5.747  -0.159  0.8180 -0.6403  0.0297
   13CHTO   N18 5187   4.624   5.672   0.034 -0.4699  0.3895 -0.5208
   13CHTO  H176 5188   4.645   5.769   0.076  1.5436 -0.4981  0.5550
   13CHTO  H177 5189   4.673   5.605   0.103  0.4371  1.7121  0.1264
   13CHTO  C105 5190   4.615   5.522  -0.162 -0.0005 -0.2025  0.3150
   13CHTO  H192 5191   4.653   5.444  -0.096 -0.9035 -0.8629  0.0535
   13CHTO   O65 5192   4.646   5.511  -0.300  0.1928 -0.4485  0.0164
   13CHTO  C100 5193   4.787   5.504  -0.324 -0.1030  0.4957 -0.2025
   13CHTO  H187 5194   4.827   5.421  -0.264  1.0125  0.9822 -0.2782
   13CHTO  C107 5195   4.808   5.455  -0.468  0.0676 -0.0613  0.5241
   13CHTO   O70 5196   4.753   5.322  -0.491 -0.2314 -0.0068 -0.3565
   13CHTO  H170 5197   4.743   5.311  -0.583 -1.1763  0.5278 -0.3178
   13CHTO   O57 5198   4.435   5.513  -0.141  0.0673  0.1773  0.0592
   13CHTO   C85 5199   4.348   5.587  -0.225  0.0539  0.2343  0.7140
   13CHTO  H157 5200   4.407   5.674  -0.260  0.2044  0.5731  1.8058
   13CHTO   C83 5201   4.239   5.638  -0.129  0.0313  0.0238 -0.6687
   13CHTO  H155 5202   4.289   5.697  -0.052  0.2863 -0.1528 -0.6954
   13CHTO   O56 5203   4.175   5.529  -0.053 -0.2223  0.0223 -0.4723
   13CHTO  H135 5204   4.124   5.561   0.019 -0.6202  1.7309 -1.4888
   13CHTO   C81 5205   4.143   5.730  -0.208 -0.1720  0.4380  0.0251
   13CHTO  H153 5206   4.204   5.806  -0.257 -0.0101  0.3840  0.1440
   13CHTO   N14 5207   4.048   5.800  -0.118 -0.2692  0.4999 -0.0519
   13CHTO  H141 5208   3.985   5.735  -0.060 -0.7342  0.5248 -0.5243
   13CHTO  H142 5209   4.114   5.855  -0.055 -0.2835  0.7608 -0.2635
   13CHTO   C79 5210   4.069   5.643  -0.322  0.0841 -0.4946  0.5157
   13CHTO  H151 5211   4.006   5.710  -0.380  1.8688 -0.6007 -1.6427
   13CHTO   O52 5212   4.172   5.593  -0.420  0.4115 -0.3349 -0.0246
   13CHTO   C86 5213   4.275   5.509  -0.348 -0.6988 -0.6129 -0.5460
   13CHTO  H158 5214   4.213   5.424  -0.312  1.0918 -0.9557  1.7955
   13CHTO   C90 5215   4.373   5.447  -0.453 -0.7699  0.2696 -0.2289
   13CHTO   O60 5216   4.309   5.341  -0.524  0.2369 -0.2100 -0.0816
   13CHTO  H138 5217   4.355   5.265  -0.492  2.3688  1.3379  0.6417
   13CHTO   O50 5218   4.000   5.528  -0.272  0.7159 -0.3845  0.4917
   13CHTO   C73 5219   3.908   5.450  -0.348  0.4264  0.3820  0.2772
   13CHTO  H145 5220   3.949   5.443  -0.450  0.8263 -1.2713  0.5368
   13CHTO   C74 5221   3.776   5.529  -0.337 -0.7883 -0.4906 -0.2052
   13CHTO  H146 5222   3.784   5.635  -0.367  1.0211 -0.6432 -0.3138
   13CHTO   O54 5223   3.689   5.475  -0.435  0.5118 -0.5846 -0.0012
   13CHTO  H133 5224   3.731   5.484  -0.519 -1.6918 -0.2451 -1.1067
   13CHTO   C75 5225   3.725   5.510  -0.183 -0.3626  0.0953 -0.2521
   13CHTO  H147 5226   3.796   5.567  -0.120 -0.1844 -0.0288 -0.3391
   13CHTO   N13 5227   3.594   5.576  -0.155  0.1225  0.3030  0.3257
   13CHTO  H139 5228   3.546   5.557  -0.059 -0.5563  0.7628  0.0831
   13CHTO  H140 5229   3.525   5.561  -0.237  0.9933  2.2907 -0.7975
   13CHTO   C76 5230   3.724   5.360  -0.133  0.0125  0.1136  0.2804
   13CHTO  H148 5231   3.667   5.303  -0.206  1.5164  1.1443 -1.7504
   13CHTO   O49 5232   3.857   5.298  -0.154 -0.0274 -0.1140  0.2346
   13CHTO   C77 5233   3.898   5.298  -0.291 -0.2073 -0.7656 -0.4597
   13CHTO  H149 5234   3.823   5.248  -0.353 -1.2519  0.5844 -0.3054
   13CHTO   C88 5235   4.034   5.216  -0.306 -0.3441  0.3640 -0.0422
   13CHTO   O58 5236   4.055   5.172  -0.437  0.6909 -0.3269 -0.2086
   13CHTO  H136 5237   4.146   5.150  -0.449  0.7339 -0.2751  0.0173
   13CHTO   O51 5238   3.666   5.344   0.035 -0.0265  0.3702  0.1604
   13CHTO   C78 5239   3.778   5.365   0.160 -0.0713 -0.0993  0.0210
   13CHTO  H150 5240   3.729   5.353   0.259 -0.1000  1.0331  0.1457
   13CHTO   C80 5241   3.847   5.504   0.150  0.2698 -0.4242  0.6759
   13CHTO  H152 5242   3.905   5.501   0.056  1.7823 -2.8207  1.6413
   13CHTO   O55 5243   3.747   5.607   0.144  0.0257 -0.4127 -0.1933
   13CHTO  H134 5244   3.700   5.616   0.064 -0.0797  1.9110  0.1137
   13CHTO   C84 5245   3.949   5.526   0.271  0.1205 -0.4983  0.4445
   13CHTO  H156 5246   3.889   5.539   0.361  0.8747  0.2788  0.8332
   13CHTO   N15 5247   4.031   5.652   0.261  0.3661 -0.4501 -0.3633
   13CHTO  H143 5248   4.095   5.655   0.346  1.2681  2.0266 -1.0717
   13CHTO  H144 5249   3.971   5.741   0.259 -0.1481 -0.7929 -0.5422
   13CHTO   C87 5250   4.036   5.397   0.289  0.0947  0.0815 -0.5808
   13CHTO  H159 5251   4.117   5.402   0.216  1.0739 -2.9782  0.2115
   13CHTO   O53 5252   3.957   5.268   0.281 -0.4522  0.5218  0.1865
   13CHTO   C82 5253   3.885   5.255   0.158  0.4452  0.5572  0.4388
   13CHTO  H154 5254   3.949   5.259   0.070 -1.2145 -0.5711 -0.8486
   13CHTO   C89 5255   3.810   5.115   0.157 -0.2752 -0.0278  0.0911
   13CHTO   O59 5256   3.899   5.004   0.123  0.3187 -0.7890  0.3574
   13CHTO  H137 5257   3.986   5.037   0.138  0.4164 -1.1205  0.5137
   13CHTO   O45 5258   4.091   5.401   0.427 -0.0163 -0.0765  0.4254
   13CHTO   C67 5259   4.231   5.370   0.423 -0.1283  0.5834 -0.0046
   13CHTO  H124 5260   4.268   5.329   0.329 -1.8357 -0.2886 -0.3232
   13CHTO   C65 5261   4.310   5.501   0.470 -0.2151  0.1114 -1.1084
   13CHTO  H122 5262   4.249   5.588   0.446 -0.3344 -0.0502 -1.3846
   13CHTO   O44 5263   4.429   5.505   0.386  0.1141  0.3732 -0.2778
   13CHTO  H102 5264   4.433   5.585   0.337  0.9343  0.6852  0.2851
   13CHTO   C63 5265   4.341   5.495   0.626  0.1575 -0.5580  0.7920
   13CHTO  H120 5266   4.246   5.478   0.677  0.3739 -2.7648  0.5077
   13CHTO   N11 5267   4.389   5.622   0.691  0.2221 -0.5035  0.0006
   13CHTO  H108 5268   4.484   5.651   0.651 -0.8655 -0.6010 -2.7389
   13CHTO  H109 5269   4.314   5.697   0.676  1.2657  0.2375 -1.7344
   13CHTO   C61 5270   4.429   5.367   0.652 -0.0753 -0.2188  0.1956
   13CHTO  H118 5271   4.408   5.347   0.758  2.4854  0.6789  0.9240
   13CHTO   O40 5272   4.394   5.251   0.578  0.0017 -0.1608  0.2419
   13CHTO   C68 5273   4.257   5.248   0.522 -0.1865 -0.3670 -0.5929
   13CHTO  H125 5274   4.191   5.263   0.610  0.9547 -0.1707  0.2328
   13CHTO   C72 5275   4.235   5.106   0.468 -0.0695  0.2924  0.2125
   13CHTO   O48 5276   4.183   5.018   0.565 -0.0495  0.0979 -0.1133
   13CHTO  H105 5277   4.196   4.928   0.540  4.3800  0.5758 -0.0419
   13CHTO   O38 5278   4.566   5.386   0.624  0.1862  0.1575  0.0766
   13CHTO   C55 5279   4.662   5.323   0.714 -0.0052  0.3485  0.5153
   13CHTO  H112 5280   4.619   5.227   0.745 -0.5156  1.1291  2.2962
   13CHTO   C56 5281   4.683   5.426   0.839  0.1345  0.6379 -0.0174
   13CHTO  H113 5282   4.683   5.526   0.794  0.8404  2.1767  3.2680
   13CHTO   O42 5283   4.572   5.423   0.929 -0.1783 -0.8047 -0.4082
   13CHTO  H100 5284   4.505   5.479   0.894  1.0963  0.4940 -0.8298
   13CHTO   C57 5285   4.819   5.388   0.915  0.3949  0.9280 -0.2325
   13CHTO  H114 5286   4.803   5.296   0.971  0.9622  0.4541 -0.8333
   13CHTO   N10 5287   4.854   5.486   1.018  0.2470  0.3932 -0.2827
   13CHTO  H106 5288   4.961   5.499   1.027  0.3280  0.6483 -1.6155
   13CHTO  H107 5289   4.812   5.470   1.116 -1.7873  3.1258 -0.6530
   13CHTO   C58 5290   4.935   5.360   0.814  0.4036 -0.5445  0.1006
   13CHTO  H115 5291   4.952   5.457   0.763 -0.6313 -0.4803 -0.1301
   13CHTO   O37 5292   4.905   5.257   0.726  0.4813 -0.6002 -0.1030
   13CHTO   C59 5293   4.796   5.291   0.643  0.1505  0.8011  0.0057
   13CHTO  H116 5294   4.826   5.379   0.587 -1.1469  2.1700  1.4279
   13CHTO   C70 5295   4.768   5.182   0.544 -0.2239  0.3744 -0.1277
   13CHTO   O46 5296   4.890   5.149   0.475 -0.5815  0.5655  0.2766
   13CHTO  H103 5297   4.890   5.075   0.417 -1.6691 -0.1485  1.1722
   13CHTO   O39 5298   5.074   5.305   0.916  0.1097 -0.2040 -0.6220
   13CHTO   C60 5299   5.204   5.357   0.883  0.2539  0.0062 -1.0027
   13CHTO  H117 5300   5.208   5.364   0.774  1.0441 -1.2190 -1.0566
   13CHTO   C62 5301   5.212   5.500   0.947 -0.0153  0.2967 -0.1262
   13CHTO  H119 5302   5.135   5.553   0.887  0.1287 -0.2627 -0.8169
   13CHTO   O43 5303   5.165   5.498   1.085  0.2489 -0.2571  0.1006
   13CHTO  H101 5304   5.203   5.566   1.138 -1.2067  0.0697  0.7419
   13CHTO   C66 5305   5.354   5.569   0.920  0.6986 -0.0656 -0.2962
   13CHTO  H123 5306   5.375   5.568   0.813 -0.1086 -2.6306 -0.4629
   13CHTO   N12 5307   5.345   5.716   0.957 -0.3834  0.2936  0.1367
   13CHTO  H110 5308   5.241   5.735   0.976 -0.1541 -1.4503  3.5172
   13CHTO  H111 5309   5.389   5.778   0.880  2.0401 -0.5813  0.7746
   13CHTO   C69 5310   5.459   5.484   0.989 -0.3826  0.8974  0.7061
   13CHTO  H126 5311   5.424   5.461   1.092  3.2215  0.6754  1.9461
   13CHTO   O41 5312   5.467   5.349   0.912 -0.0435  0.1656 -0.2734
   13CHTO   C64 5313   5.321   5.271   0.927 -0.1022 -0.0748  0.0040
   13CHTO  H121 5314   5.304   5.237   1.032  0.5806 -0.4034  0.0039
   13CHTO   C71 5315   5.341   5.141   0.849 -0.4099  0.2428  0.7241
   13CHTO   O47 5316   5.458   5.078   0.890 -0.0021  0.5056  0.7214
   13CHTO  H104 5317   5.444   4.995   0.848 -0.8127  1.3205 -0.6633
   13CHTO   O34 5318   5.609   5.548   0.991  0.4882 -0.0626 -0.7055
   13CHTO   C49 5319   5.746   5.626   1.024  0.5164  0.2623 -0.3156
   13CHTO   H91 5320   5.827   5.556   1.005  1.9920  1.4870  1.2649
   13CHTO   C47 5321   5.740   5.661   1.172 -0.0278 -0.1680 -0.9886
   13CHTO   H89 5322   5.838   5.709   1.191  0.0818  0.0571 -2.0916
   13CHTO   O33 5323   5.717   5.549   1.259  0.1246 -0.0593  0.3458
   13CHTO   H70 5324   5.753   5.467   1.232  0.1656 -0.0703  0.4331
   13CHTO   C45 5325   5.625   5.771   1.189  0.8957 -0.0816  0.6955
   13CHTO   H87 5326   5.525   5.734   1.163  0.2129  1.6124  0.8610
   13CHTO    N8 5327   5.607   5.810   1.333 -0.3065 -0.2781  0.1748
   13CHTO   H75 5328   5.528   5.767   1.393  0.3746 -1.7527  0.0251
   13CHTO   H76 5329   5.625   5.913   1.358  0.0353  0.1835 -1.8696
   13CHTO   C43 5330   5.643   5.901   1.095 -0.1151 -0.2444  0.0670
   13CHTO   H85 5331   5.544   5.947   1.097 -0.4742 -0.5839 -4.6249
   13CHTO   O29 5332   5.676   5.868   0.960 -0.2185  0.1029  0.0101
   13CHTO   C50 5333   5.762   5.755   0.940 -0.5497  0.3109  1.0368
   13CHTO   H92 5334   5.748   5.717   0.837 -1.2564  0.2272  1.1587
   13CHTO   C54 5335   5.915   5.795   0.946 -0.3713  0.2140  0.1958
   13CHTO   O36 5336   6.009   5.703   0.880 -0.2979  0.2625  0.1703
   13CHTO   H72 5337   6.077   5.688   0.943  0.1446  2.3444  0.2282
   13CHTO   O27 5338   5.734   5.997   1.144 -0.7108 -0.1051  1.0267
   13CHTO   C37 5339   5.724   6.135   1.120  0.7725  0.0039  0.1610
   13CHTO   H79 5340   5.667   6.145   1.026 -0.2853 -1.3285  0.6458
   13CHTO   C38 5341   5.632   6.208   1.227  0.3988  0.7142  0.9738
   13CHTO   H80 5342   5.676   6.189   1.325  0.2552 -1.5184  0.6206
   13CHTO   O31 5343   5.499   6.156   1.220  0.2661 -0.5231 -0.0321
   13CHTO   H68 5344   5.476   6.154   1.129  2.6835 -0.9159 -0.6662
   13CHTO   C39 5345   5.627   6.366   1.205 -0.3572  0.3277  0.4689
   13CHTO   H81 5346   5.573   6.389   1.114 -1.7734  1.6996  1.6306
   13CHTO    N7 5347   5.561   6.439   1.319 -0.6092 -0.2950  0.4551
   13CHTO   H73 5348   5.479   6.381   1.358  0.3338 -0.6597  1.9417
   13CHTO   H74 5349   5.543   6.538   1.279  0.0907 -1.0867 -1.8917
   13CHTO   C40 5350   5.771   6.421   1.185 -0.0058  0.4421 -0.2165
   13CHTO   H82 5351   5.821   6.420   1.282 -0.8064  2.6462  0.2468
   13CHTO   O26 5352   5.840   6.349   1.081  0.1105 -0.7750  0.6598
   13CHTO   C41 5353   5.855   6.210   1.109 -0.7103  0.0697  0.4090
   13CHTO   H83 5354   5.907   6.198   1.205 -0.8970 -2.1673  0.2519
   13CHTO   C52 5355   5.955   6.164   0.995 -0.0776  0.0053  0.3935
   13CHTO   O35 5356   5.894   6.158   0.846 -0.4589 -0.1140 -0.2332
   13CHTO   H71 5357   5.911   6.072   0.813 -0.7378 -0.7431  1.2117
   13CHTO   O28 5358   5.776   6.562   1.144 -0.1315 -0.2957 -0.1211
   13CHTO   C42 5359   5.885   6.624   1.063  0.2641 -0.1722 -0.6842
   13CHTO   H84 5360   5.960   6.545   1.056  0.1037 -0.3767 -0.0710
   13CHTO   C44 5361   5.952   6.740   1.138  0.2332  1.0560 -0.3289
   13CHTO   H86 5362   5.875   6.811   1.167 -0.3811  0.1184  0.3421
   13CHTO   O32 5363   6.028   6.692   1.256 -0.8231  0.1739  0.3758
   13CHTO   H69 5364   6.106   6.651   1.226 -0.5358  1.2173 -0.3505
   13CHTO   C48 5365   6.042   6.821   1.042 -0.3626 -1.0154 -0.4159
   13CHTO   H90 5366   6.120   6.749   1.016  0.2386 -1.2276  1.8501
   13CHTO    N9 5367   6.119   6.937   1.100 -0.3651  0.1057  0.2102
   13CHTO   H77 5368   6.200   6.980   1.043  0.9990 -5.1648 -2.1413
   13CHTO   H78 5369   6.052   7.016   1.131  0.0350  1.2601 -1.7960
   13CHTO   C51 5370   5.959   6.864   0.921  0.4656  0.4290 -0.8953
   13CHTO   H93 5371   5.871   6.908   0.967  0.0566 -1.5405  0.2576
   13CHTO   O30 5372   5.932   6.741   0.849  0.1626  0.0892  0.4709
   13CHTO   C46 5373   5.842   6.665   0.916  0.9461  0.3102 -1.6656
   13CHTO   H88 5374   5.746   6.716   0.929 -0.5341 -2.1451 -2.7756
   13CHTO   C53 5375   5.806   6.542   0.836  0.2961  0.3489 -0.6991
   13CHTO   O72 5376   5.763   6.583   0.703  0.0769 -0.4190  0.3467
   13CHTO  H199 5377   5.778   6.520   0.635  1.2147  1.7303 -1.4670
   13CHTO   O22 5378   6.027   6.956   0.833  0.3086 -0.2493  0.6663
   13CHTO   C31 5379   5.933   7.043   0.751  0.0529  0.6906  0.3063
   13CHTO   H59 5380   5.999   7.101   0.684 -1.8379  1.4037 -0.9738
   13CHTO   C29 5381   5.844   6.953   0.659 -0.0738  0.3426 -0.4835
   13CHTO   H57 5382   5.773   6.900   0.725  0.1716  1.2859  0.5622
   13CHTO   O21 5383   5.933   6.851   0.598 -0.6343  0.7231  0.4406
   13CHTO   H37 5384   6.015   6.843   0.644 -0.2953  1.4690 -0.0169
   13CHTO   C27 5385   5.764   7.042   0.566  0.7339 -0.6813 -0.0675
   13CHTO   H55 5386   5.831   7.110   0.512  0.4389  0.3142  0.8192
   13CHTO    N5 5387   5.686   6.970   0.467 -0.2524 -0.2390 -0.0457
   13CHTO   H43 5388   5.580   6.951   0.476 -0.7265  0.8720 -2.9100
   13CHTO   H44 5389   5.713   6.962   0.363 -1.0835 -0.2516 -0.2627
   13CHTO   C25 5390   5.680   7.140   0.647 -0.0210  0.0381 -0.4451
   13CHTO   H53 5391   5.605   7.094   0.713 -1.2671  1.5088 -0.8257
   13CHTO   O17 5392   5.770   7.225   0.726  0.7024  0.3373 -0.4620
   13CHTO   C32 5393   5.848   7.153   0.825 -0.2916 -0.7358 -0.5078
   13CHTO   H60 5394   5.787   7.108   0.904  0.0648  0.8277  0.6746
   13CHTO   C36 5395   5.937   7.262   0.884 -0.2731  0.2358  0.5432
   13CHTO   O25 5396   5.880   7.386   0.923  0.0082  0.3595  0.2349
   13CHTO   H40 5397   5.936   7.456   0.897  0.6297 -0.8028 -1.6471
   13CHTO   O15 5398   5.582   7.232   0.547  0.0041 -0.3400 -0.6291
   13CHTO   C19 5399   5.458   7.292   0.598  0.4805  0.3671  0.5834
   13CHTO   H47 5400   5.450   7.267   0.705 -1.5751  2.0604  0.8573
   13CHTO   C20 5401   5.465   7.450   0.583  0.3836  0.3759  0.1331
   13CHTO   H48 5402   5.484   7.476   0.478  0.3148 -2.0547 -0.5136
   13CHTO   O19 5403   5.573   7.499   0.668  0.2020  0.2681  0.4110
   13CHTO   H35 5404   5.638   7.544   0.616  1.8559 -0.5063  1.7463
   13CHTO   C21 5405   5.330   7.519   0.639 -0.0495  0.9758  0.3256
   13CHTO   H49 5406   5.333   7.512   0.747  0.0420  1.0912  0.3301
   13CHTO    N4 5407   5.321   7.663   0.600  0.0028 -0.2585  0.3928
   13CHTO   H41 5408   5.311   7.688   0.496  1.1279 -1.5866 -0.0543
   13CHTO   H42 5409   5.240   7.708   0.655  0.3798  2.5778 -1.3266
   13CHTO   C22 5410   5.214   7.436   0.584 -0.3398 -0.3114  0.1803
   13CHTO   H50 5411   5.200   7.457   0.478  0.3382  0.7966  0.2963
   13CHTO   O14 5412   5.230   7.299   0.612  0.1368  0.3131 -0.6875
   13CHTO   C23 5413   5.332   7.239   0.539 -0.0910  0.3691 -0.4545
   13CHTO   H51 5414   5.315   7.274   0.436 -1.2862  0.1387 -0.3462
   13CHTO   C34 5415   5.309   7.088   0.564  0.4986 -0.3068  0.1488
   13CHTO   O23 5416   5.198   7.051   0.483  0.0860  0.3865  0.6643
   13CHTO   H38 5417   5.227   7.065   0.395  0.5375  0.3213  0.7994
   13CHTO   O16 5418   5.089   7.472   0.644 -0.2656  0.4033 -0.1935
   13CHTO   C24 5419   4.949   7.442   0.547  0.6322 -0.7032 -0.2961
   13CHTO   H52 5420   4.975   7.406   0.448  1.4042  1.5599 -0.9390
   13CHTO   C26 5421   4.862   7.566   0.540  0.6932 -0.2528 -0.2509
   13CHTO   H54 5422   4.867   7.619   0.637  0.3397 -0.6458 -0.0196
   13CHTO   O20 5423   4.927   7.651   0.449  0.2053  0.0639  0.4417
   13CHTO   H36 5424   4.936   7.628   0.359  1.6442  1.3395  0.2277
   13CHTO   C30 5425   4.715   7.538   0.491  0.5563  0.1895  0.4501
   13CHTO   H58 5426   4.720   7.513   0.384 -1.1318 -1.2103  0.6800
   13CHTO    N6 5427   4.634   7.661   0.495 -0.0191  0.1092  0.6637
   13CHTO   H45 5428   4.666   7.738   0.426 -0.1101  0.3781  0.9233
   13CHTO   H46 5429   4.534   7.628   0.470  0.1564  0.2493 -0.2449
   13CHTO   C33 5430   4.660   7.415   0.572  0.1684  0.0484 -0.6097
   13CHTO   H61 5431   4.652   7.441   0.678 -1.1797  1.6393 -1.0739
   13CHTO   O18 5432   4.744   7.309   0.549  0.7627  0.4693  0.1333
   13CHTO   C28 5433   4.866   7.328   0.617 -0.3353 -0.5364 -0.9490
   13CHTO   H56 5434   4.846   7.349   0.721  0.5413  1.7987 -1.2382
   13CHTO   C35 5435   4.934   7.189   0.631 -0.2004 -0.3577 -0.0276
   13CHTO   O24 5436   4.865   7.093   0.712  0.6804 -0.1490 -1.0598
   13CHTO   H39 5437   4.801   7.050   0.660 -0.1580 -0.6476  0.3619
   13CHTO    O9 5438   4.525   7.388   0.535 -0.1840 -0.0203 -0.5552
   13CHTO   C13 5439   4.458   7.259   0.610 -0.6188  0.8532  0.4208
   13CHTO   H26 5440   4.525   7.225   0.691 -0.1341 -0.3896 -0.4826
   13CHTO   C11 5441   4.432   7.140   0.502 -0.0446 -0.5456  0.0363
   13CHTO   H24 5442   4.529   7.099   0.469 -0.6073 -0.7520 -1.3980
   13CHTO    O8 5443   4.352   7.179   0.389  0.3419 -0.7556 -0.6192
   13CHTO    H3 5444   4.259   7.182   0.401  0.6733  2.7986  1.6230
   13CHTO    C9 5445   4.375   7.027   0.590 -0.2602  0.5851 -0.0215
   13CHTO   H22 5446   4.444   7.016   0.675  0.6361 -3.0766 -1.1361
   13CHTO    N2 5447   4.373   6.900   0.510 -0.1301  0.8241  0.2125
   13CHTO   H10 5448   4.317   6.822   0.559 -1.1152  1.1371 -0.3813
   13CHTO   H11 5449   4.328   6.916   0.413 -1.3760 -0.5041  0.5586
   13CHTO    C7 5450   4.238   7.064   0.655 -0.3378 -0.3420 -0.2109
   13CHTO   H20 5451   4.252   7.026   0.758  2.5263 -0.8415 -0.7525
   13CHTO    O4 5452   4.210   7.206   0.651 -0.3078 -0.7360 -0.1012
   13CHTO   C14 5453   4.317   7.292   0.685 -0.1185 -0.2845  0.2852
   13CHTO   H27 5454   4.324   7.274   0.794 -2.8541  1.4925  0.8239
   13CHTO   C18 5455   4.270   7.434   0.667 -0.4462 -0.9376  0.2504
   13CHTO   O13 5456   4.374   7.531   0.698  0.1671 -0.0643  0.1381
   13CHTO    H7 5457   4.423   7.509   0.775  0.1402  2.8410  1.0679
   13CHTO    O2 5458   4.099   6.978   0.589  0.1192 -0.2265 -0.1537
   13CHTO    C1 5459   4.014   6.928   0.693 -0.2829 -0.5183  0.7022
   13CHTO   H14 5460   4.075   6.885   0.775 -0.8618  0.2272  1.5390
   13CHTO    C2 5461   3.916   6.811   0.634 -0.0507 -0.3097 -0.0101
   13CHTO   H15 5462   3.871   6.855   0.544 -0.2352  0.2632  0.3585
   13CHTO    O6 5463   4.002   6.698   0.597  0.5005  0.5224  0.0977
   13CHTO    H1 5464   4.067   6.722   0.534 -0.6740 -0.8888 -1.7366
   13CHTO    C3 5465   3.802   6.762   0.739  0.5170  0.3509  0.1920
   13CHTO   H16 5466   3.850   6.735   0.834  1.7411  0.1277 -0.4901
   13CHTO    N1 5467   3.714   6.651   0.693  0.1359 -0.5383  0.1392
   13CHTO    H8 5468   3.718   6.652   0.585  1.5127 -1.3294  0.1722
   13CHTO    H9 5469   3.757   6.558   0.727  0.9398 -0.5830 -0.9661
   13CHTO    C4 5470   3.722   6.891   0.780  0.2786 -0.6008 -0.5947
   13CHTO   H17 5471   3.691   6.947   0.691  1.6443 -0.3777 -0.9411
   13CHTO    O1 5472   3.813   6.980   0.845  0.1645 -0.2373  0.4263
   13CHTO    C5 5473   3.923   7.035   0.762  0.0491 -0.7214  0.3855
   13CHTO   H18 5474   3.878   7.093   0.682  1.7407  1.3114  0.8439
   13CHTO   C16 5475   3.994   7.136   0.863 -0.5525 -0.3374 -0.7564
   13CHTO   O11 5476   3.909   7.238   0.921 -0.4333  0.5456 -0.6641
   13CHTO    H5 5477   3.836   7.194   0.960  0.5843  0.5084  1.2506
   13CHTO    O3 5478   3.609   6.868   0.868 -0.7458  0.3308  0.0294
   13CHTO    C6 5479   3.537   6.991   0.903 -0.4337 -0.2772  0.2399
   13CHTO   H19 5480   3.592   7.084   0.888 -2.1101  0.9409  1.4260
   13CHTO    C8 5481   3.399   7.013   0.818  0.1119 -0.1328  0.2224
   13CHTO   H21 5482   3.335   6.927   0.840  0.1268 -0.6007 -1.4985
   13CHTO    O7 5483   3.433   7.024   0.679 -0.0052 -0.0159 -0.5341
   13CHTO    H2 5484   3.438   6.933   0.655  2.4941 -0.3670  1.0934
   13CHTO   C12 5485   3.325   7.142   0.871 -0.5736  0.3336 -0.4279
   13CHTO   H25 5486   3.384   7.231   0.843  1.7889 -1.1760 -0.3726
   13CHTO    N3 5487   3.192   7.159   0.805  0.4336 -0.1369 -0.1240
   13CHTO   H12 5488   3.204   7.225   0.721  0.9062 -0.8688 -0.6377
   13CHTO   H13 5489   3.147   7.068   0.767 -0.6722 -1.2838  3.7399
   13CHTO   C15 5490   3.313   7.131   1.029 -0.3540 -0.3497  0.1862
   13CHTO   H28 5491   3.245   7.052   1.061  0.9362 -1.0284  1.3081
   13CHTO   O10 5492   3.276   7.280   1.095 -0.4158  0.2671  0.1196
   13CHTO    H4 5493   3.221   7.270   1.170  0.2501 -0.3502  0.5259
   13CHTO    O5 5494   3.440   7.104   1.096  0.3359 -0.0861 -0.0741
   13CHTO   C10 5495   3.501   6.985   1.048 -0.5775  0.8195 -0.0588
   13CHTO   H23 5496   3.441   6.896   1.069 -1.0741  1.3848  0.9079
   13CHTO   C17 5497   3.620   6.977   1.144  0.4346  0.1095  0.5926
   13CHTO   O12 5498   3.674   6.844   1.131  0.0522  0.0358 -0.5839
   13CHTO    H6 5499   3.750   6.857   1.078  0.3938  2.3879  0.3973
   14CHTO  H203 5500   5.627   4.395   0.483  1.9385 -1.3605  0.1997
   14CHTO   O82 5501   5.674   4.453   0.426  0.3136  0.3089  0.5070
   14CHTO  C123 5502   5.589   4.565   0.393 -0.5884  0.8378 -0.8245
   14CHTO  H227 5503   5.651   4.654   0.373 -1.6689  1.5946 -0.8351
   14CHTO   O77 5504   5.539   4.509   0.264 -0.5578  0.1825  0.4590
   14CHTO  C118 5505   5.484   4.620   0.186 -0.0299 -0.2901 -0.1050
   14CHTO  H222 5506   5.561   4.698   0.178  0.0761 -0.3538  0.2820
   14CHTO  C125 5507   5.448   4.560   0.042 -0.0681 -0.3403 -0.8827
   14CHTO   O84 5508   5.563   4.529  -0.031  0.0552 -0.0763  0.3787
   14CHTO  H205 5509   5.613   4.608  -0.042  0.0539  0.1501  1.8085
   14CHTO  C114 5510   5.352   4.670   0.254 -0.1780  0.4886 -0.1143
   14CHTO  H218 5511   5.276   4.594   0.239 -0.0768  0.5863 -1.1589
   14CHTO  C116 5512   5.373   4.692   0.407  0.1830 -0.1749 -1.0903
   14CHTO  H220 5513   5.419   4.790   0.433  1.5256 -0.9698 -0.4734
   14CHTO   O79 5514   5.242   4.717   0.469 -0.2548  0.7579 -0.4548
   14CHTO  H201 5515   5.179   4.657   0.436 -0.8593  0.1171  1.7475
   14CHTO  C120 5516   5.458   4.586   0.483 -0.1612  1.2511 -0.5672
   14CHTO  H224 5517   5.398   4.493   0.490  0.9237  0.5334 -0.5759
   14CHTO   N21 5518   5.485   4.624   0.622 -0.1865  0.3758  0.1826
   14CHTO  H211 5519   5.406   4.588   0.686  2.6444 -1.0629  3.0334
   14CHTO  H212 5520   5.486   4.732   0.630 -2.5610  0.5770 -1.7251
   14CHTO   O75 5521   5.312   4.790   0.184 -0.2679 -0.3924  0.3205
   14CHTO  C112 5522   5.161   4.787   0.130 -0.3705 -1.0626 -0.1348
   14CHTO  H216 5523   5.103   4.727   0.201 -0.6036 -1.2991 -0.5230
   14CHTO   O73 5524   5.153   4.730  -0.004  0.1031  0.3155  0.2826
   14CHTO  C113 5525   5.015   4.702  -0.041 -0.1846 -0.0478 -0.3855
   14CHTO  H217 5526   4.968   4.633   0.032 -1.1109  2.2745  1.2543
   14CHTO  C124 5527   5.013   4.632  -0.176 -0.2636  0.4562  0.1073
   14CHTO   O83 5528   5.088   4.698  -0.280 -0.0719  0.4518  0.1853
   14CHTO  H204 5529   5.064   4.789  -0.278  0.4152  0.6092 -0.6282
   14CHTO  C109 5530   4.921   4.825  -0.036  0.5777  0.3370 -0.4648
   14CHTO  H213 5531   4.941   4.890  -0.123  0.1849  0.2648 -0.6092
   14CHTO  C110 5532   4.941   4.909   0.090  0.1526 -0.0309 -0.4150
   14CHTO  H214 5533   4.883   4.862   0.170  1.5181  1.1371  1.3131
   14CHTO   O78 5534   4.875   5.033   0.074 -0.5712 -0.1007 -0.6720
   14CHTO  H200 5535   4.937   5.089   0.032 -2.0049 -0.8576 -3.9318
   14CHTO  C111 5536   5.091   4.925   0.124 -0.0702 -0.5700 -0.2554
   14CHTO  H215 5537   5.141   4.979   0.043  0.8952 -0.6640  0.2782
   14CHTO   N19 5538   5.123   5.000   0.247 -0.0883 -0.0313  0.5743
   14CHTO  H207 5539   5.032   5.026   0.299 -0.3341 -0.6177  0.4466
   14CHTO  H208 5540   5.175   5.084   0.205 -0.6304 -1.0467 -2.2063
   14CHTO   O74 5541   4.784   4.776  -0.043  0.0982 -0.4500  0.0830
   14CHTO  C115 5542   4.667   4.861  -0.109  0.1184 -0.3854 -0.4227
   14CHTO  H219 5543   4.587   4.877  -0.037  0.4275  0.3194 -0.2354
   14CHTO   O76 5544   4.710   5.005  -0.148 -0.0870  0.4094  0.3912
   14CHTO  C122 5545   4.623   5.078  -0.231  0.6011  0.7547  0.0938
   14CHTO  H226 5546   4.677   5.147  -0.296  0.5263 -0.6684 -1.5069
   14CHTO  C126 5547   4.543   5.165  -0.129 -0.1497  0.4389 -0.5527
   14CHTO   O85 5548   4.426   5.232  -0.176  0.1343  0.0322 -0.0863
   14CHTO  H206 5549   4.345   5.198  -0.142 -0.0989  1.1244  0.4873
   14CHTO  C121 5550   4.533   5.002  -0.336  0.0619  0.1795  0.0283
   14CHTO  H225 5551   4.445   5.067  -0.354  0.8594  1.3460  0.2455
   14CHTO   O81 5552   4.601   4.979  -0.457  0.3479 -0.1818 -0.2225
   14CHTO  H202 5553   4.533   4.960  -0.520  0.1394  0.3021 -0.1460
   14CHTO  C119 5554   4.484   4.862  -0.280  0.4773  0.4327 -0.2888
   14CHTO  H223 5555   4.426   4.886  -0.191  1.9973  0.2881  0.7566
   14CHTO  C117 5556   4.604   4.785  -0.227 -0.7614 -0.1399  0.1417
   14CHTO  H221 5557   4.687   4.777  -0.297 -1.7189  1.2783 -1.1904
   14CHTO   N20 5558   4.563   4.642  -0.192  0.1700  0.5847 -0.0532
   14CHTO  H209 5559   4.648   4.577  -0.178  0.5436  1.2227  0.6895
   14CHTO  H210 5560   4.481   4.612  -0.256  0.2195 -0.0924  0.2026
   14CHTO   O80 5561   4.368   4.786  -0.373 -0.3471  0.0738  0.7415
   14CHTO  C103 5562   4.240   4.867  -0.422 -0.5082 -0.3979  0.2517
   14CHTO  H190 5563   4.248   4.971  -0.391  0.2835 -0.6295  0.8296
   14CHTO  C101 5564   4.217   4.860  -0.588  0.0055  0.2618 -0.0590
   14CHTO  H188 5565   4.239   4.756  -0.612 -2.4984  0.1754 -2.2030
   14CHTO   O68 5566   4.333   4.958  -0.650 -0.6264  0.0733 -0.1431
   14CHTO  H168 5567   4.289   5.029  -0.693 -0.3882 -0.1166 -0.7105
   14CHTO   C99 5568   4.067   4.895  -0.640 -0.2922  0.4793 -0.4359
   14CHTO  H186 5569   4.062   5.006  -0.631 -0.5935  0.4846 -0.6306
   14CHTO   N17 5570   4.044   4.870  -0.785  0.1315 -0.0136  0.3900
   14CHTO  H174 5571   3.947   4.905  -0.814  0.4679  0.5014 -0.1128
   14CHTO  H175 5572   4.115   4.915  -0.853 -2.4597 -0.4369 -2.6952
   14CHTO   C97 5573   3.961   4.842  -0.540  0.0249 -0.1258  0.2924
   14CHTO  H184 5574   3.947   4.733  -0.550  0.5535 -0.1561 -0.1452
   14CHTO   O64 5575   3.997   4.879  -0.408 -0.7910  0.2150  0.7454
   14CHTO  C104 5576   4.109   4.805  -0.357 -0.1412 -0.1577 -0.0195
   14CHTO  H191 5577   4.105   4.699  -0.382  0.3384  0.0396 -0.9537
   14CHTO  C108 5578   4.114   4.815  -0.209 -0.7521 -0.0770 -0.2342
   14CHTO   O71 5579   4.189   4.710  -0.148 -0.5348  0.0314 -0.1661
   14CHTO  H171 5580   4.135   4.636  -0.128 -1.2976  1.2538  2.4605
   14CHTO   O62 5581   3.834   4.909  -0.570  0.1837 -0.2704  0.3111
   14CHTO   C91 5582   3.719   4.873  -0.489  0.4306 -0.0058 -0.0240
   14CHTO  H178 5583   3.747   4.791  -0.423  2.7558  2.3714  2.0525
   14CHTO   C92 5584   3.612   4.826  -0.590  0.2610 -0.0886  0.4852
   14CHTO  H179 5585   3.659   4.763  -0.667 -0.1225  1.9108 -1.4343
   14CHTO   O66 5586   3.517   4.740  -0.519  0.4366  0.2721 -0.3827
   14CHTO  H166 5587   3.569   4.686  -0.463 -0.1875 -1.3382 -1.2940
   14CHTO   C93 5588   3.531   4.937  -0.660  0.0700 -0.2292  0.0681
   14CHTO  H180 5589   3.433   4.895  -0.685 -0.5728  1.0227  0.4125
   14CHTO   N16 5590   3.587   4.990  -0.787  0.0324  0.2559 -0.3208
   14CHTO  H172 5591   3.608   4.917  -0.863  1.0569 -0.5881  0.7672
   14CHTO  H173 5592   3.677   5.040  -0.754 -0.5093  1.9396 -1.2937
   14CHTO   C94 5593   3.513   5.067  -0.569 -0.1674  0.1326 -0.5536
   14CHTO  H181 5594   3.584   5.146  -0.594  1.1939 -0.4737  1.3431
   14CHTO   O61 5595   3.539   5.032  -0.431 -0.3219  0.3947  0.2900
   14CHTO   C95 5596   3.674   4.995  -0.403 -0.3535  0.2935 -0.0231
   14CHTO  H182 5597   3.733   5.084  -0.425  0.2067  0.0106  0.3396
   14CHTO  C106 5598   3.687   4.950  -0.244 -0.1996 -0.1563 -0.1912
   14CHTO   O69 5599   3.649   5.040  -0.148  0.5867  0.3182 -0.0862
   14CHTO  H169 5600   3.707   5.114  -0.147  0.9238  0.0668 -0.3844
   14CHTO   O63 5601   3.362   5.119  -0.571  0.4016 -0.3440  0.4076
   14CHTO   C96 5602   3.372   5.285  -0.523  0.3229 -0.1193 -0.6117
   14CHTO  H183 5603   3.467   5.300  -0.470  0.4057  0.9349 -1.0395
   14CHTO   C98 5604   3.256   5.328  -0.430  0.0909  0.3274 -0.3405
   14CHTO  H185 5605   3.159   5.305  -0.475 -0.4353 -1.6442  1.7443
   14CHTO   O67 5606   3.263   5.243  -0.312 -0.0334  0.1281  0.0518
   14CHTO  H167 5607   3.231   5.160  -0.343 -1.4490  0.4927  0.5201
   14CHTO  C102 5608   3.259   5.485  -0.384  0.4815  0.0450 -0.9612
   14CHTO  H189 5609   3.345   5.492  -0.316 -0.5178  2.2037  0.0951
   14CHTO   N18 5610   3.140   5.535  -0.308  0.1964 -0.0064 -0.8753
   14CHTO  H176 5611   3.152   5.639  -0.279 -0.4637  0.0646 -0.8562
   14CHTO  H177 5612   3.046   5.514  -0.356  0.6968 -1.5639 -1.2044
   14CHTO  C105 5613   3.296   5.577  -0.507  0.5667  0.2407 -0.5211
   14CHTO  H192 5614   3.208   5.587  -0.570 -0.1262  0.3183  0.4531
   14CHTO   O65 5615   3.399   5.515  -0.586  0.4243  0.2548  0.6148
   14CHTO  C100 5616   3.359   5.386  -0.641 -0.0174 -0.0834 -0.1166
   14CHTO  H187 5617   3.256   5.397  -0.676  0.9242  2.0676 -2.3335
   14CHTO  C107 5618   3.461   5.368  -0.748 -0.7211 -0.0334  0.3518
   14CHTO   O70 5619   3.414   5.263  -0.835  0.0140 -1.0627 -0.1472
   14CHTO  H170 5620   3.481   5.197  -0.836  0.8074 -0.2941  0.9370
   14CHTO   O57 5621   3.347   5.725  -0.443 -0.5509  0.5679  0.1216
   14CHTO   C85 5622   3.369   5.842  -0.522  0.3611  0.5773  0.4648
   14CHTO  H157 5623   3.344   5.810  -0.625 -0.5589  0.2544  0.7913
   14CHTO   C83 5624   3.523   5.855  -0.525  0.3133  0.6420 -0.1456
   14CHTO  H155 5625   3.547   5.763  -0.579 -1.3454  0.4968 -0.6786
   14CHTO   O56 5626   3.593   5.856  -0.395 -0.2785 -0.0977 -0.7541
   14CHTO  H135 5627   3.580   5.777  -0.347  1.0260  0.5562  0.7321
   14CHTO   C81 5628   3.565   5.976  -0.612 -0.2887  0.0502  0.1942
   14CHTO  H153 5629   3.537   5.957  -0.716 -0.8144  0.4974  0.2559
   14CHTO   N14 5630   3.716   5.989  -0.625 -0.1517 -0.3692 -0.2797
   14CHTO  H141 5631   3.750   5.903  -0.678  1.8647  0.0674  0.2606
   14CHTO  H142 5632   3.752   5.988  -0.525 -0.0904 -0.9370 -0.3068
   14CHTO   C79 5633   3.488   6.105  -0.559 -0.7096 -0.2906 -0.0585
   14CHTO  H151 5634   3.503   6.181  -0.635 -0.9502 -1.0132 -0.8425
   14CHTO   O52 5635   3.348   6.088  -0.559  0.8139 -0.4626 -0.4777
   14CHTO   C86 5636   3.298   5.977  -0.487 -0.5837 -0.4462  0.7169
   14CHTO  H158 5637   3.307   6.016  -0.383 -0.8186  0.3550  0.4419
   14CHTO   C90 5638   3.146   5.969  -0.503  0.3999  0.3764  0.6193
   14CHTO   O60 5639   3.098   5.931  -0.636 -0.1359  0.0887  0.1413
   14CHTO  H138 5640   3.008   5.905  -0.636 -0.1882  0.2206 -1.2747
   14CHTO   O50 5641   3.540   6.171  -0.440 -0.3210 -0.5320 -0.4793
   14CHTO   C73 5642   3.566   6.270  -0.343 -0.0092  0.4104 -0.3777
   14CHTO  H145 5643   3.482   6.265  -0.273 -0.3498  1.5712 -0.6872
   14CHTO   C74 5644   3.580   6.415  -0.395  0.3053 -0.3798 -0.1008
   14CHTO  H146 5645   3.486   6.446  -0.443  1.0916  0.8209 -0.9129
   14CHTO   O54 5646   3.596   6.504  -0.281  0.1443  0.2598 -0.4419
   14CHTO  H133 5647   3.676   6.554  -0.277  0.6934 -0.6378  0.1315
   14CHTO   C75 5648   3.702   6.421  -0.497 -0.2627  0.3911  0.1926
   14CHTO  H147 5649   3.684   6.352  -0.580 -0.2731  0.8869 -0.2186
   14CHTO   N13 5650   3.740   6.550  -0.559 -0.1323  0.4910  0.1523
   14CHTO  H139 5651   3.763   6.629  -0.490 -1.4048  1.7495 -0.8310
   14CHTO  H140 5652   3.823   6.542  -0.627 -1.1702  0.6212 -1.1658
   14CHTO   C76 5653   3.830   6.348  -0.432 -0.4106  0.3932  0.1245
   14CHTO  H148 5654   3.873   6.412  -0.354  0.3096 -1.7244  1.5304
   14CHTO   O49 5655   3.802   6.222  -0.373 -0.3511 -0.2640 -0.5316
   14CHTO   C77 5656   3.705   6.226  -0.270 -0.1300 -0.2633 -0.4237
   14CHTO  H149 5657   3.733   6.304  -0.200  1.0700 -0.3486 -0.7907
   14CHTO   C88 5658   3.698   6.092  -0.189 -0.2283 -0.4632 -0.1374
   14CHTO   O58 5659   3.798   6.060  -0.110 -0.2065 -0.1192  1.2534
   14CHTO  H136 5660   3.872   6.035  -0.164 -0.3627  0.0869  0.9445
   14CHTO   O51 5661   3.925   6.306  -0.559  0.1562  0.3719  0.6258
   14CHTO   C78 5662   4.079   6.305  -0.533  0.5170 -0.3126 -0.0218
   14CHTO  H150 5663   4.087   6.344  -0.429 -1.4785 -0.2451  0.1229
   14CHTO   C80 5664   4.154   6.400  -0.628  0.7146  0.0761  0.3286
   14CHTO  H152 5665   4.132   6.366  -0.732 -1.0771 -1.2170  1.0855
   14CHTO   O55 5666   4.111   6.534  -0.609  0.5137  0.5677  0.0323
   14CHTO  H134 5667   4.100   6.571  -0.694  1.8593  0.2896 -0.2713
   14CHTO   C84 5668   4.307   6.393  -0.594  0.0020 -0.2177  0.2287
   14CHTO  H156 5669   4.329   6.432  -0.495  0.1107  0.9008 -0.2263
   14CHTO   N15 5670   4.392   6.468  -0.697  0.0674 -0.0467  0.2716
   14CHTO  H143 5671   4.351   6.457  -0.794 -0.5904  1.9818  0.2831
   14CHTO  H144 5672   4.401   6.573  -0.678  2.7639 -0.3190  0.7081
   14CHTO   C87 5673   4.365   6.248  -0.600 -0.2800  0.1124 -0.0960
   14CHTO  H159 5674   4.360   6.200  -0.698 -1.5786 -0.3867  0.1983
   14CHTO   O53 5675   4.278   6.168  -0.506  0.2146  0.4883 -0.1547
   14CHTO   C82 5676   4.141   6.167  -0.537 -0.0684  0.3412 -0.1499
   14CHTO  H154 5677   4.126   6.125  -0.637 -1.4101 -0.8525  0.5219
   14CHTO   C89 5678   4.070   6.060  -0.444  0.0694  0.1017 -0.5436
   14CHTO   O59 5679   4.074   6.093  -0.304  0.4215 -0.1341 -0.2604
   14CHTO  H137 5680   3.998   6.055  -0.265 -2.2850  1.4314 -3.7660
   14CHTO   O45 5681   4.522   6.234  -0.544 -0.0158 -0.4424  0.1195
   14CHTO   C67 5682   4.570   6.109  -0.496 -0.2839 -0.4842  0.2867
   14CHTO  H124 5683   4.501   6.066  -0.423  0.1810 -0.2232  0.8830
   14CHTO   C65 5684   4.591   6.017  -0.617 -0.1950  0.3174  0.2496
   14CHTO  H122 5685   4.499   6.038  -0.672  0.6075  1.3284 -0.7204
   14CHTO   O44 5686   4.591   5.878  -0.570 -0.3550 -0.4018 -0.3262
   14CHTO  H102 5687   4.664   5.835  -0.611 -0.2630 -1.3064  0.7459
   14CHTO   C63 5688   4.711   6.077  -0.709  0.0740 -0.1211 -0.1372
   14CHTO  H120 5689   4.683   6.180  -0.730 -0.8180 -0.0733  1.2725
   14CHTO   N11 5690   4.713   6.027  -0.851 -0.2512  0.0062 -0.4581
   14CHTO  H108 5691   4.683   6.101  -0.923  0.3298 -0.2823 -0.9935
   14CHTO  H109 5692   4.806   5.976  -0.867 -0.4132 -0.7664  0.9886
   14CHTO   C61 5693   4.845   6.066  -0.630 -0.1557 -0.1076 -0.6362
   14CHTO  H118 5694   4.933   6.111  -0.678 -0.1221 -0.5909 -1.0289
   14CHTO   O40 5695   4.829   6.137  -0.497  0.3246 -0.4965  0.4186
   14CHTO   C68 5696   4.709   6.130  -0.420  0.0264 -0.6861 -0.2552
   14CHTO  H125 5697   4.692   6.218  -0.355  0.2563 -0.0346 -1.0672
   14CHTO   C72 5698   4.736   6.012  -0.321  0.1264  0.7201 -0.3510
   14CHTO   O48 5699   4.837   6.039  -0.224 -0.3356  0.6602 -0.4085
   14CHTO  H105 5700   4.823   5.980  -0.152 -1.2695  1.5225  0.1203
   14CHTO   O38 5701   4.877   5.924  -0.597 -0.1212 -0.1342 -0.5309
   14CHTO   C55 5702   4.994   5.863  -0.657  0.0218  0.0090  0.3728
   14CHTO  H112 5703   5.035   5.915  -0.744 -1.5469  0.0198 -0.3748
   14CHTO   C56 5704   4.959   5.711  -0.691  0.4128  0.0919  0.0784
   14CHTO  H113 5705   4.919   5.663  -0.600 -0.0378  0.3200  0.0027
   14CHTO   O42 5706   4.850   5.714  -0.780  0.0474 -0.2625  0.0796
   14CHTO  H100 5707   4.776   5.666  -0.746  0.6134 -0.8980  0.4116
   14CHTO   C57 5708   5.090   5.640  -0.750  0.0548 -0.4843 -0.5623
   14CHTO  H114 5709   5.109   5.696  -0.841 -0.3070  2.6926  1.2588
   14CHTO   N10 5710   5.077   5.495  -0.777 -0.2520 -0.8228 -0.7986
   14CHTO  H106 5711   4.977   5.472  -0.813 -0.8154 -0.1145  0.2928
   14CHTO  H107 5712   5.102   5.435  -0.691  1.4105  1.5074  0.3871
   14CHTO   C58 5713   5.208   5.661  -0.655 -0.4880  0.8622  0.3909
   14CHTO  H115 5714   5.186   5.604  -0.562 -3.0176  0.6117 -0.3375
   14CHTO   O37 5715   5.226   5.801  -0.630  0.1461 -0.1195  0.3907
   14CHTO   C59 5716   5.116   5.863  -0.558 -0.9876  0.2453  0.6443
   14CHTO  H116 5717   5.092   5.804  -0.469 -2.4008  1.1374  0.8702
   14CHTO   C70 5718   5.157   6.004  -0.505 -0.1873  0.4187  0.5490
   14CHTO   O46 5719   5.071   6.056  -0.401  0.0676 -0.3792 -0.2521
   14CHTO  H103 5720   5.120   6.099  -0.333 -0.6310 -0.6034  0.4105
   14CHTO   O39 5721   5.352   5.605  -0.719  0.4160 -0.4361 -0.1487
   14CHTO   C60 5722   5.460   5.583  -0.625  0.2195 -0.5847 -0.3842
   14CHTO  H117 5723   5.439   5.641  -0.535  0.5538  0.1789 -0.7950
   14CHTO   C62 5724   5.461   5.436  -0.588 -0.2330 -0.0415  0.2647
   14CHTO  H119 5725   5.364   5.407  -0.542 -0.8762 -0.4144 -1.3044
   14CHTO   O43 5726   5.501   5.357  -0.700 -0.3045 -0.0819  0.8622
   14CHTO  H101 5727   5.472   5.385  -0.785  1.8123  1.7607  0.7173
   14CHTO   C66 5728   5.564   5.406  -0.465 -0.3041  0.3761 -0.4773
   14CHTO  H123 5729   5.544   5.473  -0.381 -0.0753 -1.0100  0.7013
   14CHTO   N12 5730   5.545   5.267  -0.411  0.1727  0.2031 -0.3351
   14CHTO  H110 5731   5.450   5.258  -0.361 -1.2231  1.6226 -2.6091
   14CHTO  H111 5732   5.583   5.188  -0.473 -0.1448  0.5902 -1.0322
   14CHTO   C69 5733   5.708   5.440  -0.504  0.4407  0.0601  0.0287
   14CHTO  H126 5734   5.741   5.367  -0.580  1.3020  1.7883 -1.2729
   14CHTO   O41 5735   5.713   5.583  -0.557  0.2517  0.4207  0.3898
   14CHTO   C64 5736   5.600   5.622  -0.682  0.5212  0.2439  0.2885
   14CHTO  H121 5737   5.625   5.557  -0.768  0.6660 -1.0604  1.2950
   14CHTO   C71 5738   5.613   5.770  -0.718 -0.3470 -0.3657 -0.1440
   14CHTO   O47 5739   5.621   5.845  -0.595  0.1884  0.2068  0.3663
   14CHTO  H104 5740   5.532   5.869  -0.578 -0.0613  0.0515 -0.6581
   14CHTO   O34 5741   5.813   5.422  -0.386  0.5952 -0.2024  0.2076
   14CHTO   C49 5742   5.941   5.478  -0.301  0.1639  0.0836 -0.4799
   14CHTO   H91 5743   6.026   5.415  -0.328 -0.4556 -0.3773 -1.3926
   14CHTO   C47 5744   5.908   5.461  -0.151 -0.0898 -0.8918 -0.8768
   14CHTO   H89 5745   6.002   5.472  -0.094 -1.6049 -2.2008  1.9704
   14CHTO   O33 5746   5.866   5.322  -0.135 -0.1438 -0.4839 -0.2726
   14CHTO   H70 5747   5.783   5.304  -0.094  0.1508 -0.6653  0.2552
   14CHTO   C45 5748   5.789   5.562  -0.097 -0.1613 -0.0248 -0.8147
   14CHTO   H87 5749   5.698   5.499  -0.101  1.8946 -3.1821  0.2938
   14CHTO    N8 5750   5.818   5.591   0.046  0.2075  0.3202  0.7145
   14CHTO   H75 5751   5.800   5.694   0.072 -1.4343  0.3080 -0.2565
   14CHTO   H76 5752   5.769   5.513   0.102  0.3437 -0.4918 -0.2667
   14CHTO   C43 5753   5.764   5.686  -0.193 -0.0444 -0.6597 -0.2598
   14CHTO   H85 5754   5.698   5.645  -0.270 -0.3665 -1.6558  0.5473
   14CHTO   O29 5755   5.894   5.720  -0.250 -0.5414  0.0199 -0.1599
   14CHTO   C50 5756   5.963   5.627  -0.334 -0.0126 -0.0104  0.2396
   14CHTO   H92 5757   5.927   5.648  -0.436 -1.1232  1.2324  0.8745
   14CHTO   C54 5758   6.102   5.684  -0.337 -0.4082 -0.9175 -0.3972
   14CHTO   O36 5759   6.183   5.620  -0.432 -0.0406  0.5444 -0.1125
   14CHTO   H72 5760   6.144   5.636  -0.516  0.8121  0.7522 -0.4748
   14CHTO   O27 5761   5.678   5.786  -0.130 -0.0649  0.1742  0.5515
   14CHTO   C37 5762   5.649   5.927  -0.122 -0.3810  0.0901  0.6995
   14CHTO   H79 5763   5.735   5.983  -0.082 -0.7032 -0.5150  2.2912
   14CHTO   C38 5764   5.599   5.970  -0.266  0.1841 -0.7986 -0.1850
   14CHTO   H80 5765   5.523   5.902  -0.308 -0.8535 -0.1857  0.6506
   14CHTO   O31 5766   5.719   5.968  -0.344  0.0972  0.9952 -0.4329
   14CHTO   H68 5767   5.686   5.951  -0.430 -0.2924 -3.9755  0.5744
   14CHTO   C39 5768   5.536   6.114  -0.269  0.9048  0.5401 -0.3659
   14CHTO   H81 5769   5.613   6.186  -0.241  1.0121  0.7231 -1.1088
   14CHTO    N7 5770   5.486   6.168  -0.401  0.3732 -0.5109  0.3388
   14CHTO   H73 5771   5.392   6.217  -0.384  1.2136  1.0142  0.6220
   14CHTO   H74 5772   5.477   6.096  -0.482 -0.6282 -0.6922  0.5980
   14CHTO   C40 5773   5.422   6.127  -0.152 -0.8866 -0.5621  0.1684
   14CHTO   H82 5774   5.333   6.068  -0.174  0.3937 -2.6702  0.4642
   14CHTO   O26 5775   5.483   6.083  -0.029 -0.1794  0.1307 -0.1572
   14CHTO   C41 5776   5.529   5.947  -0.023  0.0307  0.5149 -0.0087
   14CHTO   H83 5777   5.447   5.879  -0.051 -0.5468  1.2822 -0.2094
   14CHTO   C52 5778   5.575   5.909   0.120 -0.3007  0.4551  0.0412
   14CHTO   O35 5779   5.461   5.947   0.238  0.8737 -0.1154  0.5914
   14CHTO   H71 5780   5.502   5.911   0.315  0.5211 -1.6687  0.0707
   14CHTO   O28 5781   5.389   6.268  -0.110 -0.3310 -0.0234  0.5612
   14CHTO   C42 5782   5.265   6.292  -0.045 -0.6057 -0.4844  0.1896
   14CHTO   H84 5783   5.270   6.393  -0.006  0.0317  0.4143 -2.1237
   14CHTO   C44 5784   5.231   6.201   0.086 -0.1936  0.0574 -0.0595
   14CHTO   H86 5785   5.214   6.099   0.052  1.4734 -0.0552 -0.5970
   14CHTO   O32 5786   5.345   6.211   0.175 -0.2425 -0.3582 -0.5033
   14CHTO   H69 5787   5.342   6.137   0.232 -1.3180 -0.9603 -1.3131
   14CHTO   C48 5788   5.090   6.219   0.159 -0.3823 -0.1315  0.0273
   14CHTO   H90 5789   5.077   6.320   0.199 -2.5541  0.0136 -0.9766
   14CHTO    N9 5790   5.064   6.127   0.270 -0.0043  0.2557 -0.4326
   14CHTO   H77 5791   5.015   6.187   0.345  1.6597  1.8854 -0.6181
   14CHTO   H78 5792   5.156   6.080   0.299  0.8474  2.0124 -0.2021
   14CHTO   C51 5793   4.977   6.217   0.052  0.1929  0.5839  0.3857
   14CHTO   H93 5794   4.964   6.118   0.009  0.3388  0.7638 -0.0693
   14CHTO   O30 5795   5.011   6.316  -0.046 -0.0971  0.0100 -0.0438
   14CHTO   C46 5796   5.137   6.281  -0.139 -1.0035 -0.1246  0.3333
   14CHTO   H88 5797   5.139   6.176  -0.170 -0.6838 -0.6095  1.9377
   14CHTO   C53 5798   5.139   6.377  -0.257  0.0036  0.1293  0.0486
   14CHTO   O72 5799   5.005   6.398  -0.307  0.0193 -0.0977 -0.5968
   14CHTO  H199 5800   4.979   6.320  -0.351 -2.0272 -0.1534  0.6461
   14CHTO   O22 5801   4.853   6.260   0.106 -0.2240 -0.2358 -0.1356
   14CHTO   C31 5802   4.722   6.200   0.074  0.5352  0.2821 -0.2623
   14CHTO   H59 5803   4.730   6.154  -0.027  1.9286 -2.2457  0.9745
   14CHTO   C29 5804   4.679   6.085   0.169  0.5787 -0.0200  0.1282
   14CHTO   H57 5805   4.689   6.126   0.271  0.1928 -0.2951  0.2772
   14CHTO   O21 5806   4.774   5.981   0.148 -0.8141 -0.1109  0.4111
   14CHTO   H37 5807   4.746   5.911   0.092 -0.6941 -0.7263  1.1161
   14CHTO   C27 5808   4.535   6.032   0.148 -0.1094  0.0575 -0.7326
   14CHTO   H55 5809   4.536   5.972   0.056  0.3396  0.9144 -1.2920
   14CHTO    N5 5810   4.478   5.943   0.253 -0.4324  0.5292  0.3863
   14CHTO   H43 5811   4.383   5.899   0.225  0.2914 -0.8506  0.0553
   14CHTO   H44 5812   4.544   5.871   0.299  0.6108  1.7644  0.8539
   14CHTO   C25 5813   4.438   6.158   0.113  1.0635 -0.3036  0.3694
   14CHTO   H53 5814   4.415   6.213   0.206 -0.2678  0.3805 -0.3524
   14CHTO   O17 5815   4.495   6.254   0.013  0.4959  0.6158  0.3725
   14CHTO   C32 5816   4.611   6.314   0.062 -0.0693  0.4176  0.4926
   14CHTO   H60 5817   4.595   6.362   0.159  0.8900 -1.1808  1.4618
   14CHTO   C36 5818   4.655   6.423  -0.043  0.4439 -0.0305 -0.7434
   14CHTO   O25 5819   4.568   6.535  -0.032  0.1728  0.1265  0.6210
   14CHTO   H40 5820   4.585   6.611  -0.084 -0.7370  1.6693  2.4973
   14CHTO   O15 5821   4.289   6.106   0.035 -0.1105  0.1475  0.4181
   14CHTO   C19 5822   4.171   6.190   0.009  0.0162  0.4004  0.1785
   14CHTO   H47 5823   4.108   6.136  -0.064 -0.1304  0.7561  0.0406
   14CHTO   C20 5824   4.083   6.213   0.136  0.0877 -0.2232 -0.1139
   14CHTO   H48 5825   4.134   6.276   0.210 -0.0496 -0.8580  0.5209
   14CHTO   O19 5826   4.044   6.087   0.192 -0.3349 -0.3621  0.1552
   14CHTO   H35 5827   4.110   6.021   0.203  0.4025  0.2273 -0.7584
   14CHTO   C21 5828   3.964   6.309   0.095  0.9657  0.1423  0.0200
   14CHTO   H49 5829   3.901   6.257   0.023 -0.2263  0.7655  0.6007
   14CHTO    N4 5830   3.869   6.332   0.208  0.1867  0.3704 -0.4307
   14CHTO   H41 5831   3.856   6.437   0.233 -1.3274 -0.1772  1.2301
   14CHTO   H42 5832   3.892   6.281   0.300 -1.4683  0.5624  0.1143
   14CHTO   C22 5833   4.016   6.442   0.043  0.2502  0.0932 -0.4600
   14CHTO   H50 5834   4.087   6.484   0.115  2.7504 -2.1936 -1.5170
   14CHTO   O14 5835   4.084   6.406  -0.078  0.0343 -0.6692 -0.2749
   14CHTO   C23 5836   4.201   6.325  -0.056 -0.4184 -0.4991 -0.1984
   14CHTO   H51 5837   4.272   6.386   0.002 -1.0550  2.2875 -2.1952
   14CHTO   C34 5838   4.268   6.299  -0.188 -0.3822  0.4078  0.0057
   14CHTO   O23 5839   4.329   6.413  -0.248 -0.6848 -0.1628 -0.5477
   14CHTO   H38 5840   4.374   6.380  -0.323  0.4504  1.1697 -0.4802
   14CHTO   O16 5841   3.906   6.534   0.006 -0.0448 -0.1775  0.1450
   14CHTO   C24 5842   3.939   6.682  -0.033 -0.8636  0.2941  0.3424
   14CHTO   H52 5843   3.855   6.749  -0.010 -2.9017 -1.7178 -1.0921
   14CHTO   C26 5844   3.961   6.686  -0.185 -0.4198  0.6735  0.1751
   14CHTO   H54 5845   4.024   6.600  -0.214 -0.5618  0.7866 -0.4670
   14CHTO   O20 5846   3.835   6.673  -0.254  0.0307  0.0975  0.4256
   14CHTO   H36 5847   3.813   6.582  -0.250 -1.2256  0.3803  0.1484
   14CHTO   C30 5848   4.040   6.816  -0.230 -0.2236 -0.6159  0.4091
   14CHTO   H58 5849   3.967   6.898  -0.227  2.1905  1.5711  0.8723
   14CHTO    N6 5850   4.088   6.808  -0.369  0.5298 -0.2022 -0.2545
   14CHTO   H45 5851   4.148   6.724  -0.400  2.0880  0.4862  0.8447
   14CHTO   H46 5852   4.008   6.822  -0.440 -0.0470  1.1456  0.6175
   14CHTO   C33 5853   4.157   6.851  -0.131  0.3155 -0.3727 -0.7955
   14CHTO   H61 5854   4.230   6.769  -0.129 -0.7931 -1.3595 -0.6369
   14CHTO   O18 5855   4.101   6.864  -0.000 -0.4828  0.2177  0.0875
   14CHTO   C28 5856   4.061   6.735   0.052  0.7526 -0.1338  0.6248
   14CHTO   H56 5857   4.143   6.664   0.040 -1.8803 -3.0372 -0.9431
   14CHTO   C35 5858   4.027   6.748   0.196  0.0413  0.2518 -0.5490
   14CHTO   O24 5859   4.140   6.809   0.267  0.3990 -0.3853  0.4586
   14CHTO   H39 5860   4.164   6.898   0.254  1.2989 -0.3423  2.2100
   14CHTO    O9 5861   4.229   6.972  -0.162 -0.0087  0.4079  0.4271
   14CHTO   C13 5862   4.386   6.967  -0.129 -0.1900  0.2747  0.1173
   14CHTO   H26 5863   4.416   6.864  -0.155 -2.4762 -0.3286 -0.2684
   14CHTO   C11 5864   4.415   6.997   0.023  0.5395  0.7826 -0.0209
   14CHTO   H24 5865   4.366   6.916   0.079 -0.2381  0.6692 -0.8419
   14CHTO    O8 5866   4.357   7.117   0.070  0.5036 -0.1417 -0.1579
   14CHTO    H3 5867   4.349   7.170  -0.008  2.7876 -0.6913 -0.8041
   14CHTO    C9 5868   4.566   6.977   0.043 -0.4924  0.0226  0.3103
   14CHTO   H22 5869   4.584   6.871   0.022 -1.8408 -0.2473  0.4474
   14CHTO    N2 5870   4.621   6.986   0.181  0.5395 -0.7880  0.1726
   14CHTO   H10 5871   4.541   6.951   0.244 -0.2127  0.0834 -0.2780
   14CHTO   H11 5872   4.703   6.917   0.193 -0.3361 -1.9863 -0.6590
   14CHTO    C7 5873   4.645   7.075  -0.043 -0.2281 -0.0680 -0.0259
   14CHTO   H20 5874   4.744   7.025  -0.043  1.1408  2.5673  1.2178
   14CHTO    O4 5875   4.606   7.076  -0.178  0.0931 -0.0906 -0.1072
   14CHTO   C14 5876   4.464   7.069  -0.217  0.1950 -0.5155 -0.3108
   14CHTO   H27 5877   4.460   7.029  -0.321 -0.6280 -1.5160  0.0966
   14CHTO   C18 5878   4.403   7.212  -0.222 -0.0888 -0.5795  0.1708
   14CHTO   O13 5879   4.442   7.279  -0.343  0.1936 -0.3178 -0.4602
   14CHTO    H7 5880   4.522   7.325  -0.324  0.6562 -2.2644  2.5531
   14CHTO    O2 5881   4.645   7.228   0.006 -0.3685  0.2512  0.2682
   14CHTO    C1 5882   4.771   7.296  -0.016 -0.3867 -0.0504 -0.7821
   14CHTO   H14 5883   4.812   7.279  -0.117  0.2766  1.3848 -0.7642
   14CHTO    C2 5884   4.883   7.260   0.092 -1.1607 -0.1583  0.9540
   14CHTO   H15 5885   4.833   7.259   0.190 -3.0891  0.8668  0.0055
   14CHTO    O6 5886   4.928   7.127   0.062  0.1080 -0.2921  0.3023
   14CHTO    H1 5887   4.985   7.099   0.131  0.1147  2.3722  1.4027
   14CHTO    C3 5888   5.005   7.365   0.089  0.1903  0.4658  0.4048
   14CHTO   H16 5889   5.076   7.345   0.008 -0.8888 -1.1263 -0.1610
   14CHTO    N1 5890   5.083   7.347   0.220 -0.7731 -0.0471  0.3831
   14CHTO    H8 5891   5.030   7.371   0.311 -1.9435  0.6870 -0.4731
   14CHTO    H9 5892   5.176   7.401   0.218 -0.1240 -1.1683 -0.7576
   14CHTO    C4 5893   4.952   7.512   0.083 -0.0252  0.1627  0.0618
   14CHTO   H17 5894   4.911   7.538   0.180  1.5400  1.1135  0.4895
   14CHTO    O1 5895   4.852   7.527  -0.025  0.4754  0.3021  0.2610
   14CHTO    C5 5896   4.733   7.450  -0.004 -0.3335  0.3657 -0.8073
   14CHTO   H18 5897   4.679   7.467   0.089  0.0561  3.0336 -1.0213
   14CHTO   C16 5898   4.643   7.476  -0.127 -0.6270 -0.0360  0.1263
   14CHTO   O11 5899   4.621   7.620  -0.143 -0.3939 -0.6602 -0.3190
   14CHTO    H5 5900   4.694   7.666  -0.180 -0.7729 -1.2804 -1.8697
   14CHTO    O3 5901   5.051   7.614   0.050  0.3639  0.0571  0.2280
   14CHTO    C6 5902   5.025   7.749   0.093  0.3771  0.2918 -0.7187
   14CHTO   H19 5903   4.933   7.755   0.151 -0.0160  1.4112 -1.4406
   14CHTO    C8 5904   5.153   7.786   0.171 -0.6593  0.5938 -0.1104
   14CHTO   H21 5905   5.240   7.774   0.107  0.0400 -0.3777  1.0081
   14CHTO    O7 5906   5.163   7.689   0.274  0.6582 -0.1201 -0.0927
   14CHTO    H2 5907   5.255   7.669   0.280  1.4499  3.0506 -1.1172
   14CHTO   C12 5908   5.142   7.932   0.228  0.3184  0.1729 -0.9093
   14CHTO   H25 5909   5.065   7.937   0.309  0.2573  1.4464 -1.0460
   14CHTO    N3 5910   5.263   7.968   0.304 -0.3878  0.1393  0.1427
   14CHTO   H12 5911   5.274   7.908   0.392  1.2751  0.1623 -0.0213
   14CHTO   H13 5912   5.347   7.946   0.240 -1.7370 -0.4376 -1.4622
   14CHTO   C15 5913   5.105   8.033   0.110  0.5611 -0.7630  0.3687
   14CHTO   H28 5914   5.192   8.049   0.047 -0.6877  1.8418 -0.7864
   14CHTO   O10 5915   5.039   8.175   0.158 -0.0584 -0.1213  0.1763
   14CHTO    H4 5916   4.982   8.164   0.232 -2.9468  3.1349 -1.4366
   14CHTO    O5 5917   4.995   7.992   0.021  0.1410  0.0732  1.2618
   14CHTO   C10 5918   5.013   7.854  -0.027  0.3533  0.1563 -1.1272
   14CHTO   H23 5919   5.103   7.850  -0.089  0.8737 -0.0383 -0.3584
   14CHTO   C17 5920   4.896   7.813  -0.120 -0.1945 -0.2438 -0.1309
   14CHTO   O12 5921   4.888   7.895  -0.240 -0.1757 -0.2524 -0.3029
   14CHTO    H6 5922   4.796   7.901  -0.257 -0.4901  0.2488  1.4974
   15CHTO  H203 5923   5.291   5.128   2.444 -2.1805 -0.3770  0.6323
   15CHTO   O82 5924   5.232   5.157   2.377 -0.4657  0.8500 -0.3797
   15CHTO  C123 5925   5.209   5.040   2.293 -0.4029 -0.0192  0.2978
   15CHTO  H227 5926   5.155   5.075   2.204 -0.0412 -1.3363 -0.4379
   15CHTO   O77 5927   5.341   5.005   2.245  0.1964  0.0170  0.2330
   15CHTO  C118 5928   5.343   4.920   2.130  0.3795  0.9116 -0.0448
   15CHTO  H222 5929   5.291   4.978   2.052 -3.7220 -3.1984 -0.5514
   15CHTO  C125 5930   5.494   4.903   2.090 -0.0061  0.0505 -0.7828
   15CHTO   O84 5931   5.576   4.838   2.187 -0.2059 -0.2009 -0.0342
   15CHTO  H205 5932   5.555   4.747   2.186 -2.1502  0.1894  1.7810
   15CHTO  C114 5933   5.262   4.792   2.147  0.1115  0.4429  0.2160
   15CHTO  H218 5934   5.317   4.721   2.209 -0.8128  0.3490  0.9424
   15CHTO  C116 5935   5.128   4.814   2.221  0.4231  0.1578 -0.1987
   15CHTO  H220 5936   5.055   4.860   2.151  0.3298  1.0984  0.5074
   15CHTO   O79 5937   5.079   4.683   2.262 -0.7314  0.2282 -0.4223
   15CHTO  H201 5938   5.046   4.641   2.185 -0.9079  3.3764 -2.1401
   15CHTO  C120 5939   5.141   4.907   2.351  0.4251  0.4538 -0.2153
   15CHTO  H224 5940   5.204   4.849   2.422 -0.7806 -0.5045  0.0990
   15CHTO   N21 5941   5.015   4.936   2.420  0.0063  0.5489  0.1070
   15CHTO  H211 5942   5.000   4.861   2.496  0.2723 -2.6202 -2.8459
   15CHTO  H212 5943   4.999   5.037   2.455  0.2124  0.5685  0.1455
   15CHTO   O75 5944   5.253   4.735   2.010  0.1547 -0.0971  0.7401
   15CHTO  C112 5945   5.268   4.555   2.003  0.5852  0.4282  0.0181
   15CHTO  H216 5946   5.269   4.518   2.107  0.1438 -0.9696 -0.4638
   15CHTO   O73 5947   5.389   4.528   1.934  0.1331  0.0408  0.3884
   15CHTO  C113 5948   5.428   4.397   1.930 -0.5518 -0.5328  0.9854
   15CHTO  H217 5949   5.463   4.362   2.030  0.5177  0.5469  0.9962
   15CHTO  C124 5950   5.550   4.385   1.840  0.0874 -0.4268 -0.6534
   15CHTO   O83 5951   5.673   4.441   1.883 -0.2341  0.4785 -0.1911
   15CHTO  H204 5952   5.747   4.433   1.825 -0.8822  2.3024 -1.3142
   15CHTO  C109 5953   5.316   4.300   1.878 -0.0803  0.4636  0.1050
   15CHTO  H213 5954   5.309   4.321   1.770  0.2225 -0.3484 -0.0818
   15CHTO  C110 5955   5.165   4.333   1.929  0.4228 -0.5992 -0.2190
   15CHTO  H214 5956   5.154   4.299   2.032 -1.5016 -0.7925 -0.4600
   15CHTO   O78 5957   5.076   4.265   1.837 -0.1904  0.2812 -0.0330
   15CHTO  H200 5958   5.050   4.183   1.876 -1.9082  1.4010  1.2789
   15CHTO  C111 5959   5.144   4.481   1.923 -0.8954  0.0684  0.2138
   15CHTO  H215 5960   5.157   4.511   1.818 -0.3630 -0.1821  0.2061
   15CHTO   N19 5961   5.010   4.528   1.963  0.1261 -0.2973 -0.6385
   15CHTO  H207 5962   5.002   4.636   1.971 -0.2266 -0.4961  1.8350
   15CHTO  H208 5963   4.990   4.478   2.056  2.1732  0.9765  0.5193
   15CHTO   O74 5964   5.341   4.155   1.900  0.1170 -0.0731  0.0267
   15CHTO  C115 5965   5.401   4.071   1.764  0.6235  0.4905 -0.0213
   15CHTO  H219 5966   5.423   4.141   1.684  0.6503  2.4108  1.6162
   15CHTO   O76 5967   5.533   4.002   1.799 -0.5646  0.1519  0.5359
   15CHTO  C122 5968   5.524   3.878   1.877  0.4609  0.0541  0.6686
   15CHTO  H226 5969   5.502   3.907   1.980 -0.0059  0.8197  0.3610
   15CHTO  C126 5970   5.671   3.814   1.881 -0.1544 -0.1826 -0.2769
   15CHTO   O85 5971   5.744   3.874   1.992 -0.1912 -0.0272 -0.0506
   15CHTO  H206 5972   5.700   3.872   2.075 -3.1960  1.9182 -1.5315
   15CHTO  C121 5973   5.417   3.771   1.831 -0.7337  0.7808 -0.3005
   15CHTO  H225 5974   5.472   3.680   1.800 -1.3266 -0.1695  1.3906
   15CHTO   O81 5975   5.335   3.734   1.942 -0.4985 -0.0680 -0.6239
   15CHTO  H202 5976   5.289   3.653   1.932  2.9300 -2.0875 -0.9387
   15CHTO  C119 5977   5.333   3.821   1.711 -0.1693 -0.1713  0.3530
   15CHTO  H223 5978   5.407   3.826   1.631  1.4119  0.0265  1.7874
   15CHTO  C117 5979   5.281   3.969   1.723 -0.1919  0.8592 -0.3470
   15CHTO  H221 5980   5.203   3.978   1.799 -1.1929 -0.1213 -1.2347
   15CHTO   N20 5981   5.214   4.019   1.599 -0.2573  0.3787  0.0166
   15CHTO  H209 5982   5.140   4.095   1.620 -1.4709 -1.4616  2.5569
   15CHTO  H210 5983   5.161   3.943   1.543 -0.5953 -0.4680  1.4788
   15CHTO   O80 5984   5.221   3.708   1.652  0.5946  0.6414 -0.0728
   15CHTO  C103 5985   5.240   3.563   1.671 -0.3856 -0.3066  0.2357
   15CHTO  H190 5986   5.305   3.532   1.753 -2.2509  1.7527  2.5656
   15CHTO  C101 5987   5.097   3.492   1.697  0.5149 -0.3987 -0.5702
   15CHTO  H188 5988   5.024   3.537   1.630 -1.1257 -0.7014  0.9684
   15CHTO   O68 5989   5.056   3.522   1.843  0.4062 -0.2837  0.1973
   15CHTO  H168 5990   5.094   3.458   1.900 -0.2594  2.0061  3.2961
   15CHTO   C99 5991   5.103   3.334   1.667 -0.3869 -0.1623 -0.0423
   15CHTO  H186 5992   5.157   3.278   1.746  1.7864 -1.2174 -2.1911
   15CHTO   N17 5993   4.970   3.271   1.675  0.2753 -0.4286 -0.2713
   15CHTO  H174 5994   4.898   3.352   1.669 -0.0298 -0.5159  1.8335
   15CHTO  H175 5995   4.948   3.214   1.764  1.3587 -1.7175 -0.8243
   15CHTO   C97 5996   5.182   3.297   1.537  0.2725 -0.1973  0.1676
   15CHTO  H184 5997   5.119   3.327   1.451 -1.4108 -0.1178  1.4044
   15CHTO   O64 5998   5.306   3.367   1.536 -0.3874 -0.0113 -0.3264
   15CHTO  C104 5999   5.304   3.510   1.530 -0.7087 -0.2180  0.4510
   15CHTO  H191 6000   5.247   3.557   1.450  1.7464  1.0485 -0.6066
   15CHTO  C108 6001   5.452   3.540   1.500  0.6429 -0.3560  0.6706
   15CHTO   O71 6002   5.480   3.493   1.369  0.1420  0.3608 -0.1198
   15CHTO  H171 6003   5.548   3.550   1.336 -1.7035  2.0267 -1.2135
   15CHTO   O62 6004   5.215   3.161   1.540  0.0709  0.1944  0.5480
   15CHTO   C91 6005   5.271   3.113   1.417 -0.1849 -0.2397 -0.0062
   15CHTO  H178 6006   5.246   3.187   1.341 -1.2202 -2.1107 -1.5436
   15CHTO   C92 6007   5.199   2.990   1.367  0.2605  0.4381 -0.0321
   15CHTO  H179 6008   5.091   3.010   1.367  0.2422  0.4027 -1.5648
   15CHTO   O66 6009   5.230   2.971   1.229  0.3753 -0.2935 -0.6199
   15CHTO  H166 6010   5.177   2.905   1.189 -0.2788  1.2301 -2.3638
   15CHTO   C93 6011   5.238   2.857   1.449 -0.0827 -0.4740 -0.0405
   15CHTO  H180 6012   5.210   2.771   1.386 -1.9820 -1.3072  1.9031
   15CHTO   N16 6013   5.160   2.834   1.576 -0.1111 -0.1064  0.5633
   15CHTO  H172 6014   5.169   2.730   1.605  0.5476 -0.5027 -1.0307
   15CHTO  H173 6015   5.060   2.874   1.575  0.1279  0.4597 -1.3821
   15CHTO   C94 6016   5.391   2.853   1.478 -0.0714  0.7009  0.1311
   15CHTO  H181 6017   5.411   2.872   1.583  0.3954 -0.2417  0.2185
   15CHTO   O61 6018   5.465   2.954   1.408  0.8958  0.4467  0.7646
   15CHTO   C95 6019   5.424   3.090   1.421 -0.2518  0.1591 -0.5875
   15CHTO  H182 6020   5.472   3.130   1.511  1.0707 -0.7735 -0.8628
   15CHTO  C106 6021   5.488   3.173   1.312 -0.0827  0.7298 -0.4812
   15CHTO   O69 6022   5.630   3.171   1.326  0.1987 -0.0395 -0.1662
   15CHTO  H169 6023   5.666   3.112   1.262 -1.7555 -1.3101 -0.1264
   15CHTO   O63 6024   5.440   2.718   1.435  0.1861 -0.0619  0.2436
   15CHTO   C96 6025   5.560   2.663   1.515 -0.1169 -0.0243  0.4624
   15CHTO  H183 6026   5.559   2.708   1.615  1.3228  1.4371 -0.1774
   15CHTO   C98 6027   5.692   2.701   1.445 -0.2319  0.3415  0.2033
   15CHTO  H185 6028   5.679   2.703   1.336 -1.3064 -0.9398  0.2870
   15CHTO   O67 6029   5.717   2.840   1.474 -0.5539 -0.3584 -0.6441
   15CHTO  H167 6030   5.737   2.849   1.565  0.1262 -1.2082 -0.7065
   15CHTO  C102 6031   5.808   2.606   1.494  0.1265  0.1667  0.5614
   15CHTO  H189 6032   5.818   2.623   1.602 -1.9023 -1.2394  1.0180
   15CHTO   N18 6033   5.945   2.635   1.438 -0.1229 -0.0883 -0.3529
   15CHTO  H176 6034   6.020   2.632   1.515 -0.0382 -1.4317 -0.4762
   15CHTO  H177 6035   5.950   2.723   1.376  0.9252  1.0470  1.2983
   15CHTO  C105 6036   5.766   2.460   1.479  0.6705  0.5540 -0.3098
   15CHTO  H192 6037   5.750   2.436   1.374  0.1676  0.3440 -0.1851
   15CHTO   O65 6038   5.643   2.428   1.549  0.7094 -0.2540  0.2551
   15CHTO  C100 6039   5.535   2.508   1.513  0.3664  0.3433  0.2599
   15CHTO  H187 6040   5.510   2.471   1.413 -0.0611  2.1021 -0.3191
   15CHTO  C107 6041   5.415   2.476   1.614  0.3533  0.6379  0.2163
   15CHTO   O70 6042   5.396   2.333   1.612 -0.2428  0.2613  0.3065
   15CHTO  H170 6043   5.325   2.313   1.553 -0.9931  0.8299  0.9904
   15CHTO   O57 6044   5.890   2.359   1.526  0.3379  0.7468  0.5462
   15CHTO   C85 6045   5.916   2.322   1.663 -0.3318  0.7116  0.1623
   15CHTO  H157 6046   5.898   2.410   1.729  0.0595 -0.1726  1.4680
   15CHTO   C83 6047   6.075   2.303   1.673 -0.4891 -0.2222  0.0335
   15CHTO  H155 6048   6.122   2.397   1.642  1.2477 -1.2549 -0.5281
   15CHTO   O56 6049   6.124   2.217   1.569  0.3545 -0.0655  0.2210
   15CHTO  H135 6050   6.102   2.254   1.486  0.6168  0.6202  0.4531
   15CHTO   C81 6051   6.119   2.271   1.818  0.1341 -0.5288  0.6551
   15CHTO  H153 6052   6.082   2.352   1.881 -1.0433 -0.0239 -0.6678
   15CHTO   N14 6053   6.263   2.270   1.842 -0.0813 -0.1083 -0.5883
   15CHTO  H141 6054   6.276   2.263   1.948  1.7895 -1.6075 -0.9004
   15CHTO  H142 6055   6.315   2.188   1.798 -0.3922  0.3729 -1.8603
   15CHTO   C79 6056   6.058   2.134   1.860  0.0255 -0.7029  0.4027
   15CHTO  H151 6057   6.071   2.126   1.968 -1.5848 -1.3540  0.5630
   15CHTO   O52 6058   5.909   2.141   1.840  0.4188 -0.0109 -0.3817
   15CHTO   C86 6059   5.849   2.192   1.719 -0.4176  0.0128 -0.6568
   15CHTO  H158 6060   5.858   2.104   1.653 -2.4564  0.0858 -1.0909
   15CHTO   C90 6061   5.698   2.211   1.743  0.3931  0.5352 -0.0534
   15CHTO   O60 6062   5.626   2.090   1.758 -0.0766  0.3769 -0.2909
   15CHTO  H138 6063   5.681   2.033   1.808 -0.5972  0.7314  0.7045
   15CHTO   O50 6064   6.109   2.021   1.782  0.3392  0.3377 -0.3529
   15CHTO   C73 6065   6.084   1.887   1.739 -0.6318  0.7045  0.3831
   15CHTO  H145 6066   5.986   1.880   1.690 -0.0512  0.6790 -0.7905
   15CHTO   C74 6067   6.085   1.792   1.865  0.3646  0.0162 -0.1889
   15CHTO  H146 6068   6.004   1.825   1.932  0.2246 -0.3267 -0.1881
   15CHTO   O54 6069   6.048   1.661   1.819  0.4715 -0.0788  0.0045
   15CHTO  H133 6070   6.061   1.609   1.896  1.0200  0.3892  0.2294
   15CHTO   C75 6071   6.231   1.800   1.932  0.0515  0.8547 -0.4368
   15CHTO  H147 6072   6.244   1.904   1.965 -2.6072  0.6127  1.5249
   15CHTO   N13 6073   6.239   1.722   2.058 -0.3258 -0.0608  0.3622
   15CHTO  H139 6074   6.140   1.727   2.102  0.4138  1.4144  1.9408
   15CHTO  H140 6075   6.307   1.772   2.126 -0.0843  0.2437 -0.1031
   15CHTO   C76 6076   6.344   1.770   1.817 -0.2513 -0.1385  0.1457
   15CHTO  H148 6077   6.340   1.665   1.785 -0.3439  0.0489 -0.4595
   15CHTO   O49 6078   6.330   1.853   1.698 -0.3414 -0.1778  0.2746
   15CHTO   C77 6079   6.202   1.844   1.636  1.0617  0.4001 -0.0369
   15CHTO  H149 6080   6.181   1.745   1.595 -0.6984  1.2135 -1.1099
   15CHTO   C88 6081   6.188   1.933   1.514 -0.5962 -0.6453 -0.3304
   15CHTO   O58 6082   6.032   1.925   1.463  0.2065 -0.1263 -0.0915
   15CHTO  H136 6083   6.019   1.893   1.376  0.0376 -2.6455  0.8139
   15CHTO   O51 6084   6.486   1.807   1.879 -0.0422  0.7793 -0.0341
   15CHTO   C78 6085   6.610   1.821   1.776 -0.5704  0.1567 -0.0775
   15CHTO  H150 6086   6.567   1.861   1.682 -1.3777 -1.2360 -0.3255
   15CHTO   C80 6087   6.688   1.691   1.742 -0.1185  0.1148  0.2326
   15CHTO  H152 6088   6.726   1.643   1.835 -1.2554 -0.1858  0.5489
   15CHTO   O55 6089   6.606   1.591   1.675  0.2114 -0.5621  0.2062
   15CHTO  H134 6090   6.516   1.579   1.698  0.3978 -1.9406  0.2371
   15CHTO   C84 6091   6.812   1.715   1.652  0.6758  0.0848 -0.5251
   15CHTO  H156 6092   6.767   1.754   1.561 -0.0897  0.7131  0.1221
   15CHTO   N15 6093   6.900   1.592   1.626 -0.1537  0.3333  0.0508
   15CHTO  H143 6094   6.990   1.620   1.574  0.5185  0.7381  1.4112
   15CHTO  H144 6095   6.860   1.502   1.583 -0.8633 -0.2911  1.9509
   15CHTO   C87 6096   6.899   1.826   1.719  0.1651 -0.5394  0.3663
   15CHTO  H159 6097   6.930   1.790   1.816  1.7225  0.6785  0.3297
   15CHTO   O53 6098   6.813   1.942   1.734 -0.1789 -0.8056 -0.1146
   15CHTO   C82 6099   6.710   1.921   1.833  0.2783  0.5793  0.2685
   15CHTO  H154 6100   6.753   1.886   1.927 -1.8014  1.6401  1.6550
   15CHTO   C89 6101   6.642   2.057   1.864 -0.5140  0.6289 -0.2012
   15CHTO   O59 6102   6.737   2.152   1.928 -0.1883 -0.0131 -0.7292
   15CHTO  H137 6103   6.749   2.228   1.875 -1.6580  0.0019 -1.0450
   15CHTO   O45 6104   7.036   1.865   1.629  0.6123  0.2477 -0.2120
   15CHTO   C67 6105   7.093   1.993   1.658  0.4518  0.0253 -0.0894
   15CHTO  H124 6106   7.012   2.064   1.676  1.2770  0.7655  0.7400
   15CHTO   C65 6107   7.173   1.987   1.783  0.1653  0.3226 -0.1965
   15CHTO  H122 6108   7.227   1.893   1.781  1.5410  1.0544  1.4596
   15CHTO   O44 6109   7.084   1.985   1.903 -0.4580 -0.0798  0.2730
   15CHTO  H102 6110   7.030   1.909   1.899 -1.5499  0.5681  2.1235
   15CHTO   C63 6111   7.291   2.098   1.784  0.5099 -0.2306  0.1719
   15CHTO  H120 6112   7.376   2.067   1.724 -0.2015 -2.5187  0.3053
   15CHTO   N11 6113   7.365   2.121   1.913 -0.0341  0.0897  0.4440
   15CHTO  H108 6114   7.366   2.227   1.930 -1.4001  0.6531 -2.5347
   15CHTO  H109 6115   7.337   2.063   1.998 -1.6738  0.9964  0.5353
   15CHTO   C61 6116   7.236   2.221   1.710  0.0862  0.3043 -0.3599
   15CHTO  H118 6117   7.313   2.300   1.713 -2.0413  2.4068  0.7102
   15CHTO   O40 6118   7.200   2.197   1.570 -0.1227  0.2197  0.7374
   15CHTO   C68 6119   7.173   2.053   1.535 -0.0863  0.2885 -0.0817
   15CHTO  H125 6120   7.266   1.999   1.506  1.6369  2.6571  0.8699
   15CHTO   C72 6121   7.081   2.046   1.414  0.4849  0.6680 -0.3276
   15CHTO   O48 6122   7.150   2.086   1.292  0.5644 -0.2069 -0.2591
   15CHTO  H105 6123   7.085   2.106   1.227 -0.4267 -0.5649  0.6009
   15CHTO   O38 6124   7.123   2.274   1.783  0.0296  0.0606 -0.1410
   15CHTO   C55 6125   7.079   2.408   1.757 -0.3202 -0.0257 -0.0449
   15CHTO  H112 6126   7.102   2.435   1.653 -1.0751 -1.0134 -0.4783
   15CHTO   C56 6127   7.153   2.503   1.863 -0.0566 -0.3718 -0.1932
   15CHTO  H113 6128   7.129   2.460   1.961 -0.0788 -0.0477 -0.0565
   15CHTO   O42 6129   7.299   2.495   1.855  0.4841  0.0347  0.1235
   15CHTO  H100 6130   7.332   2.528   1.774 -0.8605 -1.1052 -0.9144
   15CHTO   C57 6131   7.093   2.652   1.861 -0.0044  0.3060  0.5362
   15CHTO  H114 6132   7.129   2.684   1.764 -0.4891  1.1934  0.6408
   15CHTO   N10 6133   7.136   2.753   1.965  1.0418  0.1480 -0.2846
   15CHTO  H106 6134   7.160   2.721   2.066 -0.9933  1.4878  0.6666
   15CHTO  H107 6135   7.218   2.808   1.921  0.2948 -0.2049 -2.1771
   15CHTO   C58 6136   6.936   2.646   1.851 -0.0682 -0.4152  0.1199
   15CHTO  H115 6137   6.896   2.612   1.949 -0.1198 -4.6673 -1.2424
   15CHTO   O37 6138   6.897   2.555   1.748  0.1883  0.6119  0.1273
   15CHTO   C59 6139   6.927   2.418   1.769 -0.1239 -0.1842 -0.0302
   15CHTO  H116 6140   6.888   2.380   1.863 -1.6086  2.7841  0.6110
   15CHTO   C70 6141   6.849   2.338   1.665  0.2925  0.1800 -0.3881
   15CHTO   O46 6142   6.896   2.347   1.529 -0.3135 -0.0640 -0.6298
   15CHTO  H103 6143   6.839   2.392   1.470  0.8701  0.6378 -1.2439
   15CHTO   O39 6144   6.875   2.799   1.799  0.1277  0.0478 -0.2597
   15CHTO   C60 6145   6.748   2.809   1.739  0.2090  0.2624  0.6509
   15CHTO  H117 6146   6.761   2.769   1.638 -3.6294  1.5303 -0.4156
   15CHTO   C62 6147   6.632   2.723   1.795 -0.3736  0.0556 -0.5090
   15CHTO  H119 6148   6.678   2.624   1.812 -0.3477  0.1019 -0.3000
   15CHTO   O43 6149   6.590   2.776   1.921 -0.0308  0.7786  0.6495
   15CHTO  H101 6150   6.624   2.713   1.982 -0.2246  0.9722  0.9558
   15CHTO   C66 6151   6.511   2.716   1.697  0.6751  0.0798  0.2190
   15CHTO  H123 6152   6.541   2.682   1.598 -2.5343  2.3602 -1.6244
   15CHTO   N12 6153   6.403   2.625   1.741  0.2693  0.1583  0.1079
   15CHTO  H110 6154   6.449   2.540   1.790  0.6343 -0.1540 -0.7763
   15CHTO  H111 6155   6.348   2.596   1.653 -0.1327 -0.7447  0.6471
   15CHTO   C69 6156   6.456   2.859   1.670 -0.4670 -0.4930  0.1078
   15CHTO  H126 6157   6.393   2.897   1.753 -1.0327 -0.0959 -0.4981
   15CHTO   O41 6158   6.575   2.960   1.643 -0.1923 -0.6748  0.2166
   15CHTO   C64 6159   6.703   2.952   1.724  0.1646  0.4145 -0.2562
   15CHTO  H121 6160   6.688   2.995   1.825 -0.1789  1.7205 -0.8455
   15CHTO   C71 6161   6.814   3.035   1.661  0.2786 -0.5866  0.2937
   15CHTO   O47 6162   6.778   3.175   1.636  0.6954 -0.2916 -0.4837
   15CHTO  H104 6163   6.691   3.184   1.603  0.4870  1.1066  0.4199
   15CHTO   O34 6164   6.358   2.864   1.528  0.1873  0.2311 -0.2152
   15CHTO   C49 6165   6.385   2.839   1.376  0.1402  0.3072 -0.7036
   15CHTO   H91 6166   6.405   2.733   1.366 -1.4712 -0.0975  0.1774
   15CHTO   C47 6167   6.498   2.927   1.315 -0.2369 -0.0119 -0.5934
   15CHTO   H89 6168   6.508   2.907   1.207  0.0613  0.2732 -0.6177
   15CHTO   O33 6169   6.619   2.894   1.381 -0.6818 -0.0860 -0.2117
   15CHTO   H70 6170   6.619   2.920   1.471 -0.1359  0.7277 -0.4447
   15CHTO   C45 6171   6.456   3.082   1.339 -0.8195  0.2377  0.1540
   15CHTO   H87 6172   6.430   3.086   1.446 -0.6305  0.2748  0.1989
   15CHTO    N8 6173   6.571   3.175   1.317  0.3773 -0.1397  0.3887
   15CHTO   H75 6174   6.661   3.118   1.306 -0.5805 -1.6724  0.3342
   15CHTO   H76 6175   6.556   3.234   1.227 -1.0890 -2.9860 -1.3001
   15CHTO   C43 6176   6.318   3.117   1.260  0.4007 -0.1562  0.0529
   15CHTO   H85 6177   6.281   3.216   1.289 -1.0654 -0.7330  0.1762
   15CHTO   O29 6178   6.226   3.011   1.284 -0.1528 -0.2520 -0.1915
   15CHTO   C50 6179   6.258   2.869   1.290 -0.3776 -0.1986  0.0069
   15CHTO   H92 6180   6.169   2.825   1.338 -0.3809 -0.3125 -0.1044
   15CHTO   C54 6181   6.267   2.811   1.149 -0.2926  0.0021 -0.1697
   15CHTO   O36 6182   6.328   2.685   1.137  0.0683  0.0657 -0.1857
   15CHTO   H72 6183   6.418   2.692   1.109 -0.7137 -0.3275 -2.9164
   15CHTO   O27 6184   6.342   3.119   1.124 -0.0761  0.3890 -0.0505
   15CHTO   C37 6185   6.295   3.176   0.997 -0.1513 -0.5942 -0.2306
   15CHTO   H79 6186   6.325   3.116   0.910  0.1272 -1.1038  0.2096
   15CHTO   C38 6187   6.138   3.173   0.997 -0.0745 -0.5484  0.5627
   15CHTO   H80 6188   6.107   3.231   1.085  1.9456 -0.3496  1.1435
   15CHTO   O31 6189   6.085   3.041   1.007 -0.2531  0.3531  0.5444
   15CHTO   H68 6190   6.097   2.996   0.926  0.3535  0.0418  0.8008
   15CHTO   C39 6191   6.074   3.243   0.867  0.3996  0.0460 -0.9119
   15CHTO   H81 6192   6.111   3.179   0.787  1.4490 -0.6943  0.1397
   15CHTO    N7 6193   5.924   3.249   0.862 -0.1570 -0.2512 -0.3692
   15CHTO   H73 6194   5.889   3.340   0.908 -0.6511 -0.1342 -0.9795
   15CHTO   H74 6195   5.887   3.239   0.761 -1.8823 -0.5483  0.2788
   15CHTO   C40 6196   6.145   3.383   0.858  0.4523  0.2294  0.1107
   15CHTO   H82 6197   6.125   3.438   0.950  2.3791  1.9781 -0.4701
   15CHTO   O26 6198   6.287   3.355   0.847  0.0318 -0.5281  0.3862
   15CHTO   C41 6199   6.343   3.319   0.977 -0.2188  0.3176  0.5422
   15CHTO   H83 6200   6.308   3.383   1.059 -0.3671 -1.6087  2.0202
   15CHTO   C52 6201   6.500   3.321   0.981 -0.2719 -0.2745  0.0417
   15CHTO   O35 6202   6.563   3.445   0.959  0.0177 -0.8041 -0.0530
   15CHTO   H71 6203   6.613   3.465   1.036  0.5452 -0.2404 -0.5378
   15CHTO   O28 6204   6.107   3.458   0.743  0.4279 -0.1800  0.0143
   15CHTO   C42 6205   6.128   3.607   0.731  0.0885  0.1515  0.4158
   15CHTO   H84 6206   6.153   3.621   0.625  0.1003  0.7196  0.4908
   15CHTO   C44 6207   6.252   3.659   0.809 -0.5581 -0.4665  0.5211
   15CHTO   H86 6208   6.260   3.619   0.910  1.8830  0.2085  0.6419
   15CHTO   O32 6209   6.371   3.596   0.747 -0.0831  0.1990 -0.0786
   15CHTO   H69 6210   6.373   3.629   0.659  1.2994 -1.2245 -0.5949
   15CHTO   C48 6211   6.265   3.813   0.816 -0.2329  0.0764  0.0477
   15CHTO   H90 6212   6.301   3.839   0.716 -0.1964 -1.0571 -0.2329
   15CHTO    N9 6213   6.372   3.862   0.909 -0.1528  0.0042 -0.4377
   15CHTO   H77 6214   6.351   3.824   1.008 -1.0003 -0.2136 -0.7035
   15CHTO   H78 6215   6.373   3.969   0.900 -0.7625 -0.0796 -1.4952
   15CHTO   C51 6216   6.126   3.875   0.849 -0.3642  0.3226 -0.6879
   15CHTO   H93 6217   6.096   3.843   0.948 -0.3170 -0.2382 -0.8519
   15CHTO   O30 6218   6.028   3.843   0.749  0.2272 -0.2953 -0.1866
   15CHTO   C46 6219   5.997   3.689   0.759  0.0123 -0.1160 -0.9492
   15CHTO   H88 6220   5.961   3.661   0.858  0.9649  0.3760 -0.4527
   15CHTO   C53 6221   5.890   3.656   0.657  0.0758 -0.1539  0.3980
   15CHTO   O72 6222   5.763   3.725   0.684 -0.0621  0.7763  0.2170
   15CHTO  H199 6223   5.719   3.693   0.760  0.1607  0.6715  0.3014
   15CHTO   O22 6224   6.129   4.020   0.845  0.8305  0.5246 -0.6050
   15CHTO   C31 6225   6.027   4.103   0.914 -0.1858  0.3456  0.2974
   15CHTO   H59 6226   6.063   4.207   0.906 -1.3443  0.8482  1.3935
   15CHTO   C29 6227   5.884   4.096   0.855  0.2947  0.3015  0.3870
   15CHTO   H57 6228   5.838   3.996   0.861 -0.8949  0.7486 -0.9032
   15CHTO   O21 6229   5.880   4.111   0.715  0.3452 -0.6308 -0.6832
   15CHTO   H37 6230   5.791   4.103   0.687  0.2396  0.0496 -0.5657
   15CHTO   C27 6231   5.794   4.207   0.926 -0.2859  0.4293  0.7122
   15CHTO   H55 6232   5.828   4.305   0.890  0.1404 -0.6233 -1.8489
   15CHTO    N5 6233   5.652   4.184   0.893  0.3202 -0.6635  0.2096
   15CHTO   H43 6234   5.628   4.178   0.787  0.5747  1.6521 -0.0004
   15CHTO   H44 6235   5.590   4.256   0.943  1.0553 -0.2758  0.5687
   15CHTO   C25 6236   5.813   4.186   1.088  0.0359  0.0229  0.0702
   15CHTO   H53 6237   5.755   4.096   1.114  1.9690 -0.7924  1.7117
   15CHTO   O17 6238   5.947   4.174   1.129 -0.2744 -0.3134 -0.2754
   15CHTO   C32 6239   6.022   4.066   1.066  0.2011 -0.2242  0.2082
   15CHTO   H60 6240   5.971   3.970   1.074 -1.6093  0.7993  1.1952
   15CHTO   C36 6241   6.162   4.057   1.138 -0.4730  1.0930 -0.1708
   15CHTO   O25 6242   6.133   4.035   1.275 -0.1807 -0.0883 -0.5879
   15CHTO   H40 6243   6.043   4.047   1.300 -0.0660  0.6313 -0.5143
   15CHTO   O15 6244   5.729   4.307   1.169 -0.2461 -0.0195 -0.0530
   15CHTO   C19 6245   5.793   4.419   1.229  1.0820 -0.2668  0.0110
   15CHTO   H47 6246   5.874   4.379   1.292  2.7876 -0.1384 -2.0561
   15CHTO   C20 6247   5.858   4.527   1.130 -0.6459 -0.3652 -0.1323
   15CHTO   H48 6248   5.785   4.567   1.058 -0.6428 -0.5160 -0.2205
   15CHTO   O19 6249   5.960   4.457   1.054  0.4786  0.1616  0.4995
   15CHTO   H35 6250   5.930   4.389   0.997  2.3733 -0.8306  0.6451
   15CHTO   C21 6251   5.920   4.650   1.209 -0.0496 -0.1201 -1.0096
   15CHTO   H49 6252   6.000   4.614   1.273  0.6849 -0.6075 -2.1733
   15CHTO    N4 6253   5.975   4.756   1.120 -0.1437  0.7213  0.0307
   15CHTO   H41 6254   6.048   4.713   1.052 -1.8979 -2.0380 -0.1712
   15CHTO   H42 6255   5.900   4.807   1.061 -1.4124 -1.2988 -0.1333
   15CHTO   C22 6256   5.810   4.700   1.308  0.2880  0.8295  0.2649
   15CHTO   H50 6257   5.734   4.744   1.243 -1.2166  0.2303  1.5799
   15CHTO   O14 6258   5.764   4.590   1.395 -0.2473 -0.0738 -0.7572
   15CHTO   C23 6259   5.692   4.485   1.333  1.3788 -0.3304  0.2596
   15CHTO   H51 6260   5.607   4.535   1.283  1.2434 -0.6877  0.1251
   15CHTO   C34 6261   5.635   4.391   1.440  0.3085  0.3307 -0.6699
   15CHTO   O23 6262   5.563   4.278   1.397  0.0021  0.2349 -0.0685
   15CHTO   H38 6263   5.550   4.227   1.475 -0.8599 -1.9122 -1.5955
   15CHTO   O16 6264   5.868   4.800   1.400  0.1865  0.3095  0.1991
   15CHTO   C24 6265   5.939   4.743   1.554  0.2200 -0.1321 -0.3285
   15CHTO   H52 6266   5.959   4.636   1.551 -3.2913 -0.8109 -2.4575
   15CHTO   C26 6267   5.853   4.763   1.674  0.5800 -0.2335 -0.9867
   15CHTO   H54 6268   5.815   4.868   1.674  3.7067  0.9490 -0.2047
   15CHTO   O20 6269   5.731   4.692   1.649  0.2080 -0.0559 -0.5973
   15CHTO   H36 6270   5.658   4.720   1.701 -0.4836 -1.8345 -0.5815
   15CHTO   C30 6271   5.912   4.729   1.814 -0.5355  0.5310  1.1080
   15CHTO   H58 6272   5.923   4.620   1.820 -1.0057  0.4229  0.2511
   15CHTO    N6 6273   5.820   4.774   1.929  0.0846 -0.5913  0.5037
   15CHTO   H45 6274   5.866   4.864   1.965 -1.2323  0.5089 -0.5088
   15CHTO   H46 6275   5.835   4.699   2.006  0.5766  0.6860  1.6575
   15CHTO   C33 6276   6.052   4.791   1.818 -0.7394  0.3380  0.0779
   15CHTO   H61 6277   6.040   4.900   1.819 -2.1043  0.1898  1.5081
   15CHTO   O18 6278   6.125   4.750   1.702 -0.2707  0.1031 -0.0031
   15CHTO   C28 6279   6.083   4.811   1.577  0.8719  0.1616 -0.0013
   15CHTO   H56 6280   6.064   4.918   1.583 -0.0188  0.0399 -0.5930
   15CHTO   C35 6281   6.186   4.783   1.466  0.0412  0.1669  1.0173
   15CHTO   O24 6282   6.305   4.861   1.487  0.0586  0.0281  0.9605
   15CHTO   H39 6283   6.377   4.810   1.455  0.1038  1.7148 -1.7883
   15CHTO    O9 6284   6.120   4.746   1.936 -0.1143 -0.3607  0.3726
   15CHTO   C13 6285   6.221   4.841   2.005  0.5446 -0.5404  0.3618
   15CHTO   H26 6286   6.173   4.940   2.019 -0.7116 -0.6554 -2.6919
   15CHTO   C11 6287   6.343   4.856   1.914  0.1643 -0.8748  0.2801
   15CHTO   H24 6288   6.298   4.924   1.840 -0.7768  0.7189  2.2991
   15CHTO    O8 6289   6.388   4.731   1.865  0.5063 -0.4218 -1.2632
   15CHTO    H3 6290   6.399   4.741   1.773 -0.8366  0.4600 -1.3357
   15CHTO    C9 6291   6.458   4.940   1.981  0.7409 -0.0121  0.0583
   15CHTO   H22 6292   6.417   5.040   1.999  1.8550  0.0456  2.4045
   15CHTO    N2 6293   6.560   4.973   1.882  0.8255  0.0299  0.0379
   15CHTO   H10 6294   6.647   5.024   1.923 -1.5384  1.9610  2.8641
   15CHTO   H11 6295   6.593   4.889   1.823  1.4836 -0.1721  0.6924
   15CHTO    C7 6296   6.498   4.867   2.116 -0.1935  0.0308  0.3416
   15CHTO   H20 6297   6.562   4.936   2.176 -0.4955 -0.8214  1.6627
   15CHTO    O4 6298   6.379   4.843   2.194  0.1255  0.0168 -0.3370
   15CHTO   C14 6299   6.262   4.781   2.147 -0.2912 -0.4466  0.8170
   15CHTO   H27 6300   6.169   4.794   2.206 -0.9754 -2.5146  0.2155
   15CHTO   C18 6301   6.279   4.629   2.147 -0.1210  0.3762  0.1260
   15CHTO   O13 6302   6.194   4.557   2.244 -0.2741 -0.1241 -0.1237
   15CHTO    H7 6303   6.143   4.496   2.196  0.9526 -1.3486  0.0915
   15CHTO    O2 6304   6.571   4.724   2.104  0.3551  0.4682 -0.3174
   15CHTO    C1 6305   6.664   4.677   2.203  0.0254 -0.2227 -0.2817
   15CHTO   H14 6306   6.613   4.672   2.302 -0.0028 -2.7569 -0.3949
   15CHTO    C2 6307   6.793   4.767   2.229  0.0310 -0.1982  0.5070
   15CHTO   H15 6308   6.838   4.779   2.129 -0.5613  1.6209  0.4317
   15CHTO    O6 6309   6.761   4.897   2.278 -0.1434 -0.1390  0.2900
   15CHTO    H1 6310   6.843   4.939   2.294 -0.5461  0.4363  0.8568
   15CHTO    C3 6311   6.896   4.692   2.318  0.3880 -1.0130  0.1343
   15CHTO   H16 6312   6.853   4.694   2.420  0.0049 -2.8376  0.0211
   15CHTO    N1 6313   7.025   4.763   2.326  0.6970 -0.3456 -1.0471
   15CHTO    H8 6314   7.061   4.777   2.225 -0.3744  0.1366 -1.3766
   15CHTO    H9 6315   7.102   4.731   2.394 -1.4700 -1.0590  1.1586
   15CHTO    C4 6316   6.915   4.542   2.276  0.4103  0.2778  0.3269
   15CHTO   H17 6317   6.978   4.534   2.188 -0.2002 -0.0714 -0.0893
   15CHTO    O1 6318   6.794   4.478   2.247 -0.5053 -0.5748 -0.1739
   15CHTO    C5 6319   6.703   4.532   2.154  0.0090 -0.3150  0.2131
   15CHTO   H18 6320   6.741   4.535   2.051  1.1603  1.2394  0.6747
   15CHTO   C16 6321   6.579   4.439   2.161 -0.4152  0.3864 -0.8028
   15CHTO   O11 6322   6.587   4.312   2.103 -0.3858 -0.4480  0.8294
   15CHTO    H5 6323   6.509   4.262   2.118 -1.1228  0.9754  1.9841
   15CHTO    O3 6324   6.971   4.463   2.381 -0.3815 -0.2077  0.0456
   15CHTO    C6 6325   7.067   4.364   2.330 -0.0457 -0.2553  0.0456
   15CHTO   H19 6326   7.081   4.363   2.221  2.0413 -1.5033  0.2868
   15CHTO    C8 6327   7.208   4.406   2.383 -0.2871 -0.2101  0.1026
   15CHTO   H21 6328   7.198   4.424   2.490  2.4869  1.6177  0.1008
   15CHTO    O7 6329   7.259   4.517   2.308 -0.0931 -0.2335  0.3675
   15CHTO    H2 6330   7.221   4.593   2.348 -0.0911  0.9295 -1.8206
   15CHTO   C12 6331   7.321   4.288   2.363  0.4678  0.2096  0.2045
   15CHTO   H25 6332   7.350   4.284   2.256  0.5328 -2.0913  0.2873
   15CHTO    N3 6333   7.446   4.314   2.442  0.5347  0.0896  0.2355
   15CHTO   H12 6334   7.496   4.405   2.412 -1.0749  0.7356 -0.5165
   15CHTO   H13 6335   7.436   4.302   2.549 -0.5718  0.8385  0.2242
   15CHTO   C15 6336   7.255   4.158   2.403 -0.5541 -0.1626 -0.4888
   15CHTO   H28 6337   7.228   4.149   2.508  0.6887 -2.4184 -0.3355
   15CHTO   O10 6338   7.334   4.043   2.359  0.6466  0.4425 -0.1935
   15CHTO    H4 6339   7.317   3.982   2.429  0.0976  1.1799  0.3149
   15CHTO    O5 6340   7.140   4.134   2.325 -0.3123 -0.5501  0.3987
   15CHTO   C10 6341   7.036   4.220   2.368 -0.6209 -0.1155  0.3507
   15CHTO   H23 6342   7.018   4.205   2.475  1.8166 -1.4555  0.6191
   15CHTO   C17 6343   6.906   4.162   2.302  0.2214 -0.0851 -0.1413
   15CHTO   O12 6344   6.880   4.034   2.362 -0.0448 -0.4222 -0.2365
   15CHTO    H6 6345   6.822   3.989   2.303 -1.5130  1.7790 -0.5344
   16CHTO  H203 6346   4.932   4.422   0.428  0.3714  0.5938  0.7237
   16CHTO   O82 6347   4.852   4.391   0.466  0.1878  0.0554 -0.0766
   16CHTO  C123 6348   4.894   4.292   0.565 -0.9661 -0.9007  0.5944
   16CHTO  H227 6349   4.950   4.354   0.637  1.1059 -0.1993 -1.5529
   16CHTO   O77 6350   4.771   4.242   0.619  0.0783 -0.4513 -0.4758
   16CHTO  C118 6351   4.795   4.166   0.740  0.4044  0.6033  0.0460
   16CHTO  H222 6352   4.857   4.230   0.805  0.2358 -0.0098  0.8041
   16CHTO  C125 6353   4.662   4.131   0.814  0.0456  0.3015  0.1540
   16CHTO   O84 6354   4.611   4.244   0.882 -0.1653 -0.1410 -0.4925
   16CHTO  H205 6355   4.534   4.218   0.928 -0.2327  0.1808 -0.4224
   16CHTO  C114 6356   4.875   4.038   0.702 -0.3083  0.2781  0.4820
   16CHTO  H218 6357   4.814   3.982   0.631  0.0895  1.4167 -0.7594
   16CHTO  C116 6358   5.006   4.072   0.622 -0.1573  0.2048  1.1751
   16CHTO  H220 6359   5.075   4.120   0.694  3.0093 -2.8498  0.2883
   16CHTO   O79 6360   5.062   3.946   0.585 -0.3880 -0.7227  0.4109
   16CHTO  H201 6361   5.004   3.891   0.535 -1.3623  1.7452 -1.3011
   16CHTO  C120 6362   4.980   4.176   0.504  1.0165  0.0617  0.5050
   16CHTO  H224 6363   4.915   4.128   0.429  1.3973 -0.0545  0.2487
   16CHTO   N21 6364   5.107   4.228   0.445  0.3113  0.0029 -0.2445
   16CHTO  H211 6365   5.184   4.154   0.436  0.6772  0.4659 -0.9475
   16CHTO  H212 6366   5.085   4.271   0.348 -1.4165 -0.3433 -0.0179
   16CHTO   O75 6367   4.886   3.963   0.821  0.0580 -0.4059  0.5308
   16CHTO  C112 6368   5.023   3.978   0.913 -0.3849 -0.0671 -0.4626
   16CHTO  H216 6369   5.055   4.083   0.905 -0.3554  0.0101  0.5293
   16CHTO   O73 6370   5.122   3.889   0.861 -0.3648 -0.0400 -0.0275
   16CHTO  C113 6371   5.258   3.914   0.914 -0.1247  0.2191  0.7554
   16CHTO  H217 6372   5.273   4.023   0.901  0.8959 -0.1303 -1.2031
   16CHTO  C124 6373   5.371   3.841   0.836 -0.0425  0.1172  0.1641
   16CHTO   O83 6374   5.363   3.873   0.696 -0.0011  0.3103  0.6601
   16CHTO  H204 6375   5.275   3.867   0.666  0.3190 -1.2771  0.0023
   16CHTO  C109 6376   5.262   3.880   1.065  0.0693 -0.4765 -0.1144
   16CHTO  H213 6377   5.253   3.771   1.073 -1.4504 -0.3475  0.2547
   16CHTO  C110 6378   5.142   3.947   1.141  0.7946  0.1902  0.8973
   16CHTO  H214 6379   5.166   4.052   1.162 -0.1305  0.4191  0.8245
   16CHTO   O78 6380   5.125   3.874   1.266 -0.1133  0.0403  0.2311
   16CHTO  H200 6381   5.056   3.910   1.318  0.1906  1.0729 -0.0634
   16CHTO  C111 6382   5.009   3.942   1.063  0.4226 -0.0049 -0.2058
   16CHTO  H215 6383   4.971   3.839   1.074 -1.5526  0.6191 -0.9703
   16CHTO   N19 6384   4.904   4.024   1.127 -0.1279 -0.5572 -0.0050
   16CHTO  H207 6385   4.833   3.954   1.169 -0.3473  0.2266  0.9595
   16CHTO  H208 6386   4.946   4.083   1.208  0.7972  0.7101 -1.3798
   16CHTO   O74 6387   5.395   3.916   1.117  0.1997 -0.0870  0.2210
   16CHTO  C115 6388   5.472   3.796   1.209 -0.3406  0.3610  0.0292
   16CHTO  H219 6389   5.411   3.761   1.292  0.7831 -0.5292  0.4898
   16CHTO   O76 6390   5.499   3.669   1.122  0.8947 -0.0979  0.0228
   16CHTO  C122 6391   5.616   3.683   1.043  0.1339 -0.1790  0.0519
   16CHTO  H226 6392   5.602   3.767   0.975  0.5112 -0.4225 -0.3294
   16CHTO  C126 6393   5.648   3.558   0.958  0.1714 -0.0628  0.0363
   16CHTO   O85 6394   5.659   3.431   1.023 -0.3800  0.0141 -0.0045
   16CHTO  H206 6395   5.747   3.398   1.014 -1.1125 -2.4138  1.2194
   16CHTO  C121 6396   5.745   3.713   1.124 -0.2175 -0.0591  0.3857
   16CHTO  H225 6397   5.812   3.625   1.130 -0.8349 -0.4839  1.0815
   16CHTO   O81 6398   5.824   3.803   1.054 -0.1830 -0.8280  0.0788
   16CHTO  H202 6399   5.907   3.821   1.095 -0.4612  0.3092  0.1509
   16CHTO  C119 6400   5.718   3.757   1.268 -0.5993  0.3453 -0.1142
   16CHTO  H223 6401   5.677   3.671   1.321 -1.4594 -0.5808 -2.2302
   16CHTO  C117 6402   5.604   3.863   1.263  0.0866 -0.3999  0.1400
   16CHTO  H221 6403   5.619   3.949   1.199 -0.0478 -0.9148 -0.5885
   16CHTO   N20 6404   5.575   3.907   1.402 -0.3510  0.2139  0.6032
   16CHTO  H209 6405   5.543   3.821   1.459 -1.2838  0.5291  0.5647
   16CHTO  H210 6406   5.656   3.960   1.449 -0.2083 -0.7894  1.4959
   16CHTO   O80 6407   5.858   3.790   1.348  0.2630  0.3159  0.0946
   16CHTO  C103 6408   5.980   3.671   1.352 -0.8401 -0.2384  0.1176
   16CHTO  H190 6409   5.950   3.587   1.290  1.2861 -1.3722  0.5438
   16CHTO  C101 6410   6.123   3.707   1.305 -0.1628  0.2394  0.0603
   16CHTO  H188 6411   6.158   3.793   1.361  1.5719 -1.5360  1.7593
   16CHTO   O68 6412   6.119   3.754   1.161 -0.2958  0.2488 -0.3688
   16CHTO  H168 6413   6.203   3.784   1.133  0.6174 -0.3570  1.6138
   16CHTO   C99 6414   6.220   3.582   1.336  0.3164 -0.0034  0.2229
   16CHTO  H186 6415   6.184   3.489   1.286 -0.9437  0.4462  0.2838
   16CHTO   N17 6416   6.353   3.605   1.285  0.9602 -0.1040  0.1574
   16CHTO  H174 6417   6.362   3.700   1.234  0.0407  1.6878  3.2412
   16CHTO  H175 6418   6.396   3.523   1.228 -0.5107 -0.7676 -0.0101
   16CHTO   C97 6419   6.223   3.545   1.489  0.1558  0.0386  0.0245
   16CHTO  H184 6420   6.264   3.634   1.539 -1.1528  1.4148 -1.3173
   16CHTO   O64 6421   6.079   3.524   1.523 -0.3769  0.2773 -0.1902
   16CHTO  C104 6422   5.983   3.626   1.502  0.1675  0.0727  0.2485
   16CHTO  H191 6423   6.010   3.708   1.568  0.0804  1.5762 -1.5274
   16CHTO  C108 6424   5.843   3.575   1.546  0.7865  0.1297 -0.0956
   16CHTO   O71 6425   5.842   3.533   1.683 -0.2014  0.1652 -0.2734
   16CHTO  H171 6426   5.875   3.603   1.736  0.6110 -0.5350  0.1528
   16CHTO   O62 6427   6.299   3.426   1.527  0.2431  0.0747  0.2275
   16CHTO   C91 6428   6.295   3.383   1.661  0.3657  0.3881 -0.5352
   16CHTO  H178 6429   6.234   3.450   1.722 -2.2375  0.7804 -3.4355
   16CHTO   C92 6430   6.438   3.386   1.724  0.2849 -0.0955  0.3495
   16CHTO  H179 6431   6.507   3.319   1.669  0.3390 -0.8789  1.3586
   16CHTO   O66 6432   6.484   3.518   1.713  0.5170 -0.3835 -0.4168
   16CHTO  H166 6433   6.431   3.593   1.734  0.3335 -0.9220  1.1370
   16CHTO   C93 6434   6.436   3.343   1.876 -0.7107 -0.6065 -0.1065
   16CHTO  H180 6435   6.403   3.431   1.934  0.5705  0.2481 -0.6480
   16CHTO   N16 6436   6.574   3.313   1.920  0.8459 -0.5705 -0.1864
   16CHTO  H172 6437   6.591   3.209   1.941 -0.9958 -0.3046  2.9878
   16CHTO  H173 6438   6.606   3.376   2.001 -1.6819 -0.0098  0.4343
   16CHTO   C94 6439   6.344   3.224   1.904 -1.0322  0.0595 -0.1171
   16CHTO  H181 6440   6.392   3.131   1.875  0.9014  0.6909  0.9280
   16CHTO   O61 6441   6.221   3.229   1.826  0.3844  0.2994  0.9624
   16CHTO   C95 6442   6.243   3.242   1.681  0.0118  0.1939  0.2797
   16CHTO  H182 6443   6.318   3.173   1.645  0.4196  0.9081 -0.2672
   16CHTO  C106 6444   6.111   3.211   1.596  0.1245 -0.3629  0.9073
   16CHTO   O69 6445   6.071   3.077   1.620  0.7099 -0.3597  0.4009
   16CHTO  H169 6446   6.139   3.019   1.591  1.2019  0.4594 -0.1443
   16CHTO   O63 6447   6.312   3.208   2.070 -0.0955  0.1926  0.3513
   16CHTO   C96 6448   6.203   3.110   2.096  0.4211  0.4741 -0.5708
   16CHTO  H183 6449   6.221   3.093   2.203 -0.9468 -1.6644 -0.6583
   16CHTO   C98 6450   6.220   2.974   2.010 -0.0279  0.2060  0.2061
   16CHTO  H185 6451   6.234   2.997   1.903  4.3216 -1.2610  0.3804
   16CHTO   O67 6452   6.345   2.911   2.051 -0.4623  0.4168 -0.3171
   16CHTO  H167 6453   6.333   2.860   2.129 -0.8914  1.3962  0.2650
   16CHTO  C102 6454   6.098   2.871   2.020  0.0289 -0.2253  0.3599
   16CHTO  H189 6455   6.105   2.822   2.118  0.5013 -0.8265  0.0326
   16CHTO   N18 6456   6.105   2.757   1.926 -0.6042  0.6050  0.1975
   16CHTO  H176 6457   6.189   2.698   1.960 -0.3177 -1.1469 -3.2918
   16CHTO  H177 6458   6.121   2.798   1.827  0.3926 -0.7723 -0.2303
   16CHTO  C105 6459   5.970   2.956   1.999 -0.0840  0.3217  0.1023
   16CHTO  H192 6460   5.973   3.003   1.901  0.7839 -0.3093 -0.1799
   16CHTO   O65 6461   5.962   3.059   2.101 -0.3758 -0.0494  0.2649
   16CHTO  C100 6462   6.063   3.164   2.081 -0.0649 -0.1185 -0.1402
   16CHTO  H187 6463   6.049   3.199   1.978  1.0321  1.3183  0.1735
   16CHTO  C107 6464   6.025   3.286   2.170  0.4449  0.2766 -0.4057
   16CHTO   O70 6465   5.897   3.345   2.140  0.1449  0.6652 -0.1144
   16CHTO  H170 6466   5.910   3.367   2.050  0.6123 -1.9845 -0.7464
   16CHTO   O57 6467   5.844   2.867   2.022 -0.4819 -0.0051 -0.0495
   16CHTO   C85 6468   5.732   2.870   1.936  0.2037 -0.1082 -0.4270
   16CHTO  H157 6469   5.775   2.856   1.835  0.0504 -0.0438 -0.5015
   16CHTO   C83 6470   5.661   3.011   1.938 -0.0084 -0.4051  0.0218
   16CHTO  H155 6471   5.737   3.084   1.910 -1.0859  0.2146 -1.3424
   16CHTO   O56 6472   5.637   3.043   2.078  0.2638  0.0467 -0.1747
   16CHTO  H135 6473   5.548   3.072   2.085  0.9174  2.1869 -0.1165
   16CHTO   C81 6474   5.538   3.019   1.837 -0.3257  0.2582 -0.4006
   16CHTO  H153 6475   5.575   3.000   1.737  1.0626 -0.4873  0.2389
   16CHTO   N14 6476   5.486   3.155   1.827 -0.5336 -0.8328  0.2253
   16CHTO  H141 6477   5.558   3.220   1.782 -0.2449 -0.9424  0.5324
   16CHTO  H142 6478   5.400   3.157   1.762  0.0843  0.9369 -0.5690
   16CHTO   C79 6479   5.440   2.901   1.876  0.0227 -0.2977 -0.6898
   16CHTO  H151 6480   5.359   2.898   1.802  0.5665 -3.1472 -1.2102
   16CHTO   O52 6481   5.506   2.768   1.880  0.5852 -0.0054  0.3019
   16CHTO   C86 6482   5.629   2.756   1.960  0.4939 -0.3737  0.0046
   16CHTO  H158 6483   5.592   2.753   2.065 -1.5760 -2.2951 -0.7446
   16CHTO   C90 6484   5.685   2.614   1.932 -0.0665  0.0343 -0.1898
   16CHTO   O60 6485   5.589   2.521   1.984  0.2561 -0.2984 -0.2448
   16CHTO  H138 6486   5.605   2.506   2.075 -0.0193 -0.0260 -0.1520
   16CHTO   O50 6487   5.388   2.927   2.012 -0.3488 -0.0650  0.2979
   16CHTO   C73 6488   5.304   2.853   2.100 -0.1444 -0.4731 -0.8619
   16CHTO  H145 6489   5.345   2.754   2.124  2.1297  0.3272 -1.3515
   16CHTO   C74 6490   5.172   2.817   2.029 -0.1655  0.7867 -0.0119
   16CHTO  H146 6491   5.199   2.762   1.938  0.9907  0.8708  0.2713
   16CHTO   O54 6492   5.091   2.732   2.114  0.6347  0.4730 -0.6033
   16CHTO  H133 6493   5.007   2.716   2.075  0.6905 -2.2820  0.2971
   16CHTO   C75 6494   5.105   2.960   1.996 -0.3795  0.7128 -0.2601
   16CHTO  H147 6495   5.171   3.013   1.926  0.4065 -1.9386 -1.5918
   16CHTO   N13 6496   4.966   2.949   1.937 -0.0039  0.3726 -0.2242
   16CHTO  H139 6497   4.973   2.981   1.834  3.3596  1.7978  0.3819
   16CHTO  H140 6498   4.948   2.843   1.934 -3.4028  0.9331 -2.9464
   16CHTO   C76 6499   5.095   3.050   2.131  0.4609  0.2722 -0.3043
   16CHTO  H148 6500   5.009   3.022   2.191  0.1089 -0.1695 -1.0023
   16CHTO   O49 6501   5.221   3.055   2.206  0.3190 -0.2776  0.1311
   16CHTO   C77 6502   5.278   2.925   2.239  0.5302  0.0622  0.6878
   16CHTO  H149 6503   5.209   2.861   2.294 -3.2943  1.3180 -2.3778
   16CHTO   C88 6504   5.398   2.937   2.336  0.1932  0.0720  0.3373
   16CHTO   O58 6505   5.364   2.989   2.479 -0.0474 -0.0912  0.5585
   16CHTO  H136 6506   5.423   2.943   2.536  1.7514  0.2140 -1.0078
   16CHTO   O51 6507   5.077   3.181   2.083 -0.3930  0.3833  0.0773
   16CHTO   C78 6508   5.022   3.298   2.197  0.5244  0.1204 -0.3423
   16CHTO  H150 6509   5.043   3.256   2.298 -0.2782 -0.1175 -0.2662
   16CHTO   C80 6510   4.868   3.321   2.183  0.2671  0.2294  0.1676
   16CHTO  H152 6511   4.844   3.357   2.081 -0.2172  1.1297  0.5928
   16CHTO   O55 6512   4.804   3.197   2.214  0.0358  0.1276  0.1776
   16CHTO  H134 6513   4.713   3.213   2.230  0.2755  0.8635  0.7960
   16CHTO   C84 6514   4.829   3.431   2.296  0.0058  0.5620  0.5257
   16CHTO  H156 6515   4.845   3.389   2.395 -0.5893 -3.8100 -1.1016
   16CHTO   N15 6516   4.687   3.469   2.279 -0.3322  0.1714 -0.4553
   16CHTO  H143 6517   4.670   3.519   2.373  0.3086 -3.4804  1.6971
   16CHTO  H144 6518   4.616   3.391   2.269  0.1785 -0.1401 -1.6574
   16CHTO   C87 6519   4.916   3.559   2.286 -0.0337  0.3609  0.6891
   16CHTO  H159 6520   4.901   3.617   2.195  3.5520  1.5607  0.7995
   16CHTO   O53 6521   5.077   3.511   2.299 -0.0846  0.1072  0.3144
   16CHTO   C82 6522   5.104   3.424   2.186 -0.2058 -0.6786 -0.2708
   16CHTO  H154 6523   5.080   3.485   2.098 -0.4373 -2.7409 -1.6579
   16CHTO   C89 6524   5.253   3.406   2.184 -0.1839  0.1503 -0.5151
   16CHTO   O59 6525   5.316   3.326   2.082 -0.6482  0.0907 -0.1143
   16CHTO  H137 6526   5.286   3.347   1.996 -1.7326  0.3315  0.3098
   16CHTO   O45 6527   4.902   3.648   2.413  0.3370 -0.1457  0.0412
   16CHTO   C67 6528   4.978   3.766   2.408 -1.1303  0.4022  0.4162
   16CHTO  H124 6529   5.067   3.755   2.346 -1.8262 -0.6911 -0.4126
   16CHTO   C65 6530   4.894   3.882   2.351 -0.0023 -0.0519  0.5240
   16CHTO  H122 6531   4.791   3.846   2.349  0.4043 -1.2804  0.8404
   16CHTO   O44 6532   4.929   3.904   2.215 -0.7232 -0.4026  0.0526
   16CHTO  H102 6533   4.898   3.991   2.201  0.2903 -0.1130 -0.4651
   16CHTO   C63 6534   4.886   4.013   2.442  0.3071  0.3468  0.3083
   16CHTO  H120 6535   4.832   3.988   2.533 -0.2364 -0.7476 -0.3027
   16CHTO   N11 6536   4.788   4.117   2.399  0.3237 -0.6782 -0.0029
   16CHTO  H108 6537   4.816   4.220   2.403  0.0640 -0.4295 -3.4315
   16CHTO  H109 6538   4.705   4.097   2.335 -0.7180  2.9116  0.0938
   16CHTO   C61 6539   5.024   4.054   2.484 -0.0050 -0.2356  0.8946
   16CHTO  H118 6540   5.001   4.131   2.560 -1.5086 -0.1372  0.3536
   16CHTO   O40 6541   5.101   3.944   2.553 -0.8674  0.0119  0.5028
   16CHTO   C68 6542   5.042   3.805   2.548 -0.8833 -0.1550  0.3001
   16CHTO  H125 6543   4.969   3.800   2.631  1.1154 -0.8714  2.0709
   16CHTO   C72 6544   5.158   3.701   2.580 -0.3888 -0.2827 -0.4183
   16CHTO   O48 6545   5.195   3.714   2.721  0.2496  0.3485  0.0841
   16CHTO  H105 6546   5.257   3.647   2.741  0.5218  0.4251 -0.5013
   16CHTO   O38 6547   5.093   4.111   2.375  0.1547  0.5682  0.5352
   16CHTO   C55 6548   5.218   4.175   2.407  0.0429  0.4403 -0.3323
   16CHTO  H112 6549   5.245   4.122   2.500 -1.1594 -0.6834 -0.6194
   16CHTO   C56 6550   5.211   4.333   2.430 -0.2151  0.4059  0.2272
   16CHTO  H113 6551   5.169   4.386   2.343  0.5631  0.7781  0.0759
   16CHTO   O42 6552   5.116   4.352   2.542 -0.3257  0.1370  0.1149
   16CHTO  H100 6553   5.032   4.311   2.529  0.8618 -1.9498 -1.4112
   16CHTO   C57 6554   5.354   4.384   2.475 -0.3054  0.2476 -0.3063
   16CHTO  H114 6555   5.395   4.329   2.560 -0.2496 -1.8773 -1.6847
   16CHTO   N10 6556   5.355   4.526   2.513 -0.2654  0.5113 -0.0906
   16CHTO  H106 6557   5.350   4.531   2.621 -0.0001 -3.3758  0.1466
   16CHTO  H107 6558   5.274   4.584   2.471 -2.2021 -1.0645  1.4001
   16CHTO   C58 6559   5.448   4.353   2.352 -0.1221  0.4343 -0.0538
   16CHTO  H115 6560   5.412   4.403   2.259  0.7964  0.6548 -0.2877
   16CHTO   O37 6561   5.447   4.210   2.326 -0.1458  0.6090  0.2112
   16CHTO   C59 6562   5.323   4.148   2.299  0.0701  0.0280  0.1903
   16CHTO  H116 6563   5.283   4.183   2.204 -0.6097 -1.5337 -0.1200
   16CHTO   C70 6564   5.354   3.996   2.290 -0.4636 -0.1715  0.3770
   16CHTO   O46 6565   5.465   3.962   2.210  0.6338  0.3871 -0.2695
   16CHTO  H103 6566   5.438   3.952   2.120 -3.0205  0.0881  0.7547
   16CHTO   O39 6567   5.617   4.394   2.406 -0.6705  0.1025  0.2479
   16CHTO   C60 6568   5.725   4.319   2.346  0.4490  0.5280  0.2086
   16CHTO  H117 6569   5.697   4.217   2.371 -1.7782  1.3468  1.2024
   16CHTO   C62 6570   5.741   4.331   2.191  0.1060 -0.6848  0.5133
   16CHTO  H119 6571   5.644   4.322   2.137 -0.2150  0.2318  0.9400
   16CHTO   O43 6572   5.779   4.463   2.160 -0.2464 -1.0869 -0.4120
   16CHTO  H101 6573   5.770   4.477   2.068 -2.7270  1.0654  0.0636
   16CHTO   C66 6574   5.847   4.224   2.146  0.3790 -0.0901  0.2802
   16CHTO  H123 6575   5.821   4.130   2.194 -2.0397  0.9857  1.1365
   16CHTO   N12 6576   5.868   4.203   2.000 -0.0527  0.1525 -0.1255
   16CHTO  H110 6577   5.876   4.299   1.951  0.8881 -0.3434 -0.9752
   16CHTO  H111 6578   5.786   4.148   1.955  2.6130 -0.6805 -4.2908
   16CHTO   C69 6579   5.983   4.251   2.212 -0.0347  0.8977 -0.1720
   16CHTO  H126 6580   6.024   4.346   2.171  0.1769  0.7393 -0.3357
   16CHTO   O41 6581   5.975   4.271   2.383 -0.0537 -0.2578  0.3900
   16CHTO   C64 6582   5.855   4.349   2.419 -0.1409  0.8377  0.3289
   16CHTO  H121 6583   5.882   4.457   2.418  0.4455  0.7058  1.0840
   16CHTO   C71 6584   5.823   4.309   2.567 -0.4363  0.7822  0.0726
   16CHTO   O47 6585   5.906   4.380   2.658 -0.5690  0.4627 -0.1362
   16CHTO  H104 6586   5.868   4.458   2.693  1.5914  2.3986 -1.9272
   16CHTO   O34 6587   6.089   4.131   2.185  0.1671 -0.2474 -0.1971
   16CHTO   C49 6588   6.109   4.009   2.274  0.6296 -0.2897 -0.6034
   16CHTO   H91 6589   6.024   4.007   2.342  0.1506  0.6547 -1.1687
   16CHTO   C47 6590   6.238   4.009   2.363 -0.2873  0.0296 -0.8693
   16CHTO   H89 6591   6.230   3.923   2.434 -0.2220  0.8562  0.1543
   16CHTO   O33 6592   6.236   4.131   2.443 -0.0115  0.5127 -0.2285
   16CHTO   H70 6593   6.193   4.111   2.523  0.9820 -0.4407  0.0740
   16CHTO   C45 6594   6.367   4.004   2.270  0.3861  0.3218  0.0813
   16CHTO   H87 6595   6.370   4.081   2.192 -0.0638  2.3818  2.0372
   16CHTO    N8 6596   6.499   4.004   2.343 -0.0488 -0.2336 -0.1914
   16CHTO   H75 6597   6.508   4.105   2.382  0.0642  0.3906 -1.7709
   16CHTO   H76 6598   6.575   3.984   2.269 -0.5228 -1.6471 -0.3102
   16CHTO   C43 6599   6.360   3.871   2.178  0.7774  0.1050  0.3800
   16CHTO   H85 6600   6.439   3.882   2.105 -2.5435  1.1073 -3.2192
   16CHTO   O29 6601   6.228   3.871   2.110  0.0353  0.0958 -0.0482
   16CHTO   C50 6602   6.109   3.880   2.192  0.2141 -0.1964  0.2643
   16CHTO   H92 6603   6.031   3.891   2.115  0.2075 -2.3894 -0.0829
   16CHTO   C54 6604   6.083   3.746   2.258 -0.1473 -0.0150 -0.1285
   16CHTO   O36 6605   5.960   3.743   2.336  0.1073 -0.0824  0.2537
   16CHTO   H72 6606   5.942   3.653   2.355  2.6282 -0.5148  0.6769
   16CHTO   O27 6607   6.376   3.747   2.254 -0.8914  0.5211  0.0318
   16CHTO   C37 6608   6.440   3.629   2.313  0.4955 -0.3092  0.0422
   16CHTO   H79 6609   6.491   3.649   2.408 -0.4281  0.5371  0.3696
   16CHTO   C38 6610   6.337   3.523   2.360 -0.1534 -0.0147  0.1819
   16CHTO   H80 6611   6.287   3.478   2.273 -2.6308 -0.3861  1.7683
   16CHTO   O31 6612   6.249   3.578   2.461  0.1660 -0.2594 -0.6646
   16CHTO   H68 6613   6.159   3.552   2.463 -0.8404  3.0189  2.1685
   16CHTO   C39 6614   6.411   3.408   2.430 -0.0269 -0.6501  0.1151
   16CHTO   H81 6615   6.449   3.450   2.523  1.3364  0.8874 -1.1020
   16CHTO    N7 6616   6.319   3.293   2.471  0.1110 -0.1065  0.0162
   16CHTO   H73 6617   6.278   3.245   2.384  0.4983  2.6472 -1.7469
   16CHTO   H74 6618   6.385   3.236   2.535  0.1078 -0.2026 -0.0666
   16CHTO   C40 6619   6.536   3.353   2.356 -0.5968  0.0642  0.8285
   16CHTO   H82 6620   6.524   3.265   2.293 -0.8563  1.4487 -1.1056
   16CHTO   O26 6621   6.617   3.456   2.287 -0.1663 -0.3756 -0.0572
   16CHTO   C41 6622   6.542   3.569   2.216 -0.2048 -0.5562 -0.5813
   16CHTO   H83 6623   6.498   3.527   2.125 -1.2951 -1.8212  0.5041
   16CHTO   C52 6624   6.654   3.670   2.190 -0.1619  0.3851 -0.1112
   16CHTO   O35 6625   6.723   3.637   2.077 -0.6582  0.0865 -0.4406
   16CHTO   H71 6626   6.792   3.701   2.078  0.0869 -0.7032  2.4404
   16CHTO   O28 6627   6.631   3.322   2.453 -0.2683  0.3882  0.2578
   16CHTO   C42 6628   6.714   3.200   2.445  0.3118  0.1810 -0.2235
   16CHTO   H84 6629   6.800   3.230   2.505  1.2866 -2.2320 -0.3861
   16CHTO   C44 6630   6.767   3.173   2.299 -0.1183  0.1231 -0.2491
   16CHTO   H86 6631   6.682   3.166   2.231  0.1099  0.5535 -0.5845
   16CHTO   O32 6632   6.845   3.280   2.249  0.5367 -0.1551  0.1484
   16CHTO   H69 6633   6.779   3.340   2.221  0.3824 -0.3617  0.0757
   16CHTO   C48 6634   6.852   3.042   2.285  1.0076 -0.3890  0.0869
   16CHTO   H90 6635   6.949   3.054   2.334  0.7112 -1.0974  0.8566
   16CHTO    N9 6636   6.875   3.009   2.141  0.1972  0.0839 -0.0820
   16CHTO   H77 6637   6.911   2.908   2.137  0.1596  0.0077  1.5163
   16CHTO   H78 6638   6.949   3.073   2.094 -0.0259 -0.6722 -1.4844
   16CHTO   C51 6639   6.763   2.923   2.356  0.0672 -0.0175 -0.0695
   16CHTO   H93 6640   6.667   2.907   2.307 -0.7326  0.3280  1.3449
   16CHTO   O30 6641   6.750   2.952   2.495  0.0797 -0.4983  0.2196
   16CHTO   C46 6642   6.648   3.071   2.513  0.1496  0.7270  0.4098
   16CHTO   H88 6643   6.558   3.038   2.461  0.3550 -0.4427  0.7839
   16CHTO   C53 6644   6.640   3.079   2.669  0.0317  0.6627  0.1041
   16CHTO   O72 6645   6.565   3.192   2.712 -0.2244 -0.1542 -0.1826
   16CHTO  H199 6646   6.600   3.227   2.791 -1.9579 -0.5711  0.7927
   16CHTO   O22 6647   6.834   2.799   2.349 -0.1119  0.5174  0.4270
   16CHTO   C31 6648   6.769   2.664   2.334  0.1925  0.1289 -1.2291
   16CHTO   H59 6649   6.698   2.646   2.418  0.4543  0.1754 -0.9942
   16CHTO   C29 6650   6.685   2.643   2.209 -0.0790  0.1909  0.7214
   16CHTO   H57 6651   6.755   2.657   2.126  0.8786 -0.3896  1.4226
   16CHTO   O21 6652   6.574   2.731   2.200 -0.3898 -0.5095  0.6528
   16CHTO   H37 6653   6.586   2.790   2.128 -1.3439 -1.0262  0.0587
   16CHTO   C27 6654   6.631   2.490   2.198 -0.7359  0.0195  0.0597
   16CHTO   H55 6655   6.555   2.477   2.277 -0.7367 -0.6683 -0.0522
   16CHTO    N5 6656   6.560   2.454   2.069 -0.7241 -0.3386  0.0057
   16CHTO   H43 6657   6.581   2.367   2.008  2.3227 -0.1404  0.6883
   16CHTO   H44 6658   6.457   2.484   2.069 -0.0466  2.0860 -0.0045
   16CHTO   C25 6659   6.746   2.387   2.236 -0.8150  0.0263  0.3594
   16CHTO   H53 6660   6.814   2.387   2.150 -0.5603 -0.3059  0.5610
   16CHTO   O17 6661   6.810   2.426   2.361 -0.0029 -0.2705  0.5519
   16CHTO   C32 6662   6.878   2.553   2.347 -0.5264  0.4095 -0.2934
   16CHTO   H60 6663   6.929   2.553   2.251 -1.1452  1.7854 -0.6331
   16CHTO   C36 6664   6.984   2.581   2.458  0.5058 -0.7378 -0.0003
   16CHTO   O25 6665   6.912   2.585   2.587 -0.1207  0.3190  0.1281
   16CHTO   H40 6666   6.852   2.514   2.598  3.2729 -2.5739  1.2867
   16CHTO   O15 6667   6.687   2.243   2.266  0.0900 -0.5565  0.2831
   16CHTO   C19 6668   6.596   2.184   2.366 -0.6918  0.8071 -0.1422
   16CHTO   H47 6669   6.641   2.087   2.390 -2.4956  0.2599  1.1485
   16CHTO   C20 6670   6.596   2.255   2.502 -0.2040  0.4888 -0.4431
   16CHTO   H48 6671   6.568   2.361   2.493 -0.7445  0.4625  0.7932
   16CHTO   O19 6672   6.727   2.244   2.556 -0.1894  0.3724  0.3118
   16CHTO   H35 6673   6.725   2.302   2.630 -1.5512  0.8086 -0.0421
   16CHTO   C21 6674   6.488   2.191   2.594 -0.6239  0.2059  0.3755
   16CHTO   H49 6675   6.513   2.092   2.632  1.0266  0.8740  1.0699
   16CHTO    N4 6676   6.465   2.271   2.717 -0.6885  0.0321  0.5833
   16CHTO   H41 6677   6.504   2.228   2.808  0.1155 -2.4211 -0.8930
   16CHTO   H42 6678   6.493   2.376   2.712  1.1222 -0.4587  0.0085
   16CHTO   C22 6679   6.354   2.173   2.517  0.2577 -0.1185  0.1916
   16CHTO   H50 6680   6.310   2.270   2.492  1.8002  0.0980 -1.8375
   16CHTO   O14 6681   6.373   2.090   2.402  0.0828  0.1089 -0.6152
   16CHTO   C23 6682   6.452   2.161   2.309  0.2868  0.0105  0.1788
   16CHTO   H51 6683   6.401   2.253   2.277 -2.1124 -1.8962 -1.6386
   16CHTO   C34 6684   6.462   2.081   2.183  0.0510 -0.0276  0.3303
   16CHTO   O23 6685   6.345   2.100   2.106  0.4864 -0.1020  0.1299
   16CHTO   H38 6686   6.356   2.046   2.030 -2.7624 -0.3098 -0.2850
   16CHTO   O16 6687   6.256   2.101   2.600 -0.0250  0.0507 -0.3574
   16CHTO   C24 6688   6.115   2.084   2.538 -0.8820 -0.6984  0.1745
   16CHTO   H52 6689   6.112   2.128   2.438  0.5603  1.7444  1.1411
   16CHTO   C26 6690   6.031   2.171   2.634 -0.2073  0.6488 -0.2348
   16CHTO   H54 6691   6.050   2.136   2.738 -0.7344  3.0450  0.6839
   16CHTO   O20 6692   6.068   2.313   2.625  0.3794 -0.6739 -0.4419
   16CHTO   H36 6693   6.131   2.330   2.693 -0.1245  2.2594 -0.6427
   16CHTO   C30 6694   5.879   2.155   2.596  0.2735  0.0580 -0.1896
   16CHTO   H58 6695   5.859   2.198   2.497  0.2854  0.0116 -0.2122
   16CHTO    N6 6696   5.789   2.234   2.682  0.7031  1.1778 -0.2588
   16CHTO   H45 6697   5.717   2.297   2.632  0.5639 -1.2536 -3.2204
   16CHTO   H46 6698   5.845   2.294   2.753 -0.4753  1.9605  0.0230
   16CHTO   C33 6699   5.836   2.004   2.591  0.2074 -0.2580  0.3237
   16CHTO   H61 6700   5.842   1.958   2.691 -2.1153  0.6099  0.8841
   16CHTO   O18 6701   5.925   1.930   2.506  0.3456  0.2080  0.0347
   16CHTO   C28 6702   6.067   1.937   2.533 -0.3380 -0.0391 -0.9582
   16CHTO   H56 6703   6.095   1.883   2.624 -1.8177  0.8759  0.0689
   16CHTO   C35 6704   6.143   1.854   2.437  0.0007 -0.3319 -0.1900
   16CHTO   O24 6705   6.131   1.712   2.464  0.2302 -0.3848 -0.9417
   16CHTO   H39 6706   6.150   1.702   2.556 -0.0535  1.1343 -0.7105
   16CHTO    O9 6707   5.699   1.986   2.548 -0.5748  0.1127  0.4131
   16CHTO   C13 6708   5.646   1.837   2.570 -0.1321  0.5841  0.3529
   16CHTO   H26 6709   5.695   1.801   2.663 -0.9035  1.4477  1.1015
   16CHTO   C11 6710   5.685   1.741   2.446 -0.6525 -0.6492  0.4137
   16CHTO   H24 6711   5.794   1.730   2.454 -0.8793 -2.7115  0.9465
   16CHTO    O8 6712   5.667   1.791   2.312 -0.2316  0.7584 -0.1232
   16CHTO    H3 6713   5.733   1.754   2.257 -0.7152  0.8161 -0.7443
   16CHTO    C9 6714   5.626   1.597   2.477  0.0010 -0.0300  0.2916
   16CHTO   H22 6715   5.671   1.570   2.573  0.9563  0.4597 -0.0055
   16CHTO    N2 6716   5.690   1.498   2.381 -0.6053  0.1462  0.4351
   16CHTO   H10 6717   5.720   1.535   2.284 -0.4359  0.1214  0.4781
   16CHTO   H11 6718   5.772   1.455   2.436 -0.2125  0.5016  0.1269
   16CHTO    C7 6719   5.472   1.604   2.486  0.6834 -0.0002 -0.1502
   16CHTO   H20 6720   5.457   1.555   2.585  0.3385 -1.1980 -0.7928
   16CHTO    O4 6721   5.425   1.736   2.495 -0.1764 -0.0253  0.1160
   16CHTO   C14 6722   5.483   1.825   2.589 -0.1217 -0.5388 -0.4360
   16CHTO   H27 6723   5.459   1.789   2.691  1.9896 -0.5134  0.0952
   16CHTO   C18 6724   5.423   1.969   2.577 -0.3528  0.3907 -0.2930
   16CHTO   O13 6725   5.287   1.969   2.605  0.5985  0.0645 -0.2285
   16CHTO    H7 6726   5.260   1.939   2.690  2.8348  2.1660  1.2802
   16CHTO    O2 6727   5.404   1.526   2.365 -0.0066  0.0763 -0.5830
   16CHTO    C1 6728   5.264   1.489   2.386 -0.2992  0.3323  0.1153
   16CHTO   H14 6729   5.232   1.446   2.289 -0.1921  1.3879 -0.4016
   16CHTO    C2 6730   5.166   1.599   2.418  0.1398  0.5304  0.6692
   16CHTO   H15 6731   5.204   1.656   2.505  1.1619 -0.8086  1.1134
   16CHTO    O6 6732   5.156   1.694   2.309  0.3676 -0.1216 -0.0377
   16CHTO    H1 6733   5.100   1.760   2.345  1.7744 -0.2127  2.5091
   16CHTO    C3 6734   5.024   1.533   2.456 -0.0356  0.1754 -0.5223
   16CHTO   H16 6735   4.988   1.485   2.363  2.9479 -1.2758 -0.9806
   16CHTO    N1 6736   4.919   1.630   2.500 -0.1460  0.0785 -0.4198
   16CHTO    H8 6737   4.828   1.585   2.463  1.1588 -2.3332 -0.8380
   16CHTO    H9 6738   4.935   1.732   2.469  4.4327 -1.0192 -1.9673
   16CHTO    C4 6739   5.043   1.409   2.564  0.5894  0.0486 -0.3774
   16CHTO   H17 6740   5.076   1.450   2.659 -0.2540  1.1678 -0.5647
   16CHTO    O1 6741   5.142   1.318   2.519 -0.1006 -0.1261  0.0786
   16CHTO    C5 6742   5.268   1.380   2.499 -0.0855 -0.2491  0.0240
   16CHTO   H18 6743   5.293   1.431   2.592  1.7372 -1.5684  0.2754
   16CHTO   C16 6744   5.379   1.279   2.471  0.2679 -0.6049  0.1476
   16CHTO   O11 6745   5.358   1.213   2.343  0.1845 -0.2890  0.0326
   16CHTO    H5 6746   5.363   1.282   2.278  3.2286 -0.0908  0.4058
   16CHTO    O3 6747   4.927   1.328   2.594  0.7626  0.0049  0.1113
   16CHTO    C6 6748   4.922   1.250   2.726 -0.4654 -0.3686  0.1513
   16CHTO   H19 6749   5.019   1.245   2.776 -1.1149  0.4914  1.5425
   16CHTO    C8 6750   4.822   1.319   2.820  0.4099 -0.1560  0.0420
   16CHTO   H21 6751   4.726   1.324   2.768  1.2606 -1.4215 -1.6921
   16CHTO    O7 6752   4.877   1.449   2.832 -0.2896  0.7681 -0.8549
   16CHTO    H2 6753   4.808   1.511   2.818 -0.8144 -0.2885 -3.1839
   16CHTO   C12 6754   4.816   1.239   2.948 -0.3674 -0.2665 -0.0131
   16CHTO   H25 6755   4.914   1.247   2.999 -0.5357  0.4235  0.2143
   16CHTO    N3 6756   4.717   1.305   3.039  0.2831 -0.2157 -0.1678
   16CHTO   H12 6757   4.757   1.292   3.138  3.3338  3.3451 -0.8029
   16CHTO   H13 6758   4.620   1.257   3.033  0.9971 -2.1087  2.7640
   16CHTO   C15 6759   4.783   1.089   2.924  0.0226  0.4347  0.9043
   16CHTO   H28 6760   4.677   1.072   2.907 -0.0642 -0.4921  2.2566
   16CHTO   O10 6761   4.824   0.989   3.058 -0.2710 -0.4494 -0.3035
   16CHTO    H4 6762   4.778   1.014   3.135 -2.1184  0.7033 -1.7568
   16CHTO    O5 6763   4.869   1.035   2.823 -0.2882 -0.0407  0.0598
   16CHTO   C10 6764   4.880   1.104   2.698  0.3123 -0.0308 -0.2563
   16CHTO   H23 6765   4.780   1.117   2.654 -0.2413 -0.8897  0.7400
   16CHTO   C17 6766   4.967   1.026   2.599  0.5219 -0.2958 -0.5066
   16CHTO   O12 6767   5.108   1.054   2.625  0.0570 -0.6544 -0.5308
   16CHTO    H6 6768   5.155   1.051   2.544  1.5095 -2.7668  0.3503
   17CHTO  H203 6769   3.932   5.319   0.645 -2.0747  0.3086  1.3151
   17CHTO   O82 6770   3.960   5.399   0.685 -0.3949  0.0436  0.7227
   17CHTO  C123 6771   3.959   5.405   0.827 -0.1434 -0.3111  0.3483
   17CHTO  H227 6772   3.869   5.352   0.863  0.2244 -1.4276 -0.3608
   17CHTO   O77 6773   4.076   5.326   0.858 -0.1278 -0.0082 -0.1110
   17CHTO  C118 6774   4.122   5.321   0.995  0.0047 -0.2006 -0.1654
   17CHTO  H222 6775   4.043   5.287   1.063 -0.1153  0.0486 -0.1790
   17CHTO  C125 6776   4.249   5.217   1.000 -0.3782 -0.6942 -0.1866
   17CHTO   O84 6777   4.206   5.088   0.970 -0.0030  0.0197 -0.4954
   17CHTO  H205 6778   4.180   5.041   1.047  0.8592  0.2055 -0.0859
   17CHTO  C114 6779   4.167   5.462   1.036 -0.0614 -0.6564 -0.5399
   17CHTO  H218 6780   4.244   5.497   0.966  1.1460 -1.6594  0.2539
   17CHTO  C116 6781   4.043   5.558   1.032  0.2018 -0.7182 -0.5090
   17CHTO  H220 6782   3.966   5.520   1.102 -0.8108 -2.5277 -2.5575
   17CHTO   O79 6783   4.075   5.694   1.072  0.9077  0.6236 -0.0751
   17CHTO  H201 6784   4.155   5.728   1.037  0.5958 -0.2424 -1.6789
   17CHTO  C120 6785   3.978   5.553   0.884  0.2383 -0.8736 -0.0417
   17CHTO  H224 6786   4.054   5.607   0.824  1.3534 -3.0195 -0.6021
   17CHTO   N21 6787   3.846   5.621   0.872  0.4379  0.1770 -0.6929
   17CHTO  H211 6788   3.763   5.554   0.890  0.6513  0.0478 -0.1693
   17CHTO  H212 6789   3.832   5.665   0.775  0.0130 -0.8041 -1.0792
   17CHTO   O75 6790   4.227   5.458   1.169 -0.3286 -0.5223 -0.1663
   17CHTO  C112 6791   4.307   5.609   1.223 -0.3078  0.1887 -0.2197
   17CHTO  H216 6792   4.232   5.685   1.249 -1.1619 -0.6262 -0.2838
   17CHTO   O73 6793   4.389   5.646   1.117  0.0700 -0.4255 -0.1543
   17CHTO  C113 6794   4.436   5.778   1.138 -0.6300  0.2551 -0.0010
   17CHTO  H217 6795   4.353   5.845   1.170 -0.9539 -0.1018 -0.0867
   17CHTO  C124 6796   4.482   5.832   1.003  0.1150  0.0496  0.6138
   17CHTO   O83 6797   4.596   5.765   0.957 -0.7710  0.2240 -0.1527
   17CHTO  H204 6798   4.582   5.706   0.885 -1.2089 -1.3300  1.1723
   17CHTO  C109 6799   4.538   5.773   1.251  0.2865  0.3639 -0.5027
   17CHTO  H213 6800   4.627   5.720   1.214  1.7315  2.9190 -0.8288
   17CHTO  C110 6801   4.480   5.705   1.379  0.5184 -0.5338 -0.7320
   17CHTO  H214 6802   4.417   5.786   1.415  3.4346  1.7286 -0.4621
   17CHTO   O78 6803   4.585   5.679   1.471  0.0728  0.4851 -0.5115
   17CHTO  H200 6804   4.561   5.627   1.546  0.8857 -1.0990 -1.3240
   17CHTO  C111 6805   4.399   5.579   1.345  0.0186 -0.1085 -0.1430
   17CHTO  H215 6806   4.468   5.501   1.308 -0.8640  0.1396 -2.3781
   17CHTO   N19 6807   4.324   5.523   1.457 -0.3765  0.5293  0.1179
   17CHTO  H207 6808   4.310   5.590   1.541  0.3957  0.9046 -0.0459
   17CHTO  H208 6809   4.375   5.436   1.494  0.4466  0.2274 -1.6650
   17CHTO   O74 6810   4.577   5.908   1.282 -0.1880 -0.4671 -0.1401
   17CHTO  C115 6811   4.743   5.942   1.272  0.2911  0.2382  0.5076
   17CHTO  H219 6812   4.771   6.012   1.351  0.8729  1.8354 -1.0697
   17CHTO   O76 6813   4.851   5.794   1.285 -0.0454  0.0666 -0.0817
   17CHTO  C122 6814   4.985   5.835   1.266 -0.2138 -0.6763 -0.4335
   17CHTO  H226 6815   5.046   5.746   1.256  3.3457  1.8137 -2.0908
   17CHTO  C126 6816   5.037   5.909   1.394  0.5611  0.0873 -0.2992
   17CHTO   O85 6817   5.024   5.822   1.510  0.0451  0.2391  0.2068
   17CHTO  H206 6818   5.108   5.808   1.548  0.4644  0.9639 -0.4424
   17CHTO  C121 6819   5.007   5.914   1.129 -0.1526  0.9176 -0.5051
   17CHTO  H225 6820   5.117   5.934   1.125 -0.3491  2.3707  0.8877
   17CHTO   O81 6821   4.978   5.839   1.015 -0.1354  0.2294  0.7464
   17CHTO  H202 6822   5.027   5.874   0.943 -0.4938 -2.0861 -0.6707
   17CHTO  C119 6823   4.928   6.053   1.126 -0.2870  0.1367 -0.3095
   17CHTO  H223 6824   4.967   6.108   1.211 -1.9639  2.3642 -0.9203
   17CHTO  C117 6825   4.778   6.024   1.144 -0.1473 -0.6029  0.1208
   17CHTO  H221 6826   4.739   5.965   1.061 -0.8020 -0.4312  0.3028
   17CHTO   N20 6827   4.696   6.149   1.147 -0.2770 -0.2120 -0.8546
   17CHTO  H209 6828   4.649   6.150   1.050 -2.0837  3.1042 -0.0366
   17CHTO  H210 6829   4.756   6.238   1.131 -0.6626  0.5644  1.7217
   17CHTO   O80 6830   4.982   6.153   0.999  0.2068  0.1728  0.3703
   17CHTO  C103 6831   5.095   6.258   1.030  0.1031  0.1430 -0.3655
   17CHTO  H190 6832   5.112   6.257   1.138 -0.0659 -0.9540 -0.3446
   17CHTO  C101 6833   5.226   6.221   0.957 -0.4398  0.8317 -0.0634
   17CHTO  H188 6834   5.197   6.190   0.857  1.5751  1.6687 -0.9236
   17CHTO   O68 6835   5.291   6.102   1.025 -0.7034 -0.4951  0.1108
   17CHTO  H168 6836   5.225   6.041   1.052 -1.6983  0.3665 -0.3827
   17CHTO   C99 6837   5.329   6.341   0.940 -0.4098  0.4788 -0.0421
   17CHTO  H186 6838   5.381   6.358   1.036 -2.3012  1.9995  0.7315
   17CHTO   N17 6839   5.441   6.308   0.843 -0.0543  0.2461 -0.0760
   17CHTO  H174 6840   5.453   6.394   0.780 -0.8642  0.7565  0.4558
   17CHTO  H175 6841   5.531   6.295   0.902 -1.2026 -0.9947  1.4515
   17CHTO   C97 6842   5.254   6.477   0.910 -0.5104 -0.4973 -0.2385
   17CHTO  H184 6843   5.218   6.484   0.807  2.6275 -1.2298 -1.4371
   17CHTO   O64 6844   5.150   6.502   1.005 -0.4354  0.1548 -0.1428
   17CHTO  C104 6845   5.047   6.400   0.989  0.1887 -0.7801  0.2314
   17CHTO  H191 6846   5.012   6.396   0.886  0.4350 -1.7139  0.1750
   17CHTO  C108 6847   4.922   6.432   1.080 -0.1980  0.2163 -0.7691
   17CHTO   O71 6848   4.958   6.445   1.220 -0.4672  0.7723 -0.7108
   17CHTO  H171 6849   4.883   6.461   1.273 -1.5429 -0.2001 -1.9126
   17CHTO   O62 6850   5.348   6.584   0.931 -0.5029 -0.7466  0.3926
   17CHTO   C91 6851   5.331   6.710   0.862  0.1360 -0.3807 -0.1138
   17CHTO  H178 6852   5.319   6.682   0.758  1.7764  1.9763 -0.9959
   17CHTO   C92 6853   5.468   6.794   0.860  0.3877 -0.8588 -0.7671
   17CHTO  H179 6854   5.557   6.729   0.856  0.8512 -0.2256 -0.7624
   17CHTO   O66 6855   5.468   6.875   0.739 -0.5866 -0.2294 -0.5794
   17CHTO  H166 6856   5.556   6.899   0.716 -0.7824  1.5887  0.4088
   17CHTO   C93 6857   5.485   6.892   0.978 -0.1677  0.5848  0.3353
   17CHTO  H180 6858   5.567   6.960   0.952 -0.9713  1.6496  0.5318
   17CHTO   N16 6859   5.526   6.827   1.110 -0.2337 -0.0537 -0.2915
   17CHTO  H172 6860   5.442   6.780   1.160  1.5704 -0.4024  2.5032
   17CHTO  H173 6861   5.577   6.900   1.171 -0.4565 -0.7450  0.7253
   17CHTO   C94 6862   5.356   6.981   0.993 -0.6419 -0.1376 -0.2581
   17CHTO  H181 6863   5.326   6.988   1.098 -1.2382 -0.5731 -0.3997
   17CHTO   O61 6864   5.245   6.940   0.912 -0.0006  0.5986  0.3479
   17CHTO   C95 6865   5.212   6.802   0.908  0.6434 -0.5629 -0.0063
   17CHTO  H182 6866   5.176   6.768   1.005  2.1308 -1.6189  0.1936
   17CHTO  C106 6867   5.073   6.791   0.822 -0.1916  0.3743  0.0417
   17CHTO   O69 6868   4.955   6.832   0.892 -0.4846  0.2326  0.1404
   17CHTO  H169 6869   4.957   6.923   0.871 -0.4472  0.1843 -0.0721
   17CHTO   O63 6870   5.386   7.124   0.925  0.0768  0.3862 -0.2538
   17CHTO   C96 6871   5.325   7.234   1.003  0.4421  0.3208  0.1044
   17CHTO  H183 6872   5.307   7.202   1.106 -1.2055  0.8706 -0.0042
   17CHTO   C98 6873   5.179   7.283   0.967  0.6486  0.5926 -0.0096
   17CHTO  H185 6874   5.181   7.318   0.863 -1.9430 -1.4296 -0.7868
   17CHTO   O67 6875   5.081   7.179   0.975 -0.0282  0.2946 -0.0069
   17CHTO  H167 6876   5.080   7.143   1.062 -0.7501 -0.4928 -0.3299
   17CHTO  C102 6877   5.133   7.401   1.057 -0.3823 -0.5178  0.3857
   17CHTO  H189 6878   5.106   7.357   1.154 -0.7941 -1.5766 -0.2017
   17CHTO   N18 6879   5.014   7.486   1.005  0.3251 -0.4473  0.1903
   17CHTO  H176 6880   4.977   7.445   0.911 -0.8792 -2.6655  1.5778
   17CHTO  H177 6881   4.935   7.501   1.077  0.8309 -1.9831  1.0959
   17CHTO  C105 6882   5.255   7.495   1.094 -0.5425  0.5375 -0.2790
   17CHTO  H192 6883   5.229   7.600   1.088  1.4157  1.0972  0.7181
   17CHTO   O65 6884   5.377   7.479   1.013 -0.1740  0.0168  0.0086
   17CHTO  C100 6885   5.436   7.342   1.002  0.3465 -0.0758  0.6652
   17CHTO  H187 6886   5.479   7.340   0.901 -0.5938  1.7052  0.2093
   17CHTO  C107 6887   5.557   7.325   1.105  0.2816 -0.6950 -0.0084
   17CHTO   O70 6888   5.612   7.197   1.090  0.0292  0.4365  0.1304
   17CHTO  H170 6889   5.706   7.198   1.094  0.0025 -0.1888  1.1122
   17CHTO   O57 6890   5.264   7.458   1.265  0.0496  0.6654 -0.2854
   17CHTO   C85 6891   5.194   7.550   1.345 -0.3035 -0.2941 -0.6123
   17CHTO  H157 6892   5.123   7.614   1.289 -0.6953 -0.3501 -0.1848
   17CHTO   C83 6893   5.304   7.647   1.408  0.1396  0.5881 -0.0905
   17CHTO  H155 6894   5.354   7.697   1.325 -2.8029  1.3847 -1.4301
   17CHTO   O56 6895   5.407   7.571   1.475  0.0516 -0.1376  0.5717
   17CHTO  H135 6896   5.474   7.544   1.415  1.4074 -0.8598  2.4058
   17CHTO   C81 6897   5.237   7.755   1.499 -0.2360 -0.4497 -0.7490
   17CHTO  H153 6898   5.163   7.811   1.440  1.8611  1.5975 -1.5349
   17CHTO   N14 6899   5.331   7.857   1.549  0.0505 -0.1908  0.1414
   17CHTO  H141 6900   5.274   7.927   1.605 -1.9186  0.6604 -2.8378
   17CHTO  H142 6901   5.378   7.913   1.471 -0.8227  0.3175 -0.0188
   17CHTO   C79 6902   5.158   7.687   1.614 -0.3743 -0.5015  0.0891
   17CHTO  H151 6903   5.098   7.765   1.661  0.4765  0.2724 -0.0649
   17CHTO   O52 6904   5.071   7.582   1.562  0.5856 -0.5259  0.2199
   17CHTO   C86 6905   5.123   7.482   1.470  0.0164  0.0003 -0.1143
   17CHTO  H158 6906   5.201   7.429   1.529 -1.3141 -0.9556  0.8100
   17CHTO   C90 6907   5.012   7.382   1.431  0.1623 -0.3313  0.4058
   17CHTO   O60 6908   4.915   7.458   1.358  0.2217 -0.6177 -0.7158
   17CHTO  H138 6909   4.834   7.412   1.365 -1.0391  1.7250  0.9219
   17CHTO   O50 6910   5.229   7.626   1.718  0.2696  0.3011  0.2539
   17CHTO   C73 6911   5.226   7.635   1.859  0.1931  0.6543 -0.3187
   17CHTO  H145 6912   5.207   7.740   1.886  0.3263  0.6233 -0.0978
   17CHTO   C74 6913   5.356   7.588   1.932  1.1359 -0.2282  1.1931
   17CHTO  H146 6914   5.431   7.655   1.887  0.8566 -0.1259  0.8805
   17CHTO   O54 6915   5.356   7.614   2.072 -0.1516 -0.7666  0.5074
   17CHTO  H133 6916   5.280   7.574   2.108 -0.6181 -2.4232 -2.1610
   17CHTO   C75 6917   5.379   7.439   1.891  0.4502  0.1931  0.3295
   17CHTO  H147 6918   5.372   7.437   1.781  1.3642  0.1424  0.2712
   17CHTO   N13 6919   5.514   7.400   1.936 -0.5577  0.5821  0.1605
   17CHTO  H139 6920   5.544   7.421   2.038  1.5342  3.2168 -0.9342
   17CHTO  H140 6921   5.581   7.444   1.863  0.5834 -1.2540  0.0658
   17CHTO   C76 6922   5.265   7.354   1.956 -0.3665  0.3674  0.1587
   17CHTO  H148 6923   5.274   7.374   2.062  0.4495 -0.1926  0.1974
   17CHTO   O49 6924   5.144   7.408   1.893  0.0921  0.1967  0.1668
   17CHTO   C77 6925   5.108   7.543   1.919 -0.0069  0.1443 -0.1723
   17CHTO  H149 6926   5.104   7.556   2.028  1.9524 -2.8048  0.3062
   17CHTO   C88 6927   4.966   7.559   1.861 -0.6798  0.2688 -0.0503
   17CHTO   O58 6928   4.917   7.665   1.937  0.2486 -0.0373 -0.5421
   17CHTO  H136 6929   4.841   7.709   1.904  0.0295  1.7284  2.1420
   17CHTO   O51 6930   5.269   7.210   1.913 -0.0374  0.3687  0.1396
   17CHTO   C78 6931   5.124   7.124   1.973  0.4213 -0.3015  0.5868
   17CHTO  H150 6932   5.055   7.202   2.011  2.1971  1.0285  1.1637
   17CHTO   C80 6933   5.162   7.028   2.089 -0.1080 -1.1346  0.0756
   17CHTO  H152 6934   5.251   6.972   2.053  0.9560  1.1409 -0.9364
   17CHTO   O55 6935   5.202   7.108   2.200  0.1514  0.4047  0.3057
   17CHTO  H134 6936   5.274   7.164   2.178 -1.0949  1.6218 -0.7528
   17CHTO   C84 6937   5.044   6.934   2.121  0.9250  0.1767 -0.4756
   17CHTO  H156 6938   4.970   7.006   2.158  2.0688  1.6468 -0.9670
   17CHTO   N15 6939   5.071   6.834   2.224  0.0993 -0.1498 -0.4306
   17CHTO  H143 6940   4.976   6.793   2.252 -1.0706  2.2953 -0.6743
   17CHTO  H144 6941   5.112   6.880   2.312  0.8885  2.0957 -1.9394
   17CHTO   C87 6942   4.983   6.875   1.987 -0.2790 -0.3232 -0.4611
   17CHTO  H159 6943   5.051   6.805   1.939 -0.3777 -1.2420  0.7120
   17CHTO   O53 6944   4.951   6.970   1.901  0.4734  0.2317 -0.7879
   17CHTO   C82 6945   5.069   7.043   1.853  0.1757  0.3680  0.6973
   17CHTO  H154 6946   5.141   6.973   1.810  0.9919  0.6997  1.5041
   17CHTO   C89 6947   5.023   7.125   1.734 -0.1937  0.7819 -0.2993
   17CHTO   O59 6948   4.916   7.215   1.760 -0.2982 -0.2980  0.0823
   17CHTO  H137 6949   4.882   7.236   1.675 -0.0606 -0.1426  0.0229
   17CHTO   O45 6950   4.858   6.780   2.016 -0.1567 -0.0115 -0.2477
   17CHTO   C67 6951   4.724   6.840   2.035 -0.6554 -0.6178  0.7062
   17CHTO  H124 6952   4.742   6.931   2.093  0.3137 -0.3303 -0.0391
   17CHTO   C65 6953   4.647   6.876   1.903 -0.6649 -0.1354  0.7223
   17CHTO  H122 6954   4.720   6.849   1.827 -2.2127 -0.2664 -0.7603
   17CHTO   O44 6955   4.636   7.020   1.901 -0.0084  0.0204 -0.7304
   17CHTO  H102 6956   4.569   7.049   1.961  1.2777 -0.0993  0.7824
   17CHTO   C63 6957   4.524   6.792   1.868 -0.8291  0.3081  0.6665
   17CHTO  H120 6958   4.559   6.693   1.840  1.9672  0.7373  2.4307
   17CHTO   N11 6959   4.445   6.822   1.747  0.4146 -0.1215  0.1735
   17CHTO  H108 6960   4.453   6.924   1.713  1.5041 -0.7883 -1.7048
   17CHTO  H109 6961   4.464   6.762   1.660  0.1223 -0.5270  0.3895
   17CHTO   C61 6962   4.426   6.782   1.996  0.2306 -0.1129  0.0532
   17CHTO  H118 6963   4.383   6.681   2.003 -0.0255 -0.0859 -0.9988
   17CHTO   O40 6964   4.493   6.803   2.119  0.3401 -0.0425  0.0448
   17CHTO   C68 6965   4.629   6.752   2.125  0.3575 -0.3932 -0.4263
   17CHTO  H125 6966   4.649   6.649   2.091 -0.9230 -0.5930 -0.5785
   17CHTO   C72 6967   4.677   6.760   2.276  0.4342  0.9074  0.3687
   17CHTO   O48 6968   4.623   6.655   2.361  0.0278 -0.1187  0.2165
   17CHTO  H105 6969   4.533   6.659   2.390  0.3487  0.0576  1.2049
   17CHTO   O38 6970   4.325   6.886   2.003 -0.2971 -0.1100  0.4457
   17CHTO   C55 6971   4.208   6.845   2.075  0.5227 -0.3398  0.2456
   17CHTO  H112 6972   4.235   6.777   2.157  0.1280  0.4998  1.0729
   17CHTO   C56 6973   4.093   6.796   1.979 -0.0503  0.0156 -0.1792
   17CHTO  H113 6974   4.090   6.867   1.894  1.8224  0.4881  0.1349
   17CHTO   O42 6975   4.126   6.666   1.926  0.3011  0.5859  0.0832
   17CHTO  H100 6976   4.126   6.673   1.832 -1.0698  0.6037  0.0764
   17CHTO   C57 6977   3.949   6.789   2.049 -0.0650 -0.3433  0.6974
   17CHTO  H114 6978   3.962   6.713   2.126  2.0439 -1.6116 -0.8441
   17CHTO   N10 6979   3.829   6.763   1.958 -0.2060  0.2268 -0.4407
   17CHTO  H106 6980   3.842   6.801   1.857 -0.0410  0.1455 -0.4518
   17CHTO  H107 6981   3.747   6.816   2.003  1.5643  1.3184  1.5887
   17CHTO   C58 6982   3.928   6.932   2.118  0.6918  0.3100 -1.2299
   17CHTO  H115 6983   3.943   7.010   2.040  0.6923  1.6901  0.1502
   17CHTO   O37 6984   4.033   6.957   2.212 -0.6221 -0.6443  0.0932
   17CHTO   C59 6985   4.158   6.979   2.150 -0.1248 -0.0565 -0.0507
   17CHTO  H116 6986   4.137   7.057   2.078  0.5661  0.9952  0.8647
   17CHTO   C70 6987   4.265   7.026   2.250 -0.1152  0.1357 -0.6538
   17CHTO   O46 6988   4.371   7.104   2.190 -0.2757 -0.3018  0.4060
   17CHTO  H103 6989   4.400   7.064   2.110  2.7467 -1.3368  1.9334
   17CHTO   O39 6990   3.783   6.940   2.197  0.3173  0.3714  0.6488
   17CHTO   C60 6991   3.761   7.078   2.244 -0.0025 -0.4785 -0.0905
   17CHTO  H117 6992   3.850   7.129   2.280 -0.0122 -0.2667 -0.3700
   17CHTO   C62 6993   3.686   7.158   2.134  0.5508  0.5194 -0.3383
   17CHTO  H119 6994   3.764   7.172   2.056  1.1837 -0.7434  0.0622
   17CHTO   O43 6995   3.575   7.075   2.088  0.1640  0.1074 -0.7267
   17CHTO  H101 6996   3.566   7.075   1.995  0.0360 -1.6407 -0.7351
   17CHTO   C66 6997   3.642   7.308   2.183 -0.5766 -1.0018  0.2298
   17CHTO  H123 6998   3.733   7.357   2.219  0.9940 -2.9224 -1.0403
   17CHTO   N12 6999   3.584   7.393   2.079 -0.1575  0.5616 -0.4971
   17CHTO  H110 7000   3.629   7.491   2.071  1.9019 -0.1425  1.8100
   17CHTO  H111 7001   3.477   7.397   2.071 -0.2553  1.1826  0.8675
   17CHTO   C69 7002   3.550   7.302   2.302 -0.9546 -0.3383 -0.1257
   17CHTO  H126 7003   3.458   7.247   2.272 -0.7138 -0.6622 -0.2743
   17CHTO   O41 7004   3.624   7.219   2.413  0.2550  1.0151  0.0590
   17CHTO   C64 7005   3.665   7.070   2.363  0.2520  0.1115  0.0050
   17CHTO  H121 7006   3.570   7.022   2.329  1.6045 -2.6434  0.0405
   17CHTO   C71 7007   3.721   6.987   2.478 -0.2479 -0.2284  0.2317
   17CHTO   O47 7008   3.634   6.954   2.586  0.3234 -0.3114  0.3617
   17CHTO  H104 7009   3.657   6.876   2.632  0.9711 -0.2261  0.2006
   17CHTO   O34 7010   3.508   7.447   2.359  0.0043 -0.3114 -0.1581
   17CHTO   C49 7011   3.404   7.561   2.415 -0.1760 -0.0100  0.1459
   17CHTO   H91 7012   3.475   7.632   2.458  0.4151 -0.0148 -0.8081
   17CHTO   C47 7013   3.318   7.482   2.514 -0.4743  0.7056 -0.7754
   17CHTO   H89 7014   3.268   7.566   2.567 -2.1791 -1.1041  0.5701
   17CHTO   O33 7015   3.410   7.416   2.612 -0.6681  0.3928 -0.6009
   17CHTO   H70 7016   3.373   7.342   2.656  1.0172  0.1408  0.4461
   17CHTO   C45 7017   3.217   7.384   2.447  0.1688 -1.4454 -0.0311
   17CHTO   H87 7018   3.260   7.283   2.442 -0.7442 -1.7764 -1.2371
   17CHTO    N8 7019   3.098   7.370   2.539  0.5448  0.5479 -0.0364
   17CHTO   H75 7020   3.038   7.459   2.526 -2.8155 -1.4177  1.3235
   17CHTO   H76 7021   3.041   7.279   2.523  0.6531 -0.3704  4.2798
   17CHTO   C43 7022   3.190   7.417   2.289 -0.2450 -0.1008  0.3305
   17CHTO   H85 7023   3.275   7.377   2.235 -0.6632 -1.6309  0.7579
   17CHTO   O29 7024   3.184   7.558   2.283 -0.1581 -0.0719 -0.8705
   17CHTO   C50 7025   3.313   7.624   2.306 -0.3317 -0.8703 -0.1407
   17CHTO   H92 7026   3.378   7.637   2.218 -1.4226 -0.8604 -0.9487
   17CHTO   C54 7027   3.286   7.774   2.347 -0.2726  0.3788  0.3716
   17CHTO   O36 7028   3.248   7.845   2.230  0.0498  0.0341  0.2501
   17CHTO   H72 7029   3.161   7.825   2.203  0.1217 -1.1565  0.9089
   17CHTO   O27 7030   3.087   7.346   2.225 -0.4630  0.2109  0.1991
   17CHTO   C37 7031   3.053   7.225   2.148  0.3906  0.1540 -0.3057
   17CHTO   H79 7032   2.955   7.248   2.102  1.8224  1.4972 -2.7864
   17CHTO   C38 7033   3.156   7.226   2.035 -0.0929 -1.2322 -0.1891
   17CHTO   H80 7034   3.255   7.247   2.078 -0.5659 -0.7456  0.6860
   17CHTO   O31 7035   3.121   7.338   1.956 -0.2765 -0.1565 -0.3458
   17CHTO   H68 7036   3.176   7.337   1.880  0.6483  1.8848  0.2709
   17CHTO   C39 7037   3.160   7.091   1.956 -0.2827  0.1977  0.2165
   17CHTO   H81 7038   3.065   7.090   1.901 -0.8682  0.2270  1.2077
   17CHTO    N7 7039   3.282   7.087   1.864  0.1282  0.4861  0.0278
   17CHTO   H73 7040   3.285   6.992   1.812  0.2202  0.0158  0.8925
   17CHTO   H74 7041   3.375   7.108   1.914  0.5298  0.2413 -0.6093
   17CHTO   C40 7042   3.157   6.972   2.056 -0.4814 -0.1976  0.1068
   17CHTO   H82 7043   3.251   6.955   2.109 -0.5836  0.2695  0.4486
   17CHTO   O26 7044   3.045   6.978   2.145 -0.3408  0.1638 -0.3365
   17CHTO   C41 7045   3.040   7.096   2.227  0.5854  0.2046 -0.3292
   17CHTO   H83 7046   3.119   7.084   2.303  0.2402  1.4340  0.2413
   17CHTO   C52 7047   2.899   7.094   2.306 -0.5898 -0.3726  0.2707
   17CHTO   O35 7048   2.884   6.973   2.408 -0.0661  0.3598 -0.4506
   17CHTO   H71 7049   2.954   6.981   2.469  0.7934 -0.1525 -1.3536
   17CHTO   O28 7050   3.119   6.851   1.984 -0.0894  0.4605 -0.2687
   17CHTO   C42 7051   3.187   6.721   2.018  0.5427 -0.3589 -0.5217
   17CHTO   H84 7052   3.130   6.654   1.954  0.4113 -0.2720 -0.4966
   17CHTO   C44 7053   3.177   6.670   2.168  0.0355  0.4515 -0.4809
   17CHTO   H86 7054   3.227   6.742   2.232  1.3397 -0.7159 -0.1654
   17CHTO   O32 7055   3.034   6.667   2.203 -0.2761  0.0776  0.1358
   17CHTO   H69 7056   2.989   6.594   2.164  1.6587 -0.6921 -0.6759
   17CHTO   C48 7057   3.239   6.524   2.191 -0.5532  0.5298  0.7105
   17CHTO   H90 7058   3.173   6.453   2.141 -2.8984  4.0641 -1.4309
   17CHTO    N9 7059   3.251   6.486   2.336  0.1268 -0.6151 -0.2316
   17CHTO   H77 7060   3.193   6.397   2.355 -1.6830  0.9707  2.0606
   17CHTO   H78 7061   3.194   6.555   2.397 -1.0438 -1.0054 -0.8534
   17CHTO   C51 7062   3.384   6.520   2.119 -0.3723 -0.0997  0.1242
   17CHTO   H93 7063   3.454   6.580   2.178  0.4606  1.1378 -2.0591
   17CHTO   O30 7064   3.373   6.572   1.988 -0.3894  0.0287 -0.4896
   17CHTO   C46 7065   3.327   6.711   1.973 -0.1396  0.1804  0.1221
   17CHTO   H88 7066   3.396   6.769   2.033  0.6177 -1.1451  0.5510
   17CHTO   C53 7067   3.336   6.747   1.824 -0.0104  0.6185  0.0927
   17CHTO   O72 7068   3.472   6.747   1.780  0.7194  0.6149 -0.3824
   17CHTO  H199 7069   3.522   6.818   1.814  0.9497 -0.1080  0.8334
   17CHTO   O22 7070   3.434   6.384   2.122  0.0842 -0.1487 -0.4744
   17CHTO   C31 7071   3.459   6.304   2.003  0.2806 -0.1606  0.7389
   17CHTO   H59 7072   3.492   6.206   2.042 -1.8956 -0.8248  0.9853
   17CHTO   C29 7073   3.339   6.275   1.908  0.3358 -0.4780 -0.2002
   17CHTO   H57 7074   3.288   6.368   1.880  0.6182 -0.8516 -2.0265
   17CHTO   O21 7075   3.245   6.194   1.975  0.2930 -0.5751 -0.2015
   17CHTO   H37 7076   3.193   6.250   2.029  2.2110  1.3682 -0.3137
   17CHTO   C27 7077   3.384   6.213   1.775 -0.1678  0.2888 -0.2771
   17CHTO   H55 7078   3.430   6.115   1.795  0.6578  0.4995 -1.1108
   17CHTO    N5 7079   3.262   6.191   1.686 -0.2591  0.6485 -0.4674
   17CHTO   H43 7080   3.199   6.113   1.726 -2.5429  0.6278 -3.8958
   17CHTO   H44 7081   3.215   6.280   1.647  1.0782  1.6843  0.2438
   17CHTO   C25 7082   3.483   6.316   1.715 -0.0941  0.6981 -0.3460
   17CHTO   H53 7083   3.438   6.416   1.712  0.6754  1.0648  0.1959
   17CHTO   O17 7084   3.599   6.310   1.801 -0.2244  0.6817  0.2058
   17CHTO   C32 7085   3.588   6.367   1.932  0.0597  0.0661 -0.0189
   17CHTO   H60 7086   3.575   6.474   1.916 -0.0329  0.0421 -0.1110
   17CHTO   C36 7087   3.717   6.357   2.013  0.1408 -0.1446  0.4344
   17CHTO   O25 7088   3.821   6.420   1.943 -0.0434 -0.1152  0.1844
   17CHTO   H40 7089   3.811   6.512   1.928  2.0784  0.4577  2.0269
   17CHTO   O15 7090   3.522   6.283   1.574  0.1015 -0.5270  0.2346
   17CHTO   C19 7091   3.567   6.390   1.491  0.3665  0.3902  0.1792
   17CHTO   H47 7092   3.599   6.340   1.399 -0.4840 -1.1530  0.7184
   17CHTO   C20 7093   3.463   6.502   1.451  0.0237  0.1644 -0.4682
   17CHTO   H48 7094   3.405   6.531   1.539  0.9322  0.8832 -0.0947
   17CHTO   O19 7095   3.361   6.434   1.383 -0.0455  0.1095 -0.0705
   17CHTO   H35 7096   3.382   6.418   1.293  0.5963  0.9941 -0.0876
   17CHTO   C21 7097   3.517   6.639   1.387  0.9102 -0.1144  0.3532
   17CHTO   H49 7098   3.551   6.619   1.285  1.0645  1.5087  0.0728
   17CHTO    N4 7099   3.406   6.741   1.376  0.0102  0.3564 -0.4092
   17CHTO   H41 7100   3.438   6.843   1.391  0.5232  0.0145  0.9611
   17CHTO   H42 7101   3.369   6.727   1.276 -0.8716  0.5595 -0.1206
   17CHTO   C22 7102   3.627   6.686   1.485 -0.1635  0.4795 -0.3515
   17CHTO   H50 7103   3.585   6.685   1.585  0.0084 -0.7908 -0.2910
   17CHTO   O14 7104   3.725   6.581   1.479 -0.1857 -0.3026 -0.0298
   17CHTO   C23 7105   3.689   6.463   1.549 -0.0422 -0.8733  0.3432
   17CHTO   H51 7106   3.676   6.489   1.655 -2.4081 -1.1426  0.1532
   17CHTO   C34 7107   3.818   6.378   1.544  0.2141 -0.1400 -0.2907
   17CHTO   O23 7108   3.828   6.282   1.652  0.1026 -0.4997 -0.1627
   17CHTO   H38 7109   3.750   6.229   1.646 -0.3174  0.2869 -2.1749
   17CHTO   O16 7110   3.692   6.811   1.454 -0.2323  0.5077  0.0881
   17CHTO   C24 7111   3.808   6.858   1.568 -0.0434  0.2461 -0.0727
   17CHTO   H52 7112   3.802   6.797   1.658 -1.7236 -0.6619 -0.7722
   17CHTO   C26 7113   3.753   6.997   1.609 -0.2260  0.8517 -0.6495
   17CHTO   H54 7114   3.747   7.058   1.516  1.2399  3.1681  0.7302
   17CHTO   O20 7115   3.630   6.981   1.680 -0.1713 -0.4416 -0.5415
   17CHTO   H36 7116   3.609   6.890   1.693 -1.4637 -0.1879 -0.7823
   17CHTO   C30 7117   3.865   7.069   1.687 -0.5318 -0.7947 -0.5433
   17CHTO   H58 7118   3.892   7.019   1.782  0.9969  1.6482  0.3650
   17CHTO    N6 7119   3.829   7.205   1.728 -0.3380 -0.2441  0.0990
   17CHTO   H45 7120   3.726   7.201   1.760 -0.2069 -1.4924  0.3764
   17CHTO   H46 7121   3.896   7.239   1.806 -0.6402  0.4566  0.0579
   17CHTO   C33 7122   4.000   7.076   1.609 -0.4595  0.5428  0.1856
   17CHTO   H61 7123   3.982   7.119   1.509 -0.9973  1.8327  0.8291
   17CHTO   O18 7124   4.033   6.936   1.602  0.0580  0.0166 -0.1731
   17CHTO   C28 7125   3.945   6.862   1.511  0.5660  0.0632  0.0581
   17CHTO   H56 7126   3.942   6.901   1.409  1.5904  1.1016  0.4046
   17CHTO   C35 7127   4.012   6.723   1.504  0.2149 -0.1534 -0.0690
   17CHTO   O24 7128   4.144   6.721   1.440 -0.3092 -0.6523  0.4257
   17CHTO   H39 7129   4.188   6.647   1.477  0.5353 -1.0752 -1.3667
   17CHTO    O9 7130   4.110   7.149   1.661 -0.7473 -0.5979  0.4570
   17CHTO   C13 7131   4.210   7.214   1.554 -0.4293 -0.0363  1.2227
   17CHTO   H26 7132   4.178   7.180   1.453  0.8125 -0.4573  0.9522
   17CHTO   C11 7133   4.352   7.168   1.584 -0.0762 -0.5263  0.0239
   17CHTO   H24 7134   4.357   7.059   1.564 -2.4846 -0.9208  1.4095
   17CHTO    O8 7135   4.384   7.177   1.726 -0.6262  0.1527 -0.4371
   17CHTO    H3 7136   4.413   7.265   1.742 -0.1856  0.1621 -1.2508
   17CHTO    C9 7137   4.449   7.235   1.481 -0.7884  0.2397  0.7720
   17CHTO   H22 7138   4.421   7.197   1.381 -0.8131 -0.4662  1.0414
   17CHTO    N2 7139   4.588   7.172   1.487 -0.6656 -0.4154  0.2261
   17CHTO   H10 7140   4.667   7.230   1.442  1.1390 -2.6328  0.4303
   17CHTO   H11 7141   4.586   7.073   1.443  0.0270 -0.2085 -0.2855
   17CHTO    C7 7142   4.437   7.390   1.482  0.0268 -0.0115 -0.3928
   17CHTO   H20 7143   4.492   7.422   1.391 -0.3788  1.7623 -0.0349
   17CHTO    O4 7144   4.305   7.428   1.476  0.0049  0.2488  0.4658
   17CHTO   C14 7145   4.197   7.373   1.550 -1.0204  0.7533 -0.1193
   17CHTO   H27 7146   4.099   7.390   1.501 -0.3454 -0.3451 -1.8695
   17CHTO   C18 7147   4.185   7.438   1.687 -0.3977  0.0822  0.2427
   17CHTO   O13 7148   4.150   7.576   1.663  0.5671  0.0574  0.2667
   17CHTO    H7 7149   4.143   7.616   1.748  1.7595  1.6429 -0.3639
   17CHTO    O2 7150   4.505   7.463   1.608  0.3498 -0.3547  0.7797
   17CHTO    C1 7151   4.535   7.601   1.609 -0.6127 -0.8616  1.2168
   17CHTO   H14 7152   4.451   7.671   1.589  0.2079  0.0430  0.9111
   17CHTO    C2 7153   4.647   7.642   1.508  0.2455  0.4643  0.5515
   17CHTO   H15 7154   4.734   7.578   1.530 -0.6311 -0.7636  0.4379
   17CHTO    O6 7155   4.616   7.624   1.368 -0.3879 -0.4322  0.2715
   17CHTO    H1 7156   4.663   7.553   1.329 -1.3336 -1.1054  0.3280
   17CHTO    C3 7157   4.692   7.792   1.529  0.9058  0.0927  0.5479
   17CHTO   H16 7158   4.612   7.850   1.481 -2.2725 -1.9876  3.1719
   17CHTO    N1 7159   4.815   7.835   1.464 -0.8304 -0.8109  0.4764
   17CHTO    H8 7160   4.814   7.942   1.455 -2.9339 -0.8329  0.3229
   17CHTO    H9 7161   4.840   7.785   1.371 -1.0567  0.3778 -0.2320
   17CHTO    C4 7162   4.696   7.840   1.682  0.2240 -0.5150  0.5194
   17CHTO   H17 7163   4.792   7.818   1.729  0.5010  0.0061  0.2066
   17CHTO    O1 7164   4.589   7.780   1.757  0.4871  0.7145  0.4115
   17CHTO    C5 7165   4.587   7.640   1.750 -0.1496  0.7990 -0.2271
   17CHTO   H18 7166   4.684   7.592   1.762 -0.3468  0.3130 -0.6019
   17CHTO   C16 7167   4.499   7.592   1.867 -0.3754  0.4354  0.5495
   17CHTO   O11 7168   4.491   7.449   1.888 -0.0738  0.0550  0.0421
   17CHTO    H5 7169   4.408   7.433   1.930  1.0459  1.4854  2.9623
   17CHTO    O3 7170   4.669   7.983   1.693  0.2518 -0.6531 -0.1186
   17CHTO    C6 7171   4.734   8.070   1.793  0.1526  0.3322  0.1329
   17CHTO   H19 7172   4.703   8.172   1.771  1.9977  1.0736  0.9078
   17CHTO    C8 7173   4.679   8.033   1.936 -0.2118  0.1834  0.0925
   17CHTO   H21 7174   4.709   7.929   1.947  1.4569  0.6318 -0.0237
   17CHTO    O7 7175   4.534   8.047   1.928  0.5422 -0.3205  0.1405
   17CHTO    H2 7176   4.494   7.963   1.914  0.7946 -0.6014  1.1382
   17CHTO   C12 7177   4.747   8.124   2.049  0.1586  0.2705 -0.9891
   17CHTO   H25 7178   4.705   8.226   2.045 -0.5862 -0.0808 -2.3207
   17CHTO    N3 7179   4.704   8.081   2.184  0.9345  0.1192 -0.2934
   17CHTO   H12 7180   4.788   8.040   2.238 -0.2435 -0.9878  0.7579
   17CHTO   H13 7181   4.612   8.024   2.184  1.1316 -0.2191 -1.8957
   17CHTO   C15 7182   4.901   8.130   2.025 -0.0411 -0.0668 -0.1012
   17CHTO   H28 7183   4.947   8.035   2.052  0.6069  0.6621  1.4977
   17CHTO   O10 7184   4.966   8.248   2.100  0.2964  0.0044 -0.1079
   17CHTO    H4 7185   4.929   8.333   2.085 -1.6229 -0.9471 -0.9010
   17CHTO    O5 7186   4.949   8.154   1.888 -0.2097  0.0121 -1.1008
   17CHTO   C10 7187   4.892   8.067   1.797  1.1009  0.3046 -0.1307
   17CHTO   H23 7188   4.929   7.965   1.808  0.5644 -0.1435 -2.1552
   17CHTO   C17 7189   4.937   8.100   1.653  0.1258  0.0476 -0.4371
   17CHTO   O12 7190   5.073   8.086   1.622  0.0759  0.1071  0.1521
   17CHTO    H6 7191   5.127   8.110   1.695 -0.2671 -0.4669  0.5973
   18CHTO  H203 7192   6.011   7.933   2.581 -1.3728  2.0264 -1.1400
   18CHTO   O82 7193   6.087   7.956   2.530 -0.2285  0.1028 -0.3800
   18CHTO  C123 7194   6.050   7.920   2.394 -0.5466  0.3681 -0.3486
   18CHTO  H227 7195   5.961   7.980   2.369 -0.3705  0.4713 -0.7277
   18CHTO   O77 7196   6.168   7.955   2.324  0.1764  0.2710 -0.0143
   18CHTO  C118 7197   6.154   7.932   2.183  0.4901 -0.0819 -0.1136
   18CHTO  H222 7198   6.053   7.965   2.153  0.0921 -0.0933  1.1611
   18CHTO  C125 7199   6.266   8.020   2.104  0.4348 -0.0700 -0.2379
   18CHTO   O84 7200   6.396   7.991   2.154  0.6181 -0.0017  0.4050
   18CHTO  H205 7201   6.421   7.906   2.124  1.9406  1.1178 -1.7979
   18CHTO  C114 7202   6.167   7.777   2.161  0.0214  0.8605 -0.0494
   18CHTO  H218 7203   6.262   7.749   2.207  0.5333  3.3279  0.4863
   18CHTO  C116 7204   6.050   7.707   2.238 -0.9650 -0.0151  0.2436
   18CHTO  H220 7205   5.958   7.719   2.177 -0.6394  4.9524  0.4855
   18CHTO   O79 7206   6.071   7.567   2.236  0.1370  0.4026 -0.5513
   18CHTO  H201 7207   6.071   7.528   2.321  1.2216  0.0704 -0.6956
   18CHTO  C120 7208   6.029   7.768   2.382  0.7636  0.4774  0.3267
   18CHTO  H224 7209   6.098   7.708   2.445  1.0661 -0.6222 -1.0165
   18CHTO   N21 7210   5.898   7.725   2.438  0.3425  1.1089 -0.1131
   18CHTO  H211 7211   5.883   7.621   2.412 -0.2421  1.4647 -1.2306
   18CHTO  H212 7212   5.809   7.779   2.409 -0.7645 -0.5247  0.1729
   18CHTO   O75 7213   6.167   7.756   2.020 -0.1872  0.0220 -0.6620
   18CHTO  C112 7214   6.258   7.650   1.967  0.6325 -0.1911  0.3795
   18CHTO  H216 7215   6.272   7.570   2.042  0.2737 -0.2823  0.3526
   18CHTO   O73 7216   6.382   7.718   1.933 -0.1410 -0.4054  0.2154
   18CHTO  C113 7217   6.478   7.653   1.845 -0.3197  0.9116 -0.0439
   18CHTO  H217 7218   6.508   7.552   1.880  0.7427  0.9667 -0.7505
   18CHTO  C124 7219   6.599   7.746   1.835  0.2645 -0.6452 -0.2863
   18CHTO   O83 7220   6.707   7.699   1.751 -0.1476  0.4162 -0.5225
   18CHTO  H204 7221   6.677   7.648   1.679  1.5868  0.0861 -1.0401
   18CHTO  C109 7222   6.406   7.644   1.707 -0.3870  0.3479  0.5370
   18CHTO  H213 7223   6.375   7.746   1.680  0.9395  0.8691  0.9397
   18CHTO  C110 7224   6.281   7.544   1.730 -0.1909  0.2217  0.0840
   18CHTO  H214 7225   6.324   7.447   1.751  0.6653  0.4973 -0.3542
   18CHTO   O78 7226   6.209   7.523   1.608 -0.0507  0.2774 -0.5410
   18CHTO  H200 7227   6.256   7.486   1.536 -1.2281  1.8673 -2.1964
   18CHTO  C111 7228   6.185   7.589   1.845  0.2681  0.8063  0.6789
   18CHTO  H215 7229   6.125   7.673   1.805 -0.4697  0.0045  0.0627
   18CHTO   N19 7230   6.091   7.477   1.876  0.0233 -0.4309 -0.2428
   18CHTO  H207 7231   6.035   7.452   1.787 -0.2733 -1.4768  0.2262
   18CHTO  H208 7232   6.146   7.394   1.917  0.4274  0.9944  2.1404
   18CHTO   O74 7233   6.481   7.592   1.603 -0.1247 -0.5742 -0.8082
   18CHTO  C115 7234   6.445   7.654   1.458  0.0289 -0.3511 -0.6181
   18CHTO  H219 7235   6.350   7.617   1.420  2.3565 -2.6554 -4.4731
   18CHTO   O76 7236   6.437   7.814   1.458 -0.0382 -0.3202 -0.0098
   18CHTO  C122 7237   6.557   7.891   1.428 -0.3248 -0.9297 -0.4833
   18CHTO  H226 7238   6.618   7.872   1.516 -1.2354  1.1259  0.6272
   18CHTO  C126 7239   6.517   8.035   1.436 -0.1091 -0.3153  0.0721
   18CHTO   O85 7240   6.487   8.080   1.571 -0.2276 -0.1108  0.0488
   18CHTO  H206 7241   6.445   8.164   1.569  0.7222  0.3652 -0.3273
   18CHTO  C121 7242   6.623   7.847   1.291  0.1005 -0.2350  0.8265
   18CHTO  H225 7243   6.611   7.926   1.213 -2.9731  1.2923  2.7664
   18CHTO   O81 7244   6.762   7.836   1.315  0.3903  0.2717 -0.2834
   18CHTO  H202 7245   6.785   7.900   1.380  2.5554 -0.6456 -0.0867
   18CHTO  C119 7246   6.563   7.711   1.234 -0.8443 -0.0439  0.3120
   18CHTO  H223 7247   6.463   7.732   1.195 -0.7370  0.0957  0.1075
   18CHTO  C117 7248   6.559   7.610   1.352  0.1274  0.0933  0.4253
   18CHTO  H221 7249   6.650   7.590   1.409 -0.3362 -0.6137  0.9245
   18CHTO   N20 7250   6.522   7.477   1.295 -0.1589 -0.2064 -0.0675
   18CHTO  H209 7251   6.588   7.436   1.221  0.8792  0.0800  0.6829
   18CHTO  H210 7252   6.519   7.402   1.373  0.7773 -1.3497 -1.1163
   18CHTO   O80 7253   6.644   7.658   1.102 -0.2507 -0.1996  0.6335
   18CHTO  C103 7254   6.569   7.644   0.954  1.3072  0.3233 -0.1458
   18CHTO  H190 7255   6.651   7.615   0.887  2.0482 -0.8201  1.2318
   18CHTO  C101 7256   6.459   7.532   0.939 -0.0478  0.0757 -0.2025
   18CHTO  H188 7257   6.388   7.547   1.021 -0.9011  0.6567 -1.0275
   18CHTO   O68 7258   6.516   7.405   0.964  0.5568 -0.0221 -0.1591
   18CHTO  H168 7259   6.580   7.385   0.898  1.4492  1.1767  0.3213
   18CHTO   C99 7260   6.377   7.534   0.805  0.5884  0.0421 -0.5143
   18CHTO  H186 7261   6.449   7.505   0.726  0.1055 -2.4181 -0.0846
   18CHTO   N17 7262   6.253   7.449   0.810 -0.3682  0.0677  0.1455
   18CHTO  H174 7263   6.277   7.345   0.823 -0.4702  0.0972  0.5769
   18CHTO  H175 7264   6.190   7.471   0.725  0.8709 -0.0514 -0.8181
   18CHTO   C97 7265   6.342   7.685   0.785  0.1110 -0.4449  0.0489
   18CHTO  H184 7266   6.276   7.711   0.869 -1.3438  1.8439 -1.7590
   18CHTO   O64 7267   6.460   7.770   0.786  0.3993  0.5768 -0.3373
   18CHTO  C104 7268   6.520   7.781   0.916 -0.2596 -0.0365  0.5939
   18CHTO  H191 7269   6.441   7.810   0.986 -1.0905  0.1986 -0.4200
   18CHTO  C108 7270   6.630   7.887   0.927 -0.1369 -0.2379 -0.1773
   18CHTO   O71 7271   6.597   8.014   0.867 -0.6682  0.2884 -0.7821
   18CHTO  H171 7272   6.505   8.028   0.874 -1.0284 -3.1961  3.7380
   18CHTO   O62 7273   6.279   7.716   0.659 -0.3058 -0.3429 -0.3386
   18CHTO   C91 7274   6.192   7.832   0.658  0.0281 -0.0646 -0.2437
   18CHTO  H178 7275   6.198   7.883   0.755  0.9049  2.6935 -1.6729
   18CHTO   C92 7276   6.044   7.768   0.654  0.2819  0.4198 -0.4536
   18CHTO  H179 7277   6.042   7.709   0.561 -0.9644  1.2164 -0.9496
   18CHTO   O66 7278   6.019   7.677   0.763  0.7208 -0.0624 -0.6120
   18CHTO  H166 7279   6.099   7.641   0.796  0.0960 -2.4575 -1.6595
   18CHTO   C93 7280   5.935   7.884   0.648 -0.0930 -0.0692 -0.1754
   18CHTO  H180 7281   5.901   7.916   0.748 -1.3582 -1.8227 -0.0170
   18CHTO   N16 7282   5.805   7.827   0.602  1.1743 -0.0297 -0.2728
   18CHTO  H172 7283   5.807   7.776   0.506 -1.6538 -0.8073  0.0500
   18CHTO  H173 7284   5.773   7.759   0.679  1.5883  2.9467  2.6496
   18CHTO   C94 7285   5.967   8.006   0.554 -0.0105  0.2452 -0.0946
   18CHTO  H181 7286   5.955   7.977   0.449 -1.5113 -0.7555  0.3391
   18CHTO   O61 7287   6.105   8.043   0.563  0.0497  0.2184 -0.0851
   18CHTO   C95 7288   6.208   7.946   0.542  0.4379  0.0150  0.2497
   18CHTO  H182 7289   6.201   7.902   0.442 -1.9787  0.2463  0.2853
   18CHTO  C106 7290   6.346   8.019   0.550  0.0241 -1.0514 -0.4766
   18CHTO   O69 7291   6.349   8.126   0.453 -0.6477 -0.7511 -0.0175
   18CHTO  H169 7292   6.433   8.169   0.447 -2.5875  3.3674  0.6327
   18CHTO   O63 7293   5.889   8.128   0.586 -0.0849 -0.1007  0.0265
   18CHTO   C96 7294   5.819   8.205   0.486  0.1920  0.1644 -0.8806
   18CHTO  H183 7295   5.803   8.142   0.398 -1.2942 -0.6130 -0.0676
   18CHTO   C98 7296   5.898   8.331   0.439 -0.4480 -0.2555 -0.0711
   18CHTO  H185 7297   5.936   8.385   0.527  0.2988 -0.9726  0.0485
   18CHTO   O67 7298   6.020   8.302   0.371  0.2300  0.6696  0.4018
   18CHTO  H167 7299   6.043   8.348   0.292  1.8316 -0.3473  0.2392
   18CHTO  C102 7300   5.810   8.434   0.346  0.1103 -0.4043 -0.1638
   18CHTO  H189 7301   5.798   8.397   0.243 -1.3765  0.1064 -0.1907
   18CHTO   N18 7302   5.858   8.572   0.331 -0.1187 -0.6922  0.5181
   18CHTO  H176 7303   5.965   8.578   0.346 -0.1963  1.6928  0.3199
   18CHTO  H177 7304   5.832   8.607   0.233  1.8206 -1.5217 -0.3175
   18CHTO  C105 7305   5.664   8.436   0.404 -0.1561  0.7723  0.0981
   18CHTO  H192 7306   5.659   8.502   0.490 -1.7741 -1.0661  1.4808
   18CHTO   O65 7307   5.611   8.307   0.441 -0.3614 -0.5751 -0.3105
   18CHTO  C100 7308   5.685   8.240   0.547  0.2276  0.0764 -0.6665
   18CHTO  H187 7309   5.715   8.307   0.630  2.4894 -1.9893  0.2534
   18CHTO  C107 7310   5.599   8.127   0.613 -0.1262 -0.3536  0.0530
   18CHTO   O70 7311   5.576   8.022   0.519 -0.1394  0.2629  0.8102
   18CHTO  H170 7312   5.589   8.050   0.430 -0.6848 -0.0631  0.6281
   18CHTO   O57 7313   5.578   8.504   0.273  0.0490 -0.1149  0.5554
   18CHTO   C85 7314   5.436   8.517   0.267 -0.2262 -0.1015  0.2613
   18CHTO  H157 7315   5.409   8.578   0.178 -3.2032  1.7621  2.3514
   18CHTO   C83 7316   5.389   8.617   0.374 -0.4180  0.1806  0.0598
   18CHTO  H155 7317   5.450   8.705   0.356  3.5133 -2.6194 -1.0559
   18CHTO   O56 7318   5.410   8.569   0.509  0.0857  0.1805 -0.4650
   18CHTO  H135 7319   5.495   8.592   0.540 -0.4911  1.5613  0.1300
   18CHTO   C81 7320   5.242   8.654   0.344  0.8204  0.3067 -0.0948
   18CHTO  H153 7321   5.233   8.697   0.244 -4.8064  0.4445  0.2975
   18CHTO   N14 7322   5.200   8.768   0.428  0.1218  0.0504  0.2521
   18CHTO  H141 7323   5.225   8.858   0.375 -3.6675  0.3618 -1.1545
   18CHTO  H142 7324   5.253   8.757   0.520  1.9150  1.8748 -0.5143
   18CHTO   C79 7325   5.145   8.525   0.358 -0.2491 -0.2630 -0.0177
   18CHTO  H151 7326   5.054   8.547   0.303  1.4661 -1.5194 -3.4891
   18CHTO   O52 7327   5.204   8.407   0.288  0.5856 -0.8221  0.2112
   18CHTO   C86 7328   5.348   8.386   0.287 -0.5579 -0.2056  0.3249
   18CHTO  H158 7329   5.368   8.339   0.386  1.6194 -0.5348 -0.2422
   18CHTO   C90 7330   5.381   8.281   0.184  0.6247 -0.3274 -0.1040
   18CHTO   O60 7331   5.518   8.260   0.176 -0.6033 -0.0396  0.3923
   18CHTO  H138 7332   5.547   8.198   0.241  1.6327 -0.8313 -1.3128
   18CHTO   O50 7333   5.116   8.490   0.497  0.3804  0.1035 -0.9781
   18CHTO   C73 7334   5.042   8.375   0.546 -0.3163 -0.5589  0.3558
   18CHTO  H145 7335   5.049   8.299   0.467 -1.3778 -0.3919  0.0917
   18CHTO   C74 7336   4.891   8.419   0.557  0.0577 -0.7702  0.4048
   18CHTO  H146 7337   4.864   8.461   0.459 -1.5821  0.0348  1.1794
   18CHTO   O54 7338   4.802   8.303   0.584  0.0199 -0.6678 -0.1281
   18CHTO  H133 7339   4.819   8.239   0.519  0.1866 -0.6309 -0.1211
   18CHTO   C75 7340   4.883   8.529   0.671  0.1857  0.0282 -0.3662
   18CHTO  H147 7341   4.942   8.614   0.635  1.4213 -1.1900 -1.2782
   18CHTO   N13 7342   4.750   8.585   0.699  0.5705  1.0146 -0.4572
   18CHTO  H139 7343   4.669   8.540   0.645  0.0708  0.3568  0.8129
   18CHTO  H140 7344   4.729   8.602   0.804  0.6301  2.7707 -0.7143
   18CHTO   C76 7345   4.948   8.480   0.811 -0.0972  0.2784 -0.8694
   18CHTO  H148 7346   4.881   8.401   0.843 -1.2095  1.1488 -1.0024
   18CHTO   O49 7347   5.081   8.424   0.780  0.3956  0.2602  0.3696
   18CHTO   C77 7348   5.102   8.324   0.674  0.0688  0.0295  0.6541
   18CHTO  H149 7349   5.044   8.236   0.701  0.1193 -0.4136 -0.6786
   18CHTO   C88 7350   5.247   8.294   0.676 -0.2791 -0.1380  0.3914
   18CHTO   O58 7351   5.276   8.193   0.615 -0.2565 -0.0130  0.1114
   18CHTO  H136 7352   5.365   8.197   0.587 -0.7014 -1.2856 -1.5505
   18CHTO   O51 7353   4.955   8.595   0.918 -1.1104 -0.0197 -0.1579
   18CHTO   C78 7354   5.027   8.556   1.050 -0.3844 -0.2933 -0.2548
   18CHTO  H150 7355   5.064   8.452   1.047  1.7341  0.4608 -1.4723
   18CHTO   C80 7356   4.942   8.586   1.170 -0.0685  0.0168 -0.6130
   18CHTO  H152 7357   4.901   8.689   1.161  1.1466  0.8358  2.4411
   18CHTO   O55 7358   4.831   8.498   1.142 -0.4443  0.0577  0.1525
   18CHTO  H134 7359   4.853   8.409   1.162  0.2301  0.0084 -0.7846
   18CHTO   C84 7360   5.008   8.562   1.318 -0.6042 -0.0272  0.2314
   18CHTO  H156 7361   5.015   8.454   1.318  0.8820  0.0486 -2.0102
   18CHTO   N15 7362   4.909   8.598   1.427  0.2531 -0.4504  0.4575
   18CHTO  H143 7363   4.814   8.614   1.380  0.6413  0.4657 -0.0244
   18CHTO  H144 7364   4.941   8.685   1.481  0.0194 -2.2846  3.6093
   18CHTO   C87 7365   5.147   8.635   1.311  0.2417  0.2985 -0.5055
   18CHTO  H159 7366   5.126   8.742   1.308 -0.4270  0.2110  0.8079
   18CHTO   O53 7367   5.220   8.596   1.194  0.6560 -0.5887  0.3449
   18CHTO   C82 7368   5.156   8.642   1.072 -0.1154  0.7343 -1.0219
   18CHTO  H154 7369   5.143   8.749   1.061  3.2150  1.0717 -2.1739
   18CHTO   C89 7370   5.268   8.608   0.970 -0.4790  0.0517  0.2919
   18CHTO   O59 7371   5.237   8.643   0.836  0.3755 -0.4452 -0.1746
   18CHTO  H137 7372   5.279   8.719   0.801  0.3589 -0.1315  0.4818
   18CHTO   O45 7373   5.231   8.623   1.464 -0.4306 -0.2067 -0.1630
   18CHTO   C67 7374   5.358   8.554   1.461  0.5764 -0.2393 -0.6001
   18CHTO  H124 7375   5.356   8.469   1.393 -1.0547  0.0266 -0.8925
   18CHTO   C65 7376   5.469   8.653   1.426 -0.4567 -0.6506  0.0891
   18CHTO  H122 7377   5.425   8.752   1.433  2.4348  0.6748  0.4017
   18CHTO   O44 7378   5.516   8.624   1.296  0.0703  0.4660 -0.1156
   18CHTO  H102 7379   5.459   8.645   1.225  0.8852  0.1660 -0.8703
   18CHTO   C63 7380   5.575   8.663   1.545  0.4141 -0.0349 -0.0246
   18CHTO  H120 7381   5.531   8.709   1.633  2.0099 -1.5733  1.6489
   18CHTO   N11 7382   5.694   8.750   1.530  0.1739  0.0585  0.4026
   18CHTO  H108 7383   5.786   8.719   1.574  1.2141  2.3821 -0.0434
   18CHTO  H109 7384   5.680   8.855   1.544  1.0464 -0.0406  2.0266
   18CHTO   C61 7385   5.629   8.516   1.569 -0.0393 -0.4796  0.1777
   18CHTO  H118 7386   5.707   8.524   1.647 -0.6891 -0.2467  0.8115
   18CHTO   O40 7387   5.526   8.429   1.625  0.8427 -0.0719 -0.6513
   18CHTO   C68 7388   5.388   8.479   1.604 -0.7984 -0.9681 -0.0142
   18CHTO  H125 7389   5.361   8.550   1.685 -0.4126 -2.2564  1.2574
   18CHTO   C72 7390   5.296   8.358   1.618 -0.2177 -0.1113  0.6968
   18CHTO   O48 7391   5.281   8.314   1.752  0.3714  0.4703  0.0864
   18CHTO  H105 7392   5.304   8.374   1.821 -0.4105 -0.1244  0.8680
   18CHTO   O38 7393   5.681   8.459   1.447  0.1387  0.2077  0.3453
   18CHTO   C55 7394   5.782   8.360   1.456  0.0002 -0.4914 -0.6841
   18CHTO  H112 7395   5.793   8.324   1.560 -0.4181  1.9325  0.2270
   18CHTO   C56 7396   5.923   8.409   1.397  0.1479  0.1688 -0.2536
   18CHTO  H113 7397   5.921   8.430   1.289 -0.6366 -1.1429 -0.5077
   18CHTO   O42 7398   5.946   8.537   1.462  0.4691 -0.5764  0.7521
   18CHTO  H100 7399   6.012   8.586   1.418 -0.6944 -1.4175 -2.0399
   18CHTO   C57 7400   6.026   8.298   1.438  0.5100 -0.2365  0.2123
   18CHTO  H114 7401   6.013   8.299   1.547  0.2126  2.3714  0.1836
   18CHTO   N10 7402   6.172   8.322   1.421 -0.0272  0.3901 -0.3563
   18CHTO  H106 7403   6.212   8.284   1.329 -2.9213  0.4148 -1.6905
   18CHTO  H107 7404   6.183   8.429   1.413  0.7745  0.2385 -1.4014
   18CHTO   C58 7405   5.980   8.159   1.382  0.4342  0.4618  0.3702
   18CHTO  H115 7406   6.018   8.144   1.279  1.4966 -0.9349  0.9503
   18CHTO   O37 7407   5.837   8.131   1.382  0.2724  0.1961 -0.3566
   18CHTO   C59 7408   5.749   8.238   1.368 -0.0110 -0.0166 -0.1136
   18CHTO  H116 7409   5.742   8.268   1.264  0.0185  1.7939  0.3911
   18CHTO   C70 7410   5.612   8.175   1.406 -0.2325  0.5855 -0.3666
   18CHTO   O46 7411   5.611   8.113   1.536 -0.2097  0.7332  0.2367
   18CHTO  H103 7412   5.544   8.142   1.595  0.3169  1.0631  0.6773
   18CHTO   O39 7413   6.040   8.035   1.470 -0.3287  0.3578 -0.1882
   18CHTO   C60 7414   5.989   8.014   1.601  0.3675  0.0003  0.7543
   18CHTO  H117 7415   5.921   8.094   1.629 -1.1378 -1.1105  0.2969
   18CHTO   C62 7416   5.910   7.881   1.594  0.1353 -0.3954  0.0335
   18CHTO  H119 7417   5.858   7.880   1.496 -2.6435  0.8441  1.4582
   18CHTO   O43 7418   5.988   7.764   1.587  0.0733  0.0473  0.1454
   18CHTO  H101 7419   6.037   7.762   1.507  1.6600 -1.1376  1.1138
   18CHTO   C66 7420   5.804   7.877   1.725  0.6101 -0.7013  0.1382
   18CHTO  H123 7421   5.762   7.978   1.727  2.5310  0.1034  1.5059
   18CHTO   N12 7422   5.696   7.778   1.717  0.2390  0.1013 -0.0174
   18CHTO  H110 7423   5.620   7.769   1.793  0.2668  2.8282  0.3958
   18CHTO  H111 7424   5.735   7.683   1.682 -4.0466 -1.5162 -0.6516
   18CHTO   C69 7425   5.885   7.866   1.857  0.1103  0.2848  0.5135
   18CHTO  H126 7426   5.927   7.764   1.857 -0.0741  0.1989 -0.7726
   18CHTO   O41 7427   6.025   7.981   1.852  0.7705 -0.1654  0.0376
   18CHTO   C64 7428   6.094   7.997   1.715 -0.2528  0.5916  0.5421
   18CHTO  H121 7429   6.155   7.907   1.694 -1.1456 -0.3002  1.6782
   18CHTO   C71 7430   6.181   8.127   1.711 -0.1968 -0.8933 -0.7711
   18CHTO   O47 7431   6.302   8.121   1.792  0.7102  0.8630 -0.1680
   18CHTO  H104 7432   6.362   8.065   1.746 -0.9712 -1.4035  0.3031
   18CHTO   O34 7433   5.802   7.878   1.985  0.0816 -0.1404 -0.1033
   18CHTO   C49 7434   5.762   7.980   2.093  0.2833 -0.1248  0.0990
   18CHTO   H91 7435   5.801   7.938   2.185  2.9679  1.2176 -0.3731
   18CHTO   C47 7436   5.608   7.976   2.109  0.8685  0.2246 -0.5136
   18CHTO   H89 7437   5.588   8.034   2.201 -0.8192 -0.3731 -0.4908
   18CHTO   O33 7438   5.565   7.840   2.129 -0.4648  0.5160 -0.2185
   18CHTO   H70 7439   5.563   7.799   2.044  2.3965 -1.0452  0.3801
   18CHTO   C45 7440   5.546   8.052   1.980  0.7169 -0.0498  0.2217
   18CHTO   H87 7441   5.578   8.004   1.886 -1.1265  1.1117 -1.0210
   18CHTO    N8 7442   5.395   8.052   1.990 -0.1596  0.6373 -0.1426
   18CHTO   H75 7443   5.352   8.095   2.079  1.7816 -0.3133  1.2970
   18CHTO   H76 7444   5.353   7.953   1.984  0.1524  0.4591  0.5963
   18CHTO   C43 7445   5.602   8.200   1.971 -1.2954  0.4519  0.0733
   18CHTO   H85 7446   5.564   8.244   1.879  1.3293  2.4224 -0.1308
   18CHTO   O29 7447   5.747   8.199   1.972 -0.0901  0.3155 -0.0152
   18CHTO   C50 7448   5.815   8.125   2.075  0.3868  0.4567  0.0908
   18CHTO   H92 7449   5.916   8.115   2.033  0.3901  0.8172  0.0128
   18CHTO   C54 7450   5.830   8.205   2.212 -0.0976  0.2277  0.9504
   18CHTO   O36 7451   5.874   8.338   2.181 -0.4292 -0.2574  0.1670
   18CHTO   H72 7452   5.939   8.329   2.114 -0.8315 -1.9928 -0.0200
   18CHTO   O27 7453   5.560   8.285   2.078 -0.4302 -0.0329  0.3919
   18CHTO   C37 7454   5.524   8.427   2.105 -0.4954  0.4166  0.5085
   18CHTO   H79 7455   5.575   8.465   2.194  1.0058  1.2233 -0.6722
   18CHTO   C38 7456   5.567   8.515   1.992 -0.5221 -0.6130  0.4730
   18CHTO   H80 7457   5.513   8.477   1.904 -1.6120  0.4938  0.6606
   18CHTO   O31 7458   5.708   8.499   1.967 -0.1894  0.2712 -0.1323
   18CHTO   H68 7459   5.729   8.532   1.882 -1.2426 -0.3366 -0.6491
   18CHTO   C39 7460   5.528   8.662   2.034  1.0790 -0.2480  0.3783
   18CHTO   H81 7461   5.562   8.692   2.133 -0.2954  0.3514  0.6783
   18CHTO    N7 7462   5.585   8.765   1.943 -0.3200 -0.5749  0.3413
   18CHTO   H73 7463   5.530   8.779   1.851  0.4862  0.2217 -0.0326
   18CHTO   H74 7464   5.600   8.857   1.998  0.8377 -0.1592 -0.6515
   18CHTO   C40 7465   5.366   8.655   2.042 -0.2567 -0.3972 -0.0912
   18CHTO   H82 7466   5.313   8.634   1.949 -1.0831  0.6923  0.1217
   18CHTO   O26 7467   5.329   8.571   2.149  0.2088  0.1657 -0.1631
   18CHTO   C41 7468   5.369   8.429   2.125  0.1450 -0.3417 -0.0582
   18CHTO   H83 7469   5.311   8.395   2.038 -1.9621  1.1121  0.7128
   18CHTO   C52 7470   5.313   8.365   2.255 -0.1494 -0.5502 -0.7627
   18CHTO   O35 7471   5.330   8.225   2.246 -0.0482 -0.4701  0.2222
   18CHTO   H71 7472   5.277   8.197   2.173 -0.1573  0.2624  0.0156
   18CHTO   O28 7473   5.311   8.779   2.091 -0.1239  0.8172  0.1969
   18CHTO   C42 7474   5.172   8.799   2.134  0.7481  0.8928  0.2766
   18CHTO   H84 7475   5.154   8.905   2.118 -1.8015  0.1774 -2.0715
   18CHTO   C44 7476   5.146   8.769   2.289 -0.1811  0.1872  0.1359
   18CHTO   H86 7477   5.147   8.661   2.304 -0.5874  0.4001  1.7674
   18CHTO   O32 7478   5.255   8.837   2.361  0.1398 -0.1401 -0.1290
   18CHTO   H69 7479   5.286   8.806   2.443 -1.4637  3.9877  2.1781
   18CHTO   C48 7480   5.005   8.828   2.324  0.7857 -0.3153 -0.0418
   18CHTO   H90 7481   4.998   8.932   2.292 -1.3856 -0.8834 -1.5570
   18CHTO    N9 7482   4.979   8.823   2.472  0.1664 -0.0545 -0.2294
   18CHTO   H77 7483   5.067   8.865   2.519 -0.9523  0.7190  1.2016
   18CHTO   H78 7484   4.967   8.724   2.511  1.1174 -0.3639 -0.7055
   18CHTO   C51 7485   4.904   8.742   2.242 -0.0333 -0.4597 -0.4304
   18CHTO   H93 7486   4.910   8.640   2.281 -2.4094  1.3402  5.1352
   18CHTO   O30 7487   4.930   8.764   2.101  0.5299  0.2642 -0.5857
   18CHTO   C46 7488   5.066   8.730   2.050  0.3051 -0.0224 -0.8074
   18CHTO   H88 7489   5.088   8.624   2.061 -2.7148 -0.4051  2.3965
   18CHTO   C53 7490   5.077   8.767   1.895 -0.2588  0.6495  0.8181
   18CHTO   O72 7491   5.061   8.907   1.861 -0.7739  0.0313  0.2149
   18CHTO  H199 7492   5.111   8.964   1.917  0.3890 -0.3996 -0.3751
   18CHTO   O22 7493   4.765   8.785   2.263 -0.0215  0.0741 -0.4390
   18CHTO   C31 7494   4.660   8.787   2.161  0.1902  0.1643  0.4288
   18CHTO   H59 7495   4.565   8.806   2.216 -1.7515  2.5657 -3.5192
   18CHTO   C29 7496   4.662   8.892   2.056 -0.1072 -0.6971 -0.0460
   18CHTO   H57 7497   4.753   8.891   1.993  1.9730  0.0545  2.8283
   18CHTO   O21 7498   4.685   9.021   2.117  0.0838 -0.0147 -0.4327
   18CHTO   H37 7499   4.612   9.046   2.170 -0.5516  1.4236 -1.9302
   18CHTO   C27 7500   4.534   8.886   1.967  0.0717 -0.0416 -0.7384
   18CHTO   H55 7501   4.447   8.909   2.031 -0.1587 -2.8560  0.0129
   18CHTO    N5 7502   4.533   8.975   1.850  0.0922 -0.0401 -0.0902
   18CHTO   H43 7503   4.432   9.005   1.825  0.5879  1.7845  0.0593
   18CHTO   H44 7504   4.609   8.954   1.777  1.0903  2.6448  0.1280
   18CHTO   C25 7505   4.536   8.735   1.908  0.6825  0.0305 -0.5778
   18CHTO   H53 7506   4.629   8.710   1.856  1.0057  1.8505 -0.9187
   18CHTO   O17 7507   4.532   8.636   2.011  0.2482 -0.8214 -0.5412
   18CHTO   C32 7508   4.644   8.644   2.103  0.0960 -0.6854  0.4812
   18CHTO   H60 7509   4.735   8.622   2.046  1.6127  1.4005  2.0221
   18CHTO   C36 7510   4.609   8.539   2.214  0.2038 -0.4405 -0.5938
   18CHTO   O25 7511   4.719   8.454   2.250  0.4597 -0.2052  0.6426
   18CHTO   H40 7512   4.792   8.511   2.263  0.9250 -0.9537  1.3509
   18CHTO   O15 7513   4.401   8.696   1.808 -0.1194  0.4133 -0.3494
   18CHTO   C19 7514   4.398   8.629   1.676  0.0761  0.7687  0.3673
   18CHTO   H47 7515   4.293   8.597   1.666 -0.0618  1.8276 -2.1382
   18CHTO   C20 7516   4.434   8.716   1.559  1.1635 -0.9626  0.1929
   18CHTO   H48 7517   4.535   8.758   1.570 -0.2951  2.7705 -0.2099
   18CHTO   O19 7518   4.334   8.823   1.563 -0.0902 -0.5335  0.0732
   18CHTO   H35 7519   4.375   8.907   1.552 -0.0694 -0.2120  2.4494
   18CHTO   C21 7520   4.431   8.640   1.427 -0.4755  0.9017  0.5373
   18CHTO   H49 7521   4.330   8.617   1.395 -0.2369 -0.6743  0.8412
   18CHTO    N4 7522   4.489   8.712   1.317  0.1584  0.0934  0.4680
   18CHTO   H41 7523   4.433   8.802   1.298 -0.9558 -0.9826 -1.4836
   18CHTO   H42 7524   4.477   8.645   1.233  0.0468 -0.3543  0.8350
   18CHTO   C22 7525   4.490   8.492   1.438  0.2730  0.0537  0.2529
   18CHTO   H50 7526   4.599   8.504   1.438  0.3227 -0.1735 -1.8099
   18CHTO   O14 7527   4.442   8.426   1.555  0.0783 -0.0613  0.6470
   18CHTO   C23 7528   4.476   8.490   1.673  0.3910  0.5782  0.3224
   18CHTO   H51 7529   4.585   8.505   1.669  0.5488 -0.2651  1.2121
   18CHTO   C34 7530   4.422   8.406   1.794  0.2015  0.1613  0.5608
   18CHTO   O23 7531   4.527   8.345   1.860  0.2220 -0.0581  0.2679
   18CHTO   H38 7532   4.572   8.406   1.916 -1.2007 -0.6891  2.1502
   18CHTO   O16 7533   4.446   8.401   1.331 -0.2522 -0.0166 -0.0168
   18CHTO   C24 7534   4.566   8.326   1.253 -0.1899  0.2805 -0.5090
   18CHTO   H52 7535   4.663   8.372   1.269 -0.7239  1.3284 -0.2522
   18CHTO   C26 7536   4.532   8.341   1.101  0.4892  0.1679  0.9287
   18CHTO   H54 7537   4.422   8.336   1.086  0.5572  3.0591 -0.9942
   18CHTO   O20 7538   4.564   8.480   1.063 -0.0641  0.1216 -0.5073
   18CHTO   H36 7539   4.522   8.500   0.982 -0.7271 -0.7217 -0.3734
   18CHTO   C30 7540   4.619   8.248   1.011  0.3072  0.4349 -0.3094
   18CHTO   H58 7541   4.720   8.291   1.002 -0.7368  2.8554 -0.9056
   18CHTO    N6 7542   4.570   8.230   0.870 -0.0805  0.7089 -0.2347
   18CHTO   H45 7543   4.573   8.324   0.818 -2.6715  1.3846  0.7384
   18CHTO   H46 7544   4.467   8.196   0.861  0.5244 -0.7742 -1.8112
   18CHTO   C33 7545   4.653   8.108   1.076  0.4629  0.2819 -0.4229
   18CHTO   H61 7546   4.567   8.040   1.066 -0.1088  0.6704  1.4929
   18CHTO   O18 7547   4.672   8.118   1.214  0.0536 -0.3368  0.2675
   18CHTO   C28 7548   4.575   8.181   1.296 -0.5329  0.9689 -0.6775
   18CHTO   H56 7549   4.474   8.140   1.296  0.1573 -0.7839 -1.9959
   18CHTO   C35 7550   4.621   8.175   1.435  0.2477 -0.0290 -0.0465
   18CHTO   O24 7551   4.518   8.161   1.529  0.4886 -0.0429  0.2077
   18CHTO   H39 7552   4.562   8.144   1.610  0.8260 -0.3659 -0.0450
   18CHTO    O9 7553   4.762   8.034   1.009  0.3263  0.3062 -0.3703
   18CHTO   C13 7554   4.890   7.992   1.112 -0.4818 -0.9453  0.1169
   18CHTO   H26 7555   4.842   7.954   1.205 -1.3151 -0.3320 -0.0543
   18CHTO   C11 7556   4.978   8.118   1.142  0.5193 -0.9217  0.9286
   18CHTO   H24 7557   4.916   8.187   1.202 -1.1714 -1.7342  0.1718
   18CHTO    O8 7558   5.014   8.184   1.025  0.6545 -0.2777  0.6270
   18CHTO    H3 7559   5.088   8.136   0.992  0.2457 -2.3041  2.5337
   18CHTO    C9 7560   5.097   8.074   1.227  0.5365  0.3083 -0.4514
   18CHTO   H22 7561   5.047   8.028   1.314 -0.3109  0.4418 -0.8601
   18CHTO    N2 7562   5.168   8.187   1.284 -0.2583 -0.4653 -0.6389
   18CHTO   H10 7563   5.259   8.163   1.338  0.7795  1.2825 -1.5449
   18CHTO   H11 7564   5.196   8.247   1.198  2.4993  0.4463  0.8235
   18CHTO    C7 7565   5.180   7.969   1.148  0.6374  0.2849  0.3011
   18CHTO   H20 7566   5.260   7.946   1.222 -0.3494  2.3383  2.0821
   18CHTO    O4 7567   5.097   7.858   1.113 -0.4087 -0.5686  0.2367
   18CHTO   C14 7568   4.976   7.877   1.046  0.0973 -0.4867  0.4167
   18CHTO   H27 7569   4.933   7.775   1.057  0.5804 -0.7025  0.3534
   18CHTO   C18 7570   5.009   7.893   0.892 -0.1523  0.1518 -0.3152
   18CHTO   O13 7571   4.901   7.861   0.809  0.1020 -0.3095 -0.0079
   18CHTO    H7 7572   4.883   7.769   0.801 -0.0196 -0.4712  1.9759
   18CHTO    O2 7573   5.239   8.038   1.013  0.2130  0.1908  0.0831
   18CHTO    C1 7574   5.377   8.005   0.975 -0.3199  0.0350  0.0309
   18CHTO   H14 7575   5.407   8.039   0.874 -0.4670  0.4930  0.1375
   18CHTO    C2 7576   5.422   7.846   0.984  0.2228  0.6112  0.2695
   18CHTO   H15 7577   5.409   7.815   1.089  1.0349 -2.2552 -0.4291
   18CHTO    O6 7578   5.329   7.763   0.911 -0.0013  0.4693  0.1753
   18CHTO    H1 7579   5.339   7.769   0.818 -1.4174 -0.9877 -0.0963
   18CHTO    C3 7580   5.572   7.827   0.937  0.4863 -0.2450 -0.1392
   18CHTO   H16 7581   5.587   7.853   0.831  0.1173 -2.6254 -0.7941
   18CHTO    N1 7582   5.624   7.690   0.959 -0.3929  0.8322 -0.0616
   18CHTO    H8 7583   5.674   7.682   1.055 -2.5077 -0.0815  0.9802
   18CHTO    H9 7584   5.700   7.660   0.889  1.7401  0.5335  2.2867
   18CHTO    C4 7585   5.658   7.929   1.024 -0.7737 -0.4852 -0.1796
   18CHTO   H17 7586   5.670   7.888   1.124 -0.6434  0.2381  0.1055
   18CHTO    O1 7587   5.617   8.070   1.020 -0.4701  0.1797  0.4226
   18CHTO    C5 7588   5.480   8.086   1.059  0.0552 -0.2219  0.6569
   18CHTO   H18 7589   5.469   8.069   1.166 -4.0801 -0.4317  0.2550
   18CHTO   C16 7590   5.459   8.237   1.033 -0.5428  0.4437  0.4796
   18CHTO   O11 7591   5.549   8.323   1.115  0.0328 -0.0923 -0.0309
   18CHTO    H5 7592   5.627   8.346   1.067  1.0193 -0.8496  1.1768
   18CHTO    O3 7593   5.787   7.937   0.962  0.1900  0.2477 -0.3393
   18CHTO    C6 7594   5.904   7.965   1.045  0.0808  0.0264 -0.2825
   18CHTO   H19 7595   5.879   8.015   1.138  0.8069 -1.2950  0.6372
   18CHTO    C8 7596   5.963   7.831   1.083 -0.2752  0.0012 -0.4653
   18CHTO   H21 7597   5.985   7.775   0.992 -0.4478  0.3230 -0.7063
   18CHTO    O7 7598   5.873   7.754   1.163 -0.2695  0.1023 -0.5583
   18CHTO    H2 7599   5.903   7.666   1.176 -0.8522  0.0284  0.3790
   18CHTO   C12 7600   6.104   7.858   1.152  0.2844 -0.2892  0.8702
   18CHTO   H25 7601   6.079   7.905   1.249  0.8061  1.4050  0.2124
   18CHTO    N3 7602   6.172   7.730   1.181 -0.4074  0.1190 -0.2578
   18CHTO   H12 7603   6.125   7.687   1.269  0.4102 -0.3216 -0.0298
   18CHTO   H13 7604   6.272   7.763   1.205 -0.7145 -0.1290  1.3982
   18CHTO   C15 7605   6.193   7.967   1.068 -0.1404 -0.6167  0.0629
   18CHTO   H28 7606   6.232   7.917   0.979  0.7398  0.4780 -0.1785
   18CHTO   O10 7607   6.322   8.031   1.163  0.0662 -0.1223  0.0943
   18CHTO    H4 7608   6.293   8.111   1.201 -0.8157 -0.0754 -0.6564
   18CHTO    O5 7609   6.120   8.081   1.027 -0.9203  0.3139 -0.0913
   18CHTO   C10 7610   6.003   8.056   0.962 -0.2925 -0.5869 -0.1867
   18CHTO   H23 7611   6.020   8.034   0.857 -1.3738  1.9260 -0.9414
   18CHTO   C17 7612   5.949   8.203   0.960 -0.1154  0.4240  0.1295
   18CHTO   O12 7613   5.818   8.216   0.896 -0.6527  0.3754  0.1653
   18CHTO    H6 7614   5.752   8.243   0.956 -0.1598 -1.6653  1.6866
   19CHTO  H203 7615   5.388   9.817   0.292  0.0801  0.4642  0.1206
   19CHTO   O82 7616   5.357   9.863   0.216 -0.3416  0.0812  0.0641
   19CHTO  C123 7617   5.289   9.765   0.131  0.4493  0.2923 -0.5264
   19CHTO  H227 7618   5.244   9.818   0.046 -1.1420  0.9773  0.7013
   19CHTO   O77 7619   5.391   9.672   0.087  0.2794  0.2285 -0.2922
   19CHTO  C118 7620   5.347   9.570  -0.006  0.7285 -0.4985  0.1377
   19CHTO  H222 7621   5.287   9.608  -0.090  2.1082 -1.7077 -1.4125
   19CHTO  C125 7622   5.471   9.487  -0.055  0.1337 -0.1589  0.3102
   19CHTO   O84 7623   5.519   9.391   0.039 -0.3594  0.0121 -0.0215
   19CHTO  H205 7624   5.563   9.321  -0.004 -1.3208  0.5326 -1.9043
   19CHTO  C114 7625   5.252   9.472   0.070 -0.0987  0.4375 -0.2673
   19CHTO  H218 7626   5.307   9.421   0.149  0.0780 -2.0974 -1.9775
   19CHTO  C116 7627   5.131   9.559   0.120  0.0607  0.2170  0.4238
   19CHTO  H220 7628   5.073   9.589   0.031 -1.0242 -0.0917  1.0221
   19CHTO   O79 7629   5.045   9.471   0.189  0.3457  0.3832 -0.3529
   19CHTO  H201 7630   4.982   9.511   0.246 -1.7280 -0.9121 -1.6353
   19CHTO  C120 7631   5.174   9.687   0.203  0.0356 -0.4982 -0.5782
   19CHTO  H224 7632   5.217   9.661   0.302 -0.4874  1.1401  0.1016
   19CHTO   N21 7633   5.062   9.784   0.232 -0.0323 -0.1843 -0.2780
   19CHTO  H211 7634   5.076   9.828   0.329  0.0301 -1.3267  0.2368
   19CHTO  H212 7635   4.970   9.729   0.243  0.0951 -0.3504 -0.0499
   19CHTO   O75 7636   5.205   9.376  -0.025 -0.0674 -0.0065  0.4502
   19CHTO  C112 7637   5.252   9.211   0.021 -0.4845 -0.5697  0.3310
   19CHTO  H216 7638   5.289   9.216   0.124  2.0606 -0.4560 -0.5582
   19CHTO   O73 7639   5.358   9.167  -0.072 -0.2638 -0.0590  0.0944
   19CHTO  C113 7640   5.410   9.038  -0.036  0.0841  0.7827 -0.2052
   19CHTO  H217 7641   5.424   9.033   0.075 -0.1644 -1.0480 -0.2358
   19CHTO  C124 7642   5.540   9.018  -0.115 -0.0471  0.3795 -0.2135
   19CHTO   O83 7643   5.525   9.004  -0.258  0.1634  0.1346 -0.1461
   19CHTO  H204 7644   5.546   8.916  -0.284  1.6098  0.5662 -0.4399
   19CHTO  C109 7645   5.300   8.939  -0.075  0.0543  0.2212 -0.5052
   19CHTO  H213 7646   5.281   8.954  -0.183  2.2667 -4.5070 -1.6729
   19CHTO  C110 7647   5.172   8.962   0.003 -0.6502  0.5793 -0.4980
   19CHTO  H214 7648   5.193   8.927   0.104  2.8220 -1.7463 -1.8910
   19CHTO   O78 7649   5.072   8.872  -0.044  0.8237  0.0006 -0.0068
   19CHTO  H200 7650   5.038   8.875  -0.131  2.8190  0.5143 -0.8007
   19CHTO  C111 7651   5.125   9.112   0.005  0.5175  0.2085 -0.0595
   19CHTO  H215 7652   5.072   9.125  -0.090 -2.5616 -1.7751  1.2718
   19CHTO   N19 7653   5.023   9.137   0.111 -0.3021 -0.2415  0.2383
   19CHTO  H207 7654   4.923   9.135   0.070 -0.0156  0.4789 -0.5261
   19CHTO  H208 7655   5.023   9.054   0.180  0.3103  0.1984  0.7811
   19CHTO   O74 7656   5.353   8.802  -0.048 -0.2843 -0.3355  0.1686
   19CHTO  C115 7657   5.311   8.716  -0.166 -0.0905 -0.7051 -0.4750
   19CHTO  H219 7658   5.232   8.765  -0.224  1.4810  2.7943  0.2062
   19CHTO   O76 7659   5.424   8.709  -0.266 -0.1656 -0.3604  0.2845
   19CHTO  C122 7660   5.541   8.642  -0.215  0.4685  0.0040  0.7251
   19CHTO  H226 7661   5.565   8.698  -0.125 -0.6210 -0.2098  1.1556
   19CHTO  C126 7662   5.658   8.666  -0.317  0.1400  0.0524 -0.0160
   19CHTO   O85 7663   5.612   8.617  -0.446 -0.6067 -0.5281 -0.1857
   19CHTO  H206 7664   5.674   8.624  -0.516  0.2885 -0.4640  0.6135
   19CHTO  C121 7665   5.509   8.493  -0.179  0.0531 -0.0623 -0.1118
   19CHTO  H225 7666   5.558   8.434  -0.259 -0.5675  0.1399 -0.6444
   19CHTO   O81 7667   5.557   8.461  -0.050 -0.1263 -0.3433 -0.2104
   19CHTO  H202 7668   5.650   8.473  -0.042 -0.3983  2.2918 -0.4765
   19CHTO  C119 7669   5.362   8.460  -0.179  0.1993  0.0557  0.4657
   19CHTO  H223 7670   5.330   8.465  -0.283 -0.0643 -1.4197  0.4617
   19CHTO  C117 7671   5.272   8.572  -0.114 -0.3303  0.2157 -0.6140
   19CHTO  H221 7672   5.273   8.586  -0.006 -0.1565  1.1602 -0.7269
   19CHTO   N20 7673   5.125   8.547  -0.152 -0.6000  0.0351  0.9182
   19CHTO  H209 7674   5.091   8.452  -0.113 -0.4888 -0.5715 -0.4631
   19CHTO  H210 7675   5.127   8.546  -0.260  2.4460  4.1452  0.8023
   19CHTO   O80 7676   5.330   8.319  -0.137  0.2291  0.0888  1.3522
   19CHTO  C103 7677   5.359   8.210  -0.234  0.1092 -0.0415  0.1892
   19CHTO  H190 7678   5.383   8.249  -0.333 -0.4936  1.8200  0.7714
   19CHTO  C101 7679   5.465   8.109  -0.185 -0.3314  0.8870  0.4110
   19CHTO  H188 7680   5.439   8.081  -0.083 -1.3412 -0.4211 -0.1868
   19CHTO   O68 7681   5.609   8.181  -0.178 -0.3638  0.1970  0.3222
   19CHTO  H168 7682   5.625   8.234  -0.253 -0.5323  0.4203  0.4421
   19CHTO   C99 7683   5.477   7.971  -0.272 -0.5035  0.5669  0.7125
   19CHTO  H186 7684   5.517   8.000  -0.371  0.0750 -1.6233  0.2860
   19CHTO   N17 7685   5.574   7.871  -0.213  0.1633  0.1472  0.1288
   19CHTO  H174 7686   5.521   7.779  -0.197  1.1291 -1.0824 -3.2898
   19CHTO  H175 7687   5.667   7.849  -0.263  0.6428 -0.7979  1.4226
   19CHTO   C97 7688   5.333   7.911  -0.295 -0.6732  0.2867  0.1589
   19CHTO  H184 7689   5.303   7.883  -0.193 -1.9675 -0.0774 -0.3077
   19CHTO   O64 7690   5.250   8.019  -0.350  0.2429  0.3843  0.7180
   19CHTO  C104 7691   5.223   8.121  -0.256  0.6589  0.7531  0.5206
   19CHTO  H191 7692   5.187   8.081  -0.161  0.0869  0.3689  0.1471
   19CHTO  C108 7693   5.111   8.209  -0.317 -0.7078  0.0013 -0.0311
   19CHTO   O71 7694   4.985   8.143  -0.316 -0.1071 -0.0896 -0.1493
   19CHTO  H171 7695   4.921   8.196  -0.359 -0.4992 -1.5493 -1.3559
   19CHTO   O62 7696   5.326   7.805  -0.391 -0.0906  0.9081 -0.2359
   19CHTO   C91 7697   5.202   7.724  -0.383  0.1931  0.5192  0.0098
   19CHTO  H178 7698   5.130   7.775  -0.320 -1.6903  0.6483 -2.1730
   19CHTO   C92 7699   5.229   7.581  -0.323 -0.1849 -0.4000  0.1248
   19CHTO  H179 7700   5.285   7.539  -0.407 -0.2690 -1.8128  0.7559
   19CHTO   O66 7701   5.312   7.590  -0.208 -0.3286  0.4952  0.1181
   19CHTO  H166 7702   5.263   7.617  -0.133 -1.5684 -1.2807 -0.0358
   19CHTO   C93 7703   5.097   7.496  -0.303  0.2372 -0.0197  0.1981
   19CHTO  H180 7704   5.040   7.540  -0.220 -1.7978  1.4634 -1.9548
   19CHTO   N16 7705   5.126   7.350  -0.269  0.3175 -0.4628 -0.5124
   19CHTO  H172 7706   5.031   7.302  -0.253 -0.7150  2.0801  1.4048
   19CHTO  H173 7707   5.192   7.352  -0.183 -0.4312  3.6415  0.1002
   19CHTO   C94 7708   5.018   7.507  -0.432  0.0903  0.1460  0.3493
   19CHTO  H181 7709   5.074   7.457  -0.512  0.6968 -1.5007  1.7534
   19CHTO   O61 7710   5.001   7.645  -0.484 -0.2816 -0.4267  0.7258
   19CHTO   C95 7711   5.124   7.707  -0.512 -0.2139  0.1544 -0.5038
   19CHTO  H182 7712   5.181   7.641  -0.577 -2.9957 -1.2173 -1.6245
   19CHTO  C106 7713   5.106   7.843  -0.589 -0.6384 -0.1401 -0.1081
   19CHTO   O69 7714   5.042   7.814  -0.716 -0.1873  0.3253  0.7603
   19CHTO  H169 7715   4.952   7.840  -0.721  0.6324  2.9474 -3.9189
   19CHTO   O63 7716   4.878   7.438  -0.414  0.0091 -0.1624 -0.4448
   19CHTO   C96 7717   4.827   7.378  -0.548 -0.0875  0.4013  0.8854
   19CHTO  H183 7718   4.902   7.307  -0.582  2.7291  2.6482  2.1305
   19CHTO   C98 7719   4.798   7.465  -0.683 -0.0758 -0.3242  0.1310
   19CHTO  H185 7720   4.887   7.523  -0.710 -0.3289 -0.6594 -1.4550
   19CHTO   O67 7721   4.777   7.384  -0.800 -0.5233  0.3321  0.7260
   19CHTO  H167 7722   4.703   7.328  -0.786 -2.5663  2.7312 -0.2812
   19CHTO  C102 7723   4.674   7.565  -0.670 -0.1786 -0.1419 -0.4532
   19CHTO  H189 7724   4.644   7.593  -0.772  1.1223 -0.7996 -1.0299
   19CHTO   N18 7725   4.714   7.694  -0.604  0.0633 -0.8230 -0.9373
   19CHTO  H176 7726   4.752   7.689  -0.503 -3.8348  2.6884  0.8488
   19CHTO  H177 7727   4.786   7.748  -0.665 -1.1558  0.6549 -1.1102
   19CHTO  C105 7728   4.562   7.493  -0.584  0.0422 -0.0655 -0.3427
   19CHTO  H192 7729   4.556   7.530  -0.482 -1.1536  0.4796 -0.5996
   19CHTO   O65 7730   4.571   7.352  -0.587  0.2595 -0.6757 -0.3373
   19CHTO  C100 7731   4.689   7.306  -0.509  0.2102 -0.5229 -0.2594
   19CHTO  H187 7732   4.665   7.316  -0.402  1.0629  1.6073 -0.2473
   19CHTO  C107 7733   4.697   7.145  -0.521  0.5836 -0.3916  0.1853
   19CHTO   O70 7734   4.807   7.092  -0.445  0.3241  0.3496 -0.0466
   19CHTO  H170 7735   4.765   7.089  -0.362  0.4333 -2.1536 -0.0501
   19CHTO   O57 7736   4.423   7.550  -0.652 -0.2518  0.2813 -0.1603
   19CHTO   C85 7737   4.296   7.496  -0.599  0.0827  0.1256  0.1572
   19CHTO  H157 7738   4.313   7.400  -0.546 -1.0369  0.7093  1.6054
   19CHTO   C83 7739   4.222   7.467  -0.724  0.3021 -0.6638 -0.2625
   19CHTO  H155 7740   4.282   7.390  -0.772  1.2700 -0.5831  0.7910
   19CHTO   O56 7741   4.215   7.578  -0.815 -0.0955  0.5642  0.3820
   19CHTO  H135 7742   4.194   7.550  -0.902 -0.8883 -0.2273  0.8231
   19CHTO   C81 7743   4.092   7.400  -0.675 -0.0619  0.0041 -0.4955
   19CHTO  H153 7744   4.115   7.316  -0.610 -0.6699  2.0998  2.5391
   19CHTO   N14 7745   4.025   7.334  -0.792 -0.4771 -0.5664 -0.5076
   19CHTO  H141 7746   3.955   7.395  -0.846  1.6340  0.7621 -1.7991
   19CHTO  H142 7747   4.097   7.296  -0.862  1.1452 -1.9718  1.8787
   19CHTO   C79 7748   4.005   7.501  -0.590 -0.2089 -0.7745  0.0956
   19CHTO  H151 7749   3.922   7.443  -0.549  0.3664 -1.7277 -0.0710
   19CHTO   O52 7750   4.077   7.550  -0.473  0.0420  0.3927  0.3325
   19CHTO   C86 7751   4.214   7.596  -0.509 -0.2202  0.1526  0.5496
   19CHTO  H158 7752   4.196   7.697  -0.551  0.6987  0.9378  1.9842
   19CHTO   C90 7753   4.285   7.619  -0.371 -0.5787 -0.1184  0.1826
   19CHTO   O60 7754   4.397   7.698  -0.394  0.4400  0.2405  0.3673
   19CHTO  H138 7755   4.457   7.667  -0.459 -1.7584 -1.9406 -0.7214
   19CHTO   O50 7756   3.959   7.608  -0.674  0.0334  0.1361  0.9771
   19CHTO   C73 7757   3.838   7.671  -0.714 -0.2248 -0.2537 -0.1679
   19CHTO  H145 7758   3.747   7.611  -0.705 -1.9794  2.1517 -1.5248
   19CHTO   C74 7759   3.834   7.710  -0.869  0.0732 -0.3352 -0.0021
   19CHTO  H146 7760   3.847   7.617  -0.926  0.0503  0.3028 -1.0708
   19CHTO   O54 7761   3.703   7.758  -0.904  0.0117  0.4842  0.0908
   19CHTO  H133 7762   3.646   7.685  -0.888  2.5404 -1.6965 -0.5144
   19CHTO   C75 7763   3.947   7.817  -0.903 -0.5652  0.3799 -0.5662
   19CHTO  H147 7764   4.046   7.771  -0.886 -0.3716  0.7242 -0.7554
   19CHTO   N13 7765   3.946   7.853  -1.047 -0.1368 -0.2779 -0.2678
   19CHTO  H139 7766   3.987   7.952  -1.061 -0.7494  0.4628  2.7594
   19CHTO  H140 7767   3.994   7.776  -1.105 -0.0299  0.4123 -1.0944
   19CHTO   C76 7768   3.935   7.946  -0.808  0.0639 -0.3139  0.0608
   19CHTO  H148 7769   3.849   8.006  -0.837  0.7865  1.0904  0.7509
   19CHTO   O49 7770   3.919   7.904  -0.669 -0.0393 -0.0386  0.5934
   19CHTO   C77 7771   3.822   7.809  -0.632  0.7316  0.2985  0.3890
   19CHTO  H149 7772   3.725   7.854  -0.656 -0.2145 -1.4241  0.9566
   19CHTO   C88 7773   3.830   7.778  -0.480 -0.6075  0.6244 -0.1011
   19CHTO   O58 7774   3.752   7.672  -0.451  0.0379  0.2917  0.5233
   19CHTO  H136 7775   3.718   7.627  -0.526 -1.0427 -0.2474  1.3244
   19CHTO   O51 7776   4.087   8.029  -0.813 -0.0237 -0.1724  0.0374
   19CHTO   C78 7777   4.105   8.137  -0.718  0.4500  0.0780 -0.3990
   19CHTO  H150 7778   4.043   8.124  -0.627 -1.3883  1.4360 -1.4315
   19CHTO   C80 7779   4.072   8.279  -0.778  0.2426 -0.1543  0.1047
   19CHTO  H152 7780   4.121   8.288  -0.878  0.9807  0.8423  0.5534
   19CHTO   O55 7781   3.932   8.290  -0.788  0.2502 -0.3416 -0.0078
   19CHTO  H134 7782   3.893   8.281  -0.873  0.0202 -0.9575  0.1565
   19CHTO   C84 7783   4.127   8.401  -0.692  0.2139  0.6334  0.2716
   19CHTO  H156 7784   4.062   8.414  -0.605 -1.9961  2.5688 -1.6195
   19CHTO   N15 7785   4.118   8.525  -0.770 -1.1383  0.0387  0.4879
   19CHTO  H143 7786   4.210   8.578  -0.767 -0.7973 -0.5866  3.7853
   19CHTO  H144 7787   4.036   8.586  -0.737 -1.5445  0.3990 -1.1446
   19CHTO   C87 7788   4.272   8.373  -0.637 -0.0020 -0.4722 -0.2338
   19CHTO  H159 7789   4.344   8.372  -0.719  0.2337 -1.6464 -0.0161
   19CHTO   O53 7790   4.284   8.232  -0.578  0.1566 -0.0269 -0.4294
   19CHTO   C82 7791   4.253   8.131  -0.670  0.0670  0.2668  0.2869
   19CHTO  H154 7792   4.324   8.130  -0.752 -0.5004  1.7598 -0.2269
   19CHTO   C89 7793   4.273   7.994  -0.586  0.1559  0.0239 -0.5904
   19CHTO   O59 7794   4.413   7.975  -0.559 -0.0426  0.6081 -0.0621
   19CHTO  H137 7795   4.417   7.892  -0.516 -0.2808  0.7826  0.3028
   19CHTO   O45 7796   4.310   8.491  -0.535  0.0991 -0.1922  0.2896
   19CHTO   C67 7797   4.228   8.527  -0.424 -0.2137  0.4298 -0.9318
   19CHTO  H124 7798   4.125   8.519  -0.457 -0.2310 -0.1130 -0.7581
   19CHTO   C65 7799   4.253   8.417  -0.307  0.1786  0.0513 -0.0197
   19CHTO  H122 7800   4.357   8.384  -0.317 -0.5884 -2.6284  0.5825
   19CHTO   O44 7801   4.154   8.320  -0.326 -0.2867  0.8562  0.0084
   19CHTO  H102 7802   4.164   8.284  -0.413 -0.3281 -1.1281  0.8019
   19CHTO   C63 7803   4.254   8.493  -0.168  0.0372 -0.0570 -0.2084
   19CHTO  H120 7804   4.348   8.548  -0.160  0.4029 -0.6741 -0.2200
   19CHTO   N11 7805   4.260   8.403  -0.041 -0.0816  0.1720 -1.0178
   19CHTO  H108 7806   4.285   8.466   0.041 -4.8683  1.6907 -0.5982
   19CHTO  H109 7807   4.164   8.367  -0.009  1.1163 -0.4834  1.9661
   19CHTO   C61 7808   4.140   8.605  -0.163  0.8618 -0.5106 -0.2191
   19CHTO  H118 7809   4.146   8.660  -0.067 -1.0746 -2.3858  1.0199
   19CHTO   O40 7810   4.156   8.708  -0.267  0.0078 -0.2614  0.3236
   19CHTO   C68 7811   4.252   8.676  -0.379 -0.3305  0.2309  0.4468
   19CHTO  H125 7812   4.357   8.687  -0.345 -0.0416 -0.7829 -0.0647
   19CHTO   C72 7813   4.228   8.768  -0.497 -0.2663  0.7054  0.2122
   19CHTO   O48 7814   4.331   8.773  -0.598  0.2209  0.7250 -0.6487
   19CHTO  H105 7815   4.404   8.818  -0.561 -0.5353  4.0285 -2.9643
   19CHTO   O38 7816   4.011   8.542  -0.161 -0.4810 -0.1753  0.1290
   19CHTO   C55 7817   3.905   8.634  -0.158  0.3011 -0.4438  0.2023
   19CHTO  H112 7818   3.944   8.726  -0.203 -0.2726 -1.1013 -1.6729
   19CHTO   C56 7819   3.847   8.663  -0.017 -0.0518 -0.3901  0.3535
   19CHTO  H113 7820   3.841   8.567   0.036  0.8588  0.8659  2.8573
   19CHTO   O42 7821   3.935   8.742   0.062 -0.1305 -0.4394 -0.0147
   19CHTO  H100 7822   3.953   8.824   0.020  0.9009 -1.3371 -1.3821
   19CHTO   C57 7823   3.702   8.736  -0.031  0.3423 -0.1487 -0.7255
   19CHTO  H114 7824   3.708   8.837  -0.072 -1.0996 -0.3804 -1.5499
   19CHTO   N10 7825   3.640   8.757   0.105 -0.2057  0.6275 -0.6883
   19CHTO  H106 7826   3.576   8.844   0.099 -1.4956 -0.2475  0.0929
   19CHTO  H107 7827   3.577   8.674   0.134  2.2295 -1.0708 -0.0499
   19CHTO   C58 7828   3.617   8.650  -0.120  0.4257 -0.6300 -0.3885
   19CHTO  H115 7829   3.598   8.549  -0.079 -3.8186  0.6510  1.1282
   19CHTO   O37 7830   3.673   8.636  -0.247  0.2948 -0.1776  0.1300
   19CHTO   C59 7831   3.795   8.572  -0.251  0.1778 -0.2357 -0.2918
   19CHTO  H116 7832   3.784   8.468  -0.220  3.8302 -0.0292  1.9906
   19CHTO   C70 7833   3.831   8.576  -0.398  0.3043 -0.2352 -0.2788
   19CHTO   O46 7834   3.870   8.702  -0.442  0.1076  0.5483 -0.4432
   19CHTO  H103 7835   3.845   8.719  -0.531 -1.2457 -2.2704 -0.6493
   19CHTO   O39 7836   3.466   8.729  -0.129 -0.7728 -0.1078  0.1377
   19CHTO   C60 7837   3.416   8.768  -0.262  0.4676 -0.3004  0.0377
   19CHTO  H117 7838   3.489   8.730  -0.332  0.4686 -2.6948  1.2768
   19CHTO   C62 7839   3.284   8.691  -0.298  0.1984 -0.1305  0.5812
   19CHTO  H119 7840   3.308   8.584  -0.282 -3.7817 -1.0195  1.1016
   19CHTO   O43 7841   3.180   8.726  -0.205 -0.0493 -0.0545  0.6714
   19CHTO  H101 7842   3.109   8.666  -0.220  0.9241 -1.0623  0.0951
   19CHTO   C66 7843   3.241   8.711  -0.446  0.3486  0.4359 -0.3204
   19CHTO  H123 7844   3.325   8.683  -0.509  1.2591 -0.1121  1.0965
   19CHTO   N12 7845   3.128   8.625  -0.497  0.1222 -0.6723  0.4477
   19CHTO  H110 7846   3.115   8.524  -0.461  1.6394 -1.3163 -0.7366
   19CHTO  H111 7847   3.128   8.638  -0.604  0.0331 -0.7915  0.4327
   19CHTO   C69 7848   3.215   8.863  -0.464  0.0446  0.2040 -0.0268
   19CHTO  H126 7849   3.119   8.888  -0.413 -1.8136 -2.1682 -2.2234
   19CHTO   O41 7850   3.331   8.959  -0.425  0.0412  0.5066 -0.2200
   19CHTO   C64 7851   3.397   8.923  -0.280  0.0998  0.3410 -0.0071
   19CHTO  H121 7852   3.334   8.954  -0.195 -0.4945 -0.7780 -0.0310
   19CHTO   C71 7853   3.532   8.998  -0.262 -0.2539 -0.0227 -0.2679
   19CHTO   O47 7854   3.487   9.133  -0.252 -0.8165  0.2225 -0.1707
   19CHTO  H104 7855   3.546   9.205  -0.265 -2.4229  1.7355  0.7578
   19CHTO   O34 7856   3.190   8.889  -0.629  0.1443  0.8007 -0.6592
   19CHTO   C49 7857   3.306   8.942  -0.716 -0.5677 -0.2537  0.2176
   19CHTO   H91 7858   3.338   9.034  -0.669 -1.2716  0.8763 -1.4720
   19CHTO   C47 7859   3.247   8.973  -0.852 -0.9941  0.0938  0.0908
   19CHTO   H89 7860   3.335   9.028  -0.891 -1.1998 -1.0804 -2.1043
   19CHTO   O33 7861   3.137   9.061  -0.828 -0.0398 -0.0858  0.0402
   19CHTO   H70 7862   3.096   9.082  -0.910  0.3885 -0.4034 -0.2628
   19CHTO   C45 7863   3.227   8.845  -0.944  0.9088 -0.5129  0.3298
   19CHTO   H87 7864   3.140   8.793  -0.900 -1.0042  1.2148 -1.3383
   19CHTO    N8 7865   3.182   8.885  -1.080  0.3807 -0.2035  0.1868
   19CHTO   H75 7866   3.217   8.985  -1.100  1.1910 -0.4465  0.3834
   19CHTO   H76 7867   3.077   8.888  -1.105 -0.1974 -0.1577  2.4759
   19CHTO   C43 7868   3.346   8.728  -0.936  0.1968 -0.3678 -0.2167
   19CHTO   H85 7869   3.294   8.637  -0.967  0.3894 -1.3569  2.2546
   19CHTO   O29 7870   3.393   8.720  -0.801  0.1507 -0.1983 -0.2181
   19CHTO   C50 7871   3.428   8.841  -0.724  0.4696  0.7011 -0.3345
   19CHTO   H92 7872   3.467   8.811  -0.626  1.6964  1.2561 -0.6512
   19CHTO   C54 7873   3.545   8.902  -0.791 -0.1628 -0.3363 -0.0030
   19CHTO   O36 7874   3.647   8.805  -0.792 -0.0714  0.3145 -0.0219
   19CHTO   H72 7875   3.622   8.719  -0.764 -0.9201  0.2109 -1.0307
   19CHTO   O27 7876   3.452   8.753  -1.031 -0.0202  0.2146 -0.2055
   19CHTO   C37 7877   3.509   8.675  -1.138  0.0149  0.1785 -0.2362
   19CHTO   H79 7878   3.434   8.603  -1.174 -0.8403  1.1020 -0.3341
   19CHTO   C38 7879   3.554   8.768  -1.253  0.3970 -0.3313 -0.3317
   19CHTO   H80 7880   3.624   8.842  -1.211 -2.1320  3.2763 -2.2312
   19CHTO   O31 7881   3.434   8.836  -1.303  0.3315 -0.2034 -0.0535
   19CHTO   H68 7882   3.451   8.872  -1.388  0.0073 -0.5273 -0.2589
   19CHTO   C39 7883   3.631   8.690  -1.358 -0.3692  0.9777  0.3049
   19CHTO   H81 7884   3.562   8.619  -1.403  1.6600  0.6174 -2.3471
   19CHTO    N7 7885   3.682   8.783  -1.463  0.0471  0.1298  0.1236
   19CHTO   H73 7886   3.752   8.856  -1.423 -1.1593  0.1360  2.3379
   19CHTO   H74 7887   3.607   8.834  -1.522  0.7265 -0.5017 -1.3062
   19CHTO   C40 7888   3.736   8.591  -1.294 -0.6403 -1.0171 -0.9120
   19CHTO   H82 7889   3.823   8.649  -1.262 -1.8796 -0.3595  1.3234
   19CHTO   O26 7890   3.680   8.520  -1.185 -0.1076  0.2777 -0.1763
   19CHTO   C41 7891   3.633   8.597  -1.077 -0.6210 -0.2284  0.3491
   19CHTO   H83 7892   3.701   8.678  -1.046  0.3094 -0.2544 -1.6047
   19CHTO   C52 7893   3.593   8.498  -0.961 -0.3482 -0.0566  0.6490
   19CHTO   O35 7894   3.715   8.406  -0.932 -0.0032  0.0263  0.3234
   19CHTO   H71 7895   3.774   8.452  -0.876 -2.5482  2.0276  1.4578
   19CHTO   O28 7896   3.774   8.478  -1.374  0.2853 -0.1681  0.4208
   19CHTO   C42 7897   3.908   8.430  -1.400  0.3564 -0.0061 -0.1289
   19CHTO   H84 7898   3.971   8.476  -1.325  0.0396  0.6328 -0.2500
   19CHTO   C44 7899   3.973   8.469  -1.532 -0.6439 -0.2897  0.4170
   19CHTO   H86 7900   3.908   8.456  -1.619  2.1136 -0.4186 -1.6971
   19CHTO   O32 7901   3.989   8.608  -1.515  0.9482  0.0962 -0.3869
   19CHTO   H69 7902   4.052   8.637  -1.452 -0.5524  1.8144  0.3958
   19CHTO   C48 7903   4.111   8.406  -1.558 -1.1748 -0.5199  0.5748
   19CHTO   H90 7904   4.178   8.435  -1.477 -1.4233 -3.4440  1.9133
   19CHTO    N9 7905   4.167   8.446  -1.695 -0.0196 -0.3489 -0.5145
   19CHTO   H77 7906   4.252   8.511  -1.686 -0.6954  0.3214  1.2341
   19CHTO   H78 7907   4.089   8.511  -1.734  0.7478 -0.4148 -2.1760
   19CHTO   C51 7908   4.099   8.248  -1.547 -0.2797 -0.4463 -0.0885
   19CHTO   H93 7909   4.029   8.217  -1.625 -0.6680 -0.0391  0.0972
   19CHTO   O30 7910   4.045   8.214  -1.419  0.3132  0.0711 -0.5120
   19CHTO   C46 7911   3.917   8.271  -1.384  0.0222  0.2932 -0.4421
   19CHTO   H88 7912   3.846   8.222  -1.451  1.1751 -0.9549 -0.7689
   19CHTO   C53 7913   3.882   8.228  -1.245  0.1893 -0.0456 -0.0958
   19CHTO   O72 7914   3.965   8.272  -1.134 -0.2500  0.0040 -0.1110
   19CHTO  H199 7915   3.986   8.363  -1.125 -2.8323  0.8195 -1.5861
   19CHTO   O22 7916   4.223   8.178  -1.550 -0.4815 -0.2794 -0.1423
   19CHTO   C31 7917   4.215   8.028  -1.570  0.4782 -0.4005  0.7686
   19CHTO   H59 7918   4.106   8.005  -1.566  0.0554  0.9039 -1.9496
   19CHTO   C29 7919   4.260   7.999  -1.717  0.0277  0.2472 -0.3152
   19CHTO   H57 7920   4.364   8.034  -1.728 -0.1193  0.9869  0.6097
   19CHTO   O21 7921   4.175   8.072  -1.807  0.1131 -0.0596  0.1559
   19CHTO   H37 7922   4.190   8.161  -1.782 -2.6730 -0.0282  1.9477
   19CHTO   C27 7923   4.260   7.844  -1.748  0.1488  0.4951  0.5238
   19CHTO   H55 7924   4.158   7.805  -1.730 -0.6593  3.3819  2.5449
   19CHTO    N5 7925   4.314   7.819  -1.885  0.7097 -0.4438 -0.1196
   19CHTO   H43 7926   4.242   7.859  -1.955  2.3625  0.0047 -1.5999
   19CHTO   H44 7927   4.402   7.876  -1.910 -0.2910  0.6065 -1.3024
   19CHTO   C25 7928   4.347   7.771  -1.638 -0.1844 -0.2317 -0.1066
   19CHTO   H53 7929   4.450   7.809  -1.644 -1.3745  3.4177  1.3647
   19CHTO   O17 7930   4.306   7.802  -1.506  0.2421  0.2554  0.4362
   19CHTO   C32 7931   4.299   7.940  -1.473 -0.7293  0.6946  0.6937
   19CHTO   H60 7932   4.403   7.972  -1.475 -0.2995 -0.6647  1.0724
   19CHTO   C36 7933   4.247   7.960  -1.331 -0.2763 -0.3432 -0.0776
   19CHTO   O25 7934   4.331   7.921  -1.229 -0.0747  0.4024 -0.1305
   19CHTO   H40 7935   4.321   7.829  -1.218  0.4719  0.0549 -2.2642
   19CHTO   O15 7936   4.343   7.606  -1.664 -0.1130  0.3742  0.2885
   19CHTO   C19 7937   4.366   7.495  -1.754 -0.3104 -0.9228 -0.5880
   19CHTO   H47 7938   4.333   7.536  -1.850 -1.1447  1.3102  0.6124
   19CHTO   C20 7939   4.517   7.457  -1.794 -0.0218  0.4353 -0.8565
   19CHTO   H48 7940   4.580   7.438  -1.706 -0.5500 -0.5851 -0.6852
   19CHTO   O19 7941   4.566   7.571  -1.871 -0.1874  0.2401 -0.6292
   19CHTO   H35 7942   4.614   7.631  -1.818 -2.3879 -0.7550  2.6006
   19CHTO   C21 7943   4.526   7.320  -1.879 -1.0620 -0.1465  0.4130
   19CHTO   H49 7944   4.493   7.335  -1.982 -1.3877 -1.0284  0.3821
   19CHTO    N4 7945   4.663   7.265  -1.876 -0.1018 -0.2162 -0.3637
   19CHTO   H41 7946   4.697   7.250  -1.774  1.4985  1.0440 -0.6973
   19CHTO   H42 7947   4.676   7.174  -1.932  0.9351 -0.3799  0.1341
   19CHTO   C22 7948   4.421   7.215  -1.833  0.5801 -0.4413  0.0889
   19CHTO   H50 7949   4.458   7.181  -1.736  1.1913 -0.2667 -0.0790
   19CHTO   O14 7950   4.296   7.278  -1.818  0.7984  1.1157 -0.1420
   19CHTO   C23 7951   4.272   7.373  -1.718 -0.0866  0.7692  0.5307
   19CHTO   H51 7952   4.301   7.323  -1.625  1.3328 -2.6506 -1.6545
   19CHTO   C34 7953   4.124   7.411  -1.715 -0.1714 -0.1513 -0.2896
   19CHTO   O23 7954   4.025   7.311  -1.717 -0.2484 -0.3535  0.7424
   19CHTO   H38 7955   3.981   7.308  -1.800  2.5777  1.5973 -0.9052
   19CHTO   O16 7956   4.403   7.100  -1.915 -0.0126 -0.4459  0.1249
   19CHTO   C24 7957   4.404   6.949  -1.849 -0.6258 -0.7151  0.2517
   19CHTO   H52 7958   4.450   6.946  -1.750 -0.9528  0.3741  0.4396
   19CHTO   C26 7959   4.484   6.866  -1.949  0.0694 -0.0741  0.0507
   19CHTO   H54 7960   4.441   6.883  -2.050  0.6183 -0.6239 -0.2831
   19CHTO   O20 7961   4.618   6.909  -1.953  0.1708  0.1726  0.0067
   19CHTO   H36 7962   4.625   7.000  -1.978  0.0871  0.2207  0.1608
   19CHTO   C30 7963   4.477   6.712  -1.920  0.0052 -0.0421 -0.1746
   19CHTO   H58 7964   4.526   6.698  -1.822 -1.6889  1.4029  0.9143
   19CHTO    N6 7965   4.545   6.620  -2.017  0.3368  0.4197 -0.1208
   19CHTO   H45 7966   4.587   6.535  -1.965  1.3650  0.3132 -1.1187
   19CHTO   H46 7967   4.628   6.672  -2.062  0.4987 -0.3644 -0.7455
   19CHTO   C33 7968   4.330   6.679  -1.891  0.3430  0.1148  0.1158
   19CHTO   H61 7969   4.269   6.688  -1.982  1.0282 -0.9397 -0.4497
   19CHTO   O18 7970   4.268   6.769  -1.787  0.1095  0.7738  0.6008
   19CHTO   C28 7971   4.255   6.903  -1.827 -0.1234  0.8774 -0.1413
   19CHTO   H56 7972   4.199   6.919  -1.919 -2.0692  0.2275  0.9028
   19CHTO   C35 7973   4.179   6.973  -1.711 -1.1553  1.2892  0.2213
   19CHTO   O24 7974   4.263   7.009  -1.600  0.1570 -0.2109  0.4759
   19CHTO   H39 7975   4.263   6.934  -1.544  2.2812 -0.2536  0.4266
   19CHTO    O9 7976   4.319   6.544  -1.859 -0.7719  0.4274 -0.0659
   19CHTO   C13 7977   4.174   6.469  -1.888 -0.4380 -0.4875  0.4122
   19CHTO   H26 7978   4.144   6.504  -1.989 -1.0882  0.1709  0.8330
   19CHTO   C11 7979   4.070   6.499  -1.775 -0.1388  0.1529 -0.5202
   19CHTO   H24 7980   4.054   6.608  -1.779  1.1915  0.4003  0.6075
   19CHTO    O8 7981   4.114   6.467  -1.642  0.0877 -0.0787 -0.1376
   19CHTO    H3 7982   4.070   6.519  -1.577 -1.0632 -1.3132  0.0818
   19CHTO    C9 7983   3.940   6.424  -1.812 -0.5585  0.1120  0.0368
   19CHTO   H22 7984   3.918   6.458  -1.914  0.6030 -0.8512 -0.5492
   19CHTO    N2 7985   3.834   6.473  -1.733  0.4427 -0.5628  0.0270
   19CHTO   H10 7986   3.744   6.424  -1.769  1.2248 -1.5159 -0.6491
   19CHTO   H11 7987   3.850   6.440  -1.631 -1.7764 -1.1039  0.2258
   19CHTO    C7 7988   3.961   6.270  -1.813 -0.0339  0.2442  0.1009
   19CHTO   H20 7989   3.864   6.229  -1.850  0.3875 -0.3794 -0.3191
   19CHTO    O4 7990   4.075   6.234  -1.901  0.4192 -0.5371  0.1364
   19CHTO   C14 7991   4.197   6.309  -1.905 -0.2250 -0.6851  0.5500
   19CHTO   H27 7992   4.239   6.282  -2.004  1.4333 -0.5647  1.2038
   19CHTO   C18 7993   4.300   6.265  -1.793 -0.2289  1.0025  0.1680
   19CHTO   O13 7994   4.359   6.145  -1.837 -0.2425 -0.0193 -0.2309
   19CHTO    H7 7995   4.418   6.110  -1.774  0.2377  0.4828 -0.4053
   19CHTO    O2 7996   3.996   6.211  -1.677 -0.1034  0.0204  0.0467
   19CHTO    C1 7997   3.928   6.092  -1.634  0.1999  0.2874 -0.0008
   19CHTO   H14 7998   3.958   6.010  -1.702 -0.8978  0.5122 -0.7714
   19CHTO    C2 7999   3.764   6.099  -1.619  0.6405 -0.0718 -0.2534
   19CHTO   H15 8000   3.748   6.192  -1.562 -0.0594 -1.2608  1.5461
   19CHTO    O6 8001   3.700   6.114  -1.744  0.2679 -0.3277 -0.2451
   19CHTO    H1 8002   3.745   6.179  -1.794  0.7536 -0.5429 -0.0909
   19CHTO    C3 8003   3.703   5.982  -1.533  0.5308  0.4125 -0.3052
   19CHTO   H16 8004   3.711   5.892  -1.596  0.4906 -1.1431  1.8337
   19CHTO    N1 8005   3.556   5.992  -1.505 -0.0356  0.1423 -0.8968
   19CHTO    H8 8006   3.510   6.088  -1.525  0.4409  0.6409  0.3162
   19CHTO    H9 8007   3.502   5.909  -1.548  2.0343 -0.9752 -1.4155
   19CHTO    C4 8008   3.786   5.948  -1.404 -0.3319 -1.1086  0.0843
   19CHTO   H17 8009   3.776   6.032  -1.335  0.2383  0.8799 -2.1632
   19CHTO    O1 8010   3.924   5.932  -1.446 -0.2126 -0.0772  0.0405
   19CHTO    C5 8011   3.994   6.046  -1.496 -0.8071 -0.4970 -0.3415
   19CHTO   H18 8012   3.990   6.124  -1.420 -0.1024 -0.6602 -0.1368
   19CHTO   C16 8013   4.145   6.024  -1.511 -0.1439 -0.4627 -0.1700
   19CHTO   O11 8014   4.177   5.915  -1.597 -0.2921 -0.3112  0.1893
   19CHTO    H5 8015   4.262   5.934  -1.632  0.8433 -0.2409  2.8258
   19CHTO    O3 8016   3.757   5.817  -1.355  0.1675 -0.4277  0.0597
   19CHTO    C6 8017   3.766   5.811  -1.204 -0.3793 -0.6259  0.3339
   19CHTO   H19 8018   3.813   5.899  -1.160 -0.2265 -1.0338  0.9949
   19CHTO    C8 8019   3.622   5.806  -1.142  0.3906 -0.0195  0.2103
   19CHTO   H21 8020   3.571   5.733  -1.205  1.8419  0.1080 -1.1411
   19CHTO    O7 8021   3.564   5.932  -1.166  0.3805 -0.1539  0.4814
   19CHTO    H2 8022   3.577   5.973  -1.249  0.5078  0.6373  0.8849
   19CHTO   C12 8023   3.607   5.781  -0.990 -0.2143  0.5929 -0.1577
   19CHTO   H25 8024   3.648   5.869  -0.936 -1.5426 -0.7196  3.1148
   19CHTO    N3 8025   3.462   5.774  -0.938  0.0016 -0.2753 -0.1102
   19CHTO   H12 8026   3.459   5.812  -0.837  2.4379 -0.7656  0.1634
   19CHTO   H13 8027   3.429   5.671  -0.936  2.7568 -1.2207 -1.7902
   19CHTO   C15 8028   3.694   5.658  -0.953 -0.3013 -0.2538  0.3114
   19CHTO   H28 8029   3.647   5.565  -0.984 -0.3292 -0.5622  1.2535
   19CHTO   O10 8030   3.714   5.635  -0.789 -0.2616 -0.5086  0.0655
   19CHTO    H4 8031   3.739   5.715  -0.747 -2.3728  1.0147 -1.4705
   19CHTO    O5 8032   3.828   5.670  -1.000  0.2528  0.3307  0.3869
   19CHTO   C10 8033   3.842   5.689  -1.145  0.2614  0.2620 -0.2589
   19CHTO   H23 8034   3.809   5.604  -1.205 -0.3020 -0.4695  1.0683
   19CHTO   C17 8035   3.991   5.704  -1.171 -0.3796 -0.9183 -0.3821
   19CHTO   O12 8036   4.024   5.680  -1.309  0.1083  0.5822 -0.0000
   19CHTO    H6 8037   4.112   5.699  -1.338 -0.7864  0.7426 -2.7290
   20CHTO  H203 8038   4.659   0.717   2.155  0.7287 -0.3610 -2.3320
   20CHTO   O82 8039   4.749   0.743   2.155  0.6169  0.1461  0.1581
   20CHTO  C123 8040   4.779   0.881   2.188 -0.3741 -0.1533  0.1186
   20CHTO  H227 8041   4.741   0.910   2.286 -4.6376 -2.0135 -0.8958
   20CHTO   O77 8042   4.929   0.894   2.174  0.2920 -0.0793 -0.5430
   20CHTO  C118 8043   4.985   1.019   2.209 -0.1436  0.0017  0.2746
   20CHTO  H222 8044   4.959   1.049   2.312 -0.3217 -1.0690  0.5413
   20CHTO  C125 8045   5.144   1.009   2.204  0.3986  0.0791 -0.6563
   20CHTO   O84 8046   5.193   0.974   2.075 -0.4817  0.0837  0.4600
   20CHTO  H205 8047   5.283   0.955   2.092 -0.6422  0.4462  1.8393
   20CHTO  C114 8048   4.931   1.127   2.113 -0.5826 -0.8724 -0.2811
   20CHTO  H218 8049   4.963   1.102   2.012  0.1595  0.1643 -0.3050
   20CHTO  C116 8050   4.780   1.116   2.108 -0.2092 -0.2009  0.7728
   20CHTO  H220 8051   4.741   1.145   2.207 -1.3930 -0.2063  0.3185
   20CHTO   O79 8052   4.735   1.228   2.019 -0.1152 -0.0166 -0.5108
   20CHTO  H201 8053   4.644   1.211   2.000 -0.0565 -0.2506 -0.5787
   20CHTO  C120 8054   4.717   0.981   2.077 -0.3957  0.4415  0.0081
   20CHTO  H224 8055   4.759   0.957   1.977  0.5500 -0.5752  0.6385
   20CHTO   N21 8056   4.566   0.990   2.073 -0.3965  0.6442 -0.4140
   20CHTO  H211 8057   4.539   1.071   2.139  1.0407 -0.8433  2.0508
   20CHTO  H212 8058   4.528   0.905   2.127  1.3190 -0.6840 -1.2593
   20CHTO   O75 8059   4.989   1.254   2.148 -0.4964 -0.1597 -0.4184
   20CHTO  C112 8060   5.064   1.323   2.026  0.7786 -0.5292 -0.3326
   20CHTO  H216 8061   5.022   1.286   1.931  1.2879  0.5436 -0.9908
   20CHTO   O73 8062   5.200   1.298   2.033 -0.4987  0.1434  0.0674
   20CHTO  C113 8063   5.279   1.340   1.921 -0.7510  0.0199 -0.0714
   20CHTO  H217 8064   5.247   1.317   1.817  1.6964  1.5181 -1.1868
   20CHTO  C124 8065   5.416   1.283   1.928 -0.4283  0.4768 -0.2346
   20CHTO   O83 8066   5.493   1.309   2.045 -0.4152  1.1495  0.0423
   20CHTO  H204 8067   5.486   1.396   2.078 -1.5828  0.1834  2.4366
   20CHTO  C109 8068   5.283   1.495   1.921  0.1742  0.4723 -0.7656
   20CHTO  H213 8069   5.354   1.523   2.001  0.7681 -0.3021 -1.0075
   20CHTO  C110 8070   5.140   1.552   1.938  0.2171  0.0153  0.5000
   20CHTO  H214 8071   5.096   1.539   1.839  1.2985 -0.8506  0.1208
   20CHTO   O78 8072   5.156   1.692   1.973 -0.1756  0.2866 -0.3625
   20CHTO  H200 8073   5.084   1.741   2.009 -0.2208 -0.4916  0.6310
   20CHTO  C111 8074   5.045   1.479   2.031  0.5964 -0.0304 -0.3266
   20CHTO  H215 8075   5.063   1.515   2.133 -0.9376 -2.6202  0.9002
   20CHTO   N19 8076   4.904   1.522   2.000 -0.0536  0.2105  0.3267
   20CHTO  H207 8077   4.842   1.441   2.035  0.2723 -0.7416 -1.2333
   20CHTO  H208 8078   4.896   1.524   1.892  0.1524  0.9939  0.3245
   20CHTO   O74 8079   5.336   1.535   1.792  0.9901 -0.0881 -0.1833
   20CHTO  C115 8080   5.458   1.644   1.807 -1.2892 -0.1165 -0.1437
   20CHTO  H219 8081   5.429   1.724   1.875 -0.9313 -0.3673  0.3060
   20CHTO   O76 8082   5.597   1.572   1.874 -0.3109 -0.2101  0.3178
   20CHTO  C122 8083   5.681   1.523   1.773 -0.3555 -0.8613 -0.1489
   20CHTO  H226 8084   5.621   1.452   1.717 -1.8816 -2.1243  3.0101
   20CHTO  C126 8085   5.795   1.438   1.832 -0.0561  0.5517 -0.5247
   20CHTO   O85 8086   5.858   1.499   1.952  0.1812 -0.3104 -0.5331
   20CHTO  H206 8087   5.946   1.470   1.966 -0.4428 -1.2291  1.6463
   20CHTO  C121 8088   5.738   1.651   1.704  0.5271 -0.3880  0.2363
   20CHTO  H225 8089   5.807   1.703   1.774 -2.5518  1.0874  2.2619
   20CHTO   O81 8090   5.802   1.613   1.582  0.0749 -0.4646 -0.2294
   20CHTO  H202 8091   5.871   1.553   1.601  0.0884 -0.0349  1.1195
   20CHTO  C119 8092   5.626   1.758   1.670 -0.7670  0.1461  0.3272
   20CHTO  H223 8093   5.621   1.830   1.751  0.9167  1.0626 -0.3623
   20CHTO  C117 8094   5.483   1.704   1.667  0.0819  0.9418  0.5992
   20CHTO  H221 8095   5.461   1.618   1.604 -0.6026  1.5925 -0.0503
   20CHTO   N20 8096   5.385   1.813   1.631 -0.4827 -0.1141 -0.4243
   20CHTO  H209 8097   5.342   1.793   1.534  0.7090  1.7477 -1.3570
   20CHTO  H210 8098   5.316   1.825   1.713 -1.6298  1.7474 -1.6207
   20CHTO   O80 8099   5.673   1.860   1.538 -0.8324 -0.2244  0.4219
   20CHTO  C103 8100   5.643   1.816   1.360 -0.0724  0.0236 -0.0109
   20CHTO  H190 8101   5.743   1.810   1.316 -0.3290  0.6156 -0.6753
   20CHTO  C101 8102   5.569   1.675   1.319 -0.1868 -0.8272  0.0481
   20CHTO  H188 8103   5.495   1.649   1.395 -1.7191  0.2352 -1.0473
   20CHTO   O68 8104   5.662   1.573   1.326 -0.5832 -0.0267  0.2515
   20CHTO  H168 8105   5.730   1.585   1.263 -1.8195  1.6660 -0.8049
   20CHTO   C99 8106   5.491   1.675   1.180  0.6170 -0.2320  0.5332
   20CHTO  H186 8107   5.568   1.665   1.100 -0.3612  0.6017 -0.5285
   20CHTO   N17 8108   5.395   1.566   1.158  0.2217  0.0546 -1.0040
   20CHTO  H174 8109   5.376   1.562   1.052  0.0818 -2.1160 -0.9335
   20CHTO  H175 8110   5.436   1.476   1.203 -2.3524 -0.1511  1.0202
   20CHTO   C97 8111   5.425   1.815   1.151 -0.1430 -0.3905 -0.4015
   20CHTO  H184 8112   5.344   1.825   1.225  1.6305  0.2841  1.5281
   20CHTO   O64 8113   5.527   1.918   1.165 -0.0754  0.0697 -0.1392
   20CHTO  C104 8114   5.573   1.933   1.301  0.1662 -0.0831  0.0336
   20CHTO  H191 8115   5.486   1.956   1.363 -1.4843 -0.2539 -2.1363
   20CHTO  C108 8116   5.662   2.061   1.313 -0.1356  0.1982  0.1325
   20CHTO   O71 8117   5.764   2.074   1.216  0.8269  0.2820 -0.2219
   20CHTO  H171 8118   5.766   2.164   1.192  1.4966  0.5904  0.9646
   20CHTO   O62 8119   5.362   1.841   1.021 -0.0752 -0.0395 -0.7187
   20CHTO   C91 8120   5.286   1.956   0.990  0.0435  0.4081  0.4232
   20CHTO  H178 8121   5.287   2.024   1.075 -4.8247 -0.9495  1.7570
   20CHTO   C92 8122   5.139   1.916   0.979  0.5337  0.3359  0.8959
   20CHTO  H179 8123   5.125   1.839   0.901  0.3019 -1.1307  2.3702
   20CHTO   O66 8124   5.094   1.859   1.105  0.1617 -0.2814  0.0595
   20CHTO  H166 8125   5.134   1.907   1.175  1.4980 -2.0565  0.5548
   20CHTO   C93 8126   5.053   2.047   0.953  0.1007 -0.2972  0.4983
   20CHTO  H180 8127   5.072   2.105   1.044  0.2156 -1.5788  1.3049
   20CHTO   N16 8128   4.907   2.025   0.940 -0.0110  0.1223 -0.1510
   20CHTO  H172 8129   4.868   2.123   0.918  0.7451  0.2529 -0.9470
   20CHTO  H173 8130   4.862   1.966   1.019  0.9226 -1.7653 -0.9833
   20CHTO   C94 8131   5.111   2.125   0.831  0.0549 -0.0474 -0.6195
   20CHTO  H181 8132   5.090   2.072   0.738  2.7988 -0.0892 -1.2305
   20CHTO   O61 8133   5.251   2.149   0.841 -0.1891  0.1872  0.4365
   20CHTO   C95 8134   5.330   2.028   0.853  0.3744  0.3854 -0.1904
   20CHTO  H182 8135   5.309   1.957   0.773  1.0999 -1.0756  0.8983
   20CHTO  C106 8136   5.491   2.047   0.846  0.3051  0.2583 -0.2739
   20CHTO   O69 8137   5.530   2.060   0.705 -0.0232  0.4180  0.5747
   20CHTO  H169 8138   5.619   2.089   0.705 -0.3247  1.3657  0.2983
   20CHTO   O63 8139   5.027   2.260   0.822 -0.7822  0.1327 -0.2728
   20CHTO   C96 8140   5.000   2.306   0.673 -0.2463  0.6874 -0.3761
   20CHTO  H183 8141   4.968   2.223   0.610  1.0699 -0.5735  0.5557
   20CHTO   C98 8142   5.120   2.381   0.596  0.7428 -0.4418 -0.2488
   20CHTO  H185 8143   5.158   2.465   0.656 -1.4960 -1.0256  2.0718
   20CHTO   O67 8144   5.228   2.294   0.578  0.3196 -0.1257 -0.1160
   20CHTO  H167 8145   5.203   2.225   0.520  1.6678  0.5940 -1.5840
   20CHTO  C102 8146   5.086   2.447   0.459  0.7743  0.0464  0.0337
   20CHTO  H189 8147   5.092   2.368   0.383  1.4219 -0.2298  0.3758
   20CHTO   N18 8148   5.172   2.566   0.416  0.4896  0.1650 -0.3277
   20CHTO  H176 8149   5.173   2.645   0.491  0.7856 -0.4588  0.3303
   20CHTO  H177 8150   5.135   2.608   0.324  2.2365 -0.7331 -1.4624
   20CHTO  C105 8151   4.937   2.494   0.455  0.0593  0.3577  0.3595
   20CHTO  H192 8152   4.933   2.591   0.503 -2.5956 -0.0496  1.0170
   20CHTO   O65 8153   4.852   2.411   0.533  0.5365 -0.0839  0.4882
   20CHTO  C100 8154   4.879   2.404   0.670 -0.4293  0.1539 -0.0106
   20CHTO  H187 8155   4.902   2.503   0.712  0.0347 -0.4312  1.1316
   20CHTO  C107 8156   4.758   2.340   0.728  0.6157 -0.0714  0.0010
   20CHTO   O70 8157   4.771   2.332   0.866  0.2764  0.3594 -0.1596
   20CHTO  H170 8158   4.857   2.301   0.884  0.4841  1.4738  0.8587
   20CHTO   O57 8159   4.902   2.491   0.300  0.7205  0.0385 -0.0808
   20CHTO   C85 8160   4.765   2.517   0.259  0.0523  0.4945  0.2060
   20CHTO  H157 8161   4.711   2.557   0.347  3.0196  0.9012  1.9151
   20CHTO   C83 8162   4.710   2.377   0.219  0.2233 -0.2870 -0.1818
   20CHTO  H155 8163   4.723   2.308   0.303 -1.4137  0.6944  0.8916
   20CHTO   O56 8164   4.793   2.325   0.111 -0.1117  0.9404  0.3889
   20CHTO  H135 8165   4.769   2.237   0.089  0.6210  0.4160  1.6362
   20CHTO   C81 8166   4.560   2.393   0.182  0.3495 -0.0462 -0.3199
   20CHTO  H153 8167   4.514   2.443   0.267 -2.0114 -2.6944  0.0516
   20CHTO   N14 8168   4.503   2.262   0.177  0.0282 -0.1645  0.6818
   20CHTO  H141 8169   4.541   2.185   0.113 -1.3454 -0.1994 -0.1280
   20CHTO  H142 8170   4.396   2.261   0.165  0.0729 -3.3694 -0.1477
   20CHTO   C79 8171   4.546   2.480   0.052 -0.0514 -0.1722  0.0798
   20CHTO  H151 8172   4.438   2.491   0.040 -0.3580 -1.9806  1.0599
   20CHTO   O52 8173   4.613   2.608   0.068 -0.4097  0.1818 -0.0750
   20CHTO   C86 8174   4.747   2.607   0.128  0.1259 -0.3918 -0.4989
   20CHTO  H158 8175   4.815   2.566   0.051  1.4587  1.1043 -0.1545
   20CHTO   C90 8176   4.803   2.755   0.141  0.0137  0.2940  0.2359
   20CHTO   O60 8177   4.736   2.834   0.233  0.4482 -0.2007 -0.2671
   20CHTO  H138 8178   4.717   2.784   0.310  1.3703 -1.4718 -0.8569
   20CHTO   O50 8179   4.594   2.415  -0.066  0.1729 -0.7264 -0.4514
   20CHTO   C73 8180   4.628   2.416  -0.208  0.0826  0.1738  0.0919
   20CHTO  H145 8181   4.727   2.455  -0.236 -0.0395  0.0857 -0.4616
   20CHTO   C74 8182   4.524   2.500  -0.292 -0.4485 -0.1029 -0.0613
   20CHTO  H146 8183   4.538   2.604  -0.257  2.1291 -1.4354  3.0634
   20CHTO   O54 8184   4.558   2.509  -0.429 -0.7933 -0.2206  0.5330
   20CHTO  H133 8185   4.570   2.419  -0.455  0.8491  0.1581 -0.0567
   20CHTO   C75 8186   4.371   2.451  -0.271  0.2141  0.5403  0.3379
   20CHTO  H147 8187   4.347   2.476  -0.166  2.9708  0.4916  1.0434
   20CHTO   N13 8188   4.275   2.516  -0.358 -0.5241 -0.3216 -0.2509
   20CHTO  H139 8189   4.222   2.583  -0.292  0.3997 -1.0289  1.2198
   20CHTO  H140 8190   4.214   2.444  -0.410 -0.0646 -0.0692 -1.1630
   20CHTO   C76 8191   4.361   2.293  -0.296  0.1996 -0.2355 -0.4581
   20CHTO  H148 8192   4.365   2.274  -0.403  0.1329  1.5842 -0.7979
   20CHTO   O49 8193   4.481   2.221  -0.236  1.0512 -0.4877 -0.5384
   20CHTO   C77 8194   4.613   2.277  -0.261  0.5283 -0.1231  0.0645
   20CHTO  H149 8195   4.626   2.280  -0.369  0.2001  2.5622  0.0731
   20CHTO   C88 8196   4.722   2.186  -0.206  0.4081  0.5786  0.2973
   20CHTO   O58 8197   4.723   2.054  -0.269  0.1062 -0.7292  0.3545
   20CHTO  H136 8198   4.815   2.040  -0.277  0.4731  1.7759 -0.3409
   20CHTO   O51 8199   4.217   2.225  -0.224  0.7656 -0.4139 -0.6059
   20CHTO   C78 8200   4.231   2.188  -0.075  0.2684 -0.6753 -0.3117
   20CHTO  H150 8201   4.327   2.223  -0.031 -0.2140  0.7597 -0.3882
   20CHTO   C80 8202   4.213   2.035  -0.045  0.7912 -1.0157  0.1797
   20CHTO  H152 8203   4.116   2.005  -0.089  0.4357  2.2782 -1.4800
   20CHTO   O55 8204   4.312   1.958  -0.121  0.3872 -0.2030 -0.2806
   20CHTO  H134 8205   4.395   1.988  -0.088  0.9898 -1.4360 -0.6482
   20CHTO   C84 8206   4.216   1.995   0.108  0.5481 -0.6997  0.1513
   20CHTO  H156 8207   4.316   2.007   0.150 -0.1572 -0.5054  1.8103
   20CHTO   N15 8208   4.186   1.851   0.120  0.2850 -0.0905  0.3961
   20CHTO  H143 8209   4.248   1.802   0.049  2.0688  2.8112 -0.1116
   20CHTO  H144 8210   4.210   1.820   0.220 -0.6996 -0.0558  0.6511
   20CHTO   C87 8211   4.111   2.077   0.191  0.1708 -0.0022 -0.4817
   20CHTO  H159 8212   4.013   2.042   0.157  1.0242  1.5414 -4.8340
   20CHTO   O53 8213   4.136   2.225   0.152  0.6051 -0.3392  0.7608
   20CHTO   C82 8214   4.118   2.244   0.010  0.3808  0.2728 -0.3114
   20CHTO  H154 8215   4.029   2.188  -0.019  0.6265 -0.4939  0.3876
   20CHTO   C89 8216   4.091   2.394  -0.030 -0.2830  0.4733 -0.5048
   20CHTO   O59 8217   4.187   2.483   0.029  0.3922  0.3438 -0.5361
   20CHTO  H137 8218   4.264   2.492  -0.024  1.1649 -0.6976  0.3922
   20CHTO   O45 8219   4.115   2.046   0.336 -0.0409  0.2054  0.2510
   20CHTO   C67 8220   4.222   2.077   0.422 -0.2348  1.2747 -0.1235
   20CHTO  H124 8221   4.318   2.067   0.371 -0.1438  1.7322 -0.0449
   20CHTO   C65 8222   4.222   2.216   0.480 -0.1013 -0.3158  0.5170
   20CHTO  H122 8223   4.215   2.282   0.394 -0.9664  0.9883  1.5667
   20CHTO   O44 8224   4.347   2.259   0.533  0.2868 -0.1141 -0.5915
   20CHTO  H102 8225   4.342   2.344   0.571 -1.1877 -0.5008  0.1331
   20CHTO   C63 8226   4.094   2.232   0.566  0.2403  0.1691  0.5037
   20CHTO  H120 8227   4.010   2.170   0.533  1.6109 -1.1737 -0.5090
   20CHTO   N11 8228   4.041   2.369   0.572  0.1982 -0.9114 -0.4628
   20CHTO  H108 8229   3.936   2.372   0.552  0.5119  0.6741 -1.9617
   20CHTO  H109 8230   4.094   2.413   0.491  1.2270 -1.6268 -0.1822
   20CHTO   C61 8231   4.124   2.153   0.701 -1.1293  0.1190 -0.4568
   20CHTO  H118 8232   4.038   2.156   0.768 -0.4258 -0.7339  0.4983
   20CHTO   O40 8233   4.157   2.010   0.677  0.1786 -0.1294  0.1611
   20CHTO   C68 8234   4.215   1.965   0.547 -0.0208 -0.1301  0.4522
   20CHTO  H125 8235   4.153   1.875   0.528 -1.2631  0.4712  1.5751
   20CHTO   C72 8236   4.351   1.918   0.568 -0.1030  0.3575 -0.3791
   20CHTO   O48 8237   4.391   1.787   0.529 -0.2310 -0.5140  0.5671
   20CHTO  H105 8238   4.387   1.779   0.436  2.2227  0.8345  0.3016
   20CHTO   O38 8239   4.236   2.223   0.765  0.5468  0.5756  0.5156
   20CHTO   C55 8240   4.241   2.210   0.905 -0.3358  0.6485  0.2782
   20CHTO  H112 8241   4.218   2.106   0.929 -4.1713  1.3259 -0.2249
   20CHTO   C56 8242   4.142   2.312   0.977  0.1951 -0.0571  0.2273
   20CHTO  H113 8243   4.150   2.405   0.918  0.1260 -0.9013 -1.1403
   20CHTO   O42 8244   4.015   2.264   0.961 -0.3367 -0.1419  0.1534
   20CHTO  H100 8245   3.948   2.327   0.975  0.0857  0.0956  1.1473
   20CHTO   C57 8246   4.168   2.348   1.130  0.2235 -0.7569 -0.0131
   20CHTO  H114 8247   4.122   2.268   1.187 -3.1879  0.5226 -0.9025
   20CHTO   N10 8248   4.115   2.480   1.185 -0.3112  0.7991 -0.3367
   20CHTO  H106 8249   4.026   2.467   1.246  0.7101 -0.6097  0.9204
   20CHTO  H107 8250   4.087   2.548   1.107 -1.1224  2.4918  1.3906
   20CHTO   C58 8251   4.323   2.358   1.155  0.3784  0.0890 -0.4934
   20CHTO  H115 8252   4.359   2.457   1.121  0.1929  0.3338  0.0184
   20CHTO   O37 8253   4.399   2.252   1.091  0.1486  0.1251 -0.3065
   20CHTO   C59 8254   4.384   2.248   0.950  0.2372 -0.3532  0.8246
   20CHTO  H116 8255   4.420   2.342   0.909 -0.1034 -0.8068 -0.5598
   20CHTO   C70 8256   4.478   2.135   0.903  0.0018  0.2378 -0.6425
   20CHTO   O46 8257   4.461   2.001   0.955 -0.3744 -0.1024  0.4318
   20CHTO  H103 8258   4.373   1.971   0.949 -0.1919 -0.8266  1.3575
   20CHTO   O39 8259   4.353   2.345   1.325  0.3477  0.5668 -0.9193
   20CHTO   C60 8260   4.482   2.329   1.381 -0.2001 -0.6019  0.6668
   20CHTO  H117 8261   4.515   2.226   1.363 -0.4249 -0.8588  1.7428
   20CHTO   C62 8262   4.597   2.419   1.331  0.3829 -0.1265 -0.0431
   20CHTO  H119 8263   4.609   2.408   1.221  3.3364 -1.9264  0.3898
   20CHTO   O43 8264   4.562   2.560   1.351 -0.3524 -0.0295  0.0688
   20CHTO  H101 8265   4.602   2.602   1.424  1.7786 -1.9080  0.0487
   20CHTO   C66 8266   4.734   2.364   1.402  0.3920  0.0810 -0.3640
   20CHTO  H123 8267   4.751   2.260   1.378  1.4916  0.1160  0.2100
   20CHTO   N12 8268   4.843   2.439   1.338  0.4373  0.3456  0.5913
   20CHTO  H110 8269   4.808   2.532   1.295  0.2951 -0.6222 -1.4196
   20CHTO  H111 8270   4.872   2.379   1.253  4.1551  1.9786  0.5921
   20CHTO   C69 8271   4.724   2.379   1.553 -0.6535 -0.4214  0.0346
   20CHTO  H126 8272   4.711   2.482   1.591 -1.0244  0.4609 -2.4162
   20CHTO   O41 8273   4.608   2.298   1.605 -0.2851 -0.6127 -0.1089
   20CHTO   C64 8274   4.469   2.344   1.537  0.3468  0.5049 -0.4069
   20CHTO  H121 8275   4.453   2.453   1.551 -1.8828  0.4710 -2.3612
   20CHTO   C71 8276   4.358   2.255   1.596  0.0439  0.1323  0.1689
   20CHTO   O47 8277   4.381   2.111   1.597  0.0441  0.2639 -0.4144
   20CHTO  H104 8278   4.399   2.074   1.513  0.5373 -1.0975  0.2722
   20CHTO   O34 8279   4.881   2.313   1.612 -0.1047  0.3018 -0.4419
   20CHTO   C49 8280   4.897   2.154   1.612 -1.0326 -0.0267 -0.1348
   20CHTO   H91 8281   4.845   2.112   1.526 -1.0654 -1.5229  0.5950
   20CHTO   C47 8282   4.846   2.087   1.743 -0.1469 -0.5270  0.6276
   20CHTO   H89 8283   4.745   2.056   1.707  0.2117 -0.2338 -0.6667
   20CHTO   O33 8284   4.834   2.190   1.844  0.9730 -0.4747 -0.1041
   20CHTO   H70 8285   4.745   2.214   1.857  0.2560 -3.8939  1.9224
   20CHTO   C45 8286   4.927   1.960   1.800  0.4572  0.7440 -0.1127
   20CHTO   H87 8287   5.007   2.005   1.860  0.5123  0.0923  0.3134
   20CHTO    N8 8288   4.848   1.868   1.886 -0.3227 -0.8274  0.1089
   20CHTO   H75 8289   4.772   1.816   1.829 -1.0987  0.9614 -0.5325
   20CHTO   H76 8290   4.915   1.791   1.923  3.0964  1.4550 -1.1027
   20CHTO   C43 8291   5.004   1.880   1.682 -0.4277 -0.6390  0.3915
   20CHTO   H85 8292   5.067   1.805   1.730  2.5436  1.6140  0.1503
   20CHTO   O29 8293   5.080   1.974   1.608 -0.2416 -0.1684 -0.0966
   20CHTO   C50 8294   5.048   2.117   1.603  0.1516 -0.0975 -0.2645
   20CHTO   H92 8295   5.100   2.164   1.687 -1.2326  0.3503  0.3676
   20CHTO   C54 8296   5.112   2.171   1.468 -0.2844 -0.2129  0.2581
   20CHTO   O36 8297   5.048   2.121   1.349  1.1715 -0.6173 -0.0754
   20CHTO   H72 8298   4.958   2.145   1.355  0.6293 -2.9335  1.2855
   20CHTO   O27 8299   4.917   1.814   1.591  0.5063 -0.5497  0.0301
   20CHTO   C37 8300   4.852   1.735   1.484  0.5292 -0.1502  0.4789
   20CHTO   H79 8301   4.782   1.666   1.533 -0.3058 -1.0500 -1.9077
   20CHTO   C38 8302   4.769   1.813   1.382  0.3815 -1.5248  0.3548
   20CHTO   H80 8303   4.835   1.893   1.346 -0.9088 -1.1666 -1.2204
   20CHTO   O31 8304   4.652   1.860   1.444 -0.2045  0.4163  0.0298
   20CHTO   H68 8305   4.633   1.945   1.409 -1.3184 -0.3603 -1.3138
   20CHTO   C39 8306   4.729   1.718   1.250  0.0751 -0.2473  0.3952
   20CHTO   H81 8307   4.648   1.655   1.284  1.0429 -1.2058  0.9550
   20CHTO    N7 8308   4.675   1.796   1.142 -0.0740 -0.2576 -0.2455
   20CHTO   H73 8309   4.613   1.876   1.181 -0.6923 -1.6059  1.6439
   20CHTO   H74 8310   4.609   1.728   1.091 -0.5371  0.8592 -1.1357
   20CHTO   C40 8311   4.844   1.627   1.200 -0.0910 -0.2054 -1.2735
   20CHTO   H82 8312   4.922   1.684   1.150 -1.2322 -0.0689 -2.9362
   20CHTO   O26 8313   4.895   1.553   1.312 -0.2559  0.1257  0.0300
   20CHTO   C41 8314   4.962   1.652   1.399 -0.7199  0.2480  0.1121
   20CHTO   H83 8315   5.024   1.723   1.344 -0.6002 -0.4629 -0.6828
   20CHTO   C52 8316   5.057   1.585   1.494  0.4716 -0.0588 -0.1548
   20CHTO   O35 8317   5.154   1.467   1.428  0.2993  0.6708 -0.0356
   20CHTO   H71 8318   5.239   1.498   1.402  1.0447 -0.3966  1.0604
   20CHTO   O28 8319   4.797   1.529   1.108 -0.1820 -0.2787 -0.3723
   20CHTO   C42 8320   4.883   1.435   1.040  0.7837 -0.2242 -0.3826
   20CHTO   H84 8321   4.813   1.386   0.972  0.8166 -1.5256  0.5078
   20CHTO   C44 8322   4.950   1.320   1.121 -0.5455 -0.3120 -0.2073
   20CHTO   H86 8323   4.999   1.363   1.208  0.1812  1.4348 -1.4509
   20CHTO   O32 8324   4.856   1.230   1.179 -0.0904 -0.2276 -0.6222
   20CHTO   H69 8325   4.794   1.280   1.228  0.4039  1.7682 -1.9800
   20CHTO   C48 8326   5.056   1.239   1.038 -0.2465 -0.6145  1.3456
   20CHTO   H90 8327   5.006   1.184   0.958  1.3492 -0.1693  0.0014
   20CHTO    N9 8328   5.133   1.141   1.125  0.0217 -0.0931  0.3524
   20CHTO   H77 8329   5.067   1.062   1.159  2.0181 -0.8061  2.7946
   20CHTO   H78 8330   5.220   1.098   1.077 -0.7509 -3.5406  1.8330
   20CHTO   C51 8331   5.155   1.342   0.964  0.3748 -0.3803  0.1710
   20CHTO   H93 8332   5.218   1.398   1.033  1.8824 -2.9467  0.9539
   20CHTO   O30 8333   5.072   1.426   0.883  0.5115 -0.7076 -0.6359
   20CHTO   C46 8334   4.988   1.515   0.946  0.1417 -0.1479  0.5353
   20CHTO   H88 8335   5.060   1.569   1.007 -0.3195 -1.3969  2.2429
   20CHTO   C53 8336   4.905   1.603   0.852 -0.0277 -0.1467  0.0501
   20CHTO   O72 8337   4.843   1.523   0.749  0.5229  0.2501  0.6134
   20CHTO  H199 8338   4.806   1.581   0.685 -0.9311 -0.3126  0.9308
   20CHTO   O22 8339   5.245   1.280   0.868 -0.7770  0.4685 -0.1421
   20CHTO   C31 8340   5.374   1.330   0.815  0.2173 -0.5809 -0.2441
   20CHTO   H59 8341   5.400   1.259   0.733  4.5153  0.9735 -0.4008
   20CHTO   C29 8342   5.362   1.473   0.753 -0.2711  0.0199  0.3454
   20CHTO   H57 8343   5.334   1.537   0.838 -2.9139 -0.4619 -0.1052
   20CHTO   O21 8344   5.249   1.484   0.663 -0.4113 -0.2324  0.4772
   20CHTO   H37 8345   5.252   1.417   0.597 -1.1033  1.6546 -1.5166
   20CHTO   C27 8346   5.496   1.520   0.688  0.2561  0.5193  0.0113
   20CHTO   H55 8347   5.538   1.445   0.620 -2.2918  0.2624 -1.3494
   20CHTO    N5 8348   5.494   1.649   0.625  0.4200 -0.1597 -0.1781
   20CHTO   H43 8349   5.539   1.730   0.681  0.1183 -1.4631  1.9975
   20CHTO   H44 8350   5.406   1.670   0.565 -0.7456 -1.2903  1.1046
   20CHTO   C25 8351   5.595   1.523   0.812  0.2242 -0.6620  0.9189
   20CHTO   H53 8352   5.552   1.582   0.895 -0.3409 -0.0480  0.1892
   20CHTO   O17 8353   5.605   1.388   0.865  0.0305 -0.3117  0.1411
   20CHTO   C32 8354   5.492   1.320   0.919 -0.1390 -0.0565  0.1996
   20CHTO   H60 8355   5.462   1.366   1.014 -3.7902 -1.0609 -0.3735
   20CHTO   C36 8356   5.543   1.170   0.936 -0.5797 -0.4634 -0.1388
   20CHTO   O25 8357   5.627   1.128   0.833  0.3456 -0.4224 -0.6170
   20CHTO   H40 8358   5.579   1.129   0.752 -3.0904  1.0207  1.3684
   20CHTO   O15 8359   5.737   1.557   0.764 -0.1545 -0.3447 -0.3903
   20CHTO   C19 8360   5.855   1.641   0.768  0.6731  1.0538  0.5815
   20CHTO   H47 8361   5.822   1.723   0.702  1.2618  0.9628  0.1713
   20CHTO   C20 8362   5.879   1.700   0.912  0.0406 -0.0087 -0.4182
   20CHTO   H48 8363   5.902   1.622   0.985  0.0814  0.7217  0.3621
   20CHTO   O19 8364   5.749   1.764   0.950 -0.2396 -0.1211 -0.1605
   20CHTO   H35 8365   5.695   1.707   1.001  1.1987 -1.1389  0.2688
   20CHTO   C21 8366   6.000   1.807   0.905  0.0674 -0.0961  0.1248
   20CHTO   H49 8367   5.971   1.894   0.846  0.8707 -0.5580 -0.9600
   20CHTO    N4 8368   6.028   1.868   1.043 -1.0864  0.0117  0.0042
   20CHTO   H41 8369   5.937   1.911   1.082  0.2281  0.2242  2.9633
   20CHTO   H42 8370   6.076   1.804   1.116 -1.2582  1.1794  1.1573
   20CHTO   C22 8371   6.120   1.742   0.833  0.2986 -0.6870 -0.7261
   20CHTO   H50 8372   6.163   1.674   0.907 -0.5939 -0.2625  0.2027
   20CHTO   O14 8373   6.090   1.683   0.707  0.6753 -0.0582 -0.3952
   20CHTO   C23 8374   5.985   1.580   0.707  0.3626 -0.7563 -0.6547
   20CHTO   H51 8375   6.014   1.492   0.765  1.5727  0.7477  1.0756
   20CHTO   C34 8376   5.951   1.527   0.561  0.0150  0.0610 -0.8949
   20CHTO   O23 8377   5.903   1.626   0.470 -0.5038  0.0735  0.2282
   20CHTO   H38 8378   5.815   1.650   0.493 -0.0003  0.0513  2.2860
   20CHTO   O16 8379   6.211   1.844   0.796 -0.1624 -1.0435 -0.5599
   20CHTO   C24 8380   6.347   1.794   0.726  0.0503 -0.6573 -0.5745
   20CHTO   H52 8381   6.339   1.693   0.685  1.4254 -1.2360  0.5098
   20CHTO   C26 8382   6.469   1.801   0.824  0.8574 -0.0419  0.4301
   20CHTO   H54 8383   6.451   1.889   0.888 -0.4493  0.2512 -0.3240
   20CHTO   O20 8384   6.484   1.674   0.900  0.0324  0.4786  0.1838
   20CHTO   H36 8385   6.401   1.636   0.922  0.0262  1.2543  1.5105
   20CHTO   C30 8386   6.606   1.827   0.750 -0.7604 -0.0251 -0.4709
   20CHTO   H58 8387   6.684   1.764   0.794 -0.4039 -0.4159 -1.6248
   20CHTO    N6 8388   6.654   1.968   0.752  0.0189  0.0816  0.6996
   20CHTO   H45 8389   6.740   1.973   0.818  0.4484 -0.5388  0.1916
   20CHTO   H46 8390   6.581   2.038   0.791 -0.1612  0.1307  0.2725
   20CHTO   C33 8391   6.594   1.776   0.602 -0.6673 -0.6449 -0.1640
   20CHTO   H61 8392   6.690   1.776   0.550 -2.3889 -0.8854 -3.4331
   20CHTO   O18 8393   6.495   1.851   0.525 -0.0426 -0.0843 -0.8289
   20CHTO   C28 8394   6.381   1.891   0.605 -0.1640  0.9183  0.2324
   20CHTO   H56 8395   6.401   1.991   0.642  0.0696  1.7959 -2.1919
   20CHTO   C35 8396   6.259   1.906   0.508 -0.1960 -0.0420  0.3092
   20CHTO   O24 8397   6.153   1.991   0.546 -0.0422 -0.0923  0.1471
   20CHTO   H39 8398   6.179   2.078   0.571 -1.3372 -0.0490  1.4531
   20CHTO    O9 8399   6.565   1.640   0.613 -0.1110  0.2995 -0.5489
   20CHTO   C13 8400   6.687   1.528   0.631  0.2680 -0.0178  0.0931
   20CHTO   H26 8401   6.765   1.581   0.689 -1.8919  1.6165  1.5694
   20CHTO   C11 8402   6.734   1.468   0.495 -0.6610  0.3123 -0.2622
   20CHTO   H24 8403   6.788   1.553   0.451 -1.5974  0.3798 -1.2995
   20CHTO    O8 8404   6.628   1.425   0.414  0.0444  0.9923  0.1901
   20CHTO    H3 8405   6.552   1.396   0.461 -0.8370  1.3325 -0.9914
   20CHTO    C9 8406   6.840   1.360   0.532  0.7927 -0.5139  0.5875
   20CHTO   H22 8407   6.905   1.415   0.602 -1.6220  3.5819 -0.2211
   20CHTO    N2 8408   6.919   1.306   0.424 -0.2916 -0.1585  0.1010
   20CHTO   H10 8409   6.938   1.377   0.345  2.2440 -1.4525 -0.4998
   20CHTO   H11 8410   7.016   1.274   0.458 -0.0830  0.7732  0.4050
   20CHTO    C7 8411   6.772   1.237   0.608 -0.9709  0.4084 -0.3439
   20CHTO   H20 8412   6.869   1.189   0.632 -0.6599  0.7859 -0.8276
   20CHTO    O4 8413   6.697   1.275   0.723  0.3300  0.4081  1.0295
   20CHTO   C14 8414   6.623   1.403   0.728  1.6628  0.1427 -0.0413
   20CHTO   H27 8415   6.635   1.437   0.833 -0.0655  1.2340 -0.1733
   20CHTO   C18 8416   6.467   1.391   0.709  0.9019 -0.0133  0.2560
   20CHTO   O13 8417   6.408   1.319   0.815 -0.5318 -0.4157  0.0857
   20CHTO    H7 8418   6.438   1.231   0.814  0.3135 -0.1262 -1.4881
   20CHTO    O2 8419   6.687   1.139   0.521 -0.1180 -0.3509 -0.2106
   20CHTO    C1 8420   6.681   1.012   0.582  0.3743  0.0967  0.3844
   20CHTO   H14 8421   6.694   1.017   0.693  0.1199 -2.1337  0.5430
   20CHTO    C2 8422   6.795   0.914   0.532 -0.3523  0.6624 -0.3486
   20CHTO   H15 8423   6.784   0.902   0.424 -2.5807 -1.3207  0.0393
   20CHTO    O6 8424   6.923   0.976   0.574  0.0038 -0.0612 -0.1203
   20CHTO    H1 8425   6.969   1.002   0.496 -2.9521  0.5318 -1.7515
   20CHTO    C3 8426   6.776   0.770   0.598 -0.1155  0.8022  0.1991
   20CHTO   H16 8427   6.789   0.771   0.707 -1.9535 -2.1722  0.5001
   20CHTO    N1 8428   6.883   0.675   0.548  0.7528 -0.1257 -0.1681
   20CHTO    H8 8429   6.974   0.730   0.566  0.4492  0.8843 -1.5674
   20CHTO    H9 8430   6.891   0.596   0.621 -1.6662  0.2052  0.4963
   20CHTO    C4 8431   6.632   0.726   0.559 -0.1112 -0.7725 -0.9277
   20CHTO   H17 8432   6.627   0.718   0.451  1.5058 -0.3962 -1.0553
   20CHTO    O1 8433   6.537   0.819   0.613 -0.3101  0.0312 -0.0090
   20CHTO    C5 8434   6.547   0.944   0.552 -0.0108  0.1161 -0.4031
   20CHTO   H18 8435   6.540   0.925   0.445 -0.5961 -2.6982  0.1011
   20CHTO   C16 8436   6.419   1.027   0.592 -0.1905 -0.0831  0.4010
   20CHTO   O11 8437   6.334   1.021   0.477 -0.2841 -0.5028 -0.4998
   20CHTO    H5 8438   6.360   1.091   0.419 -0.9556 -0.3412 -0.6077
   20CHTO    O3 8439   6.591   0.599   0.614 -0.4841 -0.6046 -0.6266
   20CHTO    C6 8440   6.539   0.498   0.525  0.6162  0.8270 -0.5293
   20CHTO   H19 8441   6.544   0.519   0.418  2.0083  1.1338 -0.4129
   20CHTO    C8 8442   6.615   0.366   0.546  0.0150  0.3805  0.2170
   20CHTO   H21 8443   6.637   0.359   0.653  2.2157  2.0680 -0.0947
   20CHTO    O7 8444   6.738   0.369   0.482 -0.0605  0.2968 -0.3482
   20CHTO    H2 8445   6.736   0.339   0.394 -1.4383 -0.2495 -0.1381
   20CHTO   C12 8446   6.528   0.240   0.499  0.4929 -0.0390  0.4256
   20CHTO   H25 8447   6.523   0.239   0.388 -1.7830 -1.4053  0.4970
   20CHTO    N3 8448   6.586   0.106   0.525 -0.4218  0.0783  0.3102
   20CHTO   H12 8449   6.671   0.102   0.591  0.4270  0.0056 -0.7918
   20CHTO   H13 8450   6.509   0.044   0.569 -1.1585 -0.8370 -2.1671
   20CHTO   C15 8451   6.381   0.253   0.554  0.1503 -0.3206  0.1514
   20CHTO   H28 8452   6.377   0.244   0.662  3.1242 -0.5428  0.2870
   20CHTO   O10 8453   6.277   0.146   0.479 -0.4052 -0.2388  0.0527
   20CHTO    H4 8454   6.258   0.065   0.522 -0.3567 -1.2100 -1.7171
   20CHTO    O5 8455   6.312   0.376   0.506 -0.2778 -0.4205 -0.1477
   20CHTO   C10 8456   6.383   0.486   0.561  0.4447 -0.5394  0.5416
   20CHTO   H23 8457   6.369   0.480   0.669 -1.8517 -2.0200  0.2229
   20CHTO   C17 8458   6.301   0.608   0.517 -0.0046  0.0053 -0.3831
   20CHTO   O12 8459   6.164   0.618   0.561 -0.4633  0.1792  0.2153
   20CHTO    H6 8460   6.153   0.582   0.647 -0.4407  3.1563  1.5498
   21GLOH   H03 8461   3.772   0.786   0.912  2.0217 -0.0922 -0.7473
   21GLOH    O1 8462   3.760   0.704   0.964 -0.7906  0.6464 -0.0933
   21GLOH    C1 8463   3.752   0.733   1.101  0.7834 -0.5530  0.0336
   21GLOH   H02 8464   3.650   0.716   1.135 -0.5238  2.7681 -1.9142
   21GLOH   H08 8465   3.772   0.837   1.130  1.2569 -0.1270 -1.7764
   21GLOH    C2 8466   3.839   0.638   1.193 -0.9595  0.4101  0.7020
   21GLOH   H04 8467   3.938   0.636   1.144 -2.2015  1.1740 -1.9426
   21GLOH    O2 8468   3.838   0.703   1.315 -0.2250 -0.7470 -0.8728
   21GLOH   H05 8469   3.882   0.645   1.379  0.4017  1.0350  0.3579
   21GLOH    C3 8470   3.798   0.488   1.198 -0.2746  0.7060  0.5535
   21GLOH   H06 8471   3.825   0.430   1.110 -0.4688  1.6540 -0.1493
   21GLOH   H07 8472   3.690   0.478   1.208 -0.0987 -0.2598  1.4745
   21GLOH    O3 8473   3.861   0.409   1.297 -0.9496  0.1366  0.0543
   21GLOH   H01 8474   3.821   0.425   1.384 -2.0581  2.3108 -0.8237
   22GLOH   H03 8475   3.836   9.987   1.143 -2.0065  3.0035  0.7140
   22GLOH    O1 8476   3.901  10.039   1.092 -0.4874 -0.0644 -0.5993
   22GLOH    C1 8477   3.838  10.130   1.016 -0.4782 -0.2884  0.6607
   22GLOH   H02 8478   3.830  10.217   1.081  0.5117 -0.9302  1.6771
   22GLOH   H08 8479   3.738  10.098   0.986 -0.4274 -0.0700  0.2572
   22GLOH    C2 8480   3.917  10.151   0.883 -0.2916  0.3211  0.0554
   22GLOH   H04 8481   3.947  10.051   0.847  0.9430  0.0575  1.7049
   22GLOH    O2 8482   3.834  10.220   0.780 -0.4925  0.5460  0.3939
   22GLOH   H05 8483   3.840  10.315   0.798 -2.1500  0.1360  3.3840
   22GLOH    C3 8484   4.047  10.234   0.910  0.1945  0.2177  0.8157
   22GLOH   H06 8485   4.063  10.238   1.018 -1.5262 -2.2977  1.2071
   22GLOH   H07 8486   4.020  10.331   0.867 -0.9418 -0.4085  0.0978
   22GLOH    O3 8487   4.173  10.187   0.859 -0.0506  0.2067 -0.7173
   22GLOH   H01 8488   4.187  10.227   0.772  0.1744  0.3338 -0.6221
   23GLOH   H03 8489   4.217   9.854   1.500 -0.5443  1.7593 -1.4425
   23GLOH    O1 8490   4.285   9.867   1.569 -0.9812  0.0117 -0.6628
   23GLOH    C1 8491   4.275   9.767   1.666 -0.3932 -0.4114  0.1455
   23GLOH   H02 8492   4.343   9.684   1.646  0.8602  1.4404 -3.7819
   23GLOH   H08 8493   4.170   9.745   1.689  0.0999 -0.6127  2.3388
   23GLOH    C2 8494   4.318   9.824   1.806 -0.1970  0.1742  0.0872
   23GLOH   H04 8495   4.328   9.727   1.856  1.3935 -0.7334 -1.9026
   23GLOH    O2 8496   4.443   9.894   1.821 -0.1645  0.4493 -0.0123
   23GLOH   H05 8497   4.432   9.990   1.821  0.8527  0.5714  0.5948
   23GLOH    C3 8498   4.204   9.912   1.853 -0.7766 -0.4585  0.4231
   23GLOH   H06 8499   4.170   9.968   1.766 -2.0167 -1.3688  0.3044
   23GLOH   H07 8500   4.236   9.977   1.934 -0.5334 -2.5648  2.0485
   23GLOH    O3 8501   4.088   9.840   1.897  0.7043  0.0671  0.0815
   23GLOH   H01 8502   4.115   9.770   1.958 -1.5081 -0.2487  0.7681
   24GLOH   H03 8503   4.573   0.190   1.403  1.1888 -0.3824 -2.7038
   24GLOH    O1 8504   4.574   0.281   1.370 -0.3902  0.3748 -0.7537
   24GLOH    C1 8505   4.477   0.289   1.273  0.4480  0.3882 -0.1336
   24GLOH   H02 8506   4.507   0.216   1.197 -1.5713 -2.4262  1.6442
   24GLOH   H08 8507   4.473   0.387   1.226  1.2327  1.3951  1.8646
   24GLOH    C2 8508   4.337   0.251   1.324 -0.8315  0.3100 -0.9746
   24GLOH   H04 8509   4.329   0.304   1.420  2.2064 -0.1364 -0.4203
   24GLOH    O2 8510   4.237   0.289   1.225 -0.8287  0.2129 -0.2281
   24GLOH   H05 8511   4.150   0.253   1.250 -0.8137 -1.4017 -2.3616
   24GLOH    C3 8512   4.334   0.103   1.364  1.3864 -0.4783  0.1991
   24GLOH   H06 8513   4.369   0.033   1.288 -1.9977  0.3617 -2.2675
   24GLOH   H07 8514   4.230   0.075   1.379  1.1964  0.3743  0.5093
   24GLOH    O3 8515   4.406   0.081   1.481  0.0797  0.3636 -0.1216
   24GLOH   H01 8516   4.370   0.002   1.523 -0.2577  0.2530 -0.6119
   25GLOH   H03 8517   3.220   1.463   2.213  0.3517 -1.5708  0.2098
   25GLOH    O1 8518   3.233   1.482   2.118  0.4589  0.2021  0.5580
   25GLOH    C1 8519   3.169   1.369   2.053 -0.0394  0.7092 -0.0446
   25GLOH   H02 8520   3.232   1.281   2.044  0.7066  1.0367  1.7619
   25GLOH   H08 8521   3.150   1.391   1.948 -0.3404 -0.8128 -0.3134
   25GLOH    C2 8522   3.033   1.327   2.109 -0.8548 -0.0649 -0.1322
   25GLOH   H04 8523   2.950   1.397   2.090  0.8298  1.8929 -0.4908
   25GLOH    O2 8524   3.002   1.200   2.048 -0.0165 -0.1302  0.2924
   25GLOH   H05 8525   2.952   1.148   2.113  3.4219 -2.5464  1.1799
   25GLOH    C3 8526   3.056   1.303   2.257  0.2627 -0.3191  0.4081
   25GLOH   H06 8527   3.113   1.211   2.270 -0.2093 -0.5385  0.9487
   25GLOH   H07 8528   2.960   1.279   2.304 -0.2644  0.4070 -0.2942
   25GLOH    O3 8529   3.123   1.397   2.339 -0.1369 -0.2214  0.0197
   25GLOH   H01 8530   3.139   1.359   2.428 -1.6284 -1.7992 -0.3573
   26GLOH   H03 8531   3.816   1.761   0.870 -0.6430  0.5334 -0.9305
   26GLOH    O1 8532   3.824   1.664   0.871  0.3050  0.6170  0.7751
   26GLOH    C1 8533   3.955   1.609   0.894  0.5243  0.4306  0.6529
   26GLOH   H02 8534   3.954   1.502   0.916 -0.8505  0.0557 -1.1234
   26GLOH   H08 8535   4.008   1.651   0.980  2.3943  1.2542 -0.8603
   26GLOH    C2 8536   4.048   1.637   0.777  0.0772  0.4725 -0.6425
   26GLOH   H04 8537   4.040   1.565   0.694 -2.5584 -2.4211  1.9979
   26GLOH    O2 8538   4.035   1.766   0.724  0.1100 -0.0588 -0.4875
   26GLOH   H05 8539   3.983   1.821   0.786  0.9440 -1.3972  1.4054
   26GLOH    C3 8540   4.192   1.627   0.837  0.3347  0.4102 -0.1318
   26GLOH   H06 8541   4.196   1.680   0.932 -0.8031 -0.4597  0.4147
   26GLOH   H07 8542   4.267   1.671   0.771  1.9743 -0.5771  1.0559
   26GLOH    O3 8543   4.207   1.486   0.859  0.4256 -0.4308  0.1908
   26GLOH   H01 8544   4.299   1.486   0.890  0.6465 -0.8132 -0.4527
   27GLOH   H03 8545   2.287   0.827   2.119  1.0413  0.1855  0.7890
   27GLOH    O1 8546   2.276   0.736   2.153  0.0085 -0.1094 -0.3029
   27GLOH    C1 8547   2.350   0.649   2.068 -0.2258  0.2092  0.1164
   27GLOH   H02 8548   2.457   0.671   2.077 -0.4606  1.1144  0.7933
   27GLOH   H08 8549   2.319   0.661   1.965  0.2812  1.2490  0.0735
   27GLOH    C2 8550   2.339   0.500   2.096 -0.2836 -0.8588 -1.0873
   27GLOH   H04 8551   2.387   0.495   2.194 -1.5406 -1.4738 -0.4890
   27GLOH    O2 8552   2.204   0.458   2.085 -0.4414 -0.0565  0.3129
   27GLOH   H05 8553   2.151   0.522   2.136  0.1991 -0.4078  1.4427
   27GLOH    C3 8554   2.421   0.424   1.989  0.8761 -0.3777 -1.1666
   27GLOH   H06 8555   2.375   0.435   1.891 -1.6763  0.7622  0.1029
   27GLOH   H07 8556   2.418   0.320   2.023 -0.0842 -0.2552 -0.8600
   27GLOH    O3 8557   2.560   0.462   1.982  0.5684 -0.2456 -0.7686
   27GLOH   H01 8558   2.577   0.526   1.910  3.7857  1.1579  1.1440
   28GLOH   H03 8559   4.656   0.608   1.208  1.2188 -0.3315  1.6710
   28GLOH    O1 8560   4.586   0.619   1.275 -0.4346  0.5839 -0.1322
   28GLOH    C1 8561   4.479   0.690   1.202  0.2803 -0.0008 -0.5802
   28GLOH   H02 8562   4.387   0.696   1.259  0.0669 -0.2295 -0.8972
   28GLOH   H08 8563   4.459   0.648   1.104 -2.7275 -0.3309  0.1121
   28GLOH    C2 8564   4.517   0.839   1.177  0.4981 -0.6917  0.3645
   28GLOH   H04 8565   4.611   0.843   1.119 -0.7609 -0.5096 -1.7379
   28GLOH    O2 8566   4.408   0.898   1.093 -0.4479 -0.5844  0.1486
   28GLOH   H05 8567   4.386   0.983   1.134  2.0053 -0.6397  1.7031
   28GLOH    C3 8568   4.533   0.902   1.315 -0.2127 -0.0890  0.1461
   28GLOH   H06 8569   4.437   0.899   1.367 -0.0652 -1.7991  0.3639
   28GLOH   H07 8570   4.552   1.008   1.296  0.8391 -0.9376 -4.0384
   28GLOH    O3 8571   4.639   0.846   1.390  0.0259  0.4070  0.2079
   28GLOH   H01 8572   4.634   0.751   1.371  0.2197  0.4552 -0.0862
   29GLOH   H03 8573   4.272   0.937   1.882 -2.6025  3.0493 -0.3815
   29GLOH    O1 8574   4.334   0.974   1.817 -0.2350  0.0638  0.0756
   29GLOH    C1 8575   4.230   1.041   1.730 -0.0821 -0.5286 -0.1707
   29GLOH   H02 8576   4.209   1.135   1.780 -2.4128 -1.8983  1.4895
   29GLOH   H08 8577   4.131   0.998   1.721 -1.3421  1.8245  1.8584
   29GLOH    C2 8578   4.292   1.080   1.600 -0.0417 -1.0149 -0.0145
   29GLOH   H04 8579   4.319   0.983   1.555  1.8388 -0.5436  0.0392
   29GLOH    O2 8580   4.196   1.140   1.515  0.2181 -0.0692  0.1571
   29GLOH   H05 8581   4.159   1.066   1.464 -0.2746 -0.2528  0.7755
   29GLOH    C3 8582   4.412   1.178   1.624  0.4323 -0.5505 -0.1096
   29GLOH   H06 8583   4.370   1.276   1.644  2.3543 -0.0179  1.5764
   29GLOH   H07 8584   4.459   1.176   1.526 -1.1437 -2.4164 -0.8494
   29GLOH    O3 8585   4.502   1.154   1.726 -0.2319  0.5850 -0.6151
   29GLOH   H01 8586   4.484   1.064   1.759  2.8013  0.5686  1.1850
   30GLOH   H03 8587   2.491   0.204   0.329  0.0146 -1.4075  0.0883
   30GLOH    O1 8588   2.522   0.165   0.413 -0.0724 -0.5365  0.5264
   30GLOH    C1 8589   2.413   0.103   0.473 -0.5473 -0.4009  0.3302
   30GLOH   H02 8590   2.369   0.032   0.403 -0.6285 -0.1664  0.1426
   30GLOH   H08 8591   2.336   0.180   0.482 -1.1357 -0.6701 -2.0174
   30GLOH    C2 8592   2.435   0.041   0.610 -0.1995 -0.1832  0.0997
   30GLOH   H04 8593   2.485   0.124   0.662  0.7265 -1.5831  1.5034
   30GLOH    O2 8594   2.309  -0.001   0.672  0.0861 -0.0865  0.5887
   30GLOH   H05 8595   2.271   0.081   0.707  1.0305 -0.3488  2.2433
   30GLOH    C3 8596   2.534  -0.075   0.590  1.1135 -1.1676 -0.2049
   30GLOH   H06 8597   2.491  -0.158   0.534 -0.3737  0.3613 -1.3551
   30GLOH   H07 8598   2.553  -0.118   0.689 -2.7018  0.1972  1.2335
   30GLOH    O3 8599   2.653  -0.029   0.518  0.0251 -0.4609  0.2544
   30GLOH   H01 8600   2.623   0.050   0.469 -1.0487 -1.5581 -0.9178
   31GLOH   H03 8601   4.142   2.012   1.829 -1.3906  2.5350  0.8046
   31GLOH    O1 8602   4.148   2.054   1.741  0.4508 -0.0448 -0.3713
   31GLOH    C1 8603   4.024   2.131   1.722 -0.1803 -0.0186  0.1640
   31GLOH   H02 8604   4.038   2.204   1.643  2.9409  0.0676  0.7278
   31GLOH   H08 8605   3.996   2.196   1.805  0.4121  0.4782 -0.0246
   31GLOH    C2 8606   3.907   2.032   1.694  0.3939 -0.3184 -0.0777
   31GLOH   H04 8607   3.903   1.942   1.758  0.5396 -0.6401 -0.5213
   31GLOH    O2 8608   3.783   2.102   1.686 -0.0301  0.2102 -0.8724
   31GLOH   H05 8609   3.789   2.144   1.598  3.1177  2.8586  0.4964
   31GLOH    C3 8610   3.933   1.967   1.553 -0.1823 -0.9746 -0.1819
   31GLOH   H06 8611   3.929   2.050   1.483  0.9148  0.3142  1.2530
   31GLOH   H07 8612   3.859   1.889   1.533  0.5037 -1.0038 -2.7827
   31GLOH    O3 8613   4.064   1.895   1.547  0.9747 -0.5166  0.1791
   31GLOH   H01 8614   4.120   1.948   1.607  0.9907 -0.8569  0.4648
   32GLOH   H03 8615   2.295   1.357   0.958  1.3705  0.4598 -0.8893
   32GLOH    O1 8616   2.242   1.439   0.962  0.6985  0.0094 -0.2915
   32GLOH    C1 8617   2.312   1.523   1.050  0.0395  0.9309  0.0967
   32GLOH   H02 8618   2.249   1.609   1.074 -1.5160 -0.5418  1.4667
   32GLOH   H08 8619   2.404   1.556   1.001  0.8800  0.5648  1.4108
   32GLOH    C2 8620   2.359   1.463   1.181 -0.3099 -0.7024  0.6311
   32GLOH   H04 8621   2.265   1.433   1.230 -1.3274 -0.9543 -1.3840
   32GLOH    O2 8622   2.448   1.352   1.162  0.9998  0.3866  0.3310
   32GLOH   H05 8623   2.417   1.279   1.218  0.2148 -0.1828 -0.8413
   32GLOH    C3 8624   2.426   1.565   1.274 -0.4607  0.1879  1.1267
   32GLOH   H06 8625   2.345   1.636   1.290  0.7272  1.6642  0.7359
   32GLOH   H07 8626   2.505   1.613   1.215 -1.1097  1.8626  1.5886
   32GLOH    O3 8627   2.487   1.508   1.394 -0.2951  0.1668  0.0151
   32GLOH   H01 8628   2.538   1.427   1.377  0.0026  0.1479  0.9738
   33GLOH   H03 8629   4.219   0.665   0.609  1.2483  0.1520 -2.3781
   33GLOH    O1 8630   4.292   0.664   0.673  0.0646 -0.0830 -0.9925
   33GLOH    C1 8631   4.265   0.571   0.783 -0.0708 -0.2179  0.2115
   33GLOH   H02 8632   4.349   0.505   0.803 -0.9053 -2.2440 -2.6797
   33GLOH   H08 8633   4.188   0.499   0.757 -1.3270  1.2046 -0.0831
   33GLOH    C2 8634   4.235   0.658   0.908  0.6672  0.1986 -0.2424
   33GLOH   H04 8635   4.320   0.725   0.931 -0.1924  0.7565  1.4192
   33GLOH    O2 8636   4.121   0.750   0.888 -0.2493  0.3612 -0.1100
   33GLOH   H05 8637   4.053   0.695   0.846  1.7265 -0.6244 -2.1452
   33GLOH    C3 8638   4.211   0.577   1.036  0.0510 -0.5047 -0.5517
   33GLOH   H06 8639   4.111   0.533   1.039 -0.7440  1.2708 -0.4282
   33GLOH   H07 8640   4.204   0.651   1.115 -1.7169 -0.4113 -0.7807
   33GLOH    O3 8641   4.305   0.474   1.076 -0.3554  0.6108  0.4969
   33GLOH   H01 8642   4.270   0.411   1.142 -2.3572  1.6023  0.4257
   34GLOH   H03 8643   3.687   1.676   1.473  0.9552 -0.3096 -1.0599
   34GLOH    O1 8644   3.675   1.763   1.431 -0.6182  0.0030 -0.0336
   34GLOH    C1 8645   3.661   1.732   1.296 -0.5471  0.7644  0.4567
   34GLOH   H02 8646   3.566   1.680   1.286  0.1490 -0.6181  0.7984
   34GLOH   H08 8647   3.730   1.659   1.252 -0.2544  2.0040 -1.2030
   34GLOH    C2 8648   3.674   1.853   1.195 -0.1294  0.4563  0.0668
   34GLOH   H04 8649   3.661   1.810   1.095 -0.8493 -1.0601  0.7980
   34GLOH    O2 8650   3.581   1.960   1.216 -0.0522  0.4237  0.0151
   34GLOH   H05 8651   3.592   1.998   1.305 -1.1994  1.0701 -0.1125
   34GLOH    C3 8652   3.822   1.895   1.210  0.1921 -0.1875 -0.4941
   34GLOH   H06 8653   3.882   1.806   1.194 -0.9018 -1.0561  0.1595
   34GLOH   H07 8654   3.851   1.924   1.311  0.2084 -1.3987 -0.1480
   34GLOH    O3 8655   3.865   2.002   1.125 -0.1278 -0.1287  0.1708
   34GLOH   H01 8656   3.808   2.080   1.140 -0.0380 -0.2630  1.2298
   35GLOH   H03 8657   3.896   1.713   1.938 -0.8725 -0.1784 -1.5700
   35GLOH    O1 8658   3.844   1.789   1.968  0.2332 -0.0292 -0.0099
   35GLOH    C1 8659   3.705   1.770   1.967 -0.1262  0.1110  0.0994
   35GLOH   H02 8660   3.683   1.673   2.013  0.8639  0.0255  0.4021
   35GLOH   H08 8661   3.677   1.774   1.862 -0.5952 -0.5520  0.1978
   35GLOH    C2 8662   3.628   1.879   2.049 -0.0182 -0.3476  0.0105
   35GLOH   H04 8663   3.519   1.865   2.048 -0.8906  5.0328 -2.6044
   35GLOH    O2 8664   3.683   1.876   2.184 -0.2720 -0.0689 -0.0849
   35GLOH   H05 8665   3.604   1.881   2.241 -0.9290  0.9315 -1.0768
   35GLOH    C3 8666   3.661   2.020   1.990  0.6117 -0.8141 -0.2447
   35GLOH   H06 8667   3.769   2.030   1.995  0.5175 -0.0675  0.1812
   35GLOH   H07 8668   3.612   2.092   2.054  0.0313 -2.2380  0.9522
   35GLOH    O3 8669   3.614   2.033   1.854  0.4401  0.0542  0.1520
   35GLOH   H01 8670   3.688   2.062   1.798  0.3603  0.2573  0.1540
   36GLOH   H03 8671   3.848   1.597   2.683 -1.1440 -0.0088  1.1208
   36GLOH    O1 8672   3.758   1.636   2.688 -1.0872  0.2336  0.3260
   36GLOH    C1 8673   3.766   1.771   2.667 -0.6307 -0.6498 -0.0009
   36GLOH   H02 8674   3.667   1.814   2.660  0.8700  3.0033 -0.0015
   36GLOH   H08 8675   3.815   1.795   2.573 -0.5580 -0.5454  0.0637
   36GLOH    C2 8676   3.844   1.850   2.775  1.0733 -0.8403  0.2534
   36GLOH   H04 8677   3.947   1.813   2.770  1.2183 -0.5069  0.7027
   36GLOH    O2 8678   3.829   1.994   2.749  0.3166 -0.0248 -0.3546
   36GLOH   H05 8679   3.887   2.024   2.677  0.7963 -0.2655 -0.0755
   36GLOH    C3 8680   3.790   1.816   2.913  0.3200  0.3755 -0.5716
   36GLOH   H06 8681   3.684   1.829   2.934  0.2322  1.5466 -1.6879
   36GLOH   H07 8682   3.847   1.881   2.979 -0.9961 -1.4463  2.4866
   36GLOH    O3 8683   3.821   1.672   2.941  0.1593 -1.5133 -0.3056
   36GLOH   H01 8684   3.776   1.657   3.027 -0.9383 -0.4317 -0.6814
   37GLOH   H03 8685   3.869   1.087   0.085  3.8788  1.1141  3.0065
   37GLOH    O1 8686   3.837   1.008   0.134  0.4863  0.7526  0.3983
   37GLOH    C1 8687   3.864   1.034   0.264 -0.0987 -0.8856 -0.3525
   37GLOH   H02 8688   3.794   0.979   0.327 -1.7804  2.3364  0.6698
   37GLOH   H08 8689   3.850   1.135   0.300  0.9577 -1.0112  0.4373
   37GLOH    C2 8690   4.008   0.984   0.300 -0.2468 -0.5568 -0.2292
   37GLOH   H04 8691   4.064   1.075   0.270  1.2139 -1.8337 -1.4562
   37GLOH    O2 8692   4.033   0.960   0.448  0.1526 -0.6390  0.0976
   37GLOH   H05 8693   4.084   1.038   0.475  0.7630 -0.1735 -2.2582
   37GLOH    C3 8694   4.068   0.875   0.214  1.3131 -0.2790 -0.2752
   37GLOH   H06 8695   3.989   0.801   0.205  1.9040 -1.1337  1.3253
   37GLOH   H07 8696   4.157   0.832   0.261  2.9834  2.8229 -0.4284
   37GLOH    O3 8697   4.100   0.935   0.088 -0.5231 -0.4258 -0.3871
   37GLOH   H01 8698   4.171   0.998   0.112 -0.5635 -0.7528  0.6000
   38GLOH   H03 8699   3.731   0.952   2.095  1.0951  2.1634 -0.5791
   38GLOH    O1 8700   3.746   0.943   2.191  0.2606  0.4585 -0.5930
   38GLOH    C1 8701   3.717   0.815   2.249 -0.1648  0.1087 -0.4636
   38GLOH   H02 8702   3.774   0.734   2.205  0.2175 -0.2825  0.7361
   38GLOH   H08 8703   3.612   0.790   2.233 -0.3681  1.3521 -1.1508
   38GLOH    C2 8704   3.734   0.816   2.402  0.4348 -0.8965  0.6383
   38GLOH   H04 8705   3.825   0.874   2.425 -0.7400  0.8781  0.9190
   38GLOH    O2 8706   3.635   0.882   2.480 -0.0902 -0.6076 -0.1219
   38GLOH   H05 8707   3.579   0.917   2.408 -0.1305 -0.5882 -0.0814
   38GLOH    C3 8708   3.749   0.672   2.456  0.7944  0.7207  0.1093
   38GLOH   H06 8709   3.668   0.617   2.410  1.6368  1.0983 -1.8750
   38GLOH   H07 8710   3.731   0.663   2.563  1.7196 -1.1300  0.1225
   38GLOH    O3 8711   3.882   0.621   2.428  0.8080  0.8333  0.5294
   38GLOH   H01 8712   3.904   0.552   2.493 -0.3033 -0.0906 -0.0565
   39GLOH   H03 8713   4.412   0.642   1.883 -1.0555  2.1750  0.8717
   39GLOH    O1 8714   4.406   0.602   1.972 -0.1940 -0.8586 -0.3765
   39GLOH    C1 8715   4.445   0.468   1.954 -0.1012  0.2898  0.1523
   39GLOH   H02 8716   4.550   0.449   1.929 -0.4187 -1.7325  0.2868
   39GLOH   H08 8717   4.377   0.432   1.878 -1.7078  0.6916  1.3810
   39GLOH    C2 8718   4.404   0.389   2.079 -0.4373  0.2290  0.4679
   39GLOH   H04 8719   4.298   0.413   2.091 -0.7206  0.4405 -2.1205
   39GLOH    O2 8720   4.432   0.252   2.070  0.3876  0.6565  0.2866
   39GLOH   H05 8721   4.408   0.215   2.157 -0.6860  1.1896  0.2292
   39GLOH    C3 8722   4.482   0.448   2.194 -0.1644 -1.5006 -0.6484
   39GLOH   H06 8723   4.582   0.431   2.156  1.0816  0.3268  1.6719
   39GLOH   H07 8724   4.482   0.383   2.281 -0.1667  0.5613  0.9426
   39GLOH    O3 8725   4.459   0.588   2.227  0.1254  1.2185  0.5240
   39GLOH   H01 8726   4.447   0.622   2.137 -1.5243  0.8447  0.5906
   40GLOH   H03 8727   3.962   9.934   1.872 -1.1168  0.0194 -2.0214
   40GLOH    O1 8728   3.896  10.005   1.878 -0.7774  0.1893  0.2626
   40GLOH    C1 8729   3.776   9.933   1.861 -0.2246 -0.6364  0.9762
   40GLOH   H02 8730   3.741   9.886   1.953  1.5177 -2.5048  0.7221
   40GLOH   H08 8731   3.784   9.848   1.794 -1.5391  0.2584 -0.3594
   40GLOH    C2 8732   3.669  10.027   1.809  0.5069  1.0413 -0.2973
   40GLOH   H04 8733   3.663  10.029   1.699  1.7596 -0.8833 -0.4296
   40GLOH    O2 8734   3.548   9.968   1.851  0.1621 -0.2434 -0.3290
   40GLOH   H05 8735   3.523  10.009   1.935  0.0441 -2.5509  0.8236
   40GLOH    C3 8736   3.688  10.175   1.848  0.3317 -0.1062 -0.4010
   40GLOH   H06 8737   3.674  10.176   1.956  3.1054 -0.2026 -0.0080
   40GLOH   H07 8738   3.606  10.225   1.796  2.3546  1.0544 -2.5837
   40GLOH    O3 8739   3.818  10.233   1.820 -0.2754  0.0139  0.2649
   40GLOH   H01 8740   3.878  10.160   1.845  0.1008 -0.4484 -1.8792
   41GLOH   H03 8741   2.508   1.469   1.624  1.0336  0.5232  0.8734
   41GLOH    O1 8742   2.534   1.391   1.676  0.7683  0.1162  0.4011
   41GLOH    C1 8743   2.450   1.384   1.797  0.1392  0.3525  0.5094
   41GLOH   H02 8744   2.385   1.296   1.793 -0.8906  1.1706 -1.4089
   41GLOH   H08 8745   2.389   1.474   1.807 -0.5892 -0.0724 -0.0714
   41GLOH    C2 8746   2.537   1.372   1.931 -0.0695  0.0409  0.0063
   41GLOH   H04 8747   2.625   1.439   1.926  1.1363 -1.6056 -1.2554
   41GLOH    O2 8748   2.455   1.416   2.042 -0.3186 -0.2251 -0.1782
   41GLOH   H05 8749   2.509   1.453   2.113  1.0483 -2.2709 -0.1349
   41GLOH    C3 8750   2.594   1.232   1.952  0.6612 -0.0450 -0.0366
   41GLOH   H06 8751   2.666   1.238   2.033  1.5945 -0.4452 -0.8220
   41GLOH   H07 8752   2.654   1.202   1.866 -0.4599  3.4560 -2.1104
   41GLOH    O3 8753   2.499   1.126   1.974 -0.0103  0.5200  0.0806
   41GLOH   H01 8754   2.482   1.129   2.070  0.5446 -1.5516  0.2586
   42GLOH   H03 8755   3.207   1.747   0.245  1.4841  3.0558 -0.3117
   42GLOH    O1 8756   3.126   1.768   0.296  0.9308 -0.1548  0.2558
   42GLOH    C1 8757   2.999   1.762   0.228  0.0592 -0.9410  0.1121
   42GLOH   H02 8758   2.962   1.660   0.234  0.4199 -1.1115 -0.5341
   42GLOH   H08 8759   3.018   1.791   0.125  1.3825 -1.2365  0.2557
   42GLOH    C2 8760   2.897   1.859   0.292  0.4359  0.3987 -0.9112
   42GLOH   H04 8761   2.856   1.825   0.388 -0.0207  2.3381 -0.3894
   42GLOH    O2 8762   2.956   1.991   0.319  0.4123  0.5734  0.4362
   42GLOH   H05 8763   3.046   1.995   0.284 -0.3224  1.1329 -1.4305
   42GLOH    C3 8764   2.782   1.870   0.201 -0.5532 -0.3159  0.0968
   42GLOH   H06 8765   2.833   1.921   0.119  1.3676  0.0616  1.4988
   42GLOH   H07 8766   2.710   1.946   0.233  1.4995  1.1816  1.3104
   42GLOH    O3 8767   2.736   1.746   0.156  0.0422 -0.2551 -0.2323
   42GLOH   H01 8768   2.669   1.742   0.086 -0.9942  4.0550  0.3691
   43GLOH   H03 8769   2.158   0.673   0.920  1.0320  1.0834  0.8240
   43GLOH    O1 8770   2.205   0.591   0.897 -1.1912 -0.1190  0.4089
   43GLOH    C1 8771   2.157   0.547   0.777 -0.3152 -0.6485  0.2732
   43GLOH   H02 8772   2.090   0.614   0.722 -0.0070  0.5535  1.3364
   43GLOH   H08 8773   2.091   0.464   0.800 -1.4097 -0.0114 -0.4904
   43GLOH    C2 8774   2.267   0.486   0.682 -0.4451 -0.6260 -0.4633
   43GLOH   H04 8775   2.223   0.421   0.605  0.5382 -0.1424 -1.4533
   43GLOH    O2 8776   2.340   0.589   0.616 -0.2762 -0.4510 -0.4252
   43GLOH   H05 8777   2.329   0.587   0.520 -2.3934  1.5065 -0.2613
   43GLOH    C3 8778   2.362   0.379   0.756  0.1127  0.2100 -0.1089
   43GLOH   H06 8779   2.308   0.285   0.766  0.1095  0.1230 -0.9449
   43GLOH   H07 8780   2.389   0.405   0.859  2.1702 -0.7723 -0.3731
   43GLOH    O3 8781   2.487   0.341   0.681 -0.0512 -0.7157  0.6182
   43GLOH   H01 8782   2.535   0.423   0.661  0.3091 -1.1699 -0.4108
   44GLOH   H03 8783   3.443   1.151   0.088 -2.4650  0.9728 -0.1163
   44GLOH    O1 8784   3.484   1.223   0.140 -0.7161 -0.2118  0.1978
   44GLOH    C1 8785   3.612   1.263   0.078 -0.5928  0.4984 -0.3835
   44GLOH   H02 8786   3.627   1.214  -0.019  0.9684  1.9301 -0.8945
   44GLOH   H08 8787   3.686   1.223   0.147 -2.1688  0.9490  1.6016
   44GLOH    C2 8788   3.642   1.412   0.057 -0.4038  0.3984 -0.6048
   44GLOH   H04 8789   3.660   1.452   0.158 -2.4808  0.5712 -0.2745
   44GLOH    O2 8790   3.764   1.419  -0.011  0.2022 -1.0680 -0.4887
   44GLOH   H05 8791   3.788   1.512   0.005 -2.4872 -0.4459  0.3152
   44GLOH    C3 8792   3.525   1.487  -0.010  0.7017 -0.2869  0.4738
   44GLOH   H06 8793   3.431   1.470   0.043 -0.6470  0.3272 -1.6836
   44GLOH   H07 8794   3.520   1.447  -0.111  0.9580  0.4462  0.1686
   44GLOH    O3 8795   3.537   1.628  -0.018 -0.2027  0.4860  0.0847
   44GLOH   H01 8796   3.619   1.651  -0.066 -1.1811 -0.1619 -1.9000
   45GLOH   H03 8797   4.022   0.533   0.107 -1.2783  0.5401 -1.5048
   45GLOH    O1 8798   4.110   0.507   0.076 -0.6325  1.0180 -0.1489
   45GLOH    C1 8799   4.186   0.456   0.189  0.0002 -0.1970  0.0119
   45GLOH   H02 8800   4.127   0.378   0.237 -1.1245 -0.0003 -1.0332
   45GLOH   H08 8801   4.201   0.536   0.261  0.4860 -0.0245 -0.2839
   45GLOH    C2 8802   4.326   0.408   0.149  0.0919 -0.2609  0.5014
   45GLOH   H04 8803   4.372   0.482   0.083 -1.5611 -0.6800 -1.1742
   45GLOH    O2 8804   4.403   0.392   0.270  0.0291 -0.6995  0.1807
   45GLOH   H05 8805   4.428   0.483   0.292  1.9786 -1.0741 -0.3451
   45GLOH    C3 8806   4.303   0.278   0.075  0.3720  0.2501  0.0849
   45GLOH   H06 8807   4.229   0.217   0.129  0.5396 -0.0831 -0.0597
   45GLOH   H07 8808   4.398   0.225   0.068  0.2727 -0.4266  3.1282
   45GLOH    O3 8809   4.248   0.294  -0.056 -0.1098  0.1857 -0.2319
   45GLOH   H01 8810   4.161   0.252  -0.043  1.0584 -1.4033  3.0171
   46GLOH   H03 8811   4.294   9.053   1.600 -1.1322 -0.7779 -0.1720
   46GLOH    O1 8812   4.256   9.118   1.662 -0.0716  0.0523 -0.3868
   46GLOH    C1 8813   4.305   9.257   1.635  0.0624 -0.0487 -0.1987
   46GLOH   H02 8814   4.329   9.301   1.732 -3.2355  1.2749  0.0603
   46GLOH   H08 8815   4.232   9.321   1.586  0.1592 -1.7680 -2.6806
   46GLOH    C2 8816   4.433   9.257   1.550  1.0421 -0.0910 -0.4531
   46GLOH   H04 8817   4.503   9.190   1.603  0.0715  0.2128  1.2513
   46GLOH    O2 8818   4.407   9.213   1.417 -0.4164  0.5391  0.3220
   46GLOH   H05 8819   4.360   9.285   1.373  1.4449  1.6393  0.0768
   46GLOH    C3 8820   4.497   9.399   1.538 -0.1546 -0.8413  0.6184
   46GLOH   H06 8821   4.437   9.466   1.476 -0.3393 -1.1482  0.4636
   46GLOH   H07 8822   4.589   9.388   1.480 -0.2716 -0.2092  0.3131
   46GLOH    O3 8823   4.526   9.458   1.665  0.0340  0.8009  0.4163
   46GLOH   H01 8824   4.572   9.541   1.643  1.5291 -0.3619 -0.9298
   47GLOH   H03 8825   2.328   0.757   1.498 -0.5810  0.1952  0.9552
   47GLOH    O1 8826   2.361   0.849   1.498  0.1552 -0.0598  0.0509
   47GLOH    C1 8827   2.325   0.924   1.381  0.1545 -0.4790  0.2866
   47GLOH   H02 8828   2.217   0.928   1.361  0.1594 -1.3871  0.0418
   47GLOH   H08 8829   2.350   0.873   1.288 -0.5920  0.7695 -0.6171
   47GLOH    C2 8830   2.383   1.071   1.376 -0.5985 -0.2631 -0.1071
   47GLOH   H04 8831   2.490   1.054   1.392 -0.3267  2.0291  0.6440
   47GLOH    O2 8832   2.361   1.129   1.244 -0.5618 -0.8206 -0.1166
   47GLOH   H05 8833   2.397   1.073   1.174 -1.0417 -1.3439  0.0570
   47GLOH    C3 8834   2.334   1.159   1.497 -0.6719 -0.2324  0.1134
   47GLOH   H06 8835   2.228   1.173   1.477 -0.4501 -0.3949 -1.2169
   47GLOH   H07 8836   2.382   1.256   1.492 -1.0791 -0.0646 -0.6346
   47GLOH    O3 8837   2.363   1.093   1.619 -0.1752  0.0237  0.1260
   47GLOH   H01 8838   2.346   0.998   1.604 -2.1670  0.4049 -0.2135
   48GLOH   H03 8839   3.630   8.970   0.747  2.0078  3.1602 -1.3441
   48GLOH    O1 8840   3.616   9.011   0.834 -0.0375 -0.3407  0.0878
   48GLOH    C1 8841   3.748   9.060   0.874 -0.1883 -0.4820  0.4080
   48GLOH   H02 8842   3.737   9.168   0.861 -1.6631 -0.8764 -2.0335
   48GLOH   H08 8843   3.825   9.012   0.815  0.0506 -1.6480  1.6495
   48GLOH    C2 8844   3.799   9.050   1.019  0.5812 -0.3994 -0.3077
   48GLOH   H04 8845   3.796   8.944   1.046 -2.7860 -0.2480  0.0709
   48GLOH    O2 8846   3.930   9.106   1.020 -0.5424  0.8419  0.2862
   48GLOH   H05 8847   3.931   9.203   1.012 -0.4492  0.8729  0.6561
   48GLOH    C3 8848   3.714   9.125   1.119  0.0989  0.4088 -0.6449
   48GLOH   H06 8849   3.741   9.103   1.222 -1.3253  0.4823 -0.2536
   48GLOH   H07 8850   3.611   9.094   1.106 -0.0905 -0.0841  1.7637
   48GLOH    O3 8851   3.731   9.269   1.118 -0.1726 -0.5199 -0.1618
   48GLOH   H01 8852   3.686   9.306   1.196 -0.4632 -0.4965 -0.3381
   49GLOH   H03 8853   4.224   0.801   2.064  1.7690  1.0071 -0.3279
   49GLOH    O1 8854   4.196   0.865   1.996 -0.2111  0.4096 -0.1148
   49GLOH    C1 8855   4.076   0.933   2.049 -0.1351 -0.0626  0.0501
   49GLOH   H02 8856   3.992   0.868   2.022  0.3343 -0.3779 -0.6512
   49GLOH   H08 8857   4.061   1.025   1.992  1.6006 -0.3575 -0.9217
   49GLOH    C2 8858   4.083   0.977   2.196  0.3083 -0.8817 -0.1061
   49GLOH   H04 8859   4.175   1.037   2.201  0.7822 -1.4788 -1.4689
   49GLOH    O2 8860   3.975   1.065   2.235 -0.2505 -0.1864 -0.0373
   49GLOH   H05 8861   3.890   1.021   2.222 -1.5411  1.3656  2.5929
   49GLOH    C3 8862   4.106   0.858   2.286 -0.3828 -0.2834 -0.9439
   49GLOH   H06 8863   4.015   0.801   2.303 -0.3766  0.6107  2.6109
   49GLOH   H07 8864   4.123   0.899   2.386 -1.8365  1.3008 -1.3256
   49GLOH    O3 8865   4.221   0.774   2.257  0.4094 -0.0774  0.4077
   49GLOH   H01 8866   4.304   0.815   2.286 -1.1398  2.7867  0.9672
   50GLOH   H03 8867   4.416   0.051   0.399 -0.8288  2.1464 -0.3818
   50GLOH    O1 8868   4.323   0.041   0.372 -0.5505 -0.0094 -0.6810
   50GLOH    C1 8869   4.235   0.070   0.482 -0.2582  0.2642  0.4456
   50GLOH   H02 8870   4.267   0.016   0.571  3.5008  1.5838 -0.0571
   50GLOH   H08 8871   4.137   0.035   0.448 -0.3601 -3.8035  4.3842
   50GLOH    C2 8872   4.232   0.224   0.514  0.3806 -0.4152 -0.7365
   50GLOH   H04 8873   4.191   0.267   0.422  0.0574 -0.1154 -0.4506
   50GLOH    O2 8874   4.133   0.246   0.622  0.1949  0.3674  0.2515
   50GLOH   H05 8875   4.049   0.210   0.590  0.3063 -0.3341  0.7300
   50GLOH    C3 8876   4.376   0.286   0.550 -0.0447 -0.2161 -0.6062
   50GLOH   H06 8877   4.421   0.255   0.645  0.7323  2.3848 -0.0679
   50GLOH   H07 8878   4.363   0.395   0.549 -4.7651 -0.7120 -0.8172
   50GLOH    O3 8879   4.463   0.257   0.447 -0.6136 -0.3416 -0.7054
   50GLOH   H01 8880   4.436   0.311   0.371 -2.4576 -0.3378 -0.0880
   51GLOH   H03 8881   3.758   9.559   0.692 -2.8161 -0.7200  0.3097
   51GLOH    O1 8882   3.792   9.485   0.745 -0.5393 -0.0212 -0.1462
   51GLOH    C1 8883   3.865   9.378   0.673 -0.0871 -0.5085 -0.1120
   51GLOH   H02 8884   3.895   9.303   0.746 -0.3691  0.2282  0.7746
   51GLOH   H08 8885   3.961   9.416   0.639  0.3682 -1.1232  0.4980
   51GLOH    C2 8886   3.787   9.316   0.554 -0.0810 -0.4187  0.3732
   51GLOH   H04 8887   3.810   9.392   0.478 -0.8602  1.0880  1.6113
   51GLOH    O2 8888   3.838   9.192   0.509 -0.4460  0.1995 -0.0802
   51GLOH   H05 8889   3.788   9.120   0.550  1.2610 -1.4789 -0.8520
   51GLOH    C3 8890   3.638   9.311   0.569  0.2916  0.0960 -0.5994
   51GLOH   H06 8891   3.600   9.402   0.616  3.3011 -0.6404  3.4773
   51GLOH   H07 8892   3.631   9.236   0.648  1.1755  2.1940  1.5349
   51GLOH    O3 8893   3.563   9.278   0.448 -0.1249  0.5315  0.3884
   51GLOH   H01 8894   3.587   9.190   0.415 -3.9859 -0.0891 -1.0262
   52GLOH   H03 8895   2.885   0.894   1.359 -0.5881 -0.1963  0.2475
   52GLOH    O1 8896   2.905   0.867   1.267  0.2097  0.3637  0.2463
   52GLOH    C1 8897   2.834   0.743   1.248  0.1244 -0.4642 -0.4595
   52GLOH   H02 8898   2.825   0.715   1.144  1.4819 -1.0078 -0.4340
   52GLOH   H08 8899   2.737   0.746   1.298  1.1174  0.2073  1.4848
   52GLOH    C2 8900   2.915   0.625   1.312  0.5484 -0.4559 -0.6449
   52GLOH   H04 8901   2.958   0.655   1.409  1.1884  1.5072 -1.5253
   52GLOH    O2 8902   2.821   0.518   1.320 -0.4152 -0.2078 -0.4048
   52GLOH   H05 8903   2.864   0.435   1.347 -2.7801 -0.9930  1.1231
   52GLOH    C3 8904   3.031   0.596   1.215  0.1856 -0.2277  0.3124
   52GLOH   H06 8905   3.081   0.692   1.200 -0.7732  0.3782  0.9107
   52GLOH   H07 8906   2.982   0.552   1.129 -1.8797 -0.1852  1.4336
   52GLOH    O3 8907   3.116   0.493   1.269 -0.0402  0.1117  0.1479
   52GLOH   H01 8908   3.169   0.525   1.344 -1.2629 -0.5929  1.3384
   53GLOH   H03 8909   3.731   0.190   2.367 -1.8562  2.0094  0.0874
   53GLOH    O1 8910   3.746   0.211   2.273 -0.4794  0.1981 -0.1193
   53GLOH    C1 8911   3.879   0.181   2.218  0.2834 -0.0312  0.4696
   53GLOH   H02 8912   3.864   0.184   2.111  3.4541  1.3328  0.0143
   53GLOH   H08 8913   3.909   0.081   2.248  0.9950  0.6604  2.1689
   53GLOH    C2 8914   3.993   0.282   2.252 -0.3165 -0.2865 -0.4809
   53GLOH   H04 8915   3.978   0.316   2.355 -1.4728  4.6318 -2.1306
   53GLOH    O2 8916   4.115   0.211   2.229 -0.1935 -0.2998 -0.4812
   53GLOH   H05 8917   4.187   0.242   2.286  0.0355  2.6790 -2.2522
   53GLOH    C3 8918   4.012   0.409   2.171  1.1853 -0.3835 -0.4908
   53GLOH   H06 8919   3.995   0.377   2.068  0.9048  2.5821 -1.4064
   53GLOH   H07 8920   4.111   0.449   2.193  0.6392  0.1115  1.1386
   53GLOH    O3 8921   3.911   0.508   2.197 -0.4817 -0.4444  0.1921
   53GLOH   H01 8922   3.919   0.550   2.285  0.5687  1.6301 -0.8470
   54GLOH   H03 8923   3.641   0.388   0.403  3.8072 -1.7019 -1.2516
   54GLOH    O1 8924   3.615   0.295   0.390  0.3755 -1.0201  0.1669
   54GLOH    C1 8925   3.711   0.232   0.484  0.5108  0.4289 -0.8088
   54GLOH   H02 8926   3.685   0.127   0.500  3.2668 -0.3789 -1.4213
   54GLOH   H08 8927   3.707   0.282   0.580  2.8553  1.0887 -1.0390
   54GLOH    C2 8928   3.853   0.225   0.418 -0.6307 -0.3659 -0.1330
   54GLOH   H04 8929   3.892   0.328   0.423  4.3415 -2.0985 -0.5017
   54GLOH    O2 8930   3.931   0.142   0.502  0.0343  0.3471  0.4416
   54GLOH   H05 8931   3.923   0.049   0.475 -0.0461  0.2850  0.6718
   54GLOH    C3 8932   3.852   0.190   0.272 -0.2164 -0.3551 -0.4725
   54GLOH   H06 8933   3.829   0.084   0.273  1.4801 -0.7304  0.4073
   54GLOH   H07 8934   3.954   0.189   0.234 -0.3284  0.5805 -0.8338
   54GLOH    O3 8935   3.772   0.276   0.181  0.3620  0.0457  0.4985
   54GLOH   H01 8936   3.680   0.262   0.209  0.2915 -0.3830  0.0588
   55GLOH   H03 8937   4.289   1.250   1.446 -0.7062  1.2617  0.8390
   55GLOH    O1 8938   4.323   1.335   1.412 -0.2013  0.7778  0.1160
   55GLOH    C1 8939   4.227   1.437   1.440  0.1387 -0.2038  0.2209
   55GLOH   H02 8940   4.216   1.453   1.547  1.2200 -1.5894  0.5567
   55GLOH   H08 8941   4.126   1.419   1.402  0.8468  0.1379 -1.9042
   55GLOH    C2 8942   4.292   1.568   1.382  0.2454 -0.0126 -0.0469
   55GLOH   H04 8943   4.223   1.651   1.399  2.4201  1.5896  1.2220
   55GLOH    O2 8944   4.414   1.605   1.462  0.6453  0.7156 -0.3470
   55GLOH   H05 8945   4.478   1.534   1.442 -0.5569  0.2790 -2.9434
   55GLOH    C3 8946   4.324   1.541   1.233  0.5434 -0.3976 -0.0356
   55GLOH   H06 8947   4.405   1.468   1.223  0.2783 -1.0893  2.4903
   55GLOH   H07 8948   4.374   1.629   1.193  1.6266 -0.8974  0.2193
   55GLOH    O3 8949   4.210   1.501   1.152  0.4479 -0.1297 -0.0062
   55GLOH   H01 8950   4.218   1.404   1.162  1.2768  0.1869  3.0832
   56GLOH   H03 8951   3.581   1.437   1.253  2.2079 -0.8887  2.6701
   56GLOH    O1 8952   3.511   1.422   1.320  0.4266 -0.4649  0.9533
   56GLOH    C1 8953   3.479   1.280   1.322 -0.1213 -0.1805  0.2258
   56GLOH   H02 8954   3.575   1.232   1.341  0.6425  1.8208  1.5787
   56GLOH   H08 8955   3.444   1.238   1.227 -1.5998  0.8602  0.2890
   56GLOH    C2 8956   3.373   1.252   1.423 -0.4736 -0.1138  0.2272
   56GLOH   H04 8957   3.406   1.310   1.511  3.5610  0.3665 -1.4947
   56GLOH    O2 8958   3.240   1.279   1.384  1.3269  0.4849 -0.1710
   56GLOH   H05 8959   3.244   1.353   1.321 -1.9401  0.3300 -0.6306
   56GLOH    C3 8960   3.386   1.112   1.483  0.1586 -0.5543 -0.3760
   56GLOH   H06 8961   3.371   1.047   1.398 -3.0863  0.6149 -0.7726
   56GLOH   H07 8962   3.302   1.093   1.551  1.7453  2.2877  2.5325
   56GLOH    O3 8963   3.520   1.095   1.547 -1.2825 -0.2247 -0.5935
   56GLOH   H01 8964   3.535   1.003   1.576 -0.1136 -0.2294 -1.1905
   57GLOH   H03 8965   3.078   9.771   1.076 -0.2913 -2.0059 -0.0440
   57GLOH    O1 8966   3.158   9.789   1.128 -0.2356 -0.1245 -0.7430
   57GLOH    C1 8967   3.256   9.846   1.054  0.5770 -0.6134  0.3839
   57GLOH   H02 8968   3.325   9.772   1.012 -1.0841 -2.9438  1.7134
   57GLOH   H08 8969   3.322   9.905   1.118 -0.4594  1.0164 -0.0156
   57GLOH    C2 8970   3.212   9.927   0.935 -0.3685  0.7347 -0.7296
   57GLOH   H04 8971   3.308   9.958   0.891  0.4609 -0.2730  0.3324
   57GLOH    O2 8972   3.136   9.853   0.842 -0.3160  0.2432  0.1352
   57GLOH   H05 8973   3.043   9.847   0.872 -0.8518 -0.9220 -1.6601
   57GLOH    C3 8974   3.131  10.051   0.972  0.1571 -0.2196 -0.0338
   57GLOH   H06 8975   3.042  10.005   1.015 -1.4978  1.4394 -1.6165
   57GLOH   H07 8976   3.094  10.099   0.882  0.5378 -0.2093 -0.1861
   57GLOH    O3 8977   3.183  10.155   1.056 -0.6885  0.6048 -0.3229
   57GLOH   H01 8978   3.111  10.211   1.091 -0.0288  0.1592  1.7752
   58GLOH   H03 8979   4.056   0.430   1.752  2.3208  0.5492 -1.3144
   58GLOH    O1 8980   4.011   0.513   1.775  0.3388 -0.9064  0.2263
   58GLOH    C1 8981   4.072   0.617   1.695  0.3177  0.4673  0.2009
   58GLOH   H02 8982   4.166   0.649   1.741 -1.2411  1.7718  2.6464
   58GLOH   H08 8983   4.018   0.711   1.708  0.5245  0.3046  2.5034
   58GLOH    C2 8984   4.091   0.585   1.549 -0.0352  0.2119  0.5929
   58GLOH   H04 8985   4.153   0.496   1.534 -0.7431 -0.1834  0.0108
   58GLOH    O2 8986   3.967   0.559   1.477 -0.2171 -0.2646 -0.0150
   58GLOH   H05 8987   3.912   0.506   1.538 -0.7551 -0.3167 -0.5447
   58GLOH    C3 8988   4.154   0.705   1.480  1.5465 -0.1210 -0.7542
   58GLOH   H06 8989   4.090   0.786   1.515  0.0301 -0.9208 -1.5969
   58GLOH   H07 8990   4.141   0.693   1.372 -0.1582  0.9205 -0.6910
   58GLOH    O3 8991   4.285   0.733   1.526  0.2940  0.0009  0.3492
   58GLOH   H01 8992   4.339   0.662   1.487 -0.6428 -0.1166 -0.7746
   59GLOH   H03 8993   4.286   1.153   0.499  0.2977  1.4098  1.3322
   59GLOH    O1 8994   4.189   1.164   0.499  0.1075  0.0008 -0.2363
   59GLOH    C1 8995   4.136   1.257   0.592 -0.0987 -0.3324  0.5413
   59GLOH   H02 8996   4.035   1.281   0.559  0.8126  0.5873 -1.6380
   59GLOH   H08 8997   4.191   1.351   0.599 -1.0803  0.5218 -2.6162
   59GLOH    C2 8998   4.143   1.198   0.737 -0.1324  0.1049 -0.5034
   59GLOH   H04 8999   4.248   1.203   0.770 -0.1295 -0.0114 -0.4953
   59GLOH    O2 9000   4.059   1.287   0.812 -0.3106 -0.3831  0.2778
   59GLOH   H05 9001   4.096   1.377   0.813  1.8849 -1.2468  1.1545
   59GLOH    C3 9002   4.104   1.047   0.755  0.4216 -0.1159  0.4145
   59GLOH   H06 9003   4.149   0.990   0.673  2.8621  3.5846 -0.9458
   59GLOH   H07 9004   3.997   1.024   0.753  0.3027  0.3682  1.1666
   59GLOH    O3 9005   4.150   0.994   0.883 -0.3926 -0.1872 -1.1978
   59GLOH   H01 9006   4.145   0.897   0.881 -1.2776 -0.1202 -2.5759
   60GLOH   H03 9007   3.431   0.109   0.647 -2.4159  4.3217  1.2405
   60GLOH    O1 9008   3.372   0.096   0.570 -0.0057 -0.1717 -0.0027
   60GLOH    C1 9009   3.291   0.216   0.553  0.4227 -0.2554 -0.3338
   60GLOH   H02 9010   3.284   0.230   0.445 -2.6032  0.1156 -0.1392
   60GLOH   H08 9011   3.344   0.308   0.577  0.6100 -0.6603  0.8458
   60GLOH    C2 9012   3.151   0.195   0.603  0.4110 -0.6284 -0.5822
   60GLOH   H04 9013   3.150   0.158   0.707  1.0751 -1.9853 -1.0530
   60GLOH    O2 9014   3.081   0.324   0.609  0.3098  0.1481  0.0905
   60GLOH   H05 9015   3.066   0.349   0.517  1.3039  0.8656  0.1144
   60GLOH    C3 9016   3.071   0.089   0.525  0.2581 -0.2441 -0.4102
   60GLOH   H06 9017   2.988   0.050   0.585 -1.0943  1.1136 -1.3635
   60GLOH   H07 9018   3.138   0.004   0.514 -1.0900 -1.4069  0.1525
   60GLOH    O3 9019   3.022   0.130   0.392 -0.4244  0.2821  0.3640
   60GLOH   H01 9020   3.003   0.048   0.342  0.7189 -2.0658  3.6571
   61GLOH   H03 9021   3.742   9.739   0.174  1.6664  1.0271 -3.0956
   61GLOH    O1 9022   3.657   9.758   0.130 -0.4699 -0.1075  0.3236
   61GLOH    C1 9023   3.654   9.890   0.074 -0.0736 -0.3822 -0.1033
   61GLOH   H02 9024   3.750   9.941   0.059 -0.2695 -0.0264 -0.1472
   61GLOH   H08 9025   3.608   9.947   0.154 -0.4594 -3.1047  1.6721
   61GLOH    C2 9026   3.565   9.921  -0.047  0.0519  0.0128  0.4646
   61GLOH   H04 9027   3.458   9.904  -0.028  0.6667 -2.6684  1.8342
   61GLOH    O2 9028   3.598  10.056  -0.090  0.4485 -0.4692  1.0027
   61GLOH   H05 9029   3.582  10.126  -0.025  3.2594  1.0604  0.1323
   61GLOH    C3 9030   3.600   9.829  -0.168  0.2710  0.2860 -0.2880
   61GLOH   H06 9031   3.704   9.798  -0.160  0.0376 -0.2519  0.6801
   61GLOH   H07 9032   3.587   9.886  -0.260 -0.5464  0.8037  0.1381
   61GLOH    O3 9033   3.523   9.705  -0.173 -0.0767  0.1491 -0.1535
   61GLOH   H01 9034   3.428   9.714  -0.193 -0.4525  0.7416  1.7332
   62GLOH   H03 9035   4.442   0.370   1.031  1.4172  2.0077 -0.1404
   62GLOH    O1 9036   4.511   0.314   0.991  0.0193  0.5118 -0.5303
   62GLOH    C1 9037   4.584   0.397   0.902 -0.1684  0.4513  0.8490
   62GLOH   H02 9038   4.554   0.499   0.924 -0.2708  0.1748  2.0219
   62GLOH   H08 9039   4.556   0.389   0.797  1.9114 -1.5351  0.3960
   62GLOH    C2 9040   4.740   0.414   0.913  0.2892 -0.0718 -0.2071
   62GLOH   H04 9041   4.779   0.317   0.878  0.5600  0.9031 -2.7431
   62GLOH    O2 9042   4.773   0.511   0.807 -0.1599  0.7557 -0.7083
   62GLOH   H05 9043   4.791   0.596   0.851 -0.9493  0.2510  0.6135
   62GLOH    C3 9044   4.782   0.437   1.061  0.0591  0.0768  0.5123
   62GLOH   H06 9045   4.890   0.425   1.071  0.1378 -0.9037 -1.2307
   62GLOH   H07 9046   4.728   0.368   1.126  0.9248 -2.0475 -0.9775
   62GLOH    O3 9047   4.758   0.580   1.100 -0.5696 -0.3664  0.1602
   62GLOH   H01 9048   4.819   0.640   1.054 -1.2793  1.7066  1.8500
   63GLOH   H03 9049   4.155   1.229   0.963 -1.0082 -1.2545 -0.3270
   63GLOH    O1 9050   4.168   1.223   1.060  0.4699  0.0672 -0.4260
   63GLOH    C1 9051   4.040   1.220   1.125  0.4414  0.3292 -0.7213
   63GLOH   H02 9052   3.977   1.297   1.080 -0.1004 -0.1680 -0.8293
   63GLOH   H08 9053   4.057   1.257   1.227  0.1576  1.3611 -1.0406
   63GLOH    C2 9054   3.954   1.095   1.125  0.5939  0.1210  1.0996
   63GLOH   H04 9055   3.862   1.108   1.183  0.0330 -0.0474  0.2695
   63GLOH    O2 9056   3.918   1.048   0.995  0.3439  0.2293  0.6235
   63GLOH   H05 9057   4.004   1.023   0.957 -0.9901 -0.8310 -1.7815
   63GLOH    C3 9058   4.028   0.991   1.209  0.7924  0.5963 -0.0871
   63GLOH   H06 9059   4.131   1.001   1.177  0.4420 -0.3260 -1.5354
   63GLOH   H07 9060   3.990   0.891   1.189  1.0029  0.3297  0.8087
   63GLOH    O3 9061   4.029   1.013   1.351  0.5187 -0.5953  0.1434
   63GLOH   H01 9062   3.942   0.987   1.386  0.9500  1.1296  2.6537
   64GLOH   H03 9063   3.533   0.486   2.839 -1.4440 -1.8537  1.1176
   64GLOH    O1 9064   3.506   0.465   2.748  0.5110  0.0305  0.0668
   64GLOH    C1 9065   3.386   0.544   2.719  0.2194  0.1309  0.2956
   64GLOH   H02 9066   3.405   0.651   2.703 -0.0513  0.0757 -0.4064
   64GLOH   H08 9067   3.316   0.537   2.802 -2.3719 -0.9280 -1.9308
   64GLOH    C2 9068   3.322   0.492   2.588 -0.9381  0.2302  0.3680
   64GLOH   H04 9069   3.296   0.386   2.603  0.5059  0.3228  4.1845
   64GLOH    O2 9070   3.207   0.567   2.552 -0.3866 -0.0146  0.1894
   64GLOH   H05 9071   3.206   0.544   2.457 -0.7202 -1.8659  0.6288
   64GLOH    C3 9072   3.426   0.497   2.471  0.0027  0.6596  0.3551
   64GLOH   H06 9073   3.453   0.599   2.442 -0.7330  0.4257 -1.1573
   64GLOH   H07 9074   3.389   0.440   2.387  0.3419  1.7776 -0.5690
   64GLOH    O3 9075   3.541   0.418   2.504 -0.3818  0.1977 -0.2703
   64GLOH   H01 9076   3.549   0.442   2.599 -0.9838 -1.1388  0.1311
   65GLOH   H03 9077   3.632   9.321   2.732 -0.8851 -2.6695 -0.8764
   65GLOH    O1 9078   3.706   9.281   2.782 -0.2715 -0.2865  0.1802
   65GLOH    C1 9079   3.755   9.387   2.866 -0.8002 -0.0300 -0.7446
   65GLOH   H02 9080   3.673   9.431   2.922 -0.5495  1.5913 -1.6375
   65GLOH   H08 9081   3.813   9.466   2.818  1.5704 -0.2004  1.6700
   65GLOH    C2 9082   3.863   9.340   2.963  0.8626 -0.1316 -0.9076
   65GLOH   H04 9083   3.940   9.287   2.905  2.6095  1.8035 -0.4266
   65GLOH    O2 9084   3.927   9.455   3.026  0.0889 -0.7253  0.0404
   65GLOH   H05 9085   4.021   9.448   3.002  0.0711 -0.4275 -0.1133
   65GLOH    C3 9086   3.810   9.231   3.058  0.2384 -0.6914  0.3456
   65GLOH   H06 9087   3.731   9.273   3.120  0.8136  1.7934 -0.5472
   65GLOH   H07 9088   3.890   9.210   3.129 -0.8025  2.8944  2.7252
   65GLOH    O3 9089   3.773   9.109   2.993 -0.2350  0.1268  0.4452
   65GLOH   H01 9090   3.744   9.146   2.908 -1.4437  1.8000  1.5375
   66GLOH   H03 9091   3.929   9.649   0.218  0.0463 -0.5523 -1.2672
   66GLOH    O1 9092   3.860   9.708   0.256  0.5185 -0.0404 -1.1858
   66GLOH    C1 9093   3.811   9.643   0.379  0.3962  0.2866  0.3180
   66GLOH   H02 9094   3.894   9.591   0.427 -0.0396 -0.6507  0.0634
   66GLOH   H08 9095   3.729   9.578   0.348 -0.2288  1.3335 -0.2582
   66GLOH    C2 9096   3.761   9.744   0.485  0.5103 -0.0856  0.3416
   66GLOH   H04 9097   3.685   9.815   0.447 -0.9056  0.0180  3.2243
   66GLOH    O2 9098   3.710   9.668   0.592 -0.4668  0.3019 -0.3407
   66GLOH   H05 9099   3.686   9.726   0.666 -2.3848  0.2347 -0.8904
   66GLOH    C3 9100   3.881   9.824   0.540 -0.2606 -0.0048 -0.0796
   66GLOH   H06 9101   3.953   9.750   0.573  0.0639 -1.0853 -3.0768
   66GLOH   H07 9102   3.852   9.890   0.622 -0.4863  0.1623 -0.2932
   66GLOH    O3 9103   3.939   9.901   0.436  0.2721 -0.6910 -1.2253
   66GLOH   H01 9104   3.941   9.849   0.353 -0.5086 -1.9704 -0.4648
   67GLOH   H03 9105   4.409   1.580   2.146  0.6013 -0.7098  0.6595
   67GLOH    O1 9106   4.438   1.637   2.219 -0.2127 -0.3437  0.6955
   67GLOH    C1 9107   4.499   1.576   2.333 -0.6814  0.5308 -0.6008
   67GLOH   H02 9108   4.598   1.535   2.316  0.1513  1.9494  0.6590
   67GLOH   H08 9109   4.434   1.500   2.375 -1.8211  1.6553 -0.2674
   67GLOH    C2 9110   4.526   1.683   2.438 -0.4726 -0.4230  1.2187
   67GLOH   H04 9111   4.427   1.725   2.460 -0.6206  0.1561 -0.4723
   67GLOH    O2 9112   4.602   1.622   2.545  0.5733  0.1356 -0.0216
   67GLOH   H05 9113   4.540   1.590   2.613 -1.7730 -1.1700 -2.6762
   67GLOH    C3 9114   4.615   1.792   2.377  0.0223  0.2436  0.2962
   67GLOH   H06 9115   4.701   1.747   2.328 -0.9899 -1.2998 -0.0865
   67GLOH   H07 9116   4.650   1.850   2.463  2.8619 -0.2889 -0.4507
   67GLOH    O3 9117   4.540   1.872   2.283 -0.8251 -0.0316  0.0984
   67GLOH   H01 9118   4.509   1.800   2.224  1.5460  0.4683 -1.8407
   68GLOH   H03 9119   3.818   1.260   1.618 -0.9126 -0.9485  0.3981
   68GLOH    O1 9120   3.825   1.287   1.711  0.5745  0.5296 -0.1178
   68GLOH    C1 9121   3.696   1.274   1.771 -0.3431  0.7442 -0.5424
   68GLOH   H02 9122   3.640   1.191   1.729 -0.5580 -0.0543  1.2927
   68GLOH   H08 9123   3.636   1.363   1.750  0.3240  1.3067 -0.0888
   68GLOH    C2 9124   3.690   1.246   1.917  0.1486  0.1013  0.4058
   68GLOH   H04 9125   3.720   1.340   1.964  0.3371 -1.0372  2.6206
   68GLOH    O2 9126   3.558   1.215   1.971 -0.4064  0.1344  0.3002
   68GLOH   H05 9127   3.559   1.220   2.068 -2.4765 -1.3944  0.4539
   68GLOH    C3 9128   3.781   1.126   1.972  0.8971 -0.5257  0.1665
   68GLOH   H06 9129   3.797   1.137   2.079 -1.2211  4.0247  0.1329
   68GLOH   H07 9130   3.876   1.127   1.919  0.4518 -0.7535 -0.6527
   68GLOH    O3 9131   3.724   1.001   1.932 -0.7477  0.0907 -0.5324
   68GLOH   H01 9132   3.648   1.023   1.874 -0.5280 -1.2186 -1.3419
   69GLOH   H03 9133   4.375   1.546   2.801 -0.9192 -1.4348  0.0212
   69GLOH    O1 9134   4.396   1.548   2.706  0.2579 -0.2975  0.3002
   69GLOH    C1 9135   4.275   1.530   2.628 -0.6427 -0.9811  0.9179
   69GLOH   H02 9136   4.239   1.429   2.607 -0.7870 -0.6378 -0.6007
   69GLOH   H08 9137   4.280   1.580   2.531 -1.5354  2.1877  2.4410
   69GLOH    C2 9138   4.154   1.608   2.695  0.2764  0.5638 -0.9365
   69GLOH   H04 9139   4.179   1.715   2.690  0.3075  0.5053 -2.3760
   69GLOH    O2 9140   4.038   1.569   2.612  0.0818 -0.1112  0.1285
   69GLOH   H05 9141   4.054   1.583   2.517 -0.9369  0.9409  0.0967
   69GLOH    C3 9142   4.131   1.537   2.832 -0.5398 -0.1385  0.4052
   69GLOH   H06 9143   4.100   1.434   2.817  1.2638 -1.0285  2.4294
   69GLOH   H07 9144   4.049   1.585   2.886  0.4695  1.5980  0.4421
   69GLOH    O3 9145   4.252   1.529   2.918  0.4562 -0.6194 -0.4623
   69GLOH   H01 9146   4.241   1.463   2.989 -0.0735  1.9482  1.9084
   70GLOH   H03 9147   2.501   0.327   0.130  1.0851 -0.1234  1.2579
   70GLOH    O1 9148   2.439   0.284   0.192 -0.1427 -0.1123  0.0577
   70GLOH    C1 9149   2.363   0.382   0.275  0.0979  0.5018 -0.3599
   70GLOH   H02 9150   2.365   0.364   0.382 -1.4471  0.1779 -0.3769
   70GLOH   H08 9151   2.259   0.377   0.244  0.2454 -2.0537 -0.5159
   70GLOH    C2 9152   2.419   0.526   0.256 -0.1311  0.4739  0.2996
   70GLOH   H04 9153   2.414   0.554   0.150 -2.1662 -0.2298  0.1929
   70GLOH    O2 9154   2.348   0.622   0.334  0.3310 -0.6369 -0.1817
   70GLOH   H05 9155   2.379   0.713   0.315 -0.5305  0.1708  2.0327
   70GLOH    C3 9156   2.570   0.535   0.304 -0.0896 -0.4246  0.5648
   70GLOH   H06 9157   2.615   0.448   0.256 -1.0604  0.2613 -1.6586
   70GLOH   H07 9158   2.569   0.515   0.411 -1.4123 -0.7158  0.5048
   70GLOH    O3 9159   2.633   0.657   0.270 -0.1083  0.0748  0.2503
   70GLOH   H01 9160   2.668   0.692   0.354 -0.5505  0.9224  0.0846
   71GLOH   H03 9161   3.667   0.641   1.976  1.1279  0.2432  0.8114
   71GLOH    O1 9162   3.593   0.664   2.036 -0.0436 -0.2194 -0.4365
   71GLOH    C1 9163   3.571   0.558   2.126  0.2243  0.1728 -0.8615
   71GLOH   H02 9164   3.482   0.578   2.186 -0.4197 -1.1103 -1.3612
   71GLOH   H08 9165   3.649   0.564   2.201  1.2658 -0.1828 -1.8960
   71GLOH    C2 9166   3.569   0.417   2.069 -0.3308 -0.5552 -0.3208
   71GLOH   H04 9167   3.663   0.388   2.020  1.8369  1.1573  2.6927
   71GLOH    O2 9168   3.549   0.321   2.170 -0.0744  0.4207 -0.2596
   71GLOH   H05 9169   3.630   0.291   2.214 -0.7569 -1.9086 -0.5251
   71GLOH    C3 9170   3.451   0.417   1.969  0.2417 -0.1841  0.0158
   71GLOH   H06 9171   3.360   0.455   2.016 -0.1648 -1.2357  0.1081
   71GLOH   H07 9172   3.434   0.314   1.935  1.2410 -0.1464 -0.6081
   71GLOH    O3 9173   3.483   0.499   1.849  0.4244  0.8480  0.2865
   71GLOH   H01 9174   3.536   0.576   1.875 -0.6570  1.1387  1.6555
   72GLOH   H03 9175   2.319   1.319   0.323  0.9121  1.0933 -1.6939
   72GLOH    O1 9176   2.277   1.264   0.254 -0.1045 -0.4752  0.1436
   72GLOH    C1 9177   2.342   1.291   0.127  0.3059 -0.0697 -0.8837
   72GLOH   H02 9178   2.414   1.212   0.102  0.0006 -0.7838  0.4330
   72GLOH   H08 9179   2.406   1.378   0.135 -1.7566  1.4535 -0.7051
   72GLOH    C2 9180   2.247   1.312   0.008  0.3646 -0.5677 -0.0993
   72GLOH   H04 9181   2.208   1.411   0.039  1.9704 -0.0952  0.4817
   72GLOH    O2 9182   2.326   1.324  -0.110  1.1115 -0.8012 -0.0793
   72GLOH   H05 9183   2.268   1.351  -0.183 -0.1321 -0.0620  1.1401
   72GLOH    C3 9184   2.128   1.204  -0.001  0.0087 -0.3407  0.8507
   72GLOH   H06 9185   2.180   1.120  -0.048  0.9466  0.8930 -0.3743
   72GLOH   H07 9186   2.051   1.251  -0.061  0.5428  0.4130  0.7463
   72GLOH    O3 9187   2.072   1.176   0.123  0.2777 -0.0111 -0.0914
   72GLOH   H01 9188   2.148   1.200   0.180  0.3212  1.1228 -0.6221
   73GLOH   H03 9189   3.818   1.845   2.265  0.6344  1.4433  0.4934
   73GLOH    O1 9190   3.911   1.831   2.292  0.6832  0.2460 -0.2381
   73GLOH    C1 9191   3.968   1.963   2.279 -1.1475 -1.3136  0.1675
   73GLOH   H02 9192   3.908   2.049   2.311  0.5335 -0.2924  0.6417
   73GLOH   H08 9193   3.982   1.987   2.174 -0.7981  1.3757  0.7821
   73GLOH    C2 9194   4.095   1.964   2.363  0.3111 -0.3887 -0.1029
   73GLOH   H04 9195   4.163   1.886   2.324 -0.7633 -0.2963 -2.2240
   73GLOH    O2 9196   4.173   2.081   2.356 -0.2810  0.2756  1.0228
   73GLOH   H05 9197   4.247   2.081   2.293  1.5052  2.0709  3.0240
   73GLOH    C3 9198   4.064   1.948   2.516  0.0320  0.9828 -0.6061
   73GLOH   H06 9199   4.166   1.935   2.554 -1.7495 -1.5018  3.6684
   73GLOH   H07 9200   4.010   1.854   2.529  0.9521  0.6643  1.0823
   73GLOH    O3 9201   3.988   2.065   2.552  0.4019  0.3595  0.0148
   73GLOH   H01 9202   4.011   2.138   2.493 -1.1104  0.9710  0.1845
   74GLOH   H03 9203   2.391   1.078   0.845  2.0067 -2.7433  1.1034
   74GLOH    O1 9204   2.375   1.014   0.773  0.2263 -0.8143 -0.2877
   74GLOH    C1 9205   2.380   0.878   0.821  0.0896 -0.0461 -0.3702
   74GLOH   H02 9206   2.479   0.836   0.803  0.6832  0.6478  1.2503
   74GLOH   H08 9207   2.303   0.822   0.767  0.9701 -0.0254 -1.6808
   74GLOH    C2 9208   2.349   0.862   0.968  0.4897  0.2017 -0.0555
   74GLOH   H04 9209   2.345   0.757   0.999  0.5234  1.1308  3.3164
   74GLOH    O2 9210   2.436   0.932   1.062 -0.0397 -0.7211  0.0164
   74GLOH   H05 9211   2.521   0.960   1.026 -1.4361  2.5908 -0.9351
   74GLOH    C3 9212   2.205   0.910   1.001 -1.5237  1.0367 -0.3590
   74GLOH   H06 9213   2.188   1.012   0.968 -3.2536  1.3208  1.3838
   74GLOH   H07 9214   2.175   0.905   1.105 -1.2802  1.0862 -0.2859
   74GLOH    O3 9215   2.108   0.832   0.926  0.0493  0.2001  0.1320
   74GLOH   H01 9216   2.088   0.877   0.842  2.1873 -1.2903 -1.2013
   75GLOH   H03 9217   4.355   9.752   2.182 -1.9250  1.0654 -3.4722
   75GLOH    O1 9218   4.280   9.795   2.226 -0.0335  0.5154  0.5857
   75GLOH    C1 9219   4.292   9.940   2.211 -0.3145  1.1392 -0.1455
   75GLOH   H02 9220   4.196   9.987   2.191 -1.3485  0.3017  2.6048
   75GLOH   H08 9221   4.351   9.972   2.125  0.5289  0.7627  0.2881
   75GLOH    C2 9222   4.349  10.001   2.340  0.8048  0.0942 -0.4780
   75GLOH   H04 9223   4.432   9.936   2.372  0.7801  0.1375 -0.3227
   75GLOH    O2 9224   4.387  10.130   2.319 -0.5008 -0.4269 -0.4809
   75GLOH   H05 9225   4.393  10.178   2.403 -1.1961  0.3794 -0.8773
   75GLOH    C3 9226   4.239   9.978   2.449  0.0856  0.3768  0.0642
   75GLOH   H06 9227   4.152  10.026   2.403 -0.0647  2.2764  2.2406
   75GLOH   H07 9228   4.256  10.031   2.543  3.7822  1.9605 -1.4009
   75GLOH    O3 9229   4.212   9.841   2.475 -0.4905  0.0133  0.2902
   75GLOH   H01 9230   4.243   9.796   2.394  1.9971 -1.7525  2.1466
   76GLOH   H03 9231   2.954   2.206   1.187 -1.9741  0.1848 -1.0058
   76GLOH    O1 9232   3.016   2.279   1.170 -0.5845 -0.6518  0.3124
   76GLOH    C1 9233   3.089   2.262   1.056 -0.2153 -0.4588 -0.5443
   76GLOH   H02 9234   3.153   2.350   1.053  1.3251 -1.6136 -3.6069
   76GLOH   H08 9235   3.031   2.270   0.964  0.5931  1.7246 -0.8875
   76GLOH    C2 9236   3.176   2.131   1.060 -0.0009 -0.5174 -0.6419
   76GLOH   H04 9237   3.103   2.048   1.060 -0.4661 -0.1150 -1.1904
   76GLOH    O2 9238   3.267   2.101   0.953 -0.0723  0.1457 -0.3114
   76GLOH   H05 9239   3.334   2.037   0.985 -0.7180  1.1228  3.2934
   76GLOH    C3 9240   3.242   2.117   1.198  0.1948  0.4653 -0.5007
   76GLOH   H06 9241   3.323   2.046   1.180 -1.0507 -0.6697 -1.7567
   76GLOH   H07 9242   3.175   2.063   1.265 -1.5269  1.6982 -1.2071
   76GLOH    O3 9243   3.291   2.235   1.249 -0.1105 -0.9265 -0.1634
   76GLOH   H01 9244   3.217   2.296   1.229  0.8906 -0.2920 -2.0409
   77GLOH   H03 9245   4.136   1.004   2.618 -1.6034 -0.1932  0.8535
   77GLOH    O1 9246   4.146   1.090   2.571  0.0319 -0.2294  1.0996
   77GLOH    C1 9247   4.003   1.115   2.545  0.0487 -0.3881 -0.7574
   77GLOH   H02 9248   3.951   1.020   2.544 -1.7318  0.5523 -4.2838
   77GLOH   H08 9249   3.983   1.158   2.447 -0.3632 -0.2417 -0.6091
   77GLOH    C2 9250   3.927   1.200   2.650 -0.8705  0.2607 -0.1332
   77GLOH   H04 9251   3.965   1.303   2.640  0.5380 -0.4680 -2.9060
   77GLOH    O2 9252   3.782   1.192   2.636 -0.1202  0.9134 -0.1850
   77GLOH   H05 9253   3.760   1.127   2.568  1.7467 -1.1928  1.1400
   77GLOH    C3 9254   3.985   1.151   2.787 -0.6421 -0.5573  0.0635
   77GLOH   H06 9255   4.094   1.159   2.783 -0.5991 -0.9322  0.5153
   77GLOH   H07 9256   3.963   1.046   2.803  2.0692 -0.6169  3.8595
   77GLOH    O3 9257   3.937   1.235   2.892  0.3140 -0.0894 -0.6383
   77GLOH   H01 9258   3.877   1.302   2.855  0.6138 -0.1369 -1.2069
   78GLOH   H03 9259   3.165   1.896   2.079 -0.5736  0.1570  1.7292
   78GLOH    O1 9260   3.107   1.975   2.082 -0.6911  0.1422  0.2165
   78GLOH    C1 9261   2.969   1.929   2.067 -0.1866  0.1665  0.4189
   78GLOH   H02 9262   2.896   2.007   2.091  0.4991  1.5679 -1.8587
   78GLOH   H08 9263   2.942   1.839   2.123 -1.7310  0.5747  0.3600
   78GLOH    C2 9264   2.922   1.917   1.923 -0.5915  0.8565  0.1555
   78GLOH   H04 9265   2.986   1.846   1.868 -1.6982  0.2015 -0.2906
   78GLOH    O2 9266   2.782   1.863   1.918  0.7308 -0.4392 -0.3300
   78GLOH   H05 9267   2.752   1.883   1.828 -0.5206  3.4254  0.8315
   78GLOH    C3 9268   2.946   2.052   1.847 -0.8300 -0.0535 -0.1334
   78GLOH   H06 9269   3.042   2.097   1.872 -1.7084  0.3976  2.6761
   78GLOH   H07 9270   2.872   2.127   1.878 -0.6292 -1.0367  2.8694
   78GLOH    O3 9271   2.942   2.034   1.708 -0.0035  0.2931  0.5390
   78GLOH   H01 9272   3.029   1.995   1.685 -0.1878  1.2970 -2.0140
   79GLOH   H03 9273   3.124   0.963   2.851 -0.8225 -0.5785 -0.5742
   79GLOH    O1 9274   3.110   0.868   2.866 -0.2809 -0.4522  0.8191
   79GLOH    C1 9275   3.027   0.853   2.982  0.2079 -0.1169 -0.3841
   79GLOH   H02 9276   2.962   0.765   2.974 -0.0691  0.0939 -0.4817
   79GLOH   H08 9277   2.960   0.939   2.973 -0.4982 -0.5097  0.9241
   79GLOH    C2 9278   3.115   0.850   3.105  0.2632  1.1375 -0.1418
   79GLOH   H04 9279   3.175   0.758   3.106  1.3282  1.7305  4.3607
   79GLOH    O2 9280   3.213   0.953   3.124  0.7090 -0.4847  0.5005
   79GLOH   H05 9281   3.278   0.945   3.052 -0.2058 -1.1012 -0.2689
   79GLOH    C3 9282   3.021   0.849   3.225 -0.3288 -0.3990  0.8825
   79GLOH   H06 9283   3.078   0.827   3.315  0.8807  1.5978  0.6241
   79GLOH   H07 9284   2.945   0.774   3.201 -1.5497  1.3160 -0.7651
   79GLOH    O3 9285   2.948   0.976   3.218 -0.3365 -0.4266  0.7630
   79GLOH   H01 9286   2.899   0.982   3.302 -1.8463 -0.5851 -0.0936
   80GLOH   H03 9287   3.947   9.776   2.600 -1.1366  0.9398  1.1112
   80GLOH    O1 9288   3.905   9.838   2.537 -0.6804  0.5270  0.3982
   80GLOH    C1 9289   3.895   9.782   2.402  0.2351  0.0663 -0.0899
   80GLOH   H02 9290   3.989   9.731   2.380  0.2189  0.2537 -0.6135
   80GLOH   H08 9291   3.895   9.860   2.326  1.7495  0.2864  0.1008
   80GLOH    C2 9292   3.765   9.702   2.370 -0.1731 -0.0490  1.0244
   80GLOH   H04 9293   3.774   9.644   2.277 -2.2218 -0.2028  0.8867
   80GLOH    O2 9294   3.724   9.599   2.462 -0.1708 -0.0068 -0.0171
   80GLOH   H05 9295   3.789   9.598   2.534  0.8246 -0.2895 -0.9081
   80GLOH    C3 9296   3.652   9.798   2.333 -0.5875  0.1309 -0.4538
   80GLOH   H06 9297   3.651   9.879   2.406  1.0247  0.4537 -0.7613
   80GLOH   H07 9298   3.562   9.737   2.341  0.5037 -1.4408  0.0765
   80GLOH    O3 9299   3.663   9.845   2.197 -0.0871  0.1581  0.0269
   80GLOH   H01 9300   3.672   9.772   2.132 -0.3804  0.3723 -0.2571
   81GLOH   H03 9301   4.029   1.708   2.312 -0.3799 -0.6932 -1.2402
   81GLOH    O1 9302   4.056   1.620   2.346  0.6269  0.0409 -0.1197
   81GLOH    C1 9303   3.957   1.529   2.301 -0.5017  0.3906 -0.1759
   81GLOH   H02 9304   3.928   1.544   2.197 -2.2987  2.2857  0.5532
   81GLOH   H08 9305   3.864   1.557   2.350 -0.5933  1.9280 -1.2022
   81GLOH    C2 9306   3.988   1.384   2.346 -0.0054  0.0758  0.2016
   81GLOH   H04 9307   3.993   1.388   2.455  0.8825 -1.4386  0.2227
   81GLOH    O2 9308   3.877   1.297   2.323  0.4136 -0.0215  0.3903
   81GLOH   H05 9309   3.916   1.210   2.306  0.0304 -0.1356  0.0908
   81GLOH    C3 9310   4.119   1.329   2.292 -0.0728  0.2225  0.1518
   81GLOH   H06 9311   4.108   1.304   2.187 -1.7381  0.6140  0.2188
   81GLOH   H07 9312   4.146   1.237   2.344 -0.5641  0.4255  0.7846
   81GLOH    O3 9313   4.234   1.413   2.310  0.1148 -0.2902  0.1381
   81GLOH   H01 9314   4.225   1.506   2.282 -0.1978 -1.0630 -2.5125
   82GLOH   H03 9315   4.221   8.910   1.384  0.5447 -0.7236 -1.7157
   82GLOH    O1 9316   4.125   8.902   1.394  0.6390 -0.1456 -0.1923
   82GLOH    C1 9317   4.066   8.924   1.266  0.4087  0.8288 -0.0480
   82GLOH   H02 9318   4.058   9.031   1.245  0.3235  0.6901 -0.7397
   82GLOH   H08 9319   3.973   8.869   1.256  0.3214  0.6736  1.4447
   82GLOH    C2 9320   4.171   8.886   1.158 -0.1254  0.1611  0.7870
   82GLOH   H04 9321   4.198   8.782   1.181 -0.4352 -0.3694 -1.1534
   82GLOH    O2 9322   4.100   8.904   1.028  0.0326  0.0485 -0.3347
   82GLOH   H05 9323   4.049   8.986   1.017 -1.2580 -0.6875  0.1417
   82GLOH    C3 9324   4.293   8.978   1.155  0.1579  1.1385 -0.2851
   82GLOH   H06 9325   4.275   9.072   1.103 -0.4044  2.4198  2.1610
   82GLOH   H07 9326   4.383   8.934   1.111 -0.0086 -0.4960  0.9789
   82GLOH    O3 9327   4.322   9.006   1.295  0.0615 -0.1610  0.3092
   82GLOH   H01 9328   4.376   9.087   1.309  1.5823 -1.5290  2.8814
   83GLOH   H03 9329   4.325   1.119   2.624  0.6838 -0.3536 -0.2016
   83GLOH    O1 9330   4.375   1.134   2.707 -0.4046  0.5943  0.2964
   83GLOH    C1 9331   4.504   1.184   2.684 -0.4068  0.1848 -0.2884
   83GLOH   H02 9332   4.575   1.101   2.679  1.3541  1.5222  1.5517
   83GLOH   H08 9333   4.527   1.249   2.768  0.0695 -0.1197 -0.1789
   83GLOH    C2 9334   4.519   1.252   2.542 -0.3466 -0.2201  1.0698
   83GLOH   H04 9335   4.429   1.313   2.527 -0.9857 -1.2435  0.6962
   83GLOH    O2 9336   4.643   1.325   2.526 -0.1578 -0.3337 -0.0874
   83GLOH   H05 9337   4.626   1.417   2.553 -2.2538  0.7115 -4.4985
   83GLOH    C3 9338   4.529   1.148   2.425 -0.1220  0.7915  0.1704
   83GLOH   H06 9339   4.604   1.073   2.452 -1.6722  0.2530  3.2015
   83GLOH   H07 9340   4.574   1.195   2.337 -1.8431 -0.1652 -1.2579
   83GLOH    O3 9341   4.407   1.094   2.383  0.4292 -0.2883 -0.0425
   83GLOH   H01 9342   4.410   1.003   2.418 -1.5067 -1.6452 -3.1557
   84GLOH   H03 9343   2.800   1.271   0.088 -1.8067  0.7484  2.0255
   84GLOH    O1 9344   2.836   1.362   0.079  0.4605 -0.2705  0.3757
   84GLOH    C1 9345   2.776   1.414  -0.041  0.1126  0.3674 -0.0903
   84GLOH   H02 9346   2.856   1.412  -0.114  3.0711  3.0009  2.8929
   84GLOH   H08 9347   2.757   1.519  -0.021  0.6498  0.3772  0.3831
   84GLOH    C2 9348   2.642   1.351  -0.092  0.3053  0.4928  0.6876
   84GLOH   H04 9349   2.572   1.308  -0.019 -0.6525 -1.6349 -1.4160
   84GLOH    O2 9350   2.555   1.440  -0.170  0.6701 -0.7040 -0.2270
   84GLOH   H05 9351   2.465   1.429  -0.137  0.8851  2.3466  1.5668
   84GLOH    C3 9352   2.682   1.219  -0.174 -0.3253  0.0524  0.1455
   84GLOH   H06 9353   2.746   1.254  -0.255 -1.1651  2.8267  0.6410
   84GLOH   H07 9354   2.590   1.178  -0.216  0.5222 -2.0464  0.2499
   84GLOH    O3 9355   2.750   1.119  -0.092 -0.3620 -0.2517 -0.5333
   84GLOH   H01 9356   2.725   1.032  -0.128 -2.3487  0.9173 -2.0390
   85GLOH   H03 9357   2.903   0.694   2.209  2.3813 -1.3262 -1.8002
   85GLOH    O1 9358   2.891   0.763   2.141  0.7224  0.2399  0.0084
   85GLOH    C1 9359   2.756   0.826   2.151  0.0967  0.2718 -0.1016
   85GLOH   H02 9360   2.720   0.829   2.254  2.0206  0.0377  0.5983
   85GLOH   H08 9361   2.683   0.780   2.084  0.5209 -1.8131  0.8495
   85GLOH    C2 9362   2.750   0.973   2.103  0.2224  1.1822  0.7878
   85GLOH   H04 9363   2.647   1.007   2.124 -0.1378 -0.1348  1.2022
   85GLOH    O2 9364   2.840   1.055   2.175 -0.2570  0.6271 -0.4107
   85GLOH   H05 9365   2.867   1.010   2.257 -0.3746 -1.4602 -1.4757
   85GLOH    C3 9366   2.780   0.985   1.953 -0.4874 -0.6217  0.0886
   85GLOH   H06 9367   2.874   0.943   1.919 -0.2620  0.6696 -0.9186
   85GLOH   H07 9368   2.800   1.089   1.928 -1.0491 -0.3703  0.6682
   85GLOH    O3 9369   2.669   0.934   1.873 -0.0393  0.4212  0.2289
   85GLOH   H01 9370   2.585   0.968   1.910  1.1996  2.0703  1.6324
   86GLOH   H03 9371   3.339   0.134   1.016  0.6868 -0.2992  1.0812
   86GLOH    O1 9372   3.431   0.158   0.992  0.6037 -0.5344  0.5196
   86GLOH    C1 9373   3.475   0.266   1.079  0.1817 -0.4390 -0.4714
   86GLOH   H02 9374   3.582   0.271   1.056  0.1711 -4.2933 -1.8404
   86GLOH   H08 9375   3.458   0.240   1.183 -1.6458 -0.6871 -0.8194
   86GLOH    C2 9376   3.395   0.396   1.051  0.3751 -0.1071 -0.0011
   86GLOH   H04 9377   3.307   0.374   0.988  0.8283 -0.3918 -0.5373
   86GLOH    O2 9378   3.350   0.464   1.168  0.5714  0.3942  0.5546
   86GLOH   H05 9379   3.263   0.503   1.151 -0.3578 -2.2631 -1.2732
   86GLOH    C3 9380   3.471   0.509   0.978 -0.6686  0.3314  0.5223
   86GLOH   H06 9381   3.557   0.517   1.045 -0.6171  0.0491  0.4903
   86GLOH   H07 9382   3.413   0.601   0.969  0.1838  0.5628 -3.4136
   86GLOH    O3 9383   3.509   0.486   0.839  0.2931  0.2270  0.5024
   86GLOH   H01 9384   3.438   0.500   0.774  2.6270 -0.8951 -2.3965
   87GLOH   H03 9385   3.321   1.000   2.010  2.0738 -2.9105  0.6307
   87GLOH    O1 9386   3.324   1.011   2.106 -0.3947 -0.3694  0.4857
   87GLOH    C1 9387   3.225   0.922   2.158  0.0022 -0.1445  1.7467
   87GLOH   H02 9388   3.251   0.821   2.127 -1.1872  0.6095 -1.9709
   87GLOH   H08 9389   3.132   0.949   2.108 -0.2476 -0.4095  2.0570
   87GLOH    C2 9390   3.226   0.913   2.314  0.3509  1.2222  0.5686
   87GLOH   H04 9391   3.204   1.013   2.354  0.8578  1.3604  0.5026
   87GLOH    O2 9392   3.127   0.824   2.357 -0.7535 -0.2739  0.4631
   87GLOH   H05 9393   3.138   0.743   2.304 -1.7611  0.2502 -0.5777
   87GLOH    C3 9394   3.371   0.871   2.346  0.9317  0.4973 -0.3655
   87GLOH   H06 9395   3.390   0.777   2.294  1.5425  0.7322 -0.5719
   87GLOH   H07 9396   3.371   0.850   2.453  1.6791 -1.3330 -0.7030
   87GLOH    O3 9397   3.465   0.979   2.324 -0.3438 -0.2981 -0.1369
   87GLOH   H01 9398   3.444   1.010   2.234 -0.4602  2.3593  0.7582
   88GLOH   H03 9399   2.656   0.373   2.847 -0.7622 -1.8810 -1.3113
   88GLOH    O1 9400   2.569   0.390   2.888  0.0201  0.0585 -0.4075
   88GLOH    C1 9401   2.474   0.444   2.795  0.4187  0.6388 -0.1303
   88GLOH   H02 9402   2.377   0.456   2.843 -0.6581 -2.1203 -1.4783
   88GLOH   H08 9403   2.460   0.383   2.706 -2.2156  0.3232  0.4346
   88GLOH    C2 9404   2.512   0.585   2.743 -0.4128  0.6831  0.4325
   88GLOH   H04 9405   2.563   0.631   2.830 -0.9015 -0.4426  1.3293
   88GLOH    O2 9406   2.606   0.574   2.634  0.5506  0.2298  0.1515
   88GLOH   H05 9407   2.689   0.537   2.666  1.9593 -1.4638 -5.0196
   88GLOH    C3 9408   2.397   0.675   2.715  0.5675 -0.2062  0.1173
   88GLOH   H06 9409   2.332   0.679   2.803  0.2988  1.3616 -0.1314
   88GLOH   H07 9410   2.343   0.625   2.635  0.8233 -0.8815  0.3593
   88GLOH    O3 9411   2.427   0.811   2.665  0.1402  0.8662  0.0761
   88GLOH   H01 9412   2.342   0.845   2.632 -2.2312 -1.7692  3.1706
   89GLOH   H03 9413   4.522   9.466   1.823 -2.6365  0.7892  0.1366
   89GLOH    O1 9414   4.532   9.491   1.917 -0.5088  0.0721  0.1193
   89GLOH    C1 9415   4.666   9.516   1.959 -0.8394 -0.7386  0.6209
   89GLOH   H02 9416   4.737   9.466   1.893 -1.7782  1.0691 -1.8546
   89GLOH   H08 9417   4.683   9.472   2.057 -1.6478 -1.5807  0.3952
   89GLOH    C2 9418   4.691   9.669   1.967 -0.2239 -0.2951 -0.4841
   89GLOH   H04 9419   4.796   9.677   1.997 -1.0512 -1.4681  2.9841
   89GLOH    O2 9420   4.669   9.758   1.857 -0.2811  0.1787  0.0099
   89GLOH   H05 9421   4.586   9.807   1.867  0.7566  1.6211  1.9169
   89GLOH    C3 9422   4.604   9.717   2.082 -0.6816 -0.3982 -0.3265
   89GLOH   H06 9423   4.616   9.825   2.084 -1.8794 -0.2808  1.0316
   89GLOH   H07 9424   4.639   9.677   2.177 -1.8085 -0.7897 -0.0775
   89GLOH    O3 9425   4.458   9.680   2.069  0.1876 -0.1004 -0.5330
   89GLOH   H01 9426   4.454   9.600   2.013 -0.3811 -0.8377  0.5410
   90GLOH   H03 9427   3.399   1.318   0.484 -1.0557 -1.3601  0.4615
   90GLOH    O1 9428   3.358   1.374   0.552  0.8235  0.3508  0.2265
   90GLOH    C1 9429   3.245   1.445   0.504  0.1616 -0.1501  0.9353
   90GLOH   H02 9430   3.201   1.389   0.421 -0.4071  0.8104  0.5809
   90GLOH   H08 9431   3.270   1.540   0.457  1.4347 -0.7477  0.3970
   90GLOH    C2 9432   3.131   1.475   0.609  0.0293 -0.6578 -0.2074
   90GLOH   H04 9433   3.167   1.554   0.677 -0.5878 -0.0239 -0.6064
   90GLOH    O2 9434   3.007   1.515   0.551  0.0944 -0.3672 -0.0538
   90GLOH   H05 9435   2.970   1.584   0.608  2.3455  0.6214  0.2575
   90GLOH    C3 9436   3.110   1.361   0.708  0.8170  0.0566 -0.9084
   90GLOH   H06 9437   3.041   1.400   0.782  1.8395  0.1107  0.0316
   90GLOH   H07 9438   3.202   1.344   0.764 -0.1383  0.0687  0.7078
   90GLOH    O3 9439   3.060   1.240   0.644 -0.6030 -0.0993 -0.1791
   90GLOH   H01 9440   3.001   1.266   0.572 -1.0795  1.0193  0.6101
   91GLOH   H03 9441   3.760   1.573   0.341 -0.3971 -0.2905 -0.0980
   91GLOH    O1 9442   3.710   1.635   0.286 -0.0640  0.1617  0.1028
   91GLOH    C1 9443   3.646   1.729   0.374  0.6446 -0.5908  1.4075
   91GLOH   H02 9444   3.557   1.687   0.420 -0.6123  1.9052  1.3818
   91GLOH   H08 9445   3.619   1.823   0.326  0.2108 -0.1851  2.4363
   91GLOH    C2 9446   3.739   1.779   0.478  1.0300 -0.2871 -0.8324
   91GLOH   H04 9447   3.682   1.829   0.558  0.5580 -1.6668 -0.2833
   91GLOH    O2 9448   3.788   1.656   0.542  0.1614 -0.5147  0.0190
   91GLOH   H05 9449   3.836   1.688   0.620  0.2027 -0.1327 -0.1597
   91GLOH    C3 9450   3.847   1.869   0.409  0.1462 -0.2322 -0.4084
   91GLOH   H06 9451   3.840   1.858   0.301 -0.5367 -1.1736 -0.2744
   91GLOH   H07 9452   3.950   1.844   0.436  1.4102  1.2203 -3.5871
   91GLOH    O3 9453   3.833   2.007   0.431  0.3618 -0.1164  0.0345
   91GLOH   H01 9454   3.794   2.037   0.347 -2.9380 -1.4138  1.0370
   92GLOH   H03 9455   4.245   9.469   1.357 -1.1142 -2.0584  3.6236
   92GLOH    O1 9456   4.272   9.388   1.311 -0.2782 -0.1271  0.5176
   92GLOH    C1 9457   4.166   9.354   1.225  0.5075 -0.1116 -0.4992
   92GLOH   H02 9458   4.083   9.419   1.252 -0.5453 -1.4940 -0.3579
   92GLOH   H08 9459   4.129   9.253   1.242  2.3225 -0.5624  0.8857
   92GLOH    C2 9460   4.218   9.380   1.083  0.1129  0.2454  0.0223
   92GLOH   H04 9461   4.305   9.314   1.069 -1.8248 -2.4464  0.2916
   92GLOH    O2 9462   4.129   9.313   0.989 -0.6825  0.0617 -0.0984
   92GLOH   H05 9463   4.048   9.367   0.983  0.2092  1.7286  2.0701
   92GLOH    C3 9464   4.241   9.526   1.058 -0.0433 -0.2312 -0.4545
   92GLOH   H06 9465   4.283   9.549   0.959  0.6873 -0.3704 -0.1822
   92GLOH   H07 9466   4.307   9.554   1.140  0.0670  0.3501 -0.7315
   92GLOH    O3 9467   4.130   9.615   1.059 -0.3568  0.0159  0.0588
   92GLOH   H01 9468   4.161   9.706   1.044 -1.4180  0.0967 -1.8614
   93GLOH   H03 9469   3.149   9.845   2.372 -1.7128 -1.0089 -1.7339
   93GLOH    O1 9470   3.087   9.911   2.409  0.1601  0.0719 -0.4365
   93GLOH    C1 9471   3.095   9.917   2.554 -0.0619  0.4355 -0.2491
   93GLOH   H02 9472   3.039   9.828   2.583 -0.5259  0.2744 -1.6341
   93GLOH   H08 9473   3.045  10.008   2.590  0.6677  0.6284  0.3001
   93GLOH    C2 9474   3.238   9.914   2.612  0.3462 -0.1991 -0.2289
   93GLOH   H04 9475   3.237   9.957   2.713  1.6924  1.9028 -1.0686
   93GLOH    O2 9476   3.307   9.782   2.615  0.3899 -0.3427 -0.2357
   93GLOH   H05 9477   3.291   9.742   2.528  2.0703 -1.6097  0.0339
   93GLOH    C3 9478   3.320  10.020   2.542  0.5503 -0.1658 -0.3512
   93GLOH   H06 9479   3.329   9.994   2.437 -1.1684 -1.0056 -0.3041
   93GLOH   H07 9480   3.420  10.008   2.585 -0.5062  1.7075  2.7961
   93GLOH    O3 9481   3.271  10.159   2.573 -0.6475  0.4763  0.4633
   93GLOH   H01 9482   3.275  10.157   2.671 -3.0553 -0.5668  0.5683
   94GLOH   H03 9483   2.935   2.005   0.462  0.4845  0.1028  0.0904
   94GLOH    O1 9484   2.932   1.998   0.560 -0.6071 -0.6521  0.0144
   94GLOH    C1 9485   2.995   1.885   0.625  0.0213  0.6922  0.1947
   94GLOH   H02 9486   3.077   1.925   0.685  1.8353 -0.1909 -1.6044
   94GLOH   H08 9487   3.038   1.812   0.556 -2.6085  0.1775 -0.9462
   94GLOH    C2 9488   2.892   1.804   0.712  0.4044  0.3696  0.0109
   94GLOH   H04 9489   2.815   1.765   0.644  1.8946 -0.3474 -1.3128
   94GLOH    O2 9490   2.955   1.688   0.765 -0.6881  0.9826 -0.1718
   94GLOH   H05 9491   2.896   1.652   0.833  2.7710 -2.5947  1.1001
   94GLOH    C3 9492   2.842   1.896   0.824 -0.3930 -0.5844  0.0809
   94GLOH   H06 9493   2.927   1.935   0.880  0.7309 -2.3902 -0.3260
   94GLOH   H07 9494   2.780   1.846   0.899 -1.4215  0.5957  0.0324
   94GLOH    O3 9495   2.750   1.997   0.772 -0.5945  0.5288  0.0138
   94GLOH   H01 9496   2.799   2.062   0.718 -1.8963  0.4517 -1.2993
   95GLOH   H03 9497   3.620   1.245   2.314  0.8050 -0.2203 -0.4219
   95GLOH    O1 9498   3.590   1.246   2.221  0.1417  0.1219 -0.2155
   95GLOH    C1 9499   3.488   1.353   2.221 -0.3759 -0.4582  0.1398
   95GLOH   H02 9500   3.402   1.329   2.283 -0.8315 -1.9435 -1.0268
   95GLOH   H08 9501   3.447   1.368   2.121  1.7116  0.4125 -0.6129
   95GLOH    C2 9502   3.553   1.481   2.284 -0.2732 -0.0442 -1.0132
   95GLOH   H04 9503   3.657   1.492   2.251 -0.4725 -1.0727 -2.0115
   95GLOH    O2 9504   3.474   1.593   2.243 -0.1655  0.3062 -0.2665
   95GLOH   H05 9505   3.532   1.665   2.271 -0.2561  0.3757 -0.2567
   95GLOH    C3 9506   3.547   1.462   2.439 -0.4067 -0.9722 -0.5556
   95GLOH   H06 9507   3.443   1.466   2.473 -0.0666  0.3342  0.3551
   95GLOH   H07 9508   3.586   1.555   2.480  0.1896 -2.2865  2.0100
   95GLOH    O3 9509   3.615   1.340   2.473  0.0526 -0.2705  0.1917
   95GLOH   H01 9510   3.711   1.352   2.457 -0.1311  1.6044  0.4776
   96GLOH   H03 9511   3.426   9.362   0.431 -0.3528 -1.2943 -1.8223
   96GLOH    O1 9512   3.348   9.420   0.425  0.1418 -0.3226  0.5269
   96GLOH    C1 9513   3.403   9.559   0.432 -0.0565 -1.1269 -0.2405
   96GLOH   H02 9514   3.393   9.609   0.336  1.4337 -0.4489 -0.0587
   96GLOH   H08 9515   3.511   9.570   0.448 -0.2529  0.6893 -0.0873
   96GLOH    C2 9516   3.334   9.646   0.536  0.3469  0.5132 -0.1060
   96GLOH   H04 9517   3.335   9.580   0.624  1.7209 -0.4456 -0.8356
   96GLOH    O2 9518   3.402   9.772   0.557 -0.8455 -0.2533  0.1877
   96GLOH   H05 9519   3.381   9.817   0.641 -0.6409 -1.2517  0.7841
   96GLOH    C3 9520   3.195   9.675   0.490 -0.3700 -0.8231 -0.0782
   96GLOH   H06 9521   3.197   9.748   0.409  3.8294 -0.1554  0.5135
   96GLOH   H07 9522   3.148   9.732   0.570  3.0524  2.8117 -0.5400
   96GLOH    O3 9523   3.120   9.562   0.441  0.3962  0.1477  0.2324
   96GLOH   H01 9524   3.180   9.485   0.436 -0.0108 -0.2871  1.8405
   97GLOH   H03 9525   3.516   1.796   1.526  0.1788  0.8834 -0.8107
   97GLOH    O1 9526   3.448   1.832   1.585 -0.0139  0.2988 -0.6677
   97GLOH    C1 9527   3.391   1.940   1.518  0.0282 -0.3050 -0.9357
   97GLOH   H02 9528   3.332   1.899   1.435 -1.8652  1.6227 -0.6073
   97GLOH   H08 9529   3.467   1.999   1.467  0.6530 -0.1229  0.2131
   97GLOH    C2 9530   3.278   2.016   1.585  0.5181 -0.0003  0.6387
   97GLOH   H04 9531   3.240   2.091   1.514  0.8005 -0.2342  0.2350
   97GLOH    O2 9532   3.166   1.933   1.626  0.3530  0.3814  0.2924
   97GLOH   H05 9533   3.193   1.843   1.651 -1.2339 -0.1298  0.2604
   97GLOH    C3 9534   3.327   2.086   1.713  0.1720 -0.5274  0.2716
   97GLOH   H06 9535   3.350   2.014   1.792  0.7625 -0.1989  0.4063
   97GLOH   H07 9536   3.250   2.153   1.750 -0.8071 -2.1717  1.2752
   97GLOH    O3 9537   3.450   2.157   1.697  0.2046 -0.3637 -0.0720
   97GLOH   H01 9538   3.515   2.113   1.756 -1.5065 -2.0992  0.5751
   98GLOH   H03 9539   3.459   1.153   0.326  2.5668 -2.2346 -0.1050
   98GLOH    O1 9540   3.467   1.170   0.422 -0.3323 -0.6240 -0.1005
   98GLOH    C1 9541   3.604   1.213   0.445 -0.8070  0.2124 -0.5015
   98GLOH   H02 9542   3.614   1.320   0.425 -0.5159 -0.1865 -2.5483
   98GLOH   H08 9543   3.676   1.151   0.392  0.0143 -1.0997  2.0526
   98GLOH    C2 9544   3.644   1.181   0.593  0.5157  0.1849 -0.0464
   98GLOH   H04 9545   3.571   1.215   0.667  0.3036  0.3104 -0.3096
   98GLOH    O2 9546   3.654   1.037   0.615  0.7680  0.7066 -0.1337
   98GLOH   H05 9547   3.581   0.991   0.571  2.0533 -0.6836 -0.8896
   98GLOH    C3 9548   3.772   1.255   0.631  0.5107  0.2094  0.6498
   98GLOH   H06 9549   3.762   1.361   0.612 -2.9745 -0.5791 -2.5602
   98GLOH   H07 9550   3.845   1.221   0.557 -0.2443 -0.5813  0.2521
   98GLOH    O3 9551   3.816   1.226   0.765  0.4873 -0.4153  0.3041
   98GLOH   H01 9552   3.907   1.259   0.771  1.0310 -2.0861  1.7184
   99GLOH   H03 9553   4.407   0.760   0.625 -0.5696  0.2607  0.9339
   99GLOH    O1 9554   4.473   0.831   0.621 -0.0487 -0.2643  0.0536
   99GLOH    C1 9555   4.581   0.804   0.528  0.5458  0.3830 -0.5664
   99GLOH   H02 9556   4.658   0.738   0.568  1.1563 -0.2152 -2.7121
   99GLOH   H08 9557   4.635   0.898   0.512  0.5326  0.3428 -0.8414
   99GLOH    C2 9558   4.528   0.767   0.393 -0.6389  0.1108  1.1847
   99GLOH   H04 9559   4.611   0.766   0.321 -0.9515 -0.9038  0.8320
   99GLOH    O2 9560   4.480   0.632   0.388  0.0917  0.2566  0.1257
   99GLOH   H05 9561   4.537   0.584   0.450  1.2812  0.7041 -0.6090
   99GLOH    C3 9562   4.419   0.861   0.337 -0.1327  0.0589  0.1114
   99GLOH   H06 9563   4.327   0.869   0.394 -0.1379  2.2604 -0.1797
   99GLOH   H07 9564   4.397   0.820   0.238  0.8681 -0.0896 -0.0569
   99GLOH    O3 9565   4.475   0.996   0.318  0.0916  0.2237 -0.3575
   99GLOH   H01 9566   4.463   1.041   0.404  0.0220 -0.3168 -0.0830
  100GLOH   H03 9567   4.133   9.152   1.774  0.0658  1.3570 -0.9798
  100GLOH    O1 9568   4.071   9.168   1.848  0.2296  0.4870 -0.6554
  100GLOH    C1 9569   4.143   9.202   1.973 -0.6003  0.4394 -0.3272
  100GLOH   H02 9570   4.219   9.279   1.960 -0.2836  0.1965  0.0982
  100GLOH   H08 9571   4.204   9.118   2.007  0.2273  0.6925 -1.1599
  100GLOH    C2 9572   4.054   9.237   2.097  0.3063  0.6939  0.0853
  100GLOH   H04 9573   3.983   9.312   2.059 -0.1468 -0.3162 -1.0994
  100GLOH    O2 9574   3.969   9.127   2.147 -0.1597  0.0462 -0.4270
  100GLOH   H05 9575   3.947   9.059   2.081 -0.9413  0.4960 -0.6410
  100GLOH    C3 9576   4.135   9.297   2.206 -0.1386 -0.1379 -0.3130
  100GLOH   H06 9577   4.195   9.223   2.260  0.0160 -0.0016 -0.3000
  100GLOH   H07 9578   4.064   9.331   2.281 -0.0339  0.2927 -0.4108
  100GLOH    O3 9579   4.210   9.404   2.154  0.1537  0.0146 -0.2542
  100GLOH   H01 9580   4.303   9.400   2.183  0.1141 -0.7233 -0.2310
  101GLOH   H03 9581   4.054   1.890   1.980 -0.3760  0.9588  0.2148
  101GLOH    O1 9582   4.132   1.942   1.954  0.3464 -0.2148 -0.0445
  101GLOH    C1 9583   4.246   1.867   2.002  0.3037  1.3113  0.7179
  101GLOH   H02 9584   4.254   1.771   1.951 -0.3521  3.0589 -2.8101
  101GLOH   H08 9585   4.232   1.848   2.109 -2.0552 -2.5402 -0.1876
  101GLOH    C2 9586   4.387   1.931   1.985 -0.3965  0.4140 -0.9895
  101GLOH   H04 9587   4.458   1.862   2.033  3.1222 -0.5113 -7.0193
  101GLOH    O2 9588   4.415   1.941   1.852  0.2971 -0.2000  0.7031
  101GLOH   H05 9589   4.348   1.988   1.799 -0.8544 -1.9701  0.5316
  101GLOH    C3 9590   4.398   2.061   2.065 -0.6482 -0.1214  0.3093
  101GLOH   H06 9591   4.317   2.119   2.023 -0.5281  0.0471  0.3106
  101GLOH   H07 9592   4.493   2.105   2.035 -0.8235 -0.6624 -1.0991
  101GLOH    O3 9593   4.379   2.048   2.210  0.2629 -0.2640 -0.4853
  101GLOH   H01 9594   4.445   1.989   2.250 -1.0139 -2.2894 -1.3236
  102GLOH   H03 9595   3.581   0.919   2.645  0.0975 -2.0699 -0.3416
  102GLOH    O1 9596   3.536   0.902   2.730 -0.2592 -0.4089 -0.1877
  102GLOH    C1 9597   3.628   0.815   2.800 -0.5484  0.3840  0.7411
  102GLOH   H02 9598   3.729   0.857   2.802 -0.7968  1.1024 -1.0648
  102GLOH   H08 9599   3.646   0.714   2.765 -0.9755  0.1786  1.1223
  102GLOH    C2 9600   3.592   0.811   2.951  0.4007  0.5683  0.3985
  102GLOH   H04 9601   3.521   0.727   2.960  1.5404 -0.5370 -0.8415
  102GLOH    O2 9602   3.709   0.774   3.016 -0.6208  0.2285  0.5044
  102GLOH   H05 9603   3.761   0.855   3.016  1.1523 -0.8686  2.8855
  102GLOH    C3 9604   3.538   0.948   3.013  0.4220  0.2721  0.0640
  102GLOH   H06 9605   3.616   1.022   2.992 -0.0842  1.4028  2.0681
  102GLOH   H07 9606   3.530   0.953   3.121 -1.4795  0.6979 -0.0683
  102GLOH    O3 9607   3.414   0.977   2.939 -0.1234  0.7007  0.1751
  102GLOH   H01 9608   3.438   0.952   2.848 -2.2636 -1.3500  0.1408
  103GLOH   H03 9609   2.870   0.435   0.379 -4.9162  1.3309 -1.5759
  103GLOH    O1 9610   2.915   0.512   0.340  0.3816 -0.5198  0.3118
  103GLOH    C1 9611   2.920   0.482   0.197 -0.0301 -0.0179  0.7004
  103GLOH   H02 9612   2.916   0.571   0.134  0.9235  1.4917  2.7212
  103GLOH   H08 9613   2.841   0.417   0.160 -0.4145  0.9237 -0.1624
  103GLOH    C2 9614   3.047   0.407   0.153  0.0298  0.2371 -0.0591
  103GLOH   H04 9615   3.034   0.309   0.202  0.0564  0.3976  0.2671
  103GLOH    O2 9616   3.043   0.393   0.017 -0.2559 -0.4020  0.1434
  103GLOH   H05 9617   3.048   0.477  -0.032  0.7112 -0.5729 -0.0676
  103GLOH    C3 9618   3.175   0.469   0.207 -0.0549 -0.5558  0.5025
  103GLOH   H06 9619   3.201   0.552   0.141  0.3606  0.5907  2.0741
  103GLOH   H07 9620   3.257   0.398   0.201  0.1211 -0.4559  1.6273
  103GLOH    O3 9621   3.169   0.517   0.342 -0.3362  0.2661 -0.5884
  103GLOH   H01 9622   3.080   0.557   0.349 -0.5858 -0.0687 -1.8004
  104GLOH   H03 9623   2.733   1.849   2.053 -1.5694 -1.6222  0.4681
  104GLOH    O1 9624   2.701   1.854   2.145  0.3975 -0.2320  1.1149
  104GLOH    C1 9625   2.661   1.719   2.183 -0.0799  0.1693  0.1534
  104GLOH   H02 9626   2.634   1.664   2.093  0.7992 -0.0743  0.0335
  104GLOH   H08 9627   2.576   1.717   2.251 -0.5442 -1.9005 -0.4609
  104GLOH    C2 9628   2.781   1.639   2.241  0.0643  0.9708  0.5956
  104GLOH   H04 9629   2.845   1.594   2.164 -1.6364  0.8148 -0.7397
  104GLOH    O2 9630   2.863   1.721   2.332 -0.0609  0.0825 -0.1510
  104GLOH   H05 9631   2.872   1.810   2.293  0.9409  0.2633  0.4680
  104GLOH    C3 9632   2.721   1.520   2.308 -1.2698 -0.0143 -0.3137
  104GLOH   H06 9633   2.648   1.552   2.382  1.1911  1.5684  1.5230
  104GLOH   H07 9634   2.799   1.460   2.355  1.4516  2.2009 -1.8296
  104GLOH    O3 9635   2.652   1.433   2.214  0.6801  0.0399  0.9065
  104GLOH   H01 9636   2.648   1.343   2.252  0.7660  0.5839  2.2260
  105GLOH   H03 9637   2.692   0.678   1.813  1.6847 -2.2906  0.0613
  105GLOH    O1 9638   2.613   0.625   1.790 -0.3429  0.6179  0.1297
  105GLOH    C1 9639   2.656   0.563   1.666  0.1974  0.1949  0.3513
  105GLOH   H02 9640   2.754   0.605   1.645 -0.5034  1.3954 -0.6159
  105GLOH   H08 9641   2.578   0.583   1.592  0.8707  0.0027 -0.4150
  105GLOH    C2 9642   2.657   0.408   1.684  0.0837 -0.8277 -0.2386
  105GLOH   H04 9643   2.572   0.369   1.741  1.2710 -0.9080  1.5084
  105GLOH    O2 9644   2.669   0.344   1.553  0.0982  0.4929  0.4140
  105GLOH   H05 9645   2.757   0.311   1.529  0.2295  1.9596 -1.3114
  105GLOH    C3 9646   2.784   0.379   1.768 -0.4840  0.5308 -0.7897
  105GLOH   H06 9647   2.788   0.439   1.859  2.3301  1.0614 -1.2062
  105GLOH   H07 9648   2.867   0.416   1.707  1.4671  0.2243  1.6098
  105GLOH    O3 9649   2.799   0.243   1.806 -0.4460 -0.0910 -0.0496
  105GLOH   H01 9650   2.776   0.185   1.730  1.4043 -0.3004 -0.4670
  106GLOH   H03 9651   2.068   0.853   0.373  2.3967 -0.9088  1.1292
  106GLOH    O1 9652   2.032   0.900   0.451 -0.3001  0.3136 -0.7807
  106GLOH    C1 9653   2.067   1.035   0.433 -0.1748  0.5026 -0.1741
  106GLOH   H02 9654   1.980   1.088   0.393 -0.2822  2.1007  2.1096
  106GLOH   H08 9655   2.147   1.037   0.359 -0.8322  2.9852 -0.8835
  106GLOH    C2 9656   2.105   1.122   0.560 -0.8311  0.1599 -0.9601
  106GLOH   H04 9657   2.195   1.075   0.603 -0.7014  1.1030 -0.2026
  106GLOH    O2 9658   2.134   1.255   0.519 -0.5340 -0.3521 -0.4415
  106GLOH   H05 9659   2.171   1.253   0.429 -1.4272  1.4066 -0.8811
  106GLOH    C3 9660   1.999   1.099   0.663 -0.4170 -0.1235  0.2153
  106GLOH   H06 9661   1.903   1.126   0.619 -0.1951  0.5590  0.1409
  106GLOH   H07 9662   2.025   1.153   0.754 -1.3400 -1.9218  1.5626
  106GLOH    O3 9663   2.002   0.960   0.687  0.4346 -0.4637 -0.2512
  106GLOH   H01 9664   2.009   0.922   0.598  1.6735 -1.5977  0.3195
  107GLOH   H03 9665   3.957   9.254   1.822 -0.0388 -0.6989 -1.6311
  107GLOH    O1 9666   3.865   9.277   1.803 -0.1904  0.3563  0.2618
  107GLOH    C1 9667   3.783   9.171   1.752 -0.1340 -0.0379  0.2941
  107GLOH   H02 9668   3.686   9.165   1.802 -0.5914  1.4268 -0.3786
  107GLOH   H08 9669   3.834   9.077   1.771  1.3306  0.5178 -0.7830
  107GLOH    C2 9670   3.757   9.174   1.604  0.4006 -0.3668 -0.4780
  107GLOH   H04 9671   3.705   9.081   1.576  1.9105 -0.5307 -2.8452
  107GLOH    O2 9672   3.669   9.284   1.558  0.1252 -0.1241 -0.2144
  107GLOH   H05 9673   3.621   9.317   1.636 -0.9384  0.1457 -0.9687
  107GLOH    C3 9674   3.891   9.162   1.521  1.3746 -0.4501  0.8176
  107GLOH   H06 9675   3.964   9.239   1.546  0.2838  0.2873  1.7332
  107GLOH   H07 9676   3.865   9.187   1.419  2.6272 -0.9423  0.3618
  107GLOH    O3 9677   3.949   9.033   1.537  0.1527  0.5899  0.3442
  107GLOH   H01 9678   3.999   8.991   1.464  1.2736  2.7078 -0.1443
  108GLOH   H03 9679   2.103   0.881   2.581 -0.1621  3.2798 -0.8894
  108GLOH    O1 9680   2.197   0.892   2.560  0.5384  0.0478  0.2757
  108GLOH    C1 9681   2.209   1.013   2.496 -0.4881 -0.6120 -0.0717
  108GLOH   H02 9682   2.120   1.070   2.520 -0.0333  0.6580 -1.3508
  108GLOH   H08 9683   2.217   1.012   2.387 -0.7867 -1.1824 -0.0891
  108GLOH    C2 9684   2.331   1.096   2.545 -0.6444  0.7286  0.6078
  108GLOH   H04 9685   2.339   1.092   2.654  2.9219  0.7676  0.4140
  108GLOH    O2 9686   2.456   1.041   2.493  0.1900 -0.1449 -0.4803
  108GLOH   H05 9687   2.465   0.956   2.540 -1.5215 -0.7139 -1.1457
  108GLOH    C3 9688   2.315   1.240   2.488 -0.0236  0.9225 -0.0052
  108GLOH   H06 9689   2.273   1.223   2.389 -3.1750 -2.2936  1.7811
  108GLOH   H07 9690   2.411   1.293   2.484  0.9119 -0.8491 -4.0863
  108GLOH    O3 9691   2.217   1.316   2.558 -0.3370 -0.1492  0.1400
  108GLOH   H01 9692   2.230   1.411   2.538 -0.5573 -0.2429 -0.4718
  109GLOH   H03 9693   4.499   1.459   1.015 -0.2605 -2.4786 -0.8809
  109GLOH    O1 9694   4.447   1.482   0.935  0.0656  0.5497 -0.2716
  109GLOH    C1 9695   4.489   1.381   0.837 -0.2571  0.8552  0.2032
  109GLOH   H02 9696   4.575   1.411   0.777  0.2925  0.3260  0.7181
  109GLOH   H08 9697   4.412   1.380   0.760 -0.9602  1.6493  0.8855
  109GLOH    C2 9698   4.500   1.239   0.895  0.0136 -0.1479  0.3341
  109GLOH   H04 9699   4.399   1.209   0.926  0.0347  0.2881  0.8308
  109GLOH    O2 9700   4.541   1.146   0.786  0.0818  0.7425 -0.1682
  109GLOH   H05 9701   4.556   1.059   0.825 -1.4726 -1.0071 -3.2615
  109GLOH    C3 9702   4.596   1.245   1.015  0.0580  0.0620 -0.3457
  109GLOH   H06 9703   4.693   1.224   0.971 -0.4932  0.1411 -1.6350
  109GLOH   H07 9704   4.584   1.155   1.074  2.7953  1.5468  2.6349
  109GLOH    O3 9705   4.575   1.355   1.100 -0.6875  0.1417  0.1471
  109GLOH   H01 9706   4.654   1.352   1.157  1.0153  0.0651 -2.1957
  110GLOH   H03 9707   2.861   1.095   0.222 -0.4214  0.7018  0.9714
  110GLOH    O1 9708   2.780   1.122   0.175 -0.3400 -0.3319  0.2147
  110GLOH    C1 9709   2.668   1.128   0.268 -0.0924 -0.1522  0.7530
  110GLOH   H02 9710   2.675   1.042   0.335 -2.4512 -0.6498  0.3828
  110GLOH   H08 9711   2.574   1.116   0.215  0.1947  1.4644 -0.1738
  110GLOH    C2 9712   2.660   1.257   0.358 -0.2432  0.2472  0.1983
  110GLOH   H04 9713   2.617   1.334   0.294 -0.8171  0.1646  0.4776
  110GLOH    O2 9714   2.573   1.233   0.478  0.1023  0.3790 -0.0218
  110GLOH   H05 9715   2.498   1.294   0.470  0.0424  0.0739 -2.1142
  110GLOH    C3 9716   2.796   1.323   0.393 -0.2231  0.2237 -0.5516
  110GLOH   H06 9717   2.786   1.408   0.461  0.8696  0.6372 -0.9098
  110GLOH   H07 9718   2.825   1.374   0.301 -2.6265  2.3341 -0.1920
  110GLOH    O3 9719   2.908   1.241   0.446 -0.1337  0.2124 -0.5918
  110GLOH   H01 9720   2.974   1.215   0.378 -2.0533 -0.7213 -2.1645
  111GLOH   H03 9721   3.242   1.631   1.564  1.2117 -2.2155  0.6180
  111GLOH    O1 9722   3.192   1.649   1.647  0.4605 -0.0749 -0.2455
  111GLOH    C1 9723   3.262   1.571   1.745  0.4262  0.5733 -0.5237
  111GLOH   H02 9724   3.250   1.466   1.720 -1.9332  0.5626  0.5692
  111GLOH   H08 9725   3.198   1.568   1.833 -1.4588 -0.9036 -1.8858
  111GLOH    C2 9726   3.413   1.611   1.767 -0.8445  0.0514  0.4262
  111GLOH   H04 9727   3.465   1.597   1.671 -0.3519  0.1143  0.6814
  111GLOH    O2 9728   3.446   1.748   1.809  0.3453 -0.2771  0.2126
  111GLOH   H05 9729   3.431   1.800   1.728 -1.2281  0.7671  1.1329
  111GLOH    C3 9730   3.465   1.513   1.876 -0.5111 -0.1565  0.3462
  111GLOH   H06 9731   3.441   1.544   1.978 -0.7293 -0.4718  0.3904
  111GLOH   H07 9732   3.573   1.513   1.866 -0.7469 -0.1022 -2.8470
  111GLOH    O3 9733   3.414   1.380   1.853 -0.0531 -0.0560  0.5211
  111GLOH   H01 9734   3.437   1.313   1.921  1.2073  1.0677  1.2197
  112GLOH   H03 9735   3.319   0.913   0.948 -1.6565  1.5116 -1.3643
  112GLOH    O1 9736   3.261   0.925   1.025 -0.0789 -0.2776  0.1645
  112GLOH    C1 9737   3.271   1.064   1.072  0.6182 -0.8062 -0.3961
  112GLOH   H02 9738   3.370   1.105   1.050 -0.2289  1.2632 -0.5349
  112GLOH   H08 9739   3.248   1.076   1.178  0.7672 -1.3502 -0.3016
  112GLOH    C2 9740   3.163   1.157   1.014  1.0396  0.1899  0.1107
  112GLOH   H04 9741   3.168   1.150   0.904 -2.6813 -0.5188 -0.0716
  112GLOH    O2 9742   3.031   1.134   1.073  0.5127  0.7148 -0.0972
  112GLOH   H05 9743   3.006   1.042   1.055  2.6792  0.0831 -0.0685
  112GLOH    C3 9744   3.183   1.306   1.055  0.4657 -0.2322 -0.5755
  112GLOH   H06 9745   3.138   1.330   1.152  1.1978 -1.9849  0.2194
  112GLOH   H07 9746   3.129   1.365   0.981 -0.5850  1.1384  1.2413
  112GLOH    O3 9747   3.320   1.346   1.063  0.4845 -0.8041  0.0590
  112GLOH   H01 9748   3.358   1.362   0.975  1.6508  2.0375  1.0145
  113GLOH   H03 9749   2.794   1.622   0.989 -0.4387 -0.1049 -0.7783
  113GLOH    O1 9750   2.786   1.566   0.910 -0.2276 -0.2653 -0.6855
  113GLOH    C1 9751   2.704   1.449   0.941 -0.2100 -0.6279  0.2503
  113GLOH   H02 9752   2.607   1.445   0.891  0.1869 -1.4827 -0.4633
  113GLOH   H08 9753   2.679   1.456   1.047  0.8803  2.9309  0.3344
  113GLOH    C2 9754   2.780   1.320   0.901  0.3234  0.7430  0.3066
  113GLOH   H04 9755   2.887   1.338   0.912  0.0905  1.6639  1.1368
  113GLOH    O2 9756   2.736   1.210   0.985 -0.3712  1.0030 -0.3972
  113GLOH   H05 9757   2.777   1.234   1.070  2.7818  0.5570 -1.7052
  113GLOH    C3 9758   2.752   1.291   0.751 -0.0749  0.8044  0.5334
  113GLOH   H06 9759   2.802   1.205   0.707 -0.4239  1.8371 -1.9356
  113GLOH   H07 9760   2.784   1.385   0.708  0.4383  1.0444  1.4132
  113GLOH    O3 9761   2.612   1.271   0.727  0.6784 -0.6202 -0.5910
  113GLOH   H01 9762   2.601   1.253   0.632  1.1027  0.5088 -0.8572
  114GLOH   H03 9763   3.733   1.449   1.564 -1.0163 -0.4831  1.7248
  114GLOH    O1 9764   3.714   1.542   1.584 -0.2658  0.2299 -0.6167
  114GLOH    C1 9765   3.803   1.584   1.686 -0.1617  0.4899 -0.1003
  114GLOH   H02 9766   3.787   1.525   1.776  3.2118  0.2444  0.4274
  114GLOH   H08 9767   3.779   1.689   1.705 -0.2885  0.4293  0.0730
  114GLOH    C2 9768   3.953   1.590   1.654  0.2241  0.2819  0.6734
  114GLOH   H04 9769   4.001   1.491   1.653  0.4270  0.2997  4.1605
  114GLOH    O2 9770   3.966   1.655   1.524  0.2256  0.1543  0.0077
  114GLOH   H05 9771   3.976   1.747   1.554 -0.5759  0.8554 -1.8062
  114GLOH    C3 9772   4.024   1.669   1.761 -0.9552 -0.2092  0.2515
  114GLOH   H06 9773   3.984   1.770   1.750  2.7640  1.5633  1.8161
  114GLOH   H07 9774   4.130   1.659   1.737 -1.2115 -1.8264 -0.2403
  114GLOH    O3 9775   4.009   1.632   1.900 -0.2122  0.1606 -1.0013
  114GLOH   H01 9776   4.068   1.558   1.921 -0.6547 -0.3375 -1.4983
  115GLOH   H03 9777   4.052   0.801   0.486  0.2930 -0.3392 -1.3583
  115GLOH    O1 9778   4.092   0.723   0.528  0.1848  0.5415  0.4427
  115GLOH    C1 9779   4.010   0.608   0.518  0.4116 -0.1300 -1.0497
  115GLOH   H02 9780   4.087   0.533   0.541  2.3664  2.9229  3.0304
  115GLOH   H08 9781   3.969   0.598   0.418 -0.3042  1.5780 -0.9389
  115GLOH    C2 9782   3.904   0.599   0.627  0.4823 -0.5717  0.9020
  115GLOH   H04 9783   3.848   0.509   0.595 -1.2527  1.1241 -0.9365
  115GLOH    O2 9784   3.966   0.581   0.751 -0.2858 -0.0017 -0.4098
  115GLOH   H05 9785   3.896   0.543   0.808 -0.2375  0.8942  0.2567
  115GLOH    C3 9786   3.820   0.733   0.624 -0.0028  0.3361 -0.2918
  115GLOH   H06 9787   3.871   0.820   0.665 -0.8618  0.4536  0.5416
  115GLOH   H07 9788   3.738   0.715   0.693  0.8896 -0.0418  0.6906
  115GLOH    O3 9789   3.768   0.762   0.497 -0.1186  0.4614 -0.1062
  115GLOH   H01 9790   3.715   0.844   0.503 -0.0163  0.7236 -2.1448
  116GLOH   H03 9791   3.246   9.445   1.067 -0.3262 -2.6035 -0.4506
  116GLOH    O1 9792   3.238   9.468   0.973 -0.1870  0.0316  0.1430
  116GLOH    C1 9793   3.280   9.355   0.890  0.6542 -0.0996 -0.1096
  116GLOH   H02 9794   3.278   9.399   0.791 -2.4269  0.6040  0.2313
  116GLOH   H08 9795   3.213   9.269   0.890  2.0450 -1.2161  1.0938
  116GLOH    C2 9796   3.419   9.306   0.913 -0.4918 -0.5158 -0.4548
  116GLOH   H04 9797   3.430   9.273   1.017 -1.8623 -1.4039 -0.5836
  116GLOH    O2 9798   3.448   9.196   0.827 -0.3424  0.0109  0.0458
  116GLOH   H05 9799   3.510   9.130   0.863  1.3391  2.1527  1.1865
  116GLOH    C3 9800   3.516   9.418   0.876 -0.7535  0.1508 -0.0196
  116GLOH   H06 9801   3.488   9.457   0.778  2.1312 -0.9764 -1.3576
  116GLOH   H07 9802   3.619   9.384   0.884 -0.0724  2.1683  0.1882
  116GLOH    O3 9803   3.487   9.529   0.965 -0.3853  0.4180  0.0657
  116GLOH   H01 9804   3.399   9.565   0.943 -1.2916 -0.7030  1.7461
  117GLOH   H03 9805   3.512   1.906   1.088  0.5661 -1.5051 -0.4229
  117GLOH    O1 9806   3.449   1.903   1.013  0.1600  0.5288 -0.1919
  117GLOH    C1 9807   3.500   1.820   0.910  0.1093  0.0089  0.1243
  117GLOH   H02 9808   3.534   1.728   0.959  2.7574  1.1794  0.5443
  117GLOH   H08 9809   3.586   1.860   0.858  0.9311 -1.4343  0.3402
  117GLOH    C2 9810   3.395   1.796   0.796 -0.1912 -0.1263 -0.3268
  117GLOH   H04 9811   3.362   1.887   0.744 -0.4124  0.8931  1.5384
  117GLOH    O2 9812   3.456   1.715   0.695  0.1361 -0.2056  0.6811
  117GLOH   H05 9813   3.422   1.745   0.609  1.5429 -2.5098 -0.7426
  117GLOH    C3 9814   3.267   1.733   0.859 -0.1088 -0.2383 -0.2253
  117GLOH   H06 9815   3.202   1.724   0.772 -2.2283 -1.4886  1.4188
  117GLOH   H07 9816   3.218   1.815   0.911 -1.9716  0.1203 -2.4599
  117GLOH    O3 9817   3.294   1.610   0.930 -0.8484 -0.2262 -0.4170
  117GLOH   H01 9818   3.324   1.541   0.868  1.8365 -1.2387  1.8877
  118GLOH   H03 9819   4.292   9.934   0.269  2.0774  0.1123 -0.5119
  118GLOH    O1 9820   4.288   9.847   0.225 -0.0174 -0.2894  0.3742
  118GLOH    C1 9821   4.267   9.870   0.081  0.3663  0.5963  0.2997
  118GLOH   H02 9822   4.311   9.786   0.026 -2.9862 -0.6932 -0.5278
  118GLOH   H08 9823   4.297   9.969   0.046  1.4633 -0.1248 -0.8608
  118GLOH    C2 9824   4.118   9.871   0.050  0.0464  0.1644 -0.1079
  118GLOH   H04 9825   4.066   9.776   0.070 -0.1769  0.0363 -1.2830
  118GLOH    O2 9826   4.045   9.983   0.099  0.3236  0.1681  0.0535
  118GLOH   H05 9827   4.031  10.054   0.034 -0.3170 -1.3755 -1.5560
  118GLOH    C3 9828   4.103   9.888  -0.101  0.4932  0.6553  0.0415
  118GLOH   H06 9829   4.153   9.977  -0.138 -0.9302  0.8222 -1.5636
  118GLOH   H07 9830   3.998   9.905  -0.127 -0.0429 -0.5782  1.2917
  118GLOH    O3 9831   4.157   9.773  -0.167 -0.6204  0.4810  0.3679
  118GLOH   H01 9832   4.177   9.799  -0.259  2.2502  0.0587  0.8333
  119GLOH   H03 9833   3.212   1.742   1.350  1.8728 -0.2447 -3.3079
  119GLOH    O1 9834   3.150   1.811   1.320  0.2500 -0.0961  0.1515
  119GLOH    C1 9835   3.106   1.794   1.183  1.0148 -0.1488 -0.0773
  119GLOH   H02 9836   3.179   1.842   1.118  1.5845 -0.4708  0.3287
  119GLOH   H08 9837   3.018   1.852   1.154  0.8871  0.2778  1.1652
  119GLOH    C2 9838   3.081   1.647   1.143 -0.1255 -0.7114 -0.1911
  119GLOH   H04 9839   3.074   1.655   1.034  2.4468 -1.6279 -0.4665
  119GLOH    O2 9840   3.189   1.551   1.188  0.5324  0.5072  0.0527
  119GLOH   H05 9841   3.243   1.526   1.111  0.1263 -0.7201  0.1635
  119GLOH    C3 9842   2.944   1.606   1.186  0.3758  0.5183 -0.0232
  119GLOH   H06 9843   2.941   1.602   1.295 -0.1699 -0.8918 -0.0837
  119GLOH   H07 9844   2.942   1.504   1.149 -1.1610  0.1426  1.0352
  119GLOH    O3 9845   2.837   1.683   1.130  0.6543 -1.0087 -0.0128
  119GLOH   H01 9846   2.801   1.747   1.194  0.0685 -0.3148 -1.0232
  120GLOH   H03 9847   3.824   2.052   0.583  0.8021  3.2424 -1.1158
  120GLOH    O1 9848   3.796   2.079   0.672 -0.1191 -1.2727  0.0607
  120GLOH    C1 9849   3.684   2.161   0.653 -0.0639 -0.1535 -0.1814
  120GLOH   H02 9850   3.620   2.112   0.580  0.2868 -0.9271  0.0152
  120GLOH   H08 9851   3.716   2.257   0.613 -2.4952  0.4039 -0.8745
  120GLOH    C2 9852   3.612   2.203   0.786  0.2873  1.0848  0.6670
  120GLOH   H04 9853   3.590   2.113   0.845 -1.3412  0.8766 -0.2219
  120GLOH    O2 9854   3.687   2.296   0.866 -0.2960 -0.4328 -0.3219
  120GLOH   H05 9855   3.781   2.286   0.844  0.1468 -0.3917  1.5208
  120GLOH    C3 9856   3.479   2.262   0.748  0.2620 -0.3020 -0.4289
  120GLOH   H06 9857   3.483   2.316   0.653 -1.0471  0.6943  0.0754
  120GLOH   H07 9858   3.444   2.334   0.822  0.4189  0.2708 -0.9072
  120GLOH    O3 9859   3.386   2.154   0.727  0.1553 -0.6244  0.1591
  120GLOH   H01 9860   3.339   2.130   0.809  0.2854 -2.0313 -0.1649
  121ACOH    H4 9861   2.132   0.453   1.159  0.3858  0.9633  2.7196
  121ACOH    O2 9862   2.041   0.485   1.157  0.0695  0.0438 -0.0036
  121ACOH    C2 9863   2.029   0.608   1.208 -0.3854  0.4020 -0.9467
  121ACOH    O1 9864   2.120   0.675   1.264 -0.3964  0.3914 -0.0447
  121ACOH    C1 9865   1.891   0.652   1.230  0.4058 -1.0375 -0.1361
  121ACOH    H1 9866   1.866   0.740   1.170 -0.5311 -1.5067 -0.4517
  121ACOH    H2 9867   1.883   0.684   1.334  1.5751  0.1122 -0.3873
  121ACOH    H3 9868   1.828   0.568   1.203  1.2861 -1.7074 -0.1066
  122ACOH    H4 9869   4.046   8.771   1.000  0.4027  0.3388  0.3360
  122ACOH    O2 9870   4.004   8.684   0.987 -0.2691  0.7334 -0.2324
  122ACOH    C2 9871   3.946   8.668   0.868  0.4604 -0.3356 -0.4751
  122ACOH    O1 9872   3.929   8.750   0.783  0.1023  0.3066  0.0123
  122ACOH    C1 9873   3.915   8.525   0.852 -0.7393 -0.6780 -0.3975
  122ACOH    H1 9874   3.978   8.487   0.772  0.5166 -1.6640  1.0320
  122ACOH    H2 9875   3.810   8.515   0.827 -0.9621 -2.0420  1.0284
  122ACOH    H3 9876   3.934   8.478   0.948 -0.4762  1.3959  0.6101
  123ACOH    H4 9877   4.048   1.293   0.137  3.9480 -2.6244 -1.2005
  123ACOH    O2 9878   4.091   1.362   0.190 -0.3411 -0.5167 -0.2405
  123ACOH    C2 9879   4.006   1.420   0.279 -0.1635 -0.3697 -0.4481
  123ACOH    O1 9880   3.894   1.393   0.308 -0.1132  0.1099 -0.5647
  123ACOH    C1 9881   4.071   1.538   0.326 -0.9115 -0.2707 -0.1177
  123ACOH    H1 9882   4.079   1.614   0.249 -4.5594  0.6780  0.3447
  123ACOH    H2 9883   4.172   1.523   0.363 -0.5384  2.2556 -0.0432
  123ACOH    H3 9884   4.011   1.572   0.411 -1.1208 -1.4335  0.2119
  124ACOH    H4 9885   2.847   9.777   2.256  1.0838  2.1097 -0.5673
  124ACOH    O2 9886   2.811   9.826   2.332  0.4447  0.6422  0.1107
  124ACOH    C2 9887   2.733   9.742   2.404 -0.3129 -0.3968 -0.4441
  124ACOH    O1 9888   2.689   9.631   2.380  0.3895 -0.3811 -0.1704
  124ACOH    C1 9889   2.706   9.806   2.537  0.4313 -0.6485 -0.8766
  124ACOH    H1 9890   2.675   9.732   2.610 -0.5585  1.6798  1.1482
  124ACOH    H2 9891   2.621   9.869   2.509  0.1387 -0.8185 -0.3731
  124ACOH    H3 9892   2.786   9.866   2.580  0.5114 -1.2814 -0.1251
  125ACOH    H4 9893   2.672   1.643   0.818 -0.7260 -0.1051 -0.9962
  125ACOH    O2 9894   2.584   1.683   0.819 -0.5796  0.2041  0.4257
  125ACOH    C2 9895   2.533   1.669   0.696  0.9217 -0.2322 -0.8037
  125ACOH    O1 9896   2.600   1.645   0.597 -0.9691 -0.1063 -0.2952
  125ACOH    C1 9897   2.382   1.698   0.699 -0.5414 -0.4557 -0.2580
  125ACOH    H1 9898   2.335   1.684   0.602 -0.8466 -3.7664  0.3069
  125ACOH    H2 9899   2.373   1.799   0.738 -0.7639 -0.3292 -0.6430
  125ACOH    H3 9900   2.340   1.638   0.780 -0.0888  0.1440  0.4223
  126ACOH    H4 9901   4.014   9.611   1.932  0.5047  0.6984 -0.2688
  126ACOH    O2 9902   3.928   9.604   1.888  0.2456  0.1902  0.3146
  126ACOH    C2 9903   3.962   9.547   1.770  0.4360 -0.8306 -0.2525
  126ACOH    O1 9904   4.072   9.505   1.733 -0.7398 -0.5590 -0.4923
  126ACOH    C1 9905   3.844   9.568   1.677 -0.0399 -0.1113 -0.3009
  126ACOH    H1 9906   3.756   9.614   1.721 -0.8079  0.3003 -2.2022
  126ACOH    H2 9907   3.817   9.476   1.626  1.8683 -0.4929 -0.6828
  126ACOH    H3 9908   3.879   9.630   1.595  3.6959  0.4819  1.6329
  127ACOH    H4 9909   4.166   9.588   2.718 -1.0652 -0.5008  0.1437
  127ACOH    O2 9910   4.162   9.502   2.673  0.6264 -0.1941 -0.6348
  127ACOH    C2 9911   4.030   9.498   2.642  0.4775 -0.2894 -0.0137
  127ACOH    O1 9912   3.958   9.601   2.645 -0.8900 -0.2394 -0.0055
  127ACOH    C1 9913   3.999   9.368   2.575 -0.0699 -0.0457 -0.3437
  127ACOH    H1 9914   4.086   9.339   2.515  0.3552  1.0119 -0.2615
  127ACOH    H2 9915   3.912   9.374   2.509  1.1568  0.0741 -1.9979
  127ACOH    H3 9916   3.987   9.300   2.659  0.2010  0.5905  0.2191
  128ACOH    H4 9917   4.686   0.382   1.438 -1.2275  1.2155  0.1637
  128ACOH    O2 9918   4.749   0.436   1.488 -0.3457  0.5950 -0.2628
  128ACOH    C2 9919   4.691   0.447   1.606 -0.8065  1.0205  0.4394
  128ACOH    O1 9920   4.589   0.390   1.647 -0.5392  1.0170 -0.5776
  128ACOH    C1 9921   4.757   0.558   1.685  0.3988  0.0246 -0.2443
  128ACOH    H1 9922   4.847   0.526   1.737  1.3065  1.9504 -0.6137
  128ACOH    H2 9923   4.684   0.586   1.761 -1.6045  1.6363 -2.6944
  128ACOH    H3 9924   4.768   0.644   1.620 -4.0607  1.3383  0.5377
  129ACOH    H4 9925   3.615   9.471   2.432  1.9161 -0.2007 -0.1728
  129ACOH    O2 9926   3.604   9.386   2.386 -0.7697  0.3470 -0.6263
  129ACOH    C2 9927   3.553   9.398   2.265  0.0182  0.2938  0.5455
  129ACOH    O1 9928   3.497   9.506   2.225  0.2193  0.4669  0.5945
  129ACOH    C1 9929   3.528   9.264   2.210  0.4775 -0.6115 -0.1864
  129ACOH    H1 9930   3.432   9.227   2.247  0.8811  0.0798  1.6384
  129ACOH    H2 9931   3.611   9.205   2.249  0.9920 -0.8283 -1.5932
  129ACOH    H3 9932   3.533   9.268   2.102  0.7385 -0.1024 -0.1552
  130ACOH    H4 9933   3.978   9.023   2.264  1.0515  1.9505  1.8391
  130ACOH    O2 9934   3.959   8.968   2.341 -0.0958  0.2018  0.3654
  130ACOH    C2 9935   4.001   9.035   2.452 -0.5051  0.7528  0.2128
  130ACOH    O1 9936   4.113   9.087   2.457  0.3759 -0.4464  0.1254
  130ACOH    C1 9937   3.952   8.984   2.581  0.4225  0.2190 -0.0360
  130ACOH    H1 9938   3.871   8.914   2.564  0.0648  0.0367  2.2499
  130ACOH    H2 9939   3.902   9.070   2.626  1.1269  1.2758 -1.2469
  130ACOH    H3 9940   4.027   8.941   2.648  2.0607  0.2382 -1.8067
  131ACOH    H4 9941   2.668   1.807   2.606  1.7924 -0.9426 -3.6223
  131ACOH    O2 9942   2.659   1.897   2.571 -0.0817  0.0963 -0.7105
  131ACOH    C2 9943   2.533   1.904   2.523  0.4629 -0.4896 -0.7586
  131ACOH    O1 9944   2.454   1.818   2.536  0.0051  0.4904 -0.9076
  131ACOH    C1 9945   2.501   2.033   2.455  0.2897  0.0787 -0.0632
  131ACOH    H1 9946   2.595   2.088   2.452  0.9290 -0.9967 -0.0005
  131ACOH    H2 9947   2.423   2.086   2.509  1.6589  0.8712  1.2065
  131ACOH    H3 9948   2.471   2.016   2.351 -0.1323  1.1307 -0.1110
  132ACOH    H4 9949   3.702   2.040   2.840  0.4696  3.2127 -0.7584
  132ACOH    O2 9950   3.623   2.060   2.893  0.2615  0.5947 -0.0237
  132ACOH    C2 9951   3.649   2.106   3.013 -0.2218 -0.0453 -0.2257
  132ACOH    O1 9952   3.758   2.100   3.070 -0.0637 -0.4750 -0.4195
  132ACOH    C1 9953   3.524   2.130   3.089  0.4008  0.1789  0.2683
  132ACOH    H1 9954   3.442   2.150   3.021 -0.1077 -2.4306  0.0561
  132ACOH    H2 9955   3.541   2.225   3.139 -0.1548  0.5492 -0.2443
  132ACOH    H3 9956   3.504   2.055   3.166  1.4478 -1.0242 -0.6130
  133ACOH    H4 9957   3.545   9.650   0.100  0.1742  0.1479 -2.1792
  133ACOH    O2 9958   3.515   9.561   0.124  0.3768  0.4987 -0.5808
  133ACOH    C2 9959   3.384   9.561   0.098 -0.5612 -1.2673  0.0707
  133ACOH    O1 9960   3.296   9.645   0.090 -0.6584 -0.3325  0.0850
  133ACOH    C1 9961   3.347   9.417   0.091 -0.9506  0.7271  0.2867
  133ACOH    H1 9962   3.435   9.353   0.089 -2.6356 -1.7067  1.4393
  133ACOH    H2 9963   3.286   9.390   0.005  2.2015 -0.7664 -1.5709
  133ACOH    H3 9964   3.295   9.394   0.184  0.2133 -0.3768  0.6821
  134ACOH    H4 9965   4.683   0.910   1.544 -2.0243 -0.5167  1.7033
  134ACOH    O2 9966   4.724   0.939   1.627  0.0194 -0.1483  0.5927
  134ACOH    C2 9967   4.757   1.066   1.605  0.2661 -0.3493 -0.0415
  134ACOH    O1 9968   4.744   1.135   1.505 -0.3475  0.1787 -0.1859
  134ACOH    C1 9969   4.833   1.117   1.724 -0.2275 -0.1763  0.0697
  134ACOH    H1 9970   4.860   1.035   1.791  2.5016 -1.4580 -2.4567
  134ACOH    H2 9971   4.776   1.200   1.766 -1.2579 -0.3215 -1.0142
  134ACOH    H3 9972   4.917   1.161   1.670 -1.2186  0.7179 -0.7715
  135ACOH    H4 9973   4.181   9.212   0.856  0.9803 -0.2233 -1.2119
  135ACOH    O2 9974   4.159   9.151   0.783 -0.1246 -0.7081 -0.4702
  135ACOH    C2 9975   4.217   9.190   0.673 -0.9354 -0.1486 -0.2062
  135ACOH    O1 9976   4.302   9.278   0.668  0.3168  0.0354  0.0975
  135ACOH    C1 9977   4.174   9.116   0.551 -1.1012 -0.3787  0.1766
  135ACOH    H1 9978   4.100   9.181   0.505  2.0426  1.3683 -2.6292
  135ACOH    H2 9979   4.112   9.031   0.579 -0.4716 -0.2714  1.9987
  135ACOH    H3 9980   4.253   9.081   0.485 -1.1357  0.7153 -0.4431
  136ACOH    H4 9981   4.727   0.936   0.871  0.9094  0.4702  2.4517
  136ACOH    O2 9982   4.811   0.975   0.841  0.4508 -0.3104  0.0019
  136ACOH    C2 9983   4.896   0.882   0.866  0.3286 -0.4256  0.9120
  136ACOH    O1 9984   4.870   0.771   0.900  0.5750  0.2188  0.1216
  136ACOH    C1 9985   5.034   0.914   0.825 -0.7698 -0.0994 -0.0291
  136ACOH    H1 9986   5.109   0.899   0.903  3.0012  1.0496 -3.2557
  136ACOH    H2 9987   5.045   1.019   0.799 -1.7768 -0.9950 -4.4451
  136ACOH    H3 9988   5.064   0.862   0.734 -1.4224 -2.7776  1.2050
  137ACOH    H4 9989   4.005   2.027   1.206  0.3467 -1.8380 -0.6717
  137ACOH    O2 9990   4.082   2.010   1.263  0.0248 -0.0263  0.3346
  137ACOH    C2 9991   4.175   1.952   1.187 -0.0858  0.1525 -0.1305
  137ACOH    O1 9992   4.156   1.879   1.090 -0.3248  0.0002  0.3173
  137ACOH    C1 9993   4.301   1.971   1.257 -0.4471  0.0252 -0.3224
  137ACOH    H1 9994   4.304   1.893   1.333  2.1977 -0.1417 -0.5621
  137ACOH    H2 9995   4.310   2.071   1.301  0.4425 -0.1428 -0.1187
  137ACOH    H3 9996   4.388   1.969   1.191 -0.2753  1.1222 -0.1412
  138ACOH    H4 9997   4.199   9.727   0.286 -0.0295 -0.2034 -1.1847
  138ACOH    O2 9998   4.168   9.651   0.337  0.0649  0.1134 -0.6466
  138ACOH    C2 9999   4.192   9.535   0.268 -0.1834  0.6987  0.2102
  138ACOH    O110000   4.203   9.524   0.144  0.4960 -0.0467  0.3490
  138ACOH    C110001   4.161   9.414   0.344  0.1583  0.4779  0.1039
  138ACOH    H110002   4.059   9.379   0.331  1.1150 -1.5176 -2.4126
  138ACOH    H210003   4.175   9.428   0.451 -1.5325  0.9062  0.2851
  138ACOH    H310004   4.232   9.340   0.307 -1.5566 -0.2326 -1.8600
  139SOL     OW10005   4.415   0.724   1.745 -0.7487  0.4256 -0.1321
  139SOL    HW110006   4.331   0.735   1.692 -2.7767 -0.0887  2.8799
  139SOL    HW210007   4.455   0.814   1.763 -1.8394  0.8296  0.2816
  140SOL     OW10008   2.706   0.746   0.496 -0.4689 -0.1534  0.2943
  140SOL    HW110009   2.736   0.836   0.528  0.7604 -0.0732 -1.0413
  140SOL    HW210010   2.671   0.693   0.574 -1.0082  1.3935  1.1230
  141SOL     OW10011   2.028   7.347   2.597  0.0959  0.1635  0.1985
  141SOL    HW110012   2.032   7.247   2.605  2.0571  0.0564 -1.6060
  141SOL    HW210013   2.094   7.388   2.660 -0.6372  0.3092  0.8671
  142SOL     OW10014   2.734   9.728   1.289  0.0572 -0.2144  0.5996
  142SOL    HW110015   2.685   9.725   1.202 -0.2229 -0.2725  0.7556
  142SOL    HW210016   2.667   9.726   1.364  0.2628  0.7008  0.8051
  143SOL     OW10017   2.932   1.630   1.554 -0.0478 -0.0567  0.3532
  143SOL    HW110018   2.888   1.540   1.553  2.2910 -1.2374 -0.2930
  143SOL    HW210019   3.023   1.622   1.594  0.4742  1.8835 -0.3886
  144SOL     OW10020   2.887   0.263   1.418 -0.5411 -1.2546 -0.2711
  144SOL    HW110021   2.837   0.209   1.351  1.7465 -1.0288 -2.2219
  144SOL    HW210022   2.973   0.216   1.442 -0.5267 -0.5028  1.1824
  145SOL     OW10023   3.287   2.074   0.432 -0.0978  0.1492 -0.0850
  145SOL    HW110024   3.247   2.105   0.346 -0.5833 -0.9432 -0.2582
  145SOL    HW210025   3.265   2.140   0.505  0.0421  0.9059 -0.7188
  146SOL     OW10026   3.697   2.214   1.116  0.2901  0.1882  0.5231
  146SOL    HW110027   3.622   2.148   1.115  0.2125  0.2780  0.3327
  146SOL    HW210028   3.693   2.270   1.033  0.8212 -0.0937  0.3047
  147SOL     OW10029   3.082   0.477   1.968 -0.7786 -0.1097  0.0094
  147SOL    HW110030   3.046   0.409   2.031 -0.6243  0.0285  0.2448
  147SOL    HW210031   3.145   0.434   1.904  1.0764  0.2243  1.5906
  148SOL     OW10032   2.398   1.231   0.903 -0.1120  0.1778  0.7031
  148SOL    HW110033   2.450   1.248   0.987 -0.2281  0.3139  0.7478
  148SOL    HW210034   2.450   1.264   0.824 -0.0475  0.1419  0.7309
  149SOL     OW10035   2.980   1.002   0.737 -0.1322  0.2353  0.1621
  149SOL    HW110036   3.020   1.094   0.736 -2.7057  1.3946  0.7185
  149SOL    HW210037   3.014   0.952   0.816  2.0076  0.3574 -0.6447
  150SOL     OW10038   2.660   1.304   1.388 -0.0002  0.4758  0.2349
  150SOL    HW110039   2.683   1.228   1.449 -1.8010  0.0958  0.4654
  150SOL    HW210040   2.720   1.301   1.308  0.2013 -0.9536  0.4161
  151SOL     OW10041   3.466   2.065   2.635  0.0400  0.0777  0.2696
  151SOL    HW110042   3.367   2.054   2.641  0.0055 -0.3471 -0.8816
  151SOL    HW210043   3.505   2.076   2.727 -1.0621  0.1901  0.7230
  152SOL     OW10044   3.237   1.997   2.332 -0.0928 -0.3654 -0.2833
  152SOL    HW110045   3.182   2.013   2.250 -0.2652 -1.0677 -0.3068
  152SOL    HW210046   3.179   2.005   2.413 -0.0510 -0.2856 -0.2608
  153SOL     OW10047   4.341   1.124   1.211  0.0112  0.5690  0.3094
  153SOL    HW110048   4.380   1.201   1.262 -0.3693  2.0105 -1.5221
  153SOL    HW210049   4.254   1.152   1.170 -0.4508 -1.0493  0.1463
  154SOL     OW10050   4.013   8.887   0.302  0.4544 -0.1787  0.0750
  154SOL    HW110051   3.966   8.971   0.275  1.8050 -0.0975 -2.2326
  154SOL    HW210052   3.990   8.815   0.237 -0.0948 -1.3931  1.6066
  155SOL     OW10053   3.586   0.883   1.670 -0.0442  0.5251 -0.1888
  155SOL    HW110054   3.497   0.869   1.714  0.2443  0.7646  0.4786
  155SOL    HW210055   3.626   0.795   1.646 -0.6904  0.4306 -0.9612
  156SOL     OW10056   3.458   0.899   0.515 -0.2262 -0.3004 -0.1137
  156SOL    HW110057   3.388   0.967   0.494  0.7060  0.7496  0.1023
  156SOL    HW210058   3.426   0.808   0.490 -1.7520  0.1408  0.2113
  157SOL     OW10059   3.766   1.407   1.222  0.2022  0.3685 -0.3768
  157SOL    HW110060   3.771   1.357   1.135  0.9533 -0.3054  0.0429
  157SOL    HW210061   3.848   1.463   1.232  0.6208 -0.3812  0.3927
  158SOL     OW10062   2.981   9.904   0.242 -0.3281 -0.0681  0.3927
  158SOL    HW110063   2.946   9.812   0.226 -0.1415 -0.0919  0.1209
  158SOL    HW210064   3.078   9.907   0.220 -0.7366  0.6477 -1.3746
  159SOL     OW10065   8.636   2.805   0.521  0.1639  0.4320  0.1639
  159SOL    HW110066   8.658   2.836   0.613  0.6378  2.7920 -0.7235
  159SOL    HW210067   8.583   2.875   0.473  2.6301  0.6180 -2.4401
  160SOL     OW10068   4.177   9.881   1.041 -0.3830  0.4211 -0.2583
  160SOL    HW110069   4.103   9.947   1.050  1.2372  1.9431  2.5860
  160SOL    HW210070   4.261   9.928   1.013  0.3767 -0.7203  0.0455
  161SOL     OW10071   2.813   9.811   1.802  0.5866  0.0837 -0.2360
  161SOL    HW110072   2.851   9.824   1.710  0.0409  1.2156 -0.3101
  161SOL    HW210073   2.842   9.887   1.861 -0.6190  0.3559  0.0143
  162SOL     OW10074   4.465   9.325   2.142  0.2306  0.5346  0.4737
  162SOL    HW110075   4.478   9.364   2.051  1.5116  1.6169  1.0989
  162SOL    HW210076   4.547   9.274   2.167 -0.2302  0.0072  0.9167
  163SOL     OW10077   3.335   8.887   0.135  0.1506 -0.1686 -0.2725
  163SOL    HW110078   3.295   8.894   0.227 -1.2851  0.4254 -0.9343
  163SOL    HW210079   3.310   8.799   0.094  0.3336 -0.2039 -0.3099
  164SOL     OW10080   2.615   0.565   0.692 -0.0261  0.5247 -0.4365
  164SOL    HW110081   2.657   0.605   0.773 -0.8777  2.0647 -0.7491
  164SOL    HW210082   2.518   0.588   0.690  0.0652  0.8044 -2.0799
  165SOL     OW10083   3.228   1.151   1.807  0.0650 -0.0487  0.2084
  165SOL    HW110084   3.271   1.240   1.822  1.0123  0.3000 -3.8912
  165SOL    HW210085   3.130   1.163   1.789 -0.0730  0.0344  1.0270
  166SOL     OW10086   2.578   9.504   2.160  0.1699 -1.1243  0.7395
  166SOL    HW110087   2.605   9.517   2.255 -1.3963  0.6450  0.9693
  166SOL    HW210088   2.564   9.594   2.117 -2.3262 -1.9574 -0.2390
  167SOL     OW10089   2.968   1.180   1.477 -0.1677  0.3044  0.0150
  167SOL    HW110090   3.059   1.214   1.454 -0.7190  0.7764 -1.5171
  167SOL    HW210091   2.952   1.192   1.575  1.9221 -1.0252  0.5413
  168SOL     OW10092   8.364   5.327   1.551 -0.0429  0.2566 -0.4832
  168SOL    HW110093   8.439   5.366   1.498  0.7745 -1.9516 -1.0353
  168SOL    HW210094   8.279   5.333   1.498  0.3069  0.2119 -1.0576
  169SOL     OW10095   2.265   0.614   1.488 -0.0984  0.3027 -0.3451
  169SOL    HW110096   2.254   0.519   1.518  0.2445  0.5227  0.4759
  169SOL    HW210097   2.210   0.629   1.406 -2.4814  0.2041  1.2103
  170SOL     OW10098   4.251   0.624   2.794  0.1530 -0.3376  0.2615
  170SOL    HW110099   4.254   0.570   2.710  1.1171  2.4532 -1.5771
  170SOL    HW210100   4.203   0.573   2.865  1.3641 -3.7505 -1.2424
  171SOL     OW10101   2.278   0.781   1.787  0.7562 -0.0415  0.2258
  171SOL    HW110102   2.269   0.683   1.769 -2.0084  0.1806  0.1235
  171SOL    HW210103   2.284   0.831   1.701  0.0192  0.0328  0.2125
  172SOL     OW10104   3.763   0.473   0.879  0.0771  0.0040  0.4346
  172SOL    HW110105   3.768   0.572   0.895  1.7386 -0.2280  1.4219
  172SOL    HW210106   3.674   0.451   0.839 -0.3229  1.8945  0.2118
  173SOL     OW10107   4.004   0.218   2.830 -0.5793  0.3661 -0.1946
  173SOL    HW110108   3.945   0.276   2.886 -0.3627  0.5926 -0.1965
  173SOL    HW210109   3.952   0.185   2.751 -1.7285 -2.2696  1.5843
  174SOL     OW10110   3.581   9.007   0.298  0.5541  0.0507  0.3248
  174SOL    HW110111   3.663   9.024   0.243  0.2637  1.1444  0.2050
  174SOL    HW210112   3.503   8.991   0.238  0.2885  0.9904  0.4006
  175SOL     OW10113   2.969   9.630   0.243  0.4445  0.1804 -0.6187
  175SOL    HW110114   3.028   9.604   0.320  1.6738  0.9075 -1.3160
  175SOL    HW210115   2.896   9.562   0.233  0.6201 -0.2402  0.8114
  176SOL     OW10116   2.828   0.956   1.481 -0.5407  0.5560  0.5120
  176SOL    HW110117   2.741   0.957   1.529 -1.3856 -0.6120 -0.9529
  176SOL    HW210118   2.863   1.050   1.473 -1.7816  1.0546  0.8903
  177SOL     OW10119   2.585   0.584   2.367 -0.2413 -0.3977  0.2854
  177SOL    HW110120   2.577   0.563   2.465  1.4048 -0.8721  0.3413
  177SOL    HW210121   2.525   0.661   2.344 -0.2583  0.0538  1.7775
  178SOL     OW10122   3.354   0.807   1.261 -0.1492  0.1351  0.1947
  178SOL    HW110123   3.304   0.832   1.178 -0.6189  0.2073  0.5048
  178SOL    HW210124   3.432   0.870   1.272 -0.6582  0.7447  0.3444
  179SOL     OW10125   3.493   0.527   1.397  0.6600  0.0456 -0.1133
  179SOL    HW110126   3.413   0.550   1.453  0.6429 -0.3183  0.0088
  179SOL    HW210127   3.466   0.521   1.301  0.4392 -0.5928 -0.0105
  180SOL     OW10128   3.585   0.973   1.246  0.2754  0.3739  1.1388
  180SOL    HW110129   3.663   0.945   1.301 -0.0371 -0.7798  1.0117
  180SOL    HW210130   3.608   1.056   1.194  0.7378  1.1910  2.6066
  181SOL     OW10131   3.325   1.802   0.487  0.1967  0.5041 -0.2490
  181SOL    HW110132   3.339   1.901   0.485 -1.0081  0.7592  2.3070
  181SOL    HW210133   3.234   1.781   0.452  0.5707  0.2655 -1.0855
  182SOL     OW10134   3.145   9.771   1.764 -0.2641 -0.1645  0.0157
  182SOL    HW110135   3.135   9.681   1.807 -0.1115  0.0961  0.5988
  182SOL    HW210136   3.141   9.842   1.834  1.1972  0.1927 -0.2590
  183SOL     OW10137   3.913   0.035   1.526  0.1714  0.0965  0.4402
  183SOL    HW110138   3.844   0.076   1.585  0.2993  0.3492  0.4176
  183SOL    HW210139   3.939   0.101   1.455 -0.8852 -0.6364 -0.6591
  184SOL     OW10140   4.350   1.218   2.159 -0.8882 -0.3018  0.0458
  184SOL    HW110141   4.381   1.159   2.233 -0.1710 -1.2503 -0.9972
  184SOL    HW210142   4.316   1.304   2.197 -0.5741 -0.7935  1.4691
  185SOL     OW10143   2.858   1.241   1.226 -0.3359  0.4509  0.3173
  185SOL    HW110144   2.914   1.174   1.177 -1.7217 -0.3403 -0.2130
  185SOL    HW210145   2.900   1.260   1.315 -0.4706 -1.9947  0.9565
  186SOL     OW10146   3.390   9.663   1.972  0.2628 -0.3365  0.1658
  186SOL    HW110147   3.466   9.689   1.912  0.8078 -1.5342  0.3172
  186SOL    HW210148   3.427   9.617   2.053 -0.7132 -2.6048 -0.6223
  187SOL     OW10149   2.651   0.206   2.040  0.9449 -0.0443  0.2727
  187SOL    HW110150   2.728   0.215   1.977  0.2573 -3.8711 -1.2698
  187SOL    HW210151   2.597   0.290   2.039  1.5793  0.4183 -3.4560
  188SOL     OW10152   3.496   9.455   2.652 -0.6738  0.0933 -0.2467
  188SOL    HW110153   3.540   9.541   2.680 -2.7691  1.3820 -0.8378
  188SOL    HW210154   3.404   9.451   2.690  0.1887 -2.9696  1.6467
  189SOL     OW10155   4.454   0.828   2.381 -0.1343 -0.3214  0.2231
  189SOL    HW110156   4.511   0.776   2.318 -1.2960 -1.5952  0.2079
  189SOL    HW210157   4.489   0.816   2.474 -1.3659 -2.5040  0.4350
  190SOL     OW10158   2.987   9.638   1.353  0.3550  0.3765 -0.0733
  190SOL    HW110159   3.038   9.642   1.267  2.4618  0.3977  1.1346
  190SOL    HW210160   2.889   9.640   1.334  0.7900  0.5587 -2.4542
  191SOL     OW10161   2.961   1.991   1.423 -0.5087 -0.8138 -0.3134
  191SOL    HW110162   2.954   2.042   1.509 -1.9554  1.3588 -1.6702
  191SOL    HW210163   3.043   1.934   1.425  1.8242  2.4199  0.8442
  192SOL     OW10164   2.562   0.237   1.271 -0.7604 -0.5242  0.0292
  192SOL    HW110165   2.561   0.247   1.371  0.4428 -0.9261  0.0944
  192SOL    HW210166   2.547   0.327   1.229  0.2169 -0.0874  0.5794
  193SOL     OW10167   4.007   0.200   1.305 -0.7457 -0.0168 -0.5422
  193SOL    HW110168   3.957   0.286   1.309 -1.2080 -0.3295  0.3608
  193SOL    HW210169   3.970   0.143   1.232 -1.9655 -0.4126  0.3836
  194SOL     OW10170   2.987   9.803   1.562  0.8450  0.4795  0.7191
  194SOL    HW110171   3.051   9.768   1.631  2.7899  0.8070 -0.8652
  194SOL    HW210172   3.001   9.754   1.476 -1.3557  0.2748  0.4485
  195SOL     OW10173   3.919   0.413   2.571  0.9215  0.4668 -0.1835
  195SOL    HW110174   3.843   0.359   2.608  0.6443 -1.2354 -3.0734
  195SOL    HW210175   4.006   0.372   2.598  0.7270 -0.5056 -0.9957
  196SOL     OW10176   4.417   0.521   1.435 -0.5989  0.1522 -0.6020
  196SOL    HW110177   4.456   0.445   1.487 -1.0579  0.8798  0.8050
  196SOL    HW210178   4.482   0.549   1.364  1.2620  1.0119  1.3945
  197SOL     OW10179   3.670   1.236   0.998 -0.4890  0.2873  0.3846
  197SOL    HW110180   3.584   1.258   0.952 -0.7942 -0.5423  0.5380
  197SOL    HW210181   3.736   1.201   0.931 -0.9725 -1.0319  0.5760
  198SOL     OW10182   3.912   9.653   1.259  0.4586  0.3436 -0.3847
  198SOL    HW110183   3.990   9.617   1.208  0.4462 -0.1190 -0.0802
  198SOL    HW210184   3.828   9.637   1.207  0.5637  0.8477 -0.7155
  199SOL     OW10185   2.862   0.004   1.252 -0.1220  0.0493 -0.4737
  199SOL    HW110186   2.847  -0.087   1.290  2.1748 -0.5396 -0.8876
  199SOL    HW210187   2.800   0.019   1.175 -1.6593 -0.5125  0.6564
  200SOL     OW10188   3.058   0.128   2.228  0.0311 -0.2923 -0.6923
  200SOL    HW110189   3.151   0.154   2.202  0.1381 -1.1455 -1.1648
  200SOL    HW210190   3.061   0.047   2.286 -0.3427  0.4005  0.3065
  201SOL     OW10191   3.668   9.669   1.103 -0.5455  0.1301 -0.4448
  201SOL    HW110192   3.736   9.687   1.032  0.5188 -1.1100  0.2487
  201SOL    HW210193   3.589   9.623   1.063 -0.0909 -0.2707 -0.8778
  202SOL     OW10194   2.440   0.810   2.321  0.1462  0.0713 -0.0995
  202SOL    HW110195   2.359   0.759   2.292 -0.0496 -0.5967  1.5785
  202SOL    HW210196   2.421   0.908   2.316 -0.9103 -0.0839  0.6521
  203SOL     OW10197   4.127   0.860   2.709 -0.0281  0.5330 -0.0159
  203SOL    HW110198   4.099   0.887   2.801 -1.8480 -1.1747 -0.0208
  203SOL    HW210199   4.199   0.791   2.715  0.2735  0.8567  0.1084
  204SOL     OW10200   3.447   9.977   0.360 -0.4869  0.6504  0.1286
  204SOL    HW110201   3.436   9.902   0.426 -0.8512  0.7626  0.2004
  204SOL    HW210202   3.429  10.064   0.406 -2.0331  0.6393 -0.4162
  205SOL     OW10203   2.985   0.878   1.021  0.3123 -0.3812  0.1722
  205SOL    HW110204   2.964   0.889   1.118  0.2748 -1.6934  0.3131
  205SOL    HW210205   3.084   0.868   1.010  0.5277  1.8084 -0.1265
  206SOL     OW10206   2.873   0.711   0.809  0.3125 -0.0456  0.1316
  206SOL    HW110207   2.930   0.750   0.881  0.6391 -0.8630  0.3211
  206SOL    HW210208   2.777   0.721   0.833  0.4194 -0.2669  0.6549
  207SOL     OW10209   3.459   0.200   0.170 -0.1289 -0.3294  0.3476
  207SOL    HW110210   3.383   0.148   0.130  0.1727 -1.9451  1.7897
  207SOL    HW210211   3.454   0.194   0.270  1.9796 -0.5883  0.4578
  208SOL     OW10212   2.944   1.209   1.747  0.1083 -0.0492  0.6784
  208SOL    HW110213   2.870   1.271   1.721  0.1521 -0.0354  0.5870
  208SOL    HW210214   2.931   1.179   1.841 -1.0160 -1.4680  0.0981
  209SOL     OW10215   3.066   0.632   2.775  0.3287  0.3522 -0.0561
  209SOL    HW110216   3.107   0.604   2.688 -2.2066 -0.0071 -1.1771
  209SOL    HW210217   3.079   0.730   2.788  3.0169 -0.0335  0.4637
  210SOL     OW10218   3.715   9.931   1.282 -0.3407 -0.3882 -0.1096
  210SOL    HW110219   3.664   9.947   1.366 -0.6100 -1.0953 -0.1372
  210SOL    HW210220   3.707   9.835   1.255  0.0017 -0.2372 -0.7733
  211SOL     OW10221   3.311   9.729   1.358 -0.0127 -0.5563 -0.3933
  211SOL    HW110222   3.248   9.748   1.283 -0.8144 -2.1995 -0.1623
  211SOL    HW210223   3.287   9.642   1.401  1.2272 -0.2647  0.9536
  212SOL     OW10224   2.925   9.525   1.800  0.3329  0.0310  0.3188
  212SOL    HW110225   2.846   9.491   1.852 -0.0623 -0.4533 -0.5869
  212SOL    HW210226   2.901   9.611   1.756  0.3237 -0.0870  0.0911
  213SOL     OW10227   3.174   2.052   0.163 -0.4218 -0.5314  0.3101
  213SOL    HW110228   3.224   1.984   0.109 -0.4396 -0.4812  0.2292
  213SOL    HW210229   3.110   2.100   0.103  0.0785  0.0330  0.2208
  214SOL     OW10230   7.662   7.745   1.416 -0.0077  0.1572 -0.3866
  214SOL    HW110231   7.588   7.688   1.452 -0.5507  1.2996  0.3320
  214SOL    HW210232   7.735   7.686   1.381  0.2133 -0.9782  1.9386
  215SOL     OW10233   4.181   9.564   1.469  0.1629 -0.1325  0.0176
  215SOL    HW110234   4.152   9.543   1.563 -2.1138 -1.3147 -0.9188
  215SOL    HW210235   4.122   9.636   1.432  0.2806 -0.5308 -0.9436
  216SOL     OW10236   2.717   1.860   1.627  0.0808  0.1351  0.1594
  216SOL    HW110237   2.765   1.947   1.618  1.2608 -0.5574 -0.3480
  216SOL    HW210238   2.714   1.815   1.538 -1.6222  0.2113  0.1563
  217SOL     OW10239   3.433   0.947   0.815  0.3396 -0.6622 -0.6662
  217SOL    HW110240   3.435   0.921   0.719  1.0743  1.3746 -1.2259
  217SOL    HW210241   3.523   0.933   0.856  0.5120  0.1296 -0.7538
  218SOL     OW10242   3.191   0.168   2.856  0.0479 -0.2887 -0.2748
  218SOL    HW110243   3.149   0.254   2.886 -0.6278 -0.4403 -0.7672
  218SOL    HW210244   3.203   0.108   2.934 -0.4447 -0.1529 -0.0911
  219SOL     OW10245   2.710   0.320   2.451  0.3604 -0.0406 -0.1785
  219SOL    HW110246   2.687   0.231   2.411  0.7920  0.2043 -0.9833
  219SOL    HW210247   2.697   0.392   2.383 -2.0999  0.7907  1.1017
  220SOL     OW10248   2.214   0.340   1.615 -0.2484 -0.0367 -0.5527
  220SOL    HW110249   2.280   0.267   1.629  0.0950  0.7113  1.9389
  220SOL    HW210250   2.131   0.320   1.667 -0.2779  1.1702 -0.1195
  221SOL     OW10251   3.701   9.649   2.025  0.2413 -0.2821 -0.5935
  221SOL    HW110252   3.783   9.650   1.968  0.1998  1.2480 -0.6478
  221SOL    HW210253   3.652   9.564   2.010  2.4709 -1.7827  0.3908
  222SOL     OW10254   2.630   1.197   2.357 -0.4158  0.2139  0.9456
  222SOL    HW110255   2.704   1.137   2.325 -0.1972  1.1557 -0.3774
  222SOL    HW210256   2.577   1.150   2.427  1.2743 -0.5828  1.7130
  223SOL     OW10257   3.656   8.954   0.573 -0.3742  0.2224 -0.7319
  223SOL    HW110258   3.743   8.918   0.537 -0.3704 -1.3779  0.8004
  223SOL    HW210259   3.590   8.961   0.498  0.5263 -0.2566 -1.6021
  224SOL     OW10260   2.735   9.410   1.958  0.0852  0.2876  0.9850
  224SOL    HW110261   2.782   9.333   2.001  0.0539  0.9078  2.1576
  224SOL    HW210262   2.661   9.441   2.018 -1.4605 -0.3154 -0.5910
  225SOL     OW10263   3.491   9.962   1.493 -0.3198 -0.8254 -0.2451
  225SOL    HW110264   3.503   9.910   1.578 -1.2953 -0.1821  0.2836
  225SOL    HW210265   3.402   9.941   1.453 -1.2445  1.3646  0.6097
  226SOL     OW10266   3.273   1.761   2.032 -0.2052 -0.0691 -0.5050
  226SOL    HW110267   3.345   1.768   1.962 -0.9563  1.0421 -1.1820
  226SOL    HW210268   3.287   1.678   2.085  0.8112 -0.5606 -1.5067
  227SOL     OW10269   2.596   9.758   1.956  0.7635 -0.3909  0.0523
  227SOL    HW110270   2.682   9.769   1.907  0.9037  0.9586  0.5756
  227SOL    HW210271   2.542   9.842   1.947  0.2851 -0.5608  1.2482
  228SOL     OW10272   3.808   0.359   1.562 -0.3214 -0.1995 -0.0116
  228SOL    HW110273   3.721   0.315   1.540 -0.0620 -1.0602  0.6577
  228SOL    HW210274   3.832   0.340   1.657 -0.0748  1.1809  0.2253
  229SOL     OW10275   3.228   0.681   1.460 -0.5550 -0.5667  0.1125
  229SOL    HW110276   3.183   0.735   1.531 -1.2200 -0.9016 -0.0524
  229SOL    HW210277   3.264   0.742   1.390 -0.5615 -0.2805  0.3586
  230SOL     OW10278   3.301   8.880   0.409 -0.4903  0.1127  0.1896
  230SOL    HW110279   3.240   8.836   0.476  1.1957 -1.3631  0.7840
  230SOL    HW210280   3.367   8.938   0.456 -0.8170  0.9775 -0.3940
  231SOL     OW10281   3.908   8.840   0.537 -0.6995  0.3185 -0.5516
  231SOL    HW110282   3.912   8.791   0.624 -3.8586  0.7227 -0.1145
  231SOL    HW210283   3.993   8.827   0.488  0.2134 -1.9490  1.5196
  232SOL     OW10284   3.399   9.067   0.593  0.4346 -0.0666 -0.2690
  232SOL    HW110285   3.405   9.101   0.687  0.9298  0.0724 -0.3549
  232SOL    HW210286   3.422   9.140   0.529 -1.3661  0.2718 -0.5570
  233SOL     OW10287   4.417   0.173   1.823  0.1633 -0.1317  0.2642
  233SOL    HW110288   4.412   0.228   1.739 -1.4186  0.5040  0.7519
  233SOL    HW210289   4.444   0.231   1.899 -1.4084 -0.0556  0.7639
  234SOL     OW10290   2.797   1.009   0.557 -0.6996  0.2045  0.1363
  234SOL    HW110291   2.789   1.106   0.535  1.1584  0.5139  0.7158
  234SOL    HW210292   2.860   0.998   0.634 -1.1070 -1.4412  0.2453
  235SOL     OW10293   2.341   0.923   1.992  0.4273 -0.0324 -0.3610
  235SOL    HW110294   2.378   1.015   1.973 -0.5385  0.3254 -0.5504
  235SOL    HW210295   2.313   0.880   1.906 -2.7118  1.0531  0.0482
  236SOL     OW10296   4.429   1.682   1.734  0.1442 -0.0451  0.6553
  236SOL    HW110297   4.483   1.759   1.767 -1.2825  1.1837  0.1719
  236SOL    HW210298   4.424   1.686   1.634 -2.2985  0.8831  0.7827
  237SOL     OW10299   2.572   0.563   1.202 -0.1796 -0.8567  0.2986
  237SOL    HW110300   2.527   0.614   1.275 -1.0859 -1.9167  0.4884
  237SOL    HW210301   2.668   0.547   1.227  1.4098  4.4572 -1.6567
  238SOL     OW10302   3.464   2.305   1.457 -0.1043  0.0045  0.2400
  238SOL    HW110303   3.381   2.302   1.403 -2.9632  3.8400  4.0914
  238SOL    HW210304   3.445   2.272   1.550  3.4406 -1.8160  0.4171
  239SOL     OW10305   3.429   9.778   1.714 -0.0123 -0.1458  0.6057
  239SOL    HW110306   3.479   9.849   1.764 -0.3581  2.5631 -2.7314
  239SOL    HW210307   3.331   9.786   1.733  0.1920 -1.6590  2.4858
  240SOL     OW10308   2.648   1.099   1.641  0.1361  0.5179  0.8763
  240SOL    HW110309   2.555   1.126   1.619  0.2427  0.0343 -0.1836
  240SOL    HW210310   2.646   1.028   1.712 -0.4547 -1.5777 -1.1648
  241SOL     OW10311   3.553   0.234   1.481 -0.6319 -0.1889 -0.0490
  241SOL    HW110312   3.486   0.285   1.427 -1.9693 -0.4335  1.3470
  241SOL    HW210313   3.525   0.138   1.487 -1.7910  0.2714  2.9933
  242SOL     OW10314   2.245   0.162   1.995  0.7076 -0.0095  0.4304
  242SOL    HW110315   2.193   0.203   1.920  1.1466 -0.4763 -0.1267
  242SOL    HW210316   2.244   0.225   2.074  0.0926  0.3943  0.1059
  243SOL     OW10317   4.159   0.280   1.702  0.3617  0.1810 -0.2342
  243SOL    HW110318   4.170   0.207   1.634 -1.0989  0.2146 -0.5332
  243SOL    HW210319   4.169   0.242   1.794  0.4700 -0.2300 -0.4146
  244SOL     OW10320   3.184   9.447   1.770  0.9089 -0.0918  0.6450
  244SOL    HW110321   3.210   9.451   1.867  0.1819  1.6563  0.7922
  244SOL    HW210322   3.084   9.446   1.763  0.9629 -0.7933 -0.0756
  245SOL     OW10323   3.057   1.930   2.534 -0.1644  0.2924  0.1586
  245SOL    HW110324   2.977   1.989   2.536  0.1518  0.6846  2.6633
  245SOL    HW210325   3.028   1.834   2.534 -0.6461  0.4094 -2.1358
  246SOL     OW10326   4.576   7.967   0.636  0.1558  0.0722  0.0647
  246SOL    HW110327   4.579   7.960   0.735  0.6003  0.1814  0.0618
  246SOL    HW210328   4.569   8.063   0.609  0.8015  0.0993 -0.0203
  247SOL     OW10329   4.327   1.274   1.913 -0.5981  0.1769 -0.4520
  247SOL    HW110330   4.315   1.243   2.008 -1.5515  0.4278 -0.4853
  247SOL    HW210331   4.422   1.260   1.886 -0.7598 -1.7402 -0.1141
  248SOL     OW10332   4.556   0.908   0.874  0.2984 -0.0999 -0.6714
  248SOL    HW110333   4.484   0.911   0.942  0.7637  0.0991 -0.1841
  248SOL    HW210334   4.522   0.865   0.790  0.1469 -1.6936  0.1915
  249SOL     OW10335   3.304   0.903   1.761  0.5144 -0.0622  0.0295
  249SOL    HW110336   3.229   0.849   1.723 -0.6535  0.6451  1.2594
  249SOL    HW210337   3.289   1.000   1.741  1.4222  0.0265 -0.2437
  250SOL     OW10338   3.080   0.180   1.869 -0.4904 -0.2198 -0.1798
  250SOL    HW110339   3.027   0.252   1.824  1.4381  1.9236  0.8485
  250SOL    HW210340   3.175   0.187   1.839 -0.3426 -2.5833 -0.3139
  251SOL     OW10341   3.623   1.523   0.779  0.0952  0.2693  0.2648
  251SOL    HW110342   3.551   1.590   0.761  0.1426  0.8688  2.1531
  251SOL    HW210343   3.705   1.571   0.809  1.0726 -0.4667 -1.1871
  252SOL     OW10344   2.776   1.790   1.370  0.6729  0.1383 -0.1215
  252SOL    HW110345   2.829   1.721   1.419  1.6025  0.1234 -1.1327
  252SOL    HW210346   2.814   1.881   1.387 -0.4479  0.4012  1.0722
  253SOL     OW10347   2.679   0.226   0.878  0.5361  0.2245 -1.0257
  253SOL    HW110348   2.766   0.255   0.837  0.0911  1.9513 -0.7797
  253SOL    HW210349   2.607   0.230   0.810  0.2276  0.9434 -0.6628
  254SOL     OW10350   2.861   2.070   2.359  0.2966  0.2724 -0.0965
  254SOL    HW110351   2.802   2.016   2.299 -0.9171 -0.4566  1.7271
  254SOL    HW210352   2.915   2.134   2.303  0.4281 -1.5339 -2.1177
  255SOL     OW10353   2.059   0.346   1.871 -0.0397 -0.0442 -0.0938
  255SOL    HW110354   2.101   0.390   1.950 -3.0208 -2.8943  3.2182
  255SOL    HW210355   1.965   0.379   1.860  0.0123 -0.4151 -1.9088
  256SOL     OW10356   4.305   1.128   0.156  0.1069  0.7117 -0.3606
  256SOL    HW110357   4.348   1.153   0.069 -0.3305 -0.0644 -0.8043
  256SOL    HW210358   4.375   1.092   0.218  0.1298 -0.3998 -1.0231
  257SOL     OW10359   2.543   1.580   0.236  0.7245  0.0852  0.2006
  257SOL    HW110360   2.484   1.660   0.235  0.4033 -0.1314  1.5361
  257SOL    HW210361   2.637   1.607   0.217  0.2406  0.4576 -1.7313
  258SOL     OW10362   2.700   0.100   2.307 -0.9389 -0.5589 -0.3516
  258SOL    HW110363   2.753   0.016   2.316  0.0950 -0.3458 -3.6211
  258SOL    HW210364   2.656   0.102   2.217 -2.1204  1.7640  0.2313
  259SOL     OW10365   3.131   2.128   2.762 -0.1782  0.2050 -0.3864
  259SOL    HW110366   3.052   2.117   2.701  0.5544  0.6574 -1.4337
  259SOL    HW210367   3.168   2.220   2.751  0.5341 -0.0317  0.0573
  260SOL     OW10368   2.889   0.573   2.329  0.2304 -0.0921  0.1603
  260SOL    HW110369   2.802   0.617   2.352 -0.1867  1.6731 -4.3619
  260SOL    HW210370   2.872   0.481   2.295 -0.0086  0.4816 -1.3382
  261SOL     OW10371   2.700   0.884   2.671 -0.0087  0.2435  0.0694
  261SOL    HW110372   2.606   0.857   2.692 -0.7239  3.0019  0.6719
  261SOL    HW210373   2.752   0.805   2.639 -2.3703 -1.4356  0.2994
  262SOL     OW10374   2.528   9.844   1.519 -0.7544 -0.0729 -0.6625
  262SOL    HW110375   2.463   9.879   1.451 -1.5056 -1.6564 -0.7656
  262SOL    HW210376   2.481   9.781   1.581  0.9167 -2.1805 -1.4735
  263SOL     OW10377   2.962   1.641   2.574  0.7537 -0.1690 -0.0537
  263SOL    HW110378   3.043   1.591   2.603  0.2167 -0.2776  1.2595
  263SOL    HW210379   2.963   1.649   2.474  0.5316 -3.3451 -0.3662
  264SOL     OW10380   2.915   9.759   0.984 -0.0332  0.1542  0.0187
  264SOL    HW110381   2.929   9.676   0.931  0.8088  0.5481 -0.3883
  264SOL    HW210382   2.830   9.752   1.037  1.1360 -1.8604  1.6962
  265SOL     OW10383   3.815   0.569   1.945  0.2694  0.2591 -0.3597
  265SOL    HW110384   3.899   0.582   1.892  0.5684  2.4316  0.5765
  265SOL    HW210385   3.834   0.513   2.025  0.3216 -1.1083 -1.3147
  266SOL     OW10386   4.448   1.094   0.545 -0.2693 -0.3614 -0.5794
  266SOL    HW110387   4.445   1.004   0.588  1.5595 -0.9066 -1.5251
  266SOL    HW210388   4.499   1.157   0.603 -0.5471 -0.2471 -0.4598
  267SOL     OW10389   3.581   0.096   0.776  0.2172 -0.7577 -0.2140
  267SOL    HW110390   3.524   0.124   0.853  0.9379 -0.3890  0.1890
  267SOL    HW210391   3.664   0.152   0.773  0.0254 -0.5305 -1.4762
  268SOL     OW10392   3.309   0.205   2.288 -0.7162  0.3769  0.1075
  268SOL    HW110393   3.395   0.251   2.267 -0.8411  0.6301  0.1502
  268SOL    HW210394   3.300   0.195   2.388 -0.3605 -0.3717  0.0653
  269SOL     OW10395   4.451   0.860   2.653 -0.5586 -0.0962 -0.5617
  269SOL    HW110396   4.431   0.789   2.720 -3.0536  0.3181 -0.8086
  269SOL    HW210397   4.478   0.944   2.700 -1.4861 -0.0549 -0.0869
  270SOL     OW10398   3.008   0.631   0.577 -0.3123 -0.1839  0.3536
  270SOL    HW110399   2.960   0.592   0.498 -1.7824  0.7879  0.7354
  270SOL    HW210400   2.941   0.658   0.646  0.6178  3.1268  0.0482
  271SOL     OW10401   3.561   9.659   1.345  0.3538 -0.1664 -0.4204
  271SOL    HW110402   3.612   9.667   1.260 -1.4081  1.5732 -1.3580
  271SOL    HW210403   3.471   9.702   1.334  0.4852  0.9736  2.6281
  272SOL     OW10404   4.060   1.376   1.919  0.2107 -0.4528 -0.4180
  272SOL    HW110405   3.992   1.327   1.865 -0.6135 -2.7367  2.5814
  272SOL    HW210406   4.149   1.331   1.910  0.2574 -0.3390 -0.5225
  273SOL     OW10407   3.536   0.503   0.121 -0.3771  0.8550  0.8180
  273SOL    HW110408   3.491   0.415   0.138  0.1624  0.5473  0.6500
  273SOL    HW210409   3.578   0.536   0.206  0.9317  0.0990  0.4650
  274SOL     OW10410   2.713   1.650   2.627 -0.2230  0.1504  1.5455
  274SOL    HW110411   2.673   1.559   2.635 -0.4896  0.0916 -0.1153
  274SOL    HW210412   2.811   1.642   2.611 -0.1611  0.1765  1.9054
  275SOL     OW10413   3.271   9.955   0.161 -0.6299 -0.2161  0.4667
  275SOL    HW110414   3.265   9.871   0.108 -1.2328 -0.9298  1.6419
  275SOL    HW210415   3.346   9.949   0.226 -1.4527 -0.3450  1.4094
  276SOL     OW10416   3.506   1.928   2.377  0.3376  0.8540 -0.2975
  276SOL    HW110417   3.441   1.965   2.311  1.6259  1.4690 -1.2420
  276SOL    HW210418   3.485   1.965   2.468  0.2963  2.2459 -0.8633
  277SOL     OW10419   3.686   0.626   1.563 -0.1021 -0.5431 -0.3943
  277SOL    HW110420   3.633   0.611   1.480  0.5765 -0.6639 -0.8061
  277SOL    HW210421   3.676   0.547   1.623 -3.2335  0.8948  1.1036
  278SOL     OW10422   2.876   0.327   2.187 -0.0107 -0.4254 -0.3681
  278SOL    HW110423   2.785   0.306   2.152  0.7260 -1.1765 -1.8537
  278SOL    HW210424   2.921   0.242   2.216  0.7172 -0.2043 -0.8490
  279SOL     OW10425   2.982   0.271   1.148 -0.2862 -0.6744 -0.1202
  279SOL    HW110426   2.892   0.287   1.107 -0.2074 -0.7659 -0.3325
  279SOL    HW210427   2.996   0.334   1.224 -0.4923 -0.5984 -0.1441
  280SOL     OW10428   3.227   1.862   2.802 -0.8781 -0.5381 -0.2139
  280SOL    HW110429   3.222   1.799   2.724  0.0366  0.1019 -0.8032
  280SOL    HW210430   3.204   1.954   2.772 -2.4975 -0.6158  0.7096
  281SOL     OW10431   3.494   0.034   2.116  0.9218  0.0910  0.1949
  281SOL    HW110432   3.467   0.111   2.174 -1.1021 -0.5397  0.1331
  281SOL    HW210433   3.568  -0.017   2.159 -0.6589 -0.4611  2.2868
  282SOL     OW10434   3.153   1.276   2.558  0.1377  0.0221 -0.0865
  282SOL    HW110435   3.243   1.270   2.600 -0.6487  0.5565  1.7186
  282SOL    HW210436   3.086   1.228   2.615 -1.0106  1.0360 -0.5611
  283SOL     OW10437   4.386   0.048   0.975 -0.1085  0.5492 -0.3405
  283SOL    HW110438   4.479   0.075   0.999 -0.1920  1.0002 -0.5249
  283SOL    HW210439   4.351   0.108   0.904 -0.3192 -0.0088 -0.7080
  284SOL     OW10440   3.642   0.544   0.378 -0.3337 -0.1756 -0.1449
  284SOL    HW110441   3.549   0.576   0.397 -0.6317 -0.9322 -0.3312
  284SOL    HW210442   3.706   0.621   0.386 -0.9553  0.3156  0.1189
  285SOL     OW10443   3.924   8.931   1.978  0.2879 -0.4548 -0.0843
  285SOL    HW110444   3.962   8.985   1.903 -1.1874 -1.2953 -1.4683
  285SOL    HW210445   3.887   8.846   1.942 -2.9410  0.3512  1.1830
  286SOL     OW10446   4.111   9.622   2.060 -0.0975  1.0952 -0.2318
  286SOL    HW110447   4.150   9.679   2.133  0.3254  0.6641 -0.1211
  286SOL    HW210448   4.142   9.528   2.071  0.0372  1.0426 -1.0263
  287SOL     OW10449   2.462   0.983   0.495  0.1172 -0.0205  0.0201
  287SOL    HW110450   2.552   1.026   0.492  0.5960 -1.0677 -1.2978
  287SOL    HW210451   2.419   1.000   0.584  1.4309  0.8478  0.4979
  288SOL     OW10452   3.871   0.532   0.170 -0.2313 -0.0570  0.5106
  288SOL    HW110453   3.840   0.439   0.155 -0.7853  0.6046 -2.7705
  288SOL    HW210454   3.798   0.596   0.143  1.9316  1.3928 -2.1269
  289SOL     OW10455   3.387   0.616   0.449  0.2345 -0.1599 -0.2721
  289SOL    HW110456   3.309   0.598   0.389 -1.0436  0.4050  1.1786
  289SOL    HW210457   3.363   0.593   0.544  0.3515  3.8992  0.8559
  290SOL     OW10458   3.674   0.186   2.536 -0.5093  0.1080 -0.0110
  290SOL    HW110459   3.634   0.137   2.614  0.5304  1.2137  1.2456
  290SOL    HW210460   3.617   0.264   2.513  0.0762  0.7703  0.7593
  291SOL     OW10461   4.367   1.548   1.978 -0.3858  0.2225  0.2277
  291SOL    HW110462   4.352   1.450   1.964 -0.8175  0.3035  0.1204
  291SOL    HW210463   4.401   1.589   1.894 -0.9305  0.3055  0.0445
  292SOL     OW10464   4.040   8.863   1.721  0.3837 -0.6915  0.1413
  292SOL    HW110465   4.097   8.788   1.687 -1.5663 -1.8156 -0.7892
  292SOL    HW210466   3.999   8.911   1.644 -2.7470 -2.1914  0.7755
  293SOL     OW10467   3.324   1.603   1.410 -0.4452  0.4098 -0.1449
  293SOL    HW110468   3.402   1.544   1.390  0.8508  1.8124  0.6185
  293SOL    HW210469   3.258   1.597   1.335 -0.1464 -1.6480 -0.2737
  294SOL     OW10470   3.749   0.941   0.835  0.2336 -0.0422 -0.2684
  294SOL    HW110471   3.795   1.012   0.888  0.6823  0.8688 -1.8253
  294SOL    HW210472   3.727   0.976   0.744 -3.0291 -0.6720  0.2106
  295SOL     OW10473   3.320   9.836   2.190 -0.7110 -0.0080 -0.0859
  295SOL    HW110474   3.322   9.768   2.118 -0.2190 -2.2052  1.9412
  295SOL    HW210475   3.392   9.904   2.174  3.8874 -4.1273  1.6888
  296SOL     OW10476   4.160   0.220   1.960 -0.3014 -0.5748 -0.0508
  296SOL    HW110477   4.258   0.239   1.949 -0.0294 -1.3314  1.0055
  296SOL    HW210478   4.138   0.214   2.057 -1.0938 -1.9046 -0.3027
  297SOL     OW10479   3.051   2.213   2.175  0.0963 -1.0500 -0.4334
  297SOL    HW110480   3.073   2.121   2.144 -0.5695 -1.1887 -0.5208
  297SOL    HW210481   3.133   2.270   2.172  0.3884 -1.4864 -0.9365
  298SOL     OW10482   2.222   7.420   2.785  0.0399  0.0368  0.1853
  298SOL    HW110483   2.191   7.420   2.879 -0.3296  2.0385  0.0704
  298SOL    HW210484   2.321   7.408   2.782  0.0853  0.2793  0.8337
  299SOL     OW10485   2.088   0.872   0.139 -0.2086 -0.3136  0.0543
  299SOL    HW110486   2.180   0.888   0.176  0.6313  0.2847 -2.1753
  299SOL    HW210487   2.042   0.960   0.125 -0.2712 -0.4863 -0.8652
  300SOL     OW10488   3.205   0.790   0.700  0.2123  0.4128 -0.4177
  300SOL    HW110489   3.127   0.742   0.659 -0.0881  0.1090  0.5131
  300SOL    HW210490   3.206   0.884   0.667 -0.9505  0.6145  0.0825
  301SOL     OW10491   3.775   1.258   1.462 -0.4988  0.3736 -0.1272
  301SOL    HW110492   3.694   1.200   1.468 -0.0271 -0.2466  0.3204
  301SOL    HW210493   3.786   1.291   1.368  0.9440 -2.7632 -1.1169
  302SOL     OW10494   4.225   0.538   2.385 -0.3282 -0.6157 -0.2723
  302SOL    HW110495   4.184   0.619   2.427  0.8399 -0.3088  0.2899
  302SOL    HW210496   4.301   0.566   2.327 -1.0566 -1.1646 -1.5124
  303SOL     OW10497   2.904   9.737   2.102 -0.1142 -0.4643  0.1859
  303SOL    HW110498   2.958   9.665   2.059 -0.7544  0.2633 -1.8681
  303SOL    HW210499   2.903   9.818   2.044 -0.9622  0.5540  1.5876
  304SOL     OW10500   3.774   0.925   1.416 -0.1847  0.8298 -0.4681
  304SOL    HW110501   3.741   0.913   1.510 -0.8321 -0.0049 -0.8016
  304SOL    HW210502   3.789   0.835   1.374 -1.2809  1.1884 -1.6509
  305SOL     OW10503   7.903   9.604   1.087 -0.1879  0.1245 -0.3721
  305SOL    HW110504   7.895   9.540   1.163 -1.3821  0.8262  0.1052
  305SOL    HW210505   7.817   9.606   1.036  0.0544  0.8800 -0.7613
  306SOL     OW10506   2.365   0.889   0.268 -0.4472 -0.1859 -0.2562
  306SOL    HW110507   2.395   0.934   0.352 -1.3101 -1.4920  0.7634
  306SOL    HW210508   2.438   0.894   0.200  1.2819 -1.4299  1.4590
  307SOL     OW10509   2.385   1.413   0.429 -0.3480  0.1375 -0.3762
  307SOL    HW110510   2.347   1.452   0.513  0.9474  0.7960 -0.0836
  307SOL    HW210511   2.447   1.479   0.386  2.2234 -1.7169  0.3509
  308SOL     OW10512   3.640   9.824   0.794  0.0771  0.0746 -0.0292
  308SOL    HW110513   3.727   9.839   0.842 -0.6544 -0.4520  1.4757
  308SOL    HW210514   3.585   9.908   0.797 -1.1034 -0.7643  2.4076
  309SOL     OW10515   3.293   9.420   1.211  0.0590  0.4565 -1.1419
  309SOL    HW110516   3.379   9.370   1.226 -0.9827 -0.9306  0.2370
  309SOL    HW210517   3.252   9.444   1.298 -0.8004  1.4333 -1.8006
  310SOL     OW10518   3.580   9.381   1.323  0.3480  0.4998  0.5558
  310SOL    HW110519   3.589   9.480   1.333 -0.7228  0.3979  2.8063
  310SOL    HW210520   3.608   9.336   1.408  2.2056 -1.2379 -0.9314
  311SOL     OW10521   3.415   1.369   0.807 -0.1354 -0.2500 -0.1267
  311SOL    HW110522   3.383   1.354   0.713 -0.4164  0.9083 -0.2165
  311SOL    HW210523   3.501   1.420   0.804  0.2006 -0.7928  0.2273
  312SOL     OW10524   3.203   9.490   1.471 -0.4271 -0.0859 -0.1632
  312SOL    HW110525   3.109   9.517   1.450 -0.1199  0.9218 -0.2916
  312SOL    HW210526   3.221   9.504   1.568 -0.7011 -1.1925  0.0515
  313SOL     OW10527   2.869   2.068   1.178 -0.0003  0.5811 -0.5479
  313SOL    HW110528   2.785   2.031   1.138 -0.8946  0.0084  1.7878
  313SOL    HW210529   2.888   2.022   1.264  2.1478  1.4619 -0.5199
  314SOL     OW10530   2.920   0.678   1.854  0.5487  0.2109  0.0805
  314SOL    HW110531   2.907   0.754   1.917 -1.9631 -0.0412 -0.0711
  314SOL    HW210532   2.995   0.620   1.887  0.9840  1.4842  1.4109
  315SOL     OW10533   2.469   9.996   1.971  0.5842  0.8134 -0.1194
  315SOL    HW110534   2.377  10.020   2.003  0.2755 -1.8898  1.1259
  315SOL    HW210535   2.535  10.063   2.005 -0.4972  0.9707  1.7188
  316SOL     OW10536   3.040   0.800   1.616 -0.2335 -0.1242  0.3776
  316SOL    HW110537   2.999   0.891   1.606  2.4196  1.2278  1.1259
  316SOL    HW210538   2.998   0.752   1.692 -0.2882  1.3088  1.2663
  317SOL     OW10539   3.968   1.564   1.252  0.1305 -0.3384 -0.7336
  317SOL    HW110540   3.962   1.602   1.344  0.0014 -1.6048 -0.2017
  317SOL    HW210541   4.062   1.532   1.236 -0.3212 -1.9215 -0.2940
  318SOL     OW10542   2.566   1.747   2.831 -0.4292  0.0434  0.3661
  318SOL    HW110543   2.631   1.706   2.767 -0.0877 -1.0669  1.3910
  318SOL    HW210544   2.474   1.746   2.790 -0.6521 -2.8719  0.7657
  319SOL     OW10545   2.367   0.133   1.723  0.5561 -0.0339  0.3762
  319SOL    HW110546   2.395   0.085   1.806  1.1518 -0.1238  0.1215
  319SOL    HW210547   2.447   0.168   1.676  0.2548 -0.4568 -0.4567
  320SOL     OW10548   9.356   7.006   1.116  0.2016 -0.5436 -0.5381
  320SOL    HW110549   9.313   6.934   1.062  2.5343 -2.5139  0.1339
  320SOL    HW210550   9.326   6.998   1.211  0.6599 -0.8097 -0.4130
  321SOL     OW10551   3.077   1.479   0.109  0.2632 -0.1998 -0.1665
  321SOL    HW110552   2.978   1.467   0.112  0.4616 -2.4235 -1.5403
  321SOL    HW210553   3.107   1.526   0.192 -1.9152  0.4193  0.3074
  322SOL     OW10554   3.286   9.641   2.401  0.2827  0.1197 -0.1950
  322SOL    HW110555   3.233   9.642   2.316 -0.4551 -0.5247  0.2596
  322SOL    HW210556   3.375   9.599   2.385 -1.7102 -4.6711  0.4467
  323SOL     OW10557   2.960   9.983   2.024  0.4194  0.4479 -0.3773
  323SOL    HW110558   2.980  10.050   1.953  1.5946  2.2815  1.5942
  323SOL    HW210559   3.013  10.006   2.106 -2.0761 -0.6965  1.6018
  324SOL     OW10560   3.910   0.101   2.619 -0.9549  0.0627  0.1850
  324SOL    HW110561   3.830   0.128   2.566  0.3465  0.2651 -1.7735
  324SOL    HW210562   3.928   0.003   2.607 -0.5942  0.1291  0.1447
  325SOL     OW10563   2.476   9.611   1.759 -0.4464 -0.3381 -0.2816
  325SOL    HW110564   2.393   9.567   1.794 -0.7599 -0.2462 -0.9147
  325SOL    HW210565   2.520   9.661   1.833  0.0722 -1.9427  0.5274
  326SOL     OW10566   3.507   9.474   1.677  0.4157 -0.9683  0.4968
  326SOL    HW110567   3.508   9.574   1.678  1.0523 -0.9764  1.1395
  326SOL    HW210568   3.422   9.442   1.635  0.8271 -0.1575 -0.9919
  327SOL     OW10569   3.183   0.187   1.512  0.3638  0.3416 -0.2157
  327SOL    HW110570   3.174   0.099   1.465 -1.0708  0.5989 -0.4282
  327SOL    HW210571   3.201   0.172   1.609 -0.3745 -0.1773 -0.1622
  328SOL     OW10572   7.204   1.604   1.940 -0.2196  0.0697  0.4520
  328SOL    HW110573   7.262   1.561   2.010 -0.0505 -0.6490 -0.1313
  328SOL    HW210574   7.151   1.678   1.982  1.7609  1.3232  0.8286
  329SOL     OW10575   2.991   9.538   0.844  0.1348 -0.8915  0.2567
  329SOL    HW110576   3.074   9.514   0.896  0.3758 -1.1371 -0.2389
  329SOL    HW210577   3.007   9.522   0.747  0.6181  2.1779 -0.2122
  330SOL     OW10578   2.617   9.782   1.039  0.1106  0.5690 -0.2498
  330SOL    HW110579   2.601   9.747   0.946 -0.5045  1.8238 -0.6206
  330SOL    HW210580   2.606   9.881   1.040 -1.1236  0.4433  1.4301
  331SOL     OW10581   2.795   1.420   1.689  0.0128  0.6143 -0.1023
  331SOL    HW110582   2.699   1.395   1.675 -0.1018  1.0935 -0.2010
  331SOL    HW210583   2.803   1.476   1.771  0.6913 -2.1933  1.8152
  332SOL     OW10584   3.279   0.518   0.671  0.3605  0.2199 -0.6541
  332SOL    HW110585   3.198   0.467   0.643 -0.3388  1.6148 -1.1750
  332SOL    HW210586   3.253   0.609   0.701  1.5199  0.0291  1.0312
  333SOL     OW10587   3.255   0.390   1.770  0.3566 -0.1134  0.1157
  333SOL    HW110588   3.344   0.434   1.771  0.9256 -1.2386  0.1092
  333SOL    HW210589   3.233   0.363   1.676 -0.1614  0.5004  0.0595
  334SOL     OW10590   3.885   9.414   0.974  0.0890 -0.1527  0.1845
  334SOL    HW110591   3.839   9.442   0.889 -0.3786 -1.1676  0.0965
  334SOL    HW210592   3.821   9.365   1.032  0.9839 -1.3701  0.1702
  335SOL     OW10593   2.795   0.302   0.446  0.3652  0.1100  0.0806
  335SOL    HW110594   2.856   0.224   0.431 -0.6523 -0.5537 -0.6744
  335SOL    HW210595   2.707   0.268   0.481 -0.2109  0.8870 -0.6200
  336SOL     OW10596   4.045   9.821   1.419  0.2480 -0.1193 -0.0546
  336SOL    HW110597   3.985   9.768   1.361 -2.4552  0.7609  1.8417
  336SOL    HW210598   3.993   9.893   1.465  2.6011  0.2657  2.1635
  337SOL     OW10599   3.193   1.522   2.712  0.3198  0.2477 -0.8254
  337SOL    HW110600   3.293   1.518   2.709  0.2259 -3.0467 -0.8560
  337SOL    HW210601   3.161   1.503   2.804 -0.2889  1.2277 -0.8304
  338SOL     OW10602   2.662   0.052   1.081 -0.3790 -0.2725 -0.5126
  338SOL    HW110603   2.618   0.121   1.139  0.4386  1.8907 -2.3920
  338SOL    HW210604   2.663   0.084   0.986 -0.4559 -3.1335 -1.5375
  339SOL     OW10605   2.475   1.711   1.580  0.4918  0.3770 -0.6700
  339SOL    HW110606   2.492   1.641   1.511  1.6420 -0.6532  0.6115
  339SOL    HW210607   2.561   1.756   1.604  0.3108 -0.0867  0.9147
  340SOL     OW10608   3.332   1.699   0.153  0.3912 -0.3737 -0.1369
  340SOL    HW110609   3.295   1.738   0.069  1.0998 -1.3439 -0.9096
  340SOL    HW210610   3.409   1.640   0.131  1.5124  0.5205  1.3321
  341SOL     OW10611   2.322   0.437   1.160  0.5607  0.1472 -0.1955
  341SOL    HW110612   2.413   0.458   1.198  0.3912 -0.3430  0.4929
  341SOL    HW210613   2.323   0.453   1.061  1.2773  0.5500 -0.1315
  342SOL     OW10614   2.755   0.032   1.645  0.4984  0.0072  0.1259
  342SOL    HW110615   2.685  -0.039   1.638  0.3870 -0.0140  1.2848
  342SOL    HW210616   2.836   0.006   1.593 -0.0325 -0.3747 -0.5021
  343SOL     OW10617   2.770   0.412   1.053  0.0962 -0.4253 -0.8523
  343SOL    HW110618   2.822   0.470   0.990  0.6028 -1.4894 -1.4112
  343SOL    HW210619   2.714   0.348   1.001  2.7521 -3.3327 -0.2270
  344SOL     OW10620   2.595   2.006   0.985  0.4335  0.1605  0.1231
  344SOL    HW110621   2.642   1.993   0.897 -0.2852  0.5422 -0.3243
  344SOL    HW210622   2.496   2.002   0.971  0.2860  1.2364  0.7380
  345SOL     OW10623   3.205   1.036   0.535 -0.5182  0.1011  0.5479
  345SOL    HW110624   3.151   1.118   0.552  0.5183  0.8940  0.0890
  345SOL    HW210625   3.179   0.997   0.446 -0.9711 -0.0462  0.7412
  346SOL     OW10626   4.651   0.485   0.526  0.2355  0.4250 -0.1286
  346SOL    HW110627   4.673   0.466   0.622 -4.3876  0.8450  1.1275
  346SOL    HW210628   4.637   0.398   0.478  0.5290  0.2491  0.0987
  347SOL     OW10629   2.551   0.912   0.079  0.6341  0.1590 -0.4697
  347SOL    HW110630   2.579   0.816   0.088  0.6350  0.3350  1.6087
  347SOL    HW210631   2.629   0.966   0.048  0.3931 -0.6367 -2.5529
  348SOL     OW10632   2.608   0.679   0.946  0.0713 -0.1325 -0.8152
  348SOL    HW110633   2.604   0.623   1.029  1.0614  1.4215  0.3001
  348SOL    HW210634   2.586   0.774   0.968 -1.7246 -0.0552 -2.7186
  349SOL     OW10635   3.121   9.986   1.359 -0.0233  0.4585 -0.0463
  349SOL    HW110636   3.176   9.942   1.288 -2.0279  0.4343 -1.6663
  349SOL    HW210637   3.034  10.017   1.318 -1.0879  0.7105  2.3457
  350SOL     OW10638   2.893   0.969   2.415  0.9154  0.0167  0.5296
  350SOL    HW110639   2.977   0.920   2.392  1.4726  0.2175  2.0585
  350SOL    HW210640   2.877   0.962   2.514 -0.5996  0.4065  0.3256
  351SOL     OW10641   4.662   9.652   1.615  1.0185  0.0834 -0.5870
  351SOL    HW110642   4.687   9.675   1.709 -2.8530  1.1078  0.2907
  351SOL    HW210643   4.665   9.735   1.559 -0.2153  0.1986 -0.4923
  352SOL     OW10644   3.687   2.163   1.386 -0.3426  0.1882 -0.4432
  352SOL    HW110645   3.706   2.196   1.293 -1.2739 -1.7786 -1.3415
  352SOL    HW210646   3.623   2.225   1.430  0.4386  1.3804 -0.9387
  353SOL     OW10647   2.286   1.561   2.546  0.4348  0.1834  0.3943
  353SOL    HW110648   2.364   1.600   2.496  0.5498  1.0639  1.2306
  353SOL    HW210649   2.228   1.636   2.579 -1.5931 -0.5061 -1.5082
  354SOL     OW10650   3.891   9.742   0.941  0.1187  0.2322  0.2369
  354SOL    HW110651   3.950   9.670   0.978  0.1809  0.5493  0.7608
  354SOL    HW210652   3.938   9.830   0.945 -0.2158  0.4136  0.2425
  355SOL     OW10653   2.379   1.150   2.201 -0.3832 -0.2107  0.1936
  355SOL    HW110654   2.319   1.221   2.164 -1.3002 -0.1168  1.8119
  355SOL    HW210655   2.460   1.193   2.242 -0.8808 -0.0835  1.0655
  356SOL     OW10656   3.647   9.396   1.924  0.9292  0.5178 -0.4036
  356SOL    HW110657   3.570   9.384   1.862 -0.3333 -3.4489  1.7829
  356SOL    HW210658   3.730   9.359   1.882  1.0383  1.9622 -1.4959
  357SOL     OW10659   2.932   0.433   0.813 -0.8846 -0.0820 -0.2619
  357SOL    HW110660   2.972   0.380   0.738 -1.2619 -0.5143 -0.1523
  357SOL    HW210661   2.934   0.530   0.789  0.5984 -0.0496 -0.1023
  358SOL     OW10662   2.277   1.409   0.678 -0.4414 -0.3089  0.0370
  358SOL    HW110663   2.190   1.368   0.650 -0.9977  0.4159  0.6742
  358SOL    HW210664   2.275   1.428   0.776  2.7054 -5.8519  1.4214
  359SOL     OW10665   3.381   1.161   2.656  0.0703 -0.4260  0.6288
  359SOL    HW110666   3.444   1.190   2.585  1.1361  1.2688  2.2423
  359SOL    HW210667   3.364   1.062   2.648 -0.5448 -0.0882 -2.5102
  360SOL     OW10668   3.154   0.581   2.260 -0.1969  0.0356  0.8444
  360SOL    HW110669   3.147   0.561   2.162  0.3703 -0.6273  0.9351
  360SOL    HW210670   3.063   0.580   2.302 -0.1805 -2.5964  0.8939
  361SOL     OW10671   2.695   0.961   0.937 -0.4734  0.1591 -0.1365
  361SOL    HW110672   2.681   1.059   0.952 -0.7636  0.0521  0.2976
  361SOL    HW210673   2.792   0.940   0.951 -0.0662  0.6978 -2.0522
  362SOL     OW10674   4.584   1.402   1.409 -0.0484  0.0099 -0.7531
  362SOL    HW110675   4.629   1.345   1.477  0.7979  0.1837 -1.1613
  362SOL    HW210676   4.488   1.375   1.401 -0.3148  0.4096  0.9597
  363SOL     OW10677   2.796   0.419   2.714  0.1238 -0.5671 -0.1115
  363SOL    HW110678   2.782   0.386   2.620 -1.4846 -2.4564  0.7750
  363SOL    HW210679   2.893   0.409   2.738  0.3171 -1.2685 -1.1197
  364SOL     OW10680   3.852   1.919   0.867 -0.3745  0.6953 -0.6434
  364SOL    HW110681   3.836   1.985   0.794 -0.2905  2.2788  0.7313
  364SOL    HW210682   3.873   1.968   0.952 -0.2780 -1.1050  0.3940
  365SOL     OW10683   3.138   1.225   0.252  0.1481  0.1641 -0.6818
  365SOL    HW110684   3.167   1.130   0.239 -2.8786 -0.8348 -0.4652
  365SOL    HW210685   3.179   1.282   0.181  3.6338 -0.9072  0.3585
  366SOL     OW10686   2.850   2.118   2.632  0.5578 -0.0133  0.1904
  366SOL    HW110687   2.845   2.135   2.534  0.7116  0.2624  0.2275
  366SOL    HW210688   2.779   2.054   2.659 -0.9840  1.6794  0.2620
  367SOL     OW10689   7.812   7.454   1.417  0.4654  0.1197  0.0479
  367SOL    HW110690   7.797   7.408   1.330 -0.0273 -0.6056  0.5157
  367SOL    HW210691   7.910   7.453   1.439  0.4368 -0.8296  0.1330
  368SOL     OW10692   2.998   1.171   2.811 -0.4970  0.3626  0.1217
  368SOL    HW110693   2.999   1.255   2.865 -0.1704 -0.1836  0.9629
  368SOL    HW210694   2.904   1.147   2.787 -0.4997  1.8714 -1.5439
  369SOL     OW10695   4.259   0.307   2.536 -0.6662  0.9818 -0.0678
  369SOL    HW110696   4.285   0.328   2.630  0.9795 -0.4430 -0.1745
  369SOL    HW210697   4.249   0.392   2.484 -1.3491  1.7633  1.3207
  370SOL     OW10698   2.819   1.586   1.902 -1.0954  0.0175 -0.2294
  370SOL    HW110699   2.889   1.630   1.845 -0.9931 -1.3326 -1.1792
  370SOL    HW210700   2.765   1.656   1.949 -0.6713  1.1290 -1.3714
  10.00000  10.00000   2.87800
