chitosan Film  in water:acetic acid 2%
14447
    1CHTO  H203    1   5.537   6.859   2.092
    1CHTO   O82    2   5.599   6.842   2.024
    1CHTO  C123    3   5.725   6.800   2.080
    1CHTO  H227    4   5.750   6.865   2.164
    1CHTO   O77    5   5.696   6.665   2.128
    1CHTO  C118    6   5.806   6.600   2.193
    1CHTO  H222    7   5.843   6.663   2.276
    1CHTO  C125    8   5.754   6.464   2.252
    1CHTO   O84    9   5.656   6.484   2.354
    1CHTO  H205   10   5.578   6.522   2.317
    1CHTO  C114   11   5.919   6.579   2.090
    1CHTO  H218   12   5.882   6.516   2.010
    1CHTO  C116   13   5.964   6.714   2.027
    1CHTO  H220   14   6.018   6.774   2.104
    1CHTO   O79   15   6.059   6.687   1.922
    1CHTO  H201   16   6.139   6.652   1.959
    1CHTO  C120   17   5.840   6.796   1.972
    1CHTO  H224   18   5.805   6.742   1.882
    1CHTO   N21   19   5.881   6.933   1.929
    1CHTO  H211   20   5.816   6.968   1.850
    1CHTO  H212   21   5.879   7.002   2.012
    1CHTO   O75   22   6.026   6.513   2.162
    1CHTO  C112   23   6.069   6.366   2.101
    1CHTO  H216   24   6.034   6.358   1.997
    1CHTO   O73   25   6.009   6.266   2.185
    1CHTO  C113   26   6.036   6.131   2.147
    1CHTO  H217   27   6.002   6.115   2.043
    1CHTO  C124   28   5.953   6.037   2.237
    1CHTO   O83   29   5.812   6.055   2.218
    1CHTO  H204   30   5.766   5.998   2.277
    1CHTO  C109   31   6.188   6.102   2.160
    1CHTO  H213   32   6.214   6.115   2.266
    1CHTO  C110   33   6.267   6.205   2.072
    1CHTO  H214   34   6.247   6.182   1.967
    1CHTO   O78   35   6.408   6.186   2.094
    1CHTO  H200   36   6.431   6.201   2.184
    1CHTO  C111   37   6.226   6.351   2.104
    1CHTO  H215   38   6.259   6.376   2.206
    1CHTO   N19   39   6.289   6.451   2.013
    1CHTO  H207   40   6.259   6.551   2.041
    1CHTO  H208   41   6.397   6.443   2.020
    1CHTO   O74   42   6.217   5.964   2.119
    1CHTO  C115   43   6.312   5.884   2.221
    1CHTO  H219   44   6.320   5.935   2.317
    1CHTO   O76   45   6.255   5.744   2.256
    1CHTO  C122   46   6.235   5.658   2.142
    1CHTO  H226   47   6.141   5.688   2.095
    1CHTO  C126   48   6.212   5.512   2.194
    1CHTO   O85   49   6.324   5.463   2.270
    1CHTO  H206   50   6.307   5.375   2.297
    1CHTO  C121   51   6.353   5.663   2.036
    1CHTO  H225   52   6.378   5.559   2.006
    1CHTO   O81   53   6.309   5.728   1.916
    1CHTO  H202   54   6.288   5.817   1.933
    1CHTO  C119   55   6.482   5.729   2.095
    1CHTO  H223   56   6.513   5.664   2.176
    1CHTO  C117   57   6.455   5.873   2.154
    1CHTO  H221   58   6.455   5.951   2.077
    1CHTO   N20   59   6.563   5.914   2.249
    1CHTO  H209   60   6.564   5.848   2.334
    1CHTO  H210   61   6.659   5.912   2.199
    1CHTO   O80   62   6.608   5.723   1.997
    1CHTO  C103   63   6.714   5.612   2.015
    1CHTO  H190   64   6.716   5.576   2.118
    1CHTO  C101   65   6.700   5.488   1.919
    1CHTO  H188   66   6.691   5.525   1.816
    1CHTO   O68   67   6.572   5.414   1.954
    1CHTO  H168   68   6.557   5.346   1.891
    1CHTO   C99   69   6.829   5.393   1.929
    1CHTO  H186   70   6.832   5.350   2.031
    1CHTO   N17   71   6.829   5.278   1.832
    1CHTO  H174   72   6.745   5.286   1.763
    1CHTO  H175   73   6.826   5.185   1.885
    1CHTO   C97   74   6.958   5.477   1.914
    1CHTO  H184   75   6.968   5.512   1.809
    1CHTO   O64   76   6.959   5.588   2.006
    1CHTO  C104   77   6.853   5.682   1.986
    1CHTO  H191   78   6.853   5.720   1.884
    1CHTO  C108   79   6.877   5.803   2.078
    1CHTO   O71   80   6.994   5.875   2.039
    1CHTO  H171   81   7.070   5.824   2.057
    1CHTO   O62   82   7.076   5.405   1.956
    1CHTO   C91   83   7.186   5.392   1.864
    1CHTO  H178   84   7.146   5.383   1.762
    1CHTO   C92   85   7.255   5.256   1.898
    1CHTO  H179   86   7.268   5.249   2.007
    1CHTO   O66   87   7.163   5.151   1.863
    1CHTO  H166   88   7.196   5.068   1.891
    1CHTO   C93   89   7.394   5.235   1.826
    1CHTO  H180   90   7.373   5.223   1.718
    1CHTO   N16   91   7.466   5.112   1.868
    1CHTO  H172   92   7.410   5.057   1.942
    1CHTO  H173   93   7.486   5.049   1.782
    1CHTO   C94   94   7.483   5.363   1.846
    1CHTO  H181   95   7.504   5.381   1.951
    1CHTO   O61   96   7.412   5.477   1.796
    1CHTO   C95   97   7.292   5.510   1.867
    1CHTO  H182   98   7.318   5.531   1.971
    1CHTO  C106   99   7.236   5.643   1.805
    1CHTO   O69  100   7.325   5.753   1.825
    1CHTO  H169  101   7.403   5.740   1.774
    1CHTO   O63  102   7.621   5.355   1.761
    1CHTO   C96  103   7.739   5.430   1.832
    1CHTO  H183  104   7.696   5.508   1.896
    1CHTO   C98  105   7.839   5.500   1.734
    1CHTO  H185  106   7.785   5.570   1.669
    1CHTO   O67  107   7.929   5.582   1.811
    1CHTO  H167  108   7.979   5.530   1.871
    1CHTO  C102  109   7.926   5.395   1.650
    1CHTO  H189  110   8.017   5.450   1.620
    1CHTO   N18  111   7.863   5.352   1.523
    1CHTO  H176  112   7.844   5.437   1.460
    1CHTO  H177  113   7.928   5.282   1.472
    1CHTO  C105  114   7.967   5.275   1.741
    1CHTO  H192  115   7.907   5.187   1.717
    1CHTO   O65  116   7.952   5.300   1.882
    1CHTO  C100  117   7.816   5.324   1.924
    1CHTO  H187  118   7.763   5.228   1.917
    1CHTO  C107  119   7.815   5.365   2.074
    1CHTO   O70  120   7.891   5.485   2.097
    1CHTO  H170  121   7.889   5.505   2.189
    1CHTO   O57  122   8.116   5.251   1.708
    1CHTO   C85  123   8.161   5.119   1.674
    1CHTO  H157  124   8.088   5.079   1.601
    1CHTO   C83  125   8.154   5.023   1.797
    1CHTO  H155  126   8.049   5.013   1.826
    1CHTO   O56  127   8.221   5.085   1.910
    1CHTO  H135  128   8.209   5.032   1.987
    1CHTO   C81  129   8.209   4.884   1.757
    1CHTO  H153  130   8.151   4.848   1.672
    1CHTO   N14  131   8.189   4.780   1.861
    1CHTO  H141  132   8.086   4.775   1.888
    1CHTO  H142  133   8.220   4.684   1.824
    1CHTO   C79  134   8.359   4.897   1.711
    1CHTO  H151  135   8.391   4.798   1.676
    1CHTO   O52  136   8.366   4.986   1.595
    1CHTO   C86  137   8.307   5.119   1.615
    1CHTO  H158  138   8.378   5.171   1.682
    1CHTO   C90  139   8.309   5.197   1.481
    1CHTO   O60  140   8.441   5.204   1.426
    1CHTO  H138  141   8.469   5.119   1.398
    1CHTO   O50  142   8.451   4.941   1.813
    1CHTO   C73  143   8.587   4.981   1.794
    1CHTO  H145  144   8.594   5.049   1.707
    1CHTO   C74  145   8.678   4.858   1.766
    1CHTO  H146  146   8.636   4.805   1.679
    1CHTO   O54  147   8.808   4.905   1.725
    1CHTO  H133  148   8.863   4.833   1.701
    1CHTO   C75  149   8.682   4.765   1.894
    1CHTO  H147  150   8.580   4.732   1.916
    1CHTO   N13  151   8.761   4.641   1.876
    1CHTO  H139  152   8.864   4.665   1.853
    1CHTO  H140  153   8.759   4.582   1.967
    1CHTO   C76  154   8.733   4.851   2.019
    1CHTO  H148  155   8.835   4.882   1.999
    1CHTO   O49  156   8.649   4.970   2.034
    1CHTO   C77  157   8.639   5.057   1.920
    1CHTO  H149  158   8.737   5.100   1.898
    1CHTO   C88  159   8.548   5.174   1.959
    1CHTO   O58  160   8.606   5.253   2.069
    1CHTO  H136  161   8.548   5.324   2.091
    1CHTO   O51  162   8.720   4.763   2.164
    1CHTO   C78  163   8.635   4.837   2.284
    1CHTO  H150  164   8.606   4.941   2.257
    1CHTO   C80  165   8.715   4.842   2.415
    1CHTO  H152  166   8.732   4.738   2.451
    1CHTO   O55  167   8.842   4.903   2.384
    1CHTO  H134  168   8.898   4.900   2.459
    1CHTO   C84  169   8.635   4.925   2.523
    1CHTO  H156  170   8.627   5.027   2.485
    1CHTO   N15  171   8.706   4.933   2.655
    1CHTO  H143  172   8.723   5.036   2.682
    1CHTO  H144  173   8.651   4.885   2.733
    1CHTO   C87  174   8.490   4.872   2.540
    1CHTO  H159  175   8.488   4.785   2.605
    1CHTO   O53  176   8.422   4.834   2.399
    1CHTO   C82  177   8.505   4.760   2.309
    1CHTO  H154  178   8.527   4.662   2.350
    1CHTO   C89  179   8.425   4.736   2.178
    1CHTO   O59  180   8.388   4.859   2.116
    1CHTO  H137  181   8.340   4.841   2.037
    1CHTO   O45  182   8.398   4.994   2.613
    1CHTO   C67  183   8.277   5.032   2.545
    1CHTO  H124  184   8.228   4.944   2.504
    1CHTO   C65  185   8.181   5.104   2.644
    1CHTO  H122  186   8.181   5.043   2.735
    1CHTO   O44  187   8.048   5.106   2.589
    1CHTO  H102  188   7.987   5.138   2.653
    1CHTO   C63  189   8.241   5.243   2.685
    1CHTO  H120  190   8.341   5.227   2.725
    1CHTO   N11  191   8.172   5.313   2.799
    1CHTO  H108  192   8.234   5.314   0.038
    1CHTO  H109  193   8.079   5.266   2.821
    1CHTO   C61  194   8.260   5.331   2.556
    1CHTO  H118  195   8.316   5.421   2.588
    1CHTO   O40  196   8.343   5.263   2.458
    1CHTO   C68  197   8.311   5.125   2.420
    1CHTO  H125  198   8.404   5.085   2.373
    1CHTO   C72  199   8.202   5.124   2.309
    1CHTO   O48  200   8.166   4.993   2.264
    1CHTO  H105  201   8.124   4.946   2.333
    1CHTO   O38  202   8.137   5.370   2.489
    1CHTO   C55  203   8.090   5.506   2.506
    1CHTO  H112  204   8.143   5.554   2.591
    1CHTO   C56  205   7.933   5.505   2.527
    1CHTO  H113  206   7.889   5.459   2.438
    1CHTO   O42  207   7.899   5.420   2.638
    1CHTO  H100  208   7.806   5.412   2.645
    1CHTO   C57  209   7.880   5.652   2.547
    1CHTO  H114  210   7.918   5.686   2.644
    1CHTO   N10  211   7.732   5.663   2.553
    1CHTO  H106  212   7.697   5.651   2.655
    1CHTO  H107  213   7.686   5.587   2.491
    1CHTO   C58  214   7.936   5.747   2.437
    1CHTO  H115  215   7.879   5.732   2.342
    1CHTO   O37  216   8.077   5.729   2.413
    1CHTO   C59  217   8.119   5.595   2.382
    1CHTO  H116  218   8.064   5.558   2.295
    1CHTO   C70  219   8.268   5.600   2.346
    1CHTO   O46  220   8.295   5.677   2.228
    1CHTO  H103  221   8.261   5.632   2.153
    1CHTO   O39  222   7.927   5.899   2.489
    1CHTO   C60  223   7.884   5.995   2.391
    1CHTO  H117  224   7.909   5.959   2.291
    1CHTO   C62  225   7.731   6.017   2.398
    1CHTO  H119  226   7.685   5.920   2.367
    1CHTO   O43  227   7.692   6.045   2.534
    1CHTO  H101  228   7.599   6.053   2.540
    1CHTO   C66  229   7.687   6.132   2.295
    1CHTO  H123  230   7.723   6.106   2.195
    1CHTO   N12  231   7.540   6.144   2.284
    1CHTO  H110  232   7.499   6.050   2.249
    1CHTO  H111  233   7.514   6.225   2.217
    1CHTO   C69  234   7.757   6.265   2.337
    1CHTO  H126  235   7.734   6.287   2.444
    1CHTO   O41  236   7.909   6.242   2.320
    1CHTO   C64  237   7.963   6.128   2.412
    1CHTO  H121  238   7.954   6.158   2.519
    1CHTO   C71  239   8.113   6.105   2.381
    1CHTO   O47  240   8.190   6.223   2.409
    1CHTO  H104  241   8.171   6.289   2.346
    1CHTO   O34  242   7.711   6.393   2.248
    1CHTO   C49  243   7.623   6.502   2.317
    1CHTO   H91  244   7.550   6.448   2.378
    1CHTO   C47  245   7.549   6.583   2.208
    1CHTO   H89  246   7.473   6.645   2.262
    1CHTO   O33  247   7.479   6.491   2.122
    1CHTO   H70  248   7.427   6.538   2.060
    1CHTO   C45  249   7.652   6.678   2.130
    1CHTO   H87  250   7.732   6.616   2.088
    1CHTO    N8  251   7.587   6.752   2.018
    1CHTO   H75  252   7.511   6.818   2.057
    1CHTO   H76  253   7.544   6.683   1.948
    1CHTO   C43  254   7.725   6.775   2.235
    1CHTO   H85  255   7.799   6.832   2.178
    1CHTO   O29  256   7.787   6.696   2.339
    1CHTO   C50  257   7.709   6.596   2.407
    1CHTO   H92  258   7.781   6.532   2.460
    1CHTO   C54  259   7.628   6.659   2.524
    1CHTO   O36  260   7.564   6.560   2.606
    1CHTO   H72  261   7.519   6.603   2.676
    1CHTO   O27  262   7.637   6.874   2.293
    1CHTO   C37  263   7.561   6.994   2.312
    1CHTO   H79  264   7.522   7.030   2.216
    1CHTO   C38  265   7.439   6.966   2.405
    1CHTO   H80  266   7.475   6.913   2.494
    1CHTO   O31  267   7.351   6.878   2.332
    1CHTO   H68  268   7.280   6.850   2.387
    1CHTO   C39  269   7.364   7.098   2.449
    1CHTO   H81  270   7.311   7.136   2.362
    1CHTO    N7  271   7.261   7.071   2.555
    1CHTO   H73  272   7.308   7.031   2.644
    1CHTO   H74  273   7.207   7.162   2.579
    1CHTO   C40  274   7.466   7.210   2.495
    1CHTO   H82  275   7.507   7.183   2.593
    1CHTO   O26  276   7.570   7.225   2.396
    1CHTO   C41  277   7.650   7.105   2.375
    1CHTO   H83  278   7.690   7.070   2.471
    1CHTO   C52  279   7.769   7.142   2.284
    1CHTO   O35  280   7.856   7.245   2.344
    1CHTO   H71  281   7.925   7.266   2.285
    1CHTO   O28  282   7.401   7.338   2.515
    1CHTO   C42  283   7.390   7.445   2.415
    1CHTO   H84  284   7.413   7.399   2.319
    1CHTO   C44  285   7.491   7.563   2.432
    1CHTO   H86  286   7.472   7.612   2.528
    1CHTO   O32  287   7.624   7.508   2.438
    1CHTO   H69  288   7.647   7.467   2.357
    1CHTO   C48  289   7.478   7.672   2.318
    1CHTO   H90  290   7.520   7.628   2.227
    1CHTO    N9  291   7.561   7.794   2.345
    1CHTO   H77  292   7.552   7.864   2.263
    1CHTO   H78  293   7.530   7.840   2.437
    1CHTO   C51  294   7.327   7.709   2.288
    1CHTO   H93  295   7.292   7.779   2.364
    1CHTO   O30  296   7.245   7.592   2.281
    1CHTO   C46  297   7.248   7.506   2.403
    1CHTO   H88  298   7.227   7.568   2.491
    1CHTO   C53  299   7.139   7.398   2.387
    1CHTO   O72  300   7.008   7.458   2.385
    1CHTO  H199  301   6.943   7.391   2.378
    1CHTO   O22  302   7.318   7.768   2.156
    1CHTO   C31  303   7.197   7.835   2.104
    1CHTO   H59  304   7.120   7.828   2.185
    1CHTO   C29  305   7.219   7.985   2.074
    1CHTO   H57  306   7.311   7.991   2.013
    1CHTO   O21  307   7.249   8.051   2.198
    1CHTO   H37  308   7.276   8.139   2.182
    1CHTO   C27  309   7.100   8.053   1.995
    1CHTO   H55  310   7.012   8.058   2.061
    1CHTO    N5  311   7.132   8.191   1.949
    1CHTO   H43  312   7.153   8.254   2.034
    1CHTO   H44  313   7.216   8.189   1.882
    1CHTO   C25  314   7.061   7.962   1.873
    1CHTO   H53  315   7.149   7.953   1.806
    1CHTO   O17  316   7.027   7.831   1.925
    1CHTO   C32  317   7.137   7.759   1.981
    1CHTO   H60  318   7.215   7.749   1.905
    1CHTO   C36  319   7.084   7.618   2.013
    1CHTO   O25  320   6.976   7.620   2.107
    1CHTO   H40  321   6.948   7.532   2.124
    1CHTO   O15  322   6.934   8.014   1.789
    1CHTO   C19  323   6.904   7.958   1.657
    1CHTO   H47  324   6.808   8.004   1.631
    1CHTO   C20  325   7.008   7.994   1.547
    1CHTO   H48  326   7.110   7.961   1.574
    1CHTO   O19  327   7.010   8.138   1.537
    1CHTO   H35  328   7.048   8.176   1.614
    1CHTO   C21  329   6.972   7.929   1.407
    1CHTO   H49  330   6.878   7.971   1.373
    1CHTO    N4  331   7.073   7.956   1.301
    1CHTO   H41  332   7.170   7.919   1.331
    1CHTO   H42  333   7.080   8.063   1.283
    1CHTO   C22  334   6.948   7.777   1.428
    1CHTO   H50  335   7.042   7.729   1.458
    1CHTO   O14  336   6.848   7.756   1.527
    1CHTO   C23  337   6.878   7.804   1.659
    1CHTO   H51  338   6.967   7.748   1.693
    1CHTO   C34  339   6.760   7.768   1.749
    1CHTO   O23  340   6.742   7.626   1.761
    1CHTO   H38  341   6.714   7.590   1.679
    1CHTO   O16  342   6.890   7.712   1.313
    1CHTO   C24  343   6.968   7.582   1.260
    1CHTO   H52  344   7.070   7.577   1.300
    1CHTO   C26  345   6.973   7.589   1.106
    1CHTO   H54  346   6.868   7.598   1.068
    1CHTO   O20  347   7.043   7.708   1.067
    1CHTO   H36  348   7.133   7.705   1.095
    1CHTO   C30  349   7.037   7.460   1.045
    1CHTO   H58  350   7.145   7.459   1.066
    1CHTO    N6  351   7.025   7.460   0.897
    1CHTO   H45  352   6.920   7.459   0.868
    1CHTO   H46  353   7.073   7.373   0.855
    1CHTO   C33  354   6.978   7.330   1.109
    1CHTO   H61  355   6.876   7.313   1.072
    1CHTO   O18  356   6.974   7.340   1.252
    1CHTO   C28  357   6.896   7.451   1.302
    1CHTO   H56  358   6.796   7.450   1.258
    1CHTO   C35  359   6.879   7.437   1.455
    1CHTO   O24  360   7.002   7.443   1.527
    1CHTO   H39  361   6.985   7.436   1.619
    1CHTO    O9  362   7.054   7.215   1.067
    1CHTO   C13  363   6.978   7.072   1.072
    1CHTO   H26  364   6.868   7.091   1.071
    1CHTO   C11  365   7.022   6.997   1.204
    1CHTO   H24  366   6.977   7.050   1.290
    1CHTO    O8  367   7.165   7.005   1.219
    1CHTO    H3  368   7.191   6.969   1.301
    1CHTO    C9  369   6.968   6.852   1.200
    1CHTO   H22  370   6.860   6.861   1.181
    1CHTO    N2  371   6.978   6.779   1.328
    1CHTO   H10  372   6.928   6.683   1.320
    1CHTO   H11  373   7.081   6.766   1.356
    1CHTO    C7  374   7.034   6.777   1.079
    1CHTO   H20  375   6.987   6.676   1.078
    1CHTO    O4  376   7.003   6.843   0.954
    1CHTO   C14  377   7.007   6.986   0.939
    1CHTO   H27  378   6.927   7.010   0.867
    1CHTO   C18  379   7.141   7.020   0.870
    1CHTO   O13  380   7.139   7.150   0.808
    1CHTO    H7  381   7.222   7.166   0.768
    1CHTO    O2  382   7.200   6.765   1.094
    1CHTO    C1  383   7.259   6.642   1.049
    1CHTO   H14  384   7.209   6.610   0.955
    1CHTO    C2  385   7.251   6.523   1.155
    1CHTO   H15  386   7.288   6.565   1.250
    1CHTO    O6  387   7.114   6.482   1.170
    1CHTO    H1  388   7.064   6.550   1.211
    1CHTO    C3  389   7.342   6.397   1.112
    1CHTO   H16  390   7.293   6.346   1.028
    1CHTO    N1  391   7.355   6.297   1.223
    1CHTO    H8  392   7.258   6.261   1.251
    1CHTO    H9  393   7.417   6.214   1.191
    1CHTO    C4  394   7.482   6.444   1.057
    1CHTO   H17  395   7.543   6.479   1.140
    1CHTO    O1  396   7.464   6.548   0.959
    1CHTO    C5  397   7.409   6.668   1.014
    1CHTO   H18  398   7.461   6.695   1.106
    1CHTO   C16  399   7.431   6.778   0.909
    1CHTO   O11  400   7.426   6.908   0.969
    1CHTO    H5  401   7.441   6.973   0.903
    1CHTO    O3  402   7.551   6.338   0.987
    1CHTO    C6  403   7.689   6.368   0.946
    1CHTO   H19  404   7.712   6.475   0.952
    1CHTO    C8  405   7.792   6.292   1.036
    1CHTO   H21  406   7.763   6.187   1.040
    1CHTO    O7  407   7.780   6.350   1.167
    1CHTO    H2  408   7.834   6.303   1.228
    1CHTO   C12  409   7.938   6.305   0.978
    1CHTO   H25  410   7.967   6.411   0.989
    1CHTO    N3  411   8.037   6.225   1.059
    1CHTO   H12  412   8.137   6.239   1.020
    1CHTO   H13  413   8.011   6.120   1.057
    1CHTO   C15  414   7.938   6.267   0.826
    1CHTO   H28  415   7.915   6.162   0.811
    1CHTO   O10  416   8.073   6.302   0.754
    1CHTO    H4  417   8.095   6.392   0.768
    1CHTO    O5  418   7.843   6.348   0.755
    1CHTO   C10  419   7.708   6.327   0.797
    1CHTO   H23  420   7.682   6.222   0.784
    1CHTO   C17  421   7.617   6.408   0.704
    1CHTO   O12  422   7.630   6.368   0.567
    1CHTO    H6  423   7.595   6.281   0.556
    2CHTO  H203  424   6.839   4.437   2.112
    2CHTO   O82  425   6.760   4.457   2.067
    2CHTO  C123  426   6.665   4.516   2.157
    2CHTO  H227  427   6.708   4.608   2.199
    2CHTO   O77  428   6.553   4.548   2.069
    2CHTO  C118  429   6.443   4.616   2.133
    2CHTO  H222  430   6.479   4.710   2.179
    2CHTO  C125  431   6.335   4.650   2.024
    2CHTO   O84  432   6.388   4.737   1.923
    2CHTO  H205  433   6.322   4.756   1.860
    2CHTO  C114  434   6.384   4.525   2.242
    2CHTO  H218  435   6.346   4.434   2.195
    2CHTO  C116  436   6.492   4.481   2.345
    2CHTO  H220  437   6.525   4.570   2.404
    2CHTO   O79  438   6.431   4.390   2.438
    2CHTO  H201  439   6.492   4.367   2.505
    2CHTO  C120  440   6.616   4.417   2.270
    2CHTO  H224  441   6.580   4.322   2.224
    2CHTO   N21  442   6.726   4.381   2.364
    2CHTO  H211  443   6.822   4.384   2.314
    2CHTO  H212  444   6.727   4.447   2.449
    2CHTO   O75  445   6.276   4.602   2.300
    2CHTO  C112  446   6.134   4.520   2.316
    2CHTO  H216  447   6.146   4.441   2.392
    2CHTO   O73  448   6.100   4.464   2.187
    2CHTO  C113  449   5.980   4.387   2.187
    2CHTO  H217  450   5.986   4.309   2.265
    2CHTO  C124  451   5.967   4.317   2.051
    2CHTO   O83  452   6.075   4.226   2.025
    2CHTO  H204  453   6.063   4.187   1.941
    2CHTO  C109  454   5.859   4.480   2.215
    2CHTO  H213  455   5.856   4.555   2.135
    2CHTO  C110  456   5.880   4.550   2.353
    2CHTO  H214  457   5.871   4.475   2.432
    2CHTO   O78  458   5.772   4.644   2.373
    2CHTO  H200  459   5.774   4.711   2.308
    2CHTO  C111  460   6.019   4.619   2.361
    2CHTO  H215  461   6.020   4.703   2.290
    2CHTO   N19  462   6.050   4.676   2.495
    2CHTO  H207  463   5.975   4.749   2.522
    2CHTO  H208  464   6.147   4.724   2.493
    2CHTO   O74  465   5.734   4.403   2.214
    2CHTO  C115  466   5.636   4.440   2.090
    2CHTO  H219  467   5.686   4.502   2.016
    2CHTO   O76  468   5.592   4.310   2.010
    2CHTO  C122  469   5.519   4.216   2.090
    2CHTO  H226  470   5.590   4.168   2.157
    2CHTO  C126  471   5.464   4.102   1.997
    2CHTO   O85  472   5.370   4.149   1.900
    2CHTO  H206  473   5.339   4.077   1.848
    2CHTO  C121  474   5.402   4.283   2.175
    2CHTO  H225  475   5.307   4.227   2.157
    2CHTO   O81  476   5.429   4.271   2.315
    2CHTO  H202  477   5.507   4.317   2.338
    2CHTO  C119  478   5.380   4.431   2.133
    2CHTO  H223  479   5.357   4.428   2.027
    2CHTO  C117  480   5.511   4.517   2.150
    2CHTO  H221  481   5.538   4.538   2.254
    2CHTO   N20  482   5.497   4.653   2.088
    2CHTO  H209  483   5.586   4.711   2.104
    2CHTO  H210  484   5.412   4.704   2.130
    2CHTO   O80  485   5.245   4.492   2.193
    2CHTO  C103  486   5.150   4.572   2.101
    2CHTO  H190  487   5.208   4.635   2.033
    2CHTO  C101  488   5.049   4.488   2.014
    2CHTO  H188  489   4.987   4.427   2.080
    2CHTO   O68  490   5.129   4.391   1.919
    2CHTO  H168  491   5.182   4.441   1.861
    2CHTO   C99  492   4.955   4.587   1.932
    2CHTO  H186  493   5.018   4.644   1.861
    2CHTO   N17  494   4.849   4.519   1.849
    2CHTO  H174  495   4.847   4.413   1.869
    2CHTO  H175  496   4.865   4.538   1.744
    2CHTO   C97  497   4.892   4.693   2.026
    2CHTO  H184  498   4.812   4.646   2.086
    2CHTO   O64  499   4.991   4.757   2.110
    2CHTO  C104  500   5.066   4.669   2.194
    2CHTO  H191  501   5.002   4.610   2.259
    2CHTO  C108  502   5.152   4.757   2.286
    2CHTO   O71  503   5.208   4.683   2.395
    2CHTO  H171  504   5.259   4.740   2.449
    2CHTO   O62  505   4.843   4.806   1.950
    2CHTO   C91  506   4.708   4.849   1.974
    2CHTO  H178  507   4.650   4.764   2.011
    2CHTO   C92  508   4.647   4.885   1.834
    2CHTO  H179  509   4.676   4.810   1.759
    2CHTO   O66  510   4.503   4.878   1.843
    2CHTO  H166  511   4.476   4.789   1.857
    2CHTO   C93  512   4.684   5.031   1.786
    2CHTO  H180  513   4.618   5.052   1.700
    2CHTO   N16  514   4.822   5.045   1.731
    2CHTO  H172  515   4.819   5.078   1.628
    2CHTO  H173  516   4.876   4.952   1.739
    2CHTO   C94  517   4.654   5.136   1.900
    2CHTO  H181  518   4.743   5.195   1.926
    2CHTO   O61  519   4.609   5.076   2.023
    2CHTO   C95  520   4.695   4.972   2.074
    2CHTO  H182  521   4.794   5.014   2.092
    2CHTO  C106  522   4.639   4.929   2.214
    2CHTO   O69  523   4.728   4.839   2.280
    2CHTO  H169  524   4.805   4.885   2.307
    2CHTO   O63  525   4.544   5.229   1.849
    2CHTO   C96  526   4.525   5.360   1.931
    2CHTO  H183  527   4.604   5.368   2.005
    2CHTO   C98  528   4.388   5.366   2.005
    2CHTO  H185  529   4.309   5.332   1.936
    2CHTO   O67  530   4.391   5.268   2.110
    2CHTO  H167  531   4.393   5.181   2.075
    2CHTO  C102  532   4.353   5.512   2.062
    2CHTO  H189  533   4.425   5.531   2.143
    2CHTO   N18  534   4.218   5.525   2.123
    2CHTO  H176  535   4.204   5.625   2.161
    2CHTO  H177  536   4.208   5.453   2.203
    2CHTO  C105  537   4.378   5.616   1.949
    2CHTO  H192  538   4.307   5.599   1.868
    2CHTO   O65  539   4.511   5.606   1.897
    2CHTO  C100  540   4.540   5.481   1.832
    2CHTO  H187  541   4.468   5.468   1.749
    2CHTO  C107  542   4.682   5.487   1.771
    2CHTO   O70  543   4.690   5.584   1.666
    2CHTO  H170  544   4.777   5.586   1.632
    2CHTO   O57  545   4.356   5.767   2.012
    2CHTO   C85  546   4.298   5.868   1.928
    2CHTO  H157  547   4.203   5.824   1.889
    2CHTO   C83  548   4.387   5.894   1.802
    2CHTO  H155  549   4.389   5.802   1.742
    2CHTO   O56  550   4.523   5.917   1.845
    2CHTO  H135  551   4.580   5.922   1.771
    2CHTO   C81  552   4.326   6.008   1.716
    2CHTO  H153  553   4.225   5.978   1.688
    2CHTO   N14  554   4.395   6.029   1.586
    2CHTO  H141  555   4.484   5.970   1.579
    2CHTO  H142  556   4.330   6.004   1.505
    2CHTO   C79  557   4.316   6.139   1.802
    2CHTO  H151  558   4.266   6.214   1.740
    2CHTO   O52  559   4.229   6.116   1.917
    2CHTO   C86  560   4.273   6.005   2.003
    2CHTO  H158  561   4.366   6.042   2.050
    2CHTO   C90  562   4.172   5.986   2.118
    2CHTO   O60  563   4.165   6.103   2.200
    2CHTO  H138  564   4.106   6.088   2.271
    2CHTO   O50  565   4.442   6.192   1.846
    2CHTO   C73  566   4.477   6.323   1.894
    2CHTO  H145  567   4.400   6.359   1.965
    2CHTO   C74  568   4.487   6.423   1.775
    2CHTO  H146  569   4.389   6.424   1.725
    2CHTO   O54  570   4.507   6.554   1.830
    2CHTO  H133  571   4.506   6.618   1.761
    2CHTO   C75  572   4.602   6.377   1.678
    2CHTO  H147  573   4.576   6.278   1.638
    2CHTO   N13  574   4.620   6.464   1.559
    2CHTO  H139  575   4.530   6.464   1.500
    2CHTO  H140  576   4.642   6.565   1.591
    2CHTO   C76  577   4.739   6.359   1.760
    2CHTO  H148  578   4.773   6.458   1.791
    2CHTO   O49  579   4.719   6.275   1.879
    2CHTO   C77  580   4.615   6.320   1.967
    2CHTO  H149  581   4.639   6.420   2.001
    2CHTO   C88  582   4.615   6.234   2.095
    2CHTO   O58  583   4.614   6.090   2.067
    2CHTO  H136  584   4.616   6.043   2.148
    2CHTO   O51  585   4.851   6.282   1.663
    2CHTO   C78  586   4.947   6.178   1.736
    2CHTO  H150  587   4.918   6.160   1.841
    2CHTO   C80  588   5.093   6.229   1.733
    2CHTO  H152  589   5.124   6.243   1.627
    2CHTO   O55  590   5.094   6.356   1.800
    2CHTO  H134  591   5.052   6.421   1.747
    2CHTO   C84  592   5.188   6.124   1.803
    2CHTO  H156  593   5.158   6.118   1.908
    2CHTO   N15  594   5.332   6.168   1.801
    2CHTO  H143  595   5.393   6.099   1.746
    2CHTO  H144  596   5.370   6.176   1.901
    2CHTO   C87  597   5.170   5.983   1.741
    2CHTO  H159  598   5.215   5.980   1.642
    2CHTO   O53  599   5.017   5.946   1.730
    2CHTO   C82  600   4.936   6.043   1.663
    2CHTO  H154  601   4.965   6.052   1.558
    2CHTO   C89  602   4.789   5.995   1.666
    2CHTO   O59  603   4.772   5.868   1.601
    2CHTO  H137  604   4.784   5.878   1.509
    2CHTO   O45  605   5.247   5.868   1.837
    2CHTO   C67  606   5.162   5.791   1.923
    2CHTO  H124  607   5.069   5.844   1.939
    2CHTO   C65  608   5.131   5.651   1.859
    2CHTO  H122  609   5.203   5.638   1.778
    2CHTO   O44  610   4.998   5.658   1.802
    2CHTO  H102  611   4.996   5.721   1.733
    2CHTO   C63  612   5.158   5.530   1.957
    2CHTO  H120  613   5.266   5.523   1.973
    2CHTO   N11  614   5.128   5.393   1.904
    2CHTO  H108  615   5.023   5.382   1.891
    2CHTO  H109  616   5.164   5.319   1.972
    2CHTO   C61  617   5.094   5.563   2.096
    2CHTO  H118  618   5.130   5.486   2.166
    2CHTO   O40  619   5.136   5.692   2.150
    2CHTO   C68  620   5.225   5.775   2.067
    2CHTO  H125  621   5.325   5.726   2.060
    2CHTO   C72  622   5.247   5.912   2.135
    2CHTO   O48  623   5.310   5.902   2.263
    2CHTO  H105  624   5.251   5.861   2.324
    2CHTO   O38  625   4.949   5.561   2.088
    2CHTO   C55  626   4.877   5.556   2.213
    2CHTO  H112  627   4.933   5.610   2.291
    2CHTO   C56  628   4.845   5.406   2.254
    2CHTO  H113  629   4.791   5.359   2.170
    2CHTO   O42  630   4.967   5.332   2.271
    2CHTO  H100  631   5.013   5.325   2.189
    2CHTO   C57  632   4.758   5.402   2.386
    2CHTO  H114  633   4.821   5.438   2.467
    2CHTO   N10  634   4.711   5.266   2.423
    2CHTO  H106  635   4.697   5.205   2.335
    2CHTO  H107  636   4.784   5.218   2.487
    2CHTO   C58  637   4.637   5.498   2.372
    2CHTO  H115  638   4.562   5.455   2.301
    2CHTO   O37  639   4.676   5.629   2.327
    2CHTO   C59  640   4.741   5.632   2.199
    2CHTO  H116  641   4.677   5.585   2.124
    2CHTO   C70  642   4.760   5.779   2.161
    2CHTO   O46  643   4.801   5.799   2.025
    2CHTO  H103  644   4.732   5.775   1.967
    2CHTO   O39  645   4.569   5.523   2.516
    2CHTO   C60  646   4.429   5.552   2.511
    2CHTO  H117  647   4.405   5.603   2.418
    2CHTO   C62  648   4.345   5.421   2.518
    2CHTO  H119  649   4.371   5.362   2.427
    2CHTO   O43  650   4.384   5.346   2.635
    2CHTO  H101  651   4.339   5.264   2.637
    2CHTO   C66  652   4.188   5.456   2.516
    2CHTO  H123  653   4.167   5.513   2.425
    2CHTO   N12  654   4.102   5.335   2.508
    2CHTO  H110  655   4.124   5.280   2.418
    2CHTO  H111  656   4.118   5.273   2.596
    2CHTO   C69  657   4.154   5.547   2.637
    2CHTO  H126  658   4.178   5.495   2.732
    2CHTO   O41  659   4.241   5.677   2.625
    2CHTO   C64  660   4.390   5.650   2.627
    2CHTO  H121  661   4.420   5.605   2.724
    2CHTO   C71  662   4.461   5.788   2.613
    2CHTO   O47  663   4.602   5.779   2.636
    2CHTO  H104  664   4.618   5.758   2.726
    2CHTO   O34  665   4.003   5.588   2.640
    2CHTO   C49  666   3.900   5.699   2.655
    2CHTO   H91  667   3.829   5.665   2.731
    2CHTO   C47  668   3.830   5.717   2.519
    2CHTO   H89  669   3.745   5.788   2.537
    2CHTO   O33  670   3.775   5.590   2.479
    2CHTO   H70  671   3.724   5.601   2.401
    2CHTO   C45  672   3.934   5.780   2.414
    2CHTO   H87  673   4.024   5.717   2.412
    2CHTO    N8  674   3.880   5.787   2.276
    2CHTO   H75  675   3.850   5.689   2.243
    2CHTO   H76  676   3.794   5.853   2.273
    2CHTO   C43  677   3.983   5.923   2.471
    2CHTO   H85  678   4.056   5.961   2.399
    2CHTO   O29  679   4.041   5.905   2.602
    2CHTO   C50  680   3.965   5.833   2.702
    2CHTO   H92  681   4.036   5.807   2.782
    2CHTO   C54  682   3.862   5.925   2.774
    2CHTO   O36  683   3.928   6.033   2.841
    2CHTO   H72  684   3.864   6.084   0.039
    2CHTO   O27  685   3.877   6.020   2.477
    2CHTO   C37  686   3.807   6.123   2.405
    2CHTO   H79  687   3.832   6.119   2.298
    2CHTO   C38  688   3.652   6.103   2.418
    2CHTO   H80  689   3.627   6.095   2.524
    2CHTO   O31  690   3.618   5.978   2.354
    2CHTO   H68  691   3.638   5.980   2.263
    2CHTO   C39  692   3.573   6.223   2.353
    2CHTO   H81  693   3.593   6.222   2.246
    2CHTO    N7  694   3.424   6.213   2.370
    2CHTO   H73  695   3.389   6.121   2.325
    2CHTO   H74  696   3.376   6.297   2.323
    2CHTO   C40  697   3.628   6.360   2.409
    2CHTO   H82  698   3.602   6.369   2.515
    2CHTO   O26  699   3.771   6.366   2.389
    2CHTO   C41  700   3.845   6.263   2.461
    2CHTO   H83  701   3.821   6.268   2.568
    2CHTO   C52  702   3.996   6.292   2.445
    2CHTO   O35  703   4.035   6.424   2.505
    2CHTO   H71  704   3.997   6.494   2.455
    2CHTO   O28  705   3.575   6.474   2.339
    2CHTO   C42  706   3.583   6.611   2.392
    2CHTO   H84  707   3.533   6.671   2.316
    2CHTO   C44  708   3.727   6.671   2.407
    2CHTO   H86  709   3.785   6.606   2.472
    2CHTO   O32  710   3.787   6.668   2.276
    2CHTO   H69  711   3.742   6.724   2.217
    2CHTO   C48  712   3.727   6.816   2.470
    2CHTO   H90  713   3.676   6.883   2.401
    2CHTO    N9  714   3.866   6.872   2.488
    2CHTO   H77  715   3.876   6.964   2.431
    2CHTO   H78  716   3.941   6.801   2.457
    2CHTO   C51  717   3.646   6.812   2.605
    2CHTO   H93  718   3.695   6.741   2.672
    2CHTO   O30  719   3.512   6.773   2.574
    2CHTO   C46  720   3.502   6.630   2.524
    2CHTO   H88  721   3.543   6.564   2.602
    2CHTO   C53  722   3.351   6.597   2.505
    2CHTO   O72  723   3.288   6.685   2.411
    2CHTO  H199  724   3.199   6.661   2.400
    2CHTO   O22  725   3.633   6.941   2.670
    2CHTO   C31  726   3.613   6.953   2.816
    2CHTO   H59  727   3.586   7.060   2.834
    2CHTO   C29  728   3.497   6.868   0.026
    2CHTO   H57  729   3.517   6.763   2.848
    2CHTO   O21  730   3.376   6.906   2.806
    2CHTO   H37  731   3.381   6.884   2.715
    2CHTO   C27  732   3.484   6.881   0.183
    2CHTO   H55  733   3.453   6.983   0.208
    2CHTO    N5  734   3.383   6.786   0.239
    2CHTO   H43  735   3.414   6.684   0.222
    2CHTO   H44  736   3.370   6.805   0.344
    2CHTO   C25  737   3.625   6.859   0.250
    2CHTO   H53  738   3.658   6.756   0.233
    2CHTO   O17  739   3.722   6.949   0.190
    2CHTO   C32  740   3.744   6.928   0.050
    2CHTO   H60  741   3.776   6.825   0.034
    2CHTO   C36  742   3.860   7.020   0.004
    2CHTO   O25  743   3.831   7.159   0.025
    2CHTO   H40  744   3.765   7.187   2.813
    2CHTO   O15  745   3.622   6.889   0.412
    2CHTO   C19  746   3.595   6.813   0.534
    2CHTO   H47  747   3.496   6.768   0.516
    2CHTO   C20  748   3.696   6.700   0.565
    2CHTO   H48  749   3.799   6.738   0.574
    2CHTO   O19  750   3.691   6.613   0.450
    2CHTO   H35  751   3.757   6.546   0.458
    2CHTO   C21  752   3.659   6.621   0.697
    2CHTO   H49  753   3.566   6.566   0.679
    2CHTO    N4  754   3.760   6.518   0.733
    2CHTO   H41  755   3.730   6.466   0.822
    2CHTO   H42  756   3.771   6.447   0.652
    2CHTO   C22  757   3.631   6.719   0.813
    2CHTO   H50  758   3.725   6.764   0.847
    2CHTO   O14  759   3.539   6.823   0.774
    2CHTO   C23  760   3.579   6.902   0.661
    2CHTO   H51  761   3.672   6.954   0.687
    2CHTO   C34  762   3.472   7.010   0.640
    2CHTO   O23  763   3.343   6.953   0.615
    2CHTO   H38  764   3.280   7.022   0.606
    2CHTO   O16  765   3.562   6.654   0.922
    2CHTO   C24  766   3.604   6.705   1.070
    2CHTO   H52  767   3.670   6.791   1.066
    2CHTO   C26  768   3.673   6.589   1.145
    2CHTO   H54  769   3.603   6.502   1.147
    2CHTO   O20  770   3.790   6.550   1.071
    2CHTO   H36  771   3.766   6.510   0.990
    2CHTO   C30  772   3.706   6.629   1.292
    2CHTO   H58  773   3.784   6.707   1.292
    2CHTO    N6  774   3.764   6.515   1.368
    2CHTO   H45  775   3.692   6.434   1.374
    2CHTO   H46  776   3.789   6.546   1.468
    2CHTO   C33  777   3.581   6.690   1.362
    2CHTO   H61  778   3.506   6.611   1.380
    2CHTO   O18  779   3.521   6.792   1.280
    2CHTO   C28  780   3.478   6.748   1.150
    2CHTO   H56  781   3.411   6.663   1.159
    2CHTO   C35  782   3.403   6.863   1.079
    2CHTO   O24  783   3.283   6.900   1.148
    2CHTO   H39  784   3.242   6.971   1.103
    2CHTO    O9  785   3.615   6.741   1.493
    2CHTO   C13  786   3.494   6.746   1.601
    2CHTO   H26  787   3.439   6.649   1.593
    2CHTO   C11  788   3.400   6.870   1.572
    2CHTO   H24  789   3.346   6.849   1.478
    2CHTO    O8  790   3.478   6.989   1.550
    2CHTO    H3  791   3.526   7.011   1.627
    2CHTO    C9  792   3.297   6.883   1.687
    2CHTO   H22  793   3.246   6.786   1.692
    2CHTO    N2  794   3.191   6.982   1.658
    2CHTO   H10  795   3.095   6.933   1.649
    2CHTO   H11  796   3.187   7.058   1.734
    2CHTO    C7  797   3.374   6.906   1.822
    2CHTO   H20  798   3.294   6.908   1.900
    2CHTO    O4  799   3.461   6.795   1.850
    2CHTO   C14  800   3.553   6.748   1.749
    2CHTO   H27  801   3.576   6.643   1.776
    2CHTO   C18  802   3.687   6.826   1.759
    2CHTO   O13  803   3.754   6.799   1.883
    2CHTO    H7  804   3.835   6.847   1.886
    2CHTO    O2  805   3.462   7.048   1.825
    2CHTO    C1  806   3.423   7.146   1.923
    2CHTO   H14  807   3.333   7.111   1.979
    2CHTO    C2  808   3.388   7.287   1.858
    2CHTO   H15  809   3.471   7.310   1.789
    2CHTO    O6  810   3.267   7.275   1.781
    2CHTO    H1  811   3.195   7.253   1.837
    2CHTO    C3  812   3.376   7.403   1.969
    2CHTO   H16  813   3.289   7.382   2.033
    2CHTO    N1  814   3.354   7.540   1.908
    2CHTO    H8  815   3.435   7.607   1.933
    2CHTO    H9  816   3.343   7.534   1.801
    2CHTO    C4  817   3.501   7.396   2.063
    2CHTO   H17  818   3.591   7.415   2.003
    2CHTO    O1  819   3.510   7.266   2.123
    2CHTO    C5  820   3.538   7.162   2.027
    2CHTO   H18  821   3.628   7.188   1.972
    2CHTO   C16  822   3.565   7.031   2.106
    2CHTO   O11  823   3.452   6.988   2.183
    2CHTO    H5  824   3.435   7.049   2.252
    2CHTO    O3  825   3.495   7.491   2.171
    2CHTO    C6  826   3.624   7.520   2.234
    2CHTO   H19  827   3.696   7.439   2.222
    2CHTO    C8  828   3.690   7.651   2.177
    2CHTO   H21  829   3.618   7.732   2.187
    2CHTO    O7  830   3.717   7.627   2.037
    2CHTO    H2  831   3.747   7.706   1.997
    2CHTO   C12  832   3.821   7.685   2.259
    2CHTO   H25  833   3.891   7.601   2.243
    2CHTO    N3  834   3.890   7.809   2.208
    2CHTO   H12  835   3.917   7.795   2.104
    2CHTO   H13  836   3.978   7.829   2.267
    2CHTO   C15  837   3.783   7.693   2.412
    2CHTO   H28  838   3.715   7.775   2.432
    2CHTO   O10  839   3.902   7.704   2.504
    2CHTO    H4  840   3.948   7.784   2.487
    2CHTO    O5  841   3.725   7.568   2.454
    2CHTO   C10  842   3.602   7.537   2.388
    2CHTO   H23  843   3.531   7.619   2.405
    2CHTO   C17  844   3.541   7.412   2.453
    2CHTO   O12  845   3.621   7.294   2.432
    2CHTO    H6  846   3.703   7.302   2.476
    3CHTO  H203  847   8.098   1.361   1.081
    3CHTO   O82  848   8.058   1.286   1.041
    3CHTO  C123  849   7.981   1.212   1.137
    3CHTO  H227  850   8.042   1.198   1.227
    3CHTO   O77  851   7.868   1.299   1.166
    3CHTO  C118  852   7.784   1.252   1.272
    3CHTO  H222  853   7.843   1.237   1.364
    3CHTO  C125  854   7.678   1.365   1.298
    3CHTO   O84  855   7.604   1.344   1.419
    3CHTO  H205  856   7.541   1.413   1.430
    3CHTO  C114  857   7.719   1.119   1.228
    3CHTO  H218  858   7.655   1.139   1.142
    3CHTO  C116  859   7.826   1.014   1.187
    3CHTO  H220  860   7.881   0.980   1.278
    3CHTO   O79  861   7.758   0.898   1.136
    3CHTO  H201  862   7.712   0.854   1.205
    3CHTO  C120  863   7.928   1.074   1.082
    3CHTO  H224  864   7.871   1.090   0.988
    3CHTO   N21  865   8.038   0.979   1.051
    3CHTO  H211  866   8.128   1.031   1.024
    3CHTO  H212  867   8.008   0.912   0.972
    3CHTO   O75  868   7.640   1.077   1.341
    3CHTO  C112  869   7.495   1.021   1.301
    3CHTO  H216  870   7.502   0.964   1.207
    3CHTO   O73  871   7.407   1.134   1.289
    3CHTO  C113  872   7.273   1.100   1.249
    3CHTO  H217  873   7.277   1.046   1.151
    3CHTO  C124  874   7.194   1.229   1.226
    3CHTO   O83  875   7.243   1.306   1.117
    3CHTO  H204  876   7.192   1.384   1.107
    3CHTO  C109  877   7.205   1.009   1.354
    3CHTO  H213  878   7.194   1.069   1.446
    3CHTO  C110  879   7.294   0.883   1.382
    3CHTO  H214  880   7.292   0.819   1.294
    3CHTO   O78  881   7.236   0.808   1.491
    3CHTO  H200  882   7.282   0.728   1.503
    3CHTO  C111  883   7.441   0.925   1.414
    3CHTO  H215  884   7.441   0.981   1.509
    3CHTO   N19  885   7.532   0.809   1.432
    3CHTO  H207  886   7.497   0.746   1.513
    3CHTO  H208  887   7.632   0.843   1.456
    3CHTO   O74  888   7.073   0.972   1.306
    3CHTO  C115  889   6.966   0.945   1.417
    3CHTO  H219  890   7.007   0.883   1.498
    3CHTO   O76  891   6.921   1.077   1.488
    3CHTO  C122  892   6.835   1.159   1.408
    3CHTO  H226  893   6.893   1.193   1.322
    3CHTO  C126  894   6.801   1.288   1.491
    3CHTO   O85  895   6.734   1.261   1.614
    3CHTO  H206  896   6.648   1.228   1.597
    3CHTO  C121  897   6.704   1.083   1.360
    3CHTO  H225  898   6.616   1.127   1.412
    3CHTO   O81  899   6.685   1.106   1.219
    3CHTO  H202  900   6.756   1.069   1.170
    3CHTO  C119  901   6.709   0.930   1.391
    3CHTO  H223  902   6.702   0.922   1.500
    3CHTO  C117  903   6.846   0.868   1.347
    3CHTO  H221  904   6.866   0.874   1.240
    3CHTO   N20  905   6.853   0.721   1.379
    3CHTO  H209  906   6.844   0.705   1.486
    3CHTO  H210  907   6.774   0.668   1.327
    3CHTO   O80  908   6.579   0.852   1.345
    3CHTO  C103  909   6.444   0.879   1.413
    3CHTO  H190  910   6.457   0.937   1.504
    3CHTO  C101  911   6.338   0.950   1.320
    3CHTO  H188  912   6.345   0.906   1.220
    3CHTO   O68  913   6.374   1.101   1.309
    3CHTO  H168  914   6.365   1.143   1.392
    3CHTO   C99  915   6.188   0.928   1.373
    3CHTO  H186  916   6.176   0.979   1.471
    3CHTO   N17  917   6.083   0.984   1.281
    3CHTO  H174  918   6.099   1.090   1.267
    3CHTO  H175  919   6.084   0.931   1.187
    3CHTO   C97  920   6.166   0.777   1.401
    3CHTO  H184  921   6.181   0.723   1.306
    3CHTO   O64  922   6.260   0.735   1.501
    3CHTO  C104  923   6.396   0.734   1.456
    3CHTO  H191  924   6.408   0.666   1.372
    3CHTO  C108  925   6.485   0.678   1.568
    3CHTO   O71  926   6.453   0.542   1.599
    3CHTO  H171  927   6.370   0.538   1.643
    3CHTO   O62  928   6.037   0.746   1.458
    3CHTO   C91  929   5.980   0.619   1.421
    3CHTO  H178  930   6.008   0.598   1.317
    3CHTO   C92  931   5.825   0.636   1.420
    3CHTO  H179  932   5.792   0.679   1.515
    3CHTO   O66  933   5.793   0.733   1.319
    3CHTO  H166  934   5.702   0.753   1.320
    3CHTO   C93  935   5.752   0.498   1.394
    3CHTO  H180  936   5.781   0.467   1.293
    3CHTO   N16  937   5.604   0.508   1.393
    3CHTO  H172  938   5.571   0.610   1.410
    3CHTO  H173  939   5.565   0.471   1.299
    3CHTO   C94  940   5.801   0.388   1.497
    3CHTO  H181  941   5.725   0.364   1.572
    3CHTO   O61  942   5.915   0.428   1.576
    3CHTO   C95  943   6.025   0.498   1.513
    3CHTO  H182  944   6.089   0.539   1.591
    3CHTO  C106  945   6.117   0.399   1.431
    3CHTO   O69  946   6.176   0.300   1.516
    3CHTO  H169  947   6.239   0.340   1.573
    3CHTO   O63  948   5.839   0.254   1.414
    3CHTO   C96  949   5.751   0.124   1.447
    3CHTO  H183  950   5.788   0.044   1.383
    3CHTO   C98  951   5.599   0.140   1.420
    3CHTO  H185  952   5.560   0.228   1.474
    3CHTO   O67  953   5.583   0.169   1.280
    3CHTO  H167  954   5.493   0.188   1.261
    3CHTO  C102  955   5.515   0.009   1.460
    3CHTO  H189  956   5.541   9.932   1.385
    3CHTO   N18  957   5.368   0.024   1.453
    3CHTO  H176  958   5.341   0.124   1.422
    3CHTO  H177  959   5.325   9.952   1.385
    3CHTO  C105  960   5.561   9.955   1.599
    3CHTO  H192  961   5.520   0.019   1.678
    3CHTO   O65  962   5.704   9.952   1.616
    3CHTO  C100  963   5.770   0.077   1.596
    3CHTO  H187  964   5.725   0.152   1.664
    3CHTO  C107  965   5.920   0.062   1.634
    3CHTO   O70  966   5.935   0.035   1.774
    3CHTO  H170  967   5.903   9.950   1.794
    3CHTO   O57  968   5.500   9.799   1.610
    3CHTO   C85  969   5.456   9.741   1.734
    3CHTO  H157  970   5.442   9.633   1.710
    3CHTO   C83  971   5.313   9.793   1.772
    3CHTO  H155  972   5.243   9.759   1.696
    3CHTO   O56  973   5.307   9.937   1.769
    3CHTO  H135  974   5.364   9.973   1.834
    3CHTO   C81  975   5.270   9.733   1.909
    3CHTO  H153  976   5.276   9.624   1.901
    3CHTO   N14  977   5.128   9.760   1.945
    3CHTO  H141  978   5.071   9.669   1.945
    3CHTO  H142  979   5.084   9.830   1.877
    3CHTO   C79  980   5.372   9.779   2.020
    3CHTO  H151  981   5.340   9.734   2.114
    3CHTO   O52  982   5.504   9.725   1.989
    3CHTO   C86  983   5.556   9.761   1.857
    3CHTO  H158  984   5.584   9.868   1.867
    3CHTO   C90  985   5.689   9.685   1.832
    3CHTO   O60  986   5.671   9.543   1.835
    3CHTO  H138  987   5.649   9.516   1.923
    3CHTO   O50  988   5.381   9.921   2.036
    3CHTO   C73  989   5.410   0.019   2.137
    3CHTO  H145  990   5.489   9.982   2.204
    3CHTO   C74  991   5.281   0.047   2.221
    3CHTO  H146  992   5.248   9.951   2.263
    3CHTO   O54  993   5.316   0.130   2.333
    3CHTO  H133  994   5.373   0.084   2.391
    3CHTO   C75  995   5.171   0.111   2.127
    3CHTO  H147  996   5.147   0.039   2.048
    3CHTO   N13  997   5.042   0.138   2.195
    3CHTO  H139  998   4.971   0.180   2.125
    3CHTO  H140  999   5.057   0.210   2.275
    3CHTO   C76 1000   5.231   0.241   2.056
    3CHTO  H148 1001   5.249   0.317   2.132
    3CHTO   O49 1002   5.357   0.209   1.987
    3CHTO   C77 1003   5.459   0.152   2.070
    3CHTO  H149 1004   5.488   0.222   2.148
    3CHTO   C88 1005   5.582   0.133   1.980
    3CHTO   O58 1006   5.697   0.082   2.052
    3CHTO  H136 1007   5.728   0.147   2.112
    3CHTO   O51 1008   5.136   0.292   1.938
    3CHTO   C78 1009   5.162   0.444   1.905
    3CHTO  H150 1010   5.253   0.481   1.957
    3CHTO   C80 1011   5.041   0.528   1.951
    3CHTO  H152 1012   4.949   0.489   1.900
    3CHTO   O55 1013   5.027   0.509   2.093
    3CHTO  H134 1014   4.998   0.421   2.111
    3CHTO   C84 1015   5.060   0.681   1.916
    3CHTO  H156 1016   5.142   0.718   1.977
    3CHTO   N15 1017   4.939   0.763   1.950
    3CHTO  H143 1018   4.854   0.729   1.894
    3CHTO  H144 1019   4.957   0.866   1.927
    3CHTO   C87 1020   5.100   0.699   1.767
    3CHTO  H159 1021   5.014   0.683   1.702
    3CHTO   O53 1022   5.216   0.598   1.727
    3CHTO   C82 1023   5.185   0.461   1.754
    3CHTO  H154 1024   5.097   0.431   1.697
    3CHTO   C89 1025   5.303   0.373   1.706
    3CHTO   O59 1026   5.324   0.385   1.565
    3CHTO  H137 1027   5.253   0.346   1.518
    3CHTO   O45 1028   5.153   0.858   1.742
    3CHTO   C67 1029   5.295   0.876   1.734
    3CHTO  H124 1030   5.346   0.790   1.777
    3CHTO   C65 1031   5.339   0.892   1.584
    3CHTO  H122 1032   5.252   0.930   1.531
    3CHTO   O44 1033   5.369   0.759   1.537
    3CHTO  H102 1034   5.382   0.761   1.444
    3CHTO   C63 1035   5.450   1.003   1.564
    3CHTO  H120 1036   5.403   1.101   1.575
    3CHTO   N11 1037   5.507   1.013   1.425
    3CHTO  H108 1038   5.614   1.013   1.428
    3CHTO  H109 1039   5.473   1.101   1.376
    3CHTO   C61 1040   5.555   0.991   1.680
    3CHTO  H118 1041   5.626   1.074   1.668
    3CHTO   O40 1042   5.492   1.008   1.811
    3CHTO   C68 1043   5.346   0.999   1.821
    3CHTO  H125 1044   5.302   1.093   1.783
    3CHTO   C72 1045   5.311   0.989   1.971
    3CHTO   O48 1046   5.172   1.009   1.997
    3CHTO  H105 1047   5.122   0.939   1.962
    3CHTO   O38 1048   5.625   0.865   1.673
    3CHTO   C55 1049   5.722   0.835   1.776
    3CHTO  H112 1050   5.696   0.885   1.870
    3CHTO   C56 1051   5.869   0.874   1.728
    3CHTO  H113 1052   5.885   0.826   1.631
    3CHTO   O42 1053   5.877   1.015   1.703
    3CHTO  H100 1054   5.861   1.063   1.782
    3CHTO   C57 1055   5.977   0.823   1.832
    3CHTO  H114 1056   5.961   0.879   1.924
    3CHTO   N10 1057   6.118   0.847   1.790
    3CHTO  H106 1058   6.155   0.764   1.731
    3CHTO  H107 1059   6.125   0.938   1.733
    3CHTO   C58 1060   5.952   0.673   1.861
    3CHTO  H115 1061   5.968   0.615   1.767
    3CHTO   O37 1062   5.817   0.652   1.906
    3CHTO   C59 1063   5.718   0.682   1.806
    3CHTO  H116 1064   5.738   0.624   1.716
    3CHTO   C70 1065   5.581   0.641   1.859
    3CHTO   O46 1066   5.572   0.500   1.884
    3CHTO  H103 1067   5.486   0.479   1.916
    3CHTO   O39 1068   6.047   0.613   1.980
    3CHTO   C60 1069   6.059   0.470   1.971
    3CHTO  H117 1070   5.981   0.430   1.905
    3CHTO   C62 1071   6.196   0.429   1.910
    3CHTO  H119 1072   6.202   0.477   1.810
    3CHTO   O43 1073   6.303   0.481   1.992
    3CHTO  H101 1074   6.305   0.575   1.987
    3CHTO   C66 1075   6.201   0.269   1.893
    3CHTO  H123 1076   6.118   0.239   1.829
    3CHTO   N12 1077   6.324   0.224   1.822
    3CHTO  H110 1078   6.411   0.251   1.879
    3CHTO  H111 1079   6.320   0.117   1.805
    3CHTO   C69 1080   6.181   0.199   2.030
    3CHTO  H126 1081   6.267   0.222   2.097
    3CHTO   O41 1082   6.047   0.251   2.097
    3CHTO   C64 1083   6.039   0.403   2.110
    3CHTO  H121 1084   6.119   0.438   2.178
    3CHTO   C71 1085   5.903   0.442   2.174
    3CHTO   O47 1086   5.791   0.396   2.097
    3CHTO  H104 1087   5.787   0.302   2.100
    3CHTO   O34 1088   6.169   0.041   2.014
    3CHTO   C49 1089   6.239   9.906   1.983
    3CHTO   H91 1090   6.299   9.926   1.894
    3CHTO   C47 1091   6.133   9.799   1.949
    3CHTO   H89 1092   6.100   9.823   1.844
    3CHTO   O33 1093   6.019   9.809   2.035
    3CHTO   H70 1094   5.975   9.891   2.023
    3CHTO   C45 1095   6.192   9.648   1.960
    3CHTO   H87 1096   6.166   9.610   2.060
    3CHTO    N8 1097   6.129   9.560   1.859
    3CHTO   H75 1098   6.021   9.564   1.868
    3CHTO   H76 1099   6.162   9.458   1.874
    3CHTO   C43 1100   6.352   9.648   1.959
    3CHTO   H85 1101   6.384   9.544   1.967
    3CHTO   O29 1102   6.399   9.727   2.069
    3CHTO   C50 1103   6.334   9.854   2.094
    3CHTO   H92 1104   6.277   9.848   2.188
    3CHTO   C54 1105   6.444   9.959   2.124
    3CHTO   O36 1106   6.526   9.921   2.235
    3CHTO   H72 1107   6.591   9.986   2.250
    3CHTO   O27 1108   6.406   9.697   1.835
    3CHTO   C37 1109   6.514   9.769   1.775
    3CHTO   H79 1110   6.519   9.871   1.815
    3CHTO   C38 1111   6.652   9.702   1.804
    3CHTO   H80 1112   6.644   9.595   1.779
    3CHTO   O31 1113   6.676   9.715   1.945
    3CHTO   H68 1114   6.753   9.667   1.969
    3CHTO   C39 1115   6.768   9.767   1.719
    3CHTO   H81 1116   6.781   9.870   1.756
    3CHTO    N7 1117   6.901   9.697   1.736
    3CHTO   H73 1118   6.974   9.765   1.777
    3CHTO   H74 1119   6.891   9.611   1.800
    3CHTO   C40 1120   6.726   9.776   1.567
    3CHTO   H82 1121   6.720   9.675   1.527
    3CHTO   O26 1122   6.601   9.846   1.557
    3CHTO   C41 1123   6.489   9.778   1.622
    3CHTO   H83 1124   6.478   9.676   1.580
    3CHTO   C52 1125   6.360   9.856   1.591
    3CHTO   O35 1126   6.332   9.863   1.449
    3CHTO   H71 1127   6.252   9.910   1.435
    3CHTO   O28 1128   6.825   9.842   1.484
    3CHTO   C42 1129   6.821   9.980   1.433
    3CHTO   H84 1130   6.921   9.993   1.391
    3CHTO   C44 1131   6.804   0.093   1.539
    3CHTO   H86 1132   6.707   0.081   1.588
    3CHTO   O32 1133   6.908   0.075   1.636
    3CHTO   H69 1134   6.897   0.135   1.707
    3CHTO   C48 1135   6.810   0.237   1.473
    3CHTO   H90 1136   6.912   0.255   1.440
    3CHTO    N9 1137   6.780   0.347   1.572
    3CHTO   H77 1138   6.853   0.346   1.651
    3CHTO   H78 1139   6.681   0.335   1.612
    3CHTO   C51 1140   6.716   0.246   1.347
    3CHTO   H93 1141   6.612   0.242   1.381
    3CHTO   O30 1142   6.746   0.138   1.257
    3CHTO   C46 1143   6.720   0.002   1.316
    3CHTO   H88 1144   6.618   9.999   1.354
    3CHTO   C53 1145   6.737   9.899   1.202
    3CHTO   O72 1146   6.686   9.770   1.239
    3CHTO  H199 1147   6.699   9.710   1.168
    3CHTO   O22 1148   6.741   0.367   1.273
    3CHTO   C31 1149   6.660   0.406   1.156
    3CHTO   H59 1150   6.624   0.311   1.110
    3CHTO   C29 1151   6.534   0.490   1.190
    3CHTO   H57 1152   6.569   0.583   1.237
    3CHTO   O21 1153   6.455   0.420   1.287
    3CHTO   H37 1154   6.502   0.412   1.368
    3CHTO   C27 1155   6.453   0.525   1.059
    3CHTO   H55 1156   6.417   0.431   1.014
    3CHTO    N5 1157   6.335   0.612   1.084
    3CHTO   H43 1158   6.280   0.627   0.993
    3CHTO   H44 1159   6.368   0.707   1.124
    3CHTO   C25 1160   6.550   0.590   0.954
    3CHTO   H53 1161   6.586   0.687   0.992
    3CHTO   O17 1162   6.665   0.504   0.930
    3CHTO   C32 1163   6.745   0.478   1.047
    3CHTO   H60 1164   6.781   0.573   1.088
    3CHTO   C36 1165   6.867   0.393   1.006
    3CHTO   O25 1166   6.952   0.466   0.917
    3CHTO   H40 1167   7.026   0.413   0.893
    3CHTO   O15 1168   6.480   0.611   0.816
    3CHTO   C19 1169   6.477   0.712   0.711
    3CHTO   H47 1170   6.417   0.666   0.632
    3CHTO   C20 1171   6.409   0.846   0.752
    3CHTO   H48 1172   6.464   0.897   0.834
    3CHTO   O19 1173   6.277   0.815   0.801
    3CHTO   H35 1174   6.282   0.768   0.882
    3CHTO   C21 1175   6.400   0.946   0.630
    3CHTO   H49 1176   6.328   0.906   0.558
    3CHTO    N4 1177   6.349   1.081   0.667
    3CHTO   H41 1178   6.416   1.127   0.739
    3CHTO   H42 1179   6.343   1.144   0.580
    3CHTO   C22 1180   6.536   0.955   0.555
    3CHTO   H50 1181   6.606   1.018   0.611
    3CHTO   O14 1182   6.595   0.825   0.533
    3CHTO   C23 1183   6.616   0.744   0.649
    3CHTO   H51 1184   6.680   0.800   0.719
    3CHTO   C34 1185   6.690   0.617   0.606
    3CHTO   O23 1186   6.822   0.647   0.559
    3CHTO   H38 1187   6.876   0.675   0.630
    3CHTO   O16 1188   6.517   1.002   0.420
    3CHTO   C24 1189   6.603   1.129   0.376
    3CHTO   H52 1190   6.644   1.183   0.462
    3CHTO   C26 1191   6.510   1.223   0.296
    3CHTO   H54 1192   6.462   1.164   0.215
    3CHTO   O20 1193   6.407   1.270   0.385
    3CHTO   H36 1194   6.344   1.321   0.338
    3CHTO   C30 1195   6.589   1.341   0.231
    3CHTO   H58 1196   6.622   1.410   0.310
    3CHTO    N6 1197   6.501   1.422   0.141
    3CHTO   H45 1198   6.537   1.421   0.039
    3CHTO   H46 1199   6.495   1.524   0.175
    3CHTO   C33 1200   6.719   1.293   0.159
    3CHTO   H61 1201   6.692   1.240   0.066
    3CHTO   O18 1202   6.793   1.202   0.243
    3CHTO   C28 1203   6.723   1.085   0.288
    3CHTO   H56 1204   6.685   1.028   0.202
    3CHTO   C35 1205   6.824   0.996   0.364
    3CHTO   O24 1206   6.883   1.061   0.478
    3CHTO   H39 1207   6.943   1.003   0.519
    3CHTO    O9 1208   6.800   1.405   0.118
    3CHTO   C13 1209   6.891   1.472   0.239
    3CHTO   H26 1210   6.843   1.448   0.337
    3CHTO   C11 1211   6.904   1.628   0.216
    3CHTO   H24 1212   6.804   1.671   0.226
    3CHTO    O8 1213   6.952   1.656   0.083
    3CHTO    H3 1214   6.889   1.627   0.020
    3CHTO    C9 1215   6.994   1.685   0.329
    3CHTO   H22 1216   6.946   1.655   0.424
    3CHTO    N2 1217   6.995   1.834   0.336
    3CHTO   H10 1218   6.947   1.877   0.250
    3CHTO   H11 1219   7.096   1.871   0.345
    3CHTO    C7 1220   7.137   1.620   0.323
    3CHTO   H20 1221   7.186   1.652   0.417
    3CHTO    O4 1222   7.133   1.475   0.321
    3CHTO   C14 1223   7.034   1.402   0.245
    3CHTO   H27 1224   7.021   1.306   0.300
    3CHTO   C18 1225   7.088   1.367   0.104
    3CHTO   O13 1226   7.200   1.278   0.112
    3CHTO    H7 1227   7.231   1.259   0.025
    3CHTO    O2 1228   7.227   1.675   0.195
    3CHTO    C1 1229   7.353   1.610   0.169
    3CHTO   H14 1230   7.335   1.504   0.146
    3CHTO    C2 1231   7.462   1.618   0.285
    3CHTO   H15 1232   7.474   1.725   0.310
    3CHTO    O6 1233   7.415   1.547   0.401
    3CHTO    H1 1234   7.340   1.590   0.437
    3CHTO    C3 1235   7.602   1.556   0.236
    3CHTO   H16 1236   7.587   1.448   0.222
    3CHTO    N1 1237   7.711   1.573   0.338
    3CHTO    H8 1238   7.792   1.633   0.298
    3CHTO    H9 1239   7.749   1.477   0.369
    3CHTO    C4 1240   7.641   1.612   0.094
    3CHTO   H17 1241   7.674   1.716   0.104
    3CHTO    O1 1242   7.533   1.603   0.000
    3CHTO    C5 1243   7.414   1.673   0.040
    3CHTO   H18 1244   7.440   1.777   0.062
    3CHTO   C16 1245   7.315   1.672   2.768
    3CHTO   O11 1246   7.282   1.540   2.724
    3CHTO    H5 1247   7.357   1.499   2.686
    3CHTO    O3 1248   7.747   1.532   0.036
    3CHTO    C6 1249   7.817   1.591   2.769
    3CHTO   H19 1250   7.762   1.673   2.723
    3CHTO    C8 1251   7.957   1.643   2.814
    3CHTO   H21 1252   8.008   1.563   0.020
    3CHTO    O7 1253   7.935   1.755   0.054
    3CHTO    H2 1254   7.898   1.726   0.135
    3CHTO   C12 1255   8.046   1.684   2.689
    3CHTO   H25 1256   7.997   1.774   2.644
    3CHTO    N3 1257   8.185   1.726   2.729
    3CHTO   H12 1258   8.259   1.660   2.688
    3CHTO   H13 1259   8.195   1.731   2.837
    3CHTO   C15 1260   8.044   1.568   2.582
    3CHTO   H28 1261   8.098   1.480   2.617
    3CHTO   O10 1262   8.099   1.612   2.445
    3CHTO    H4 1263   8.192   1.626   2.452
    3CHTO    O5 1264   7.909   1.532   2.549
    3CHTO   C10 1265   7.834   1.481   2.660
    3CHTO   H23 1266   7.887   1.396   2.702
    3CHTO   C17 1267   7.699   1.430   2.608
    3CHTO   O12 1268   7.714   1.317   2.521
    3CHTO    H6 1269   7.758   1.343   2.443
    4CHTO  H203 1270   6.489   7.159   1.784
    4CHTO   O82 1271   6.430   7.141   1.856
    4CHTO  C123 1272   6.371   7.263   1.903
    4CHTO  H227 1273   6.297   7.237   1.981
    4CHTO   O77 1274   6.482   7.336   1.961
    4CHTO  C118 1275   6.442   7.451   2.036
    4CHTO  H222 1276   6.371   7.423   2.115
    4CHTO  C125 1277   6.573   7.508   2.103
    4CHTO   O84 1278   6.543   7.598   2.210
    4CHTO  H205 1279   6.505   7.677   2.176
    4CHTO  C114 1280   6.377   7.553   1.939
    4CHTO  H218 1281   6.453   7.587   1.869
    4CHTO  C116 1282   6.262   7.489   1.855
    4CHTO  H220 1283   6.174   7.473   1.921
    4CHTO   O79 1284   6.220   7.584   1.756
    4CHTO  H201 1285   6.146   7.552   1.708
    4CHTO  C120 1286   6.305   7.351   1.791
    4CHTO  H224 1287   6.381   7.375   1.712
    4CHTO   N21 1288   6.192   7.282   1.723
    4CHTO  H211 1289   6.206   7.175   1.723
    4CHTO  H212 1290   6.098   7.307   1.771
    4CHTO   O75 1291   6.331   7.660   2.022
    4CHTO  C112 1292   6.381   7.806   1.975
    4CHTO  H216 1293   6.401   7.805   1.867
    4CHTO   O73 1294   6.499   7.837   2.051
    4CHTO  C113 1295   6.562   7.960   2.015
    4CHTO  H217 1296   6.594   7.956   1.909
    4CHTO  C124 1297   6.689   7.976   2.102
    4CHTO   O83 1298   6.782   7.869   2.083
    4CHTO  H204 1299   6.857   7.883   2.138
    4CHTO  C109 1300   6.466   8.080   2.036
    4CHTO  H213 1301   6.452   8.091   2.145
    4CHTO  C110 1302   6.329   8.056   1.966
    4CHTO  H214 1303   6.344   8.061   1.858
    4CHTO   O78 1304   6.241   8.163   2.003
    4CHTO  H200 1305   6.160   8.157   1.956
    4CHTO  C111 1306   6.272   7.916   2.005
    4CHTO  H215 1307   6.252   7.915   2.113
    4CHTO   N19 1308   6.143   7.885   1.937
    4CHTO  H207 1309   6.066   7.865   2.010
    4CHTO  H208 1310   6.152   7.802   1.869
    4CHTO   O74 1311   6.530   8.201   1.984
    4CHTO  C115 1312   6.514   8.328   2.075
    4CHTO  H219 1313   6.433   8.316   2.148
    4CHTO   O76 1314   6.642   8.355   2.159
    4CHTO  C122 1315   6.761   8.361   2.078
    4CHTO  H226 1316   6.792   8.258   2.057
    4CHTO  C126 1317   6.877   8.423   2.164
    4CHTO   O85 1318   6.910   8.341   2.276
    4CHTO  H206 1319   6.980   8.381   2.325
    4CHTO  C121 1320   6.742   8.440   1.942
    4CHTO  H225 1321   6.830   8.506   1.926
    4CHTO   O81 1322   6.739   8.349   1.831
    4CHTO  H202 1323   6.741   8.396   1.750
    4CHTO  C119 1324   6.614   8.530   1.947
    4CHTO  H223 1325   6.632   8.599   2.030
    4CHTO  C117 1326   6.482   8.449   1.978
    4CHTO  H221 1327   6.436   8.402   1.891
    4CHTO   N20 1328   6.375   8.539   2.034
    4CHTO  H209 1329   6.283   8.483   2.047
    4CHTO  H210 1330   6.407   8.580   2.128
    4CHTO   O80 1331   6.602   8.629   1.827
    4CHTO  C103 1332   6.641   8.778   1.846
    4CHTO  H190 1333   6.595   8.817   1.937
    4CHTO  C101 1334   6.796   8.806   1.850
    4CHTO  H188 1335   6.844   8.752   1.768
    4CHTO   O68 1336   6.854   8.750   1.985
    4CHTO  H168 1337   6.817   8.797   2.057
    4CHTO   C99 1338   6.828   8.962   1.835
    4CHTO  H186 1339   6.789   9.016   1.924
    4CHTO   N17 1340   6.975   8.993   1.826
    4CHTO  H174 1341   7.027   8.950   1.910
    4CHTO  H175 1342   6.990   9.100   1.822
    4CHTO   C97 1343   6.750   9.020   1.714
    4CHTO  H184 1344   6.791   8.977   1.621
    4CHTO   O64 1345   6.609   8.993   1.728
    4CHTO  C104 1346   6.575   8.853   1.724
    4CHTO  H191 1347   6.606   8.806   1.630
    4CHTO  C108 1348   6.421   8.848   1.726
    4CHTO   O71 1349   6.369   8.717   1.700
    4CHTO  H171 1350   6.387   8.692   1.612
    4CHTO   O62 1351   6.755   9.164   1.710
    4CHTO   C91 1352   6.727   9.227   1.583
    4CHTO  H178 1353   6.689   9.152   1.513
    4CHTO   C92 1354   6.860   9.282   1.522
    4CHTO  H179 1355   6.902   9.355   1.593
    4CHTO   O66 1356   6.957   9.176   1.513
    4CHTO  H166 1357   6.980   9.145   1.599
    4CHTO   C93 1358   6.838   9.346   1.380
    4CHTO  H180 1359   6.846   9.262   1.309
    4CHTO   N16 1360   6.947   9.438   1.340
    4CHTO  H172 1361   6.992   9.407   1.247
    4CHTO  H173 1362   6.912   9.540   1.333
    4CHTO   C94 1363   6.694   9.411   1.364
    4CHTO  H181 1364   6.697   9.504   1.307
    4CHTO   O61 1365   6.637   9.447   1.491
    4CHTO   C95 1366   6.624   9.346   1.593
    4CHTO  H182 1367   6.639   9.393   1.690
    4CHTO  C106 1368   6.476   9.293   1.594
    4CHTO   O69 1369   6.385   9.397   1.630
    4CHTO  H169 1370   6.382   9.462   1.562
    4CHTO   O63 1371   6.595   9.308   1.288
    4CHTO   C96 1372   6.638   9.279   1.135
    4CHTO  H183 1373   6.746   9.291   1.127
    4CHTO   C98 1374   6.574   9.370   1.027
    4CHTO  H185 1375   6.464   9.361   1.031
    4CHTO   O67 1376   6.603   9.506   1.061
    4CHTO  H167 1377   6.560   9.564   1.001
    4CHTO  C102 1378   6.630   9.333   0.881
    4CHTO  H189 1379   6.733   9.373   0.878
    4CHTO   N18 1380   6.558   9.399   0.769
    4CHTO  H176 1381   6.454   9.371   0.771
    4CHTO  H177 1382   6.567   9.506   0.778
    4CHTO  C105 1383   6.641   9.179   0.858
    4CHTO  H192 1384   6.548   9.141   0.816
    4CHTO   O65 1385   6.673   9.098   0.974
    4CHTO  C100 1386   6.604   9.132   1.096
    4CHTO  H187 1387   6.496   9.124   1.078
    4CHTO  C107 1388   6.640   9.030   1.207
    4CHTO   O70 1389   6.780   9.025   1.234
    4CHTO  H170 1390   6.797   8.962   1.300
    4CHTO   O57 1391   6.765   9.164   0.751
    4CHTO   C85 1392   6.760   9.073   0.640
    4CHTO  H157 1393   6.666   9.095   0.586
    4CHTO   C83 1394   6.748   8.926   0.690
    4CHTO  H155 1395   6.655   8.916   0.746
    4CHTO   O56 1396   6.855   8.897   0.782
    4CHTO  H135 1397   6.846   8.950   0.859
    4CHTO   C81 1398   6.743   8.830   0.567
    4CHTO  H153 1399   6.660   8.861   0.504
    4CHTO   N14 1400   6.711   8.690   0.605
    4CHTO  H141 1401   6.617   8.660   0.563
    4CHTO  H142 1402   6.787   8.623   0.571
    4CHTO   C79 1403   6.876   8.844   0.482
    4CHTO  H151 1404   6.862   8.785   0.391
    4CHTO   O52 1405   6.893   8.983   0.438
    4CHTO   C86 1406   6.886   9.083   0.545
    4CHTO  H158 1407   6.980   9.068   0.603
    4CHTO   C90 1408   6.896   9.225   0.484
    4CHTO   O60 1409   7.022   9.246   0.419
    4CHTO  H138 1410   7.091   9.250   0.482
    4CHTO   O50 1411   6.994   8.795   0.548
    4CHTO   C73 1412   7.127   8.809   0.602
    4CHTO  H145 1413   7.126   8.879   0.686
    4CHTO   C74 1414   7.224   8.863   0.493
    4CHTO  H146 1415   7.183   8.959   0.458
    4CHTO   O54 1416   7.351   8.893   0.555
    4CHTO  H133 1417   7.391   8.815   0.587
    4CHTO   C75 1418   7.234   8.758   0.375
    4CHTO  H147 1419   7.134   8.745   0.331
    4CHTO   N13 1420   7.321   8.801   0.263
    4CHTO  H139 1421   7.421   8.819   0.298
    4CHTO  H140 1422   7.283   8.893   0.220
    4CHTO   C76 1423   7.278   8.615   0.434
    4CHTO  H148 1424   7.381   8.622   0.470
    4CHTO   O49 1425   7.190   8.576   0.544
    4CHTO   C77 1426   7.179   8.671   0.652
    4CHTO  H149 1427   7.277   8.684   0.698
    4CHTO   C88 1428   7.088   8.613   0.761
    4CHTO   O58 1429   7.148   8.490   0.822
    4CHTO  H136 1430   7.152   8.421   0.758
    4CHTO   O51 1431   7.256   8.499   0.326
    4CHTO   C78 1432   7.386   8.422   0.276
    4CHTO  H150 1433   7.479   8.481   0.296
    4CHTO   C80 1434   7.373   8.399   0.124
    4CHTO  H152 1435   7.273   8.354   0.103
    4CHTO   O55 1436   7.378   8.528   0.060
    4CHTO  H134 1437   7.300   8.577   0.080
    4CHTO   C84 1438   7.485   8.303   0.067
    4CHTO  H156 1439   7.581   8.355   0.076
    4CHTO   N15 1440   7.466   8.271   2.769
    4CHTO  H143 1441   7.371   8.225   2.754
    4CHTO  H144 1442   7.471   8.361   2.711
    4CHTO   C87 1443   7.493   8.174   0.152
    4CHTO  H159 1444   7.401   8.116   0.139
    4CHTO   O53 1445   7.510   8.213   0.300
    4CHTO   C82 1446   7.398   8.287   0.350
    4CHTO  H154 1447   7.307   8.229   0.335
    4CHTO   C89 1448   7.415   8.304   0.503
    4CHTO   O59 1449   7.535   8.375   0.538
    4CHTO  H137 1450   7.610   8.323   0.517
    4CHTO   O45 1451   7.626   8.079   0.104
    4CHTO   C67 1452   7.658   7.960   0.180
    4CHTO  H124 1453   7.721   7.899   0.115
    4CHTO   C65 1454   7.740   7.996   0.309
    4CHTO  H122 1455   7.731   8.104   0.323
    4CHTO   O44 1456   7.878   7.966   0.280
    4CHTO  H102 1457   7.933   8.000   0.348
    4CHTO   C63 1458   7.679   7.933   0.440
    4CHTO  H120 1459   7.584   7.981   0.460
    4CHTO   N11 1460   7.755   7.961   0.566
    4CHTO  H108 1461   7.773   8.066   0.576
    4CHTO  H109 1462   7.700   7.925   0.651
    4CHTO   C61 1463   7.648   7.781   0.414
    4CHTO  H118 1464   7.594   7.746   0.503
    4CHTO   O40 1465   7.560   7.760   0.302
    4CHTO   C68 1466   7.530   7.871   0.211
    4CHTO  H125 1467   7.448   7.930   0.255
    4CHTO   C72 1468   7.476   7.810   0.078
    4CHTO   O48 1469   7.368   7.719   0.097
    4CHTO  H105 1470   7.340   7.685   0.014
    4CHTO   O38 1471   7.765   7.700   0.391
    4CHTO   C55 1472   7.749   7.560   0.423
    4CHTO  H112 1473   7.642   7.536   0.438
    4CHTO   C56 1474   7.836   7.525   0.550
    4CHTO  H113 1475   7.939   7.557   0.529
    4CHTO   O42 1476   7.790   7.603   0.661
    4CHTO  H100 1477   7.846   7.591   0.735
    4CHTO   C57 1478   7.831   7.370   0.581
    4CHTO  H114 1479   7.729   7.347   0.613
    4CHTO   N10 1480   7.922   7.330   0.691
    4CHTO  H106 1481   7.883   7.243   0.742
    4CHTO  H107 1482   8.021   7.308   0.654
    4CHTO   C58 1483   7.861   7.289   0.451
    4CHTO  H115 1484   7.968   7.305   0.423
    4CHTO   O37 1485   7.778   7.333   0.342
    4CHTO   C59 1486   7.795   7.470   0.304
    4CHTO  H116 1487   7.900   7.490   0.280
    4CHTO   C70 1488   7.710   7.495   0.179
    4CHTO   O46 1489   7.752   7.416   0.067
    4CHTO  H103 1490   7.696   7.434   2.842
    4CHTO   O39 1491   7.835   7.122   0.476
    4CHTO   C60 1492   7.706   7.072   0.437
    4CHTO  H117 1493   7.631   7.150   0.450
    4CHTO   C62 1494   7.706   7.028   0.287
    4CHTO  H119 1495   7.736   7.117   0.228
    4CHTO   O43 1496   7.806   6.926   0.267
    4CHTO  H101 1497   7.811   6.903   0.177
    4CHTO   C66 1498   7.558   6.983   0.245
    4CHTO  H123 1499   7.490   7.064   0.266
    4CHTO   N12 1500   7.547   6.956   0.099
    4CHTO  H110 1501   7.570   7.046   0.043
    4CHTO  H111 1502   7.612   6.875   0.070
    4CHTO   C69 1503   7.515   6.861   0.331
    4CHTO  H126 1504   7.579   6.773   0.309
    4CHTO   O41 1505   7.526   6.899   0.484
    4CHTO   C64 1506   7.662   6.953   0.528
    4CHTO  H121 1507   7.739   6.873   0.523
    4CHTO   C71 1508   7.647   6.997   0.676
    4CHTO   O47 1509   7.774   7.021   0.738
    4CHTO  H104 1510   7.760   7.049   0.827
    4CHTO   O34 1511   7.366   6.822   0.301
    4CHTO   C49 1512   7.296   6.690   0.280
    4CHTO   H91 1513   7.375   6.615   0.277
    4CHTO   C47 1514   7.222   6.691   0.144
    4CHTO   H89 1515   7.301   6.671   0.068
    4CHTO   O33 1516   7.164   6.820   0.118
    4CHTO   H70 1517   7.133   6.825   0.029
    4CHTO   C45 1518   7.104   6.581   0.139
    4CHTO   H87 1519   7.011   6.630   0.173
    4CHTO    N8 1520   7.081   6.535   2.847
    4CHTO   H75 1521   6.985   6.569   2.812
    4CHTO   H76 1522   7.087   6.427   2.841
    4CHTO   C43 1523   7.127   6.465   0.247
    4CHTO   H85 1524   7.043   6.396   0.237
    4CHTO   O29 1525   7.135   6.521   0.379
    4CHTO   C50 1526   7.197   6.651   0.393
    4CHTO   H92 1527   7.118   6.727   0.398
    4CHTO   C54 1528   7.262   6.660   0.534
    4CHTO   O36 1529   7.363   6.560   0.551
    4CHTO   H72 1530   7.400   6.568   0.637
    4CHTO   O27 1531   7.245   6.389   0.216
    4CHTO   C37 1532   7.340   6.282   0.204
    4CHTO   H79 1533   7.291   6.192   0.164
    4CHTO   C38 1534   7.454   6.322   0.106
    4CHTO   H80 1535   7.500   6.416   0.141
    4CHTO   O31 1536   7.395   6.345   2.824
    4CHTO   H68 1537   7.341   6.422   2.826
    4CHTO   C39 1538   7.564   6.210   0.097
    4CHTO   H81 1539   7.519   6.124   0.047
    4CHTO    N7 1540   7.684   6.249   0.015
    4CHTO   H73 1541   7.731   6.336   0.058
    4CHTO   H74 1542   7.654   6.269   2.761
    4CHTO   C40 1543   7.609   6.160   0.240
    4CHTO   H82 1544   7.679   6.231   0.287
    4CHTO   O26 1545   7.495   6.135   0.324
    4CHTO   C41 1546   7.404   6.247   0.341
    4CHTO   H83 1547   7.459   6.335   0.379
    4CHTO   C52 1548   7.298   6.208   0.447
    4CHTO   O35 1549   7.358   6.181   0.581
    4CHTO   H71 1550   7.393   6.261   0.616
    4CHTO   O28 1551   7.668   6.029   0.233
    4CHTO   C42 1552   7.795   5.990   0.295
    4CHTO   H84 1553   7.853   6.082   0.304
    4CHTO   C44 1554   7.879   5.892   0.206
    4CHTO   H86 1555   7.816   5.809   0.176
    4CHTO   O32 1556   7.915   5.965   0.087
    4CHTO   H69 1557   7.959   5.909   0.027
    4CHTO   C48 1558   8.007   5.832   0.280
    4CHTO   H90 1559   8.079   5.912   0.294
    4CHTO    N9 1560   8.076   5.728   0.197
    4CHTO   H77 1561   8.164   5.691   0.249
    4CHTO   H78 1562   8.009   5.646   0.176
    4CHTO   C51 1563   7.963   5.778   0.421
    4CHTO   H93 1564   7.890   5.698   0.406
    4CHTO   O30 1565   7.907   5.889   0.492
    4CHTO   C46 1566   7.777   5.932   0.439
    4CHTO   H88 1567   7.711   5.845   0.435
    4CHTO   C53 1568   7.720   6.035   0.539
    4CHTO   O72 1569   7.693   5.974   0.667
    4CHTO  H199 1570   7.774   5.951   0.709
    4CHTO   O22 1571   8.072   5.730   0.502
    4CHTO   C31 1572   8.042   5.683   0.639
    4CHTO   H59 1573   7.943   5.727   0.666
    4CHTO   C29 1574   8.031   5.531   0.659
    4CHTO   H57 1575   8.131   5.486   0.653
    4CHTO   O21 1576   7.953   5.474   0.552
    4CHTO   H37 1577   7.998   5.483   0.470
    4CHTO   C27 1578   7.968   5.502   0.801
    4CHTO   H55 1579   7.865   5.541   0.802
    4CHTO    N5 1580   7.963   5.357   0.834
    4CHTO   H43 1581   7.911   5.303   0.756
    4CHTO   H44 1582   7.912   5.343   0.928
    4CHTO   C25 1583   8.045   5.581   0.914
    4CHTO   H53 1584   8.137   5.527   0.942
    4CHTO   O17 1585   8.084   5.717   0.877
    4CHTO   C32 1586   8.142   5.736   0.747
    4CHTO   H60 1587   8.235   5.679   0.739
    4CHTO   C36 1588   8.177   5.886   0.729
    4CHTO   O25 1589   8.061   5.969   0.741
    4CHTO   H40 1590   8.085   6.059   0.731
    4CHTO   O15 1591   7.952   5.594   1.037
    4CHTO   C19 1592   7.939   5.676   1.157
    4CHTO   H47 1593   7.847   5.638   1.205
    4CHTO   C20 1594   8.057   5.660   1.257
    4CHTO   H48 1595   8.153   5.693   1.212
    4CHTO   O19 1596   8.067   5.520   1.287
    4CHTO   H35 1597   8.142   5.504   1.341
    4CHTO   C21 1598   8.032   5.746   1.388
    4CHTO   H49 1599   7.946   5.706   1.440
    4CHTO    N4 1600   8.147   5.740   1.483
    4CHTO   H41 1601   8.125   5.799   1.571
    4CHTO   H42 1602   8.164   5.637   1.512
    4CHTO   C22 1603   7.998   5.892   1.347
    4CHTO   H50 1604   8.087   5.938   1.302
    4CHTO   O14 1605   7.889   5.895   1.253
    4CHTO   C23 1606   7.914   5.828   1.129
    4CHTO   H51 1607   8.002   5.876   1.082
    4CHTO   C34 1608   7.791   5.856   1.041
    4CHTO   O23 1609   7.807   5.809   0.907
    4CHTO   H38 1610   7.731   5.831   0.857
    4CHTO   O16 1611   7.952   5.970   1.460
    4CHTO   C24 1612   7.947   6.129   1.428
    4CHTO   H52 1613   7.948   6.149   1.321
    4CHTO   C26 1614   8.065   6.200   1.496
    4CHTO   H54 1615   8.061   6.179   1.606
    4CHTO   O20 1616   8.187   6.143   1.444
    4CHTO   H36 1617   8.261   6.177   1.490
    4CHTO   C30 1618   8.058   6.354   1.474
    4CHTO   H58 1619   8.078   6.375   1.367
    4CHTO    N6 1620   8.165   6.427   1.549
    4CHTO   H45 1621   8.230   6.358   1.601
    4CHTO   H46 1622   8.123   6.496   1.620
    4CHTO   C33 1623   7.916   6.412   1.502
    4CHTO   H61 1624   7.900   6.420   1.611
    4CHTO   O18 1625   7.812   6.328   1.448
    4CHTO   C28 1626   7.815   6.189   1.483
    4CHTO   H56 1627   7.813   6.177   1.591
    4CHTO   C35 1628   7.693   6.116   1.423
    4CHTO   O24 1629   7.569   6.162   1.478
    4CHTO   H39 1630   7.498   6.116   1.439
    4CHTO    O9 1631   7.907   6.547   1.452
    4CHTO   C13 1632   7.769   6.627   1.481
    4CHTO   H26 1633   7.686   6.554   1.480
    4CHTO   C11 1634   7.751   6.738   1.369
    4CHTO   H24 1635   7.735   6.686   1.273
    4CHTO    O8 1636   7.870   6.818   1.356
    4CHTO    H3 1637   7.942   6.764   1.327
    4CHTO    C9 1638   7.623   6.821   1.402
    4CHTO   H22 1639   7.541   6.747   1.407
    4CHTO    N2 1640   7.583   6.914   1.294
    4CHTO   H10 1641   7.489   6.884   1.251
    4CHTO   H11 1642   7.577   7.016   1.330
    4CHTO    C7 1643   7.639   6.888   1.543
    4CHTO   H20 1644   7.539   6.933   1.563
    4CHTO    O4 1645   7.665   6.789   1.645
    4CHTO   C14 1646   7.770   6.692   1.626
    4CHTO   H27 1647   7.749   6.610   1.698
    4CHTO   C18 1648   7.908   6.752   1.666
    4CHTO   O13 1649   7.910   6.789   1.805
    4CHTO    H7 1650   7.856   6.864   1.819
    4CHTO    O2 1651   7.758   7.006   1.549
    4CHTO    C1 1652   7.711   7.140   1.575
    4CHTO   H14 1653   7.602   7.147   1.553
    4CHTO    C2 1654   7.786   7.249   1.487
    4CHTO   H15 1655   7.894   7.231   1.504
    4CHTO    O6 1656   7.757   7.226   1.348
    4CHTO    H1 1657   7.665   7.237   1.331
    4CHTO    C3 1658   7.748   7.399   1.530
    4CHTO   H16 1659   7.646   7.420   1.494
    4CHTO    N1 1660   7.837   7.501   1.465
    4CHTO    H8 1661   7.940   7.485   1.496
    4CHTO    H9 1662   7.805   7.600   1.492
    4CHTO    C4 1663   7.743   7.416   1.687
    4CHTO   H17 1664   7.845   7.422   1.726
    4CHTO    O1 1665   7.672   7.307   1.749
    4CHTO    C5 1666   7.730   7.178   1.724
    4CHTO   H18 1667   7.837   7.180   1.745
    4CHTO   C16 1668   7.663   7.079   1.821
    4CHTO   O11 1669   7.692   7.111   1.958
    4CHTO    H5 1670   7.648   7.190   1.982
    4CHTO    O3 1671   7.664   7.531   1.725
    4CHTO    C6 1672   7.728   7.633   1.810
    4CHTO   H19 1673   7.837   7.623   1.814
    4CHTO    C8 1674   7.696   7.775   1.752
    4CHTO   H21 1675   7.588   7.782   1.740
    4CHTO    O7 1676   7.760   7.784   1.624
    4CHTO    H2 1677   7.735   7.864   1.581
    4CHTO   C12 1678   7.743   7.889   1.850
    4CHTO   H25 1679   7.854   7.886   1.850
    4CHTO    N3 1680   7.703   8.025   1.799
    4CHTO   H12 1681   7.596   8.032   1.793
    4CHTO   H13 1682   7.742   8.102   1.865
    4CHTO   C15 1683   7.692   7.860   1.996
    4CHTO   H28 1684   7.584   7.871   2.004
    4CHTO   O10 1685   7.761   7.950   2.103
    4CHTO    H4 1686   7.855   7.944   2.095
    4CHTO    O5 1687   7.731   7.728   2.037
    4CHTO   C10 1688   7.676   7.623   1.956
    4CHTO   H23 1689   7.567   7.632   1.957
    4CHTO   C17 1690   7.710   7.489   2.025
    4CHTO   O12 1691   7.851   7.466   2.034
    4CHTO    H6 1692   7.887   7.453   1.949
    5CHTO  H203 1693   8.009   3.736   0.594
    5CHTO   O82 1694   8.073   3.667   0.591
    5CHTO  C123 1695   8.073   3.595   0.715
    5CHTO  H227 1696   7.972   3.554   0.732
    5CHTO   O77 1697   8.167   3.487   0.689
    5CHTO  C118 1698   8.182   3.393   0.797
    5CHTO  H222 1699   8.084   3.350   0.821
    5CHTO  C125 1700   8.277   3.277   0.748
    5CHTO   O84 1701   8.407   3.325   0.710
    5CHTO  H205 1702   8.453   3.357   0.786
    5CHTO  C114 1703   8.238   3.465   0.922
    5CHTO  H218 1704   8.336   3.506   0.897
    5CHTO  C116 1705   8.149   3.587   0.962
    5CHTO  H220 1706   8.052   3.551   1.002
    5CHTO   O79 1707   8.215   3.658   1.069
    5CHTO  H201 1708   8.216   3.606   1.147
    5CHTO  C120 1709   8.122   3.681   0.837
    5CHTO  H224 1710   8.219   3.730   0.813
    5CHTO   N21 1711   8.026   3.789   0.872
    5CHTO  H211 1712   7.924   3.757   0.854
    5CHTO  H212 1713   8.047   3.878   0.813
    5CHTO   O75 1714   8.256   3.362   1.022
    5CHTO  C112 1715   8.122   3.322   1.113
    5CHTO  H216 1716   8.034   3.321   1.047
    5CHTO   O73 1717   8.110   3.421   1.217
    5CHTO  C113 1718   7.992   3.406   1.298
    5CHTO  H217 1719   7.903   3.404   1.232
    5CHTO  C124 1720   7.981   3.528   1.389
    5CHTO   O83 1721   7.964   3.651   1.317
    5CHTO  H204 1722   7.880   3.651   1.274
    5CHTO  C109 1723   8.002   3.273   1.378
    5CHTO  H213 1724   8.089   3.282   1.444
    5CHTO  C110 1725   8.022   3.153   1.279
    5CHTO  H214 1726   7.929   3.138   1.224
    5CHTO   O78 1727   8.045   3.033   1.356
    5CHTO  H200 1728   8.123   3.041   1.407
    5CHTO  C111 1729   8.139   3.180   1.180
    5CHTO  H215 1730   8.234   3.181   1.236
    5CHTO   N19 1731   8.153   3.076   1.075
    5CHTO  H207 1732   8.176   2.981   1.121
    5CHTO  H208 1733   8.062   3.067   1.018
    5CHTO   O74 1734   7.882   3.254   1.458
    5CHTO  C115 1735   7.914   3.199   1.605
    5CHTO  H219 1736   8.007   3.142   1.607
    5CHTO   O76 1737   7.935   3.313   1.706
    5CHTO  C122 1738   7.823   3.403   1.711
    5CHTO  H226 1739   7.823   3.461   1.619
    5CHTO  C126 1740   7.847   3.505   1.827
    5CHTO   O85 1741   7.958   3.590   1.799
    5CHTO  H206 1742   7.938   3.647   1.727
    5CHTO  C121 1743   7.683   3.329   1.727
    5CHTO  H225 1744   7.627   3.375   1.812
    5CHTO   O81 1745   7.606   3.350   1.609
    5CHTO  H202 1746   7.585   3.441   1.599
    5CHTO  C119 1747   7.702   3.177   1.757
    5CHTO  H223 1748   7.758   3.177   1.851
    5CHTO  C117 1749   7.793   3.106   1.649
    5CHTO  H221 1750   7.742   3.081   1.556
    5CHTO   N20 1751   7.842   2.974   1.701
    5CHTO  H209 1752   7.758   2.912   1.729
    5CHTO  H210 1753   7.901   2.924   1.626
    5CHTO   O80 1754   7.567   3.100   1.801
    5CHTO  C103 1755   7.443   3.090   1.700
    5CHTO  H190 1756   7.447   3.169   1.625
    5CHTO  C101 1757   7.428   2.952   1.626
    5CHTO  H188 1758   7.438   2.871   1.699
    5CHTO   O68 1759   7.538   2.939   1.525
    5CHTO  H168 1760   7.538   2.853   1.488
    5CHTO   C99 1761   7.284   2.938   1.556
    5CHTO  H186 1762   7.277   3.013   1.474
    5CHTO   N17 1763   7.260   2.803   1.493
    5CHTO  H174 1764   7.257   2.727   1.569
    5CHTO  H175 1765   7.168   2.805   1.436
    5CHTO   C97 1766   7.173   2.975   1.657
    5CHTO  H184 1767   7.170   2.899   1.736
    5CHTO   O64 1768   7.197   3.107   1.711
    5CHTO  C104 1769   7.316   3.117   1.790
    5CHTO  H191 1770   7.315   3.047   1.874
    5CHTO  C108 1771   7.315   3.257   1.852
    5CHTO   O71 1772   7.411   3.272   1.958
    5CHTO  H171 1773   7.406   3.359   1.993
    5CHTO   O62 1774   7.044   2.988   1.593
    5CHTO   C91 1775   6.928   2.961   1.673
    5CHTO  H178 1776   6.954   2.969   1.779
    5CHTO   C92 1777   6.883   2.813   1.649
    5CHTO  H179 1778   6.884   2.794   1.540
    5CHTO   O66 1779   6.984   2.726   1.704
    5CHTO  H166 1780   6.965   2.637   1.684
    5CHTO   C93 1781   6.741   2.781   1.709
    5CHTO  H180 1782   6.749   2.790   1.819
    5CHTO   N16 1783   6.693   2.644   1.681
    5CHTO  H172 1784   6.596   2.628   1.726
    5CHTO  H173 1785   6.764   2.572   1.720
    5CHTO   C94 1786   6.640   2.890   1.658
    5CHTO  H181 1787   6.638   2.895   1.549
    5CHTO   O61 1788   6.685   3.018   1.705
    5CHTO   C95 1789   6.809   3.061   1.646
    5CHTO  H182 1790   6.795   3.071   1.538
    5CHTO  C106 1791   6.844   3.204   1.699
    5CHTO   O69 1792   6.745   3.300   1.659
    5CHTO  H169 1793   6.770   3.385   1.688
    5CHTO   O63 1794   6.492   2.870   1.718
    5CHTO   C96 1795   6.385   2.865   1.603
    5CHTO  H183 1796   6.431   2.818   1.516
    5CHTO   C98 1797   6.330   3.004   1.560
    5CHTO  H185 1798   6.296   3.058   1.649
    5CHTO   O67 1799   6.440   3.081   1.508
    5CHTO  H167 1800   6.411   3.169   1.489
    5CHTO  C102 1801   6.213   2.994   1.450
    5CHTO  H189 1802   6.264   2.980   1.354
    5CHTO   N18 1803   6.133   3.118   1.436
    5CHTO  H176 1804   6.197   3.200   1.405
    5CHTO  H177 1805   6.086   3.143   1.530
    5CHTO  C105 1806   6.120   2.870   1.471
    5CHTO  H192 1807   6.036   2.897   1.536
    5CHTO   O65 1808   6.183   2.753   1.527
    5CHTO  C100 1809   6.262   2.776   1.645
    5CHTO  H187 1810   6.201   2.829   1.720
    5CHTO  C107 1811   6.300   2.638   1.703
    5CHTO   O70 1812   6.355   2.649   1.835
    5CHTO  H170 1813   6.377   2.564   1.867
    5CHTO   O57 1814   6.070   2.835   1.322
    5CHTO   C85 1815   5.943   2.772   1.297
    5CHTO  H157 1816   5.866   2.838   1.343
    5CHTO   C83 1817   5.931   2.635   1.372
    5CHTO  H155 1818   5.932   2.655   1.479
    5CHTO   O56 1819   6.049   2.555   1.344
    5CHTO  H135 1820   6.047   2.477   1.396
    5CHTO   C81 1821   5.797   2.566   1.334
    5CHTO  H153 1822   5.716   2.636   1.356
    5CHTO   N14 1823   5.768   2.447   1.418
    5CHTO  H141 1824   5.750   2.361   1.357
    5CHTO  H142 1825   5.683   2.465   1.480
    5CHTO   C79 1826   5.795   2.537   1.179
    5CHTO  H151 1827   5.697   2.494   1.156
    5CHTO   O52 1828   5.804   2.664   1.106
    5CHTO   C86 1829   5.917   2.750   1.142
    5CHTO  H158 1830   6.004   2.701   1.095
    5CHTO   C90 1831   5.902   2.888   1.072
    5CHTO   O60 1832   5.904   2.875   0.930
    5CHTO  H138 1833   5.827   2.830   0.900
    5CHTO   O50 1834   5.897   2.447   1.134
    5CHTO   C73 1835   5.919   2.354   1.026
    5CHTO  H145 1836   5.861   2.383   0.938
    5CHTO   C74 1837   5.877   2.210   1.069
    5CHTO  H146 1838   5.770   2.215   1.098
    5CHTO   O54 1839   5.883   2.123   0.954
    5CHTO  H133 1840   5.819   2.149   0.891
    5CHTO   C75 1841   5.968   2.161   1.189
    5CHTO  H147 1842   5.952   2.228   1.274
    5CHTO   N13 1843   5.935   2.025   1.241
    5CHTO  H139 1844   5.851   1.983   1.188
    5CHTO  H140 1845   6.019   1.958   1.230
    5CHTO   C76 1846   6.122   2.175   1.147
    5CHTO  H148 1847   6.142   2.104   1.066
    5CHTO   O49 1848   6.150   2.311   1.100
    5CHTO   C77 1849   6.071   2.353   0.988
    5CHTO  H149 1850   6.086   2.285   0.904
    5CHTO   C88 1851   6.119   2.491   0.941
    5CHTO   O58 1852   6.263   2.488   0.908
    5CHTO  H136 1853   6.291   2.574   0.882
    5CHTO   O51 1854   6.221   2.153   1.274
    5CHTO   C78 1855   6.375   2.173   1.234
    5CHTO  H150 1856   6.384   2.218   1.133
    5CHTO   C80 1857   6.450   2.038   1.234
    5CHTO  H152 1858   6.437   1.990   1.333
    5CHTO   O55 1859   6.386   1.953   1.136
    5CHTO  H134 1860   6.398   1.989   1.050
    5CHTO   C84 1861   6.604   2.058   1.204
    5CHTO  H156 1862   6.612   2.097   1.103
    5CHTO   N15 1863   6.683   1.931   1.208
    5CHTO  H143 1864   6.677   1.886   1.305
    5CHTO  H144 1865   6.785   1.951   1.184
    5CHTO   C87 1866   6.662   2.163   1.302
    5CHTO  H159 1867   6.665   2.123   1.404
    5CHTO   O53 1868   6.578   2.290   1.299
    5CHTO   C82 1869   6.440   2.271   1.333
    5CHTO  H154 1870   6.431   2.236   1.436
    5CHTO   C89 1871   6.370   2.409   1.327
    5CHTO   O59 1872   6.428   2.503   1.418
    5CHTO  H137 1873   6.514   2.526   1.390
    5CHTO   O45 1874   6.809   2.209   1.256
    5CHTO   C67 1875   6.899   2.240   1.364
    5CHTO  H124 1876   6.844   2.242   1.458
    5CHTO   C65 1877   7.012   2.131   1.373
    5CHTO  H122 1878   7.007   2.074   1.280
    5CHTO   O44 1879   6.977   2.044   1.482
    5CHTO  H102 1880   7.033   1.969   1.483
    5CHTO   C63 1881   7.156   2.193   1.375
    5CHTO  H120 1882   7.176   2.236   1.277
    5CHTO   N11 1883   7.269   2.094   1.386
    5CHTO  H108 1884   7.258   2.018   1.312
    5CHTO  H109 1885   7.362   2.144   1.373
    5CHTO   C61 1886   7.161   2.312   1.478
    5CHTO  H118 1887   7.259   2.360   1.464
    5CHTO   O40 1888   7.059   2.413   1.449
    5CHTO   C68 1889   6.959   2.385   1.347
    5CHTO  H125 1890   7.006   2.395   1.247
    5CHTO   C72 1891   6.848   2.492   1.355
    5CHTO   O48 1892   6.897   2.625   1.335
    5CHTO  H105 1893   6.952   2.650   1.407
    5CHTO   O38 1894   7.149   2.266   1.615
    5CHTO   C55 1895   7.128   2.364   1.719
    5CHTO  H112 1896   7.060   2.443   1.684
    5CHTO   C56 1897   7.265   2.424   1.773
    5CHTO  H113 1898   7.327   2.339   1.805
    5CHTO   O42 1899   7.336   2.488   1.665
    5CHTO  H100 1900   7.362   2.425   1.601
    5CHTO   C57 1901   7.239   2.523   1.892
    5CHTO  H114 1902   7.190   2.611   1.849
    5CHTO   N10 1903   7.364   2.571   1.957
    5CHTO  H106 1904   7.395   2.504   2.036
    5CHTO  H107 1905   7.349   2.670   1.998
    5CHTO   C58 1906   7.144   2.460   1.998
    5CHTO  H115 1907   7.198   2.381   2.053
    5CHTO   O37 1908   7.027   2.401   1.938
    5CHTO   C59 1909   7.054   2.299   1.840
    5CHTO  H116 1910   7.116   2.222   1.885
    5CHTO   C70 1911   6.922   2.233   1.797
    5CHTO   O46 1912   6.828   2.323   1.737
    5CHTO  H103 1913   6.797   2.384   1.801
    5CHTO   O39 1914   7.092   2.577   2.109
    5CHTO   C60 1915   6.976   2.652   2.070
    5CHTO  H117 1916   6.960   2.644   1.963
    5CHTO   C62 1917   6.848   2.598   2.142
    5CHTO  H119 1918   6.836   2.493   2.109
    5CHTO   O43 1919   6.869   2.598   2.285
    5CHTO  H101 1920   6.880   2.685   2.317
    5CHTO   C66 1921   6.719   2.684   2.097
    5CHTO  H123 1922   6.708   2.673   1.989
    5CHTO   N12 1923   6.592   2.634   2.155
    5CHTO  H110 1924   6.575   2.533   2.123
    5CHTO  H111 1925   6.596   2.641   2.262
    5CHTO   C69 1926   6.744   2.835   2.126
    5CHTO  H126 1927   6.754   2.851   2.236
    5CHTO   O41 1928   6.874   2.878   2.055
    5CHTO   C64 1929   6.994   2.803   2.102
    5CHTO  H121 1930   7.006   2.816   2.212
    5CHTO   C71 1931   7.120   2.862   2.034
    5CHTO   O47 1932   7.139   2.999   2.073
    5CHTO  H104 1933   7.215   3.033   2.031
    5CHTO   O34 1934   6.626   2.926   2.074
    5CHTO   C49 1935   6.599   3.076   2.037
    5CHTO   H91 1936   6.644   3.092   1.939
    5CHTO   C47 1937   6.667   3.169   2.140
    5CHTO   H89 1938   6.651   3.272   2.104
    5CHTO   O33 1939   6.808   3.143   2.142
    5CHTO   H70 1940   6.825   3.056   2.175
    5CHTO   C45 1941   6.593   3.149   2.282
    5CHTO   H87 1942   6.595   3.041   2.307
    5CHTO    N8 1943   6.660   3.223   2.393
    5CHTO   H75 1944   6.763   3.191   2.401
    5CHTO   H76 1945   6.656   3.329   2.373
    5CHTO   C43 1946   6.438   3.187   2.266
    5CHTO   H85 1947   6.390   3.163   2.361
    5CHTO   O29 1948   6.379   3.111   2.157
    5CHTO   C50 1949   6.447   3.105   2.030
    5CHTO   H92 1950   6.400   3.023   1.973
    5CHTO   C54 1951   6.412   3.231   1.944
    5CHTO   O36 1952   6.464   3.221   1.810
    5CHTO   H72 1953   6.418   3.154   1.763
    5CHTO   O27 1954   6.417   3.328   2.244
    5CHTO   C37 1955   6.321   3.431   2.274
    5CHTO   H79 1956   6.321   3.505   2.193
    5CHTO   C38 1957   6.176   3.373   2.283
    5CHTO   H80 1958   6.177   3.291   2.356
    5CHTO   O31 1959   6.140   3.320   2.154
    5CHTO   H68 1960   6.138   3.389   2.090
    5CHTO   C39 1961   6.073   3.483   2.331
    5CHTO   H81 1962   6.064   3.556   2.250
    5CHTO    N7 1963   5.936   3.428   2.357
    5CHTO   H73 1964   5.897   3.382   2.267
    5CHTO   H74 1965   5.869   3.507   2.389
    5CHTO   C40 1966   6.127   3.560   2.458
    5CHTO   H82 1967   6.120   3.495   2.545
    5CHTO   O26 1968   6.261   3.607   2.435
    5CHTO   C41 1969   6.357   3.501   2.407
    5CHTO   H83 1970   6.356   3.427   2.488
    5CHTO   C52 1971   6.498   3.565   2.402
    5CHTO   O35 1972   6.539   3.617   2.532
    5CHTO   H71 1973   6.626   3.652   2.526
    5CHTO   O28 1974   6.052   3.682   2.482
    5CHTO   C42 1975   6.046   3.755   2.609
    5CHTO   H84 1976   5.985   3.841   2.582
    5CHTO   C44 1977   6.182   3.814   2.665
    5CHTO   H86 1978   6.257   3.807   2.586
    5CHTO   O32 1979   6.166   3.955   2.690
    5CHTO   H69 1980   6.101   3.970   2.756
    5CHTO   C48 1981   6.240   3.742   2.795
    5CHTO   H90 1982   6.191   3.785   0.035
    5CHTO    N9 1983   6.387   3.769   2.813
    5CHTO   H77 1984   6.405   3.817   0.061
    5CHTO   H78 1985   6.444   3.678   2.805
    5CHTO   C51 1986   6.202   3.589   2.790
    5CHTO   H93 1987   6.243   3.550   2.698
    5CHTO   O30 1988   6.059   3.575   2.797
    5CHTO   C46 1989   5.967   3.677   2.719
    5CHTO   H88 1990   5.890   3.618   2.669
    5CHTO   C53 1991   5.899   3.774   2.820
    5CHTO   O72 1992   5.816   3.703   0.064
    5CHTO  H199 1993   5.870   3.653   0.123
    5CHTO   O22 1994   6.251   3.512   0.054
    5CHTO   C31 1995   6.268   3.365   0.040
    5CHTO   H59 1996   6.296   3.328   0.142
    5CHTO   C29 1997   6.139   3.290   2.847
    5CHTO   H57 1998   6.101   3.337   2.755
    5CHTO   O21 1999   6.040   3.314   0.101
    5CHTO   H37 2000   6.017   3.406   0.104
    5CHTO   C27 2001   6.161   3.136   2.820
    5CHTO   H55 2002   6.187   3.088   0.068
    5CHTO    N5 2003   6.039   3.070   2.766
    5CHTO   H43 2004   6.005   2.992   2.833
    5CHTO   H44 2005   6.055   3.030   2.667
    5CHTO   C25 2006   6.284   3.120   2.724
    5CHTO   H53 2007   6.261   3.169   2.628
    5CHTO   O17 2008   6.401   3.184   2.782
    5CHTO   C32 2009   6.388   3.326   2.795
    5CHTO   H60 2010   6.371   3.370   2.697
    5CHTO   C36 2011   6.521   3.382   0.003
    5CHTO   O25 2012   6.630   3.362   2.760
    5CHTO   H40 2013   6.652   3.271   2.757
    5CHTO   O15 2014   6.317   2.968   2.695
    5CHTO   C19 2015   6.398   2.867   2.761
    5CHTO   H47 2016   6.459   2.924   2.833
    5CHTO   C20 2017   6.317   2.759   2.840
    5CHTO   H48 2018   6.249   2.703   2.774
    5CHTO   O19 2019   6.237   2.828   0.089
    5CHTO   H35 2020   6.179   2.769   0.131
    5CHTO   C21 2021   6.414   2.655   0.063
    5CHTO   H49 2022   6.469   2.707   0.141
    5CHTO    N4 2023   6.342   2.543   0.129
    5CHTO   H41 2024   6.363   2.542   0.235
    5CHTO   H42 2025   6.236   2.550   0.114
    5CHTO   C22 2026   6.520   2.604   2.809
    5CHTO   H50 2027   6.471   2.538   2.737
    5CHTO   O14 2028   6.584   2.712   2.741
    5CHTO   C23 2029   6.497   2.797   2.665
    5CHTO   H51 2030   6.445   2.735   2.590
    5CHTO   C34 2031   6.584   2.899   2.590
    5CHTO   O23 2032   6.669   2.835   2.495
    5CHTO   H38 2033   6.722   2.899   2.451
    5CHTO   O16 2034   6.629   2.536   0.026
    5CHTO   C24 2035   6.709   2.438   2.775
    5CHTO   H52 2036   6.678   2.450   2.672
    5CHTO   C26 2037   6.683   2.293   2.821
    5CHTO   H54 2038   6.709   2.285   0.081
    5CHTO   O20 2039   6.542   2.266   2.808
    5CHTO   H36 2040   6.515   2.270   2.719
    5CHTO   C30 2041   6.769   2.190   2.742
    5CHTO   H58 2042   6.730   2.183   2.639
    5CHTO    N6 2043   6.760   2.052   2.799
    5CHTO   H45 2044   6.694   2.049   0.036
    5CHTO   H46 2045   6.724   1.983   2.724
    5CHTO   C33 2046   6.918   2.237   2.730
    5CHTO   H61 2047   6.965   2.230   2.829
    5CHTO   O18 2048   6.923   2.374   2.688
    5CHTO   C28 2049   6.862   2.466   2.780
    5CHTO   H56 2050   6.898   2.450   0.033
    5CHTO   C35 2051   6.898   2.609   2.734
    5CHTO   O24 2052   6.867   2.708   2.832
    5CHTO   H39 2053   6.888   2.793   2.799
    5CHTO    O9 2054   6.998   2.153   2.645
    5CHTO   C13 2055   6.962   2.149   2.483
    5CHTO   H26 2056   6.854   2.173   2.469
    5CHTO   C11 2057   6.997   2.005   2.429
    5CHTO   H24 2058   6.927   1.934   2.477
    5CHTO    O8 2059   7.130   1.967   2.469
    5CHTO    H3 2060   7.136   1.962   2.563
    5CHTO    C9 2061   6.974   2.001   2.276
    5CHTO   H22 2062   6.870   2.034   2.261
    5CHTO    N2 2063   6.979   1.865   2.217
    5CHTO   H10 2064   7.013   1.792   2.290
    5CHTO   H11 2065   7.041   1.863   2.129
    5CHTO    C7 2066   7.069   2.106   2.207
    5CHTO   H20 2067   7.035   2.108   2.101
    5CHTO    O4 2068   7.054   2.239   2.260
    5CHTO   C14 2069   7.041   2.262   2.403
    5CHTO   H27 2070   6.980   2.355   2.411
    5CHTO   C18 2071   7.179   2.293   2.464
    5CHTO   O13 2072   7.230   2.418   2.415
    5CHTO    H7 2073   7.314   2.435   2.453
    5CHTO    O2 2074   7.227   2.060   2.215
    5CHTO    C1 2075   7.305   2.089   2.097
    5CHTO   H14 2076   7.275   2.188   2.057
    5CHTO    C2 2077   7.293   1.982   1.980
    5CHTO   H15 2078   7.321   1.885   2.025
    5CHTO    O6 2079   7.157   1.975   1.933
    5CHTO    H1 2080   7.131   2.057   1.897
    5CHTO    C3 2081   7.395   2.018   1.861
    5CHTO   H16 2082   7.364   2.113   1.815
    5CHTO    N1 2083   7.395   1.915   1.751
    5CHTO    H8 2084   7.297   1.907   1.708
    5CHTO    H9 2085   7.425   1.819   1.790
    5CHTO    C4 2086   7.539   2.043   1.919
    5CHTO   H17 2087   7.580   1.948   1.955
    5CHTO    O1 2088   7.535   2.139   2.026
    5CHTO    C5 2089   7.454   2.102   2.138
    5CHTO   H18 2090   7.487   2.004   2.174
    5CHTO   C16 2091   7.479   2.207   2.250
    5CHTO   O11 2092   7.444   2.339   2.208
    5CHTO    H5 2093   7.504   2.369   2.142
    5CHTO    O3 2094   7.627   2.102   1.821
    5CHTO    C6 2095   7.769   2.076   1.843
    5CHTO   H19 2096   7.789   2.028   1.939
    5CHTO    C8 2097   7.823   1.981   1.731
    5CHTO   H21 2098   7.794   2.022   1.634
    5CHTO    O7 2099   7.758   1.854   1.751
    5CHTO    H2 2100   7.780   1.795   1.681
    5CHTO   C12 2101   7.981   1.967   1.738
    5CHTO   H25 2102   8.003   1.910   1.830
    5CHTO    N3 2103   8.034   1.887   1.623
    5CHTO   H12 2104   7.992   1.787   1.625
    5CHTO   H13 2105   8.010   1.936   1.529
    5CHTO   C15 2106   8.047   2.109   1.750
    5CHTO   H28 2107   8.039   2.166   1.658
    5CHTO   O10 2108   8.196   2.101   1.792
    5CHTO    H4 2109   8.236   2.186   1.787
    5CHTO    O5 2110   7.990   2.183   1.859
    5CHTO   C10 2111   7.850   2.209   1.843
    5CHTO   H23 2112   7.836   2.260   1.747
    5CHTO   C17 2113   7.805   2.307   1.952
    5CHTO   O12 2114   7.823   2.254   2.084
    5CHTO    H6 2115   7.796   2.317   2.147
    6CHTO  H203 2116   7.161   4.572   2.421
    6CHTO   O82 2117   7.165   4.574   2.514
    6CHTO  C123 2118   7.110   4.696   2.565
    6CHTO  H227 2119   7.151   4.780   2.507
    6CHTO   O77 2120   6.966   4.683   2.539
    6CHTO  C118 2121   6.891   4.802   2.568
    6CHTO  H222 2122   6.932   4.888   2.512
    6CHTO  C125 2123   6.744   4.774   2.517
    6CHTO   O84 2124   6.664   4.893   2.515
    6CHTO  H205 2125   6.577   4.872   2.489
    6CHTO  C114 2126   6.897   4.829   2.719
    6CHTO  H218 2127   6.849   4.746   2.772
    6CHTO  C116 2128   7.045   4.839   2.770
    6CHTO  H220 2129   7.089   4.934   2.732
    6CHTO   O79 2130   7.045   4.849   0.065
    6CHTO  H201 2131   7.010   4.771   0.104
    6CHTO  C120 2132   7.132   4.716   2.720
    6CHTO  H224 2133   7.096   4.627   2.775
    6CHTO   N21 2134   7.277   4.733   2.754
    6CHTO  H211 2135   7.304   4.837   2.753
    6CHTO  H212 2136   7.339   4.677   2.685
    6CHTO   O75 2137   6.825   4.951   2.739
    6CHTO  C112 2138   6.727   4.953   0.021
    6CHTO  H216 2139   6.770   4.889   0.100
    6CHTO   O73 2140   6.599   4.905   2.826
    6CHTO  C113 2141   6.494   4.914   0.076
    6CHTO  H217 2142   6.523   4.857   0.166
    6CHTO  C124 2143   6.368   4.848   0.017
    6CHTO   O83 2144   6.383   4.706   2.848
    6CHTO  H204 2145   6.388   4.664   0.083
    6CHTO  C109 2146   6.469   5.063   0.114
    6CHTO  H213 2147   6.447   5.116   0.020
    6CHTO  C110 2148   6.601   5.121   0.173
    6CHTO  H214 2149   6.624   5.069   0.267
    6CHTO   O78 2150   6.580   5.260   0.205
    6CHTO  H200 2151   6.561   5.309   0.127
    6CHTO  C111 2152   6.719   5.103   0.073
    6CHTO  H215 2153   6.700   5.166   2.833
    6CHTO   N19 2154   6.850   5.145   0.130
    6CHTO  H207 2155   6.896   5.220   0.067
    6CHTO  H208 2156   6.917   5.061   0.143
    6CHTO   O74 2157   6.353   5.079   0.202
    6CHTO  C115 2158   6.361   5.045   0.360
    6CHTO  H219 2159   6.464   5.033   0.394
    6CHTO   O76 2160   6.304   5.164   0.449
    6CHTO  C122 2161   6.164   5.185   0.426
    6CHTO  H226 2162   6.152   5.218   0.323
    6CHTO  C126 2163   6.114   5.305   0.515
    6CHTO   O85 2164   6.133   5.284   0.655
    6CHTO  H206 2165   6.224   5.284   0.676
    6CHTO  C121 2166   6.076   5.055   0.452
    6CHTO  H225 2167   6.006   5.075   0.536
    6CHTO   O81 2168   5.996   5.026   0.337
    6CHTO  H202 2169   6.050   5.006   0.263
    6CHTO  C119 2170   6.165   4.933   0.491
    6CHTO  H223 2171   6.213   4.959   0.586
    6CHTO  C117 2172   6.280   4.910   0.385
    6CHTO  H221 2173   6.243   4.881   0.286
    6CHTO   N20 2174   6.373   4.799   0.425
    6CHTO  H209 2175   6.364   4.716   0.357
    6CHTO  H210 2176   6.354   4.767   0.527
    6CHTO   O80 2177   6.081   4.804   0.531
    6CHTO  C103 2178   6.027   4.789   0.676
    6CHTO  H190 2179   6.077   4.857   0.745
    6CHTO  C101 2180   5.871   4.803   0.693
    6CHTO  H188 2181   5.822   4.744   0.614
    6CHTO   O68 2182   5.831   4.952   0.673
    6CHTO  H168 2183   5.867   5.004   0.741
    6CHTO   C99 2184   5.822   4.746   0.835
    6CHTO  H186 2185   5.865   4.809   0.915
    6CHTO   N17 2186   5.673   4.749   0.853
    6CHTO  H174 2187   5.648   4.719   0.954
    6CHTO  H175 2188   5.625   4.686   0.780
    6CHTO   C97 2189   5.879   4.603   0.857
    6CHTO  H184 2190   5.834   4.534   0.785
    6CHTO   O64 2191   6.022   4.607   0.846
    6CHTO  C104 2192   6.072   4.643   0.716
    6CHTO  H191 2193   6.034   4.573   0.642
    6CHTO  C108 2194   6.224   4.625   0.718
    6CHTO   O71 2195   6.290   4.706   0.817
    6CHTO  H171 2196   6.267   4.676   0.903
    6CHTO   O62 2197   5.870   4.555   0.993
    6CHTO   C91 2198   5.769   4.460   1.031
    6CHTO  H178 2199   5.675   4.515   1.033
    6CHTO   C92 2200   5.799   4.419   1.179
    6CHTO  H179 2201   5.814   4.509   1.241
    6CHTO   O66 2202   5.682   4.356   1.231
    6CHTO  H166 2203   5.612   4.417   1.239
    6CHTO   C93 2204   5.921   4.318   1.192
    6CHTO  H180 2205   5.904   4.258   1.283
    6CHTO   N16 2206   6.051   4.385   1.214
    6CHTO  H172 2207   6.048   4.442   1.306
    6CHTO  H173 2208   6.074   4.449   1.131
    6CHTO   C94 2209   5.928   4.221   1.068
    6CHTO  H181 2210   5.994   4.259   0.989
    6CHTO   O61 2211   5.797   4.208   1.009
    6CHTO   C95 2212   5.753   4.327   0.942
    6CHTO  H182 2213   5.808   4.337   0.848
    6CHTO  C106 2214   5.602   4.307   0.902
    6CHTO   O69 2215   5.583   4.188   0.825
    6CHTO  H169 2216   5.622   4.198   0.740
    6CHTO   O63 2217   5.978   4.078   1.115
    6CHTO   C96 2218   5.984   3.973   0.995
    6CHTO  H183 2219   5.955   4.023   0.903
    6CHTO   C98 2220   5.890   3.851   1.014
    6CHTO  H185 2221   5.908   3.805   1.113
    6CHTO   O67 2222   5.755   3.901   1.020
    6CHTO  H167 2223   5.730   3.939   0.938
    6CHTO  C102 2224   5.907   3.742   0.897
    6CHTO  H189 2225   5.864   3.789   0.807
    6CHTO   N18 2226   5.829   3.617   0.918
    6CHTO  H176 2227   5.723   3.640   0.923
    6CHTO  H177 2228   5.860   3.569   1.009
    6CHTO  C105 2229   6.057   3.714   0.869
    6CHTO  H192 2230   6.098   3.652   0.949
    6CHTO   O65 2231   6.137   3.834   0.860
    6CHTO  C100 2232   6.130   3.919   0.975
    6CHTO  H187 2233   6.160   3.861   1.064
    6CHTO  C107 2234   6.233   4.034   0.959
    6CHTO   O70 2235   6.208   4.113   0.843
    6CHTO  H170 2236   6.128   4.162   0.853
    6CHTO   O57 2237   6.059   3.632   0.725
    6CHTO   C85 2238   6.172   3.603   0.642
    6CHTO  H157 2239   6.132   3.525   0.573
    6CHTO   C83 2240   6.290   3.534   0.717
    6CHTO  H155 2241   6.251   3.447   0.771
    6CHTO   O56 2242   6.346   3.622   0.817
    6CHTO  H135 2243   6.282   3.641   0.883
    6CHTO   C81 2244   6.393   3.484   0.611
    6CHTO  H153 2245   6.340   3.419   0.541
    6CHTO   N14 2246   6.501   3.398   0.666
    6CHTO  H141 2247   6.497   3.395   0.773
    6CHTO  H142 2248   6.493   3.298   0.628
    6CHTO   C79 2249   6.449   3.608   0.530
    6CHTO  H151 2250   6.508   3.567   0.448
    6CHTO   O52 2251   6.339   3.683   0.469
    6CHTO   C86 2252   6.233   3.725   0.561
    6CHTO  H158 2253   6.281   3.800   0.628
    6CHTO   C90 2254   6.126   3.803   0.480
    6CHTO   O60 2255   6.032   3.869   0.566
    6CHTO  H138 2256   5.968   3.913   0.513
    6CHTO   O50 2257   6.533   3.695   0.607
    6CHTO   C73 2258   6.658   3.762   0.583
    6CHTO  H145 2259   6.712   3.714   0.500
    6CHTO   C74 2260   6.747   3.756   0.711
    6CHTO  H146 2261   6.760   3.650   0.737
    6CHTO   O54 2262   6.878   3.806   0.679
    6CHTO  H133 2263   6.874   3.897   0.656
    6CHTO   C75 2264   6.676   3.836   0.828
    6CHTO  H147 2265   6.579   3.788   0.849
    6CHTO   N13 2266   6.751   3.835   0.957
    6CHTO  H139 2267   6.691   3.789   1.035
    6CHTO  H140 2268   6.844   3.781   0.948
    6CHTO   C76 2269   6.646   3.984   0.777
    6CHTO  H148 2270   6.742   4.033   0.758
    6CHTO   O49 2271   6.567   3.979   0.654
    6CHTO   C77 2272   6.633   3.912   0.546
    6CHTO  H149 2273   6.729   3.960   0.525
    6CHTO   C88 2274   6.550   3.927   0.418
    6CHTO   O58 2275   6.527   4.068   0.385
    6CHTO  H136 2276   6.474   4.075   0.308
    6CHTO   O51 2277   6.555   4.066   0.879
    6CHTO   C78 2278   6.602   4.219   0.897
    6CHTO  H150 2279   6.702   4.236   0.852
    6CHTO   C80 2280   6.609   4.253   1.048
    6CHTO  H152 2281   6.510   4.229   1.094
    6CHTO   O55 2282   6.707   4.165   1.106
    6CHTO  H134 2283   6.793   4.185   1.073
    6CHTO   C84 2284   6.643   4.405   1.072
    6CHTO  H156 2285   6.746   4.420   1.038
    6CHTO   N15 2286   6.641   4.442   1.218
    6CHTO  H143 2287   6.543   4.426   1.258
    6CHTO  H144 2288   6.668   4.545   1.230
    6CHTO   C87 2289   6.549   4.496   0.989
    6CHTO  H159 2290   6.448   4.494   1.031
    6CHTO   O53 2291   6.545   4.450   0.844
    6CHTO   C82 2292   6.502   4.314   0.827
    6CHTO  H154 2293   6.401   4.301   0.866
    6CHTO   C89 2294   6.495   4.285   0.675
    6CHTO   O59 2295   6.392   4.361   0.610
    6CHTO  H137 2296   6.308   4.330   0.638
    6CHTO   O45 2297   6.601   4.656   0.990
    6CHTO   C67 2298   6.725   4.683   0.923
    6CHTO  H124 2299   6.795   4.601   0.943
    6CHTO   C65 2300   6.707   4.695   0.767
    6CHTO  H122 2301   6.600   4.689   0.748
    6CHTO   O44 2302   6.771   4.581   0.707
    6CHTO  H102 2303   6.751   4.577   0.615
    6CHTO   C63 2304   6.750   4.836   0.711
    6CHTO  H120 2305   6.684   4.911   0.754
    6CHTO   N11 2306   6.731   4.859   0.565
    6CHTO  H108 2307   6.630   4.836   0.537
    6CHTO  H109 2308   6.798   4.797   0.509
    6CHTO   C61 2309   6.895   4.869   0.764
    6CHTO  H118 2310   6.910   4.976   0.743
    6CHTO   O40 2311   6.911   4.852   0.907
    6CHTO   C68 2312   6.793   4.812   0.984
    6CHTO  H125 2313   6.721   4.896   0.981
    6CHTO   C72 2314   6.834   4.793   1.132
    6CHTO   O48 2315   6.935   4.694   1.152
    6CHTO  H105 2316   6.900   4.609   1.133
    6CHTO   O38 2317   6.997   4.790   0.699
    6CHTO   C55 2318   7.129   4.850   0.705
    6CHTO  H112 2319   7.136   4.917   0.792
    6CHTO   C56 2320   7.162   4.925   0.569
    6CHTO  H113 2321   7.164   4.850   0.489
    6CHTO   O42 2322   7.058   5.018   0.538
    6CHTO  H100 2323   7.073   5.057   0.453
    6CHTO   C57 2324   7.302   4.996   0.583
    6CHTO  H114 2325   7.289   5.076   0.656
    6CHTO   N10 2326   7.349   5.062   0.458
    6CHTO  H106 2327   7.457   5.066   0.454
    6CHTO  H107 2328   7.313   5.008   0.371
    6CHTO   C58 2329   7.409   4.897   0.638
    6CHTO  H115 2330   7.446   4.832   0.555
    6CHTO   O37 2331   7.364   4.814   0.747
    6CHTO   C59 2332   7.240   4.744   0.728
    6CHTO  H116 2333   7.248   4.676   0.643
    6CHTO   C70 2334   7.209   4.660   0.853
    6CHTO   O46 2335   7.308   4.561   0.881
    6CHTO  H103 2336   7.284   4.514   0.959
    6CHTO   O39 2337   7.528   4.984   0.701
    6CHTO   C60 2338   7.661   4.935   0.678
    6CHTO  H117 2339   7.658   4.833   0.639
    6CHTO   C62 2340   7.737   5.025   0.577
    6CHTO  H119 2341   7.680   5.017   0.481
    6CHTO   O43 2342   7.732   5.162   0.622
    6CHTO  H101 2343   7.772   5.218   0.558
    6CHTO   C66 2344   7.887   4.970   0.556
    6CHTO  H123 2345   7.881   4.867   0.523
    6CHTO   N12 2346   7.958   5.043   0.447
    6CHTO  H110 2347   7.895   5.119   0.403
    6CHTO  H111 2348   8.051   5.084   0.482
    6CHTO   C69 2349   7.961   4.972   0.692
    6CHTO  H126 2350   7.965   5.076   0.731
    6CHTO   O41 2351   7.881   4.881   0.793
    6CHTO   C64 2352   7.737   4.927   0.814
    6CHTO  H121 2353   7.736   5.028   0.860
    6CHTO   C71 2354   7.663   4.830   0.908
    6CHTO   O47 2355   7.717   4.830   1.040
    6CHTO  H104 2356   7.700   4.911   1.082
    6CHTO   O34 2357   8.113   4.917   0.682
    6CHTO   C49 2358   8.244   4.986   0.627
    6CHTO   H91 2359   8.243   4.971   0.519
    6CHTO   C47 2360   8.367   4.917   0.688
    6CHTO   H89 2361   8.456   4.959   0.636
    6CHTO   O33 2362   8.360   4.776   0.659
    6CHTO   H70 2363   8.288   4.737   0.705
    6CHTO   C45 2364   8.375   4.950   0.846
    6CHTO   H87 2365   8.284   4.909   0.892
    6CHTO    N8 2366   8.492   4.884   0.908
    6CHTO   H75 2367   8.584   4.927   0.871
    6CHTO   H76 2368   8.488   4.895   1.016
    6CHTO   C43 2369   8.368   5.109   0.874
    6CHTO   H85 2370   8.352   5.118   0.982
    6CHTO   O29 2371   8.262   5.170   0.798
    6CHTO   C50 2372   8.247   5.138   0.659
    6CHTO   H92 2373   8.150   5.180   0.627
    6CHTO   C54 2374   8.348   5.216   0.570
    6CHTO   O36 2375   8.323   5.198   0.430
    6CHTO   H72 2376   8.389   5.242   0.381
    6CHTO   O27 2377   8.491   5.180   0.848
    6CHTO   C37 2378   8.546   5.300   0.906
    6CHTO   H79 2379   8.624   5.340   0.840
    6CHTO   C38 2380   8.439   5.414   0.923
    6CHTO   H80 2381   8.353   5.373   0.978
    6CHTO   O31 2382   8.396   5.453   0.791
    6CHTO   H68 2383   8.346   5.385   0.751
    6CHTO   C39 2384   8.497   5.537   1.002
    6CHTO   H81 2385   8.576   5.582   0.941
    6CHTO    N7 2386   8.396   5.645   1.029
    6CHTO   H73 2387   8.357   5.684   0.935
    6CHTO   H74 2388   8.315   5.606   1.088
    6CHTO   C40 2389   8.564   5.489   1.136
    6CHTO   H82 2390   8.487   5.453   1.205
    6CHTO   O26 2391   8.662   5.388   1.108
    6CHTO   C41 2392   8.610   5.268   1.044
    6CHTO   H83 2393   8.535   5.221   1.110
    6CHTO   C52 2394   8.728   5.168   1.029
    6CHTO   O35 2395   8.784   5.126   1.159
    6CHTO   H71 2396   8.723   5.069   1.203
    6CHTO   O28 2397   8.642   5.593   1.200
    6CHTO   C42 2398   8.644   5.610   1.346
    6CHTO   H84 2399   8.738   5.662   1.363
    6CHTO   C44 2400   8.651   5.479   1.431
    6CHTO   H86 2401   8.564   5.418   1.408
    6CHTO   O32 2402   8.769   5.407   1.389
    6CHTO   H69 2403   8.847   5.455   1.411
    6CHTO   C48 2404   8.650   5.507   1.587
    6CHTO   H90 2405   8.742   5.560   1.612
    6CHTO    N9 2406   8.651   5.380   1.668
    6CHTO   H77 2407   8.652   5.293   1.605
    6CHTO   H78 2408   8.736   5.379   1.735
    6CHTO   C51 2409   8.528   5.601   1.623
    6CHTO   H93 2410   8.435   5.548   1.598
    6CHTO   O30 2411   8.543   5.722   1.548
    6CHTO   C46 2412   8.530   5.702   1.397
    6CHTO   H88 2413   8.433   5.656   1.375
    6CHTO   C53 2414   8.538   5.842   1.331
    6CHTO   O72 2415   8.429   5.925   1.371
    6CHTO  H199 2416   8.349   5.894   1.331
    6CHTO   O22 2417   8.528   5.639   1.763
    6CHTO   C31 2418   8.426   5.722   1.831
    6CHTO   H59 2419   8.459   5.728   1.938
    6CHTO   C29 2420   8.419   5.868   1.780
    6CHTO   H57 2421   8.391   5.864   1.673
    6CHTO   O21 2422   8.552   5.924   1.785
    6CHTO   H37 2423   8.579   5.934   1.874
    6CHTO   C27 2424   8.312   5.955   1.858
    6CHTO   H55 2425   8.345   5.965   1.962
    6CHTO    N5 2426   8.297   6.091   1.799
    6CHTO   H43 2427   8.265   6.084   1.696
    6CHTO   H44 2428   8.391   6.144   1.806
    6CHTO   C25 2429   8.175   5.878   1.861
    6CHTO   H53 2430   8.135   5.872   1.758
    6CHTO   O17 2431   8.194   5.743   1.912
    6CHTO   C32 2432   8.282   5.660   1.835
    6CHTO   H60 2433   8.245   5.651   1.733
    6CHTO   C36 2434   8.279   5.520   1.902
    6CHTO   O25 2435   8.339   5.419   1.820
    6CHTO   H40 2436   8.431   5.434   1.813
    6CHTO   O15 2437   8.067   5.951   1.955
    6CHTO   C19 2438   7.951   6.039   1.974
    6CHTO   H47 2439   7.933   6.034   2.082
    6CHTO   C20 2440   7.975   6.188   1.935
    6CHTO   H48 2441   8.006   6.198   1.830
    6CHTO   O19 2442   8.083   6.235   2.019
    6CHTO   H35 2443   8.164   6.197   1.992
    6CHTO   C21 2444   7.846   6.276   1.957
    6CHTO   H49 2445   7.825   6.280   2.064
    6CHTO    N4 2446   7.862   6.416   1.911
    6CHTO   H41 2447   7.942   6.464   1.966
    6CHTO   H42 2448   7.887   6.418   1.806
    6CHTO   C22 2449   7.723   6.207   1.891
    6CHTO   H50 2450   7.736   6.209   1.783
    6CHTO   O14 2451   7.710   6.071   1.936
    6CHTO   C23 2452   7.821   5.986   1.905
    6CHTO   H51 2453   7.831   5.984   1.796
    6CHTO   C34 2454   7.786   5.843   1.950
    6CHTO   O23 2455   7.761   5.834   2.091
    6CHTO   H38 2456   7.742   5.745   2.113
    6CHTO   O16 2457   7.599   6.269   1.929
    6CHTO   C24 2458   7.484   6.258   1.815
    6CHTO   H52 2459   7.503   6.176   1.746
    6CHTO   C26 2460   7.477   6.391   1.738
    6CHTO   H54 2461   7.469   6.475   1.811
    6CHTO   O20 2462   7.601   6.405   1.667
    6CHTO   H36 2463   7.605   6.490   1.626
    6CHTO   C30 2464   7.354   6.396   1.642
    6CHTO   H58 2465   7.366   6.323   1.561
    6CHTO    N6 2466   7.341   6.530   1.576
    6CHTO   H45 2467   7.255   6.531   1.511
    6CHTO   H46 2468   7.430   6.550   1.518
    6CHTO   C33 2469   7.224   6.356   1.719
    6CHTO   H61 2470   7.202   6.431   1.797
    6CHTO   O18 2471   7.245   6.229   1.783
    6CHTO   C28 2472   7.348   6.228   1.883
    6CHTO   H56 2473   7.328   6.304   1.959
    6CHTO   C35 2474   7.350   6.089   1.950
    6CHTO   O24 2475   7.228   6.060   2.017
    6CHTO   H39 2476   7.160   6.045   1.954
    6CHTO    O9 2477   7.108   6.353   1.633
    6CHTO   C13 2478   6.969   6.390   1.707
    6CHTO   H26 2479   6.987   6.483   1.765
    6CHTO   C11 2480   6.923   6.270   1.801
    6CHTO   H24 2481   6.998   6.260   1.881
    6CHTO    O8 2482   6.922   6.146   1.728
    6CHTO    H3 2483   7.008   6.124   1.700
    6CHTO    C9 2484   6.788   6.309   1.865
    6CHTO   H22 2485   6.806   6.405   1.916
    6CHTO    N2 2486   6.745   6.217   1.974
    6CHTO   H10 2487   6.746   6.268   2.069
    6CHTO   H11 2488   6.647   6.176   1.954
    6CHTO    C7 2489   6.681   6.333   1.752
    6CHTO   H20 2490   6.591   6.370   1.807
    6CHTO    O4 2491   6.725   6.436   1.660
    6CHTO   C14 2492   6.857   6.428   1.601
    6CHTO   H27 2493   6.879   6.531   1.564
    6CHTO   C18 2494   6.850   6.336   1.476
    6CHTO   O13 2495   6.968   6.344   1.395
    6CHTO    H7 2496   6.959   6.287   1.321
    6CHTO    O2 2497   6.643   6.197   1.667
    6CHTO    C1 2498   6.507   6.180   1.621
    6CHTO   H14 2499   6.511   6.107   1.539
    6CHTO    C2 2500   6.433   6.311   1.568
    6CHTO   H15 2501   6.439   6.387   1.647
    6CHTO    O6 2502   6.504   6.358   1.451
    6CHTO    H1 2503   6.589   6.390   1.475
    6CHTO    C3 2504   6.279   6.280   1.534
    6CHTO   H16 2505   6.275   6.206   1.453
    6CHTO    N1 2506   6.204   6.401   1.486
    6CHTO    H8 2507   6.121   6.424   1.552
    6CHTO    H9 2508   6.167   6.385   1.386
    6CHTO    C4 2509   6.213   6.211   1.659
    6CHTO   H17 2510   6.212   6.283   1.742
    6CHTO    O1 2511   6.286   6.093   1.696
    6CHTO    C5 2512   6.423   6.111   1.734
    6CHTO   H18 2513   6.430   6.172   1.824
    6CHTO   C16 2514   6.473   5.968   1.765
    6CHTO   O11 2515   6.607   5.962   1.816
    6CHTO    H5 2516   6.667   5.988   1.749
    6CHTO    O3 2517   6.080   6.165   1.629
    6CHTO    C6 2518   5.987   6.165   1.742
    6CHTO   H19 2519   6.039   6.171   1.838
    6CHTO    C8 2520   5.888   6.286   1.733
    6CHTO   H21 2521   5.840   6.283   1.634
    6CHTO    O7 2522   5.965   6.406   1.746
    6CHTO    H2 2523   5.911   6.481   1.733
    6CHTO   C12 2524   5.776   6.275   1.845
    6CHTO   H25 2525   5.827   6.289   1.942
    6CHTO    N3 2526   5.674   6.385   1.833
    6CHTO   H12 2527   5.722   6.481   1.844
    6CHTO   H13 2528   5.625   6.379   1.737
    6CHTO   C15 2529   5.712   6.131   1.844
    6CHTO   H28 2530   5.650   6.115   1.755
    6CHTO   O10 2531   5.629   6.102   1.972
    6CHTO    H4 2532   5.582   6.022   1.962
    6CHTO    O5 2533   5.813   6.029   1.852
    6CHTO   C10 2534   5.907   6.032   1.743
    6CHTO   H23 2535   5.851   6.023   1.649
    6CHTO   C17 2536   5.997   5.908   1.753
    6CHTO   O12 2537   6.071   5.904   1.876
    6CHTO    H6 2538   6.012   5.888   1.947
    7CHTO  H203 2539   5.213   2.482   2.234
    7CHTO   O82 2540   5.246   2.455   2.150
    7CHTO  C123 2541   5.385   2.488   2.138
    7CHTO  H227 2542   5.400   2.592   2.170
    7CHTO   O77 2543   5.451   2.397   2.231
    7CHTO  C118 2544   5.591   2.425   2.248
    7CHTO  H222 2545   5.604   2.530   2.276
    7CHTO  C125 2546   5.641   2.333   2.366
    7CHTO   O84 2547   5.770   2.372   2.414
    7CHTO  H205 2548   5.835   2.356   2.348
    7CHTO  C114 2549   5.664   2.396   2.114
    7CHTO  H218 2550   5.655   2.289   2.092
    7CHTO  C116 2551   5.601   2.475   1.996
    7CHTO  H220 2552   5.631   2.583   2.005
    7CHTO   O79 2553   5.660   2.427   1.873
    7CHTO  H201 2554   5.630   2.478   1.801
    7CHTO  C120 2555   5.443   2.464   1.993
    7CHTO  H224 2556   5.421   2.360   1.960
    7CHTO   N21 2557   5.384   2.556   1.893
    7CHTO  H211 2558   5.364   2.653   1.937
    7CHTO  H212 2559   5.293   2.514   1.853
    7CHTO   O75 2560   5.801   2.432   2.137
    7CHTO  C112 2561   5.909   2.322   2.090
    7CHTO  H216 2562   5.867   2.260   2.010
    7CHTO   O73 2563   5.941   2.244   2.207
    7CHTO  C113 2564   6.045   2.147   2.191
    7CHTO  H217 2565   6.017   2.076   2.109
    7CHTO  C124 2566   6.050   2.068   2.322
    7CHTO   O83 2567   6.129   1.949   2.312
    7CHTO  H204 2568   6.219   1.971   2.302
    7CHTO  C109 2569   6.177   2.220   2.157
    7CHTO  H213 2570   6.196   2.292   2.239
    7CHTO  C110 2571   6.157   2.298   2.023
    7CHTO  H214 2572   6.137   2.225   1.943
    7CHTO   O78 2573   6.279   2.367   1.989
    7CHTO  H200 2574   6.347   2.305   1.968
    7CHTO  C111 2575   6.038   2.397   2.037
    7CHTO  H215 2576   6.065   2.473   2.111
    7CHTO   N19 2577   6.006   2.470   1.911
    7CHTO  H207 2578   5.981   2.399   1.833
    7CHTO  H208 2579   6.091   2.529   1.880
    7CHTO   O74 2580   6.290   2.127   2.149
    7CHTO  C115 2581   6.423   2.193   2.205
    7CHTO  H219 2582   6.428   2.300   2.183
    7CHTO   O76 2583   6.430   2.184   2.368
    7CHTO  C122 2584   6.451   2.051   2.417
    7CHTO  H226 2585   6.368   1.988   2.385
    7CHTO  C126 2586   6.443   2.055   2.574
    7CHTO   O85 2587   6.444   1.926   2.636
    7CHTO  H206 2588   6.366   1.879   2.613
    7CHTO  C121 2589   6.588   1.998   2.361
    7CHTO  H225 2590   6.667   2.072   2.382
    7CHTO   O81 2591   6.627   1.873   2.420
    7CHTO  H202 2592   6.712   1.848   2.390
    7CHTO  C119 2593   6.571   1.984   2.206
    7CHTO  H223 2594   6.664   1.943   2.168
    7CHTO  C117 2595   6.545   2.122   2.134
    7CHTO  H221 2596   6.514   2.114   2.030
    7CHTO   N20 2597   6.666   2.211   2.132
    7CHTO  H209 2598   6.644   2.302   2.077
    7CHTO  H210 2599   6.697   2.235   2.233
    7CHTO   O80 2600   6.469   1.874   2.168
    7CHTO  C103 2601   6.483   1.799   2.032
    7CHTO  H190 2602   6.480   1.869   1.948
    7CHTO  C101 2603   6.609   1.704   2.016
    7CHTO  H188 2604   6.625   1.652   2.111
    7CHTO   O68 2605   6.734   1.791   1.987
    7CHTO  H168 2606   6.724   1.834   1.904
    7CHTO   C99 2607   6.589   1.593   1.902
    7CHTO  H186 2608   6.590   1.643   1.804
    7CHTO   N17 2609   6.698   1.490   1.897
    7CHTO  H174 2610   6.685   1.426   1.811
    7CHTO  H175 2611   6.700   1.433   1.989
    7CHTO   C97 2612   6.449   1.527   1.914
    7CHTO  H184 2613   6.446   1.469   2.008
    7CHTO   O64 2614   6.348   1.629   1.911
    7CHTO  C104 2615   6.349   1.715   2.026
    7CHTO  H191 2616   6.340   1.657   2.119
    7CHTO  C108 2617   6.227   1.807   2.021
    7CHTO   O71 2618   6.104   1.732   2.031
    7CHTO  H171 2619   6.095   1.699   2.118
    7CHTO   O62 2620   6.408   1.450   1.799
    7CHTO   C91 2621   6.411   1.306   1.796
    7CHTO  H178 2622   6.512   1.278   1.768
    7CHTO   C92 2623   6.319   1.263   1.676
    7CHTO  H179 2624   6.350   1.316   1.585
    7CHTO   O66 2625   6.344   1.124   1.646
    7CHTO  H166 2626   6.323   1.070   1.720
    7CHTO   C93 2627   6.165   1.281   1.707
    7CHTO  H180 2628   6.110   1.204   1.650
    7CHTO   N16 2629   6.110   1.410   1.660
    7CHTO  H172 2630   6.120   1.418   1.553
    7CHTO  H173 2631   6.161   1.492   1.708
    7CHTO   C94 2632   6.136   1.259   1.861
    7CHTO  H181 2633   6.143   1.353   1.918
    7CHTO   O61 2634   6.233   1.169   1.917
    7CHTO   C95 2635   6.365   1.225   1.928
    7CHTO  H182 2636   6.368   1.289   2.016
    7CHTO  C106 2637   6.464   1.106   1.958
    7CHTO   O69 2638   6.595   1.154   1.988
    7CHTO  H169 2639   6.595   1.200   2.070
    7CHTO   O63 2640   5.995   1.195   1.881
    7CHTO   C96 2641   5.910   1.263   1.991
    7CHTO  H183 2642   5.908   1.369   1.968
    7CHTO   C98 2643   5.966   1.247   2.136
    7CHTO  H185 2644   6.072   1.279   2.141
    7CHTO   O67 2645   5.895   1.340   2.220
    7CHTO  H167 2646   5.916   1.428   2.198
    7CHTO  C102 2647   5.946   1.099   2.195
    7CHTO  H189 2648   5.947   1.110   2.304
    7CHTO   N18 2649   6.055   1.005   2.164
    7CHTO  H176 2650   6.035   0.909   2.209
    7CHTO  H177 2651   6.149   1.043   2.202
    7CHTO  C105 2652   5.806   1.043   2.153
    7CHTO  H192 2653   5.817   0.969   2.074
    7CHTO   O65 2654   5.716   1.144   2.103
    7CHTO  C100 2655   5.762   1.204   1.980
    7CHTO  H187 2656   5.759   1.127   1.903
    7CHTO  C107 2657   5.659   1.313   1.940
    7CHTO   O70 2658   5.688   1.366   1.811
    7CHTO  H170 2659   5.625   1.432   1.789
    7CHTO   O57 2660   5.747   0.975   2.286
    7CHTO   C85 2661   5.719   0.833   2.285
    7CHTO  H157 2662   5.774   0.791   2.198
    7CHTO   C83 2663   5.568   0.808   2.256
    7CHTO  H155 2664   5.543   0.855   2.160
    7CHTO   O56 2665   5.487   0.873   2.356
    7CHTO  H135 2666   5.499   0.966   2.352
    7CHTO   C81 2667   5.545   0.654   2.243
    7CHTO  H153 2668   5.606   0.618   2.161
    7CHTO   N14 2669   5.406   0.620   2.201
    7CHTO  H141 2670   5.381   0.672   2.111
    7CHTO  H142 2671   5.337   0.648   2.278
    7CHTO   C79 2672   5.590   0.578   2.374
    7CHTO  H151 2673   5.594   0.472   2.349
    7CHTO   O52 2674   5.727   0.615   2.413
    7CHTO   C86 2675   5.754   0.758   2.419
    7CHTO  H158 2676   5.692   0.795   2.503
    7CHTO   C90 2677   5.901   0.785   2.459
    7CHTO   O60 2678   5.927   0.739   2.592
    7CHTO  H138 2679   6.018   0.753   2.613
    7CHTO   O50 2680   5.503   0.595   2.488
    7CHTO   C73 2681   5.491   0.488   2.583
    7CHTO  H145 2682   5.584   0.428   2.585
    7CHTO   C74 2683   5.374   0.392   2.543
    7CHTO  H146 2684   5.392   0.361   2.439
    7CHTO   O54 2685   5.384   0.273   2.623
    7CHTO  H133 2686   5.320   0.211   2.597
    7CHTO   C75 2687   5.236   0.467   2.559
    7CHTO  H147 2688   5.236   0.555   2.492
    7CHTO   N13 2689   5.117   0.387   2.518
    7CHTO  H139 2690   5.147   0.290   2.482
    7CHTO  H140 2691   5.049   0.373   2.601
    7CHTO   C76 2692   5.226   0.522   2.709
    7CHTO  H148 2693   5.230   0.435   2.776
    7CHTO   O49 2694   5.339   0.610   2.737
    7CHTO   C77 2695   5.466   0.545   2.726
    7CHTO  H149 2696   5.472   0.463   2.799
    7CHTO   C88 2697   5.574   0.646   2.769
    7CHTO   O58 2698   5.705   0.587   2.766
    7CHTO  H136 2699   5.769   0.650   2.794
    7CHTO   O51 2700   5.096   0.610   2.734
    7CHTO   C78 2701   5.062   0.623   0.042
    7CHTO  H150 2702   5.154   0.611   0.104
    7CHTO   C80 2703   4.960   0.515   0.084
    7CHTO  H152 2704   4.873   0.520   0.014
    7CHTO   O55 2705   5.024   0.387   0.066
    7CHTO  H134 2706   4.961   0.318   0.079
    7CHTO   C84 2707   4.910   0.535   0.233
    7CHTO  H156 2708   4.995   0.518   0.299
    7CHTO   N15 2709   4.803   0.435   0.271
    7CHTO  H143 2710   4.841   0.336   0.260
    7CHTO  H144 2711   4.774   0.451   0.373
    7CHTO   C87 2712   4.860   0.680   0.254
    7CHTO  H159 2713   4.770   0.697   0.194
    7CHTO   O53 2714   4.974   0.779   0.207
    7CHTO   C82 2715   5.007   0.765   0.068
    7CHTO  H154 2716   4.919   0.784   0.006
    7CHTO   C89 2717   5.114   0.870   0.031
    7CHTO   O59 2718   5.064   1.004   0.047
    7CHTO  H137 2719   5.001   1.022   2.829
    7CHTO   O45 2720   4.819   0.706   0.419
    7CHTO   C67 2721   4.901   0.796   0.495
    7CHTO  H124 2722   4.992   0.821   0.439
    7CHTO   C65 2723   4.823   0.928   0.527
    7CHTO  H122 2724   4.719   0.899   0.541
    7CHTO   O44 2725   4.833   1.009   0.408
    7CHTO  H102 2726   4.786   0.970   0.337
    7CHTO   C63 2727   4.864   0.993   0.666
    7CHTO  H120 2728   4.809   0.941   0.744
    7CHTO   N11 2729   4.820   1.135   0.687
    7CHTO  H108 2730   4.742   1.140   0.761
    7CHTO  H109 2731   4.902   1.195   0.719
    7CHTO   C61 2732   5.015   0.964   0.695
    7CHTO  H118 2733   5.036   1.003   0.796
    7CHTO   O40 2734   5.046   0.821   0.698
    7CHTO   C68 2735   4.953   0.731   0.630
    7CHTO  H125 2736   4.866   0.712   0.697
    7CHTO   C72 2737   5.023   0.595   0.607
    7CHTO   O48 2738   5.139   0.605   0.525
    7CHTO  H105 2739   5.176   0.520   0.511
    7CHTO   O38 2740   5.101   1.028   0.598
    7CHTO   C55 2741   5.236   1.054   0.640
    7CHTO  H112 2742   5.265   0.984   0.720
    7CHTO   C56 2743   5.251   1.205   0.685
    7CHTO  H113 2744   5.209   1.267   0.604
    7CHTO   O42 2745   5.170   1.230   0.801
    7CHTO  H100 2746   5.079   1.221   0.780
    7CHTO   C57 2747   5.403   1.244   0.710
    7CHTO  H114 2748   5.434   1.192   0.801
    7CHTO   N10 2749   5.424   1.389   0.735
    7CHTO  H106 2750   5.523   1.420   0.704
    7CHTO  H107 2751   5.351   1.447   0.681
    7CHTO   C58 2752   5.490   1.194   0.592
    7CHTO  H115 2753   5.464   1.253   0.500
    7CHTO   O37 2754   5.467   1.054   0.567
    7CHTO   C59 2755   5.334   1.025   0.523
    7CHTO  H116 2756   5.309   1.087   0.436
    7CHTO   C70 2757   5.327   0.878   0.479
    7CHTO   O46 2758   5.410   0.851   0.366
    7CHTO  H103 2759   5.402   0.761   0.342
    7CHTO   O39 2760   5.651   1.213   0.626
    7CHTO   C60 2761   5.741   1.140   0.540
    7CHTO  H117 2762   5.718   1.034   0.546
    7CHTO   C62 2763   5.732   1.183   0.391
    7CHTO  H119 2764   5.626   1.165   0.360
    7CHTO   O43 2765   5.758   1.324   0.379
    7CHTO  H101 2766   5.746   1.352   0.290
    7CHTO   C66 2767   5.828   1.090   0.302
    7CHTO  H123 2768   5.802   0.986   0.320
    7CHTO   N12 2769   5.810   1.113   0.157
    7CHTO  H110 2770   5.709   1.088   0.128
    7CHTO  H111 2771   5.833   1.215   0.132
    7CHTO   C69 2772   5.976   1.109   0.348
    7CHTO  H126 2773   6.011   1.212   0.326
    7CHTO   O41 2774   5.987   1.081   0.504
    7CHTO   C64 2775   5.886   1.157   0.592
    7CHTO  H121 2776   5.911   1.265   0.594
    7CHTO   C71 2777   5.898   1.104   0.738
    7CHTO   O47 2778   6.025   1.136   0.795
    7CHTO  H104 2779   6.093   1.087   0.751
    7CHTO   O34 2780   6.072   1.007   0.274
    7CHTO   C49 2781   6.141   0.920   0.166
    7CHTO   H91 2782   6.217   0.863   0.220
    7CHTO   C47 2783   6.212   1.008   0.061
    7CHTO   H89 2784   6.307   1.039   0.109
    7CHTO   O33 2785   6.134   1.126   0.031
    7CHTO   H70 2786   6.185   1.186   2.828
    7CHTO   C45 2787   6.237   0.928   2.770
    7CHTO   H87 2788   6.152   0.948   2.704
    7CHTO    N8 2789   6.359   0.979   2.703
    7CHTO   H75 2790   6.353   1.086   2.689
    7CHTO   H76 2791   6.447   0.955   2.762
    7CHTO   C43 2792   6.233   0.769   2.791
    7CHTO   H85 2793   6.251   0.724   2.694
    7CHTO   O29 2794   6.104   0.733   2.845
    7CHTO   C50 2795   6.046   0.818   0.098
    7CHTO   H92 2796   5.963   0.874   0.052
    7CHTO   C54 2797   5.977   0.730   0.205
    7CHTO   O36 2798   5.874   0.648   0.150
    7CHTO   H72 2799   5.803   0.701   0.119
    7CHTO   O27 2800   6.338   0.721   0.029
    7CHTO   C37 2801   6.395   0.604   0.091
    7CHTO   H79 2802   6.396   0.617   0.200
    7CHTO   C38 2803   6.312   0.475   0.061
    7CHTO   H80 2804   6.298   0.467   2.800
    7CHTO   O31 2805   6.184   0.491   0.124
    7CHTO   H68 2806   6.127   0.421   0.098
    7CHTO   C39 2807   6.383   0.344   0.114
    7CHTO   H81 2808   6.381   0.349   0.223
    7CHTO    N7 2809   6.313   0.218   0.075
    7CHTO   H73 2810   6.365   0.132   0.115
    7CHTO   H74 2811   6.211   0.219   0.111
    7CHTO   C40 2812   6.535   0.342   0.072
    7CHTO   H82 2813   6.545   0.321   2.813
    7CHTO   O26 2814   6.597   0.466   0.108
    7CHTO   C41 2815   6.542   0.584   0.042
    7CHTO   H83 2816   6.544   0.570   2.781
    7CHTO   C52 2817   6.636   0.701   0.078
    7CHTO   O35 2818   6.615   0.818   2.846
    7CHTO   H71 2819   6.678   0.883   0.020
    7CHTO   O28 2820   6.609   0.243   0.147
    7CHTO   C42 2821   6.741   0.195   0.105
    7CHTO   H84 2822   6.775   0.138   0.191
    7CHTO   C44 2823   6.850   0.304   0.079
    7CHTO   H86 2824   6.815   0.371   0.001
    7CHTO   O32 2825   6.864   0.379   0.202
    7CHTO   H69 2826   6.787   0.430   0.218
    7CHTO   C48 2827   6.988   0.242   0.032
    7CHTO   H90 2828   7.029   0.184   0.114
    7CHTO    N9 2829   7.090   0.349   0.001
    7CHTO   H77 2830   7.122   0.344   2.746
    7CHTO   H78 2831   7.175   0.340   0.068
    7CHTO   C51 2832   6.961   0.146   2.758
    7CHTO   H93 2833   6.919   0.205   2.677
    7CHTO   O30 2834   6.872   0.043   2.802
    7CHTO   C46 2835   6.733   0.095   2.833
    7CHTO   H88 2836   6.694   0.147   2.745
    7CHTO   C53 2837   6.644   9.974   0.019
    7CHTO   O72 2838   6.632   9.886   2.754
    7CHTO  H199 2839   6.577   9.813   2.776
    7CHTO   O22 2840   7.080   0.076   2.715
    7CHTO   C31 2841   7.092   0.022   2.578
    7CHTO   H59 2842   7.192   9.972   2.574
    7CHTO   C29 2843   6.986   9.915   2.542
    7CHTO   H57 2844   6.887   9.961   2.557
    7CHTO   O21 2845   6.997   9.807   2.637
    7CHTO   H37 2846   7.078   9.761   2.626
    7CHTO   C27 2847   6.998   9.866   2.392
    7CHTO   H55 2848   7.094   9.814   2.379
    7CHTO    N5 2849   6.889   9.774   2.352
    7CHTO   H43 2850   6.793   9.822   2.363
    7CHTO   H44 2851   6.893   9.684   2.412
    7CHTO   C25 2852   7.000   9.993   2.300
    7CHTO   H53 2853   6.907   0.049   2.315
    7CHTO   O17 2854   7.112   0.077   2.339
    7CHTO   C32 2855   7.098   0.134   2.469
    7CHTO   H60 2856   7.006   0.192   2.473
    7CHTO   C36 2857   7.218   0.230   2.492
    7CHTO   O25 2858   7.217   0.338   2.399
    7CHTO   H40 2859   7.145   0.396   2.417
    7CHTO   O15 2860   7.017   9.958   2.143
    7CHTO   C19 2861   6.996   0.061   2.041
    7CHTO   H47 2862   7.004   0.005   1.946
    7CHTO   C20 2863   6.856   0.129   2.047
    7CHTO   H48 2864   6.835   0.170   2.147
    7CHTO   O19 2865   6.760   0.024   2.022
    7CHTO   H35 2866   6.673   0.057   2.033
    7CHTO   C21 2867   6.841   0.247   1.943
    7CHTO   H49 2868   6.840   0.204   1.842
    7CHTO    N4 2869   6.712   0.320   1.959
    7CHTO   H41 2870   6.629   0.253   1.946
    7CHTO   H42 2871   6.706   0.399   1.885
    7CHTO   C22 2872   6.965   0.340   1.952
    7CHTO   H50 2873   6.966   0.388   2.050
    7CHTO   O14 2874   7.085   0.263   1.933
    7CHTO   C23 2875   7.109   0.168   2.038
    7CHTO   H51 2876   7.115   0.224   2.133
    7CHTO   C34 2877   7.246   0.103   2.014
    7CHTO   O23 2878   7.352   0.199   2.025
    7CHTO   H38 2879   7.434   0.156   2.010
    7CHTO   O16 2880   6.972   0.437   1.845
    7CHTO   C24 2881   6.994   0.591   1.894
    7CHTO   H52 2882   6.978   0.602   2.002
    7CHTO   C26 2883   6.896   0.682   1.819
    7CHTO   H54 2884   6.912   0.669   1.709
    7CHTO   O20 2885   6.762   0.639   1.848
    7CHTO   H36 2886   6.742   0.651   1.939
    7CHTO   C30 2887   6.922   0.832   1.854
    7CHTO   H58 2888   6.904   0.849   1.961
    7CHTO    N6 2889   6.829   0.924   1.781
    7CHTO   H45 2890   6.841   0.912   1.675
    7CHTO   H46 2891   6.727   0.901   1.808
    7CHTO   C33 2892   7.072   0.866   1.827
    7CHTO   H61 2893   7.093   0.852   1.720
    7CHTO   O18 2894   7.154   0.774   1.902
    7CHTO   C28 2895   7.140   0.636   1.866
    7CHTO   H56 2896   7.162   0.621   1.760
    7CHTO   C35 2897   7.242   0.555   1.950
    7CHTO   O24 2898   7.378   0.588   1.921
    7CHTO   H39 2899   7.397   0.675   1.953
    7CHTO    O9 2900   7.105   1.003   1.857
    7CHTO   C13 2901   7.244   1.053   1.788
    7CHTO   H26 2902   7.256   1.001   1.691
    7CHTO   C11 2903   7.366   1.024   1.885
    7CHTO   H24 2904   7.376   0.914   1.895
    7CHTO    O8 2905   7.341   1.076   2.017
    7CHTO    H3 2906   7.335   1.169   2.014
    7CHTO    C9 2907   7.495   1.078   1.817
    7CHTO   H22 2908   7.500   1.028   1.719
    7CHTO    N2 2909   7.620   1.037   1.886
    7CHTO   H10 2910   7.623   0.930   1.898
    7CHTO   H11 2911   7.706   1.071   1.830
    7CHTO    C7 2912   7.482   1.233   1.794
    7CHTO   H20 2913   7.568   1.257   1.728
    7CHTO    O4 2914   7.362   1.269   1.722
    7CHTO   C14 2915   7.235   1.207   1.752
    7CHTO   H27 2916   7.176   1.215   1.658
    7CHTO   C18 2917   7.159   1.289   1.859
    7CHTO   O13 2918   7.124   1.419   1.810
    7CHTO    H7 2919   7.080   1.467   1.877
    7CHTO    O2 2920   7.491   1.320   1.936
    7CHTO    C1 2921   7.567   1.442   1.929
    7CHTO   H14 2922   7.541   1.496   1.836
    7CHTO    C2 2923   7.726   1.423   1.934
    7CHTO   H15 2924   7.745   1.357   2.020
    7CHTO    O6 2925   7.769   1.358   1.813
    7CHTO    H1 2926   7.860   1.337   1.820
    7CHTO    C3 2927   7.802   1.564   1.953
    7CHTO   H16 2928   7.790   1.623   1.862
    7CHTO    N1 2929   7.949   1.544   1.975
    7CHTO    H8 2930   7.993   1.493   1.890
    7CHTO    H9 2931   7.998   1.640   1.988
    7CHTO    C4 2932   7.735   1.648   2.068
    7CHTO   H17 2933   7.753   1.598   2.164
    7CHTO    O1 2934   7.594   1.659   2.044
    7CHTO    C5 2935   7.524   1.534   2.048
    7CHTO   H18 2936   7.549   1.481   2.140
    7CHTO   C16 2937   7.371   1.563   2.048
    7CHTO   O11 2938   7.327   1.629   1.929
    7CHTO    H5 2939   7.334   1.571   1.856
    7CHTO    O3 2940   7.780   1.785   2.072
    7CHTO    C6 2941   7.856   1.828   2.191
    7CHTO   H19 2942   7.898   1.744   2.247
    7CHTO    C8 2943   7.975   1.920   2.147
    7CHTO   H21 2944   7.936   1.998   2.083
    7CHTO    O7 2945   8.066   1.838   2.072
    7CHTO    H2 2946   8.135   1.891   2.035
    7CHTO   C12 2947   8.047   1.988   2.271
    7CHTO   H25 2948   8.098   1.906   2.326
    7CHTO    N3 2949   8.153   2.084   2.226
    7CHTO   H12 2950   8.131   2.184   2.258
    7CHTO   H13 2951   8.250   2.053   2.263
    7CHTO   C15 2952   7.939   2.052   2.365
    7CHTO   H28 2953   7.892   2.139   2.320
    7CHTO   O10 2954   7.998   2.092   2.503
    7CHTO    H4 2955   7.935   2.142   2.552
    7CHTO    O5 2956   7.840   1.955   2.402
    7CHTO   C10 2957   7.764   1.905   2.290
    7CHTO   H23 2958   7.718   1.990   2.238
    7CHTO   C17 2959   7.651   1.818   2.348
    7CHTO   O12 2960   7.559   1.895   2.425
    7CHTO    H6 2961   7.492   1.840   2.459
    8CHTO  H203 2962   7.448   8.832   0.831
    8CHTO   O82 2963   7.497   8.857   0.906
    8CHTO  C123 2964   7.438   8.805   1.026
    8CHTO  H227 2965   7.500   8.834   1.112
    8CHTO   O77 2966   7.309   8.874   1.034
    8CHTO  C118 2967   7.233   8.843   1.152
    8CHTO  H222 2968   7.295   8.863   1.241
    8CHTO  C125 2969   7.108   8.938   1.156
    8CHTO   O84 2970   7.025   8.923   1.040
    8CHTO  H205 2971   7.070   8.956   0.964
    8CHTO  C114 2972   7.195   8.693   1.151
    8CHTO  H218 2973   7.135   8.673   1.063
    8CHTO  C116 2974   7.322   8.604   1.142
    8CHTO  H220 2975   7.378   8.611   1.238
    8CHTO   O79 2976   7.279   8.467   1.130
    8CHTO  H201 2977   7.354   8.410   1.134
    8CHTO  C120 2978   7.415   8.649   1.022
    8CHTO  H224 2979   7.361   8.622   0.928
    8CHTO   N21 2980   7.544   8.573   1.021
    8CHTO  H211 2981   7.617   8.624   1.082
    8CHTO  H212 2982   7.580   8.563   0.920
    8CHTO   O75 2983   7.120   8.672   1.272
    8CHTO  C112 2984   6.976   8.592   1.253
    8CHTO  H216 2985   6.996   8.489   1.219
    8CHTO   O73 2986   6.899   8.665   1.155
    8CHTO  C113 2987   6.762   8.628   1.140
    8CHTO  H217 2988   6.756   8.520   1.114
    8CHTO  C124 2989   6.709   8.708   1.021
    8CHTO   O83 2990   6.582   8.664   0.972
    8CHTO  H204 2991   6.557   8.716   0.899
    8CHTO  C109 2992   6.691   8.658   1.275
    8CHTO  H213 2993   6.717   8.761   1.302
    8CHTO  C110 2994   6.752   8.563   1.382
    8CHTO  H214 2995   6.735   8.459   1.352
    8CHTO   O78 2996   6.685   8.585   1.507
    8CHTO  H200 2997   6.714   8.523   1.571
    8CHTO  C111 2998   6.905   8.591   1.394
    8CHTO  H215 2999   6.918   8.692   1.437
    8CHTO   N19 3000   6.975   8.497   1.486
    8CHTO  H207 3001   7.080   8.525   1.494
    8CHTO  H208 3002   6.967   8.396   1.449
    8CHTO   O74 3003   6.545   8.649   1.268
    8CHTO  C115 3004   6.474   8.513   1.231
    8CHTO  H219 3005   6.531   8.456   1.158
    8CHTO   O76 3006   6.457   8.418   1.358
    8CHTO  C122 3007   6.374   8.473   1.461
    8CHTO  H226 3008   6.424   8.560   1.502
    8CHTO  C126 3009   6.365   8.368   1.578
    8CHTO   O85 3010   6.493   8.338   1.636
    8CHTO  H206 3011   6.526   8.414   1.680
    8CHTO  C121 3012   6.231   8.512   1.406
    8CHTO  H225 3013   6.181   8.419   1.372
    8CHTO   O81 3014   6.151   8.569   1.510
    8CHTO  H202 3015   6.063   8.581   1.481
    8CHTO  C119 3016   6.246   8.610   1.285
    8CHTO  H223 3017   6.145   8.627   1.246
    8CHTO  C117 3018   6.335   8.553   1.168
    8CHTO  H221 3019   6.361   8.624   1.091
    8CHTO   N20 3020   6.271   8.439   1.094
    8CHTO  H209 3021   6.334   8.407   1.013
    8CHTO  H210 3022   6.253   8.357   1.162
    8CHTO   O80 3023   6.290   8.756   1.327
    8CHTO  C103 3024   6.190   8.877   1.307
    8CHTO  H190 3025   6.091   8.842   1.278
    8CHTO  C101 3026   6.178   8.972   1.432
    8CHTO  H188 3027   6.278   8.997   1.468
    8CHTO   O68 3028   6.103   8.895   1.545
    8CHTO  H168 3029   6.154   8.821   1.572
    8CHTO   C99 3030   6.103   9.109   1.395
    8CHTO  H186 3031   5.998   9.086   1.367
    8CHTO   N17 3032   6.096   9.209   1.507
    8CHTO  H174 3033   6.154   9.175   1.592
    8CHTO  H175 3034   5.994   9.227   1.535
    8CHTO   C97 3035   6.167   9.172   1.268
    8CHTO  H184 3036   6.269   9.206   1.292
    8CHTO   O64 3037   6.167   9.075   1.161
    8CHTO  C104 3038   6.248   8.960   1.185
    8CHTO  H191 3039   6.351   8.987   1.207
    8CHTO  C108 3040   6.252   8.879   1.055
    8CHTO   O71 3041   6.320   8.949   0.950
    8CHTO  H171 3042   6.269   9.023   0.923
    8CHTO   O62 3043   6.089   9.281   1.213
    8CHTO   C91 3044   6.155   9.363   1.114
    8CHTO  H178 3045   6.247   9.315   1.083
    8CHTO   C92 3046   6.195   9.499   1.181
    8CHTO  H179 3047   6.108   9.539   1.234
    8CHTO   O66 3048   6.294   9.471   1.282
    8CHTO  H166 3049   6.256   9.423   1.353
    8CHTO   C93 3050   6.250   9.605   1.077
    8CHTO  H180 3051   6.350   9.571   1.046
    8CHTO   N16 3052   6.269   9.739   1.137
    8CHTO  H172 3053   6.371   9.772   1.125
    8CHTO  H173 3054   6.201   9.812   1.096
    8CHTO   C94 3055   6.158   9.611   0.949
    8CHTO  H181 3056   6.059   9.651   0.972
    8CHTO   O61 3057   6.138   9.479   0.896
    8CHTO   C95 3058   6.069   9.391   0.985
    8CHTO  H182 3059   5.974   9.436   1.014
    8CHTO  C106 3060   6.035   9.258   0.910
    8CHTO   O69 3061   5.940   9.280   0.805
    8CHTO  H169 3062   5.925   9.200   0.759
    8CHTO   O63 3063   6.230   9.703   0.833
    8CHTO   C96 3064   6.145   9.720   0.699
    8CHTO  H183 3065   6.063   9.648   0.701
    8CHTO   C98 3066   6.229   9.695   0.571
    8CHTO  H185 3067   6.322   9.753   0.576
    8CHTO   O67 3068   6.270   9.557   0.574
    8CHTO  H167 3069   6.327   9.538   0.502
    8CHTO  C102 3070   6.149   9.729   0.435
    8CHTO  H189 3071   6.071   9.651   0.426
    8CHTO   N18 3072   6.230   9.719   0.311
    8CHTO  H176 3073   6.331   9.688   0.333
    8CHTO  H177 3074   6.232   9.814   0.258
    8CHTO  C105 3075   6.075   9.865   0.449
    8CHTO  H192 3076   6.147   9.946   0.441
    8CHTO   O65 3077   6.003   9.879   0.573
    8CHTO  C100 3078   6.084   9.865   0.691
    8CHTO  H187 3079   6.166   9.937   0.685
    8CHTO  C107 3080   6.000   9.901   0.816
    8CHTO   O70 3081   5.888   9.813   0.832
    8CHTO  H170 3082   5.841   9.836   0.910
    8CHTO   O57 3083   5.967   9.869   0.324
    8CHTO   C85 3084   5.936   9.992   0.256
    8CHTO  H157 3085   6.034   0.039   0.232
    8CHTO   C83 3086   5.865   0.092   0.354
    8CHTO  H155 3087   5.938   0.124   0.428
    8CHTO   O56 3088   5.762   0.022   0.427
    8CHTO  H135 3089   5.693   9.994   0.369
    8CHTO   C81 3090   5.814   0.216   0.276
    8CHTO  H153 3091   5.899   0.262   0.226
    8CHTO   N14 3092   5.761   0.324   0.364
    8CHTO  H141 3093   5.835   0.352   0.436
    8CHTO  H142 3094   5.736   0.410   0.305
    8CHTO   C79 3095   5.711   0.171   0.165
    8CHTO  H151 3096   5.679   0.260   0.112
    8CHTO   O52 3097   5.782   0.087   0.068
    8CHTO   C86 3098   5.849   9.969   0.125
    8CHTO  H158 3099   5.766   9.898   0.145
    8CHTO   C90 3100   5.937   9.903   0.016
    8CHTO   O60 3101   5.858   9.858   2.753
    8CHTO  H138 3102   5.805   9.785   2.779
    8CHTO   O50 3103   5.595   0.103   0.215
    8CHTO   C73 3104   5.462   0.048   0.203
    8CHTO  H145 3105   5.450   0.001   0.104
    8CHTO   C74 3106   5.354   0.159   0.218
    8CHTO  H146 3107   5.373   0.235   0.141
    8CHTO   O54 3108   5.226   0.100   0.188
    8CHTO  H133 3109   5.158   0.165   0.194
    8CHTO   C75 3110   5.363   0.220   0.364
    8CHTO  H147 3111   5.460   0.272   0.373
    8CHTO   N13 3112   5.261   0.323   0.392
    8CHTO  H139 3113   5.271   0.405   0.322
    8CHTO  H140 3114   5.162   0.281   0.381
    8CHTO   C76 3115   5.362   0.104   0.475
    8CHTO  H148 3116   5.262   0.062   0.479
    8CHTO   O49 3117   5.458   9.998   0.443
    8CHTO   C77 3118   5.439   9.940   0.313
    8CHTO  H149 3119   5.338   9.901   0.304
    8CHTO   C88 3120   5.533   9.820   0.297
    8CHTO   O58 3121   5.504   9.747   0.173
    8CHTO  H136 3122   5.421   9.704   0.180
    8CHTO   O51 3123   5.411   0.165   0.617
    8CHTO   C78 3124   5.406   0.061   0.736
    8CHTO  H150 3125   5.412   9.956   0.699
    8CHTO   C80 3126   5.275   0.078   0.817
    8CHTO  H152 3127   5.269   0.183   0.853
    8CHTO   O55 3128   5.166   0.055   0.726
    8CHTO  H134 3129   5.084   0.072   0.769
    8CHTO   C84 3130   5.272   9.979   0.941
    8CHTO  H156 3131   5.275   9.877   0.903
    8CHTO   N15 3132   5.147   9.992   1.024
    8CHTO  H143 3133   5.169   0.020   1.124
    8CHTO  H144 3134   5.080   0.064   0.981
    8CHTO   C87 3135   5.401   0.003   1.024
    8CHTO  H159 3136   5.400   0.105   1.063
    8CHTO   O53 3137   5.524   9.985   0.933
    8CHTO   C82 3138   5.527   0.084   0.829
    8CHTO  H154 3139   5.526   0.184   0.872
    8CHTO   C89 3140   5.661   0.068   0.754
    8CHTO   O59 3141   5.691   0.182   0.673
    8CHTO  H137 3142   5.631   0.187   0.602
    8CHTO   O45 3143   5.414   9.905   1.153
    8CHTO   C67 3144   5.455   9.769   1.132
    8CHTO  H124 3145   5.411   9.731   1.040
    8CHTO   C65 3146   5.612   9.757   1.123
    8CHTO  H122 3147   5.652   9.857   1.137
    8CHTO   O44 3148   5.644   9.711   0.990
    8CHTO  H102 3149   5.737   9.715   0.977
    8CHTO   C63 3150   5.672   9.672   1.242
    8CHTO  H120 3151   5.649   9.722   1.336
    8CHTO   N11 3152   5.822   9.663   1.248
    8CHTO  H108 3153   5.852   9.614   1.337
    8CHTO  H109 3154   5.864   9.762   1.245
    8CHTO   C61 3155   5.598   9.532   1.245
    8CHTO  H118 3156   5.626   9.484   1.340
    8CHTO   O40 3157   5.452   9.544   1.246
    8CHTO   C68 3158   5.396   9.679   1.248
    8CHTO  H125 3159   5.421   9.725   1.346
    8CHTO   C72 3160   5.241   9.669   1.241
    8CHTO   O48 3161   5.194   9.606   1.122
    8CHTO  H105 3162   5.100   9.599   1.125
    8CHTO   O38 3163   5.634   9.449   1.133
    8CHTO   C55 3164   5.594   9.311   1.145
    8CHTO  H112 3165   5.511   9.301   1.217
    8CHTO   C56 3166   5.717   9.220   1.185
    8CHTO  H113 3167   5.794   9.234   1.108
    8CHTO   O42 3168   5.774   9.265   1.309
    8CHTO  H100 3169   5.712   9.257   1.378
    8CHTO   C57 3170   5.672   9.068   1.192
    8CHTO  H114 3171   5.605   9.060   1.279
    8CHTO   N10 3172   5.783   8.973   1.214
    8CHTO  H106 3173   5.874   9.010   1.169
    8CHTO  H107 3174   5.800   8.958   1.320
    8CHTO   C58 3175   5.592   9.028   1.065
    8CHTO  H115 3176   5.663   9.016   0.979
    8CHTO   O37 3177   5.491   9.124   1.028
    8CHTO   C59 3178   5.537   9.259   1.010
    8CHTO  H116 3179   5.614   9.261   0.932
    8CHTO   C70 3180   5.419   9.343   0.959
    8CHTO   O46 3181   5.304   9.339   1.044
    8CHTO  H103 3182   5.267   9.253   1.044
    8CHTO   O39 3183   5.514   8.882   1.093
    8CHTO   C60 3184   5.379   8.890   1.143
    8CHTO  H117 3185   5.362   8.986   1.191
    8CHTO   C62 3186   5.277   8.875   1.026
    8CHTO  H119 3187   5.291   8.965   0.961
    8CHTO   O43 3188   5.308   8.758   0.948
    8CHTO  H101 3189   5.390   8.769   0.904
    8CHTO   C66 3190   5.126   8.875   1.083
    8CHTO  H123 3191   5.109   8.969   1.136
    8CHTO   N12 3192   5.025   8.872   0.974
    8CHTO  H110 3193   4.925   8.875   1.016
    8CHTO  H111 3194   5.039   8.783   0.914
    8CHTO   C69 3195   5.108   8.760   1.185
    8CHTO  H126 3196   5.124   8.662   1.134
    8CHTO   O41 3197   5.212   8.776   1.299
    8CHTO   C64 3198   5.358   8.781   1.251
    8CHTO  H121 3199   5.387   8.683   1.208
    8CHTO   C71 3200   5.447   8.808   1.375
    8CHTO   O47 3201   5.437   8.702   1.471
    8CHTO  H104 3202   5.476   8.624   1.438
    8CHTO   O34 3203   4.961   8.759   1.248
    8CHTO   C49 3204   4.890   8.824   1.371
    8CHTO   H91 3205   4.905   8.755   1.454
    8CHTO   C47 3206   4.740   8.837   1.340
    8CHTO   H89 3207   4.691   8.872   1.433
    8CHTO   O33 3208   4.688   8.706   1.307
    8CHTO   H70 3209   4.596   8.711   1.294
    8CHTO   C45 3210   4.720   8.946   1.222
    8CHTO   H87 3211   4.784   8.915   1.138
    8CHTO    N8 3212   4.580   8.955   1.174
    8CHTO   H75 3213   4.514   8.894   1.235
    8CHTO   H76 3214   4.574   8.923   1.071
    8CHTO   C43 3215   4.780   9.088   1.270
    8CHTO   H85 3216   4.776   9.153   1.183
    8CHTO   O29 3217   4.916   9.073   1.318
    8CHTO   C50 3218   4.949   8.963   1.406
    8CHTO   H92 3219   5.058   8.953   1.402
    8CHTO   C54 3220   4.923   8.997   1.556
    8CHTO   O36 3221   5.019   9.091   1.606
    8CHTO   H72 3222   5.005   9.175   1.566
    8CHTO   O27 3223   4.699   9.153   1.371
    8CHTO   C37 3224   4.667   9.289   1.408
    8CHTO   H79 3225   4.618   9.289   1.506
    8CHTO   C38 3226   4.795   9.377   1.422
    8CHTO   H80 3227   4.856   9.365   1.331
    8CHTO   O31 3228   4.869   9.327   1.534
    8CHTO   H68 3229   4.953   9.369   1.539
    8CHTO   C39 3230   4.762   9.531   1.442
    8CHTO   H81 3231   4.718   9.542   1.541
    8CHTO    N7 3232   4.884   9.617   1.439
    8CHTO   H73 3233   4.857   9.721   1.455
    8CHTO   H74 3234   4.953   9.586   1.516
    8CHTO   C40 3235   4.654   9.579   1.337
    8CHTO   H82 3236   4.697   9.583   1.237
    8CHTO   O26 3237   4.541   9.491   1.344
    8CHTO   C41 3238   4.570   9.353   1.304
    8CHTO   H83 3239   4.617   9.352   1.204
    8CHTO   C52 3240   4.436   9.278   1.294
    8CHTO   O35 3241   4.347   9.334   1.192
    8CHTO   H71 3242   4.267   9.286   1.190
    8CHTO   O28 3243   4.600   9.710   1.370
    8CHTO   C42 3244   4.527   9.792   1.272
    8CHTO   H84 3245   4.480   9.868   1.334
    8CHTO   C44 3246   4.410   9.721   1.196
    8CHTO   H86 3247   4.449   9.632   1.146
    8CHTO   O32 3248   4.316   9.677   1.296
    8CHTO   H69 3249   4.276   9.750   1.339
    8CHTO   C48 3250   4.341   9.812   1.085
    8CHTO   H90 3251   4.291   9.894   1.136
    8CHTO    N9 3252   4.233   9.739   1.009
    8CHTO   H77 3253   4.138   9.788   1.023
    8CHTO   H78 3254   4.227   9.635   1.039
    8CHTO   C51 3255   4.452   9.870   0.990
    8CHTO   H93 3256   4.503   9.787   0.942
    8CHTO   O30 3257   4.540   9.949   1.071
    8CHTO   C46 3258   4.622   9.867   1.172
    8CHTO   H88 3259   4.684   9.795   1.118
    8CHTO   C53 3260   4.711   9.972   1.244
    8CHTO   O72 3261   4.808   9.913   1.331
    8CHTO  H199 3262   4.765   9.874   1.404
    8CHTO   O22 3263   4.399   9.962   0.891
    8CHTO   C31 3264   4.466   9.992   0.763
    8CHTO   H59 3265   4.404   0.070   0.714
    8CHTO   C29 3266   4.608   0.051   0.776
    8CHTO   H57 3267   4.671   9.978   0.830
    8CHTO   O21 3268   4.599   0.168   0.860
    8CHTO   H37 3269   4.685   0.200   0.881
    8CHTO   C27 3270   4.674   0.082   0.635
    8CHTO   H55 3271   4.615   0.159   0.585
    8CHTO    N5 3272   4.814   0.130   0.646
    8CHTO   H43 3273   4.853   0.154   0.548
    8CHTO   H44 3274   4.818   0.217   0.710
    8CHTO   C25 3275   4.665   9.953   0.546
    8CHTO   H53 3276   4.725   9.872   0.591
    8CHTO   O17 3277   4.527   9.908   0.537
    8CHTO   C32 3278   4.468   9.871   0.663
    8CHTO   H60 3279   4.525   9.789   0.708
    8CHTO   C36 3280   4.324   9.821   0.635
    8CHTO   O25 3281   4.322   9.707   0.549
    8CHTO   H40 3282   4.357   9.632   0.595
    8CHTO   O15 3283   4.720   9.980   0.393
    8CHTO   C19 3284   4.757   9.941   0.258
    8CHTO   H47 3285   4.673   9.877   0.225
    8CHTO   C20 3286   4.770   0.061   0.158
    8CHTO   H48 3287   4.845   0.134   0.192
    8CHTO   O19 3288   4.643   0.128   0.156
    8CHTO   H35 3289   4.576   0.072   0.122
    8CHTO   C21 3290   4.812   0.013   0.013
    8CHTO   H49 3291   4.731   9.953   2.819
    8CHTO    N4 3292   4.834   0.126   2.766
    8CHTO   H41 3293   4.743   0.183   2.755
    8CHTO   H42 3294   4.912   0.191   2.804
    8CHTO   C22 3295   4.936   9.920   0.023
    8CHTO   H50 3296   5.021   9.979   0.060
    8CHTO   O14 3297   4.909   9.812   0.114
    8CHTO   C23 3298   4.885   9.853   0.250
    8CHTO   H51 3299   4.974   9.907   0.285
    8CHTO   C34 3300   4.871   9.726   0.334
    8CHTO   O23 3301   4.990   9.647   0.333
    8CHTO   H38 3302   5.058   9.691   0.381
    8CHTO   O16 3303   4.970   9.858   2.746
    8CHTO   C24 3304   5.112   9.777   2.745
    8CHTO   H52 3305   5.145   9.751   2.846
    8CHTO   C26 3306   5.221   9.862   2.677
    8CHTO   H54 3307   5.182   9.897   2.579
    8CHTO   O20 3308   5.243   9.978   2.760
    8CHTO   H36 3309   5.304   0.036   2.719
    8CHTO   C30 3310   5.351   9.780   2.652
    8CHTO   H58 3311   5.396   9.751   2.749
    8CHTO    N6 3312   5.454   9.862   2.581
    8CHTO   H45 3313   5.482   9.816   2.487
    8CHTO   H46 3314   5.542   9.873   2.642
    8CHTO   C33 3315   5.316   9.647   2.578
    8CHTO   H61 3316   5.273   9.671   2.480
    8CHTO   O18 3317   5.218   9.575   2.655
    8CHTO   C28 3318   5.092   9.643   2.668
    8CHTO   H56 3319   5.051   9.665   2.570
    8CHTO   C35 3320   4.992   9.550   2.742
    8CHTO   O24 3321   5.034   9.513   0.026
    8CHTO   H39 3322   5.109   9.458   0.021
    8CHTO    O9 3323   5.432   9.565   2.552
    8CHTO   C13 3324   5.409   9.450   2.434
    8CHTO   H26 3325   5.322   9.480   2.373
    8CHTO   C11 3326   5.387   9.307   2.501
    8CHTO   H24 3327   5.282   9.301   2.532
    8CHTO    O8 3328   5.470   9.294   2.618
    8CHTO    H3 3329   5.450   9.213   2.663
    8CHTO    C9 3330   5.417   9.198   2.394
    8CHTO   H22 3331   5.357   9.227   2.306
    8CHTO    N2 3332   5.366   9.063   2.429
    8CHTO   H10 3333   5.380   8.996   2.346
    8CHTO   H11 3334   5.419   9.026   2.516
    8CHTO    C7 3335   5.570   9.205   2.355
    8CHTO   H20 3336   5.571   9.173   2.248
    8CHTO    O4 3337   5.625   9.339   2.365
    8CHTO   C14 3338   5.532   9.445   2.332
    8CHTO   H27 3339   5.491   9.423   2.231
    8CHTO   C18 3340   5.606   9.580   2.323
    8CHTO   O13 3341   5.692   9.584   2.209
    8CHTO    H7 3342   5.766   9.528   2.223
    8CHTO    O2 3343   5.666   9.100   2.447
    8CHTO    C1 3344   5.806   9.089   2.415
    8CHTO   H14 3345   5.851   9.191   2.413
    8CHTO    C2 3346   5.839   9.018   2.276
    8CHTO   H15 3347   5.779   8.926   2.274
    8CHTO    O6 3348   5.797   9.105   2.169
    8CHTO    H1 3349   5.809   9.062   2.086
    8CHTO    C3 3350   5.996   8.982   2.263
    8CHTO   H16 3351   6.052   9.076   2.255
    8CHTO    N1 3352   6.025   8.902   2.139
    8CHTO    H8 3353   6.066   8.805   2.164
    8CHTO    H9 3354   6.094   8.955   2.075
    8CHTO    C4 3355   6.046   8.913   2.395
    8CHTO   H17 3356   5.996   8.816   2.405
    8CHTO    O1 3357   6.017   8.998   2.507
    8CHTO    C5 3358   5.876   9.013   2.532
    8CHTO   H18 3359   5.829   8.914   2.540
    8CHTO   C16 3360   5.858   9.088   2.666
    8CHTO   O11 3361   5.924   9.021   2.774
    8CHTO    H5 3362   6.017   9.025   2.763
    8CHTO    O3 3363   6.189   8.894   2.395
    8CHTO    C6 3364   6.242   8.805   2.500
    8CHTO   H19 3365   6.172   8.792   2.583
    8CHTO    C8 3366   6.275   8.664   2.442
    8CHTO   H21 3367   6.339   8.677   2.354
    8CHTO    O7 3368   6.150   8.604   2.402
    8CHTO    H2 3369   6.166   8.521   2.362
    8CHTO   C12 3370   6.352   8.576   2.549
    8CHTO   H25 3371   6.279   8.557   2.631
    8CHTO    N3 3372   6.390   8.441   2.495
    8CHTO   H12 3373   6.358   8.429   2.392
    8CHTO   H13 3374   6.497   8.425   2.502
    8CHTO   C15 3375   6.473   8.657   2.608
    8CHTO   H28 3376   6.551   8.672   2.534
    8CHTO   O10 3377   6.533   8.593   2.733
    8CHTO    H4 3378   6.573   8.511   2.710
    8CHTO    O5 3379   6.429   8.785   2.659
    8CHTO   C10 3380   6.370   8.870   2.560
    8CHTO   H23 3381   6.443   8.887   2.480
    8CHTO   C17 3382   6.338   9.005   2.624
    8CHTO   O12 3383   6.456   9.078   2.658
    8CHTO    H6 3384   6.501   9.034   2.728
    9CHTO  H203 3385   8.203   4.021   0.656
    9CHTO   O82 3386   8.260   3.947   0.653
    9CHTO  C123 3387   8.368   3.972   0.562
    9CHTO  H227 3388   8.425   4.059   0.597
    9CHTO   O77 3389   8.449   3.851   0.574
    9CHTO  C118 3390   8.572   3.857   0.499
    9CHTO  H222 3391   8.630   3.946   0.529
    9CHTO  C125 3392   8.656   3.728   0.533
    9CHTO   O84 3393   8.692   3.726   0.672
    9CHTO  H205 3394   8.742   3.648   0.690
    9CHTO  C114 3395   8.541   3.865   0.349
    9CHTO  H218 3396   8.488   3.774   0.320
    9CHTO  C116 3397   8.447   3.985   0.316
    9CHTO  H220 3398   8.505   4.079   0.325
    9CHTO   O79 3399   8.408   3.975   0.178
    9CHTO  H201 3400   8.359   4.051   0.152
    9CHTO  C120 3401   8.321   3.989   0.412
    9CHTO  H224 3402   8.256   3.904   0.383
    9CHTO   N21 3403   8.241   4.113   0.393
    9CHTO  H211 3404   8.304   4.196   0.365
    9CHTO  H212 3405   8.184   4.137   0.482
    9CHTO   O75 3406   8.669   3.871   0.283
    9CHTO  C112 3407   8.673   3.787   0.142
    9CHTO  H216 3408   8.578   3.801   0.089
    9CHTO   O73 3409   8.696   3.649   0.175
    9CHTO  C113 3410   8.693   3.561   0.062
    9CHTO  H217 3411   8.595   3.571   0.011
    9CHTO  C124 3412   8.706   3.416   0.111
    9CHTO   O83 3413   8.596   3.374   0.191
    9CHTO  H204 3414   8.519   3.367   0.138
    9CHTO  C109 3415   8.806   3.597   2.810
    9CHTO  H213 3416   8.901   3.573   0.011
    9CHTO  C110 3417   8.800   3.748   2.772
    9CHTO  H214 3418   8.713   3.765   2.708
    9CHTO   O78 3419   8.917   3.779   2.693
    9CHTO  H200 3420   8.913   3.735   2.610
    9CHTO  C111 3421   8.791   3.838   0.050
    9CHTO  H215 3422   8.885   3.828   0.107
    9CHTO   N19 3423   8.775   3.983   0.019
    9CHTO  H207 3424   8.683   3.999   2.812
    9CHTO  H208 3425   8.774   4.041   0.110
    9CHTO   O74 3426   8.792   3.515   2.690
    9CHTO  C115 3427   8.918   3.432   2.647
    9CHTO  H219 3428   9.007   3.461   2.704
    9CHTO   O76 3429   8.898   3.275   2.674
    9CHTO  C122 3430   8.788   3.221   2.599
    9CHTO  H226 3431   8.696   3.269   2.633
    9CHTO  C126 3432   8.772   3.069   2.634
    9CHTO   O85 3433   8.738   3.048   2.771
    9CHTO  H206 3434   8.733   2.957   2.789
    9CHTO  C121 3435   8.807   3.244   2.444
    9CHTO  H225 3436   8.898   3.190   2.410
    9CHTO   O81 3437   8.696   3.191   2.369
    9CHTO  H202 3438   8.691   3.098   2.379
    9CHTO  C119 3439   8.824   3.397   2.415
    9CHTO  H223 3440   8.846   3.406   2.308
    9CHTO  C117 3441   8.944   3.462   2.495
    9CHTO  H221 3442   8.949   3.571   2.490
    9CHTO   N20 3443   9.079   3.415   2.451
    9CHTO  H209 3444   9.088   3.308   2.466
    9CHTO  H210 3445   9.156   3.466   2.505
    9CHTO   O80 3446   8.690   3.480   2.428
    9CHTO  C103 3447   8.658   3.600   2.325
    9CHTO  H190 3448   8.585   3.668   2.369
    9CHTO  C101 3449   8.781   3.685   2.276
    9CHTO  H188 3450   8.863   3.618   2.249
    9CHTO   O68 3451   8.830   3.774   2.395
    9CHTO  H168 3452   8.764   3.837   2.417
    9CHTO   C99 3453   8.746   3.774   2.148
    9CHTO  H186 3454   8.678   3.855   2.179
    9CHTO   N17 3455   8.866   3.842   2.087
    9CHTO  H174 3456   8.834   3.908   2.007
    9CHTO  H175 3457   8.920   3.896   2.163
    9CHTO   C97 3458   8.667   3.691   2.043
    9CHTO  H184 3459   8.736   3.619   1.995
    9CHTO   O64 3460   8.554   3.626   2.103
    9CHTO  C104 3461   8.589   3.529   2.203
    9CHTO  H191 3462   8.656   3.453   2.163
    9CHTO  C108 3463   8.462   3.456   2.248
    9CHTO   O71 3464   8.408   3.377   2.141
    9CHTO  H171 3465   8.372   3.433   2.075
    9CHTO   O62 3466   8.609   3.778   1.943
    9CHTO   C91 3467   8.580   3.723   1.814
    9CHTO  H178 3468   8.639   3.633   1.799
    9CHTO   C92 3469   8.631   3.826   1.707
    9CHTO  H179 3470   8.738   3.845   1.723
    9CHTO   O66 3471   8.622   3.766   1.577
    9CHTO  H166 3472   8.683   3.695   1.570
    9CHTO   C93 3473   8.546   3.960   1.707
    9CHTO  H180 3474   8.549   4.000   1.605
    9CHTO   N16 3475   8.604   4.067   1.792
    9CHTO  H172 3476   8.697   4.035   1.837
    9CHTO  H173 3477   8.535   4.100   1.867
    9CHTO   C94 3478   8.395   3.930   1.746
    9CHTO  H181 3479   8.378   3.940   1.853
    9CHTO   O61 3480   8.359   3.795   1.711
    9CHTO   C95 3481   8.425   3.694   1.790
    9CHTO  H182 3482   8.376   3.689   1.887
    9CHTO  C106 3483   8.399   3.555   1.721
    9CHTO   O69 3484   8.450   3.447   1.800
    9CHTO  H169 3485   8.544   3.447   1.797
    9CHTO   O63 3486   8.302   4.029   1.667
    9CHTO   C96 3487   8.160   4.047   1.732
    9CHTO  H183 3488   8.161   4.004   1.832
    9CHTO   C98 3489   8.046   3.978   1.651
    9CHTO  H185 3490   8.054   4.007   1.546
    9CHTO   O67 3491   8.068   3.836   1.654
    9CHTO  H167 3492   8.146   3.815   1.606
    9CHTO  C102 3493   7.899   4.014   1.707
    9CHTO  H189 3494   7.889   3.963   1.804
    9CHTO   N18 3495   7.787   3.963   1.623
    9CHTO  H176 3496   7.792   4.005   1.524
    9CHTO  H177 3497   7.692   3.988   1.668
    9CHTO  C105 3498   7.889   4.167   1.731
    9CHTO  H192 3499   7.889   4.219   1.634
    9CHTO   O65 3500   7.999   4.216   1.809
    9CHTO  C100 3501   8.127   4.200   1.746
    9CHTO  H187 3502   8.124   4.245   1.646
    9CHTO  C107 3503   8.229   4.278   1.832
    9CHTO   O70 3504   8.352   4.299   1.762
    9CHTO  H170 3505   8.412   4.346   1.817
    9CHTO   O57 3506   7.747   4.199   1.811
    9CHTO   C85 3507   7.689   4.330   1.795
    9CHTO  H157 3508   7.692   4.350   1.685
    9CHTO   C83 3509   7.779   4.439   1.860
    9CHTO  H155 3510   7.876   4.436   1.811
    9CHTO   O56 3511   7.803   4.406   1.999
    9CHTO  H135 3512   7.723   4.410   2.048
    9CHTO   C81 3513   7.715   4.578   1.836
    9CHTO  H153 3514   7.698   4.590   1.729
    9CHTO   N14 3515   7.807   4.690   1.871
    9CHTO  H141 3516   7.899   4.679   1.818
    9CHTO  H142 3517   7.762   4.783   1.845
    9CHTO   C79 3518   7.575   4.586   1.907
    9CHTO  H151 3519   7.529   4.681   1.877
    9CHTO   O52 3520   7.487   4.480   1.857
    9CHTO   C86 3521   7.542   4.343   1.852
    9CHTO  H158 3522   7.537   4.308   1.958
    9CHTO   C90 3523   7.447   4.252   1.771
    9CHTO   O60 3524   7.318   4.240   1.832
    9CHTO  H138 3525   7.324   4.191   1.911
    9CHTO   O50 3526   7.581   4.585   2.051
    9CHTO   C73 3527   7.511   4.643   2.163
    9CHTO  H145 3528   7.403   4.623   2.154
    9CHTO   C74 3529   7.531   4.798   2.172
    9CHTO  H146 3530   7.497   4.841   2.077
    9CHTO   O54 3531   7.443   4.849   2.274
    9CHTO  H133 3532   7.353   4.839   2.247
    9CHTO   C75 3533   7.684   4.831   2.200
    9CHTO  H147 3534   7.742   4.801   2.112
    9CHTO   N13 3535   7.714   4.975   2.217
    9CHTO  H139 3536   7.820   4.989   2.233
    9CHTO  H140 3537   7.686   5.029   2.127
    9CHTO   C76 3538   7.739   4.743   2.323
    9CHTO  H148 3539   7.696   4.782   2.416
    9CHTO   O49 3540   7.704   4.602   2.308
    9CHTO   C77 3541   7.563   4.579   2.295
    9CHTO  H149 3542   7.510   4.623   2.379
    9CHTO   C88 3543   7.536   4.429   2.301
    9CHTO   O58 3544   7.392   4.403   2.317
    9CHTO  H136 3545   7.365   4.427   2.404
    9CHTO   O51 3546   7.900   4.747   2.323
    9CHTO   C78 3547   7.969   4.652   2.429
    9CHTO  H150 3548   7.901   4.569   2.459
    9CHTO   C80 3549   8.008   4.732   2.555
    9CHTO  H152 3550   8.061   4.823   2.523
    9CHTO   O55 3551   7.886   4.772   2.619
    9CHTO  H134 3552   7.905   4.828   2.693
    9CHTO   C84 3553   8.101   4.648   2.653
    9CHTO  H156 3554   8.041   4.567   2.694
    9CHTO   N15 3555   8.150   4.731   2.769
    9CHTO  H143 3556   8.120   4.686   0.013
    9CHTO  H144 3557   8.257   4.741   2.767
    9CHTO   C87 3558   8.217   4.583   2.573
    9CHTO  H159 3559   8.283   4.661   2.534
    9CHTO   O53 3560   8.156   4.501   2.458
    9CHTO   C82 3561   8.092   4.588   2.363
    9CHTO  H154 3562   8.161   4.665   2.329
    9CHTO   C89 3563   8.050   4.506   2.238
    9CHTO   O59 3564   8.164   4.455   2.170
    9CHTO  H137 3565   8.137   4.410   2.092
    9CHTO   O45 3566   8.308   4.485   2.672
    9CHTO   C67 3567   8.386   4.376   2.618
    9CHTO  H124 3568   8.319   4.291   2.601
    9CHTO   C65 3569   8.462   4.409   2.484
    9CHTO  H122 3570   8.466   4.518   2.480
    9CHTO   O44 3571   8.382   4.361   2.375
    9CHTO  H102 3572   8.300   4.406   2.372
    9CHTO   C63 3573   8.615   4.365   2.485
    9CHTO  H120 3574   8.669   4.433   2.551
    9CHTO   N11 3575   8.691   4.388   2.358
    9CHTO  H108 3576   8.624   4.405   2.276
    9CHTO  H109 3577   8.753   4.304   2.335
    9CHTO   C61 3578   8.634   4.222   2.552
    9CHTO  H118 3579   8.742   4.217   2.574
    9CHTO   O40 3580   8.566   4.213   2.680
    9CHTO   C68 3581   8.488   4.327   2.728
    9CHTO  H125 3582   8.558   4.410   2.752
    9CHTO   C72 3583   8.418   4.288   0.011
    9CHTO   O48 3584   8.511   4.260   0.116
    9CHTO  H105 3585   8.465   4.238   0.194
    9CHTO   O38 3586   8.603   4.108   2.468
    9CHTO   C55 3587   8.471   4.050   2.458
    9CHTO  H112 3588   8.395   4.128   2.474
    9CHTO   C56 3589   8.451   3.926   2.557
    9CHTO  H113 3590   8.529   3.852   2.533
    9CHTO   O42 3591   8.472   3.964   2.694
    9CHTO  H100 3592   8.467   3.889   2.750
    9CHTO   C57 3593   8.307   3.863   2.537
    9CHTO  H114 3594   8.236   3.938   2.572
    9CHTO   N10 3595   8.284   3.740   2.618
    9CHTO  H106 3596   8.179   3.730   2.642
    9CHTO  H107 3597   8.317   3.652   2.565
    9CHTO   C58 3598   8.281   3.836   2.387
    9CHTO  H115 3599   8.345   3.751   2.352
    9CHTO   O37 3600   8.308   3.953   2.308
    9CHTO   C59 3601   8.445   3.994   2.314
    9CHTO  H116 3602   8.510   3.909   2.293
    9CHTO   C70 3603   8.464   4.097   2.202
    9CHTO   O46 3604   8.602   4.120   2.173
    9CHTO  H103 3605   8.610   4.183   2.103
    9CHTO   O39 3606   8.127   3.805   2.359
    9CHTO   C60 3607   8.095   3.671   2.318
    9CHTO  H117 3608   8.182   3.606   2.330
    9CHTO   C62 3609   7.979   3.616   2.405
    9CHTO  H119 3610   8.014   3.622   2.510
    9CHTO   O43 3611   7.862   3.700   2.391
    9CHTO  H101 3612   7.879   3.785   2.426
    9CHTO   C66 3613   7.953   3.463   2.366
    9CHTO  H123 3614   8.048   3.409   2.373
    9CHTO   N12 3615   7.860   3.395   2.459
    9CHTO  H110 3616   7.826   3.462   2.537
    9CHTO  H111 3617   7.906   3.307   2.501
    9CHTO   C69 3618   7.907   3.455   2.218
    9CHTO  H126 3619   7.809   3.506   2.206
    9CHTO   O41 3620   8.017   3.527   2.123
    9CHTO   C64 3621   8.056   3.668   2.168
    9CHTO  H121 3622   7.971   3.737   2.152
    9CHTO   C71 3623   8.174   3.718   2.081
    9CHTO   O47 3624   8.131   3.754   1.950
    9CHTO  H104 3625   8.204   3.781   1.899
    9CHTO   O34 3626   7.890   3.303   2.172
    9CHTO   C49 3627   7.965   3.212   2.076
    9CHTO   H91 3628   7.944   3.247   1.976
    9CHTO   C47 3629   7.913   3.067   2.094
    9CHTO   H89 3630   7.962   3.011   2.010
    9CHTO   O33 3631   7.771   3.061   2.075
    9CHTO   H70 3632   7.727   3.110   2.142
    9CHTO   C45 3633   7.954   3.006   2.238
    9CHTO   H87 3634   7.869   3.020   2.307
    9CHTO    N8 3635   7.978   2.860   2.223
    9CHTO   H75 3636   7.999   2.816   2.319
    9CHTO   H76 3637   7.890   2.812   2.181
    9CHTO   C43 3638   8.075   3.090   2.304
    9CHTO   H85 3639   8.027   3.178   2.347
    9CHTO   O29 3640   8.171   3.124   2.203
    9CHTO   C50 3641   8.121   3.211   2.100
    9CHTO   H92 3642   8.152   3.313   2.125
    9CHTO   C54 3643   8.199   3.179   1.970
    9CHTO   O36 3644   8.177   3.278   1.869
    9CHTO   H72 3645   8.218   3.359   1.894
    9CHTO   O27 3646   8.135   3.025   2.418
    9CHTO   C37 3647   8.193   3.066   2.543
    9CHTO   H79 3648   8.251   2.982   2.586
    9CHTO   C38 3649   8.292   3.185   2.524
    9CHTO   H80 3650   8.240   3.265   2.468
    9CHTO   O31 3651   8.403   3.138   2.446
    9CHTO   H68 3652   8.375   3.120   2.358
    9CHTO   C39 3653   8.341   3.244   2.663
    9CHTO   H81 3654   8.404   3.168   2.710
    9CHTO    N7 3655   8.424   3.369   2.648
    9CHTO   H73 3656   8.511   3.348   2.587
    9CHTO   H74 3657   8.455   3.404   2.745
    9CHTO   C40 3658   8.218   3.268   2.758
    9CHTO   H82 3659   8.158   3.350   2.719
    9CHTO   O26 3660   8.142   3.147   2.769
    9CHTO   C41 3661   8.081   3.105   2.644
    9CHTO   H83 3662   8.020   3.187   2.603
    9CHTO   C52 3663   7.986   2.988   2.679
    9CHTO   O35 3664   7.897   2.951   2.569
    9CHTO   H71 3665   7.843   2.879   2.596
    9CHTO   O28 3666   8.256   3.298   0.046
    9CHTO   C42 3667   8.170   3.384   0.128
    9CHTO   H84 3668   8.211   3.370   0.228
    9CHTO   C44 3669   8.019   3.340   0.138
    9CHTO   H86 3670   7.983   3.319   0.037
    9CHTO   O32 3671   8.015   3.216   0.210
    9CHTO   H69 3672   8.042   3.229   0.299
    9CHTO   C48 3673   7.925   3.452   0.199
    9CHTO   H90 3674   7.952   3.467   0.304
    9CHTO    N9 3675   7.781   3.411   0.198
    9CHTO   H77 3676   7.768   3.321   0.257
    9CHTO   H78 3677   7.720   3.490   0.239
    9CHTO   C51 3678   7.954   3.583   0.119
    9CHTO   H93 3679   7.948   3.558   0.013
    9CHTO   O30 3680   8.086   3.625   0.156
    9CHTO   C46 3681   8.189   3.535   0.091
    9CHTO   H88 3682   8.181   3.547   2.831
    9CHTO   C53 3683   8.327   3.587   0.137
    9CHTO   O72 3684   8.344   3.580   0.279
    9CHTO  H199 3685   8.350   3.490   0.306
    9CHTO   O22 3686   7.865   3.694   0.148
    9CHTO   C31 3687   7.860   3.816   0.064
    9CHTO   H59 3688   7.762   3.863   0.086
    9CHTO   C29 3689   7.968   3.920   0.101
    9CHTO   H57 3690   8.067   3.876   0.083
    9CHTO   O21 3691   7.958   3.946   0.243
    9CHTO   H37 3692   7.981   3.869   0.292
    9CHTO   C27 3693   7.954   4.052   0.015
    9CHTO   H55 3694   7.856   4.098   0.037
    9CHTO    N5 3695   8.059   4.153   0.043
    9CHTO   H43 3696   8.055   4.182   0.147
    9CHTO   H44 3697   8.157   4.112   0.020
    9CHTO   C25 3698   7.954   4.014   2.711
    9CHTO   H53 3699   8.052   3.972   2.684
    9CHTO   O17 3700   7.852   3.914   2.685
    9CHTO   C32 3701   7.862   3.790   2.757
    9CHTO   H60 3702   7.955   3.740   2.730
    9CHTO   C36 3703   7.741   3.709   2.706
    9CHTO   O25 3704   7.734   3.573   2.752
    9CHTO   H40 3705   7.717   3.572   2.844
    9CHTO   O15 3706   7.922   4.144   2.618
    9CHTO   C19 3707   7.872   4.159   2.482
    9CHTO   H47 3708   7.858   4.267   2.471
    9CHTO   C20 3709   7.972   4.109   2.373
    9CHTO   H48 3710   8.000   4.004   2.389
    9CHTO   O19 3711   8.091   4.189   2.385
    9CHTO   H35 3712   8.136   4.169   2.465
    9CHTO   C21 3713   7.910   4.119   2.227
    9CHTO   H49 3714   7.892   4.224   2.204
    9CHTO    N4 3715   8.000   4.066   2.122
    9CHTO   H41 3716   8.020   3.961   2.139
    9CHTO   H42 3717   7.954   4.077   2.024
    9CHTO   C22 3718   7.771   4.049   2.229
    9CHTO   H50 3719   7.786   3.943   2.254
    9CHTO   O14 3720   7.688   4.113   2.327
    9CHTO   C23 3721   7.730   4.095   2.462
    9CHTO   H51 3722   7.731   3.987   2.482
    9CHTO   C34 3723   7.622   4.160   2.549
    9CHTO   O23 3724   7.644   4.136   2.689
    9CHTO   H38 3725   7.573   4.173   2.738
    9CHTO   O16 3726   7.697   4.061   2.106
    9CHTO   C24 3727   7.582   3.943   2.090
    9CHTO   H52 3728   7.579   3.876   2.176
    9CHTO   C26 3729   7.611   3.862   1.962
    9CHTO   H54 3730   7.627   3.933   1.878
    9CHTO   O20 3731   7.734   3.791   1.984
    9CHTO   H36 3732   7.760   3.745   1.906
    9CHTO   C30 3733   7.493   3.766   1.924
    9CHTO   H58 3734   7.485   3.685   1.997
    9CHTO    N6 3735   7.515   3.700   1.792
    9CHTO   H45 3736   7.527   3.774   1.714
    9CHTO   H46 3737   7.604   3.639   1.796
    9CHTO   C33 3738   7.358   3.843   1.928
    9CHTO   H61 3739   7.357   3.922   1.851
    9CHTO   O18 3740   7.346   3.905   2.057
    9CHTO   C28 3741   7.441   4.009   2.081
    9CHTO   H56 3742   7.442   4.081   1.999
    9CHTO   C35 3743   7.398   4.079   2.211
    9CHTO   O24 3744   7.274   4.149   2.196
    9CHTO   H39 3745   7.205   4.088   2.178
    9CHTO    O9 3746   7.243   3.760   1.899
    9CHTO   C13 3747   7.108   3.845   1.856
    9CHTO   H26 3748   7.134   3.900   1.763
    9CHTO   C11 3749   7.064   3.945   1.972
    9CHTO   H24 3750   7.142   4.022   1.982
    9CHTO    O8 3751   7.055   3.875   2.098
    9CHTO    H3 3752   7.139   3.843   2.123
    9CHTO    C9 3753   6.933   4.015   1.928
    9CHTO   H22 3754   6.956   4.062   1.831
    9CHTO    N2 3755   6.893   4.128   2.016
    9CHTO   H10 3756   6.866   4.091   2.114
    9CHTO   H11 3757   6.811   4.182   1.972
    9CHTO    C7 3758   6.822   3.908   1.906
    9CHTO   H20 3759   6.735   3.966   1.868
    9CHTO    O4 3760   6.862   3.812   1.805
    9CHTO   C14 3761   6.990   3.746   1.815
    9CHTO   H27 3762   7.012   3.709   1.713
    9CHTO   C18 3763   6.975   3.621   1.906
    9CHTO   O13 3764   7.085   3.530   1.891
    9CHTO    H7 3765   7.071   3.456   1.946
    9CHTO    O2 3766   6.783   3.827   2.044
    9CHTO    C1 3767   6.646   3.791   2.071
    9CHTO   H14 3768   6.647   3.695   2.127
    9CHTO    C2 3769   6.550   3.772   1.944
    9CHTO   H15 3770   6.554   3.866   1.887
    9CHTO    O6 3771   6.601   3.664   1.865
    9CHTO    H1 3772   6.683   3.688   1.826
    9CHTO    C3 3773   6.399   3.744   1.991
    9CHTO   H16 3774   6.395   3.646   2.039
    9CHTO    N1 3775   6.304   3.740   1.874
    9CHTO    H8 3776   6.204   3.718   1.909
    9CHTO    H9 3777   6.305   3.835   1.822
    9CHTO    C4 3778   6.356   3.849   2.100
    9CHTO   H17 3779   6.346   3.947   2.053
    9CHTO    O1 3780   6.452   3.854   2.206
    9CHTO    C5 3781   6.584   3.895   2.169
    9CHTO   H18 3782   6.582   3.993   2.121
    9CHTO   C16 3783   6.661   3.908   2.304
    9CHTO   O11 3784   6.791   3.966   2.289
    9CHTO    H5 3785   6.832   3.971   2.373
    9CHTO    O3 3786   6.235   3.810   2.169
    9CHTO    C6 3787   6.127   3.910   2.174
    9CHTO   H19 3788   6.138   3.988   2.099
    9CHTO    C8 3789   5.991   3.838   2.149
    9CHTO   H21 3790   5.983   3.754   2.219
    9CHTO    O7 3791   5.992   3.788   2.014
    9CHTO    H2 3792   6.054   3.718   2.006
    9CHTO   C12 3793   5.869   3.936   2.175
    9CHTO   H25 3794   5.874   4.014   2.096
    9CHTO    N3 3795   5.737   3.865   2.158
    9CHTO   H12 3796   5.656   3.934   2.176
    9CHTO   H13 3797   5.730   3.824   2.059
    9CHTO   C15 3798   5.885   4.004   2.315
    9CHTO   H28 3799   5.873   3.932   2.396
    9CHTO   O10 3800   5.786   4.122   2.336
    9CHTO    H4 3801   5.791   4.153   2.425
    9CHTO    O5 3802   6.012   4.069   2.325
    9CHTO   C10 3803   6.125   3.981   2.313
    9CHTO   H23 3804   6.118   3.906   2.392
    9CHTO   C17 3805   6.250   4.065   2.344
    9CHTO   O12 3806   6.271   4.170   2.249
    9CHTO    H6 3807   6.349   4.218   2.272
   10CHTO  H203 3808   5.469   6.328   2.195
   10CHTO   O82 3809   5.402   6.283   2.243
   10CHTO  C123 3810   5.273   6.340   2.214
   10CHTO  H227 3811   5.253   6.329   2.106
   10CHTO   O77 3812   5.182   6.254   2.289
   10CHTO  C118 3813   5.043   6.287   2.272
   10CHTO  H222 3814   5.018   6.286   2.164
   10CHTO  C125 3815   4.957   6.177   2.344
   10CHTO   O84 3816   4.972   6.048   2.282
   10CHTO  H205 3817   4.932   6.050   2.197
   10CHTO  C114 3818   5.016   6.427   2.330
   10CHTO  H218 3819   5.042   6.426   2.436
   10CHTO  C116 3820   5.107   6.533   2.259
   10CHTO  H220 3821   5.072   6.545   2.154
   10CHTO   O79 3822   5.085   6.660   2.324
   10CHTO  H201 3823   5.133   6.727   2.279
   10CHTO  C120 3824   5.259   6.489   2.262
   10CHTO  H224 3825   5.292   6.498   2.367
   10CHTO   N21 3826   5.343   6.582   2.182
   10CHTO  H211 3827   5.443   6.585   2.222
   10CHTO  H212 3828   5.345   6.552   2.078
   10CHTO   O75 3829   4.876   6.452   2.311
   10CHTO  C112 3830   4.796   6.493   2.450
   10CHTO  H216 3831   4.864   6.550   2.515
   10CHTO   O73 3832   4.753   6.371   2.511
   10CHTO  C113 3833   4.682   6.386   2.635
   10CHTO  H217 3834   4.747   6.439   2.708
   10CHTO  C124 3835   4.652   6.247   2.692
   10CHTO   O83 3836   4.770   6.173   2.726
   10CHTO  H204 3837   4.746   6.090   2.762
   10CHTO  C109 3838   4.552   6.468   2.615
   10CHTO  H213 3839   4.486   6.408   2.550
   10CHTO  C110 3840   4.585   6.604   2.545
   10CHTO  H214 3841   4.640   6.667   2.616
   10CHTO   O78 3842   4.461   6.673   2.517
   10CHTO  H200 3843   4.409   6.624   2.457
   10CHTO  C111 3844   4.670   6.582   2.416
   10CHTO  H215 3845   4.608   6.527   2.343
   10CHTO   N19 3846   4.712   6.708   2.349
   10CHTO  H207 3847   4.672   6.713   2.249
   10CHTO  H208 3848   4.680   6.795   2.405
   10CHTO   O74 3849   4.486   6.490   2.743
   10CHTO  C115 3850   4.329   6.466   2.739
   10CHTO  H219 3851   4.286   6.496   2.643
   10CHTO   O76 3852   4.293   6.312   2.753
   10CHTO  C122 3853   4.322   6.261   0.035
   10CHTO  H226 3854   4.429   6.274   0.053
   10CHTO  C126 3855   4.297   6.106   0.035
   10CHTO   O85 3856   4.336   6.045   0.159
   10CHTO  H206 3857   4.319   5.953   0.155
   10CHTO  C121 3858   4.239   6.336   0.148
   10CHTO  H225 3859   4.162   6.266   0.188
   10CHTO   O81 3860   4.326   6.371   0.256
   10CHTO  H202 3861   4.360   6.294   0.297
   10CHTO  C119 3862   4.167   6.463   0.094
   10CHTO  H223 3863   4.088   6.427   0.027
   10CHTO  C117 3864   4.265   6.552   0.008
   10CHTO  H221 3865   4.349   6.592   0.064
   10CHTO   N20 3866   4.194   6.673   2.801
   10CHTO  H209 3867   4.116   6.643   2.733
   10CHTO  H210 3868   4.265   6.737   2.751
   10CHTO   O80 3869   4.081   6.540   0.206
   10CHTO  C103 3870   3.927   6.498   0.235
   10CHTO  H190 3871   3.877   6.583   0.282
   10CHTO  C101 3872   3.837   6.453   0.114
   10CHTO  H188 3873   3.879   6.363   0.069
   10CHTO   O68 3874   3.834   6.567   0.007
   10CHTO  H168 3875   3.796   6.645   0.042
   10CHTO   C99 3876   3.690   6.419   0.168
   10CHTO  H186 3877   3.646   6.513   0.210
   10CHTO   N17 3878   3.595   6.370   0.063
   10CHTO  H174 3879   3.646   6.353   2.818
   10CHTO  H175 3880   3.514   6.441   0.049
   10CHTO   C97 3881   3.696   6.320   0.288
   10CHTO  H184 3882   3.714   6.218   0.250
   10CHTO   O64 3883   3.794   6.357   0.387
   10CHTO  C104 3884   3.928   6.382   0.340
   10CHTO  H191 3885   3.971   6.292   0.295
   10CHTO  C108 3886   4.018   6.416   0.460
   10CHTO   O71 3887   4.029   6.306   0.551
   10CHTO  H171 3888   4.085   6.330   0.622
   10CHTO   O62 3889   3.575   6.326   0.367
   10CHTO   C91 3890   3.493   6.208   0.371
   10CHTO  H178 3891   3.495   6.162   0.272
   10CHTO   C92 3892   3.344   6.253   0.394
   10CHTO  H179 3893   3.319   6.335   0.325
   10CHTO   O66 3894   3.260   6.144   0.356
   10CHTO  H166 3895   3.170   6.170   0.356
   10CHTO   C93 3896   3.311   6.290   0.545
   10CHTO  H180 3897   3.203   6.273   0.558
   10CHTO   N16 3898   3.332   6.433   0.577
   10CHTO  H172 3899   3.239   6.478   0.611
   10CHTO  H173 3900   3.370   6.487   0.492
   10CHTO   C94 3901   3.390   6.197   0.645
   10CHTO  H181 3902   3.480   6.246   0.685
   10CHTO   O61 3903   3.436   6.077   0.581
   10CHTO   C95 3904   3.537   6.100   0.481
   10CHTO  H182 3905   3.628   6.134   0.530
   10CHTO  C106 3906   3.571   5.960   0.417
   10CHTO   O69 3907   3.682   5.969   0.327
   10CHTO  H169 3908   3.760   5.987   0.375
   10CHTO   O63 3909   3.294   6.156   0.765
   10CHTO   C96 3910   3.373   6.087   0.885
   10CHTO  H183 3911   3.478   6.079   0.857
   10CHTO   C98 3912   3.323   5.945   0.923
   10CHTO  H185 3913   3.215   5.948   0.942
   10CHTO   O67 3914   3.339   5.861   0.807
   10CHTO  H167 3915   3.430   5.850   0.786
   10CHTO  C102 3916   3.402   5.886   1.051
   10CHTO  H189 3917   3.505   5.869   1.018
   10CHTO   N18 3918   3.353   5.754   1.099
   10CHTO  H176 3919   3.412   5.721   1.183
   10CHTO  H177 3920   3.359   5.681   1.019
   10CHTO  C105 3921   3.404   5.992   1.164
   10CHTO  H192 3922   3.303   6.001   1.206
   10CHTO   O65 3923   3.444   6.123   1.118
   10CHTO  C100 3924   3.364   6.178   1.013
   10CHTO  H187 3925   3.259   6.181   1.047
   10CHTO  C107 3926   3.409   6.324   0.988
   10CHTO   O70 3927   3.546   6.331   0.947
   10CHTO  H170 3928   3.570   6.421   0.933
   10CHTO   O57 3929   3.509   5.942   1.279
   10CHTO   C85 3930   3.477   5.974   1.415
   10CHTO  H157 3931   3.368   5.954   1.427
   10CHTO   C83 3932   3.496   6.126   1.444
   10CHTO  H155 3933   3.431   6.182   1.376
   10CHTO   O56 3934   3.631   6.165   1.411
   10CHTO  H135 3935   3.647   6.153   1.320
   10CHTO   C81 3936   3.453   6.156   1.590
   10CHTO  H153 3937   3.349   6.126   1.602
   10CHTO   N14 3938   3.452   6.302   1.622
   10CHTO  H141 3939   3.390   6.354   1.552
   10CHTO  H142 3940   3.552   6.341   1.617
   10CHTO   C79 3941   3.540   6.071   1.691
   10CHTO  H151 3942   3.495   6.084   1.790
   10CHTO   O52 3943   3.530   5.928   1.660
   10CHTO   C86 3944   3.562   5.894   1.522
   10CHTO  H158 3945   3.671   5.917   1.512
   10CHTO   C90 3946   3.549   5.742   1.500
   10CHTO   O60 3947   3.644   5.670   1.578
   10CHTO  H138 3948   3.634   5.578   1.563
   10CHTO   O50 3949   3.678   6.110   1.698
   10CHTO   C73 3950   3.773   6.067   1.798
   10CHTO  H145 3951   3.765   5.958   1.814
   10CHTO   C74 3952   3.745   6.138   1.934
   10CHTO  H146 3953   3.641   6.115   1.963
   10CHTO   O54 3954   3.829   6.079   2.036
   10CHTO  H133 3955   3.806   5.990   2.050
   10CHTO   C75 3956   3.768   6.293   1.916
   10CHTO  H147 3957   3.700   6.329   1.836
   10CHTO   N13 3958   3.736   6.374   2.036
   10CHTO  H139 3959   3.702   6.312   2.117
   10CHTO  H140 3960   3.657   6.445   2.013
   10CHTO   C76 3961   3.917   6.316   1.865
   10CHTO  H148 3962   3.985   6.278   1.942
   10CHTO   O49 3963   3.940   6.242   1.740
   10CHTO   C77 3964   3.918   6.100   1.751
   10CHTO  H149 3965   3.989   6.057   1.821
   10CHTO   C88 3966   3.950   6.036   1.615
   10CHTO   O58 3967   3.941   5.886   1.620
   10CHTO  H136 3968   3.853   5.860   1.634
   10CHTO   O51 3969   3.943   6.470   1.829
   10CHTO   C78 3970   4.087   6.523   1.875
   10CHTO  H150 3971   4.164   6.443   1.865
   10CHTO   C80 3972   4.084   6.572   2.021
   10CHTO  H152 3973   4.002   6.646   2.033
   10CHTO   O55 3974   4.055   6.459   2.105
   10CHTO  H134 3975   4.042   6.486   2.194
   10CHTO   C84 3976   4.221   6.640   2.063
   10CHTO  H156 3977   4.298   6.562   2.061
   10CHTO   N15 3978   4.219   6.696   2.202
   10CHTO  H143 3979   4.314   6.738   2.226
   10CHTO  H144 3980   4.198   6.618   2.273
   10CHTO   C87 3981   4.261   6.748   1.959
   10CHTO  H159 3982   4.195   6.834   1.967
   10CHTO   O53 3983   4.256   6.689   1.816
   10CHTO   C82 3984   4.127   6.637   1.780
   10CHTO  H154 3985   4.052   6.717   1.782
   10CHTO   C89 3986   4.133   6.584   1.635
   10CHTO   O59 3987   4.162   6.689   1.541
   10CHTO  H137 3988   4.089   6.748   1.535
   10CHTO   O45 3989   4.416   6.794   1.983
   10CHTO   C67 3990   4.442   6.931   1.953
   10CHTO  H124 3991   4.375   6.965   1.874
   10CHTO   C65 3992   4.421   7.022   2.080
   10CHTO  H122 3993   4.435   6.957   2.166
   10CHTO   O44 3994   4.283   7.065   2.077
   10CHTO  H102 3995   4.226   6.992   2.088
   10CHTO   C63 3996   4.531   7.134   2.096
   10CHTO  H120 3997   4.622   7.087   2.132
   10CHTO   N11 3998   4.507   7.236   2.203
   10CHTO  H108 3999   4.520   7.335   2.164
   10CHTO  H109 4000   4.408   7.227   2.242
   10CHTO   C61 4001   4.566   7.191   1.954
   10CHTO  H118 4002   4.645   7.266   1.968
   10CHTO   O40 4003   4.620   7.089   1.865
   10CHTO   C68 4004   4.588   6.949   1.894
   10CHTO  H125 4005   4.663   6.910   1.966
   10CHTO   C72 4006   4.605   6.868   1.763
   10CHTO   O48 4007   4.740   6.867   1.715
   10CHTO  H105 4008   4.745   6.815   1.637
   10CHTO   O38 4009   4.451   7.250   1.888
   10CHTO   C55 4010   4.465   7.360   1.795
   10CHTO  H112 4011   4.376   7.352   1.730
   10CHTO   C56 4012   4.600   7.362   1.710
   10CHTO  H113 4013   4.685   7.351   1.779
   10CHTO   O42 4014   4.603   7.246   1.625
   10CHTO  H100 4015   4.532   7.248   1.564
   10CHTO   C57 4016   4.617   7.495   1.626
   10CHTO  H114 4017   4.543   7.492   1.546
   10CHTO   N10 4018   4.750   7.507   1.562
   10CHTO  H106 4019   4.748   7.460   1.464
   10CHTO  H107 4020   4.778   7.611   1.550
   10CHTO   C58 4021   4.586   7.618   1.716
   10CHTO  H115 4022   4.664   7.626   1.796
   10CHTO   O37 4023   4.457   7.602   1.775
   10CHTO   C59 4024   4.447   7.495   1.870
   10CHTO  H116 4025   4.523   7.507   1.948
   10CHTO   C70 4026   4.308   7.503   1.935
   10CHTO   O46 4027   4.284   7.628   2.001
   10CHTO  H103 4028   4.340   7.635   2.076
   10CHTO   O39 4029   4.579   7.757   1.629
   10CHTO   C60 4030   4.592   7.885   1.693
   10CHTO  H117 4031   4.573   7.960   1.616
   10CHTO   C62 4032   4.489   7.913   1.807
   10CHTO  H119 4033   4.389   7.888   1.764
   10CHTO   O43 4034   4.511   7.830   1.922
   10CHTO  H101 4035   4.498   7.739   1.900
   10CHTO   C66 4036   4.494   8.069   1.843
   10CHTO  H123 4037   4.483   8.127   1.752
   10CHTO   N12 4038   4.381   8.111   1.931
   10CHTO  H110 4039   4.287   8.092   1.880
   10CHTO  H111 4040   4.385   8.058   2.025
   10CHTO   C69 4041   4.632   8.103   1.905
   10CHTO  H126 4042   4.645   8.047   2.001
   10CHTO   O41 4043   4.748   8.059   1.803
   10CHTO   C64 4044   4.736   7.911   1.747
   10CHTO  H121 4045   4.759   7.839   1.827
   10CHTO   C71 4046   4.841   7.893   1.634
   10CHTO   O47 4047   4.974   7.904   1.686
   10CHTO  H104 4048   4.991   7.993   1.710
   10CHTO   O34 4049   4.647   8.257   1.937
   10CHTO   C49 4050   4.698   8.381   1.862
   10CHTO   H91 4051   4.803   8.363   1.840
   10CHTO   C47 4052   4.684   8.503   1.955
   10CHTO   H89 4053   4.734   8.588   1.904
   10CHTO   O33 4054   4.754   8.475   2.078
   10CHTO   H70 4055   4.753   8.551   2.134
   10CHTO   C45 4056   4.527   8.536   1.975
   10CHTO   H87 4057   4.476   8.444   2.007
   10CHTO    N8 4058   4.501   8.641   2.076
   10CHTO   H75 4059   4.546   8.734   2.045
   10CHTO   H76 4060   4.541   8.611   2.172
   10CHTO   C43 4061   4.466   8.571   1.831
   10CHTO   H85 4062   4.359   8.591   1.846
   10CHTO   O29 4063   4.487   8.461   1.740
   10CHTO   C50 4064   4.621   8.406   1.729
   10CHTO   H92 4065   4.610   8.308   1.680
   10CHTO   C54 4066   4.707   8.486   1.627
   10CHTO   O36 4067   4.652   8.477   1.495
   10CHTO   H72 4068   4.662   8.389   1.462
   10CHTO   O27 4069   4.522   8.693   1.778
   10CHTO   C37 4070   4.510   8.817   1.707
   10CHTO   H79 4071   4.584   8.820   1.625
   10CHTO   C38 4072   4.369   8.833   1.643
   10CHTO   H80 4073   4.294   8.816   1.722
   10CHTO   O31 4074   4.355   8.731   1.542
   10CHTO   H68 4075   4.349   8.646   1.583
   10CHTO   C39 4076   4.349   8.977   1.582
   10CHTO   H81 4077   4.415   8.985   1.495
   10CHTO    N7 4078   4.209   9.001   1.532
   10CHTO   H73 4079   4.139   8.989   1.613
   10CHTO   H74 4080   4.186   8.931   1.453
   10CHTO   C40 4081   4.392   9.089   1.685
   10CHTO   H82 4082   4.320   9.095   1.766
   10CHTO   O26 4083   4.525   9.062   1.733
   10CHTO   C41 4084   4.538   8.935   1.804
   10CHTO   H83 4085   4.467   8.932   1.887
   10CHTO   C52 4086   4.681   8.929   1.862
   10CHTO   O35 4087   4.706   9.034   1.963
   10CHTO   H71 4088   4.653   9.019   2.039
   10CHTO   O28 4089   4.407   9.218   1.623
   10CHTO   C42 4090   4.360   9.343   1.686
   10CHTO   H84 4091   4.319   9.314   1.783
   10CHTO   C44 4092   4.244   9.413   1.609
   10CHTO   H86 4093   4.278   9.433   1.507
   10CHTO   O32 4094   4.134   9.321   1.601
   10CHTO   H69 4095   4.100   9.303   1.687
   10CHTO   C48 4096   4.200   9.551   1.673
   10CHTO   H90 4097   4.151   9.530   1.768
   10CHTO    N9 4098   4.097   9.624   1.589
   10CHTO   H77 4099   4.073   9.567   1.500
   10CHTO   H78 4100   4.131   9.723   1.562
   10CHTO   C51 4101   4.327   9.640   1.703
   10CHTO   H93 4102   4.372   9.669   1.607
   10CHTO   O30 4103   4.418   9.567   1.785
   10CHTO   C46 4104   4.475   9.444   1.713
   10CHTO   H88 4105   4.517   9.476   1.617
   10CHTO   C53 4106   4.586   9.384   1.801
   10CHTO   O72 4107   4.695   9.476   1.815
   10CHTO  H199 4108   4.762   9.437   1.869
   10CHTO   O22 4109   4.290   9.758   1.779
   10CHTO   C31 4110   4.373   9.880   1.785
   10CHTO   H59 4111   4.315   9.952   1.845
   10CHTO   C29 4112   4.509   9.861   1.856
   10CHTO   H57 4113   4.566   9.786   1.800
   10CHTO   O21 4114   4.483   9.807   1.987
   10CHTO   H37 4115   4.564   9.783   2.028
   10CHTO   C27 4116   4.592   9.996   1.861
   10CHTO   H55 4117   4.537   0.068   1.924
   10CHTO    N5 4118   4.728   9.977   1.918
   10CHTO   H43 4119   4.786   9.911   1.855
   10CHTO   H44 4120   4.777   0.072   1.929
   10CHTO   C25 4121   4.598   0.057   1.716
   10CHTO   H53 4122   4.656   9.990   1.651
   10CHTO   O17 4123   4.465   0.072   1.660
   10CHTO   C32 4124   4.394   9.948   1.645
   10CHTO   H60 4125   4.451   9.881   1.581
   10CHTO   C36 4126   4.258   9.979   1.577
   10CHTO   O25 4127   4.276   0.024   1.442
   10CHTO   H40 4128   4.307   9.953   1.389
   10CHTO   O15 4129   4.666   0.198   1.717
   10CHTO   C19 4130   4.717   0.274   1.603
   10CHTO   H47 4131   4.678   0.221   1.514
   10CHTO   C20 4132   4.668   0.421   1.599
   10CHTO   H48 4133   4.697   0.476   1.690
   10CHTO   O19 4134   4.524   0.416   1.594
   10CHTO   H35 4135   4.489   0.503   1.603
   10CHTO   C21 4136   4.726   0.500   1.474
   10CHTO   H49 4137   4.679   0.460   1.384
   10CHTO    N4 4138   4.693   0.645   1.478
   10CHTO   H41 4139   4.732   0.694   1.389
   10CHTO   H42 4140   4.737   0.691   1.565
   10CHTO   C22 4141   4.878   0.474   1.459
   10CHTO   H50 4142   4.933   0.531   1.535
   10CHTO   O14 4143   4.911   0.335   1.468
   10CHTO   C23 4144   4.872   0.271   1.591
   10CHTO   H51 4145   4.920   0.325   1.674
   10CHTO   C34 4146   4.927   0.128   1.591
   10CHTO   O23 4147   5.070   0.128   1.596
   10CHTO   H38 4148   5.101   0.039   1.592
   10CHTO   O16 4149   4.922   0.509   1.326
   10CHTO   C24 4150   5.068   0.574   1.314
   10CHTO   H52 4151   5.120   0.574   1.410
   10CHTO   C26 4152   5.052   0.719   1.263
   10CHTO   H54 4153   4.984   0.717   1.174
   10CHTO   O20 4154   4.988   0.795   1.367
   10CHTO   H36 4155   4.898   0.769   1.375
   10CHTO   C30 4156   5.188   0.783   1.221
   10CHTO   H58 4157   5.248   0.805   1.310
   10CHTO    N6 4158   5.166   0.915   1.153
   10CHTO   H45 4159   5.219   0.993   1.205
   10CHTO   H46 4160   5.198   0.912   1.050
   10CHTO   C33 4161   5.272   0.685   1.134
   10CHTO   H61 4162   5.223   0.671   1.036
   10CHTO   O18 4163   5.280   0.557   1.200
   10CHTO   C28 4164   5.153   0.491   1.216
   10CHTO   H56 4165   5.101   0.483   1.120
   10CHTO   C35 4166   5.178   0.349   1.271
   10CHTO   O24 4167   5.262   0.271   1.187
   10CHTO   H39 4168   5.350   0.304   1.189
   10CHTO    O9 4169   5.404   0.737   1.106
   10CHTO   C13 4170   5.443   0.748   0.946
   10CHTO   H26 4171   5.374   0.821   0.900
   10CHTO   C11 4172   5.435   0.605   0.874
   10CHTO   H24 4173   5.330   0.588   0.845
   10CHTO    O8 4174   5.473   0.500   0.965
   10CHTO    H3 4175   5.562   0.511   0.992
   10CHTO    C9 4176   5.523   0.610   0.747
   10CHTO   H22 4177   5.492   0.701   0.692
   10CHTO    N2 4178   5.498   0.499   0.651
   10CHTO   H10 4179   5.558   0.514   0.562
   10CHTO   H11 4180   5.394   0.495   0.626
   10CHTO    C7 4181   5.674   0.627   0.792
   10CHTO   H20 4182   5.722   0.677   0.705
   10CHTO    O4 4183   5.689   0.709   0.910
   10CHTO   C14 4184   5.589   0.811   0.928
   10CHTO   H27 4185   5.589   0.876   0.837
   10CHTO   C18 4186   5.633   0.901   1.047
   10CHTO   O13 4187   5.544   1.012   1.063
   10CHTO    H7 4188   5.554   1.072   0.990
   10CHTO    O2 4189   5.746   0.481   0.821
   10CHTO    C1 4190   5.889   0.480   0.843
   10CHTO   H14 4191   5.915   0.559   0.917
   10CHTO    C2 4192   5.974   0.504   0.711
   10CHTO   H15 4193   5.928   0.441   0.633
   10CHTO    O6 4194   5.963   0.642   0.670
   10CHTO    H1 4195   5.998   0.699   0.736
   10CHTO    C3 4196   6.129   0.464   0.729
   10CHTO   H16 4197   6.177   0.539   0.794
   10CHTO    N1 4198   6.204   0.465   0.599
   10CHTO    H8 4199   6.242   0.366   0.575
   10CHTO    H9 4200   6.142   0.500   0.518
   10CHTO    C4 4201   6.142   0.327   0.806
   10CHTO   H17 4202   6.105   0.247   0.742
   10CHTO    O1 4203   6.066   0.332   0.929
   10CHTO    C5 4204   5.925   0.344   0.907
   10CHTO   H18 4205   5.892   0.265   0.840
   10CHTO   C16 4206   5.854   0.325   1.044
   10CHTO   O11 4207   5.872   0.193   1.096
   10CHTO    H5 4208   5.824   0.131   1.043
   10CHTO    O3 4209   6.277   0.301   0.848
   10CHTO    C6 4210   6.316   0.160   0.852
   10CHTO   H19 4211   6.230   0.093   0.848
   10CHTO    C8 4212   6.408   0.127   0.730
   10CHTO   H21 4213   6.490   0.200   0.728
   10CHTO    O7 4214   6.329   0.142   0.610
   10CHTO    H2 4215   6.259   0.079   0.608
   10CHTO   C12 4216   6.469   9.981   0.741
   10CHTO   H25 4217   6.385   9.911   0.727
   10CHTO    N3 4218   6.567   9.953   0.631
   10CHTO   H12 4219   6.648   0.024   0.634
   10CHTO   H13 4220   6.517   9.958   0.535
   10CHTO   C15 4221   6.530   9.959   0.884
   10CHTO   H28 4222   6.622   0.015   0.899
   10CHTO   O10 4223   6.556   9.809   0.914
   10CHTO    H4 4224   6.622   9.776   0.856
   10CHTO    O5 4225   6.434   9.992   0.986
   10CHTO   C10 4226   6.391   0.129   0.984
   10CHTO   H23 4227   6.478   0.194   0.993
   10CHTO   C17 4228   6.302   0.152   1.107
   10CHTO   O12 4229   6.375   0.132   1.229
   10CHTO    H6 4230   6.318   0.145   1.302
   11CHTO  H203 4231   7.644   4.892   2.749
   11CHTO   O82 4232   7.563   4.939   2.740
   11CHTO  C123 4233   7.579   5.073   2.790
   11CHTO  H227 4234   7.660   5.123   2.733
   11CHTO   O77 4235   7.451   5.135   2.760
   11CHTO  C118 4236   7.447   5.276   2.788
   11CHTO  H222 4237   7.527   5.327   2.733
   11CHTO  C125 4238   7.308   5.332   2.739
   11CHTO   O84 4239   7.296   5.322   2.597
   11CHTO  H205 4240   7.213   5.355   2.570
   11CHTO  C114 4241   7.466   5.300   0.091
   11CHTO  H218 4242   7.382   5.256   0.145
   11CHTO  C116 4243   7.597   5.233   0.144
   11CHTO  H220 4244   7.685   5.289   0.104
   11CHTO   O79 4245   7.603   5.247   0.287
   11CHTO  H201 4246   7.532   5.200   0.328
   11CHTO  C120 4247   7.606   5.081   0.097
   11CHTO  H224 4248   7.526   5.027   0.152
   11CHTO   N21 4249   7.735   5.018   0.134
   11CHTO  H211 4250   7.722   4.912   0.148
   11CHTO  H212 4251   7.775   5.063   0.224
   11CHTO   O75 4252   7.467   5.443   0.105
   11CHTO  C112 4253   7.374   5.506   0.226
   11CHTO  H216 4254   7.410   5.468   0.323
   11CHTO   O73 4255   7.237   5.466   0.201
   11CHTO  C113 4256   7.139   5.526   0.287
   11CHTO  H217 4257   7.165   5.502   0.393
   11CHTO  C124 4258   7.002   5.462   0.260
   11CHTO   O83 4259   6.955   5.483   0.126
   11CHTO  H204 4260   6.938   5.574   0.112
   11CHTO  C109 4261   7.139   5.679   0.265
   11CHTO  H213 4262   7.123   5.695   0.157
   11CHTO  C110 4263   7.279   5.734   0.306
   11CHTO  H214 4264   7.295   5.714   0.412
   11CHTO   O78 4265   7.280   5.877   0.287
   11CHTO  H200 4266   7.223   5.918   0.349
   11CHTO  C111 4267   7.388   5.663   0.221
   11CHTO  H215 4268   7.375   5.693   0.116
   11CHTO   N19 4269   7.527   5.702   0.259
   11CHTO  H207 4270   7.547   5.675   0.361
   11CHTO  H208 4271   7.598   5.655   0.193
   11CHTO   O74 4272   7.030   5.743   0.339
   11CHTO  C115 4273   6.943   5.841   0.245
   11CHTO  H219 4274   6.996   5.867   0.153
   11CHTO   O76 4275   6.813   5.773   0.197
   11CHTO  C122 4276   6.721   5.740   0.303
   11CHTO  H226 4277   6.765   5.657   0.359
   11CHTO  C126 4278   6.591   5.683   0.237
   11CHTO   O85 4279   6.527   5.775   0.147
   11CHTO  H206 4280   6.493   5.848   0.195
   11CHTO  C121 4281   6.690   5.862   0.400
   11CHTO  H225 4282   6.580   5.878   0.403
   11CHTO   O81 4283   6.730   5.828   0.534
   11CHTO  H202 4284   6.699   5.893   0.594
   11CHTO  C119 4285   6.758   5.993   0.351
   11CHTO  H223 4286   6.713   6.010   0.253
   11CHTO  C117 4287   6.913   5.974   0.328
   11CHTO  H221 4288   6.972   5.964   0.419
   11CHTO   N20 4289   6.970   6.094   0.258
   11CHTO  H209 4290   6.927   6.104   0.160
   11CHTO  H210 4291   7.078   6.086   0.252
   11CHTO   O80 4292   6.709   6.126   0.431
   11CHTO  C103 4293   6.753   6.152   0.584
   11CHTO  H190 4294   6.760   6.058   0.639
   11CHTO  C101 4295   6.888   6.233   0.602
   11CHTO  H188 4296   6.896   6.304   0.519
   11CHTO   O68 4297   7.005   6.135   0.592
   11CHTO  H168 4298   7.006   6.095   0.508
   11CHTO   C99 4299   6.897   6.315   0.739
   11CHTO  H186 4300   6.910   6.243   0.823
   11CHTO   N17 4301   7.013   6.410   0.746
   11CHTO  H174 4302   7.105   6.356   0.730
   11CHTO  H175 4303   7.001   6.488   0.673
   11CHTO   C97 4304   6.762   6.386   0.767
   11CHTO  H184 4305   6.745   6.461   0.687
   11CHTO   O64 4306   6.658   6.287   0.770
   11CHTO  C104 4307   6.628   6.231   0.642
   11CHTO  H191 4308   6.598   6.309   0.571
   11CHTO  C108 4309   6.505   6.142   0.662
   11CHTO   O71 4310   6.452   6.092   0.539
   11CHTO  H171 4311   6.379   6.037   0.556
   11CHTO   O62 4312   6.759   6.450   0.897
   11CHTO   C91 4313   6.648   6.537   0.926
   11CHTO  H178 4314   6.565   6.512   0.860
   11CHTO   C92 4315   6.688   6.685   0.894
   11CHTO  H179 4316   6.790   6.702   0.934
   11CHTO   O66 4317   6.700   6.699   0.751
   11CHTO  H166 4318   6.618   6.684   0.709
   11CHTO   C93 4319   6.588   6.792   0.954
   11CHTO  H180 4320   6.491   6.780   0.902
   11CHTO   N16 4321   6.628   6.933   0.933
   11CHTO  H172 4322   6.724   6.951   0.981
   11CHTO  H173 4323   6.553   6.999   0.973
   11CHTO   C94 4324   6.568   6.757   1.106
   11CHTO  H181 4325   6.663   6.752   1.159
   11CHTO   O61 4326   6.508   6.628   1.113
   11CHTO   C95 4327   6.597   6.522   1.076
   11CHTO  H182 4328   6.682   6.522   1.144
   11CHTO  C106 4329   6.521   6.387   1.098
   11CHTO   O69 4330   6.607   6.274   1.081
   11CHTO  H169 4331   6.631   6.266   0.991
   11CHTO   O63 4332   6.470   6.859   1.183
   11CHTO   C96 4333   6.499   6.859   1.339
   11CHTO  H183 4334   6.600   6.822   1.356
   11CHTO   C98 4335   6.402   6.772   1.424
   11CHTO  H185 4336   6.299   6.808   1.412
   11CHTO   O67 4337   6.403   6.638   1.372
   11CHTO  H167 4338   6.488   6.600   1.380
   11CHTO  C102 4339   6.445   6.773   1.578
   11CHTO  H189 4340   6.535   6.708   1.584
   11CHTO   N18 4341   6.347   6.710   1.671
   11CHTO  H176 4342   6.310   6.782   1.743
   11CHTO  H177 4343   6.392   6.627   1.723
   11CHTO  C105 4344   6.488   6.916   1.622
   11CHTO  H192 4345   6.438   6.943   1.715
   11CHTO   O65 4346   6.454   7.022   1.529
   11CHTO  C100 4347   6.493   7.008   1.391
   11CHTO  H187 4348   6.417   7.061   1.332
   11CHTO  C107 4349   6.628   7.080   1.366
   11CHTO   O70 4350   6.617   7.221   1.390
   11CHTO  H170 4351   6.604   7.237   1.482
   11CHTO   O57 4352   6.646   6.904   1.649
   11CHTO   C85 4353   6.698   6.960   1.771
   11CHTO  H157 4354   6.612   6.974   1.839
   11CHTO   C83 4355   6.755   7.103   1.744
   11CHTO  H155 4356   6.673   7.165   1.708
   11CHTO   O56 4357   6.852   7.098   1.638
   11CHTO  H135 4358   6.927   7.048   1.665
   11CHTO   C81 4359   6.807   7.163   1.878
   11CHTO  H153 4360   6.724   7.162   1.950
   11CHTO   N14 4361   6.847   7.305   1.868
   11CHTO  H141 4362   6.781   7.367   1.925
   11CHTO  H142 4363   6.848   7.339   1.767
   11CHTO   C79 4364   6.921   7.071   1.936
   11CHTO  H151 4365   6.947   7.110   2.035
   11CHTO   O52 4366   6.871   6.935   1.957
   11CHTO   C86 4367   6.811   6.873   1.838
   11CHTO  H158 4368   6.896   6.855   1.769
   11CHTO   C90 4369   6.755   6.734   1.875
   11CHTO   O60 4370   6.859   6.648   1.922
   11CHTO  H138 4371   6.889   6.678   2.006
   11CHTO   O50 4372   7.040   7.067   1.856
   11CHTO   C73 4373   7.175   7.024   1.878
   11CHTO  H145 4374   7.176   6.926   1.929
   11CHTO   C74 4375   7.254   7.127   1.965
   11CHTO  H146 4376   7.200   7.136   2.060
   11CHTO   O54 4377   7.382   7.069   1.997
   11CHTO  H133 4378   7.372   6.996   2.055
   11CHTO   C75 4379   7.262   7.265   1.888
   11CHTO  H147 4380   7.161   7.308   1.885
   11CHTO   N13 4381   7.346   7.368   1.955
   11CHTO  H139 4382   7.287   7.456   1.977
   11CHTO  H140 4383   7.387   7.330   2.047
   11CHTO   C76 4384   7.307   7.247   1.734
   11CHTO  H148 4385   7.415   7.235   1.729
   11CHTO   O49 4386   7.242   7.133   1.670
   11CHTO   C77 4387   7.247   7.009   1.741
   11CHTO  H149 4388   7.351   6.979   1.758
   11CHTO   C88 4389   7.185   6.898   1.655
   11CHTO   O58 4390   7.262   6.880   1.529
   11CHTO  H136 4391   7.223   6.811   1.479
   11CHTO   O51 4392   7.250   7.371   1.647
   11CHTO   C78 4393   7.357   7.452   1.564
   11CHTO  H150 4394   7.460   7.424   1.595
   11CHTO   C80 4395   7.336   7.603   1.590
   11CHTO  H152 4396   7.230   7.628   1.569
   11CHTO   O55 4397   7.361   7.627   1.730
   11CHTO  H134 4398   7.292   7.589   1.782
   11CHTO   C84 4399   7.430   7.693   1.501
   11CHTO  H156 4400   7.533   7.678   1.535
   11CHTO   N15 4401   7.403   7.841   1.515
   11CHTO  H143 4402   7.323   7.859   1.584
   11CHTO  H144 4403   7.377   7.885   1.420
   11CHTO   C87 4404   7.424   7.647   1.353
   11CHTO  H159 4405   7.328   7.675   1.309
   11CHTO   O53 4406   7.445   7.497   1.345
   11CHTO   C82 4407   7.343   7.425   1.413
   11CHTO  H154 4408   7.244   7.455   1.377
   11CHTO   C89 4409   7.361   7.276   1.376
   11CHTO   O59 4410   7.241   7.204   1.402
   11CHTO  H137 4411   7.254   7.113   1.380
   11CHTO   O45 4412   7.544   7.715   1.267
   11CHTO   C67 4413   7.524   7.706   1.125
   11CHTO  H124 4414   7.459   7.621   1.103
   11CHTO   C65 4415   7.456   7.837   1.070
   11CHTO  H122 4416   7.486   7.917   1.137
   11CHTO   O44 4417   7.314   7.816   1.083
   11CHTO  H102 4418   7.268   7.895   1.064
   11CHTO   C63 4419   7.510   7.880   0.928
   11CHTO  H120 4420   7.607   7.929   0.942
   11CHTO   N11 4421   7.433   7.988   0.858
   11CHTO  H108 4422   7.337   7.951   0.829
   11CHTO  H109 4423   7.422   8.073   0.922
   11CHTO   C61 4424   7.539   7.751   0.842
   11CHTO  H118 4425   7.583   7.786   0.748
   11CHTO   O40 4426   7.636   7.663   0.904
   11CHTO   C68 4427   7.659   7.677   1.049
   11CHTO  H125 4428   7.729   7.762   1.065
   11CHTO   C72 4429   7.730   7.550   1.100
   11CHTO   O48 4430   7.651   7.431   1.088
   11CHTO  H105 4431   7.699   7.358   1.120
   11CHTO   O38 4432   7.419   7.674   0.818
   11CHTO   C55 4433   7.415   7.605   0.691
   11CHTO  H112 4434   7.515   7.600   0.645
   11CHTO   C56 4435   7.310   7.676   0.597
   11CHTO  H113 4436   7.216   7.685   0.654
   11CHTO   O42 4437   7.354   7.811   0.570
   11CHTO  H100 4438   7.289   7.857   0.520
   11CHTO   C57 4439   7.287   7.594   0.464
   11CHTO  H114 4440   7.380   7.600   0.406
   11CHTO   N10 4441   7.178   7.649   0.379
   11CHTO  H106 4442   7.218   7.723   0.311
   11CHTO  H107 4443   7.101   7.694   0.440
   11CHTO   C58 4444   7.260   7.445   0.498
   11CHTO  H115 4445   7.162   7.436   0.551
   11CHTO   O37 4446   7.364   7.393   0.583
   11CHTO   C59 4447   7.373   7.456   0.711
   11CHTO  H116 4448   7.277   7.450   0.762
   11CHTO   C70 4449   7.477   7.381   0.795
   11CHTO   O46 4450   7.437   7.247   0.825
   11CHTO  H103 4451   7.503   7.205   0.877
   11CHTO   O39 4452   7.264   7.350   0.365
   11CHTO   C60 4453   7.141   7.285   0.332
   11CHTO  H117 4454   7.066   7.304   0.409
   11CHTO   C62 4455   7.085   7.339   0.196
   11CHTO  H119 4456   7.065   7.447   0.211
   11CHTO   O43 4457   7.185   7.326   0.093
   11CHTO  H101 4458   7.204   7.235   0.078
   11CHTO   C66 4459   6.947   7.265   0.161
   11CHTO  H123 4460   6.878   7.278   0.245
   11CHTO   N12 4461   6.879   7.326   0.044
   11CHTO  H110 4462   6.785   7.276   0.026
   11CHTO  H111 4463   6.943   7.320   2.805
   11CHTO   C69 4464   6.975   7.114   0.146
   11CHTO  H126 4465   7.049   7.097   0.065
   11CHTO   O41 4466   7.033   7.061   0.281
   11CHTO   C64 4467   7.161   7.130   0.326
   11CHTO  H121 4468   7.244   7.106   0.256
   11CHTO   C71 4469   7.195   7.071   0.466
   11CHTO   O47 4470   7.325   7.110   0.511
   11CHTO  H104 4471   7.390   7.070   0.458
   11CHTO   O34 4472   6.850   7.035   0.113
   11CHTO   C49 4473   6.711   6.989   0.139
   11CHTO   H91 4474   6.648   7.078   0.142
   11CHTO   C47 4475   6.706   6.916   0.275
   11CHTO   H89 4476   6.599   6.893   0.294
   11CHTO   O33 4477   6.752   7.007   0.377
   11CHTO   H70 4478   6.843   7.025   0.366
   11CHTO   C45 4479   6.791   6.780   0.263
   11CHTO   H87 4480   6.891   6.806   0.226
   11CHTO    N8 4481   6.808   6.711   0.394
   11CHTO   H75 4482   6.771   6.610   0.389
   11CHTO   H76 4483   6.912   6.711   0.423
   11CHTO   C43 4484   6.725   6.688   0.149
   11CHTO   H85 4485   6.787   6.599   0.140
   11CHTO   O29 4486   6.718   6.762   0.024
   11CHTO   C50 4487   6.664   6.895   0.025
   11CHTO   H92 4488   6.696   6.942   2.779
   11CHTO   C54 4489   6.509   6.895   0.011
   11CHTO   O36 4490   6.469   6.845   2.731
   11CHTO   H72 4491   6.375   6.849   2.725
   11CHTO   O27 4492   6.593   6.641   0.184
   11CHTO   C37 4493   6.529   6.542   0.265
   11CHTO   H79 4494   6.600   6.500   0.338
   11CHTO   C38 4495   6.413   6.606   0.347
   11CHTO   H80 4496   6.346   6.658   0.277
   11CHTO   O31 4497   6.471   6.702   0.436
   11CHTO   H68 4498   6.403   6.749   0.482
   11CHTO   C39 4499   6.332   6.495   0.425
   11CHTO   H81 4500   6.399   6.451   0.499
   11CHTO    N7 4501   6.214   6.552   0.500
   11CHTO   H73 4502   6.144   6.597   0.431
   11CHTO   H74 4503   6.166   6.474   0.557
   11CHTO   C40 4504   6.288   6.380   0.326
   11CHTO   H82 4505   6.212   6.417   0.256
   11CHTO   O26 4506   6.403   6.328   0.258
   11CHTO   C41 4507   6.474   6.426   0.176
   11CHTO   H83 4508   6.404   6.468   0.102
   11CHTO   C52 4509   6.586   6.354   0.098
   11CHTO   O35 4510   6.688   6.295   0.185
   11CHTO   H71 4511   6.755   6.255   0.133
   11CHTO   O28 4512   6.237   6.265   0.397
   11CHTO   C42 4513   6.118   6.193   0.352
   11CHTO   H84 4514   6.111   6.212   0.245
   11CHTO   C44 4515   5.982   6.242   0.414
   11CHTO   H86 4516   5.989   6.235   0.523
   11CHTO   O32 4517   5.966   6.380   0.379
   11CHTO   H69 4518   5.890   6.416   0.421
   11CHTO   C48 4519   5.860   6.153   0.367
   11CHTO   H90 4520   5.849   6.163   0.259
   11CHTO    N9 4521   5.729   6.197   0.425
   11CHTO   H77 4522   5.733   6.193   0.533
   11CHTO   H78 4523   5.706   6.298   0.393
   11CHTO   C51 4524   5.894   6.003   0.401
   11CHTO   H93 4525   5.913   5.998   0.508
   11CHTO   O30 4526   6.010   5.967   0.324
   11CHTO   C46 4527   6.134   6.040   0.371
   11CHTO   H88 4528   6.150   6.018   0.476
   11CHTO   C53 4529   6.254   5.985   0.289
   11CHTO   O72 4530   6.275   5.847   0.317
   11CHTO  H199 4531   6.348   5.815   0.266
   11CHTO   O22 4532   5.793   5.908   0.361
   11CHTO   C31 4533   5.760   5.797   0.453
   11CHTO   H59 4534   5.821   5.812   0.545
   11CHTO   C29 4535   5.612   5.793   0.496
   11CHTO   H57 4536   5.550   5.772   0.407
   11CHTO   O21 4537   5.574   5.924   0.544
   11CHTO   H37 4538   5.482   5.927   0.560
   11CHTO   C27 4539   5.587   5.680   0.604
   11CHTO   H55 4540   5.641   5.708   0.696
   11CHTO    N5 4541   5.444   5.663   0.638
   11CHTO   H43 4542   5.403   5.756   0.674
   11CHTO   H44 4543   5.389   5.630   0.551
   11CHTO   C25 4544   5.651   5.545   0.557
   11CHTO   H53 4545   5.588   5.502   0.477
   11CHTO   O17 4546   5.786   5.560   0.505
   11CHTO   C32 4547   5.798   5.656   0.399
   11CHTO   H60 4548   5.730   5.630   0.317
   11CHTO   C36 4549   5.942   5.647   0.342
   11CHTO   O25 4550   6.042   5.675   0.441
   11CHTO   H40 4551   6.042   5.608   0.506
   11CHTO   O15 4552   5.659   5.442   0.676
   11CHTO   C19 4553   5.632   5.301   0.701
   11CHTO   H47 4554   5.731   5.260   0.727
   11CHTO   C20 4555   5.535   5.278   0.821
   11CHTO   H48 4556   5.441   5.336   0.809
   11CHTO   O19 4557   5.601   5.330   0.938
   11CHTO   H35 4558   5.677   5.279   0.958
   11CHTO   C21 4559   5.495   5.126   0.838
   11CHTO   H49 4560   5.584   5.069   0.866
   11CHTO    N4 4561   5.395   5.104   0.946
   11CHTO   H41 4562   5.304   5.157   0.924
   11CHTO   H42 4563   5.373   4.998   0.956
   11CHTO   C22 4564   5.447   5.074   0.700
   11CHTO   H50 4565   5.361   5.135   0.670
   11CHTO   O14 4566   5.553   5.088   0.604
   11CHTO   C23 4567   5.585   5.224   0.573
   11CHTO   H51 4568   5.496   5.270   0.528
   11CHTO   C34 4569   5.695   5.222   0.466
   11CHTO   O23 4570   5.643   5.175   0.341
   11CHTO   H38 4571   5.626   5.082   0.347
   11CHTO   O16 4572   5.412   4.934   0.697
   11CHTO   C24 4573   5.319   4.901   0.569
   11CHTO   H52 4574   5.328   4.977   0.491
   11CHTO   C26 4575   5.172   4.890   0.613
   11CHTO   H54 4576   5.164   4.807   0.688
   11CHTO   O20 4577   5.134   5.013   0.676
   11CHTO   H36 4578   5.048   5.006   0.713
   11CHTO   C30 4579   5.082   4.856   0.491
   11CHTO   H58 4580   5.080   4.942   0.423
   11CHTO    N6 4581   4.940   4.834   0.531
   11CHTO   H45 4582   4.933   4.753   0.601
   11CHTO   H46 4583   4.900   4.924   0.577
   11CHTO   C33 4584   5.138   4.735   0.409
   11CHTO   H61 4585   5.118   4.642   0.463
   11CHTO   O18 4586   5.280   4.745   0.388
   11CHTO   C28 4587   5.362   4.767   0.504
   11CHTO   H56 4588   5.349   4.686   0.576
   11CHTO   C35 4589   5.511   4.773   0.460
   11CHTO   O24 4590   5.557   4.651   0.401
   11CHTO   H39 4591   5.514   4.638   0.319
   11CHTO    O9 4592   5.067   4.721   0.283
   11CHTO   C13 4593   5.115   4.831   0.170
   11CHTO   H26 4594   5.170   4.913   0.221
   11CHTO   C11 4595   4.992   4.886   0.086
   11CHTO   H24 4596   4.920   4.929   0.157
   11CHTO    O8 4597   4.927   4.775   0.020
   11CHTO    H3 4598   4.984   4.738   2.803
   11CHTO    C9 4599   5.044   5.001   2.842
   11CHTO   H22 4600   5.060   5.086   0.062
   11CHTO    N2 4601   4.941   5.052   2.747
   11CHTO   H10 4602   4.905   5.149   2.778
   11CHTO   H11 4603   4.859   4.982   2.737
   11CHTO    C7 4604   5.185   4.964   2.779
   11CHTO   H20 4605   5.256   5.017   2.848
   11CHTO    O4 4606   5.211   4.822   2.784
   11CHTO   C14 4607   5.222   4.768   0.069
   11CHTO   H27 4608   5.322   4.790   0.108
   11CHTO   C18 4609   5.211   4.613   0.058
   11CHTO   O13 4610   5.325   4.559   2.839
   11CHTO    H7 4611   5.319   4.465   2.837
   11CHTO    O2 4612   5.213   5.018   2.625
   11CHTO    C1 4613   5.320   5.115   2.616
   11CHTO   H14 4614   5.394   5.097   2.697
   11CHTO    C2 4615   5.270   5.265   2.625
   11CHTO   H15 4616   5.191   5.276   2.549
   11CHTO    O6 4617   5.215   5.286   2.755
   11CHTO    H1 4618   5.176   5.372   2.760
   11CHTO    C3 4619   5.391   5.367   2.595
   11CHTO   H16 4620   5.464   5.361   2.677
   11CHTO    N1 4621   5.343   5.510   2.588
   11CHTO    H8 4622   5.297   5.537   2.681
   11CHTO    H9 4623   5.427   5.576   2.569
   11CHTO    C4 4624   5.469   5.324   2.465
   11CHTO   H17 4625   5.404   5.340   2.378
   11CHTO    O1 4626   5.507   5.185   2.473
   11CHTO    C5 4627   5.397   5.093   2.482
   11CHTO   H18 4628   5.328   5.112   2.400
   11CHTO   C16 4629   5.453   4.949   2.468
   11CHTO   O11 4630   5.550   4.917   2.568
   11CHTO    H5 4631   5.628   4.968   2.555
   11CHTO    O3 4632   5.592   5.396   2.450
   11CHTO    C6 4633   5.649   5.393   2.315
   11CHTO   H19 4634   5.606   5.315   2.252
   11CHTO    C8 4635   5.628   5.530   2.243
   11CHTO   H21 4636   5.669   5.609   2.306
   11CHTO    O7 4637   5.486   5.549   2.228
   11CHTO    H2 4638   5.468   5.635   2.195
   11CHTO   C12 4639   5.702   5.532   2.103
   11CHTO   H25 4640   5.649   5.458   2.039
   11CHTO    N3 4641   5.691   5.665   2.034
   11CHTO   H12 4642   5.633   5.735   2.093
   11CHTO   H13 4643   5.788   5.706   2.011
   11CHTO   C15 4644   5.851   5.483   2.120
   11CHTO   H28 4645   5.912   5.558   2.171
   11CHTO   O10 4646   5.918   5.446   1.984
   11CHTO    H4 4647   6.009   5.429   1.996
   11CHTO    O5 4648   5.858   5.358   2.191
   11CHTO   C10 4649   5.802   5.363   2.323
   11CHTO   H23 4650   5.852   5.442   2.380
   11CHTO   C17 4651   5.831   5.229   2.393
   11CHTO   O12 4652   5.972   5.211   2.416
   11CHTO    H6 4653   6.016   5.198   2.334
   12CHTO  H203 4654   5.526   2.005   1.919
   12CHTO   O82 4655   5.534   2.044   2.004
   12CHTO  C123 4656   5.517   1.945   2.107
   12CHTO  H227 4657   5.531   1.994   2.205
   12CHTO   O77 4658   5.377   1.904   2.093
   12CHTO  C118 4659   5.332   1.816   2.197
   12CHTO  H222 4660   5.351   1.864   2.295
   12CHTO  C125 4661   5.177   1.794   2.180
   12CHTO   O84 4662   5.143   1.740   2.052
   12CHTO  H205 4663   5.050   1.729   2.046
   12CHTO  C114 4664   5.410   1.683   2.191
   12CHTO  H218 4665   5.385   1.632   2.098
   12CHTO  C116 4666   5.564   1.705   2.193
   12CHTO  H220 4667   5.595   1.733   2.296
   12CHTO   O79 4668   5.629   1.580   2.166
   12CHTO  H201 4669   5.722   1.588   2.174
   12CHTO  C120 4670   5.610   1.819   2.091
   12CHTO  H224 4671   5.598   1.776   1.990
   12CHTO   N21 4672   5.753   1.854   2.108
   12CHTO  H211 4673   5.810   1.768   2.141
   12CHTO  H212 4674   5.793   1.892   2.015
   12CHTO   O75 4675   5.363   1.608   2.304
   12CHTO  C112 4676   5.325   1.452   2.273
   12CHTO  H216 4677   5.393   1.413   2.195
   12CHTO   O73 4678   5.188   1.450   2.230
   12CHTO  C113 4679   5.136   1.319   2.201
   12CHTO  H217 4680   5.201   1.271   2.124
   12CHTO  C124 4681   4.996   1.333   2.139
   12CHTO   O83 4682   4.901   1.397   2.225
   12CHTO  H204 4683   4.925   1.487   2.236
   12CHTO  C109 4684   5.136   1.232   2.330
   12CHTO  H213 4685   5.071   1.282   2.403
   12CHTO  C110 4686   5.282   1.224   2.386
   12CHTO  H214 4687   5.343   1.166   2.316
   12CHTO   O78 4688   5.281   1.150   2.510
   12CHTO  H200 4689   5.229   1.195   2.574
   12CHTO  C111 4690   5.343   1.366   2.405
   12CHTO  H215 4691   5.287   1.417   2.485
   12CHTO   N19 4692   5.486   1.366   2.446
   12CHTO  H207 4693   5.523   1.265   2.458
   12CHTO  H208 4694   5.498   1.420   2.538
   12CHTO   O74 4695   5.082   1.099   2.301
   12CHTO  C115 4696   4.991   1.039   2.423
   12CHTO  H219 4697   5.042   1.047   2.519
   12CHTO   O76 4698   4.854   1.122   2.440
   12CHTO  C122 4699   4.760   1.069   2.535
   12CHTO  H226 4700   4.666   1.122   2.519
   12CHTO  C126 4701   4.804   1.101   2.683
   12CHTO   O85 4702   4.805   1.241   2.712
   12CHTO  H206 4703   4.831   1.254   2.801
   12CHTO  C121 4704   4.734   0.915   2.514
   12CHTO  H225 4705   4.672   0.879   2.599
   12CHTO   O81 4706   4.656   0.897   2.395
   12CHTO  H202 4707   4.705   0.924   2.319
   12CHTO  C119 4708   4.867   0.833   2.511
   12CHTO  H223 4709   4.917   0.857   2.606
   12CHTO  C117 4710   4.961   0.886   2.397
   12CHTO  H221 4711   4.922   0.881   2.295
   12CHTO   N20 4712   5.090   0.809   2.394
   12CHTO  H209 4713   5.070   0.704   2.376
   12CHTO  H210 4714   5.154   0.847   2.316
   12CHTO   O80 4715   4.849   0.668   2.525
   12CHTO  C103 4716   4.722   0.595   2.466
   12CHTO  H190 4717   4.639   0.664   2.452
   12CHTO  C101 4718   4.746   0.517   2.331
   12CHTO  H188 4719   4.838   0.460   2.340
   12CHTO   O68 4720   4.762   0.621   2.218
   12CHTO  H168 4721   4.787   0.577   2.139
   12CHTO   C99 4722   4.626   0.414   2.302
   12CHTO  H186 4723   4.532   0.471   2.286
   12CHTO   N17 4724   4.646   0.330   2.179
   12CHTO  H174 4725   4.665   0.394   2.094
   12CHTO  H175 4726   4.560   0.267   2.162
   12CHTO   C97 4727   4.601   0.326   2.428
   12CHTO  H184 4728   4.690   0.265   2.445
   12CHTO   O64 4729   4.572   0.412   2.539
   12CHTO  C104 4730   4.681   0.495   2.581
   12CHTO  H191 4731   4.768   0.436   2.610
   12CHTO  C108 4732   4.638   0.574   2.706
   12CHTO   O71 4733   4.610   0.487   2.816
   12CHTO  H171 4734   4.531   0.439   2.800
   12CHTO   O62 4735   4.482   0.243   2.418
   12CHTO   C91 4736   4.483   0.117   2.489
   12CHTO  H178 4737   4.584   0.096   2.525
   12CHTO   C92 4738   4.448   0.004   2.387
   12CHTO  H179 4739   4.357   0.033   2.333
   12CHTO   O66 4740   4.552   9.999   2.287
   12CHTO  H166 4741   4.634   9.975   2.325
   12CHTO   C93 4742   4.428   9.861   2.455
   12CHTO  H180 4743   4.527   9.828   2.490
   12CHTO   N16 4744   4.379   9.756   2.362
   12CHTO  H172 4745   4.365   9.796   2.262
   12CHTO  H173 4746   4.448   9.673   2.360
   12CHTO   C94 4747   4.332   9.875   2.579
   12CHTO  H181 4748   4.233   9.909   2.549
   12CHTO   O61 4749   4.384   9.975   2.668
   12CHTO   C95 4750   4.384   0.107   2.612
   12CHTO  H182 4751   4.283   0.133   2.579
   12CHTO  C106 4752   4.421   0.206   2.728
   12CHTO   O69 4753   4.323   0.205   2.832
   12CHTO  H169 4754   4.243   0.242   2.801
   12CHTO   O63 4755   4.316   9.732   2.664
   12CHTO   C96 4756   4.438   9.689   2.760
   12CHTO  H183 4757   4.515   9.766   2.756
   12CHTO   C98 4758   4.502   9.554   2.719
   12CHTO  H185 4759   4.421   9.481   2.697
   12CHTO   O67 4760   4.569   9.573   2.593
   12CHTO  H167 4761   4.641   9.633   2.603
   12CHTO  C102 4762   4.603   9.492   2.828
   12CHTO  H189 4763   4.693   9.555   2.825
   12CHTO   N18 4764   4.648   9.354   2.798
   12CHTO  H176 4765   4.718   9.321   0.026
   12CHTO  H177 4766   4.564   9.287   2.794
   12CHTO  C105 4767   4.542   9.505   0.123
   12CHTO  H192 4768   4.460   9.433   0.133
   12CHTO   O65 4769   4.491   9.636   0.150
   12CHTO  C100 4770   4.386   9.679   0.061
   12CHTO  H187 4771   4.306   9.604   0.064
   12CHTO  C107 4772   4.327   9.812   0.113
   12CHTO   O70 4773   4.425   9.915   0.120
   12CHTO  H170 4774   4.385   9.994   0.151
   12CHTO   O57 4775   4.663   9.470   0.231
   12CHTO   C85 4776   4.638   9.380   0.340
   12CHTO  H157 4777   4.566   9.305   0.302
   12CHTO   C83 4778   4.563   9.455   0.457
   12CHTO  H155 4779   4.466   9.486   0.419
   12CHTO   O56 4780   4.635   9.575   0.490
   12CHTO  H135 4781   4.584   9.627   0.551
   12CHTO   C81 4782   4.543   9.358   0.577
   12CHTO  H153 4783   4.485   9.273   0.542
   12CHTO   N14 4784   4.461   9.416   0.686
   12CHTO  H141 4785   4.367   9.451   0.647
   12CHTO  H142 4786   4.442   9.342   0.761
   12CHTO   C79 4787   4.682   9.305   0.627
   12CHTO  H151 4788   4.662   9.232   0.706
   12CHTO   O52 4789   4.748   9.232   0.519
   12CHTO   C86 4790   4.770   9.311   0.398
   12CHTO  H158 4791   4.846   9.386   0.427
   12CHTO   C90 4792   4.838   9.218   0.294
   12CHTO   O60 4793   4.892   9.291   0.184
   12CHTO  H138 4794   4.966   9.342   0.212
   12CHTO   O50 4795   4.772   9.405   0.680
   12CHTO   C73 4796   4.854   9.422   0.796
   12CHTO  H145 4797   4.803   9.381   0.885
   12CHTO   C74 4798   4.878   9.575   0.820
   12CHTO  H146 4799   4.779   9.623   0.825
   12CHTO   O54 4800   4.938   9.591   0.950
   12CHTO  H133 4801   4.950   9.682   0.968
   12CHTO   C75 4802   4.966   9.632   0.701
   12CHTO  H147 4803   4.910   9.619   0.607
   12CHTO   N13 4804   4.992   9.777   0.713
   12CHTO  H139 4805   4.899   9.832   0.713
   12CHTO  H140 4806   5.051   9.811   0.628
   12CHTO   C76 4807   5.101   9.548   0.688
   12CHTO  H148 4808   5.158   9.560   0.781
   12CHTO   O49 4809   5.067   9.406   0.670
   12CHTO   C77 4810   4.993   9.352   0.780
   12CHTO  H149 4811   5.050   9.365   0.872
   12CHTO   C88 4812   4.981   9.200   0.762
   12CHTO   O58 4813   5.117   9.135   0.759
   12CHTO  H136 4814   5.162   9.161   0.681
   12CHTO   O51 4815   5.187   9.591   0.557
   12CHTO   C78 4816   5.321   9.504   0.539
   12CHTO  H150 4817   5.314   9.408   0.595
   12CHTO   C80 4818   5.445   9.582   0.589
   12CHTO  H152 4819   5.449   9.679   0.536
   12CHTO   O55 4820   5.425   9.608   0.729
   12CHTO  H134 4821   5.494   9.663   0.762
   12CHTO   C84 4822   5.578   9.500   0.562
   12CHTO  H156 4823   5.575   9.410   0.624
   12CHTO   N15 4824   5.702   9.575   0.602
   12CHTO  H143 4825   5.708   9.668   0.548
   12CHTO  H144 4826   5.699   9.597   0.707
   12CHTO   C87 4827   5.586   9.455   0.414
   12CHTO  H159 4828   5.605   9.540   0.348
   12CHTO   O53 4829   5.452   9.384   0.374
   12CHTO   C82 4830   5.337   9.469   0.390
   12CHTO  H154 4831   5.351   9.560   0.331
   12CHTO   C89 4832   5.212   9.397   0.334
   12CHTO   O59 4833   5.179   9.278   0.407
   12CHTO  H137 4834   5.244   9.212   0.392
   12CHTO   O45 4835   5.705   9.341   0.391
   12CHTO   C67 4836   5.782   9.340   0.269
   12CHTO  H124 4837   5.823   9.239   0.260
   12CHTO   C65 4838   5.699   9.370   0.138
   12CHTO  H122 4839   5.597   9.389   0.169
   12CHTO   O44 4840   5.700   9.252   0.057
   12CHTO  H102 4841   5.785   9.238   0.020
   12CHTO   C63 4842   5.746   9.503   0.068
   12CHTO  H120 4843   5.731   9.586   0.138
   12CHTO   N11 4844   5.662   9.548   2.800
   12CHTO  H108 4845   5.723   9.572   2.716
   12CHTO  H109 4846   5.592   9.472   2.772
   12CHTO   C61 4847   5.901   9.495   0.040
   12CHTO  H118 4848   5.933   9.598   0.014
   12CHTO   O40 4849   5.978   9.456   0.156
   12CHTO   C68 4850   5.909   9.434   0.283
   12CHTO  H125 4851   5.879   9.533   0.325
   12CHTO   C72 4852   6.014   9.374   0.380
   12CHTO   O48 4853   5.968   9.363   0.515
   12CHTO  H105 4854   5.957   9.448   0.552
   12CHTO   O38 4855   5.935   9.402   2.783
   12CHTO   C55 4856   6.033   9.444   2.685
   12CHTO  H112 4857   6.081   9.538   2.717
   12CHTO   C56 4858   5.961   9.460   2.544
   12CHTO  H113 4859   5.899   9.370   2.530
   12CHTO   O42 4860   5.869   9.570   2.550
   12CHTO  H100 4861   5.819   9.576   2.470
   12CHTO   C57 4862   6.062   9.478   2.424
   12CHTO  H114 4863   6.099   9.581   2.430
   12CHTO   N10 4864   5.999   9.463   2.290
   12CHTO  H106 4865   5.962   9.558   2.255
   12CHTO  H107 4866   5.918   9.392   2.294
   12CHTO   C58 4867   6.183   9.382   2.437
   12CHTO  H115 4868   6.151   9.278   2.414
   12CHTO   O37 4869   6.239   9.387   2.570
   12CHTO   C59 4870   6.149   9.341   2.671
   12CHTO  H116 4871   6.111   9.242   2.645
   12CHTO   C70 4872   6.229   9.329   2.801
   12CHTO   O46 4873   6.163   9.250   0.052
   12CHTO  H103 4874   6.217   9.243   0.129
   12CHTO   O39 4875   6.299   9.431   2.332
   12CHTO   C60 4876   6.416   9.348   2.323
   12CHTO  H117 4877   6.448   9.318   2.423
   12CHTO   C62 4878   6.393   9.220   2.238
   12CHTO  H119 4879   6.312   9.163   2.289
   12CHTO   O43 4880   6.347   9.256   2.107
   12CHTO  H101 4881   6.413   9.304   2.061
   12CHTO   C66 4882   6.528   9.132   2.238
   12CHTO  H123 4883   6.555   9.110   2.342
   12CHTO   N12 4884   6.511   9.000   2.171
   12CHTO  H110 4885   6.410   8.987   2.135
   12CHTO  H111 4886   6.539   8.920   2.238
   12CHTO   C69 4887   6.645   9.213   2.177
   12CHTO  H126 4888   6.628   9.229   2.068
   12CHTO   O41 4889   6.657   9.354   2.247
   12CHTO   C64 4890   6.532   9.433   2.263
   12CHTO  H121 4891   6.500   9.470   2.163
   12CHTO   C71 4892   6.562   9.557   2.351
   12CHTO   O47 4893   6.613   9.521   2.480
   12CHTO  H104 4894   6.699   9.485   2.472
   12CHTO   O34 4895   6.786   9.135   2.195
   12CHTO   C49 4896   6.906   9.136   2.303
   12CHTO   H91 4897   6.991   9.183   2.254
   12CHTO   C47 4898   6.939   8.990   2.341
   12CHTO   H89 4899   7.030   8.994   2.405
   12CHTO   O33 4900   6.973   8.919   2.220
   12CHTO   H70 4901   6.898   8.913   2.163
   12CHTO   C45 4902   6.816   8.926   2.422
   12CHTO   H87 4903   6.728   8.929   2.356
   12CHTO    N8 4904   6.841   8.784   2.458
   12CHTO   H75 4905   6.865   8.728   2.369
   12CHTO   H76 4906   6.923   8.778   2.527
   12CHTO   C43 4907   6.774   9.018   2.549
   12CHTO   H85 4908   6.677   8.979   2.580
   12CHTO   O29 4909   6.766   9.157   2.512
   12CHTO   C50 4910   6.870   9.215   2.431
   12CHTO   H92 4911   6.835   9.314   2.399
   12CHTO   C54 4912   6.997   9.251   2.514
   12CHTO   O36 4913   6.973   9.360   2.603
   12CHTO   H72 4914   6.962   9.439   2.555
   12CHTO   O27 4915   6.860   9.004   2.665
   12CHTO   C37 4916   6.827   9.011   2.805
   12CHTO   H79 4917   6.921   9.018   0.015
   12CHTO   C38 4918   6.746   9.141   2.840
   12CHTO   H80 4919   6.671   9.157   2.760
   12CHTO   O31 4920   6.837   9.252   2.837
   12CHTO   H68 4921   6.867   9.267   2.749
   12CHTO   C39 4922   6.671   9.135   0.131
   12CHTO   H81 4923   6.748   9.137   0.209
   12CHTO    N7 4924   6.579   9.251   0.154
   12CHTO   H73 4925   6.635   9.343   0.149
   12CHTO   H74 4926   6.532   9.242   0.251
   12CHTO   C40 4927   6.596   8.997   0.144
   12CHTO   H82 4928   6.521   8.990   0.065
   12CHTO   O26 4929   6.694   8.893   0.133
   12CHTO   C41 4930   6.752   8.881   2.848
   12CHTO   H83 4931   6.673   8.858   2.775
   12CHTO   C52 4932   6.851   8.762   0.003
   12CHTO   O35 4933   6.787   8.636   0.047
   12CHTO   H71 4934   6.764   8.642   0.138
   12CHTO   O28 4935   6.534   8.975   0.272
   12CHTO   C42 4936   6.408   8.901   0.290
   12CHTO   H84 4937   6.425   8.844   0.381
   12CHTO   C44 4938   6.369   8.796   0.181
   12CHTO   H86 4939   6.355   8.847   0.086
   12CHTO   O32 4940   6.480   8.705   0.170
   12CHTO   H69 4941   6.467   8.646   0.098
   12CHTO   C48 4942   6.234   8.719   0.215
   12CHTO   H90 4943   6.253   8.659   0.304
   12CHTO    N9 4944   6.197   8.620   0.107
   12CHTO   H77 4945   6.269   8.620   0.027
   12CHTO   H78 4946   6.098   8.641   0.068
   12CHTO   C51 4947   6.117   8.820   0.250
   12CHTO   H93 4948   6.090   8.874   0.159
   12CHTO   O30 4949   6.160   8.909   0.354
   12CHTO   C46 4950   6.287   8.994   0.317
   12CHTO   H88 4951   6.265   9.051   0.227
   12CHTO   C53 4952   6.314   9.092   0.434
   12CHTO   O72 4953   6.341   9.024   0.558
   12CHTO  H199 4954   6.422   8.978   0.552
   12CHTO   O22 4955   6.002   8.748   0.302
   12CHTO   C31 4956   5.864   8.797   0.324
   12CHTO   H59 4957   5.808   8.709   0.365
   12CHTO   C29 4958   5.849   8.910   0.428
   12CHTO   H57 4959   5.901   9.000   0.390
   12CHTO   O21 4960   5.918   8.869   0.548
   12CHTO   H37 4961   5.922   8.941   0.609
   12CHTO   C27 4962   5.696   8.945   0.454
   12CHTO   H55 4963   5.647   8.856   0.496
   12CHTO    N5 4964   5.678   9.058   0.550
   12CHTO   H43 4965   5.719   9.149   0.508
   12CHTO   H44 4966   5.573   9.070   0.572
   12CHTO   C25 4967   5.626   8.974   0.317
   12CHTO   H53 4968   5.668   9.065   0.272
   12CHTO   O17 4969   5.649   8.863   0.226
   12CHTO   C32 4970   5.787   8.839   0.194
   12CHTO   H60 4971   5.832   8.929   0.153
   12CHTO   C36 4972   5.784   8.727   0.088
   12CHTO   O25 4973   5.904   8.726   0.010
   12CHTO   H40 4974   5.899   8.657   2.795
   12CHTO   O15 4975   5.468   8.992   0.332
   12CHTO   C19 4976   5.338   8.998   0.265
   12CHTO   H47 4977   5.280   9.064   0.330
   12CHTO   C20 4978   5.341   9.059   0.122
   12CHTO   H48 4979   5.400   8.998   0.052
   12CHTO   O19 4980   5.404   9.188   0.134
   12CHTO   H35 4981   5.415   9.227   0.049
   12CHTO   C21 4982   5.193   9.071   0.065
   12CHTO   H49 4983   5.136   9.136   0.131
   12CHTO    N4 4984   5.187   9.132   2.777
   12CHTO   H41 4985   5.230   9.231   2.780
   12CHTO   H42 4986   5.085   9.138   2.744
   12CHTO   C22 4987   5.127   8.931   0.070
   12CHTO   H50 4988   5.179   8.864   0.001
   12CHTO   O14 4989   5.132   8.878   0.203
   12CHTO   C23 4990   5.262   8.862   0.263
   12CHTO   H51 4991   5.316   8.785   0.205
   12CHTO   C34 4992   5.236   8.808   0.404
   12CHTO   O23 4993   5.357   8.772   0.472
   12CHTO   H38 4994   5.336   8.740   0.557
   12CHTO   O16 4995   4.986   8.937   0.039
   12CHTO   C24 4996   4.927   8.809   2.803
   12CHTO   H52 4997   4.994   8.724   2.806
   12CHTO   C26 4998   4.906   8.852   2.656
   12CHTO   H54 4999   4.851   8.950   2.655
   12CHTO   O20 5000   5.035   8.874   2.596
   12CHTO   H36 5001   5.076   8.950   2.634
   12CHTO   C30 5002   4.822   8.749   2.573
   12CHTO   H58 5003   4.881   8.658   2.556
   12CHTO    N6 5004   4.788   8.801   2.438
   12CHTO   H45 5005   4.730   8.728   2.383
   12CHTO   H46 5006   4.878   8.823   2.383
   12CHTO   C33 5007   4.695   8.705   2.653
   12CHTO   H61 5008   4.629   8.793   2.665
   12CHTO   O18 5009   4.735   8.661   2.784
   12CHTO   C28 5010   4.792   8.763   0.019
   12CHTO   H56 5011   4.725   8.849   0.026
   12CHTO   C35 5012   4.814   8.703   0.159
   12CHTO   O24 5013   4.845   8.802   0.258
   12CHTO   H39 5014   4.855   8.760   0.342
   12CHTO    O9 5015   4.614   8.606   2.585
   12CHTO   C13 5016   4.674   8.454   2.580
   12CHTO   H26 5017   4.774   8.454   2.627
   12CHTO   C11 5018   4.680   8.404   2.430
   12CHTO   H24 5019   4.750   8.470   2.376
   12CHTO    O8 5020   4.552   8.418   2.365
   12CHTO    H3 5021   4.488   8.362   2.406
   12CHTO    C9 5022   4.738   8.260   2.431
   12CHTO   H22 5023   4.836   8.268   2.480
   12CHTO    N2 5024   4.770   8.209   2.295
   12CHTO   H10 5025   4.679   8.196   2.238
   12CHTO   H11 5026   4.837   8.277   2.245
   12CHTO    C7 5027   4.647   8.164   2.517
   12CHTO   H20 5028   4.713   8.075   2.533
   12CHTO    O4 5029   4.613   8.217   2.647
   12CHTO   C14 5030   4.586   8.357   2.669
   12CHTO   H27 5031   4.612   8.377   2.775
   12CHTO   C18 5032   4.433   8.384   2.655
   12CHTO   O13 5033   4.358   8.314   2.755
   12CHTO    H7 5034   4.357   8.223   2.735
   12CHTO    O2 5035   4.505   8.111   2.438
   12CHTO    C1 5036   4.482   7.970   2.457
   12CHTO   H14 5037   4.520   7.940   2.557
   12CHTO    C2 5038   4.551   7.878   2.347
   12CHTO   H15 5039   4.514   7.913   2.250
   12CHTO    O6 5040   4.693   7.895   2.355
   12CHTO    H1 5041   4.735   7.849   2.284
   12CHTO    C3 5042   4.513   7.723   2.368
   12CHTO   H16 5043   4.564   7.687   2.459
   12CHTO    N1 5044   4.561   7.637   2.255
   12CHTO    H8 5045   4.514   7.667   2.162
   12CHTO    H9 5046   4.539   7.533   2.275
   12CHTO    C4 5047   4.359   7.704   2.396
   12CHTO   H17 5048   4.303   7.714   2.303
   12CHTO    O1 5049   4.311   7.798   2.494
   12CHTO    C5 5050   4.329   7.937   2.458
   12CHTO   H18 5051   4.289   7.955   2.359
   12CHTO   C16 5052   4.248   8.018   2.561
   12CHTO   O11 5053   4.226   8.152   2.516
   12CHTO    H5 5054   4.173   8.198   2.579
   12CHTO    O3 5055   4.336   7.573   2.454
   12CHTO    C6 5056   4.196   7.529   2.468
   12CHTO   H19 5057   4.126   7.612   2.463
   12CHTO    C8 5058   4.158   7.427   2.356
   12CHTO   H21 5059   4.236   7.350   2.352
   12CHTO    O7 5060   4.155   7.500   2.232
   12CHTO    H2 5061   4.242   7.525   2.207
   12CHTO   C12 5062   4.019   7.357   2.385
   12CHTO   H25 5063   3.942   7.436   2.374
   12CHTO    N3 5064   3.988   7.251   2.283
   12CHTO   H12 5065   3.892   7.206   2.304
   12CHTO   H13 5066   3.988   7.295   2.184
   12CHTO   C15 5067   4.015   7.305   2.533
   12CHTO   H28 5068   4.084   7.221   2.548
   12CHTO   O10 5069   3.876   7.264   2.578
   12CHTO    H4 5070   3.845   7.192   2.527
   12CHTO    O5 5071   4.046   7.411   2.625
   12CHTO   C10 5072   4.178   7.464   2.608
   12CHTO   H23 5073   4.250   7.383   2.620
   12CHTO   C17 5074   4.205   7.563   2.724
   12CHTO   O12 5075   4.113   7.672   2.726
   12CHTO    H6 5076   4.125   7.727   2.651
   13CHTO  H203 5077   8.700   4.605   1.468
   13CHTO   O82 5078   8.614   4.601   1.506
   13CHTO  C123 5079   8.516   4.635   1.407
   13CHTO  H227 5080   8.524   4.565   1.323
   13CHTO   O77 5081   8.390   4.614   1.478
   13CHTO  C118 5082   8.273   4.632   1.398
   13CHTO  H222 5083   8.276   4.566   1.310
   13CHTO  C125 5084   8.149   4.594   1.486
   13CHTO   O84 5085   8.148   4.454   1.513
   13CHTO  H205 5086   8.076   4.434   1.569
   13CHTO  C114 5087   8.264   4.779   1.351
   13CHTO  H218 5088   8.255   4.843   1.438
   13CHTO  C116 5089   8.394   4.820   1.275
   13CHTO  H220 5090   8.397   4.766   1.177
   13CHTO   O79 5091   8.387   4.960   1.244
   13CHTO  H201 5092   8.319   4.976   1.180
   13CHTO  C120 5093   8.524   4.785   1.359
   13CHTO  H224 5094   8.524   4.853   1.447
   13CHTO   N21 5095   8.648   4.812   1.283
   13CHTO  H211 5096   8.729   4.837   1.350
   13CHTO  H212 5097   8.675   4.728   1.221
   13CHTO   O75 5098   8.145   4.788   1.270
   13CHTO  C112 5099   8.047   4.916   1.310
   13CHTO  H216 5100   8.107   4.994   1.358
   13CHTO   O73 5101   7.945   4.865   1.398
   13CHTO  C113 5102   7.851   4.964   1.443
   13CHTO  H217 5103   7.906   5.048   1.491
   13CHTO  C124 5104   7.763   4.899   1.550
   13CHTO   O83 5105   7.683   4.993   1.623
   13CHTO  H204 5106   7.619   5.031   1.566
   13CHTO  C109 5107   7.770   5.017   1.322
   13CHTO  H213 5108   7.716   4.932   1.280
   13CHTO  C110 5109   7.868   5.077   1.217
   13CHTO  H214 5110   7.913   5.167   1.258
   13CHTO   O78 5111   7.793   5.116   1.101
   13CHTO  H200 5112   7.737   5.189   1.121
   13CHTO  C111 5113   7.980   4.974   1.180
   13CHTO  H215 5114   7.934   4.890   1.126
   13CHTO   N19 5115   8.083   5.031   1.089
   13CHTO  H207 5116   8.037   5.065   0.998
   13CHTO  H208 5117   8.157   4.956   1.066
   13CHTO   O74 5118   7.674   5.119   1.364
   13CHTO  C115 5119   7.513   5.095   1.322
   13CHTO  H219 5120   7.489   5.143   1.227
   13CHTO   O76 5121   7.480   4.939   1.302
   13CHTO  C122 5122   7.341   4.907   1.282
   13CHTO  H226 5123   7.331   4.799   1.283
   13CHTO  C126 5124   7.291   4.954   1.140
   13CHTO   O85 5125   7.366   4.897   1.034
   13CHTO  H206 5126   7.335   4.929   0.952
   13CHTO  C121 5127   7.252   4.967   1.397
   13CHTO  H225 5128   7.147   4.946   1.371
   13CHTO   O81 5129   7.279   4.898   1.520
   13CHTO  H202 5130   7.367   4.914   1.548
   13CHTO  C119 5131   7.271   5.121   1.411
   13CHTO  H223 5132   7.240   5.163   1.315
   13CHTO  C117 5133   7.422   5.159   1.434
   13CHTO  H221 5134   7.465   5.125   1.528
   13CHTO   N20 5135   7.438   5.308   1.436
   13CHTO  H209 5136   7.412   5.350   1.339
   13CHTO  H210 5137   7.540   5.334   1.461
   13CHTO   O80 5138   7.161   5.189   1.513
   13CHTO  C103 5139   7.023   5.255   1.454
   13CHTO  H190 5140   6.969   5.306   1.534
   13CHTO  C101 5141   7.039   5.357   1.335
   13CHTO  H188 5142   7.100   5.312   1.257
   13CHTO   O68 5143   7.113   5.483   1.388
   13CHTO  H168 5144   7.200   5.460   1.416
   13CHTO   C99 5145   6.897   5.395   1.271
   13CHTO  H186 5146   6.836   5.448   1.347
   13CHTO   N17 5147   6.906   5.486   1.151
   13CHTO  H174 5148   6.864   5.583   1.175
   13CHTO  H175 5149   7.009   5.495   1.118
   13CHTO   C97 5150   6.817   5.265   1.238
   13CHTO  H184 5151   6.870   5.212   1.156
   13CHTO   O64 5152   6.807   5.184   1.357
   13CHTO  C104 5153   6.932   5.135   1.407
   13CHTO  H191 5154   6.985   5.078   1.330
   13CHTO  C108 5155   6.906   5.037   1.522
   13CHTO   O71 5156   6.835   4.921   1.479
   13CHTO  H171 5157   6.891   4.868   1.425
   13CHTO   O62 5158   6.681   5.293   1.198
   13CHTO   C91 5159   6.599   5.183   1.154
   13CHTO  H178 5160   6.649   5.089   1.178
   13CHTO   C92 5161   6.585   5.186   0.998
   13CHTO  H179 5162   6.558   5.288   0.968
   13CHTO   O66 5163   6.716   5.163   0.942
   13CHTO  H166 5164   6.714   5.174   0.849
   13CHTO   C93 5165   6.481   5.081   0.940
   13CHTO  H180 5166   6.529   4.982   0.944
   13CHTO   N16 5167   6.449   5.104   0.797
   13CHTO  H172 5168   6.540   5.099   0.738
   13CHTO  H173 5169   6.378   5.031   0.762
   13CHTO   C94 5170   6.349   5.076   1.026
   13CHTO  H181 5171   6.288   5.166   1.012
   13CHTO   O61 5172   6.382   5.067   1.166
   13CHTO   C95 5173   6.455   5.179   1.217
   13CHTO  H182 5174   6.401   5.271   1.194
   13CHTO  C106 5175   6.457   5.165   1.373
   13CHTO   O69 5176   6.514   5.281   1.436
   13CHTO  H169 5177   6.514   5.269   1.529
   13CHTO   O63 5178   6.264   4.941   0.986
   13CHTO   C96 5179   6.122   4.920   1.057
   13CHTO  H183 5180   6.072   4.839   1.004
   13CHTO   C98 5181   6.027   5.044   1.051
   13CHTO  H185 5182   6.080   5.133   1.088
   13CHTO   O67 5183   6.000   5.069   0.912
   13CHTO  H167 5184   5.948   5.146   0.903
   13CHTO  C102 5185   5.892   5.021   1.135
   13CHTO  H189 5186   5.837   4.941   1.084
   13CHTO   N18 5187   5.799   5.137   1.138
   13CHTO  H176 5188   5.849   5.223   1.181
   13CHTO  H177 5189   5.767   5.161   1.038
   13CHTO  C105 5190   5.930   4.971   1.277
   13CHTO  H192 5191   5.989   5.048   1.327
   13CHTO   O65 5192   6.012   4.852   1.269
   13CHTO  C100 5193   6.140   4.873   1.207
   13CHTO  H187 5194   6.193   4.950   1.265
   13CHTO  C107 5195   6.219   4.741   1.219
   13CHTO   O70 5196   6.357   4.755   1.182
   13CHTO  H170 5197   6.363   4.772   1.090
   13CHTO   O57 5198   5.792   4.942   1.365
   13CHTO   C85 5199   5.725   4.815   1.367
   13CHTO  H157 5200   5.798   4.738   1.335
   13CHTO   C83 5201   5.611   4.813   1.259
   13CHTO  H155 5202   5.658   4.816   1.161
   13CHTO   O56 5203   5.532   4.934   1.270
   13CHTO  H135 5204   5.584   5.009   1.249
   13CHTO   C81 5205   5.528   4.682   1.272
   13CHTO  H153 5206   5.595   4.598   1.257
   13CHTO   N14 5207   5.426   4.666   1.165
   13CHTO  H141 5208   5.352   4.743   1.172
   13CHTO  H142 5209   5.472   4.671   1.068
   13CHTO   C79 5210   5.467   4.671   1.416
   13CHTO  H151 5211   5.414   4.576   1.422
   13CHTO   O52 5212   5.575   4.666   1.514
   13CHTO   C86 5213   5.664   4.782   1.510
   13CHTO  H158 5214   5.601   4.867   1.546
   13CHTO   C90 5215   5.777   4.765   1.614
   13CHTO   O60 5216   5.725   4.764   1.747
   13CHTO  H138 5217   5.674   4.687   1.762
   13CHTO   O50 5218   5.378   4.778   1.451
   13CHTO   C73 5219   5.241   4.810   1.481
   13CHTO  H145 5220   5.175   4.729   1.447
   13CHTO   C74 5221   5.203   4.942   1.409
   13CHTO  H146 5222   5.224   4.928   1.302
   13CHTO   O54 5223   5.060   4.960   1.420
   13CHTO  H133 5224   5.035   4.973   1.509
   13CHTO   C75 5225   5.286   5.062   1.470
   13CHTO  H147 5226   5.393   5.039   1.459
   13CHTO   N13 5227   5.263   5.191   1.402
   13CHTO  H139 5228   5.291   5.183   1.298
   13CHTO  H140 5229   5.158   5.217   1.407
   13CHTO   C76 5230   5.254   5.067   1.627
   13CHTO  H148 5231   5.146   5.074   1.636
   13CHTO   O49 5232   5.297   4.940   1.686
   13CHTO   C77 5233   5.224   4.827   1.636
   13CHTO  H149 5234   5.118   4.839   1.659
   13CHTO   C88 5235   5.269   4.703   1.715
   13CHTO   O58 5236   5.195   4.581   1.673
   13CHTO  H136 5237   5.105   4.589   1.698
   13CHTO   O51 5238   5.327   5.195   1.712
   13CHTO   C78 5239   5.489   5.214   1.739
   13CHTO  H150 5240   5.504   5.298   1.810
   13CHTO   C80 5241   5.564   5.247   1.609
   13CHTO  H152 5242   5.548   5.165   1.536
   13CHTO   O55 5243   5.504   5.368   1.558
   13CHTO  H134 5244   5.418   5.351   1.525
   13CHTO   C84 5245   5.718   5.268   1.633
   13CHTO  H156 5246   5.730   5.354   1.699
   13CHTO   N15 5247   5.796   5.298   1.507
   13CHTO  H143 5248   5.844   5.393   1.515
   13CHTO  H144 5249   5.731   5.298   1.421
   13CHTO   C87 5250   5.775   5.144   1.705
   13CHTO  H159 5251   5.775   5.058   1.638
   13CHTO   O53 5252   5.691   5.113   1.831
   13CHTO   C82 5253   5.551   5.091   1.809
   13CHTO  H154 5254   5.536   4.999   1.751
   13CHTO   C89 5255   5.491   5.066   1.950
   13CHTO   O59 5256   5.352   5.031   1.949
   13CHTO  H137 5257   5.341   4.948   1.909
   13CHTO   O45 5258   5.925   5.172   1.756
   13CHTO   C67 5259   5.991   5.055   1.807
   13CHTO  H124 5260   5.940   4.964   1.776
   13CHTO   C65 5261   6.138   5.052   1.753
   13CHTO  H122 5262   6.130   5.077   1.647
   13CHTO   O44 5263   6.192   4.919   1.766
   13CHTO  H102 5264   6.205   4.899   1.857
   13CHTO   C63 5265   6.220   5.168   1.819
   13CHTO  H120 5266   6.168   5.263   1.801
   13CHTO   N11 5267   6.354   5.195   1.758
   13CHTO  H108 5268   6.419   5.112   1.775
   13CHTO  H109 5269   6.344   5.212   1.653
   13CHTO   C61 5270   6.222   5.147   1.975
   13CHTO  H118 5271   6.271   5.237   2.017
   13CHTO   O40 5272   6.087   5.145   2.029
   13CHTO   C68 5273   5.987   5.057   1.966
   13CHTO  H125 5274   5.888   5.100   1.994
   13CHTO   C72 5275   5.991   4.914   2.026
   13CHTO   O48 5276   5.955   4.914   2.165
   13CHTO  H105 5277   6.021   4.956   2.215
   13CHTO   O38 5278   6.292   5.027   2.018
   13CHTO   C55 5279   6.382   5.032   2.131
   13CHTO  H112 5280   6.406   4.926   2.151
   13CHTO   C56 5281   6.321   5.103   2.260
   13CHTO  H113 5282   6.279   5.200   2.229
   13CHTO   O42 5283   6.211   5.025   2.309
   13CHTO  H100 5284   6.240   4.940   2.335
   13CHTO   C57 5285   6.432   5.126   2.371
   13CHTO  H114 5286   6.463   5.028   2.406
   13CHTO   N10 5287   6.384   5.203   2.489
   13CHTO  H106 5288   6.279   5.185   2.506
   13CHTO  H107 5289   6.440   5.174   2.577
   13CHTO   C58 5290   6.553   5.196   2.305
   13CHTO  H115 5291   6.520   5.294   2.263
   13CHTO   O37 5292   6.605   5.114   2.200
   13CHTO   C59 5293   6.517   5.096   2.088
   13CHTO  H116 5294   6.500   5.193   2.041
   13CHTO   C70 5295   6.591   5.008   1.986
   13CHTO   O46 5296   6.634   4.882   2.040
   13CHTO  H103 5297   6.703   4.896   2.103
   13CHTO   O39 5298   6.679   5.218   2.406
   13CHTO   C60 5299   6.759   5.332   2.368
   13CHTO  H117 5300   6.732   5.366   2.268
   13CHTO   C62 5301   6.735   5.451   2.466
   13CHTO  H119 5302   6.627   5.476   2.458
   13CHTO   O43 5303   6.761   5.407   2.601
   13CHTO  H101 5304   6.739   5.476   2.662
   13CHTO   C66 5305   6.823   5.577   2.420
   13CHTO  H123 5306   6.794   5.605   2.319
   13CHTO   N12 5307   6.796   5.698   2.503
   13CHTO  H110 5308   6.692   5.724   2.497
   13CHTO  H111 5309   6.859   5.780   2.470
   13CHTO   C69 5310   6.973   5.538   2.417
   13CHTO  H126 5311   7.008   5.512   2.520
   13CHTO   O41 5312   6.992   5.415   2.323
   13CHTO   C64 5313   6.910   5.294   2.364
   13CHTO  H121 5314   6.941   5.259   2.465
   13CHTO   C71 5315   6.936   5.180   2.263
   13CHTO   O47 5316   7.074   5.143   2.260
   13CHTO  H104 5317   7.125   5.212   2.223
   13CHTO   O34 5318   7.061   5.654   2.364
   13CHTO   C49 5319   7.212   5.668   2.361
   13CHTO   H91 5320   7.254   5.567   2.352
   13CHTO   C47 5321   7.259   5.735   2.492
   13CHTO   H89 5322   7.370   5.730   2.488
   13CHTO   O33 5323   7.215   5.659   2.606
   13CHTO   H70 5324   7.255   5.693   2.684
   13CHTO   C45 5325   7.207   5.888   2.502
   13CHTO   H87 5326   7.113   5.889   2.560
   13CHTO    N8 5327   7.307   5.970   2.575
   13CHTO   H75 5328   7.399   5.915   2.592
   13CHTO   H76 5329   7.267   6.003   2.670
   13CHTO   C43 5330   7.165   5.944   2.356
   13CHTO   H85 5331   7.065   5.903   2.337
   13CHTO   O29 5332   7.260   5.899   2.258
   13CHTO   C50 5333   7.261   5.755   2.240
   13CHTO   H92 5334   7.196   5.732   2.155
   13CHTO   C54 5335   7.401   5.712   2.189
   13CHTO   O36 5336   7.508   5.752   2.276
   13CHTO   H72 5337   7.517   5.845   2.274
   13CHTO   O27 5338   7.144   6.086   2.349
   13CHTO   C37 5339   7.102   6.220   2.377
   13CHTO   H79 5340   7.158   6.261   2.462
   13CHTO   C38 5341   7.128   6.312   2.254
   13CHTO   H80 5342   7.080   6.267   2.166
   13CHTO   O31 5343   7.270   6.314   2.233
   13CHTO   H68 5344   7.291   6.361   2.155
   13CHTO   C39 5345   7.072   6.457   2.277
   13CHTO   H81 5346   7.133   6.504   2.356
   13CHTO    N7 5347   7.087   6.543   2.154
   13CHTO   H73 5348   7.191   6.551   2.127
   13CHTO   H74 5349   7.047   6.642   2.174
   13CHTO   C40 5350   6.923   6.454   2.329
   13CHTO   H82 5351   6.852   6.433   2.248
   13CHTO   O26 5352   6.909   6.361   2.438
   13CHTO   C41 5353   6.950   6.224   2.412
   13CHTO   H83 5354   6.892   6.183   2.327
   13CHTO   C52 5355   6.918   6.139   2.537
   13CHTO   O35 5356   6.774   6.136   2.568
   13CHTO   H71 5357   6.745   6.221   2.597
   13CHTO   O28 5358   6.884   6.573   2.400
   13CHTO   C42 5359   6.834   6.696   2.337
   13CHTO   H84 5360   6.855   6.687   2.231
   13CHTO   C44 5361   6.907   6.826   2.386
   13CHTO   H86 5362   6.888   6.839   2.492
   13CHTO   O32 5363   7.048   6.806   2.367
   13CHTO   H69 5364   7.081   6.741   2.427
   13CHTO   C48 5365   6.854   6.954   2.310
   13CHTO   H90 5366   6.880   6.942   2.205
   13CHTO    N9 5367   6.921   7.081   2.356
   13CHTO   H77 5368   6.972   7.128   2.273
   13CHTO   H78 5369   6.989   7.062   2.437
   13CHTO   C51 5370   6.697   6.962   2.321
   13CHTO   H93 5371   6.671   6.979   2.426
   13CHTO   O30 5372   6.639   6.841   2.271
   13CHTO   C46 5373   6.680   6.716   2.352
   13CHTO   H88 5374   6.656   6.733   2.457
   13CHTO   C53 5375   6.598   6.595   2.299
   13CHTO   O72 5376   6.622   6.569   2.160
   13CHTO  H199 5377   6.587   6.639   2.109
   13CHTO   O22 5378   6.644   7.067   2.238
   13CHTO   C31 5379   6.513   7.132   2.263
   13CHTO   H59 5380   6.502   7.208   2.183
   13CHTO   C29 5381   6.391   7.038   2.254
   13CHTO   H57 5382   6.402   6.962   2.332
   13CHTO   O21 5383   6.397   6.971   2.127
   13CHTO   H37 5384   6.332   6.903   2.123
   13CHTO   C27 5385   6.254   7.116   2.275
   13CHTO   H55 5386   6.239   7.183   2.189
   13CHTO    N5 5387   6.139   7.022   2.283
   13CHTO   H43 5388   6.071   7.039   2.201
   13CHTO   H44 5389   6.086   7.033   2.377
   13CHTO   C25 5390   6.263   7.209   2.402
   13CHTO   H53 5391   6.264   7.148   2.493
   13CHTO   O17 5392   6.385   7.289   2.400
   13CHTO   C32 5393   6.506   7.212   2.398
   13CHTO   H60 5394   6.507   7.141   2.480
   13CHTO   C36 5395   6.625   7.309   2.415
   13CHTO   O25 5396   6.621   7.373   2.543
   13CHTO   H40 5397   6.692   7.434   2.550
   13CHTO   O15 5398   6.143   7.311   2.408
   13CHTO   C19 5399   6.020   7.368   2.358
   13CHTO   H47 5400   6.015   7.467   2.407
   13CHTO   C20 5401   6.021   7.391   2.203
   13CHTO   H48 5402   6.046   7.299   2.148
   13CHTO   O19 5403   6.125   7.487   2.176
   13CHTO   H35 5404   6.105   7.570   2.214
   13CHTO   C21 5405   5.881   7.443   2.147
   13CHTO   H49 5406   5.865   7.545   2.183
   13CHTO    N4 5407   5.877   7.449   1.999
   13CHTO   H41 5408   5.895   7.352   1.956
   13CHTO   H42 5409   5.952   7.518   1.962
   13CHTO   C22 5410   5.768   7.355   2.207
   13CHTO   H50 5411   5.781   7.253   2.170
   13CHTO   O14 5412   5.776   7.358   2.350
   13CHTO   C23 5413   5.892   7.291   2.403
   13CHTO   H51 5414   5.891   7.187   2.366
   13CHTO   C34 5415   5.876   7.288   2.555
   13CHTO   O23 5416   5.975   7.205   2.618
   13CHTO   H38 5417   5.962   7.206   2.711
   13CHTO   O16 5418   5.636   7.404   2.172
   13CHTO   C24 5419   5.512   7.323   2.238
   13CHTO   H52 5420   5.537   7.284   2.337
   13CHTO   C26 5421   5.470   7.205   2.148
   13CHTO   H54 5422   5.451   7.243   2.045
   13CHTO   O20 5423   5.580   7.112   2.141
   13CHTO   H36 5424   5.597   7.075   2.226
   13CHTO   C30 5425   5.339   7.138   2.201
   13CHTO   H58 5426   5.357   7.095   2.301
   13CHTO    N6 5427   5.294   7.025   2.116
   13CHTO   H45 5428   5.362   7.007   2.034
   13CHTO   H46 5429   5.195   7.042   2.075
   13CHTO   C33 5430   5.230   7.249   2.219
   13CHTO   H61 5431   5.207   7.293   2.121
   13CHTO   O18 5432   5.280   7.353   2.305
   13CHTO   C28 5433   5.395   7.423   2.257
   13CHTO   H56 5434   5.374   7.471   2.161
   13CHTO   C35 5435   5.436   7.531   2.360
   13CHTO   O24 5436   5.332   7.626   2.385
   13CHTO   H39 5437   5.362   7.688   2.449
   13CHTO    O9 5438   5.104   7.197   2.268
   13CHTO   C13 5439   5.101   7.157   2.427
   13CHTO   H26 5440   5.199   7.183   2.472
   13CHTO   C11 5441   5.071   7.001   2.439
   13CHTO   H24 5442   5.162   6.947   2.411
   13CHTO    O8 5443   4.967   6.963   2.348
   13CHTO    H3 5444   4.887   7.008   2.368
   13CHTO    C9 5445   5.036   6.970   2.588
   13CHTO   H22 5446   5.120   7.011   2.646
   13CHTO    N2 5447   5.038   6.825   2.620
   13CHTO   H10 5448   5.045   6.765   2.531
   13CHTO   H11 5449   4.950   6.798   2.677
   13CHTO    C7 5450   4.905   7.049   2.629
   13CHTO   H20 5451   4.927   7.084   2.732
   13CHTO    O4 5452   4.879   7.163   2.544
   13CHTO   C14 5453   4.993   7.243   2.507
   13CHTO   H27 5454   5.040   7.280   2.601
   13CHTO   C18 5455   4.943   7.367   2.429
   13CHTO   O13 5456   4.859   7.450   2.509
   13CHTO    H7 5457   4.776   7.408   2.524
   13CHTO    O2 5458   4.766   6.955   2.631
   13CHTO    C1 5459   4.665   6.992   2.727
   13CHTO   H14 5460   4.573   6.935   2.702
   13CHTO    C2 5461   4.628   7.147   2.731
   13CHTO   H15 5462   4.722   7.202   2.746
   13CHTO    O6 5463   4.571   7.184   2.604
   13CHTO    H1 5464   4.636   7.179   2.536
   13CHTO    C3 5465   4.526   7.182   0.003
   13CHTO   H16 5466   4.427   7.141   2.826
   13CHTO    N1 5467   4.510   7.331   0.020
   13CHTO    H8 5468   4.567   7.385   2.795
   13CHTO    H9 5469   4.539   7.362   0.119
   13CHTO    C4 5470   4.570   7.110   0.137
   13CHTO   H17 5471   4.659   7.160   0.176
   13CHTO    O1 5472   4.601   6.971   0.114
   13CHTO    C5 5473   4.707   6.946   0.021
   13CHTO   H18 5474   4.796   7.002   0.051
   13CHTO   C16 5475   4.739   6.795   0.026
   13CHTO   O11 5476   4.793   6.757   0.153
   13CHTO    H5 5477   4.814   6.666   0.153
   13CHTO    O3 5478   4.467   7.116   0.240
   13CHTO    C6 5479   4.360   7.014   0.248
   13CHTO   H19 5480   4.348   6.959   0.154
   13CHTO    C8 5481   4.390   6.911   0.363
   13CHTO   H21 5482   4.402   6.967   0.456
   13CHTO    O7 5483   4.511   6.841   0.333
   13CHTO    H2 5484   4.585   6.900   0.335
   13CHTO   C12 5485   4.269   6.810   0.381
   13CHTO   H25 5486   4.267   6.748   0.289
   13CHTO    N3 5487   4.291   6.714   0.496
   13CHTO   H12 5488   4.387   6.731   0.542
   13CHTO   H13 5489   4.212   6.723   0.569
   13CHTO   C15 5490   4.134   6.889   0.391
   13CHTO   H28 5491   4.126   6.943   0.486
   13CHTO   O10 5492   4.009   6.798   0.374
   13CHTO    H4 5493   3.931   6.847   0.394
   13CHTO    O5 5494   4.120   6.980   0.281
   13CHTO   C10 5495   4.222   7.081   0.278
   13CHTO   H23 5496   4.225   7.131   0.376
   13CHTO   C17 5497   4.178   7.185   0.174
   13CHTO   O12 5498   4.237   7.313   0.200
   13CHTO    H6 5499   4.198   7.351   0.276
   14CHTO  H203 5500   7.282   4.448   1.921
   14CHTO   O82 5501   7.211   4.500   1.954
   14CHTO  C123 5502   7.136   4.559   1.846
   14CHTO  H227 5503   7.206   4.603   1.774
   14CHTO   O77 5504   7.069   4.443   1.785
   14CHTO  C118 5505   6.979   4.476   1.678
   14CHTO  H222 5506   7.032   4.537   1.603
   14CHTO  C125 5507   6.930   4.343   1.609
   14CHTO   O84 5508   6.856   4.259   1.698
   14CHTO  H205 5509   6.912   4.227   1.766
   14CHTO  C114 5510   6.864   4.560   1.736
   14CHTO  H218 5511   6.822   4.507   1.822
   14CHTO  C116 5512   6.922   4.694   1.790
   14CHTO  H220 5513   6.967   4.751   1.705
   14CHTO   O79 5514   6.814   4.775   1.840
   14CHTO  H201 5515   6.774   4.734   1.914
   14CHTO  C120 5516   7.032   4.665   1.899
   14CHTO  H224 5517   6.978   4.624   1.987
   14CHTO   N21 5518   7.099   4.790   1.945
   14CHTO  H211 5519   7.185   4.812   1.883
   14CHTO  H212 5520   7.130   4.780   2.048
   14CHTO   O75 5521   6.765   4.576   1.632
   14CHTO  C112 5522   6.612   4.549   1.689
   14CHTO  H216 5523   6.595   4.614   1.777
   14CHTO   O73 5524   6.601   4.410   1.723
   14CHTO  C113 5525   6.475   4.371   1.779
   14CHTO  H217 5526   6.453   4.435   1.866
   14CHTO  C124 5527   6.489   4.227   1.829
   14CHTO   O83 5528   6.378   4.183   1.909
   14CHTO  H204 5529   6.302   4.177   1.855
   14CHTO  C109 5530   6.365   4.389   1.671
   14CHTO  H213 5531   6.389   4.321   1.588
   14CHTO  C110 5532   6.364   4.537   1.621
   14CHTO  H214 5533   6.326   4.601   1.701
   14CHTO   O78 5534   6.270   4.546   1.512
   14CHTO  H200 5535   6.259   4.636   1.485
   14CHTO  C111 5536   6.506   4.584   1.577
   14CHTO  H215 5537   6.535   4.529   1.487
   14CHTO   N19 5538   6.512   4.729   1.543
   14CHTO  H207 5539   6.486   4.788   1.629
   14CHTO  H208 5540   6.612   4.754   1.509
   14CHTO   O74 5541   6.234   4.354   1.726
   14CHTO  C115 5542   6.150   4.253   1.631
   14CHTO  H219 5543   6.161   4.279   1.525
   14CHTO   O76 5544   6.204   4.103   1.644
   14CHTO  C122 5545   6.125   4.001   1.582
   14CHTO  H226 5546   6.168   3.905   1.612
   14CHTO  C126 5547   6.141   4.008   1.425
   14CHTO   O85 5548   6.077   3.899   1.358
   14CHTO  H206 5549   6.088   3.908   1.266
   14CHTO  C121 5550   5.975   4.009   1.628
   14CHTO  H225 5551   5.918   3.934   1.570
   14CHTO   O81 5552   5.965   3.970   1.766
   14CHTO  H202 5553   6.010   4.031   1.821
   14CHTO  C119 5554   5.914   4.149   1.603
   14CHTO  H223 5555   5.919   4.165   1.495
   14CHTO  C117 5556   5.998   4.265   1.670
   14CHTO  H221 5557   5.997   4.264   1.779
   14CHTO   N20 5558   5.946   4.400   1.631
   14CHTO  H209 5559   5.906   4.452   1.717
   14CHTO  H210 5560   5.871   4.393   1.553
   14CHTO   O80 5561   5.758   4.151   1.628
   14CHTO  C103 5562   5.664   4.168   1.508
   14CHTO  H190 5563   5.701   4.248   1.444
   14CHTO  C101 5564   5.639   4.039   1.420
   14CHTO  H188 5565   5.613   3.956   1.486
   14CHTO   O68 5566   5.771   4.003   1.345
   14CHTO  H168 5567   5.839   3.983   1.407
   14CHTO   C99 5568   5.519   4.062   1.317
   14CHTO  H186 5569   5.552   4.136   1.240
   14CHTO   N17 5570   5.481   3.938   1.241
   14CHTO  H174 5571   5.439   3.865   1.308
   14CHTO  H175 5572   5.412   3.963   1.162
   14CHTO   C97 5573   5.396   4.127   1.387
   14CHTO  H184 5574   5.348   4.050   1.451
   14CHTO   O64 5575   5.435   4.243   1.462
   14CHTO  C104 5576   5.527   4.218   1.569
   14CHTO  H191 5577   5.490   4.142   1.638
   14CHTO  C108 5578   5.546   4.346   1.651
   14CHTO   O71 5579   5.425   4.385   1.716
   14CHTO  H171 5580   5.403   4.324   1.783
   14CHTO   O62 5581   5.303   4.178   1.290
   14CHTO   C91 5582   5.164   4.182   1.327
   14CHTO  H178 5583   5.142   4.089   1.380
   14CHTO   C92 5584   5.079   4.177   1.195
   14CHTO  H179 5585   5.115   4.095   1.131
   14CHTO   O66 5586   4.944   4.141   1.229
   14CHTO  H166 5587   4.906   4.204   1.287
   14CHTO   C93 5588   5.076   4.315   1.119
   14CHTO  H180 5589   4.989   4.311   1.051
   14CHTO   N16 5590   5.193   4.336   1.029
   14CHTO  H172 5591   5.184   4.431   0.978
   14CHTO  H173 5592   5.198   4.255   0.957
   14CHTO   C94 5593   5.057   4.435   1.220
   14CHTO  H181 5594   5.148   4.495   1.231
   14CHTO   O61 5595   5.022   4.390   1.352
   14CHTO   C95 5596   5.122   4.308   1.415
   14CHTO  H182 5597   5.210   4.370   1.435
   14CHTO  C106 5598   5.065   4.265   1.556
   14CHTO   O69 5599   5.163   4.193   1.632
   14CHTO  H169 5600   5.178   4.109   1.593
   14CHTO   O63 5601   4.941   4.526   1.164
   14CHTO   C96 5602   4.924   4.666   1.235
   14CHTO  H183 5603   5.014   4.688   1.292
   14CHTO   C98 5604   4.802   4.671   1.331
   14CHTO  H185 5605   4.717   4.619   1.284
   14CHTO   O67 5606   4.834   4.592   1.447
   14CHTO  H167 5607   4.842   4.501   1.424
   14CHTO  C102 5608   4.757   4.818   1.378
   14CHTO  H189 5609   4.830   4.848   1.455
   14CHTO   N18 5610   4.624   4.824   1.444
   14CHTO  H176 5611   4.548   4.790   1.375
   14CHTO  H177 5612   4.603   4.924   1.477
   14CHTO  C105 5613   4.768   4.920   1.260
   14CHTO  H192 5614   4.683   4.906   1.193
   14CHTO   O65 5615   4.890   4.906   1.185
   14CHTO  C100 5616   4.909   4.777   1.125
   14CHTO  H187 5617   4.822   4.753   1.062
   14CHTO  C107 5618   5.034   4.782   1.033
   14CHTO   O70 5619   5.015   4.875   0.925
   14CHTO  H170 5620   4.952   4.841   0.865
   14CHTO   O57 5621   4.764   5.068   1.329
   14CHTO   C85 5622   4.729   5.183   1.251
   14CHTO  H157 5623   4.651   5.149   1.179
   14CHTO   C83 5624   4.851   5.229   1.163
   14CHTO  H155 5625   4.875   5.148   1.094
   14CHTO   O56 5626   4.966   5.246   1.247
   14CHTO  H135 5627   4.953   5.317   1.307
   14CHTO   C81 5628   4.811   5.355   1.081
   14CHTO  H153 5629   4.724   5.329   1.020
   14CHTO   N14 5630   4.916   5.392   0.981
   14CHTO  H141 5631   4.945   5.494   0.993
   14CHTO  H142 5632   4.880   5.377   0.882
   14CHTO   C79 5633   4.770   5.472   1.178
   14CHTO  H151 5634   4.733   5.554   1.116
   14CHTO   O52 5635   4.659   5.431   1.264
   14CHTO   C86 5636   4.680   5.306   1.338
   14CHTO  H158 5637   4.756   5.333   1.414
   14CHTO   C90 5638   4.552   5.270   1.417
   14CHTO   O60 5639   4.439   5.251   1.330
   14CHTO  H138 5640   4.451   5.174   1.278
   14CHTO   O50 5641   4.878   5.523   1.259
   14CHTO   C73 5642   4.905   5.638   1.340
   14CHTO  H145 5643   4.832   5.644   1.422
   14CHTO   C74 5644   4.897   5.769   1.256
   14CHTO  H146 5645   4.795   5.776   1.215
   14CHTO   O54 5646   4.912   5.881   1.346
   14CHTO  H133 5647   4.900   5.962   1.299
   14CHTO   C75 5648   5.006   5.765   1.143
   14CHTO  H147 5649   4.982   5.682   1.075
   14CHTO   N13 5650   5.008   5.886   1.057
   14CHTO  H139 5651   4.993   5.860   0.954
   14CHTO  H140 5652   5.101   5.940   1.067
   14CHTO   C76 5653   5.150   5.733   1.206
   14CHTO  H148 5654   5.185   5.822   1.260
   14CHTO   O49 5655   5.147   5.618   1.297
   14CHTO   C77 5656   5.048   5.626   1.401
   14CHTO  H149 5657   5.067   5.713   1.465
   14CHTO   C88 5658   5.059   5.504   1.493
   14CHTO   O58 5659   5.192   5.498   1.557
   14CHTO  H136 5660   5.197   5.423   1.613
   14CHTO   O51 5661   5.248   5.687   1.092
   14CHTO   C78 5662   5.396   5.727   1.114
   14CHTO  H150 5663   5.412   5.767   1.217
   14CHTO   C80 5664   5.436   5.835   1.011
   14CHTO  H152 5665   5.399   5.803   0.911
   14CHTO   O55 5666   5.366   5.956   1.046
   14CHTO  H134 5667   5.395   5.989   1.129
   14CHTO   C84 5668   5.592   5.858   1.005
   14CHTO  H156 5669   5.622   5.907   1.097
   14CHTO   N15 5670   5.631   5.949   0.893
   14CHTO  H143 5671   5.737   5.965   0.893
   14CHTO  H144 5672   5.602   5.907   0.799
   14CHTO   C87 5673   5.666   5.722   0.996
   14CHTO  H159 5674   5.643   5.673   0.901
   14CHTO   O53 5675   5.622   5.635   1.111
   14CHTO   C82 5676   5.483   5.601   1.100
   14CHTO  H154 5677   5.464   5.553   1.003
   14CHTO   C89 5678   5.449   5.496   1.208
   14CHTO   O59 5679   5.469   5.547   1.341
   14CHTO  H137 5680   5.560   5.562   1.356
   14CHTO   O45 5681   5.825   5.741   1.008
   14CHTO   C67 5682   5.900   5.632   0.952
   14CHTO  H124 5683   5.837   5.544   0.936
   14CHTO   C65 5684   5.962   5.677   0.816
   14CHTO  H122 5685   5.882   5.729   0.762
   14CHTO   O44 5686   6.003   5.562   0.740
   14CHTO  H102 5687   5.928   5.510   0.717
   14CHTO   C63 5688   6.073   5.785   0.843
   14CHTO  H120 5689   6.029   5.867   0.900
   14CHTO   N11 5690   6.125   5.857   0.722
   14CHTO  H108 5691   6.191   5.936   0.752
   14CHTO  H109 5692   6.043   5.898   0.666
   14CHTO   C61 5693   6.185   5.722   0.934
   14CHTO  H118 5694   6.255   5.804   0.959
   14CHTO   O40 5695   6.128   5.677   1.060
   14CHTO   C68 5696   6.011   5.587   1.057
   14CHTO  H125 5697   5.964   5.593   1.157
   14CHTO   C72 5698   6.054   5.439   1.037
   14CHTO   O48 5699   6.140   5.393   1.143
   14CHTO  H105 5700   6.091   5.387   1.223
   14CHTO   O38 5701   6.257   5.611   0.876
   14CHTO   C55 5702   6.385   5.631   0.813
   14CHTO  H112 5703   6.401   5.737   0.790
   14CHTO   C56 5704   6.390   5.541   0.682
   14CHTO  H113 5705   6.356   5.440   0.712
   14CHTO   O42 5706   6.293   5.589   0.587
   14CHTO  H100 5707   6.206   5.578   0.620
   14CHTO   C57 5708   6.534   5.535   0.617
   14CHTO  H114 5709   6.549   5.630   0.566
   14CHTO   N10 5710   6.547   5.428   0.514
   14CHTO  H106 5711   6.453   5.411   0.464
   14CHTO  H107 5712   6.621   5.456   0.441
   14CHTO   C58 5713   6.645   5.518   0.724
   14CHTO  H115 5714   6.645   5.413   0.762
   14CHTO   O37 5715   6.626   5.608   0.835
   14CHTO   C59 5716   6.502   5.586   0.905
   14CHTO  H116 5717   6.491   5.481   0.931
   14CHTO   C70 5718   6.505   5.666   1.035
   14CHTO   O46 5719   6.602   5.616   1.128
   14CHTO  H103 5720   6.689   5.632   1.095
   14CHTO   O39 5721   6.791   5.557   0.657
   14CHTO   C60 5722   6.907   5.521   0.734
   14CHTO  H117 5723   6.895   5.558   0.835
   14CHTO   C62 5724   6.928   5.366   0.741
   14CHTO  H119 5725   6.840   5.326   0.795
   14CHTO   O43 5726   6.930   5.311   0.608
   14CHTO  H101 5727   6.937   5.217   0.613
   14CHTO   C66 5728   7.060   5.334   0.826
   14CHTO  H123 5729   7.054   5.388   0.921
   14CHTO   N12 5730   7.074   5.191   0.860
   14CHTO  H110 5731   7.073   5.177   0.968
   14CHTO  H111 5732   6.996   5.131   0.813
   14CHTO   C69 5733   7.182   5.391   0.750
   14CHTO  H126 5734   7.187   5.348   0.647
   14CHTO   O41 5735   7.165   5.546   0.741
   14CHTO   C64 5736   7.032   5.592   0.673
   14CHTO  H121 5737   7.036   5.569   0.565
   14CHTO   C71 5738   7.019   5.745   0.689
   14CHTO   O47 5739   7.125   5.814   0.622
   14CHTO  H104 5740   7.113   5.807   0.529
   14CHTO   O34 5741   7.316   5.359   0.821
   14CHTO   C49 5742   7.460   5.365   0.779
   14CHTO   H91 5743   7.473   5.294   0.698
   14CHTO   C47 5744   7.546   5.323   0.901
   14CHTO   H89 5745   7.651   5.321   0.863
   14CHTO   O33 5746   7.511   5.190   0.943
   14CHTO   H70 5747   7.571   5.160   1.009
   14CHTO   C45 5748   7.528   5.429   1.022
   14CHTO   H87 5749   7.444   5.396   1.085
   14CHTO    N8 5750   7.652   5.426   1.105
   14CHTO   H75 5751   7.694   5.525   1.114
   14CHTO   H76 5752   7.630   5.387   1.203
   14CHTO   C43 5753   7.483   5.573   0.965
   14CHTO   H85 5754   7.375   5.567   0.955
   14CHTO   O29 5755   7.548   5.598   0.839
   14CHTO   C50 5756   7.506   5.508   0.734
   14CHTO   H92 5757   7.424   5.554   0.679
   14CHTO   C54 5758   7.619   5.498   0.629
   14CHTO   O36 5759   7.653   5.626   0.576
   14CHTO   H72 5760   7.722   5.617   0.513
   14CHTO   O27 5761   7.504   5.682   1.056
   14CHTO   C37 5762   7.427   5.799   1.091
   14CHTO   H79 5763   7.493   5.874   1.137
   14CHTO   C38 5764   7.363   5.866   0.965
   14CHTO   H80 5765   7.309   5.789   0.908
   14CHTO   O31 5766   7.472   5.916   0.884
   14CHTO   H68 5767   7.438   5.951   0.804
   14CHTO   C39 5768   7.263   5.981   1.007
   14CHTO   H81 5769   7.322   6.059   1.055
   14CHTO    N7 5770   7.193   6.044   0.889
   14CHTO   H73 5771   7.128   6.123   0.924
   14CHTO   H74 5772   7.136   5.970   0.836
   14CHTO   C40 5773   7.161   5.926   1.114
   14CHTO   H82 5774   7.097   5.850   1.068
   14CHTO   O26 5775   7.234   5.874   1.226
   14CHTO   C41 5776   7.318   5.759   1.194
   14CHTO   H83 5777   7.256   5.679   1.152
   14CHTO   C52 5778   7.380   5.706   1.326
   14CHTO   O35 5779   7.464   5.808   1.396
   14CHTO   H71 5780   7.500   5.770   1.474
   14CHTO   O28 5781   7.077   6.030   1.169
   14CHTO   C42 5782   6.956   6.001   1.247
   14CHTO   H84 5783   6.919   6.099   1.274
   14CHTO   C44 5784   6.976   5.923   1.381
   14CHTO   H86 5785   7.015   5.824   1.359
   14CHTO   O32 5786   7.074   5.996   1.458
   14CHTO   H69 5787   7.159   5.989   1.417
   14CHTO   C48 5788   6.841   5.906   1.462
   14CHTO   H90 5789   6.812   6.005   1.500
   14CHTO    N9 5790   6.858   5.820   1.585
   14CHTO   H77 5791   6.893   5.722   1.557
   14CHTO   H78 5792   6.928   5.867   1.653
   14CHTO   C51 5793   6.724   5.853   1.370
   14CHTO   H93 5794   6.741   5.747   1.350
   14CHTO   O30 5795   6.716   5.931   1.250
   14CHTO   C46 5796   6.843   5.931   1.165
   14CHTO   H88 5797   6.871   5.828   1.144
   14CHTO   C53 5798   6.814   6.006   1.033
   14CHTO   O72 5799   6.716   5.938   0.954
   14CHTO  H199 5800   6.752   5.858   0.921
   14CHTO   O22 5801   6.597   5.873   1.437
   14CHTO   C31 5802   6.470   5.821   1.385
   14CHTO   H59 5803   6.491   5.782   1.284
   14CHTO   C29 5804   6.411   5.703   1.467
   14CHTO   H57 5805   6.408   5.736   1.572
   14CHTO   O21 5806   6.505   5.594   1.460
   14CHTO   H37 5807   6.479   5.525   1.518
   14CHTO   C27 5808   6.265   5.662   1.422
   14CHTO   H55 5809   6.270   5.619   1.320
   14CHTO    N5 5810   6.203   5.561   1.512
   14CHTO   H43 5811   6.107   5.531   1.474
   14CHTO   H44 5812   6.193   5.601   1.611
   14CHTO   C25 5813   6.176   5.791   1.412
   14CHTO   H53 5814   6.171   5.839   1.511
   14CHTO   O17 5815   6.240   5.882   1.319
   14CHTO   C32 5816   6.365   5.934   1.365
   14CHTO   H60 5817   6.348   5.983   1.461
   14CHTO   C36 5818   6.411   6.042   1.264
   14CHTO   O25 5819   6.427   5.991   1.131
   14CHTO   H40 5820   6.343   5.968   1.095
   14CHTO   O15 5821   6.026   5.764   1.358
   14CHTO   C19 5822   5.897   5.827   1.333
   14CHTO   H47 5823   5.865   5.782   1.238
   14CHTO   C20 5824   5.786   5.796   1.439
   14CHTO   H48 5825   5.817   5.829   1.540
   14CHTO   O19 5826   5.772   5.653   1.442
   14CHTO   H35 5827   5.713   5.628   1.511
   14CHTO   C21 5828   5.648   5.865   1.404
   14CHTO   H49 5829   5.607   5.817   1.315
   14CHTO    N4 5830   5.546   5.849   1.511
   14CHTO   H41 5831   5.515   5.944   1.552
   14CHTO   H42 5832   5.459   5.797   1.473
   14CHTO   C22 5833   5.670   6.015   1.366
   14CHTO   H50 5834   5.695   6.071   1.456
   14CHTO   O14 5835   5.774   6.027   1.268
   14CHTO   C23 5836   5.903   5.980   1.307
   14CHTO   H51 5837   5.933   6.036   1.398
   14CHTO   C34 5838   5.998   6.018   1.193
   14CHTO   O23 5839   6.023   6.159   1.193
   14CHTO   H38 5840   6.084   6.180   1.124
   14CHTO   O16 5841   5.554   6.071   1.300
   14CHTO   C24 5842   5.538   6.241   1.293
   14CHTO   H52 5843   5.487   6.273   1.202
   14CHTO   C26 5844   5.674   6.314   1.298
   14CHTO   H54 5845   5.735   6.272   1.381
   14CHTO   O20 5846   5.740   6.288   1.173
   14CHTO   H36 5847   5.827   6.322   1.175
   14CHTO   C30 5848   5.659   6.468   1.323
   14CHTO   H58 5849   5.614   6.515   1.234
   14CHTO    N6 5850   5.792   6.531   1.342
   14CHTO   H45 5851   5.808   6.609   1.269
   14CHTO   H46 5852   5.802   6.574   1.441
   14CHTO   C33 5853   5.561   6.494   1.441
   14CHTO   H61 5854   5.604   6.456   1.535
   14CHTO   O18 5855   5.436   6.426   1.417
   14CHTO   C28 5856   5.447   6.282   1.411
   14CHTO   H56 5857   5.489   6.244   1.504
   14CHTO   C35 5858   5.305   6.221   1.394
   14CHTO   O24 5859   5.237   6.266   1.277
   14CHTO   H39 5860   5.153   6.224   1.271
   14CHTO    O9 5861   5.540   6.635   1.462
   14CHTO   C13 5862   5.477   6.673   1.607
   14CHTO   H26 5863   5.510   6.596   1.680
   14CHTO   C11 5864   5.319   6.678   1.595
   14CHTO   H24 5865   5.281   6.575   1.597
   14CHTO    O8 5866   5.281   6.738   1.470
   14CHTO    H3 5867   5.307   6.683   1.398
   14CHTO    C9 5868   5.263   6.757   1.717
   14CHTO   H22 5869   5.309   6.709   1.806
   14CHTO    N2 5870   5.117   6.740   1.738
   14CHTO   H10 5871   5.063   6.785   1.655
   14CHTO   H11 5872   5.093   6.635   1.747
   14CHTO    C7 5873   5.314   6.907   1.710
   14CHTO   H20 5874   5.324   6.938   1.816
   14CHTO    O4 5875   5.443   6.919   1.644
   14CHTO   C14 5876   5.536   6.811   1.661
   14CHTO   H27 5877   5.557   6.800   1.770
   14CHTO   C18 5878   5.668   6.854   1.594
   14CHTO   O13 5879   5.771   6.757   1.617
   14CHTO    H7 5880   5.850   6.785   1.575
   14CHTO    O2 5881   5.209   7.008   1.632
   14CHTO    C1 5882   5.209   7.148   1.665
   14CHTO   H14 5883   5.157   7.201   1.583
   14CHTO    C2 5884   5.351   7.217   1.687
   14CHTO   H15 5885   5.398   7.168   1.774
   14CHTO    O6 5886   5.432   7.197   1.570
   14CHTO    H1 5887   5.453   7.106   1.561
   14CHTO    C3 5888   5.330   7.374   1.716
   14CHTO   H16 5889   5.287   7.420   1.626
   14CHTO    N1 5890   5.459   7.445   1.745
   14CHTO    H8 5891   5.525   7.438   1.660
   14CHTO    H9 5892   5.506   7.402   1.832
   14CHTO    C4 5893   5.223   7.395   1.831
   14CHTO   H17 5894   5.269   7.372   1.927
   14CHTO    O1 5895   5.105   7.316   1.810
   14CHTO    C5 5896   5.125   7.174   1.793
   14CHTO   H18 5897   5.179   7.135   1.879
   14CHTO   C16 5898   4.985   7.108   1.788
   14CHTO   O11 5899   4.918   7.120   1.914
   14CHTO    H5 5900   4.961   7.066   1.978
   14CHTO    O3 5901   5.172   7.530   1.829
   14CHTO    C6 5902   5.140   7.590   1.959
   14CHTO   H19 5903   5.159   7.524   2.043
   14CHTO    C8 5904   5.227   7.719   1.978
   14CHTO   H21 5905   5.214   7.783   1.891
   14CHTO    O7 5906   5.364   7.676   1.987
   14CHTO    H2 5907   5.421   7.750   1.989
   14CHTO   C12 5908   5.182   7.798   2.108
   14CHTO   H25 5909   5.208   7.734   2.194
   14CHTO    N3 5910   5.259   7.926   2.124
   14CHTO   H12 5911   5.244   7.990   2.039
   14CHTO   H13 5912   5.364   7.904   2.137
   14CHTO   C15 5913   5.026   7.820   2.106
   14CHTO   H28 5914   4.996   7.891   2.028
   14CHTO   O10 5915   4.971   7.869   2.244
   14CHTO    H4 5916   4.998   7.810   2.312
   14CHTO    O5 5917   4.958   7.695   2.089
   14CHTO   C10 5918   4.989   7.628   1.965
   14CHTO   H23 5919   4.964   7.695   1.883
   14CHTO   C17 5920   4.895   7.507   1.954
   14CHTO   O12 5921   4.914   7.411   2.059
   14CHTO    H6 5922   4.997   7.369   2.048
   15CHTO  H203 5923   7.918   4.534   1.497
   15CHTO   O82 5924   7.832   4.559   1.522
   15CHTO  C123 5925   7.735   4.501   1.433
   15CHTO  H227 5926   7.745   4.391   1.437
   15CHTO   O77 5927   7.608   4.542   1.492
   15CHTO  C118 5928   7.491   4.487   1.430
   15CHTO  H222 5929   7.493   4.377   1.436
   15CHTO  C125 5930   7.370   4.541   1.514
   15CHTO   O84 5931   7.248   4.474   1.482
   15CHTO  H205 5932   7.221   4.494   1.395
   15CHTO  C114 5933   7.485   4.534   1.282
   15CHTO  H218 5934   7.479   4.642   1.281
   15CHTO  C116 5935   7.618   4.501   1.207
   15CHTO  H220 5936   7.629   4.391   1.195
   15CHTO   O79 5937   7.608   4.557   1.075
   15CHTO  H201 5938   7.683   4.534   1.024
   15CHTO  C120 5939   7.743   4.556   1.286
   15CHTO  H224 5940   7.735   4.667   1.286
   15CHTO   N21 5941   7.872   4.520   1.220
   15CHTO  H211 5942   7.863   4.425   1.169
   15CHTO  H212 5943   7.901   4.598   1.151
   15CHTO   O75 5944   7.366   4.480   1.222
   15CHTO  C112 5945   7.340   4.310   1.216
   15CHTO  H216 5946   7.330   4.271   1.319
   15CHTO   O73 5947   7.452   4.250   1.147
   15CHTO  C113 5948   7.449   4.107   1.145
   15CHTO  H217 5949   7.439   4.068   1.249
   15CHTO  C124 5950   7.584   4.061   1.090
   15CHTO   O83 5951   7.605   3.919   1.100
   15CHTO  H204 5952   7.613   3.895   1.191
   15CHTO  C109 5953   7.328   4.060   1.059
   15CHTO  H213 5954   7.345   4.098   0.956
   15CHTO  C110 5955   7.196   4.122   1.116
   15CHTO  H214 5956   7.175   4.075   1.212
   15CHTO   O78 5957   7.086   4.088   1.029
   15CHTO  H200 5958   7.099   4.126   0.944
   15CHTO  C111 5959   7.209   4.276   1.135
   15CHTO  H215 5960   7.218   4.323   1.036
   15CHTO   N19 5961   7.091   4.339   1.200
   15CHTO  H207 5962   7.106   4.445   1.209
   15CHTO  H208 5963   7.002   4.320   1.141
   15CHTO   O74 5964   7.321   3.914   1.055
   15CHTO  C115 5965   7.273   3.856   0.913
   15CHTO  H219 5966   7.179   3.902   0.880
   15CHTO   O76 5967   7.378   3.891   0.797
   15CHTO  C122 5968   7.479   3.791   0.780
   15CHTO  H226 5969   7.533   3.783   0.875
   15CHTO  C126 5970   7.584   3.844   0.676
   15CHTO   O85 5971   7.696   3.757   0.660
   15CHTO  H206 5972   7.669   3.677   0.618
   15CHTO  C121 5973   7.417   3.651   0.738
   15CHTO  H225 5974   7.418   3.645   0.627
   15CHTO   O81 5975   7.501   3.547   0.790
   15CHTO  H202 5976   7.477   3.464   0.753
   15CHTO  C119 5977   7.270   3.633   0.788
   15CHTO  H223 5978   7.208   3.688   0.717
   15CHTO  C117 5979   7.250   3.701   0.929
   15CHTO  H221 5980   7.320   3.669   1.007
   15CHTO   N20 5981   7.114   3.674   0.985
   15CHTO  H209 5982   7.038   3.715   0.920
   15CHTO  H210 5983   7.106   3.717   1.084
   15CHTO   O80 5984   7.216   3.479   0.766
   15CHTO  C103 5985   7.067   3.454   0.714
   15CHTO  H190 5986   6.995   3.513   0.770
   15CHTO  C101 5987   7.042   3.478   0.560
   15CHTO  H188 5988   7.120   3.427   0.503
   15CHTO   O68 5989   7.052   3.627   0.532
   15CHTO  H168 5990   7.139   3.657   0.549
   15CHTO   C99 5991   6.900   3.418   0.516
   15CHTO  H186 5992   6.820   3.467   0.575
   15CHTO   N17 5993   6.868   3.439   0.371
   15CHTO  H174 5994   6.873   3.544   0.348
   15CHTO  H175 5995   6.770   3.399   0.349
   15CHTO   C97 5996   6.896   3.267   0.558
   15CHTO  H184 5997   6.977   3.215   0.505
   15CHTO   O64 5998   6.912   3.259   0.701
   15CHTO  C104 5999   7.040   3.302   0.750
   15CHTO  H191 6000   7.120   3.241   0.708
   15CHTO  C108 6001   7.046   3.284   0.902
   15CHTO   O71 6002   7.041   3.147   0.941
   15CHTO  H171 6003   6.956   3.112   0.924
   15CHTO   O62 6004   6.769   3.202   0.537
   15CHTO   C91 6005   6.755   3.118   0.420
   15CHTO  H178 6006   6.772   3.182   0.333
   15CHTO   C92 6007   6.605   3.072   0.408
   15CHTO  H179 6008   6.538   3.157   0.427
   15CHTO   O66 6009   6.581   3.034   0.272
   15CHTO  H166 6010   6.490   3.016   0.258
   15CHTO   C93 6011   6.571   2.948   0.500
   15CHTO  H180 6012   6.475   2.909   0.464
   15CHTO   N16 6013   6.546   2.986   0.641
   15CHTO  H172 6014   6.523   2.898   0.699
   15CHTO  H173 6015   6.464   3.056   0.646
   15CHTO   C94 6016   6.681   2.835   0.486
   15CHTO  H181 6017   6.733   2.816   0.581
   15CHTO   O61 6018   6.784   2.866   0.391
   15CHTO   C95 6019   6.852   2.991   0.413
   15CHTO  H182 6020   6.908   2.984   0.506
   15CHTO  C106 6021   6.958   3.009   0.299
   15CHTO   O69 6022   6.899   3.011   0.168
   15CHTO  H169 6023   6.864   2.926   0.148
   15CHTO   O63 6024   6.612   2.708   0.437
   15CHTO   C96 6025   6.646   2.576   0.516
   15CHTO  H183 6026   6.669   2.603   0.619
   15CHTO   C98 6027   6.768   2.498   0.458
   15CHTO  H185 6028   6.763   2.499   0.348
   15CHTO   O67 6029   6.888   2.571   0.491
   15CHTO  H167 6030   6.902   2.572   0.584
   15CHTO  C102 6031   6.776   2.345   0.511
   15CHTO  H189 6032   6.797   2.351   0.619
   15CHTO   N18 6033   6.886   2.263   0.453
   15CHTO  H176 6034   6.981   2.307   0.478
   15CHTO  H177 6035   6.875   2.258   0.346
   15CHTO  C105 6036   6.635   2.282   0.491
   15CHTO  H192 6037   6.608   2.290   0.385
   15CHTO   O65 6038   6.539   2.356   0.567
   15CHTO  C100 6039   6.516   2.489   0.517
   15CHTO  H187 6040   6.478   2.480   0.414
   15CHTO  C107 6041   6.406   2.557   0.602
   15CHTO   O70 6042   6.281   2.487   0.591
   15CHTO  H170 6043   6.217   2.528   0.646
   15CHTO   O57 6044   6.634   2.120   0.533
   15CHTO   C85 6045   6.627   2.073   0.668
   15CHTO  H157 6046   6.654   2.158   0.734
   15CHTO   C83 6047   6.739   1.965   0.688
   15CHTO  H155 6048   6.836   2.014   0.675
   15CHTO   O56 6049   6.730   1.867   0.583
   15CHTO  H135 6050   6.650   1.818   0.591
   15CHTO   C81 6051   6.732   1.906   0.832
   15CHTO  H153 6052   6.743   1.988   0.903
   15CHTO   N14 6053   6.845   1.815   0.862
   15CHTO  H141 6054   6.841   1.728   0.799
   15CHTO  H142 6055   6.938   1.865   0.847
   15CHTO   C79 6056   6.590   1.840   0.856
   15CHTO  H151 6057   6.587   1.809   0.961
   15CHTO   O52 6058   6.485   1.939   0.838
   15CHTO   C86 6059   6.487   2.010   0.709
   15CHTO  H158 6060   6.457   1.932   0.636
   15CHTO   C90 6061   6.374   2.115   0.707
   15CHTO   O60 6062   6.384   2.208   0.815
   15CHTO  H138 6063   6.462   2.261   0.806
   15CHTO   O50 6064   6.564   1.723   0.776
   15CHTO   C73 6065   6.468   1.621   0.745
   15CHTO  H145 6066   6.382   1.665   0.691
   15CHTO   C74 6067   6.413   1.551   0.874
   15CHTO  H146 6068   6.367   1.630   0.935
   15CHTO   O54 6069   6.307   1.461   0.836
   15CHTO  H133 6070   6.232   1.510   0.806
   15CHTO   C75 6071   6.531   1.479   0.949
   15CHTO  H147 6072   6.603   1.556   0.981
   15CHTO   N13 6073   6.492   1.411   1.075
   15CHTO  H139 6074   6.510   1.305   1.070
   15CHTO  H140 6075   6.387   1.427   1.097
   15CHTO   C76 6076   6.609   1.382   0.848
   15CHTO  H148 6077   6.545   1.296   0.827
   15CHTO   O49 6078   6.644   1.450   0.723
   15CHTO   C77 6079   6.535   1.514   0.655
   15CHTO  H149 6080   6.461   1.439   0.626
   15CHTO   C88 6081   6.589   1.575   0.525
   15CHTO   O58 6082   6.479   1.635   0.444
   15CHTO  H136 6083   6.515   1.673   0.367
   15CHTO   O51 6084   6.749   1.340   0.915
   15CHTO   C78 6085   6.836   1.243   0.831
   15CHTO  H150 6086   6.797   1.231   0.728
   15CHTO   C80 6087   6.841   1.104   0.899
   15CHTO  H152 6088   6.867   1.118   1.006
   15CHTO   O55 6089   6.708   1.048   0.893
   15CHTO  H134 6090   6.683   1.031   0.804
   15CHTO   C84 6091   6.949   1.009   0.831
   15CHTO  H156 6092   6.914   0.986   0.730
   15CHTO   N15 6093   6.963   0.877   0.903
   15CHTO  H143 6094   6.869   0.826   0.904
   15CHTO  H144 6095   7.035   0.816   0.852
   15CHTO   C87 6096   7.084   1.083   0.821
   15CHTO  H159 6097   7.127   1.099   0.920
   15CHTO   O53 6098   7.064   1.215   0.750
   15CHTO   C82 6099   6.977   1.304   0.821
   15CHTO  H154 6100   7.018   1.323   0.921
   15CHTO   C89 6101   6.977   1.440   0.746
   15CHTO   O59 6102   6.934   1.429   0.610
   15CHTO  H137 6103   6.843   1.404   0.607
   15CHTO   O45 6104   7.192   1.001   0.730
   15CHTO   C67 6105   7.325   1.057   0.734
   15CHTO  H124 6106   7.323   1.151   0.789
   15CHTO   C65 6107   7.424   0.958   0.807
   15CHTO  H122 6108   7.376   0.860   0.805
   15CHTO   O44 6109   7.433   1.002   0.943
   15CHTO  H102 6110   7.480   0.939   0.994
   15CHTO   C63 6111   7.560   0.938   0.729
   15CHTO  H120 6112   7.539   0.881   0.638
   15CHTO   N11 6113   7.663   0.852   0.796
   15CHTO  H108 6114   7.635   0.830   0.896
   15CHTO  H109 6115   7.677   0.760   0.742
   15CHTO   C61 6116   7.612   1.078   0.681
   15CHTO  H118 6117   7.699   1.059   0.616
   15CHTO   O40 6118   7.514   1.148   0.598
   15CHTO   C68 6119   7.378   1.094   0.590
   15CHTO  H125 6120   7.379   1.004   0.525
   15CHTO   C72 6121   7.288   1.199   0.520
   15CHTO   O48 6122   7.331   1.229   0.386
   15CHTO  H105 6123   7.413   1.275   0.389
   15CHTO   O38 6124   7.651   1.161   0.793
   15CHTO   C55 6125   7.694   1.296   0.766
   15CHTO  H112 6126   7.643   1.335   0.676
   15CHTO   C56 6127   7.852   1.306   0.753
   15CHTO  H113 6128   7.894   1.262   0.845
   15CHTO   O42 6129   7.897   1.225   0.643
   15CHTO  H100 6130   7.880   1.134   0.661
   15CHTO   C57 6131   7.897   1.456   0.736
   15CHTO  H114 6132   7.862   1.488   0.638
   15CHTO   N10 6133   8.044   1.476   0.739
   15CHTO  H106 6134   8.091   1.401   0.802
   15CHTO  H107 6135   8.084   1.467   0.639
   15CHTO   C58 6136   7.830   1.546   0.844
   15CHTO  H115 6137   7.876   1.525   0.944
   15CHTO   O37 6138   7.689   1.523   0.854
   15CHTO   C59 6139   7.648   1.388   0.882
   15CHTO  H116 6140   7.692   1.355   0.976
   15CHTO   C70 6141   7.496   1.386   0.900
   15CHTO   O46 6142   7.423   1.432   0.785
   15CHTO  H103 6143   7.435   1.373   0.714
   15CHTO   O39 6144   7.848   1.713   0.807
   15CHTO   C60 6145   7.770   1.759   0.696
   15CHTO  H117 6146   7.758   1.678   0.624
   15CHTO   C62 6147   7.627   1.806   0.738
   15CHTO  H119 6148   7.580   1.722   0.793
   15CHTO   O43 6149   7.634   1.917   0.829
   15CHTO  H101 6150   7.677   1.892   0.908
   15CHTO   C66 6151   7.541   1.834   0.606
   15CHTO  H123 6152   7.546   1.746   0.542
   15CHTO   N12 6153   7.397   1.855   0.635
   15CHTO  H110 6154   7.384   1.939   0.701
   15CHTO  H111 6155   7.354   1.765   0.677
   15CHTO   C69 6156   7.604   1.952   0.527
   15CHTO  H126 6157   7.597   2.046   0.585
   15CHTO   O41 6158   7.758   1.920   0.496
   15CHTO   C64 6159   7.841   1.876   0.621
   15CHTO  H121 6160   7.851   1.962   0.690
   15CHTO   C71 6161   7.984   1.837   0.575
   15CHTO   O47 6162   7.984   1.732   0.478
   15CHTO  H104 6163   7.958   1.651   0.518
   15CHTO   O34 6164   7.532   1.972   0.392
   15CHTO   C49 6165   7.487   2.033   0.263
   15CHTO   H91 6166   7.452   1.951   0.201
   15CHTO   C47 6167   7.608   2.102   0.196
   15CHTO   H89 6168   7.574   2.133   0.095
   15CHTO   O33 6169   7.714   2.006   0.182
   15CHTO   H70 6170   7.690   1.940   0.120
   15CHTO   C45 6171   7.648   2.232   0.282
   15CHTO   H87 6172   7.666   2.201   0.386
   15CHTO    N8 6173   7.772   2.299   0.232
   15CHTO   H75 6174   7.756   2.335   0.132
   15CHTO   H76 6175   7.854   2.229   0.234
   15CHTO   C43 6176   7.522   2.332   0.288
   15CHTO   H85 6177   7.551   2.415   0.352
   15CHTO   O29 6178   7.407   2.263   0.341
   15CHTO   C50 6179   7.371   2.134   0.286
   15CHTO   H92 6180   7.302   2.087   0.358
   15CHTO   C54 6181   7.283   2.148   0.158
   15CHTO   O36 6182   7.162   2.219   0.186
   15CHTO   H72 6183   7.111   2.226   0.108
   15CHTO   O27 6184   7.493   2.390   0.160
   15CHTO   C37 6185   7.410   2.475   0.079
   15CHTO   H79 6186   7.324   2.419   0.040
   15CHTO   C38 6187   7.352   2.593   0.162
   15CHTO   H80 6188   7.436   2.647   0.210
   15CHTO   O31 6189   7.268   2.538   0.265
   15CHTO   H68 6190   7.239   2.605   0.323
   15CHTO   C39 6191   7.271   2.693   0.070
   15CHTO   H81 6192   7.180   2.641   0.039
   15CHTO    N7 6193   7.227   2.817   0.143
   15CHTO   H73 6194   7.165   2.791   0.227
   15CHTO   H74 6195   7.172   2.881   0.076
   15CHTO   C40 6196   7.350   2.731   2.787
   15CHTO   H82 6197   7.427   2.805   2.808
   15CHTO   O26 6198   7.404   2.613   2.723
   15CHTO   C41 6199   7.491   2.533   2.808
   15CHTO   H83 6200   7.572   2.596   2.847
   15CHTO   C52 6201   7.557   2.422   2.722
   15CHTO   O35 6202   7.459   2.326   2.664
   15CHTO   H71 6203   7.420   2.276   2.733
   15CHTO   O28 6204   7.259   2.781   2.687
   15CHTO   C42 6205   7.281   2.892   2.593
   15CHTO   H84 6206   7.260   2.847   2.496
   15CHTO   C44 6207   7.424   2.954   2.581
   15CHTO   H86 6208   7.451   3.000   2.677
   15CHTO   O32 6209   7.516   2.847   2.554
   15CHTO   H69 6210   7.526   2.792   2.629
   15CHTO   C48 6211   7.431   3.066   2.469
   15CHTO   H90 6212   7.418   3.017   2.373
   15CHTO    N9 6213   7.566   3.133   2.463
   15CHTO   H77 6214   7.566   3.208   2.386
   15CHTO   H78 6215   7.642   3.060   2.445
   15CHTO   C51 6216   7.314   3.171   2.486
   15CHTO   H93 6217   7.335   3.232   2.574
   15CHTO   O30 6218   7.188   3.103   2.497
   15CHTO   C46 6219   7.178   3.007   2.614
   15CHTO   H88 6220   7.202   3.061   2.706
   15CHTO   C53 6221   7.033   2.954   2.618
   15CHTO   O72 6222   6.940   3.059   2.647
   15CHTO  H199 6223   6.950   3.087   2.736
   15CHTO   O22 6224   7.300   3.253   2.368
   15CHTO   C31 6225   7.242   3.390   2.369
   15CHTO   H59 6226   7.231   3.418   2.262
   15CHTO   C29 6227   7.101   3.400   2.432
   15CHTO   H57 6228   7.106   3.358   2.534
   15CHTO   O21 6229   7.012   3.315   2.357
   15CHTO   H37 6230   7.037   3.225   2.367
   15CHTO   C27 6231   7.049   3.549   2.441
   15CHTO   H55 6232   7.035   3.588   2.339
   15CHTO    N5 6233   6.920   3.561   2.514
   15CHTO   H43 6234   6.931   3.529   2.616
   15CHTO   H44 6235   6.885   3.664   2.511
   15CHTO   C25 6236   7.161   3.636   2.509
   15CHTO   H53 6237   7.181   3.595   2.609
   15CHTO   O17 6238   7.281   3.626   2.429
   15CHTO   C32 6239   7.340   3.495   2.430
   15CHTO   H60 6240   7.363   3.466   2.533
   15CHTO   C36 6241   7.472   3.501   2.349
   15CHTO   O25 6242   7.566   3.590   2.410
   15CHTO   H40 6243   7.644   3.592   2.359
   15CHTO   O15 6244   7.124   3.793   2.525
   15CHTO   C19 6245   7.185   3.916   2.575
   15CHTO   H47 6246   7.254   3.945   2.495
   15CHTO   C20 6247   7.083   4.032   2.598
   15CHTO   H48 6248   7.002   4.002   2.666
   15CHTO   O19 6249   7.025   4.060   2.469
   15CHTO   H35 6250   6.969   3.990   2.442
   15CHTO   C21 6251   7.152   4.162   2.658
   15CHTO   H49 6252   7.223   4.201   2.585
   15CHTO    N4 6253   7.055   4.271   2.686
   15CHTO   H41 6254   6.980   4.238   2.756
   15CHTO   H42 6255   7.007   4.302   2.594
   15CHTO   C22 6256   7.233   4.122   2.784
   15CHTO   H50 6257   7.165   4.084   0.012
   15CHTO   O14 6258   7.329   4.020   2.748
   15CHTO   C23 6259   7.273   3.896   2.703
   15CHTO   H51 6260   7.216   3.852   2.786
   15CHTO   C34 6261   7.392   3.802   2.680
   15CHTO   O23 6262   7.476   3.847   2.573
   15CHTO   H38 6263   7.549   3.788   2.563
   15CHTO   O16 6264   7.316   4.228   2.836
   15CHTO   C24 6265   7.312   4.245   0.152
   15CHTO   H52 6266   7.252   4.168   0.200
   15CHTO   C26 6267   7.250   4.383   0.183
   15CHTO   H54 6268   7.300   4.460   0.119
   15CHTO   O20 6269   7.111   4.378   0.146
   15CHTO   H36 6270   7.102   4.371   0.052
   15CHTO   C30 6271   7.267   4.425   0.332
   15CHTO   H58 6272   7.207   4.359   0.397
   15CHTO    N6 6273   7.217   4.564   0.356
   15CHTO   H45 6274   7.296   4.629   0.391
   15CHTO   H46 6275   7.137   4.563   0.429
   15CHTO   C33 6276   7.416   4.406   0.375
   15CHTO   H61 6277   7.479   4.474   0.315
   15CHTO   O18 6278   7.454   4.271   0.348
   15CHTO   C28 6279   7.456   4.232   0.210
   15CHTO   H56 6280   7.524   4.295   0.152
   15CHTO   C35 6281   7.506   4.085   0.212
   15CHTO   O24 6282   7.543   4.034   0.083
   15CHTO   H39 6283   7.618   4.079   0.051
   15CHTO    O9 6284   7.440   4.441   0.513
   15CHTO   C13 6285   7.578   4.524   0.549
   15CHTO   H26 6286   7.555   4.632   0.535
   15CHTO   C11 6287   7.705   4.480   0.463
   15CHTO   H24 6288   7.684   4.502   0.357
   15CHTO    O8 6289   7.729   4.338   0.472
   15CHTO    H3 6290   7.749   4.314   0.561
   15CHTO    C9 6291   7.823   4.569   0.508
   15CHTO   H22 6292   7.789   4.673   0.495
   15CHTO    N2 6293   7.944   4.558   0.422
   15CHTO   H10 6294   7.959   4.649   0.365
   15CHTO   H11 6295   7.938   4.473   0.356
   15CHTO    C7 6296   7.853   4.547   0.661
   15CHTO   H20 6297   7.920   4.632   0.686
   15CHTO    O4 6298   7.736   4.557   0.745
   15CHTO   C14 6299   7.607   4.507   0.703
   15CHTO   H27 6300   7.533   4.568   0.758
   15CHTO   C18 6301   7.587   4.360   0.749
   15CHTO   O13 6302   7.593   4.346   0.891
   15CHTO    H7 6303   7.680   4.361   0.921
   15CHTO    O2 6304   7.931   4.406   0.692
   15CHTO    C1 6305   7.983   4.389   0.825
   15CHTO   H14 6306   7.904   4.418   0.899
   15CHTO    C2 6307   8.115   4.473   0.857
   15CHTO   H15 6308   8.184   4.453   0.773
   15CHTO    O6 6309   8.084   4.613   0.860
   15CHTO    H1 6310   8.163   4.664   0.868
   15CHTO    C3 6311   8.183   4.429   0.997
   15CHTO   H16 6312   8.120   4.467   1.078
   15CHTO    N1 6313   8.320   4.488   1.016
   15CHTO    H8 6314   8.322   4.549   1.105
   15CHTO    H9 6315   8.349   4.548   0.931
   15CHTO    C4 6316   8.184   4.273   1.013
   15CHTO   H17 6317   8.259   4.230   0.947
   15CHTO    O1 6318   8.054   4.217   0.984
   15CHTO    C5 6319   8.012   4.238   0.848
   15CHTO   H18 6320   8.090   4.207   0.779
   15CHTO   C16 6321   7.888   4.146   0.828
   15CHTO   O11 6322   7.854   4.132   0.690
   15CHTO    H5 6323   7.821   4.213   0.656
   15CHTO    O3 6324   8.209   4.234   1.150
   15CHTO    C6 6325   8.256   4.096   1.168
   15CHTO   H19 6326   8.242   4.035   1.079
   15CHTO    C8 6327   8.408   4.096   1.204
   15CHTO   H21 6328   8.423   4.160   1.291
   15CHTO    O7 6329   8.479   4.150   1.090
   15CHTO    H2 6330   8.462   4.242   1.083
   15CHTO   C12 6331   8.457   3.950   1.239
   15CHTO   H25 6332   8.451   3.891   1.145
   15CHTO    N3 6333   8.601   3.949   1.281
   15CHTO   H12 6334   8.663   3.988   1.202
   15CHTO   H13 6335   8.631   3.848   1.306
   15CHTO   C15 6336   8.360   3.885   1.345
   15CHTO   H28 6337   8.371   3.932   1.443
   15CHTO   O10 6338   8.380   3.733   1.358
   15CHTO    H4 6339   8.466   3.715   1.390
   15CHTO    O5 6340   8.224   3.893   1.301
   15CHTO   C10 6341   8.176   4.027   1.283
   15CHTO   H23 6342   8.188   4.082   1.376
   15CHTO   C17 6343   8.025   4.016   1.254
   15CHTO   O12 6344   7.959   4.143   1.264
   15CHTO    H6 6345   7.868   4.132   1.247
   16CHTO  H203 6346   6.716   4.545   2.754
   16CHTO   O82 6347   6.632   4.546   2.796
   16CHTO  C123 6348   6.633   4.458   0.063
   16CHTO  H227 6349   6.534   4.463   0.111
   16CHTO   O77 6350   6.651   4.326   0.003
   16CHTO  C118 6351   6.657   4.217   0.098
   16CHTO  H222 6352   6.567   4.220   0.162
   16CHTO  C125 6353   6.657   4.083   0.016
   16CHTO   O84 6354   6.769   4.073   2.776
   16CHTO  H205 6355   6.766   3.991   2.730
   16CHTO  C114 6356   6.782   4.237   0.186
   16CHTO  H218 6357   6.869   4.247   0.121
   16CHTO  C116 6358   6.768   4.370   0.265
   16CHTO  H220 6359   6.680   4.363   0.334
   16CHTO   O79 6360   6.884   4.387   0.348
   16CHTO  H201 6361   6.874   4.462   0.403
   16CHTO  C120 6362   6.749   4.491   0.164
   16CHTO  H224 6363   6.845   4.501   0.109
   16CHTO   N21 6364   6.726   4.620   0.235
   16CHTO  H211 6365   6.668   4.687   0.174
   16CHTO  H212 6366   6.676   4.603   0.329
   16CHTO   O75 6367   6.794   4.121   0.272
   16CHTO  C112 6368   6.930   4.030   0.240
   16CHTO  H216 6369   6.999   4.090   0.178
   16CHTO   O73 6370   6.887   3.912   0.171
   16CHTO  C113 6371   6.997   3.839   0.114
   16CHTO  H217 6372   7.051   3.908   0.047
   16CHTO  C124 6373   6.939   3.729   0.024
   16CHTO   O83 6374   6.855   3.636   0.093
   16CHTO  H204 6375   6.776   3.678   0.121
   16CHTO  C109 6376   7.094   3.787   0.225
   16CHTO  H213 6377   7.041   3.708   0.279
   16CHTO  C110 6378   7.133   3.903   0.322
   16CHTO  H214 6379   7.201   3.970   0.270
   16CHTO   O78 6380   7.206   3.848   0.433
   16CHTO  H200 6381   7.237   3.916   0.489
   16CHTO  C111 6382   7.007   3.983   0.369
   16CHTO  H215 6383   6.942   3.916   0.427
   16CHTO   N19 6384   7.039   4.099   0.457
   16CHTO  H207 6385   7.090   4.064   0.545
   16CHTO  H208 6386   6.948   4.149   0.486
   16CHTO   O74 6387   7.215   3.731   0.165
   16CHTO  C115 6388   7.221   3.567   0.154
   16CHTO  H219 6389   7.140   3.520   0.210
   16CHTO   O76 6390   7.204   3.518   0.005
   16CHTO  C122 6391   7.213   3.377   2.831
   16CHTO  H226 6392   7.219   3.362   2.723
   16CHTO  C126 6393   7.081   3.304   0.029
   16CHTO   O85 6394   6.966   3.347   2.804
   16CHTO  H206 6395   6.946   3.436   2.825
   16CHTO  C121 6396   7.341   3.312   0.048
   16CHTO  H225 6397   7.330   3.202   0.044
   16CHTO   O81 6398   7.457   3.346   2.819
   16CHTO  H202 6399   7.451   3.309   2.733
   16CHTO  C119 6400   7.359   3.355   0.197
   16CHTO  H223 6401   7.272   3.317   0.250
   16CHTO  C117 6402   7.357   3.512   0.212
   16CHTO  H221 6403   7.435   3.566   0.157
   16CHTO   N20 6404   7.374   3.554   0.355
   16CHTO  H209 6405   7.383   3.469   0.421
   16CHTO  H210 6406   7.460   3.619   0.366
   16CHTO   O80 6407   7.479   3.278   0.273
   16CHTO  C103 6408   7.479   3.123   0.278
   16CHTO  H190 6409   7.391   3.083   0.228
   16CHTO  C101 6410   7.607   3.055   0.218
   16CHTO  H188 6411   7.696   3.099   0.264
   16CHTO   O68 6412   7.613   3.085   0.063
   16CHTO  H168 6413   7.540   3.045   0.020
   16CHTO   C99 6414   7.607   2.898   0.248
   16CHTO  H186 6415   7.523   2.852   0.193
   16CHTO   N17 6416   7.731   2.827   0.202
   16CHTO  H174 6417   7.749   2.848   0.097
   16CHTO  H175 6418   7.722   2.721   0.219
   16CHTO   C97 6419   7.579   2.871   0.398
   16CHTO  H184 6420   7.668   2.898   0.457
   16CHTO   O64 6421   7.462   2.941   0.443
   16CHTO  C104 6422   7.468   3.084   0.430
   16CHTO  H191 6423   7.554   3.126   0.484
   16CHTO  C108 6424   7.343   3.145   0.496
   16CHTO   O71 6425   7.340   3.120   0.637
   16CHTO  H171 6426   7.325   3.029   0.652
   16CHTO   O62 6427   7.545   2.732   0.420
   16CHTO   C91 6428   7.559   2.678   0.553
   16CHTO  H178 6429   7.575   2.760   0.623
   16CHTO   C92 6430   7.688   2.589   0.557
   16CHTO  H179 6431   7.690   2.527   0.466
   16CHTO   O66 6432   7.803   2.675   0.545
   16CHTO  H166 6433   7.804   2.717   0.460
   16CHTO   C93 6434   7.702   2.499   0.687
   16CHTO  H180 6435   7.739   2.564   0.768
   16CHTO   N16 6436   7.804   2.392   0.671
   16CHTO  H172 6437   7.901   2.436   0.653
   16CHTO  H173 6438   7.777   2.326   0.590
   16CHTO   C94 6439   7.565   2.437   0.731
   16CHTO  H181 6440   7.532   2.358   0.663
   16CHTO   O61 6441   7.462   2.538   0.731
   16CHTO   C95 6442   7.436   2.594   0.602
   16CHTO  H182 6443   7.417   2.513   0.531
   16CHTO  C106 6444   7.306   2.681   0.609
   16CHTO   O69 6445   7.191   2.601   0.640
   16CHTO  H169 6446   7.196   2.570   0.728
   16CHTO   O63 6447   7.577   2.377   0.887
   16CHTO   C96 6448   7.438   2.330   0.955
   16CHTO  H183 6449   7.463   2.260   1.034
   16CHTO   C98 6450   7.339   2.257   0.858
   16CHTO  H185 6451   7.336   2.309   0.761
   16CHTO   O67 6452   7.396   2.128   0.831
   16CHTO  H167 6453   7.344   2.082   0.768
   16CHTO  C102 6454   7.190   2.247   0.917
   16CHTO  H189 6455   7.198   2.187   1.009
   16CHTO   N18 6456   7.091   2.177   0.832
   16CHTO  H176 6457   7.083   2.227   0.736
   16CHTO  H177 6458   7.122   2.075   0.817
   16CHTO  C105 6459   7.151   2.393   0.954
   16CHTO  H192 6460   7.171   2.457   0.868
   16CHTO   O65 6461   7.234   2.436   1.063
   16CHTO  C100 6462   7.372   2.456   1.026
   16CHTO  H187 6463   7.376   2.542   0.957
   16CHTO  C107 6464   7.452   2.495   1.152
   16CHTO   O70 6465   7.409   2.619   1.208
   16CHTO  H170 6466   7.324   2.609   1.246
   16CHTO   O57 6467   6.994   2.406   0.997
   16CHTO   C85 6468   6.910   2.491   0.917
   16CHTO  H157 6469   6.923   2.457   0.812
   16CHTO   C83 6470   6.960   2.639   0.920
   16CHTO  H155 6471   7.061   2.643   0.879
   16CHTO   O56 6472   6.971   2.684   1.056
   16CHTO  H135 6473   7.036   2.634   1.102
   16CHTO   C81 6474   6.867   2.726   0.831
   16CHTO  H153 6475   6.868   2.684   0.730
   16CHTO   N14 6476   6.918   2.865   0.812
   16CHTO  H141 6477   6.857   2.917   0.741
   16CHTO  H142 6478   6.917   2.917   0.905
   16CHTO   C79 6479   6.719   2.721   0.885
   16CHTO  H151 6480   6.657   2.773   0.813
   16CHTO   O52 6481   6.672   2.582   0.887
   16CHTO   C86 6482   6.758   2.489   0.960
   16CHTO  H158 6483   6.746   2.519   1.067
   16CHTO   C90 6484   6.701   2.347   0.949
   16CHTO   O60 6485   6.569   2.340   1.003
   16CHTO  H138 6486   6.509   2.387   0.948
   16CHTO   O50 6487   6.701   2.782   1.014
   16CHTO   C73 6488   6.620   2.790   1.132
   16CHTO  H145 6489   6.648   2.710   1.202
   16CHTO   C74 6490   6.468   2.776   1.098
   16CHTO  H146 6491   6.456   2.681   1.045
   16CHTO   O54 6492   6.394   2.763   1.221
   16CHTO  H133 6493   6.401   2.842   1.272
   16CHTO   C75 6494   6.423   2.899   1.010
   16CHTO  H147 6495   6.482   2.899   0.917
   16CHTO   N13 6496   6.281   2.893   0.966
   16CHTO  H139 6497   6.258   2.978   0.904
   16CHTO  H140 6498   6.216   2.894   1.052
   16CHTO   C76 6499   6.457   3.034   1.089
   16CHTO  H148 6500   6.400   3.033   1.182
   16CHTO   O49 6501   6.600   3.037   1.120
   16CHTO   C77 6502   6.646   2.928   1.202
   16CHTO  H149 6503   6.594   2.930   1.298
   16CHTO   C88 6504   6.795   2.949   1.232
   16CHTO   O58 6505   6.821   3.082   1.293
   16CHTO  H136 6506   6.781   3.087   1.378
   16CHTO   O51 6507   6.430   3.167   1.001
   16CHTO   C78 6508   6.414   3.293   1.098
   16CHTO  H150 6509   6.443   3.267   1.203
   16CHTO   C80 6510   6.267   3.343   1.099
   16CHTO  H152 6511   6.241   3.377   0.997
   16CHTO   O55 6512   6.184   3.230   1.131
   16CHTO  H134 6513   6.200   3.200   1.219
   16CHTO   C84 6514   6.251   3.462   1.202
   16CHTO  H156 6515   6.276   3.424   1.301
   16CHTO   N15 6516   6.110   3.514   1.210
   16CHTO  H143 6517   6.079   3.552   1.115
   16CHTO  H144 6518   6.104   3.592   1.283
   16CHTO   C87 6519   6.352   3.576   1.168
   16CHTO  H159 6520   6.321   3.626   1.076
   16CHTO   O53 6521   6.499   3.513   1.150
   16CHTO   C82 6522   6.505   3.408   1.053
   16CHTO  H154 6523   6.473   3.445   0.956
   16CHTO   C89 6524   6.651   3.361   1.037
   16CHTO   O59 6525   6.733   3.463   0.978
   16CHTO  H137 6526   6.709   3.475   0.888
   16CHTO   O45 6527   6.352   3.692   1.293
   16CHTO   C67 6528   6.479   3.736   1.344
   16CHTO  H124 6529   6.560   3.693   1.286
   16CHTO   C65 6530   6.490   3.893   1.336
   16CHTO  H122 6531   6.389   3.931   1.343
   16CHTO   O44 6532   6.540   3.923   1.204
   16CHTO  H102 6533   6.632   3.902   1.199
   16CHTO   C63 6534   6.565   3.956   1.460
   16CHTO  H120 6535   6.496   3.958   1.544
   16CHTO   N11 6536   6.600   4.102   1.450
   16CHTO  H108 6537   6.584   4.137   1.350
   16CHTO  H109 6538   6.701   4.119   1.479
   16CHTO   C61 6539   6.683   3.862   1.503
   16CHTO  H118 6540   6.728   3.906   1.593
   16CHTO   O40 6541   6.636   3.728   1.540
   16CHTO   C68 6542   6.503   3.687   1.493
   16CHTO  H125 6543   6.426   3.733   1.559
   16CHTO   C72 6544   6.489   3.534   1.506
   16CHTO   O48 6545   6.493   3.489   1.642
   16CHTO  H105 6546   6.416   3.517   1.687
   16CHTO   O38 6547   6.782   3.850   1.398
   16CHTO   C55 6548   6.907   3.787   1.433
   16CHTO  H112 6549   6.895   3.728   1.525
   16CHTO   C56 6550   7.021   3.896   1.448
   16CHTO  H113 6551   7.021   3.956   1.355
   16CHTO   O42 6552   6.987   3.986   1.555
   16CHTO  H100 6553   7.050   4.055   1.560
   16CHTO   C57 6554   7.162   3.827   1.470
   16CHTO  H114 6555   7.160   3.781   1.569
   16CHTO   N10 6556   7.276   3.923   1.471
   16CHTO  H106 6557   7.257   4.007   1.406
   16CHTO  H107 6558   7.368   3.875   1.441
   16CHTO   C58 6559   7.185   3.715   1.365
   16CHTO  H115 6560   7.203   3.762   1.265
   16CHTO   O37 6561   7.073   3.626   1.356
   16CHTO   C59 6562   6.948   3.687   1.322
   16CHTO  H116 6563   6.957   3.738   1.226
   16CHTO   C70 6564   6.844   3.575   1.304
   16CHTO   O46 6565   6.827   3.491   1.420
   16CHTO  H103 6566   6.905   3.440   1.433
   16CHTO   O39 6567   7.309   3.622   1.407
   16CHTO   C60 6568   7.367   3.546   1.300
   16CHTO  H117 6569   7.300   3.543   1.215
   16CHTO   C62 6570   7.501   3.611   1.255
   16CHTO  H119 6571   7.474   3.711   1.213
   16CHTO   O43 6572   7.586   3.631   1.370
   16CHTO  H101 6573   7.664   3.678   1.345
   16CHTO   C66 6574   7.571   3.522   1.140
   16CHTO  H123 6575   7.501   3.512   1.057
   16CHTO   N12 6576   7.692   3.587   1.083
   16CHTO  H110 6577   7.765   3.605   1.161
   16CHTO  H111 6578   7.665   3.679   1.034
   16CHTO   C69 6579   7.599   3.381   1.196
   16CHTO  H126 6580   7.665   3.387   1.286
   16CHTO   O41 6581   7.462   3.318   1.237
   16CHTO   C64 6582   7.389   3.398   1.345
   16CHTO  H121 6583   7.447   3.397   1.438
   16CHTO   C71 6584   7.255   3.324   1.372
   16CHTO   O47 6585   7.189   3.371   1.490
   16CHTO  H104 6586   7.239   3.347   1.566
   16CHTO   O34 6587   7.670   3.285   1.090
   16CHTO   C49 6588   7.656   3.243   0.943
   16CHTO   H91 6589   7.634   3.333   0.886
   16CHTO   C47 6590   7.540   3.142   0.928
   16CHTO   H89 6591   7.534   3.122   0.818
   16CHTO   O33 6592   7.416   3.201   0.970
   16CHTO   H70 6593   7.345   3.145   0.949
   16CHTO   C45 6594   7.572   3.005   1.010
   16CHTO   H87 6595   7.533   3.017   1.112
   16CHTO    N8 6596   7.499   2.893   0.945
   16CHTO   H75 6597   7.394   2.915   0.941
   16CHTO   H76 6598   7.537   2.877   0.845
   16CHTO   C43 6599   7.732   2.986   1.028
   16CHTO   H85 6600   7.758   3.044   1.116
   16CHTO   O29 6601   7.800   3.033   0.910
   16CHTO   C50 6602   7.786   3.175   0.887
   16CHTO   H92 6603   7.873   3.225   0.932
   16CHTO   C54 6604   7.805   3.198   0.735
   16CHTO   O36 6605   7.812   3.337   0.701
   16CHTO   H72 6606   7.728   3.378   0.715
   16CHTO   O27 6607   7.772   2.851   1.060
   16CHTO   C37 6608   7.836   2.772   1.160
   16CHTO   H79 6609   7.935   2.814   1.184
   16CHTO   C38 6610   7.754   2.772   1.292
   16CHTO   H80 6611   7.648   2.754   1.267
   16CHTO   O31 6612   7.766   2.903   1.349
   16CHTO   H68 6613   7.713   2.911   1.426
   16CHTO   C39 6614   7.802   2.660   1.393
   16CHTO   H81 6615   7.902   2.688   1.427
   16CHTO    N7 6616   7.715   2.648   1.516
   16CHTO   H73 6617   7.775   2.664   1.605
   16CHTO   H74 6618   7.634   2.718   1.513
   16CHTO   C40 6619   7.815   2.522   1.318
   16CHTO   H82 6620   7.716   2.491   1.284
   16CHTO   O26 6621   7.906   2.539   1.209
   16CHTO   C41 6622   7.856   2.628   1.105
   16CHTO   H83 6623   7.760   2.590   1.066
   16CHTO   C52 6624   7.958   2.628   0.989
   16CHTO   O35 6625   7.983   2.493   0.935
   16CHTO   H71 6626   7.906   2.461   0.893
   16CHTO   O28 6627   7.871   2.417   1.399
   16CHTO   C42 6628   7.844   2.276   1.369
   16CHTO   H84 6629   7.903   2.222   1.443
   16CHTO   C44 6630   7.893   2.224   1.230
   16CHTO   H86 6631   7.843   2.281   1.151
   16CHTO   O32 6632   8.034   2.252   1.221
   16CHTO   H69 6633   8.082   2.202   1.284
   16CHTO   C48 6634   7.861   2.070   1.207
   16CHTO   H90 6635   7.923   2.013   1.277
   16CHTO    N9 6636   7.900   2.022   1.069
   16CHTO   H77 6637   7.944   2.101   1.011
   16CHTO   H78 6638   7.968   1.938   1.077
   16CHTO   C51 6639   7.710   2.041   1.240
   16CHTO   H93 6640   7.649   2.094   1.166
   16CHTO   O30 6641   7.682   2.084   1.374
   16CHTO   C46 6642   7.695   2.235   1.390
   16CHTO   H88 6643   7.633   2.284   1.316
   16CHTO   C53 6644   7.647   2.273   1.532
   16CHTO   O72 6645   7.509   2.243   1.553
   16CHTO  H199 6646   7.456   2.298   1.500
   16CHTO   O22 6647   7.681   1.900   1.237
   16CHTO   C31 6648   7.545   1.846   1.261
   16CHTO   H59 6649   7.495   1.918   1.329
   16CHTO   C29 6650   7.458   1.835   1.134
   16CHTO   H57 6651   7.513   1.772   1.063
   16CHTO   O21 6652   7.447   1.965   1.074
   16CHTO   H37 6653   7.398   2.023   1.130
   16CHTO   C27 6654   7.316   1.769   1.162
   16CHTO   H55 6655   7.256   1.839   1.222
   16CHTO    N5 6656   7.242   1.739   1.037
   16CHTO   H43 6657   7.295   1.665   0.979
   16CHTO   H44 6658   7.143   1.704   1.060
   16CHTO   C25 6659   7.334   1.640   1.250
   16CHTO   H53 6660   7.386   1.563   1.192
   16CHTO   O17 6661   7.414   1.670   1.368
   16CHTO   C32 6662   7.548   1.710   1.337
   16CHTO   H60 6663   7.596   1.636   1.274
   16CHTO   C36 6664   7.624   1.718   1.472
   16CHTO   O25 6665   7.765   1.732   1.452
   16CHTO   H40 6666   7.808   1.733   1.535
   16CHTO   O15 6667   7.195   1.582   1.300
   16CHTO   C19 6668   7.079   1.589   1.388
   16CHTO   H47 6669   7.064   1.484   1.419
   16CHTO   C20 6670   7.099   1.676   1.516
   16CHTO   H48 6671   7.122   1.781   1.491
   16CHTO   O19 6672   7.212   1.621   1.587
   16CHTO   H35 6673   7.291   1.639   1.540
   16CHTO   C21 6674   6.969   1.674   1.607
   16CHTO   H49 6675   6.953   1.573   1.643
   16CHTO    N4 6676   6.981   1.760   1.728
   16CHTO   H41 6677   7.077   1.809   1.732
   16CHTO   H42 6678   6.903   1.835   1.731
   16CHTO   C22 6679   6.845   1.710   1.520
   16CHTO   H50 6680   6.854   1.814   1.487
   16CHTO   O14 6681   6.836   1.624   1.404
   16CHTO   C23 6682   6.948   1.632   1.315
   16CHTO   H51 6683   6.954   1.735   1.277
   16CHTO   C34 6684   6.922   1.539   1.195
   16CHTO   O23 6685   6.809   1.584   1.120
   16CHTO   H38 6686   6.794   1.526   1.048
   16CHTO   O16 6687   6.721   1.689   1.591
   16CHTO   C24 6688   6.604   1.795   1.553
   16CHTO   H52 6689   6.617   1.836   1.454
   16CHTO   C26 6690   6.604   1.910   1.656
   16CHTO   H54 6691   6.597   1.867   1.758
   16CHTO   O20 6692   6.729   1.980   1.644
   16CHTO   H36 6693   6.737   2.044   1.712
   16CHTO   C30 6694   6.483   2.006   1.634
   16CHTO   H58 6695   6.495   2.059   1.538
   16CHTO    N6 6696   6.475   2.112   1.738
   16CHTO   H45 6697   6.465   2.067   1.836
   16CHTO   H46 6698   6.565   2.172   1.737
   16CHTO   C33 6699   6.350   1.925   1.621
   16CHTO   H61 6700   6.327   1.879   1.719
   16CHTO   O18 6701   6.365   1.821   1.523
   16CHTO   C28 6702   6.466   1.723   1.553
   16CHTO   H56 6703   6.448   1.679   1.651
   16CHTO   C35 6704   6.457   1.614   1.445
   16CHTO   O24 6705   6.535   1.498   1.476
   16CHTO   H39 6706   6.526   1.435   1.408
   16CHTO    O9 6707   6.238   2.011   1.590
   16CHTO   C13 6708   6.108   1.989   1.686
   16CHTO   H26 6709   6.142   2.002   1.791
   16CHTO   C11 6710   6.046   1.846   1.661
   16CHTO   H24 6711   6.114   1.771   1.706
   16CHTO    O8 6712   6.038   1.819   1.520
   16CHTO    H3 6713   6.008   1.731   1.505
   16CHTO    C9 6714   5.909   1.840   1.733
   16CHTO   H22 6715   5.928   1.871   1.837
   16CHTO    N2 6716   5.854   1.702   1.745
   16CHTO   H10 6717   5.912   1.631   1.689
   16CHTO   H11 6718   5.849   1.672   1.849
   16CHTO    C7 6719   5.810   1.946   1.668
   16CHTO   H20 6720   5.756   1.988   1.756
   16CHTO    O4 6721   5.880   2.053   1.601
   16CHTO   C14 6722   5.998   2.104   1.665
   16CHTO   H27 6723   5.969   2.144   1.764
   16CHTO   C18 6724   6.049   2.224   1.581
   16CHTO   O13 6725   6.160   2.290   1.643
   16CHTO    H7 6726   6.132   2.334   1.720
   16CHTO    O2 6727   5.698   1.880   1.559
   16CHTO    C1 6728   5.566   1.936   1.561
   16CHTO   H14 6729   5.510   1.893   1.474
   16CHTO    C2 6730   5.559   2.095   1.549
   16CHTO   H15 6731   5.624   2.135   1.629
   16CHTO    O6 6732   5.611   2.133   1.421
   16CHTO    H1 6733   5.703   2.114   1.416
   16CHTO    C3 6734   5.409   2.148   1.570
   16CHTO   H16 6735   5.348   2.117   1.484
   16CHTO    N1 6736   5.403   2.299   1.575
   16CHTO    H8 6737   5.461   2.335   1.658
   16CHTO    H9 6738   5.300   2.331   1.584
   16CHTO    C4 6739   5.343   2.081   1.696
   16CHTO   H17 6740   5.393   2.118   1.786
   16CHTO    O1 6741   5.354   1.938   1.687
   16CHTO    C5 6742   5.489   1.888   1.687
   16CHTO   H18 6743   5.541   1.925   1.775
   16CHTO   C16 6744   5.480   1.734   1.695
   16CHTO   O11 6745   5.422   1.693   1.820
   16CHTO    H5 6746   5.417   1.600   1.823
   16CHTO    O3 6747   5.201   2.109   1.704
   16CHTO    C6 6748   5.131   2.055   1.821
   16CHTO   H19 6749   5.186   1.976   1.872
   16CHTO    C8 6750   5.105   2.168   1.926
   16CHTO   H21 6751   5.062   2.255   1.874
   16CHTO    O7 6752   5.233   2.203   1.982
   16CHTO    H2 6753   5.285   2.248   1.918
   16CHTO   C12 6754   5.005   2.121   2.040
   16CHTO   H25 6755   5.061   2.048   2.101
   16CHTO    N3 6756   4.970   2.235   2.132
   16CHTO   H12 6757   4.920   2.313   2.077
   16CHTO   H13 6758   4.908   2.199   2.213
   16CHTO   C15 6759   4.880   2.050   1.977
   16CHTO   H28 6760   4.814   2.121   1.926
   16CHTO   O10 6761   4.799   1.972   2.081
   16CHTO    H4 6762   4.764   2.030   2.145
   16CHTO    O5 6763   4.920   1.946   1.887
   16CHTO   C10 6764   4.996   1.994   1.775
   16CHTO   H23 6765   4.937   2.070   1.723
   16CHTO   C17 6766   5.014   1.878   1.675
   16CHTO   O12 6767   5.086   1.768   1.732
   16CHTO    H6 6768   5.095   1.700   1.668
   17CHTO  H203 6769   5.953   4.221   0.002
   17CHTO   O82 6770   5.897   4.213   0.077
   17CHTO  C123 6771   5.830   4.338   0.103
   17CHTO  H227 6772   5.763   4.324   0.190
   17CHTO   O77 6773   5.939   4.429   0.138
   17CHTO  C118 6774   5.895   4.559   0.180
   17CHTO  H222 6775   5.827   4.550   0.266
   17CHTO  C125 6776   6.022   4.640   0.225
   17CHTO   O84 6777   6.086   4.578   0.338
   17CHTO  H205 6778   6.032   4.587   0.414
   17CHTO  C114 6779   5.823   4.630   0.064
   17CHTO  H218 6780   5.894   4.644   2.830
   17CHTO  C116 6781   5.704   4.543   0.011
   17CHTO  H220 6782   5.623   4.541   0.088
   17CHTO   O79 6783   5.648   4.608   2.744
   17CHTO  H201 6784   5.573   4.561   2.713
   17CHTO  C120 6785   5.751   4.395   2.827
   17CHTO  H224 6786   5.820   4.402   2.740
   17CHTO   N21 6787   5.638   4.307   2.786
   17CHTO  H211 6788   5.563   4.364   2.734
   17CHTO  H212 6789   5.595   4.259   0.025
   17CHTO   O75 6790   5.783   4.757   0.118
   17CHTO  C112 6791   5.781   4.880   0.010
   17CHTO  H216 6792   5.742   4.844   2.761
   17CHTO   O73 6793   5.916   4.929   2.846
   17CHTO  C113 6794   5.930   5.045   2.762
   17CHTO  H217 6795   5.890   5.021   2.661
   17CHTO  C124 6796   6.079   5.077   2.745
   17CHTO   O83 6797   6.141   5.113   0.021
   17CHTO  H204 6798   6.231   5.132   0.006
   17CHTO  C109 6799   5.849   5.164   2.822
   17CHTO  H213 6800   5.888   5.180   0.076
   17CHTO  C110 6801   5.699   5.123   2.827
   17CHTO  H214 6802   5.664   5.105   2.725
   17CHTO   O78 6803   5.622   5.232   0.033
   17CHTO  H200 6804   5.623   5.305   2.822
   17CHTO  C111 6805   5.685   4.994   0.064
   17CHTO  H215 6806   5.718   5.016   0.167
   17CHTO   N19 6807   5.545   4.945   0.074
   17CHTO  H207 6808   5.534   4.847   0.030
   17CHTO  H208 6809   5.513   4.942   0.177
   17CHTO   O74 6810   5.870   5.286   2.744
   17CHTO  C115 6811   5.877   5.417   2.837
   17CHTO  H219 6812   5.796   5.419   0.062
   17CHTO   O76 6813   6.010   5.419   0.078
   17CHTO  C122 6814   6.127   5.453   0.004
   17CHTO  H226 6815   6.141   5.378   2.774
   17CHTO  C126 6816   6.251   5.440   0.100
   17CHTO   O85 6817   6.375   5.459   0.031
   17CHTO  H206 6818   6.446   5.450   0.092
   17CHTO  C121 6819   6.116   5.598   2.787
   17CHTO  H225 6820   6.181   5.668   2.845
   17CHTO   O81 6821   6.165   5.593   2.653
   17CHTO  H202 6822   6.256   5.570   2.652
   17CHTO  C119 6823   5.970   5.653   2.788
   17CHTO  H223 6824   5.947   5.676   0.045
   17CHTO  C117 6825   5.867   5.543   2.741
   17CHTO  H221 6826   5.885   5.504   2.641
   17CHTO   N20 6827   5.726   5.594   2.739
   17CHTO  H209 6828   5.720   5.695   2.778
   17CHTO  H210 6829   5.686   5.591   2.639
   17CHTO   O80 6830   5.957   5.797   2.721
   17CHTO  C103 6831   6.012   5.923   2.796
   17CHTO  H190 6832   6.037   5.899   0.051
   17CHTO  C101 6833   6.137   5.992   2.728
   17CHTO  H188 6834   6.118   6.000   2.620
   17CHTO   O68 6835   6.261   5.902   2.749
   17CHTO  H168 6836   6.334   5.936   2.701
   17CHTO   C99 6837   6.161   6.141   2.784
   17CHTO  H186 6838   6.190   6.135   0.043
   17CHTO   N17 6839   6.270   6.216   2.714
   17CHTO  H174 6840   6.286   6.311   2.762
   17CHTO  H175 6841   6.360   6.157   2.714
   17CHTO   C97 6842   6.026   6.219   2.782
   17CHTO  H184 6843   5.996   6.232   2.677
   17CHTO   O64 6844   5.928   6.147   0.010
   17CHTO  C104 6845   5.890   6.022   2.798
   17CHTO  H191 6846   5.853   6.037   2.696
   17CHTO  C108 6847   5.773   5.963   0.030
   17CHTO   O71 6848   5.661   6.052   0.031
   17CHTO  H171 6849   5.623   6.057   2.794
   17CHTO   O62 6850   6.032   6.348   2.848
   17CHTO   C91 6851   5.929   6.441   2.808
   17CHTO  H178 6852   5.850   6.386   2.758
   17CHTO   C92 6853   5.988   6.539   2.701
   17CHTO  H179 6854   6.040   6.482   2.622
   17CHTO   O66 6855   5.878   6.605   2.634
   17CHTO  H166 6856   5.829   6.543   2.584
   17CHTO   C93 6857   6.080   6.651   2.763
   17CHTO  H180 6858   6.083   6.734   2.691
   17CHTO   N16 6859   6.222   6.611   2.777
   17CHTO  H172 6860   6.253   6.609   0.032
   17CHTO  H173 6861   6.240   6.515   2.730
   17CHTO   C94 6862   6.020   6.705   0.052
   17CHTO  H181 6863   6.074   6.666   0.139
   17CHTO   O61 6864   5.883   6.666   0.068
   17CHTO   C95 6865   5.865   6.523   0.080
   17CHTO  H182 6866   5.912   6.490   0.173
   17CHTO  C106 6867   5.712   6.492   0.095
   17CHTO   O69 6868   5.657   6.551   0.213
   17CHTO  H169 6869   5.658   6.644   0.206
   17CHTO   O63 6870   6.029   6.862   0.051
   17CHTO   C96 6871   5.980   6.930   0.185
   17CHTO  H183 6872   5.965   6.852   0.261
   17CHTO   C98 6873   5.847   7.008   0.169
   17CHTO  H185 6874   5.853   7.073   0.080
   17CHTO   O67 6875   5.744   6.912   0.140
   17CHTO  H167 6876   5.663   6.955   0.123
   17CHTO  C102 6877   5.811   7.096   0.299
   17CHTO  H189 6878   5.792   7.023   0.380
   17CHTO   N18 6879   5.687   7.177   0.287
   17CHTO  H176 6880   5.697   7.248   0.207
   17CHTO  H177 6881   5.667   7.228   0.380
   17CHTO  C105 6882   5.936   7.180   0.338
   17CHTO  H192 6883   5.955   7.255   0.261
   17CHTO   O65 6884   6.053   7.099   0.354
   17CHTO  C100 6885   6.094   7.026   0.238
   17CHTO  H187 6886   6.119   7.098   0.158
   17CHTO  C107 6887   6.222   6.946   0.272
   17CHTO   O70 6888   6.331   7.033   0.309
   17CHTO  H170 6889   6.313   7.072   0.393
   17CHTO   O57 6890   5.904   7.251   0.478
   17CHTO   C85 6891   5.958   7.379   0.513
   17CHTO  H157 6892   5.964   7.438   0.419
   17CHTO   C83 6893   6.107   7.365   0.563
   17CHTO  H155 6894   6.170   7.344   0.476
   17CHTO   O56 6895   6.117   7.250   0.650
   17CHTO  H135 6896   6.207   7.234   0.671
   17CHTO   C81 6897   6.155   7.496   0.630
   17CHTO  H153 6898   6.146   7.577   0.557
   17CHTO   N14 6899   6.299   7.496   0.668
   17CHTO  H141 6900   6.317   7.421   0.742
   17CHTO  H142 6901   6.359   7.475   0.582
   17CHTO   C79 6902   6.060   7.530   0.751
   17CHTO  H151 6903   6.098   7.621   0.798
   17CHTO   O52 6904   5.928   7.560   0.698
   17CHTO   C86 6905   5.868   7.450   0.622
   17CHTO  H158 6906   5.838   7.378   0.699
   17CHTO   C90 6907   5.736   7.498   0.556
   17CHTO   O60 6908   5.641   7.538   0.655
   17CHTO  H138 6909   5.610   7.463   0.702
   17CHTO   O50 6910   6.051   7.427   0.852
   17CHTO   C73 6911   6.032   7.403   0.992
   17CHTO  H145 6912   5.975   7.485   1.037
   17CHTO   C74 6913   6.169   7.390   1.064
   17CHTO  H146 6914   6.225   7.483   1.045
   17CHTO   O54 6915   6.146   7.385   1.206
   17CHTO  H133 6916   6.111   7.467   1.237
   17CHTO   C75 6917   6.246   7.264   1.008
   17CHTO  H147 6918   6.265   7.279   0.901
   17CHTO   N13 6919   6.380   7.243   1.068
   17CHTO  H139 6920   6.371   7.230   1.175
   17CHTO  H140 6921   6.443   7.329   1.049
   17CHTO   C76 6922   6.154   7.134   1.021
   17CHTO  H148 6923   6.140   7.111   1.127
   17CHTO   O49 6924   6.023   7.158   0.959
   17CHTO   C77 6925   5.951   7.270   1.012
   17CHTO  H149 6926   5.935   7.255   1.119
   17CHTO   C88 6927   5.812   7.272   0.948
   17CHTO   O58 6928   5.729   7.387   0.996
   17CHTO  H136 6929   5.708   7.376   1.087
   17CHTO   O51 6930   6.220   7.009   0.940
   17CHTO   C78 6931   6.125   6.883   0.924
   17CHTO  H150 6932   6.019   6.909   0.943
   17CHTO   C80 6933   6.165   6.770   1.021
   17CHTO  H152 6934   6.274   6.749   1.008
   17CHTO   O55 6935   6.146   6.819   1.155
   17CHTO  H134 6936   6.178   6.757   1.217
   17CHTO   C84 6937   6.082   6.638   0.993
   17CHTO  H156 6938   5.978   6.659   1.018
   17CHTO   N15 6939   6.125   6.522   1.079
   17CHTO  H143 6940   6.112   6.547   1.182
   17CHTO  H144 6941   6.229   6.501   1.062
   17CHTO   C87 6942   6.092   6.603   0.842
   17CHTO  H159 6943   6.195   6.577   0.818
   17CHTO   O53 6944   6.049   6.719   0.762
   17CHTO   C82 6945   6.134   6.833   0.779
   17CHTO  H154 6946   6.237   6.807   0.754
   17CHTO   C89 6947   6.089   6.940   0.676
   17CHTO   O59 6948   5.953   6.980   0.694
   17CHTO  H137 6949   5.930   7.044   0.629
   17CHTO   O45 6950   5.997   6.478   0.792
   17CHTO   C67 6951   5.858   6.473   0.829
   17CHTO  H124 6952   5.849   6.484   0.937
   17CHTO   C65 6953   5.769   6.583   0.759
   17CHTO  H122 6954   5.835   6.639   0.694
   17CHTO   O44 6955   5.719   6.670   0.862
   17CHTO  H102 6956   5.678   6.745   0.823
   17CHTO   C63 6957   5.661   6.521   0.662
   17CHTO  H120 6958   5.714   6.468   0.582
   17CHTO   N11 6959   5.582   6.618   0.580
   17CHTO  H108 6960   5.647   6.687   0.531
   17CHTO  H109 6961   5.515   6.673   0.644
   17CHTO   C61 6962   5.576   6.412   0.739
   17CHTO  H118 6963   5.531   6.350   0.660
   17CHTO   O40 6964   5.659   6.323   0.821
   17CHTO   C68 6965   5.803   6.328   0.797
   17CHTO  H125 6966   5.823   6.303   0.690
   17CHTO   C72 6967   5.873   6.219   0.882
   17CHTO   O48 6968   6.011   6.199   0.849
   17CHTO  H105 6969   6.060   6.275   0.872
   17CHTO   O38 6970   5.475   6.469   0.824
   17CHTO   C55 6971   5.370   6.389   0.885
   17CHTO  H112 6972   5.411   6.349   0.979
   17CHTO   C56 6973   5.309   6.273   0.793
   17CHTO  H113 6974   5.287   6.319   0.696
   17CHTO   O42 6975   5.409   6.172   0.770
   17CHTO  H100 6976   5.378   6.109   0.707
   17CHTO   C57 6977   5.179   6.208   0.855
   17CHTO  H114 6978   5.212   6.148   0.940
   17CHTO   N10 6979   5.111   6.116   0.760
   17CHTO  H106 6980   5.151   6.016   0.770
   17CHTO  H107 6981   5.004   6.112   0.779
   17CHTO   C58 6982   5.081   6.317   0.907
   17CHTO  H115 6983   5.038   6.371   0.820
   17CHTO   O37 6984   5.149   6.410   0.993
   17CHTO   C59 6985   5.253   6.484   0.928
   17CHTO  H116 6986   5.212   6.535   0.840
   17CHTO   C70 6987   5.302   6.595   1.023
   17CHTO   O46 6988   5.350   6.546   1.149
   17CHTO  H103 6989   5.429   6.498   1.137
   17CHTO   O39 6990   4.960   6.244   0.996
   17CHTO   C60 6991   4.835   6.314   1.011
   17CHTO  H117 6992   4.854   6.411   1.058
   17CHTO   C62 6993   4.762   6.339   0.875
   17CHTO  H119 6994   4.826   6.408   0.817
   17CHTO   O43 6995   4.750   6.214   0.803
   17CHTO  H101 6996   4.835   6.184   0.777
   17CHTO   C66 6997   4.619   6.410   0.901
   17CHTO  H123 6998   4.636   6.503   0.956
   17CHTO   N12 6999   4.549   6.448   0.776
   17CHTO  H110 7000   4.606   6.420   0.689
   17CHTO  H111 7001   4.527   6.554   0.775
   17CHTO   C69 7002   4.532   6.318   0.991
   17CHTO  H126 7003   4.519   6.219   0.943
   17CHTO   O41 7004   4.608   6.301   1.125
   17CHTO   C64 7005   4.744   6.233   1.108
   17CHTO  H121 7006   4.730   6.131   1.067
   17CHTO   C71 7007   4.810   6.220   1.248
   17CHTO   O47 7008   4.729   6.140   1.335
   17CHTO  H104 7009   4.769   6.136   1.420
   17CHTO   O34 7010   4.386   6.378   1.021
   17CHTO   C49 7011   4.308   6.481   1.102
   17CHTO   H91 7012   4.372   6.569   1.111
   17CHTO   C47 7013   4.278   6.423   1.241
   17CHTO   H89 7014   4.230   6.508   1.297
   17CHTO   O33 7015   4.399   6.386   1.310
   17CHTO   H70 7016   4.452   6.463   1.325
   17CHTO   C45 7017   4.178   6.296   1.231
   17CHTO   H87 7018   4.239   6.204   1.224
   17CHTO    N8 7019   4.100   6.290   1.358
   17CHTO   H75 7020   3.994   6.288   1.336
   17CHTO   H76 7021   4.127   6.201   1.414
   17CHTO   C43 7022   4.093   6.299   1.094
   17CHTO   H85 7023   4.158   6.254   1.019
   17CHTO   O29 7024   4.059   6.435   1.060
   17CHTO   C50 7025   4.172   6.521   1.036
   17CHTO   H92 7026   4.188   6.527   0.927
   17CHTO   C54 7027   4.134   6.666   1.075
   17CHTO   O36 7028   4.026   6.716   0.994
   17CHTO   H72 7029   4.003   6.802   1.023
   17CHTO   O27 7030   3.976   6.214   1.095
   17CHTO   C37 7031   3.929   6.095   1.030
   17CHTO   H79 7032   3.824   6.077   1.057
   17CHTO   C38 7033   3.933   6.110   0.874
   17CHTO   H80 7034   4.030   6.153   0.846
   17CHTO   O31 7035   3.829   6.203   0.839
   17CHTO   H68 7036   3.852   6.290   0.866
   17CHTO   C39 7037   3.914   5.972   0.800
   17CHTO   H81 7038   3.813   5.937   0.821
   17CHTO    N7 7039   3.928   5.984   0.650
   17CHTO   H73 7040   3.913   5.887   0.604
   17CHTO   H74 7041   3.855   6.054   0.612
   17CHTO   C40 7042   4.015   5.867   0.860
   17CHTO   H82 7043   4.117   5.902   0.843
   17CHTO   O26 7044   3.986   5.853   1.000
   17CHTO   C41 7045   4.015   5.973   1.078
   17CHTO   H83 7046   4.122   5.998   1.068
   17CHTO   C52 7047   3.988   5.939   1.226
   17CHTO   O35 7048   3.844   5.898   1.254
   17CHTO   H71 7049   3.823   5.819   1.207
   17CHTO   O28 7050   4.001   5.734   0.807
   17CHTO   C42 7051   4.118   5.644   0.801
   17CHTO   H84 7052   4.074   5.548   0.772
   17CHTO   C44 7053   4.193   5.618   0.935
   17CHTO   H86 7054   4.227   5.714   0.976
   17CHTO   O32 7055   4.098   5.562   1.027
   17CHTO   H69 7056   4.136   5.554   1.112
   17CHTO   C48 7057   4.320   5.525   0.918
   17CHTO   H90 7058   4.286   5.425   0.890
   17CHTO    N9 7059   4.398   5.507   1.046
   17CHTO   H77 7060   4.400   5.403   1.075
   17CHTO   H78 7061   4.356   5.567   1.126
   17CHTO   C51 7062   4.409   5.582   0.802
   17CHTO   H93 7063   4.439   5.683   0.831
   17CHTO   O30 7064   4.328   5.582   0.684
   17CHTO   C46 7065   4.219   5.684   0.689
   17CHTO   H88 7066   4.262   5.781   0.712
   17CHTO   C53 7067   4.153   5.688   0.549
   17CHTO   O72 7068   4.246   5.730   0.449
   17CHTO  H199 7069   4.267   5.821   0.461
   17CHTO   O22 7070   4.526   5.502   0.772
   17CHTO   C31 7071   4.625   5.540   0.668
   17CHTO   H59 7072   4.717   5.482   0.691
   17CHTO   C29 7073   4.581   5.499   0.525
   17CHTO   H57 7074   4.481   5.543   0.507
   17CHTO   O21 7075   4.564   5.357   0.523
   17CHTO   H37 7076   4.646   5.313   0.531
   17CHTO   C27 7077   4.679   5.549   0.411
   17CHTO   H55 7078   4.772   5.492   0.418
   17CHTO    N5 7079   4.621   5.529   0.275
   17CHTO   H43 7080   4.693   5.557   0.200
   17CHTO   H44 7081   4.531   5.587   0.264
   17CHTO   C25 7082   4.716   5.699   0.435
   17CHTO   H53 7083   4.625   5.761   0.422
   17CHTO   O17 7084   4.765   5.718   0.571
   17CHTO   C32 7085   4.667   5.690   0.672
   17CHTO   H60 7086   4.579   5.752   0.655
   17CHTO   C36 7087   4.729   5.728   0.809
   17CHTO   O25 7088   4.753   5.869   0.817
   17CHTO   H40 7089   4.671   5.916   0.822
   17CHTO   O15 7090   4.827   5.749   0.335
   17CHTO   C19 7091   4.872   5.886   0.315
   17CHTO   H47 7092   4.931   5.881   0.222
   17CHTO   C20 7093   4.756   5.987   0.294
   17CHTO   H48 7094   4.689   5.991   0.381
   17CHTO   O19 7095   4.680   5.940   0.181
   17CHTO   H35 7096   4.603   5.993   0.169
   17CHTO   C21 7097   4.811   6.133   0.269
   17CHTO   H49 7098   4.864   6.135   0.173
   17CHTO    N4 7099   4.703   6.235   0.259
   17CHTO   H41 7100   4.645   6.237   0.351
   17CHTO   H42 7101   4.637   6.211   0.177
   17CHTO   C22 7102   4.916   6.169   0.378
   17CHTO   H50 7103   4.865   6.178   0.474
   17CHTO   O14 7104   5.018   6.067   0.388
   17CHTO   C23 7105   4.969   5.938   0.426
   17CHTO   H51 7106   4.919   5.947   0.523
   17CHTO   C34 7107   5.093   5.848   0.444
   17CHTO   O23 7108   5.060   5.720   0.499
   17CHTO   H38 7109   5.138   5.668   0.509
   17CHTO   O16 7110   4.987   6.289   0.344
   17CHTO   C24 7111   5.030   6.381   0.468
   17CHTO   H52 7112   5.051   6.322   0.557
   17CHTO   C26 7113   4.917   6.482   0.499
   17CHTO   H54 7114   4.890   6.534   0.404
   17CHTO   O20 7115   4.802   6.408   0.543
   17CHTO   H36 7116   4.729   6.465   0.554
   17CHTO   C30 7117   4.963   6.589   0.603
   17CHTO   H58 7118   4.980   6.541   0.700
   17CHTO    N6 7119   4.856   6.691   0.624
   17CHTO   H45 7120   4.890   6.790   0.597
   17CHTO   H46 7121   4.825   6.691   0.728
   17CHTO   C33 7122   5.099   6.650   0.560
   17CHTO   H61 7123   5.086   6.706   0.466
   17CHTO   O18 7124   5.195   6.545   0.538
   17CHTO   C28 7125   5.160   6.455   0.431
   17CHTO   H56 7126   5.145   6.510   0.338
   17CHTO   C35 7127   5.275   6.353   0.409
   17CHTO   O24 7128   5.396   6.415   0.365
   17CHTO   H39 7129   5.432   6.467   0.433
   17CHTO    O9 7130   5.148   6.746   0.656
   17CHTO   C13 7131   5.242   6.862   0.591
   17CHTO   H26 7132   5.286   6.822   0.498
   17CHTO   C11 7133   5.352   6.905   0.695
   17CHTO   H24 7134   5.419   6.818   0.709
   17CHTO    O8 7135   5.294   6.933   0.824
   17CHTO    H3 7136   5.361   6.951   0.887
   17CHTO    C9 7137   5.433   7.021   0.632
   17CHTO   H22 7138   5.467   6.985   0.534
   17CHTO    N2 7139   5.559   7.054   0.704
   17CHTO   H10 7140   5.621   6.966   0.714
   17CHTO   H11 7141   5.536   7.095   0.802
   17CHTO    C7 7142   5.338   7.144   0.610
   17CHTO   H20 7143   5.401   7.219   0.559
   17CHTO    O4 7144   5.228   7.109   0.523
   17CHTO   C14 7145   5.153   6.988   0.545
   17CHTO   H27 7146   5.108   6.961   0.447
   17CHTO   C18 7147   5.036   7.016   0.642
   17CHTO   O13 7148   4.943   7.109   0.585
   17CHTO    H7 7149   4.873   7.125   0.646
   17CHTO    O2 7150   5.278   7.206   0.754
   17CHTO    C1 7151   5.217   7.336   0.753
   17CHTO   H14 7152   5.135   7.336   0.677
   17CHTO    C2 7153   5.316   7.456   0.721
   17CHTO   H15 7154   5.407   7.435   0.779
   17CHTO    O6 7155   5.350   7.455   0.581
   17CHTO    H1 7156   5.273   7.468   0.529
   17CHTO    C3 7157   5.257   7.600   0.762
   17CHTO   H16 7158   5.180   7.628   0.688
   17CHTO    N1 7159   5.363   7.707   0.758
   17CHTO    H8 7160   5.335   7.785   0.690
   17CHTO    H9 7161   5.381   7.748   0.857
   17CHTO    C4 7162   5.183   7.594   0.900
   17CHTO   H17 7163   5.257   7.582   0.980
   17CHTO    O1 7164   5.088   7.486   0.901
   17CHTO    C5 7165   5.149   7.357   0.892
   17CHTO   H18 7166   5.227   7.349   0.968
   17CHTO   C16 7167   5.040   7.252   0.921
   17CHTO   O11 7168   4.988   7.264   1.054
   17CHTO    H5 7169   4.939   7.344   1.062
   17CHTO    O3 7170   5.102   7.711   0.923
   17CHTO    C6 7171   5.084   7.769   1.057
   17CHTO   H19 7172   4.989   7.822   1.063
   17CHTO    C8 7173   5.080   7.664   1.175
   17CHTO   H21 7174   5.171   7.603   1.170
   17CHTO    O7 7175   4.964   7.581   1.155
   17CHTO    H2 7176   4.975   7.528   1.079
   17CHTO   C12 7177   5.077   7.736   1.316
   17CHTO   H25 7178   4.976   7.782   1.325
   17CHTO    N3 7179   5.089   7.636   1.428
   17CHTO   H12 7180   5.083   7.687   1.523
   17CHTO   H13 7181   5.183   7.583   1.420
   17CHTO   C15 7182   5.185   7.849   1.323
   17CHTO   H28 7183   5.286   7.808   1.329
   17CHTO   O10 7184   5.163   7.944   1.440
   17CHTO    H4 7185   5.236   8.002   1.449
   17CHTO    O5 7186   5.175   7.938   1.210
   17CHTO   C10 7187   5.196   7.874   1.083
   17CHTO   H23 7188   5.293   7.824   1.084
   17CHTO   C17 7189   5.200   7.983   0.975
   17CHTO   O12 7190   5.317   8.063   0.987
   17CHTO    H6 7191   5.318   8.128   0.919
   18CHTO  H203 7192   6.428   8.010   1.645
   18CHTO   O82 7193   6.472   7.931   1.620
   18CHTO  C123 7194   6.463   7.912   1.478
   18CHTO  H227 7195   6.359   7.928   1.446
   18CHTO   O77 7196   6.548   8.018   1.424
   18CHTO  C118 7197   6.547   8.025   1.281
   18CHTO  H222 7198   6.443   8.031   1.247
   18CHTO  C125 7199   6.620   8.158   1.237
   18CHTO   O84 7200   6.754   8.167   1.286
   18CHTO  H205 7201   6.793   8.247   1.255
   18CHTO  C114 7202   6.610   7.898   1.222
   18CHTO  H218 7203   6.714   7.893   1.254
   18CHTO  C116 7204   6.537   7.770   1.274
   18CHTO  H220 7205   6.437   7.763   1.223
   18CHTO   O79 7206   6.611   7.655   1.229
   18CHTO  H201 7207   6.565   7.576   1.253
   18CHTO  C120 7208   6.517   7.772   1.431
   18CHTO  H224 7209   6.617   7.754   1.475
   18CHTO   N21 7210   6.430   7.660   1.476
   18CHTO  H211 7211   6.490   7.572   1.495
   18CHTO  H212 7212   6.375   7.687   1.564
   18CHTO   O75 7213   6.601   7.913   1.080
   18CHTO  C112 7214   6.741   7.902   0.999
   18CHTO  H216 7215   6.805   7.827   1.047
   18CHTO   O73 7216   6.801   8.033   1.002
   18CHTO  C113 7217   6.914   8.053   0.917
   18CHTO  H217 7218   6.992   7.978   0.944
   18CHTO  C124 7219   6.975   8.192   0.946
   18CHTO   O83 7220   6.885   8.301   0.921
   18CHTO  H204 7221   6.867   8.307   0.829
   18CHTO  C109 7222   6.871   8.034   0.770
   18CHTO  H213 7223   6.787   8.102   0.752
   18CHTO  C110 7224   6.825   7.886   0.753
   18CHTO  H214 7225   6.909   7.820   0.774
   18CHTO   O78 7226   6.785   7.865   0.617
   18CHTO  H200 7227   6.764   7.774   0.603
   18CHTO  C111 7228   6.707   7.857   0.851
   18CHTO  H215 7229   6.620   7.916   0.819
   18CHTO   N19 7230   6.663   7.714   0.851
   18CHTO  H207 7231   6.745   7.650   0.878
   18CHTO  H208 7232   6.626   7.687   0.753
   18CHTO   O74 7233   6.980   8.069   0.678
   18CHTO  C115 7234   6.922   8.131   0.536
   18CHTO  H219 7235   6.850   8.065   0.489
   18CHTO   O76 7236   6.844   8.266   0.560
   18CHTO  C122 7237   6.793   8.333   0.444
   18CHTO  H226 7238   6.775   8.436   0.475
   18CHTO  C126 7239   6.651   8.277   0.403
   18CHTO   O85 7240   6.651   8.139   0.363
   18CHTO  H206 7241   6.564   8.113   0.341
   18CHTO  C121 7242   6.892   8.339   0.321
   18CHTO  H225 7243   6.832   8.359   0.229
   18CHTO   O81 7244   6.979   8.451   0.338
   18CHTO  H202 7245   7.029   8.466   0.260
   18CHTO  C119 7246   6.973   8.206   0.299
   18CHTO  H223 7247   6.898   8.132   0.270
   18CHTO  C117 7248   7.038   8.156   0.433
   18CHTO  H221 7249   7.107   8.223   0.482
   18CHTO   N20 7250   7.115   8.029   0.412
   18CHTO  H209 7251   7.050   7.952   0.372
   18CHTO  H210 7252   7.198   8.046   0.345
   18CHTO   O80 7253   7.068   8.211   0.165
   18CHTO  C103 7254   7.029   8.121   0.036
   18CHTO  H190 7255   7.104   8.136   2.805
   18CHTO  C101 7256   7.015   7.966   0.063
   18CHTO  H188 7257   6.959   7.951   0.155
   18CHTO   O68 7258   7.153   7.911   0.083
   18CHTO  H168 7259   7.148   7.820   0.108
   18CHTO   C99 7260   6.935   7.892   2.793
   18CHTO  H186 7261   6.991   7.904   2.697
   18CHTO   N17 7262   6.914   7.745   2.814
   18CHTO  H174 7263   7.010   7.696   2.827
   18CHTO  H175 7264   6.861   7.703   2.730
   18CHTO   C97 7265   6.802   7.969   2.774
   18CHTO  H184 7266   6.750   7.971   0.024
   18CHTO   O64 7267   6.835   8.102   2.728
   18CHTO  C104 7268   6.894   8.183   2.831
   18CHTO  H191 7269   6.825   8.196   0.066
   18CHTO  C108 7270   6.919   8.324   2.774
   18CHTO   O71 7271   6.797   8.385   2.732
   18CHTO  H171 7272   6.815   8.470   2.696
   18CHTO   O62 7273   6.714   7.919   2.671
   18CHTO   C91 7274   6.574   7.910   2.705
   18CHTO  H178 7275   6.566   7.872   2.807
   18CHTO   C92 7276   6.511   7.799   2.613
   18CHTO  H179 7277   6.542   7.818   2.509
   18CHTO   O66 7278   6.571   7.674   2.650
   18CHTO  H166 7279   6.543   7.606   2.591
   18CHTO   C93 7280   6.352   7.792   2.622
   18CHTO  H180 7281   6.327   7.757   2.723
   18CHTO   N16 7282   6.291   7.695   2.528
   18CHTO  H172 7283   6.184   7.693   2.542
   18CHTO  H173 7284   6.315   7.721   2.426
   18CHTO   C94 7285   6.294   7.937   2.602
   18CHTO  H181 7286   6.324   7.979   2.506
   18CHTO   O61 7287   6.349   8.020   2.705
   18CHTO   C95 7288   6.490   8.045   2.693
   18CHTO  H182 7289   6.510   8.092   2.597
   18CHTO  C106 7290   6.523   8.153   2.803
   18CHTO   O69 7291   6.502   8.103   0.088
   18CHTO  H169 7292   6.565   8.037   0.108
   18CHTO   O63 7293   6.132   7.944   2.619
   18CHTO   C96 7294   6.083   8.098   2.609
   18CHTO  H183 7295   6.168   8.159   2.577
   18CHTO   C98 7296   6.030   8.158   2.742
   18CHTO  H185 7297   5.946   8.098   2.779
   18CHTO   O67 7298   6.133   8.146   2.842
   18CHTO  H167 7299   6.208   8.197   2.819
   18CHTO  C102 7300   5.987   8.312   2.723
   18CHTO  H189 7301   6.080   8.368   2.706
   18CHTO   N18 7302   5.923   8.374   2.842
   18CHTO  H176 7303   5.917   8.303   0.075
   18CHTO  H177 7304   5.979   8.461   0.025
   18CHTO  C105 7305   5.898   8.328   2.595
   18CHTO  H192 7306   5.797   8.295   2.617
   18CHTO   O65 7307   5.946   8.255   2.481
   18CHTO  C100 7308   5.970   8.115   2.502
   18CHTO  H187 7309   5.877   8.067   2.539
   18CHTO  C107 7310   6.007   8.049   2.367
   18CHTO   O70 7311   5.898   8.055   2.274
   18CHTO  H170 7312   5.883   8.145   2.250
   18CHTO   O57 7313   5.900   8.494   2.559
   18CHTO   C85 7314   5.792   8.561   2.491
   18CHTO  H157 7315   5.837   8.657   2.458
   18CHTO   C83 7316   5.681   8.601   2.594
   18CHTO  H155 7317   5.725   8.672   2.664
   18CHTO   O56 7318   5.640   8.487   2.672
   18CHTO  H135 7319   5.712   8.455   2.723
   18CHTO   C81 7320   5.563   8.671   2.520
   18CHTO  H153 7321   5.604   8.757   2.466
   18CHTO   N14 7322   5.463   8.730   2.613
   18CHTO  H141 7323   5.415   8.652   2.668
   18CHTO  H142 7324   5.511   8.797   2.681
   18CHTO   C79 7325   5.501   8.573   2.414
   18CHTO  H151 7326   5.423   8.628   2.361
   18CHTO   O52 7327   5.602   8.537   2.315
   18CHTO   C86 7328   5.727   8.482   2.369
   18CHTO  H158 7329   5.699   8.379   2.398
   18CHTO   C90 7330   5.829   8.467   2.253
   18CHTO   O60 7331   5.859   8.593   2.192
   18CHTO  H138 7332   5.906   8.647   2.252
   18CHTO   O50 7333   5.443   8.453   2.470
   18CHTO   C73 7334   5.359   8.337   2.467
   18CHTO  H145 7335   5.364   8.289   2.368
   18CHTO   C74 7336   5.210   8.373   2.497
   18CHTO  H146 7337   5.178   8.444   2.419
   18CHTO   O54 7338   5.129   8.255   2.480
   18CHTO  H133 7339   5.153   8.189   2.542
   18CHTO   C75 7340   5.201   8.436   2.642
   18CHTO  H147 7341   5.251   8.534   2.640
   18CHTO   N13 7342   5.063   8.469   2.687
   18CHTO  H139 7343   5.036   8.412   2.774
   18CHTO  H140 7344   4.991   8.450   2.609
   18CHTO   C76 7345   5.279   8.348   2.751
   18CHTO  H148 7346   5.215   8.264   2.780
   18CHTO   O49 7347   5.408   8.297   2.704
   18CHTO   C77 7348   5.407   8.235   2.574
   18CHTO  H149 7349   5.339   8.150   2.575
   18CHTO   C88 7350   5.546   8.178   2.546
   18CHTO   O58 7351   5.552   8.108   2.414
   18CHTO  H136 7352   5.498   8.031   2.417
   18CHTO   O51 7353   5.318   8.443   0.025
   18CHTO   C78 7354   5.324   8.373   0.164
   18CHTO  H150 7355   5.310   8.263   0.154
   18CHTO   C80 7356   5.214   8.429   0.256
   18CHTO  H152 7357   5.221   8.541   0.255
   18CHTO   O55 7358   5.088   8.392   0.199
   18CHTO  H134 7359   5.018   8.432   0.247
   18CHTO   C84 7360   5.231   8.378   0.406
   18CHTO  H156 7361   5.216   8.270   0.405
   18CHTO   N15 7362   5.129   8.436   0.499
   18CHTO  H143 7363   5.031   8.410   0.466
   18CHTO  H144 7364   5.144   8.397   0.598
   18CHTO   C87 7365   5.376   8.409   0.451
   18CHTO  H159 7366   5.391   8.517   0.448
   18CHTO   O53 7367   5.471   8.338   0.355
   18CHTO   C82 7368   5.464   8.395   0.224
   18CHTO  H154 7369   5.487   8.502   0.229
   18CHTO   C89 7370   5.575   8.331   0.137
   18CHTO   O59 7371   5.557   8.189   0.122
   18CHTO  H137 7372   5.626   8.155   0.069
   18CHTO   O45 7373   5.411   8.355   0.603
   18CHTO   C67 7374   5.544   8.392   0.643
   18CHTO  H124 7375   5.612   8.374   0.559
   18CHTO   C65 7376   5.553   8.544   0.683
   18CHTO  H122 7377   5.453   8.573   0.715
   18CHTO   O44 7378   5.587   8.616   0.564
   18CHTO  H102 7379   5.677   8.601   0.541
   18CHTO   C63 7380   5.645   8.570   0.809
   18CHTO  H120 7381   5.592   8.536   0.899
   18CHTO   N11 7382   5.674   8.713   0.842
   18CHTO  H108 7383   5.733   8.757   0.765
   18CHTO  H109 7384   5.582   8.767   0.853
   18CHTO   C61 7385   5.772   8.479   0.796
   18CHTO  H118 7386   5.833   8.495   0.886
   18CHTO   O40 7387   5.738   8.336   0.793
   18CHTO   C68 7388   5.599   8.300   0.760
   18CHTO  H125 7389   5.536   8.312   0.850
   18CHTO   C72 7390   5.595   8.150   0.721
   18CHTO   O48 7391   5.631   8.064   0.829
   18CHTO  H105 7392   5.564   8.065   0.895
   18CHTO   O38 7393   5.848   8.512   0.677
   18CHTO   C55 7394   5.983   8.462   0.672
   18CHTO  H112 7395   5.996   8.378   0.742
   18CHTO   C56 7396   6.086   8.579   0.699
   18CHTO  H113 7397   6.070   8.656   0.622
   18CHTO   O42 7398   6.057   8.641   0.826
   18CHTO  H100 7399   6.113   8.715   0.839
   18CHTO   C57 7400   6.234   8.523   0.694
   18CHTO  H114 7401   6.245   8.464   0.785
   18CHTO   N10 7402   6.339   8.628   0.699
   18CHTO  H106 7403   6.428   8.588   0.745
   18CHTO  H107 7404   6.304   8.712   0.757
   18CHTO   C58 7405   6.257   8.430   0.571
   18CHTO  H115 7406   6.282   8.492   0.482
   18CHTO   O37 7407   6.146   8.345   0.538
   18CHTO   C59 7408   6.016   8.406   0.531
   18CHTO  H116 7409   6.015   8.485   0.456
   18CHTO   C70 7410   5.914   8.299   0.489
   18CHTO   O46 7411   5.938   8.250   0.357
   18CHTO  H103 7412   5.874   8.184   0.336
   18CHTO   O39 7413   6.387   8.322   0.606
   18CHTO   C60 7414   6.354   8.220   0.702
   18CHTO  H117 7415   6.277   8.258   0.769
   18CHTO   C62 7416   6.298   8.091   0.634
   18CHTO  H119 7417   6.219   8.124   0.563
   18CHTO   O43 7418   6.400   8.025   0.557
   18CHTO  H101 7419   6.426   8.079   0.484
   18CHTO   C66 7420   6.231   8.001   0.747
   18CHTO  H123 7421   6.157   8.061   0.801
   18CHTO   N12 7422   6.156   7.886   0.690
   18CHTO  H110 7423   6.222   7.824   0.632
   18CHTO  H111 7424   6.073   7.922   0.631
   18CHTO   C69 7425   6.337   7.956   0.851
   18CHTO  H126 7426   6.404   7.881   0.805
   18CHTO   O41 7427   6.426   8.083   0.903
   18CHTO   C64 7428   6.475   8.180   0.791
   18CHTO  H121 7429   6.552   8.129   0.729
   18CHTO   C71 7430   6.542   8.301   0.861
   18CHTO   O47 7431   6.616   8.382   0.769
   18CHTO  H104 7432   6.691   8.335   0.738
   18CHTO   O34 7433   6.265   7.887   0.978
   18CHTO   C49 7434   6.202   7.925   1.118
   18CHTO   H91 7435   6.274   7.896   1.194
   18CHTO   C47 7436   6.072   7.845   1.138
   18CHTO   H89 7437   6.040   7.862   1.243
   18CHTO   O33 7438   6.103   7.706   1.122
   18CHTO   H70 7439   6.027   7.654   1.140
   18CHTO   C45 7440   5.960   7.900   1.036
   18CHTO   H87 7441   6.001   7.897   0.935
   18CHTO    N8 7442   5.836   7.819   1.038
   18CHTO   H75 7443   5.790   7.823   1.135
   18CHTO   H76 7444   5.859   7.716   1.013
   18CHTO   C43 7445   5.934   8.056   1.067
   18CHTO   H85 7446   5.863   8.091   0.991
   18CHTO   O29 7447   6.057   8.130   1.063
   18CHTO   C50 7448   6.174   8.078   1.130
   18CHTO   H92 7449   6.259   8.128   1.083
   18CHTO   C54 7450   6.187   8.128   1.277
   18CHTO   O36 7451   6.083   8.087   1.366
   18CHTO   H72 7452   6.002   8.126   1.340
   18CHTO   O27 7453   5.869   8.078   1.194
   18CHTO   C37 7454   5.784   8.172   1.260
   18CHTO   H79 7455   5.798   8.165   1.369
   18CHTO   C38 7456   5.817   8.320   1.219
   18CHTO   H80 7457   5.821   8.325   1.109
   18CHTO   O31 7458   5.947   8.352   1.271
   18CHTO   H68 7459   5.947   8.350   1.365
   18CHTO   C39 7460   5.708   8.421   1.272
   18CHTO   H81 7461   5.716   8.424   1.381
   18CHTO    N7 7462   5.729   8.561   1.222
   18CHTO   H73 7463   5.727   8.563   1.114
   18CHTO   H74 7464   5.824   8.599   1.258
   18CHTO   C40 7465   5.564   8.368   1.237
   18CHTO   H82 7466   5.552   8.370   1.129
   18CHTO   O26 7467   5.547   8.236   1.291
   18CHTO   C41 7468   5.636   8.139   1.227
   18CHTO   H83 7469   5.622   8.142   1.118
   18CHTO   C52 7470   5.599   7.999   1.277
   18CHTO   O35 7471   5.471   7.962   1.239
   18CHTO   H71 7472   5.468   7.946   1.146
   18CHTO   O28 7473   5.460   8.449   1.296
   18CHTO   C42 7474   5.315   8.425   1.292
   18CHTO   H84 7475   5.273   8.524   1.304
   18CHTO   C44 7476   5.257   8.339   1.408
   18CHTO   H86 7477   5.292   8.236   1.397
   18CHTO   O32 7478   5.310   8.394   1.531
   18CHTO   H69 7479   5.283   8.341   1.604
   18CHTO   C48 7480   5.099   8.340   1.405
   18CHTO   H90 7481   5.066   8.442   1.424
   18CHTO    N9 7482   5.038   8.256   1.515
   18CHTO   H77 7483   4.973   8.316   1.576
   18CHTO   H78 7484   4.984   8.171   1.474
   18CHTO   C51 7485   5.047   8.299   1.261
   18CHTO   H93 7486   5.070   8.193   1.246
   18CHTO   O30 7487   5.111   8.381   1.162
   18CHTO   C46 7488   5.259   8.368   1.158
   18CHTO   H88 7489   5.286   8.262   1.149
   18CHTO   C53 7490   5.306   8.445   1.032
   18CHTO   O72 7491   5.259   8.383   0.912
   18CHTO  H199 7492   5.290   8.431   0.838
   18CHTO   O22 7493   4.905   8.322   1.248
   18CHTO   C31 7494   4.827   8.303   1.123
   18CHTO   H59 7495   4.720   8.305   1.155
   18CHTO   C29 7496   4.844   8.418   1.020
   18CHTO   H57 7497   4.951   8.424   0.993
   18CHTO   O21 7498   4.810   8.541   1.085
   18CHTO   H37 7499   4.833   8.614   1.031
   18CHTO   C27 7500   4.761   8.394   0.887
   18CHTO   H55 7501   4.654   8.395   0.913
   18CHTO    N5 7502   4.785   8.497   0.783
   18CHTO   H43 7503   4.890   8.498   0.755
   18CHTO   H44 7504   4.756   8.594   0.820
   18CHTO   C25 7505   4.796   8.251   0.834
   18CHTO   H53 7506   4.904   8.247   0.810
   18CHTO   O17 7507   4.768   8.152   0.937
   18CHTO   C32 7508   4.849   8.164   1.055
   18CHTO   H60 7509   4.954   8.153   1.029
   18CHTO   C36 7510   4.806   8.044   1.144
   18CHTO   O25 7511   4.882   8.030   1.263
   18CHTO   H40 7512   4.851   7.957   1.312
   18CHTO   O15 7513   4.711   8.209   0.702
   18CHTO   C19 7514   4.746   8.135   0.581
   18CHTO   H47 7515   4.664   8.062   0.572
   18CHTO   C20 7516   4.747   8.223   0.452
   18CHTO   H48 7517   4.816   8.309   0.462
   18CHTO   O19 7518   4.614   8.275   0.436
   18CHTO   H35 7519   4.595   8.339   0.502
   18CHTO   C21 7520   4.793   8.141   0.324
   18CHTO   H49 7521   4.721   8.061   0.307
   18CHTO    N4 7522   4.799   8.223   0.200
   18CHTO   H41 7523   4.734   8.182   0.125
   18CHTO   H42 7524   4.900   8.229   0.161
   18CHTO   C22 7525   4.928   8.073   0.359
   18CHTO   H50 7526   5.001   8.151   0.384
   18CHTO   O14 7527   4.909   7.986   0.471
   18CHTO   C23 7528   4.877   8.052   0.594
   18CHTO   H51 7529   4.963   8.115   0.621
   18CHTO   C34 7530   4.864   7.942   0.701
   18CHTO   O23 7531   4.988   7.872   0.718
   18CHTO   H38 7532   5.049   7.927   0.763
   18CHTO   O16 7533   4.979   7.984   0.258
   18CHTO   C24 7534   5.131   8.017   0.205
   18CHTO   H52 7535   5.154   8.123   0.213
   18CHTO   C26 7536   5.136   7.973   0.057
   18CHTO   H54 7537   5.092   7.871   0.049
   18CHTO   O20 7538   5.051   8.063   2.830
   18CHTO   H36 7539   5.044   8.033   2.741
   18CHTO   C30 7540   5.281   7.967   2.847
   18CHTO   H58 7541   5.320   8.069   2.832
   18CHTO    N6 7542   5.282   7.903   2.712
   18CHTO   H45 7543   5.222   7.960   2.643
   18CHTO   H46 7544   5.243   7.802   2.718
   18CHTO   C33 7545   5.377   7.896   0.098
   18CHTO   H61 7546   5.346   7.791   0.110
   18CHTO   O18 7547   5.365   7.962   0.226
   18CHTO   C28 7548   5.238   7.941   0.289
   18CHTO   H56 7549   5.213   7.835   0.291
   18CHTO   C35 7550   5.248   7.993   0.434
   18CHTO   O24 7551   5.352   7.929   0.508
   18CHTO   H39 7552   5.355   7.965   0.595
   18CHTO    O9 7553   5.514   7.892   0.053
   18CHTO   C13 7554   5.606   7.802   0.150
   18CHTO   H26 7555   5.539   7.740   0.214
   18CHTO   C11 7556   5.699   7.896   0.236
   18CHTO   H24 7557   5.634   7.957   0.301
   18CHTO    O8 7558   5.774   7.987   0.153
   18CHTO    H3 7559   5.716   8.044   0.107
   18CHTO    C9 7560   5.787   7.804   0.325
   18CHTO   H22 7561   5.716   7.740   0.379
   18CHTO    N2 7562   5.862   7.875   0.431
   18CHTO   H10 7563   5.823   7.851   0.529
   18CHTO   H11 7564   5.861   7.982   0.415
   18CHTO    C7 7565   5.876   7.712   0.233
   18CHTO   H20 7566   5.926   7.644   0.305
   18CHTO    O4 7567   5.794   7.633   0.144
   18CHTO   C14 7568   5.690   7.697   0.066
   18CHTO   H27 7569   5.620   7.615   0.038
   18CHTO   C18 7570   5.746   7.756   2.782
   18CHTO   O13 7571   5.795   7.652   2.696
   18CHTO    H7 7572   5.828   7.690   2.617
   18CHTO    O2 7573   5.990   7.796   0.144
   18CHTO    C1 7574   6.118   7.732   0.123
   18CHTO   H14 7575   6.162   7.779   0.033
   18CHTO    C2 7576   6.116   7.574   0.101
   18CHTO   H15 7577   6.060   7.530   0.186
   18CHTO    O6 7578   6.046   7.546   2.826
   18CHTO    H1 7579   5.955   7.568   2.835
   18CHTO    C3 7580   6.264   7.513   0.098
   18CHTO   H16 7581   6.316   7.549   0.008
   18CHTO    N1 7582   6.263   7.363   0.092
   18CHTO    H8 7583   6.365   7.325   0.089
   18CHTO    H9 7584   6.210   7.330   0.004
   18CHTO    C4 7585   6.347   7.567   0.220
   18CHTO   H17 7586   6.305   7.526   0.312
   18CHTO    O1 7587   6.343   7.711   0.222
   18CHTO    C5 7588   6.214   7.771   0.240
   18CHTO   H18 7589   6.170   7.738   0.335
   18CHTO   C16 7590   6.243   7.923   0.249
   18CHTO   O11 7591   6.129   8.001   0.283
   18CHTO    H5 7592   6.153   8.092   0.287
   18CHTO    O3 7593   6.487   7.534   0.209
   18CHTO    C6 7594   6.565   7.547   0.332
   18CHTO   H19 7595   6.510   7.598   0.412
   18CHTO    C8 7596   6.606   7.406   0.386
   18CHTO   H21 7597   6.659   7.353   0.307
   18CHTO    O7 7598   6.485   7.335   0.419
   18CHTO    H2 7599   6.438   7.313   0.341
   18CHTO   C12 7600   6.703   7.422   0.511
   18CHTO   H25 7601   6.643   7.472   0.591
   18CHTO    N3 7602   6.746   7.289   0.566
   18CHTO   H12 7603   6.854   7.278   0.561
   18CHTO   H13 7604   6.712   7.277   0.667
   18CHTO   C15 7605   6.822   7.516   0.472
   18CHTO   H28 7606   6.889   7.470   0.400
   18CHTO   O10 7607   6.904   7.563   0.593
   18CHTO    H4 7608   6.944   7.489   0.634
   18CHTO    O5 7609   6.775   7.642   0.422
   18CHTO   C10 7610   6.693   7.632   0.304
   18CHTO   H23 7611   6.752   7.584   0.225
   18CHTO   C17 7612   6.661   7.774   0.257
   18CHTO   O12 7613   6.588   7.849   0.355
   18CHTO    H6 7614   6.570   7.934   0.322
   19CHTO  H203 7615   5.105   9.619   2.162
   19CHTO   O82 7616   5.097   9.544   2.217
   19CHTO  C123 7617   5.055   9.430   2.140
   19CHTO  H227 7618   4.972   9.461   2.075
   19CHTO   O77 7619   5.173   9.398   2.059
   19CHTO  C118 7620   5.155   9.287   1.970
   19CHTO  H222 7621   5.068   9.304   1.905
   19CHTO  C125 7622   5.284   9.273   1.881
   19CHTO   O84 7623   5.299   9.387   1.795
   19CHTO  H205 7624   5.376   9.377   1.743
   19CHTO  C114 7625   5.131   9.160   2.054
   19CHTO  H218 7626   5.217   9.145   2.120
   19CHTO  C116 7627   5.005   9.176   2.144
   19CHTO  H220 7628   4.914   9.182   2.078
   19CHTO   O79 7629   4.990   9.058   2.225
   19CHTO  H201 7630   4.967   8.985   2.171
   19CHTO  C120 7631   5.015   9.308   2.231
   19CHTO  H224 7632   5.095   9.289   2.306
   19CHTO   N21 7633   4.890   9.333   2.307
   19CHTO  H211 7634   4.911   9.386   2.399
   19CHTO  H212 7635   4.819   9.387   2.247
   19CHTO   O75 7636   5.120   9.051   1.960
   19CHTO  C112 7637   5.205   8.918   2.007
   19CHTO  H216 7638   5.201   8.911   2.117
   19CHTO   O73 7639   5.339   8.935   1.960
   19CHTO  C113 7640   5.428   8.828   1.995
   19CHTO  H217 7641   5.427   8.814   2.105
   19CHTO  C124 7642   5.570   8.872   1.954
   19CHTO   O83 7643   5.673   8.785   2.003
   19CHTO  H204 7644   5.667   8.702   1.960
   19CHTO  C109 7645   5.381   8.698   1.924
   19CHTO  H213 7646   5.385   8.718   1.815
   19CHTO  C110 7647   5.234   8.666   1.967
   19CHTO  H214 7648   5.235   8.638   2.073
   19CHTO   O78 7649   5.187   8.550   1.895
   19CHTO  H200 7650   5.185   8.567   1.802
   19CHTO  C111 7651   5.141   8.789   1.944
   19CHTO  H215 7652   5.131   8.805   1.836
   19CHTO   N19 7653   5.003   8.768   1.997
   19CHTO  H207 7654   4.942   8.854   1.976
   19CHTO  H208 7655   5.006   8.751   2.104
   19CHTO   O74 7656   5.470   8.587   1.955
   19CHTO  C115 7657   5.490   8.487   1.833
   19CHTO  H219 7658   5.396   8.470   1.779
   19CHTO   O76 7659   5.589   8.547   1.723
   19CHTO  C122 7660   5.727   8.522   1.752
   19CHTO  H226 7661   5.749   8.568   1.849
   19CHTO  C126 7662   5.816   8.598   1.647
   19CHTO   O85 7663   5.801   8.740   1.654
   19CHTO  H206 7664   5.714   8.764   1.629
   19CHTO  C121 7665   5.760   8.367   1.756
   19CHTO  H225 7666   5.803   8.337   1.658
   19CHTO   O81 7667   5.860   8.345   1.857
   19CHTO  H202 7668   5.827   8.366   1.942
   19CHTO  C119 7669   5.633   8.280   1.784
   19CHTO  H223 7670   5.577   8.279   1.690
   19CHTO  C117 7671   5.542   8.349   1.892
   19CHTO  H221 7672   5.591   8.374   1.986
   19CHTO   N20 7673   5.425   8.263   1.930
   19CHTO  H209 7674   5.365   8.313   2.004
   19CHTO  H210 7675   5.460   8.168   1.969
   19CHTO   O80 7676   5.667   8.123   1.802
   19CHTO  C103 7677   5.712   8.039   1.679
   19CHTO  H190 7678   5.691   8.093   1.586
   19CHTO  C101 7679   5.862   7.993   1.678
   19CHTO  H188 7680   5.884   7.945   1.774
   19CHTO   O68 7681   5.953   8.117   1.664
   19CHTO  H168 7682   6.043   8.092   1.673
   19CHTO   C99 7683   5.889   7.887   1.561
   19CHTO  H186 7684   5.876   7.938   1.463
   19CHTO   N17 7685   6.027   7.827   1.561
   19CHTO  H174 7686   6.082   7.859   1.649
   19CHTO  H175 7687   6.080   7.855   1.471
   19CHTO   C97 7688   5.781   7.774   1.564
   19CHTO  H184 7689   5.800   7.710   1.651
   19CHTO   O64 7690   5.648   7.830   1.566
   19CHTO  C104 7691   5.619   7.911   1.680
   19CHTO  H191 7692   5.638   7.855   1.772
   19CHTO  C108 7693   5.470   7.946   1.682
   19CHTO   O71 7694   5.430   8.027   1.570
   19CHTO  H171 7695   5.435   7.976   1.491
   19CHTO   O62 7696   5.785   7.697   1.442
   19CHTO   C91 7697   5.730   7.564   1.448
   19CHTO  H178 7698   5.669   7.555   1.538
   19CHTO   C92 7699   5.844   7.458   1.459
   19CHTO  H179 7700   5.917   7.475   1.378
   19CHTO   O66 7701   5.916   7.483   1.582
   19CHTO  H166 7702   5.991   7.427   1.587
   19CHTO   C93 7703   5.790   7.309   1.455
   19CHTO  H180 7704   5.736   7.291   1.550
   19CHTO   N16 7705   5.897   7.207   1.448
   19CHTO  H172 7706   5.854   7.108   1.448
   19CHTO  H173 7707   5.964   7.218   1.533
   19CHTO   C94 7708   5.688   7.291   1.336
   19CHTO  H181 7709   5.738   7.299   1.239
   19CHTO   O61 7710   5.589   7.394   1.340
   19CHTO   C95 7711   5.640   7.527   1.325
   19CHTO  H182 7712   5.699   7.532   1.233
   19CHTO  C106 7713   5.519   7.625   1.309
   19CHTO   O69 7714   5.448   7.601   1.188
   19CHTO  H169 7715   5.376   7.660   1.181
   19CHTO   O63 7716   5.609   7.154   1.348
   19CHTO   C96 7717   5.562   7.101   1.211
   19CHTO  H183 7718   5.650   7.094   1.148
   19CHTO   C98 7719   5.458   7.191   1.136
   19CHTO  H185 7720   5.495   7.294   1.126
   19CHTO   O67 7721   5.447   7.141   1.001
   19CHTO  H167 7722   5.526   7.156   0.954
   19CHTO  C102 7723   5.312   7.188   1.200
   19CHTO  H189 7724   5.242   7.202   1.117
   19CHTO   N18 7725   5.281   7.296   1.296
   19CHTO  H176 7726   5.349   7.292   1.380
   19CHTO  H177 7727   5.179   7.288   1.331
   19CHTO  C105 7728   5.283   7.046   1.259
   19CHTO  H192 7729   5.299   7.047   1.367
   19CHTO   O65 7730   5.364   6.942   1.203
   19CHTO  C100 7731   5.504   6.954   1.235
   19CHTO  H187 7732   5.515   6.928   1.341
   19CHTO  C107 7733   5.580   6.848   1.153
   19CHTO   O70 7734   5.720   6.845   1.186
   19CHTO  H170 7735   5.731   6.812   1.273
   19CHTO   O57 7736   5.133   7.024   1.227
   19CHTO   C85 7737   5.055   6.939   1.311
   19CHTO  H157 7738   5.111   6.926   1.406
   19CHTO   C83 7739   5.048   6.796   1.247
   19CHTO  H155 7740   5.150   6.757   1.242
   19CHTO   O56 7741   5.001   6.805   1.111
   19CHTO  H135 7742   5.062   6.854   1.058
   19CHTO   C81 7743   4.963   6.705   1.339
   19CHTO  H153 7744   5.008   6.705   1.438
   19CHTO   N14 7745   4.966   6.562   1.298
   19CHTO  H141 7746   5.067   6.527   1.293
   19CHTO  H142 7747   4.921   6.551   1.202
   19CHTO   C79 7748   4.817   6.764   1.352
   19CHTO  H151 7749   4.764   6.701   1.423
   19CHTO   O52 7750   4.823   6.898   1.410
   19CHTO   C86 7751   4.909   6.991   1.336
   19CHTO  H158 7752   4.856   7.007   1.240
   19CHTO   C90 7753   4.912   7.129   1.406
   19CHTO   O60 7754   4.783   7.190   1.402
   19CHTO  H138 7755   4.787   7.274   1.445
   19CHTO   O50 7756   4.742   6.767   1.229
   19CHTO   C73 7757   4.614   6.771   1.165
   19CHTO  H145 7758   4.568   6.671   1.168
   19CHTO   C74 7759   4.628   6.814   1.015
   19CHTO  H146 7760   4.698   6.742   0.968
   19CHTO   O54 7761   4.501   6.795   0.950
   19CHTO  H133 7762   4.479   6.704   0.946
   19CHTO   C75 7763   4.683   6.962   1.008
   19CHTO  H147 7764   4.784   6.964   1.049
   19CHTO   N13 7765   4.697   7.013   0.869
   19CHTO  H139 7766   4.799   7.044   0.850
   19CHTO  H140 7767   4.632   7.098   0.851
   19CHTO   C76 7768   4.593   7.059   1.099
   19CHTO  H148 7769   4.496   7.072   1.052
   19CHTO   O49 7770   4.575   7.004   1.234
   19CHTO   C77 7771   4.518   6.872   1.236
   19CHTO  H149 7772   4.423   6.873   1.184
   19CHTO   C88 7773   4.486   6.834   1.381
   19CHTO   O58 7774   4.420   6.702   1.388
   19CHTO  H136 7775   4.480   6.635   1.364
   19CHTO   O51 7776   4.670   7.201   1.125
   19CHTO   C78 7777   4.583   7.332   1.087
   19CHTO  H150 7778   4.494   7.306   1.026
   19CHTO   C80 7779   4.671   7.430   1.007
   19CHTO  H152 7780   4.764   7.450   1.066
   19CHTO   O55 7781   4.709   7.363   0.886
   19CHTO  H134 7782   4.771   7.415   0.838
   19CHTO   C84 7783   4.597   7.567   0.978
   19CHTO  H156 7784   4.514   7.546   0.910
   19CHTO   N15 7785   4.685   7.667   0.909
   19CHTO  H143 7786   4.771   7.688   0.970
   19CHTO  H144 7787   4.717   7.629   0.815
   19CHTO   C87 7788   4.538   7.626   1.108
   19CHTO  H159 7789   4.619   7.661   1.174
   19CHTO   O53 7790   4.454   7.517   1.181
   19CHTO   C82 7791   4.533   7.402   1.216
   19CHTO  H154 7792   4.618   7.432   1.277
   19CHTO   C89 7793   4.446   7.308   1.303
   19CHTO   O59 7794   4.328   7.266   1.235
   19CHTO  H137 7795   4.278   7.208   1.290
   19CHTO   O45 7796   4.439   7.754   1.073
   19CHTO   C67 7797   4.380   7.818   1.187
   19CHTO  H124 7798   4.354   7.741   1.260
   19CHTO   C65 7799   4.477   7.921   1.254
   19CHTO  H122 7800   4.541   7.957   1.174
   19CHTO   O44 7801   4.557   7.845   1.347
   19CHTO  H102 7802   4.628   7.898   1.379
   19CHTO   C63 7803   4.404   8.050   1.309
   19CHTO  H120 7804   4.382   8.115   1.224
   19CHTO   N11 7805   4.486   8.141   1.395
   19CHTO  H108 7806   4.432   8.232   1.414
   19CHTO  H109 7807   4.579   8.164   1.347
   19CHTO   C61 7808   4.264   8.009   1.369
   19CHTO  H118 7809   4.215   8.103   1.399
   19CHTO   O40 7810   4.180   7.948   1.267
   19CHTO   C68 7811   4.244   7.887   1.149
   19CHTO  H125 7812   4.262   7.967   1.074
   19CHTO   C72 7813   4.145   7.787   1.086
   19CHTO   O48 7814   4.028   7.852   1.036
   19CHTO  H105 7815   3.969   7.788   1.001
   19CHTO   O38 7816   4.278   7.923   1.484
   19CHTO   C55 7817   4.158   7.863   1.537
   19CHTO  H112 7818   4.085   7.846   1.457
   19CHTO   C56 7819   4.095   7.949   1.655
   19CHTO  H113 7820   4.173   7.961   1.732
   19CHTO   O42 7821   4.064   8.081   1.607
   19CHTO  H100 7822   4.036   8.136   1.678
   19CHTO   C57 7823   3.968   7.877   1.715
   19CHTO  H114 7824   3.891   7.880   1.638
   19CHTO   N10 7825   3.911   7.943   1.835
   19CHTO  H106 7826   3.989   7.992   1.892
   19CHTO  H107 7827   3.838   8.017   1.805
   19CHTO   C58 7828   3.999   7.728   1.746
   19CHTO  H115 7829   4.065   7.722   1.836
   19CHTO   O37 7830   4.064   7.664   1.635
   19CHTO   C59 7831   4.188   7.722   1.593
   19CHTO  H116 7832   4.257   7.727   1.677
   19CHTO   C70 7833   4.247   7.629   1.486
   19CHTO   O46 7834   4.273   7.498   1.536
   19CHTO  H103 7835   4.308   7.445   1.467
   19CHTO   O39 7836   3.853   7.642   1.775
   19CHTO   C60 7837   3.849   7.508   1.721
   19CHTO  H117 7838   3.891   7.509   1.620
   19CHTO   C62 7839   3.933   7.409   1.806
   19CHTO  H119 7840   4.034   7.454   1.816
   19CHTO   O43 7841   3.877   7.394   1.938
   19CHTO  H101 7842   3.882   7.475   1.985
   19CHTO   C66 7843   3.946   7.272   1.724
   19CHTO  H123 7844   3.987   7.294   1.626
   19CHTO   N12 7845   4.041   7.176   1.787
   19CHTO  H110 7846   4.139   7.219   1.792
   19CHTO  H111 7847   4.006   7.149   1.886
   19CHTO   C69 7848   3.806   7.209   1.701
   19CHTO  H126 7849   3.766   7.167   1.796
   19CHTO   O41 7850   3.701   7.318   1.645
   19CHTO   C64 7851   3.703   7.459   1.706
   19CHTO  H121 7852   3.655   7.458   1.806
   19CHTO   C71 7853   3.624   7.554   1.614
   19CHTO   O47 7854   3.490   7.507   1.591
   19CHTO  H104 7855   3.440   7.513   1.671
   19CHTO   O34 7856   3.817   7.092   1.595
   19CHTO   C49 7857   3.780   7.051   1.449
   19CHTO   H91 7858   3.693   6.987   1.455
   19CHTO   C47 7859   3.897   6.970   1.390
   19CHTO   H89 7860   3.862   6.929   1.293
   19CHTO   O33 7861   3.925   6.861   1.479
   19CHTO   H70 7862   3.854   6.799   1.479
   19CHTO   C45 7863   4.021   7.069   1.367
   19CHTO   H87 7864   4.045   7.119   1.462
   19CHTO    N8 7865   4.143   6.996   1.322
   19CHTO   H75 7866   4.226   7.065   1.314
   19CHTO   H76 7867   4.167   6.919   1.393
   19CHTO   C43 7868   3.978   7.187   1.266
   19CHTO   H85 7869   4.063   7.256   1.262
   19CHTO   O29 7870   3.858   7.253   1.312
   19CHTO   C50 7871   3.747   7.174   1.359
   19CHTO   H92 7872   3.687   7.242   1.420
   19CHTO   C54 7873   3.645   7.139   1.246
   19CHTO   O36 7874   3.696   7.051   1.146
   19CHTO   H72 7875   3.765   7.093   1.098
   19CHTO   O27 7876   3.958   7.142   1.131
   19CHTO   C37 7877   3.969   7.198   0.999
   19CHTO   H79 7878   3.905   7.140   0.929
   19CHTO   C38 7879   3.919   7.346   0.993
   19CHTO   H80 7880   3.967   7.402   1.074
   19CHTO   O31 7881   3.777   7.345   1.016
   19CHTO   H68 7882   3.732   7.299   0.948
   19CHTO   C39 7883   3.954   7.414   0.855
   19CHTO   H81 7884   3.898   7.362   0.777
   19CHTO    N7 7885   3.916   7.560   0.847
   19CHTO   H73 7886   3.842   7.575   0.769
   19CHTO   H74 7887   3.878   7.595   0.942
   19CHTO   C40 7888   4.107   7.394   0.825
   19CHTO   H82 7889   4.166   7.445   0.901
   19CHTO   O26 7890   4.135   7.253   0.822
   19CHTO   C41 7891   4.117   7.187   0.951
   19CHTO   H83 7892   4.183   7.233   1.025
   19CHTO   C52 7893   4.159   7.039   0.933
   19CHTO   O35 7894   4.299   7.024   0.895
   19CHTO   H71 7895   4.313   7.058   0.809
   19CHTO   O28 7896   4.148   7.437   0.693
   19CHTO   C42 7897   4.276   7.505   0.673
   19CHTO   H84 7898   4.322   7.512   0.772
   19CHTO   C44 7899   4.265   7.651   0.619
   19CHTO   H86 7900   4.213   7.649   0.523
   19CHTO   O32 7901   4.185   7.726   0.712
   19CHTO   H69 7902   4.096   7.696   0.710
   19CHTO   C48 7903   4.406   7.719   0.597
   19CHTO   H90 7904   4.450   7.739   0.695
   19CHTO    N9 7905   4.395   7.854   0.529
   19CHTO   H77 7906   4.348   7.842   0.432
   19CHTO   H78 7907   4.337   7.921   0.591
   19CHTO   C51 7908   4.503   7.623   0.519
   19CHTO   H93 7909   4.466   7.613   0.416
   19CHTO   O30 7910   4.509   7.496   0.585
   19CHTO   C46 7911   4.375   7.424   0.583
   19CHTO   H88 7912   4.338   7.422   0.481
   19CHTO   C53 7913   4.399   7.279   0.631
   19CHTO   O72 7914   4.448   7.273   0.765
   19CHTO  H199 7915   4.534   7.308   0.770
   19CHTO   O22 7916   4.639   7.672   0.519
   19CHTO   C31 7917   4.737   7.617   0.424
   19CHTO   H59 7918   4.706   7.512   0.403
   19CHTO   C29 7919   4.743   7.690   0.288
   19CHTO   H57 7920   4.770   7.795   0.307
   19CHTO   O21 7921   4.611   7.692   0.230
   19CHTO   H37 7922   4.584   7.605   0.207
   19CHTO   C27 7923   4.851   7.626   0.192
   19CHTO   H55 7924   4.821   7.522   0.171
   19CHTO    N5 7925   4.864   7.697   0.062
   19CHTO   H43 7926   4.803   7.786   0.060
   19CHTO   H44 7927   4.967   7.723   0.041
   19CHTO   C25 7928   4.988   7.617   0.269
   19CHTO   H53 7929   5.023   7.719   0.291
   19CHTO   O17 7930   4.972   7.546   0.395
   19CHTO   C32 7931   4.880   7.609   0.486
   19CHTO   H60 7932   4.915   7.709   0.508
   19CHTO   C36 7933   4.882   7.528   0.618
   19CHTO   O25 7934   4.840   7.392   0.601
   19CHTO   H40 7935   4.904   7.345   0.551
   19CHTO   O15 7936   5.095   7.542   0.190
   19CHTO   C19 7937   5.150   7.432   0.113
   19CHTO   H47 7938   5.090   7.431   0.021
   19CHTO   C20 7939   5.300   7.452   0.076
   19CHTO   H48 7940   5.364   7.461   0.165
   19CHTO   O19 7941   5.309   7.575   0.002
   19CHTO   H35 7942   5.293   7.648   0.058
   19CHTO   C21 7943   5.355   7.332   2.836
   19CHTO   H49 7944   5.306   7.336   2.739
   19CHTO    N4 7945   5.501   7.342   2.809
   19CHTO   H41 7946   5.523   7.433   2.756
   19CHTO   H42 7947   5.556   7.341   0.054
   19CHTO   C22 7948   5.317   7.196   0.052
   19CHTO   H50 7949   5.380   7.176   0.139
   19CHTO   O14 7950   5.178   7.190   0.089
   19CHTO   C23 7951   5.131   7.292   0.179
   19CHTO   H51 7952   5.187   7.282   0.273
   19CHTO   C34 7953   4.983   7.262   0.208
   19CHTO   O23 7954   4.965   7.137   0.276
   19CHTO   H38 7955   4.997   7.144   0.364
   19CHTO   O16 7956   5.324   7.092   2.802
   19CHTO   C24 7957   5.422   6.973   2.826
   19CHTO   H52 7958   5.499   6.998   0.052
   19CHTO   C26 7959   5.488   6.944   2.690
   19CHTO   H54 7960   5.411   6.961   2.610
   19CHTO   O20 7961   5.592   7.041   2.669
   19CHTO   H36 7962   5.626   7.034   2.582
   19CHTO   C30 7963   5.540   6.797   2.675
   19CHTO   H58 7964   5.628   6.781   2.740
   19CHTO    N6 7965   5.584   6.770   2.536
   19CHTO   H45 7966   5.501   6.781   2.467
   19CHTO   H46 7967   5.623   6.669   2.528
   19CHTO   C33 7968   5.428   6.702   2.724
   19CHTO   H61 7969   5.335   6.726   2.670
   19CHTO   O18 7970   5.408   6.730   0.016
   19CHTO   C28 7971   5.340   6.854   0.037
   19CHTO   H56 7972   5.242   6.851   2.837
   19CHTO   C35 7973   5.314   6.871   0.189
   19CHTO   O24 7974   5.434   6.870   0.269
   19CHTO   H39 7975   5.474   6.786   0.266
   19CHTO    O9 7976   5.451   6.561   2.702
   19CHTO   C13 7977   5.310   6.483   2.673
   19CHTO   H26 7978   5.259   6.535   2.588
   19CHTO   C11 7979   5.220   6.482   2.803
   19CHTO   H24 7980   5.195   6.587   2.828
   19CHTO    O8 7981   5.292   6.427   0.067
   19CHTO    H3 7982   5.365   6.481   0.088
   19CHTO    C9 7983   5.087   6.409   2.768
   19CHTO   H22 7984   5.045   6.464   2.683
   19CHTO    N2 7985   4.985   6.421   0.027
   19CHTO   H10 7986   4.968   6.525   0.051
   19CHTO   H11 7987   5.017   6.367   0.115
   19CHTO    C7 7988   5.118   6.262   2.723
   19CHTO   H20 7989   5.021   6.227   2.683
   19CHTO    O4 7990   5.217   6.254   2.618
   19CHTO   C14 7991   5.335   6.336   2.620
   19CHTO   H27 7992   5.367   6.344   2.514
   19CHTO   C18 7993   5.451   6.264   2.695
   19CHTO   O13 7994   5.488   6.142   2.629
   19CHTO    H7 7995   5.419   6.079   2.638
   19CHTO    O2 7996   5.162   6.165   0.001
   19CHTO    C1 7997   5.185   6.025   2.822
   19CHTO   H14 7998   5.270   6.015   2.751
   19CHTO    C2 7999   5.060   5.945   2.763
   19CHTO   H15 8000   4.974   5.970   2.827
   19CHTO    O6 8001   5.034   5.988   2.628
   19CHTO    H1 8002   5.108   5.972   2.573
   19CHTO    C3 8003   5.086   5.785   2.765
   19CHTO   H16 8004   5.162   5.761   2.690
   19CHTO    N1 8005   4.962   5.708   2.728
   19CHTO    H8 8006   4.931   5.734   2.628
   19CHTO    H9 8007   4.882   5.730   2.797
   19CHTO    C4 8008   5.145   5.740   0.056
   19CHTO   H17 8009   5.068   5.751   0.132
   19CHTO    O1 8010   5.260   5.820   0.090
   19CHTO    C5 8011   5.230   5.960   0.107
   19CHTO   H18 8012   5.149   5.971   0.179
   19CHTO   C16 8013   5.356   6.029   0.165
   19CHTO   O11 8014   5.388   5.979   0.296
   19CHTO    H5 8015   5.464   6.022   0.328
   19CHTO    O3 8016   5.193   5.604   0.052
   19CHTO    C6 8017   5.187   5.533   0.180
   19CHTO   H19 8018   5.179   5.601   0.266
   19CHTO    C8 8019   5.063   5.438   0.183
   19CHTO   H21 8020   5.066   5.374   0.094
   19CHTO    O7 8021   4.945   5.520   0.179
   19CHTO    H2 8022   4.937   5.561   0.096
   19CHTO   C12 8023   5.065   5.345   0.312
   19CHTO   H25 8024   5.050   5.413   0.399
   19CHTO    N3 8025   4.951   5.247   0.314
   19CHTO   H12 8026   4.887   5.260   0.228
   19CHTO   H13 8027   4.987   5.145   0.318
   19CHTO   C15 8028   5.207   5.278   0.325
   19CHTO   H28 8029   5.224   5.203   0.248
   19CHTO   O10 8030   5.229   5.216   0.461
   19CHTO    H4 8031   5.168   5.145   0.474
   19CHTO    O5 8032   5.312   5.376   0.322
   19CHTO   C10 8033   5.317   5.451   0.200
   19CHTO   H23 8034   5.331   5.381   0.117
   19CHTO   C17 8035   5.441   5.542   0.204
   19CHTO   O12 8036   5.562   5.466   0.210
   19CHTO    H6 8037   5.568   5.422   0.293
   20CHTO  H203 8038   4.866   1.032   1.684
   20CHTO   O82 8039   4.947   1.069   1.714
   20CHTO  C123 8040   4.981   1.184   1.635
   20CHTO  H227 8041   4.902   1.259   1.646
   20CHTO   O77 8042   5.104   1.231   1.697
   20CHTO  C118 8043   5.151   1.355   1.642
   20CHTO  H222 8044   5.069   1.429   1.645
   20CHTO  C125 8045   5.269   1.408   1.732
   20CHTO   O84 8046   5.384   1.323   1.726
   20CHTO  H205 8047   5.452   1.359   1.781
   20CHTO  C114 8048   5.193   1.333   1.495
   20CHTO  H218 8049   5.275   1.261   1.493
   20CHTO  C116 8050   5.075   1.275   1.411
   20CHTO  H220 8051   5.000   1.355   1.397
   20CHTO   O79 8052   5.123   1.241   1.280
   20CHTO  H201 8053   5.052   1.213   1.226
   20CHTO  C120 8054   5.009   1.150   1.483
   20CHTO  H224 8055   5.082   1.067   1.476
   20CHTO   N21 8056   4.885   1.105   1.413
   20CHTO  H211 8057   4.799   1.158   1.450
   20CHTO  H212 8058   4.895   1.117   1.306
   20CHTO   O75 8059   5.240   1.462   1.451
   20CHTO  C112 8060   5.348   1.459   1.328
   20CHTO  H216 8061   5.329   1.370   1.265
   20CHTO   O73 8062   5.480   1.456   1.385
   20CHTO  C113 8063   5.584   1.445   1.287
   20CHTO  H217 8064   5.567   1.354   1.226
   20CHTO  C124 8065   5.719   1.428   1.359
   20CHTO   O83 8066   5.725   1.306   1.433
   20CHTO  H204 8067   5.812   1.295   1.469
   20CHTO  C109 8068   5.585   1.570   1.194
   20CHTO  H213 8069   5.611   1.657   1.258
   20CHTO  C110 8070   5.444   1.590   1.130
   20CHTO  H214 8071   5.427   1.510   1.058
   20CHTO   O78 8072   5.442   1.713   1.056
   20CHTO  H200 8073   5.459   1.786   1.113
   20CHTO  C111 8074   5.332   1.588   1.239
   20CHTO  H215 8075   5.345   1.676   1.304
   20CHTO   N19 8076   5.194   1.596   1.183
   20CHTO  H207 8077   5.121   1.597   1.262
   20CHTO  H208 8078   5.176   1.512   1.117
   20CHTO   O74 8079   5.688   1.555   1.091
   20CHTO  C115 8080   5.748   1.695   1.037
   20CHTO  H219 8081   5.692   1.780   1.076
   20CHTO   O76 8082   5.890   1.717   1.084
   20CHTO  C122 8083   5.980   1.611   1.046
   20CHTO  H226 8084   5.957   1.525   1.110
   20CHTO  C126 8085   6.125   1.656   1.086
   20CHTO   O85 8086   6.165   1.777   1.020
   20CHTO  H206 8087   6.252   1.800   1.047
   20CHTO  C121 8088   5.969   1.571   0.893
   20CHTO  H225 8089   6.071   1.571   0.848
   20CHTO   O81 8090   5.918   1.437   0.881
   20CHTO  H202 8091   5.925   1.407   0.793
   20CHTO  C119 8092   5.881   1.671   0.813
   20CHTO  H223 8093   5.935   1.766   0.818
   20CHTO  C117 8094   5.738   1.693   0.879
   20CHTO  H221 8095   5.667   1.614   0.857
   20CHTO   N20 8096   5.675   1.818   0.825
   20CHTO  H209 8097   5.669   1.813   0.717
   20CHTO  H210 8098   5.575   1.829   0.866
   20CHTO   O80 8099   5.876   1.645   0.654
   20CHTO  C103 8100   6.005   1.666   0.564
   20CHTO  H190 8101   6.096   1.671   0.624
   20CHTO  C101 8102   6.022   1.555   0.451
   20CHTO  H188 8103   5.923   1.528   0.416
   20CHTO   O68 8104   6.086   1.431   0.517
   20CHTO  H168 8105   6.086   1.359   0.456
   20CHTO   C99 8106   6.107   1.604   0.323
   20CHTO  H186 8107   6.214   1.613   0.352
   20CHTO   N17 8108   6.103   1.507   0.208
   20CHTO  H174 8109   6.033   1.427   0.227
   20CHTO  H175 8110   6.080   1.557   0.115
   20CHTO   C97 8111   6.063   1.747   0.282
   20CHTO  H184 8112   5.957   1.742   0.251
   20CHTO   O64 8113   6.081   1.833   0.396
   20CHTO  C104 8114   5.983   1.809   0.498
   20CHTO  H191 8115   5.883   1.814   0.457
   20CHTO  C108 8116   5.993   1.924   0.600
   20CHTO   O71 8117   6.117   1.924   0.671
   20CHTO  H171 8118   6.187   1.945   0.613
   20CHTO   O62 8119   6.141   1.804   0.175
   20CHTO   C91 8120   6.108   1.938   0.132
   20CHTO  H178 8121   6.052   1.988   0.212
   20CHTO   C92 8122   6.013   1.938   0.008
   20CHTO  H179 8123   6.062   1.883   2.774
   20CHTO   O66 8124   5.895   1.864   0.042
   20CHTO  H166 8125   5.840   1.854   2.814
   20CHTO   C93 8126   5.976   2.086   2.811
   20CHTO  H180 8127   5.910   2.127   0.041
   20CHTO   N16 8128   5.898   2.090   2.686
   20CHTO  H172 8129   5.872   2.192   2.661
   20CHTO  H173 8130   5.955   2.045   2.605
   20CHTO   C94 8131   6.105   2.177   2.801
   20CHTO  H181 8132   6.166   2.153   2.714
   20CHTO   O61 8133   6.190   2.162   0.068
   20CHTO   C95 8134   6.232   2.028   0.099
   20CHTO  H182 8135   6.285   1.987   0.013
   20CHTO  C106 8136   6.332   2.031   0.220
   20CHTO   O69 8137   6.452   2.102   0.187
   20CHTO  H169 8138   6.511   2.098   0.260
   20CHTO   O63 8139   6.064   2.337   2.803
   20CHTO   C96 8140   6.043   2.410   2.660
   20CHTO  H183 8141   5.984   2.344   2.597
   20CHTO   C98 8142   6.174   2.445   2.584
   20CHTO  H185 8143   6.242   2.501   2.650
   20CHTO   O67 8144   6.242   2.322   2.553
   20CHTO  H167 8145   6.272   2.280   2.632
   20CHTO  C102 8146   6.145   2.527   2.449
   20CHTO  H189 8147   6.094   2.457   2.381
   20CHTO   N18 8148   6.267   2.572   2.375
   20CHTO  H176 8149   6.273   2.679   2.370
   20CHTO  H177 8150   6.356   2.533   2.422
   20CHTO  C105 8151   6.047   2.644   2.478
   20CHTO  H192 8152   6.098   2.721   2.536
   20CHTO   O65 8153   5.931   2.601   2.553
   20CHTO  C100 8154   5.960   2.543   2.681
   20CHTO  H187 8155   6.020   2.614   2.740
   20CHTO  C107 8156   5.825   2.520   2.753
   20CHTO   O70 8157   5.842   2.487   0.043
   20CHTO  H170 8158   5.758   2.472   0.083
   20CHTO   O57 8159   6.000   2.703   2.332
   20CHTO   C85 8160   5.912   2.817   2.324
   20CHTO  H157 8161   5.873   2.835   2.426
   20CHTO   C83 8162   5.789   2.777   2.237
   20CHTO  H155 8163   5.736   2.697   2.289
   20CHTO   O56 8164   5.834   2.723   2.112
   20CHTO  H135 8165   5.762   2.689   2.063
   20CHTO   C81 8166   5.692   2.898   2.223
   20CHTO  H153 8167   5.662   2.930   2.323
   20CHTO   N14 8168   5.563   2.864   2.157
   20CHTO  H141 8169   5.497   2.947   2.160
   20CHTO  H142 8170   5.580   2.836   2.055
   20CHTO   C79 8171   5.767   3.019   2.154
   20CHTO  H151 8172   5.700   3.104   2.157
   20CHTO   O52 8173   5.885   3.056   2.233
   20CHTO   C86 8174   5.979   2.947   2.263
   20CHTO  H158 8175   6.029   2.926   2.166
   20CHTO   C90 8176   6.089   3.005   2.356
   20CHTO   O60 8177   6.201   2.918   2.370
   20CHTO  H138 8178   6.248   2.911   2.289
   20CHTO   O50 8179   5.803   2.996   2.017
   20CHTO   C73 8180   5.894   2.968   1.910
   20CHTO  H145 8181   5.952   2.877   1.931
   20CHTO   C74 8182   5.994   3.087   1.891
   20CHTO  H146 8183   6.047   3.099   1.987
   20CHTO   O54 8184   6.094   3.046   1.796
   20CHTO  H133 8185   6.055   3.032   1.711
   20CHTO   C75 8186   5.915   3.217   1.850
   20CHTO  H147 8187   5.853   3.247   1.935
   20CHTO   N13 8188   6.003   3.334   1.823
   20CHTO  H139 8189   6.061   3.357   1.911
   20CHTO  H140 8190   5.943   3.420   1.798
   20CHTO   C76 8191   5.817   3.187   1.726
   20CHTO  H148 8192   5.878   3.175   1.637
   20CHTO   O49 8193   5.739   3.065   1.746
   20CHTO   C77 8194   5.815   2.948   1.777
   20CHTO  H149 8195   5.885   2.927   1.696
   20CHTO   C88 8196   5.718   2.829   1.782
   20CHTO   O58 8197   5.788   2.703   1.796
   20CHTO  H136 8198   5.836   2.684   1.717
   20CHTO   O51 8199   5.701   3.307   1.706
   20CHTO   C78 8200   5.601   3.333   1.834
   20CHTO  H150 8201   5.645   3.292   1.928
   20CHTO   C80 8202   5.461   3.270   1.813
   20CHTO  H152 8203   5.415   3.316   1.722
   20CHTO   O55 8204   5.477   3.130   1.789
   20CHTO  H134 8205   5.394   3.091   1.767
   20CHTO   C84 8206   5.369   3.297   1.939
   20CHTO  H156 8207   5.413   3.240   2.022
   20CHTO   N15 8208   5.228   3.246   1.923
   20CHTO  H143 8209   5.215   3.200   1.827
   20CHTO  H144 8210   5.205   3.175   1.999
   20CHTO   C87 8211   5.369   3.447   1.978
   20CHTO  H159 8212   5.306   3.504   1.908
   20CHTO   O53 8213   5.512   3.506   1.976
   20CHTO   C82 8214   5.582   3.484   1.853
   20CHTO  H154 8215   5.525   3.526   1.770
   20CHTO   C89 8216   5.716   3.561   1.858
   20CHTO   O59 8217   5.696   3.702   1.855
   20CHTO  H137 8218   5.657   3.731   1.936
   20CHTO   O45 8219   5.306   3.470   2.131
   20CHTO   C67 8220   5.389   3.426   2.240
   20CHTO  H124 8221   5.445   3.338   2.209
   20CHTO   C65 8222   5.492   3.537   2.285
   20CHTO  H122 8223   5.477   3.622   2.218
   20CHTO   O44 8224   5.624   3.483   2.264
   20CHTO  H102 8225   5.688   3.550   2.276
   20CHTO   C63 8226   5.463   3.592   2.430
   20CHTO  H120 8227   5.364   3.638   2.429
   20CHTO   N11 8228   5.549   3.705   2.477
   20CHTO  H108 8229   5.495   3.798   2.476
   20CHTO  H109 8230   5.637   3.714   2.416
   20CHTO   C61 8231   5.453   3.471   2.532
   20CHTO  H118 8232   5.398   3.510   2.619
   20CHTO   O40 8233   5.376   3.359   2.481
   20CHTO   C68 8234   5.298   3.380   2.360
   20CHTO  H125 8235   5.221   3.457   2.381
   20CHTO   C72 8236   5.221   3.249   2.328
   20CHTO   O48 8237   5.307   3.136   2.304
   20CHTO  H105 8238   5.354   3.149   2.224
   20CHTO   O38 8239   5.581   3.418   2.572
   20CHTO   C55 8240   5.578   3.339   2.693
   20CHTO  H112 8241   5.477   3.297   2.707
   20CHTO   C56 8242   5.625   3.423   2.819
   20CHTO  H113 8243   5.727   3.459   2.798
   20CHTO   O42 8244   5.542   3.540   2.834
   20CHTO  H100 8245   5.554   3.598   2.761
   20CHTO   C57 8246   5.623   3.333   0.101
   20CHTO  H114 8247   5.518   3.311   0.122
   20CHTO   N10 8248   5.678   3.401   0.221
   20CHTO  H106 8249   5.721   3.329   0.290
   20CHTO  H107 8250   5.601   3.456   0.271
   20CHTO   C58 8251   5.696   3.198   0.074
   20CHTO  H115 8252   5.806   3.216   0.071
   20CHTO   O37 8253   5.654   3.136   2.800
   20CHTO   C59 8254   5.672   3.216   2.682
   20CHTO  H116 8255   5.776   3.247   2.673
   20CHTO   C70 8256   5.638   3.130   2.559
   20CHTO   O46 8257   5.727   3.018   2.547
   20CHTO  H103 8258   5.701   2.966   2.474
   20CHTO   O39 8259   5.659   3.093   0.190
   20CHTO   C60 8260   5.746   2.978   0.199
   20CHTO  H117 8261   5.797   2.963   0.104
   20CHTO   C62 8262   5.854   2.998   0.310
   20CHTO  H119 8263   5.919   3.081   0.275
   20CHTO   O43 8264   5.791   3.038   0.433
   20CHTO  H101 8265   5.734   2.970   0.465
   20CHTO   C66 8266   5.942   2.863   0.325
   20CHTO  H123 8267   5.986   2.839   0.228
   20CHTO   N12 8268   6.056   2.881   0.419
   20CHTO  H110 8269   6.048   2.812   0.502
   20CHTO  H111 8270   6.150   2.869   0.367
   20CHTO   C69 8271   5.846   2.748   0.363
   20CHTO  H126 8272   5.790   2.776   0.455
   20CHTO   O41 8273   5.747   2.728   0.247
   20CHTO   C64 8274   5.659   2.851   0.224
   20CHTO  H121 8275   5.595   2.868   0.313
   20CHTO   C71 8276   5.567   2.824   0.102
   20CHTO   O47 8277   5.483   2.711   0.127
   20CHTO  H104 8278   5.432   2.693   0.050
   20CHTO   O34 8279   5.920   2.610   0.391
   20CHTO   C49 8280   5.842   2.477   0.427
   20CHTO   H91 8281   5.796   2.445   0.333
   20CHTO   C47 8282   5.730   2.505   0.530
   20CHTO   H89 8283   5.654   2.565   0.474
   20CHTO   O33 8284   5.780   2.584   0.639
   20CHTO   H70 8285   5.709   2.614   0.692
   20CHTO   C45 8286   5.667   2.369   0.591
   20CHTO   H87 8287   5.702   2.359   0.695
   20CHTO    N8 8288   5.519   2.378   0.595
   20CHTO   H75 8289   5.474   2.293   0.546
   20CHTO   H76 8290   5.484   2.384   0.697
   20CHTO   C43 8291   5.726   2.237   0.520
   20CHTO   H85 8292   5.686   2.152   0.576
   20CHTO   O29 8293   5.869   2.243   0.527
   20CHTO   C50 8294   5.934   2.363   0.479
   20CHTO   H92 8295   5.995   2.403   0.561
   20CHTO   C54 8296   6.039   2.323   0.372
   20CHTO   O36 8297   5.977   2.258   0.261
   20CHTO   H72 8298   6.043   2.234   0.198
   20CHTO   O27 8299   5.683   2.221   0.384
   20CHTO   C37 8300   5.587   2.164   0.294
   20CHTO   H79 8301   5.486   2.172   0.336
   20CHTO   C38 8302   5.587   2.242   0.158
   20CHTO   H80 8303   5.691   2.249   0.123
   20CHTO   O31 8304   5.540   2.375   0.184
   20CHTO   H68 8305   5.450   2.374   0.212
   20CHTO   C39 8306   5.500   2.169   0.048
   20CHTO   H81 8307   5.396   2.173   0.081
   20CHTO    N7 8308   5.507   2.234   2.761
   20CHTO   H73 8309   5.473   2.336   2.768
   20CHTO   H74 8310   5.447   2.180   2.690
   20CHTO   C40 8311   5.540   2.017   0.042
   20CHTO   H82 8312   5.643   2.008   0.005
   20CHTO   O26 8313   5.525   1.960   0.172
   20CHTO   C41 8314   5.619   2.014   0.270
   20CHTO   H83 8315   5.722   2.004   0.232
   20CHTO   C52 8316   5.606   1.928   0.398
   20CHTO   O35 8317   5.642   1.786   0.373
   20CHTO   H71 8318   5.637   1.738   0.454
   20CHTO   O28 8319   5.454   1.936   2.806
   20CHTO   C42 8320   5.500   1.806   2.755
   20CHTO   H84 8321   5.412   1.766   2.705
   20CHTO   C44 8322   5.541   1.701   0.016
   20CHTO   H86 8323   5.618   1.745   0.079
   20CHTO   O32 8324   5.424   1.676   0.096
   20CHTO   H69 8325   5.403   1.752   0.147
   20CHTO   C48 8326   5.600   1.567   2.802
   20CHTO   H90 8327   5.520   1.514   2.751
   20CHTO    N9 8328   5.651   1.474   0.061
   20CHTO   H77 8329   5.691   1.385   0.016
   20CHTO   H78 8330   5.570   1.449   0.129
   20CHTO   C51 8331   5.712   1.604   2.697
   20CHTO   H93 8332   5.791   1.659   2.749
   20CHTO   O30 8333   5.651   1.684   2.595
   20CHTO   C46 8334   5.611   1.821   2.647
   20CHTO   H88 8335   5.699   1.866   2.692
   20CHTO   C53 8336   5.563   1.907   2.529
   20CHTO   O72 8337   5.671   1.939   2.441
   20CHTO  H199 8338   5.731   1.998   2.483
   20CHTO   O22 8339   5.766   1.489   2.631
   20CHTO   C31 8340   5.890   1.484   2.550
   20CHTO   H59 8341   5.858   1.475   2.445
   20CHTO   C29 8342   5.986   1.606   2.557
   20CHTO   H57 8343   6.015   1.620   2.663
   20CHTO   O21 8344   5.916   1.726   2.517
   20CHTO   H37 8345   5.847   1.745   2.577
   20CHTO   C27 8346   6.116   1.588   2.469
   20CHTO   H55 8347   6.088   1.597   2.363
   20CHTO    N5 8348   6.219   1.690   2.499
   20CHTO   H43 8349   6.191   1.751   2.584
   20CHTO   H44 8350   6.236   1.753   2.413
   20CHTO   C25 8351   6.177   1.443   2.483
   20CHTO   H53 8352   6.229   1.434   2.580
   20CHTO   O17 8353   6.074   1.340   2.478
   20CHTO   C32 8354   5.974   1.356   2.581
   20CHTO   H60 8355   6.023   1.368   2.677
   20CHTO   C36 8356   5.888   1.227   2.591
   20CHTO   O25 8357   5.803   1.207   2.478
   20CHTO   H40 8358   5.736   1.274   2.476
   20CHTO   O15 8359   6.284   1.416   2.364
   20CHTO   C19 8360   6.426   1.390   2.348
   20CHTO   H47 8361   6.440   1.391   2.238
   20CHTO   C20 8362   6.519   1.500   2.410
   20CHTO   H48 8363   6.494   1.519   2.516
   20CHTO   O19 8364   6.493   1.622   2.338
   20CHTO   H35 8365   6.519   1.614   2.248
   20CHTO   C21 8366   6.673   1.465   2.403
   20CHTO   H49 8367   6.705   1.474   2.299
   20CHTO    N4 8368   6.757   1.560   2.481
   20CHTO   H41 8369   6.810   1.509   2.561
   20CHTO   H42 8370   6.829   1.608   2.417
   20CHTO   C22 8371   6.696   1.316   2.442
   20CHTO   H50 8372   6.675   1.305   2.549
   20CHTO   O14 8373   6.609   1.232   2.365
   20CHTO   C23 8374   6.470   1.249   2.395
   20CHTO   H51 8375   6.457   1.236   2.504
   20CHTO   C34 8376   6.390   1.139   2.325
   20CHTO   O23 8377   6.431   1.009   2.365
   20CHTO   H38 8378   6.380   0.944   2.320
   20CHTO   O16 8379   6.833   1.277   2.415
   20CHTO   C24 8380   6.865   1.121   2.419
   20CHTO   H52 8381   6.775   1.060   2.403
   20CHTO   C26 8382   6.927   1.083   2.555
   20CHTO   H54 8383   7.021   1.142   2.568
   20CHTO   O20 8384   6.835   1.120   2.659
   20CHTO   H36 8385   6.874   1.105   2.743
   20CHTO   C30 8386   6.962   0.931   2.558
   20CHTO   H58 8387   6.868   0.874   2.564
   20CHTO    N6 8388   7.037   0.894   2.682
   20CHTO   H45 8389   7.135   0.856   2.658
   20CHTO   H46 8390   6.983   0.820   2.738
   20CHTO   C33 8391   7.034   0.883   2.427
   20CHTO   H61 8392   7.141   0.906   2.435
   20CHTO   O18 8393   6.985   0.945   2.307
   20CHTO   C28 8394   6.964   1.086   2.305
   20CHTO   H56 8395   7.058   1.139   2.323
   20CHTO   C35 8396   6.908   1.122   2.166
   20CHTO   O24 8397   6.902   1.263   2.141
   20CHTO   H39 8398   6.867   1.279   2.056
   20CHTO    O9 8399   7.027   0.739   2.420
   20CHTO   C13 8400   6.923   0.656   2.306
   20CHTO   H26 8401   6.984   0.640   2.215
   20CHTO   C11 8402   6.787   0.733   2.272
   20CHTO   H24 8403   6.812   0.818   2.206
   20CHTO    O8 8404   6.728   0.787   2.392
   20CHTO    H3 8405   6.656   0.842   2.370
   20CHTO    C9 8406   6.693   0.639   2.193
   20CHTO   H22 8407   6.752   0.604   2.107
   20CHTO    N2 8408   6.575   0.707   2.133
   20CHTO   H10 8409   6.608   0.789   2.070
   20CHTO   H11 8410   6.511   0.744   2.211
   20CHTO    C7 8411   6.657   0.516   2.283
   20CHTO   H20 8412   6.591   0.452   2.219
   20CHTO    O4 8413   6.775   0.442   2.318
   20CHTO   C14 8414   6.896   0.508   2.362
   20CHTO   H27 8415   6.977   0.444   2.322
   20CHTO   C18 8416   6.906   0.500   2.517
   20CHTO   O13 8417   6.804   0.574   2.586
   20CHTO    H7 8418   6.816   0.564   2.679
   20CHTO    O2 8419   6.578   0.559   2.419
   20CHTO    C1 8420   6.481   0.467   2.473
   20CHTO   H14 8421   6.461   0.498   2.578
   20CHTO    C2 8422   6.523   0.314   2.474
   20CHTO   H15 8423   6.544   0.286   2.370
   20CHTO    O6 8424   6.643   0.300   2.553
   20CHTO    H1 8425   6.627   0.325   2.642
   20CHTO    C3 8426   6.404   0.225   2.532
   20CHTO   H16 8427   6.391   0.250   2.638
   20CHTO    N1 8428   6.434   0.078   2.525
   20CHTO    H8 8429   6.351   0.021   2.566
   20CHTO    H9 8430   6.524   0.056   2.580
   20CHTO    C4 8431   6.268   0.262   2.462
   20CHTO   H17 8432   6.269   0.224   2.360
   20CHTO    O1 8433   6.244   0.404   2.462
   20CHTO    C5 8434   6.346   0.484   2.399
   20CHTO   H18 8435   6.359   0.451   2.295
   20CHTO   C16 8436   6.298   0.631   2.399
   20CHTO   O11 8437   6.185   0.650   2.312
   20CHTO    H5 8438   6.110   0.606   2.347
   20CHTO    O3 8439   6.158   0.206   2.536
   20CHTO    C6 8440   6.030   0.202   2.466
   20CHTO   H19 8441   6.028   0.268   2.379
   20CHTO    C8 8442   6.000   0.057   2.417
   20CHTO   H21 8443   6.008   9.990   2.503
   20CHTO    O7 8444   6.101   0.022   2.320
   20CHTO    H2 8445   6.185   0.014   2.361
   20CHTO   C12 8446   5.855   0.047   2.357
   20CHTO   H25 8447   5.856   0.105   2.262
   20CHTO    N3 8448   5.821   9.905   2.320
   20CHTO   H12 8449   5.722   9.902   2.276
   20CHTO   H13 8450   5.825   9.842   2.408
   20CHTO   C15 8451   5.750   0.113   2.455
   20CHTO   H28 8452   5.734   0.052   2.544
   20CHTO   O10 8453   5.617   0.141   2.388
   20CHTO    H4 8454   5.576   0.060   2.363
   20CHTO    O5 8455   5.791   0.245   2.492
   20CHTO   C10 8456   5.916   0.250   2.561
   20CHTO   H23 8457   5.911   0.185   2.649
   20CHTO   C17 8458   5.934   0.394   2.610
   20CHTO   O12 8459   6.044   0.409   2.701
   20CHTO    H6 8460   6.024   0.365   2.782
   21GLOH   H03 8461   3.919   0.632   2.386
   21GLOH    O1 8462   3.925   0.564   2.316
   21GLOH    C1 8463   4.016   0.458   2.353
   21GLOH   H02 8464   3.991   0.419   2.452
   21GLOH   H08 8465   4.117   0.496   2.359
   21GLOH    C2 8466   4.014   0.340   2.253
   21GLOH   H04 8467   4.031   0.381   2.152
   21GLOH    O2 8468   4.121   0.248   2.282
   21GLOH   H05 8469   4.189   0.258   2.211
   21GLOH    C3 8470   3.878   0.267   2.253
   21GLOH   H06 8471   3.850   0.247   2.357
   21GLOH   H07 8472   3.891   0.171   2.205
   21GLOH    O3 8473   3.774   0.340   2.186
   21GLOH   H01 8474   3.689   0.326   2.236
   22GLOH   H03 8475   4.684   0.906   1.115
   22GLOH    O1 8476   4.672   1.004   1.110
   22GLOH    C1 8477   4.531   1.031   1.127
   22GLOH   H02 8478   4.503   1.016   1.232
   22GLOH   H08 8479   4.472   0.961   1.068
   22GLOH    C2 8480   4.495   1.174   1.086
   22GLOH   H04 8481   4.523   1.188   0.980
   22GLOH    O2 8482   4.353   1.196   1.099
   22GLOH   H05 8483   4.309   1.183   1.010
   22GLOH    C3 8484   4.573   1.274   1.171
   22GLOH   H06 8485   4.543   1.262   1.275
   22GLOH   H07 8486   4.546   1.375   1.141
   22GLOH    O3 8487   4.715   1.253   1.159
   22GLOH   H01 8488   4.725   1.157   1.140
   23GLOH   H03 8489   2.868   5.238   1.182
   23GLOH    O1 8490   2.859   5.332   1.211
   23GLOH    C1 8491   2.843   5.416   1.095
   23GLOH   H02 8492   2.795   5.361   1.015
   23GLOH   H08 8493   2.940   5.448   1.058
   23GLOH    C2 8494   2.759   5.543   1.121
   23GLOH   H04 8495   2.752   5.598   1.026
   23GLOH    O2 8496   2.625   5.510   1.164
   23GLOH   H05 8497   2.588   5.441   1.102
   23GLOH    C3 8498   2.827   5.636   1.223
   23GLOH   H06 8499   2.830   5.585   1.319
   23GLOH   H07 8500   2.764   5.724   1.236
   23GLOH    O3 8501   2.960   5.675   1.183
   23GLOH   H01 8502   2.957   5.713   1.091
   24GLOH   H03 8503   4.835   2.143   0.723
   24GLOH    O1 8504   4.907   2.197   0.681
   24GLOH    C1 8505   5.019   2.107   0.670
   24GLOH   H02 8506   4.993   2.023   0.606
   24GLOH   H08 8507   5.041   2.065   0.768
   24GLOH    C2 8508   5.149   2.171   0.615
   24GLOH   H04 8509   5.158   2.273   0.654
   24GLOH    O2 8510   5.262   2.093   0.659
   24GLOH   H05 8511   5.249   1.998   0.629
   24GLOH    C3 8512   5.147   2.177   0.461
   24GLOH   H06 8513   5.147   2.075   0.423
   24GLOH   H07 8514   5.240   2.223   0.428
   24GLOH    O3 8515   5.035   2.250   0.409
   24GLOH   H01 8516   5.045   2.345   0.436
   25GLOH   H03 8517   3.384   1.027   1.488
   25GLOH    O1 8518   3.365   0.930   1.485
   25GLOH    C1 8519   3.480   0.861   1.538
   25GLOH   H02 8520   3.461   0.754   1.537
   25GLOH   H08 8521   3.495   0.887   1.643
   25GLOH    C2 8522   3.611   0.890   1.462
   25GLOH   H04 8523   3.584   0.936   1.365
   25GLOH    O2 8524   3.695   0.983   1.533
   25GLOH   H05 8525   3.704   1.065   1.476
   25GLOH    C3 8526   3.689   0.761   1.430
   25GLOH   H06 8527   3.706   0.708   1.524
   25GLOH   H07 8528   3.786   0.787   1.390
   25GLOH    O3 8529   3.618   0.676   1.338
   25GLOH   H01 8530   3.557   0.617   1.390
   26GLOH   H03 8531   4.112   3.177   2.409
   26GLOH    O1 8532   4.173   3.141   2.479
   26GLOH    C1 8533   4.298   3.212   2.480
   26GLOH   H02 8534   4.284   3.314   2.515
   26GLOH   H08 8535   4.341   3.218   2.380
   26GLOH    C2 8536   4.402   3.143   2.571
   26GLOH   H04 8537   4.430   3.047   2.525
   26GLOH    O2 8538   4.520   3.225   2.583
   26GLOH   H05 8539   4.510   3.281   2.663
   26GLOH    C3 8540   4.343   3.113   2.710
   26GLOH   H06 8541   4.420   3.066   2.771
   26GLOH   H07 8542   4.263   3.040   2.699
   26GLOH    O3 8543   4.295   3.232   2.775
   26GLOH   H01 8544   4.205   3.251   2.741
   27GLOH   H03 8545   3.356   5.403   1.658
   27GLOH    O1 8546   3.314   5.453   1.732
   27GLOH    C1 8547   3.417   5.510   1.817
   27GLOH   H02 8548   3.516   5.494   1.774
   27GLOH   H08 8549   3.417   5.460   1.914
   27GLOH    C2 8550   3.398   5.661   1.841
   27GLOH   H04 8551   3.385   5.709   1.743
   27GLOH    O2 8552   3.280   5.688   1.920
   27GLOH   H05 8553   3.269   5.787   1.933
   27GLOH    C3 8554   3.524   5.725   1.903
   27GLOH   H06 8555   3.507   5.832   1.912
   27GLOH   H07 8556   3.607   5.712   1.834
   27GLOH    O3 8557   3.558   5.671   2.032
   27GLOH   H01 8558   3.499   5.715   2.098
   28GLOH   H03 8559   3.622   9.771   1.503
   28GLOH    O1 8560   3.687   9.700   1.477
   28GLOH    C1 8561   3.779   9.747   1.376
   28GLOH   H02 8562   3.738   9.726   1.278
   28GLOH   H08 8563   3.872   9.690   1.383
   28GLOH    C2 8564   3.817   9.897   1.380
   28GLOH   H04 8565   3.727   9.955   1.355
   28GLOH    O2 8566   3.866   9.937   1.509
   28GLOH   H05 8567   3.904   0.030   1.504
   28GLOH    C3 8568   3.924   9.925   1.273
   28GLOH   H06 8569   4.016   9.875   1.302
   28GLOH   H07 8570   3.946   0.032   1.273
   28GLOH    O3 8571   3.885   9.884   1.140
   28GLOH   H01 8572   3.834   9.956   1.096
   29GLOH   H03 8573   2.012   1.819   0.938
   29GLOH    O1 8574   2.053   1.862   0.859
   29GLOH    C1 8575   2.165   1.941   0.903
   29GLOH   H02 8576   2.234   1.879   0.961
   29GLOH   H08 8577   2.130   2.021   0.970
   29GLOH    C2 8578   2.243   2.006   0.788
   29GLOH   H04 8579   2.273   1.926   0.719
   29GLOH    O2 8580   2.162   2.102   0.716
   29GLOH   H05 8581   2.127   2.171   0.780
   29GLOH    C3 8582   2.373   2.070   0.842
   29GLOH   H06 8583   2.431   1.992   0.891
   29GLOH   H07 8584   2.346   2.142   0.919
   29GLOH    O3 8585   2.453   2.134   0.740
   29GLOH   H01 8586   2.440   2.086   0.654
   30GLOH   H03 8587   2.388   4.922   1.779
   30GLOH    O1 8588   2.451   4.939   1.855
   30GLOH    C1 8589   2.420   4.844   1.959
   30GLOH   H02 8590   2.430   4.742   1.922
   30GLOH   H08 8591   2.316   4.856   1.992
   30GLOH    C2 8592   2.511   4.860   2.083
   30GLOH   H04 8593   2.494   4.960   2.125
   30GLOH    O2 8594   2.480   4.760   2.182
   30GLOH   H05 8595   2.533   4.778   2.262
   30GLOH    C3 8596   2.659   4.849   2.041
   30GLOH   H06 8597   2.678   4.748   2.004
   30GLOH   H07 8598   2.721   4.863   2.129
   30GLOH    O3 8599   2.690   4.947   1.941
   30GLOH   H01 8600   2.607   4.956   1.887
   31GLOH   H03 8601   4.809   1.476   2.557
   31GLOH    O1 8602   4.906   1.481   2.577
   31GLOH    C1 8603   4.947   1.618   2.593
   31GLOH   H02 8604   4.888   1.667   2.670
   31GLOH   H08 8605   4.931   1.673   2.500
   31GLOH    C2 8606   5.096   1.628   2.631
   31GLOH   H04 8607   5.156   1.577   2.553
   31GLOH    O2 8608   5.136   1.766   2.638
   31GLOH   H05 8609   5.233   1.774   2.627
   31GLOH    C3 8610   5.120   1.558   2.766
   31GLOH   H06 8611   5.077   1.618   2.846
   31GLOH   H07 8612   5.228   1.553   2.784
   31GLOH    O3 8613   5.065   1.425   2.766
   31GLOH   H01 8614   4.998   1.425   2.692
   32GLOH   H03 8615   3.240   0.350   0.334
   32GLOH    O1 8616   3.235   0.450   0.342
   32GLOH    C1 8617   3.095   0.484   0.342
   32GLOH   H02 8618   3.037   0.403   0.384
   32GLOH   H08 8619   3.061   0.497   0.239
   32GLOH    C2 8620   3.062   0.613   0.420
   32GLOH   H04 8621   3.097   0.698   0.359
   32GLOH    O2 8622   2.919   0.627   0.437
   32GLOH   H05 8623   2.876   0.537   0.444
   32GLOH    C3 8624   3.133   0.619   0.556
   32GLOH   H06 8625   3.128   0.519   0.599
   32GLOH   H07 8626   3.077   0.685   0.622
   32GLOH    O3 8627   3.270   0.663   0.549
   32GLOH   H01 8628   3.330   0.584   0.549
   33GLOH   H03 8629   2.842   5.853   0.300
   33GLOH    O1 8630   2.918   5.808   0.254
   33GLOH    C1 8631   2.975   5.708   0.340
   33GLOH   H02 8632   3.032   5.636   0.281
   33GLOH   H08 8633   2.896   5.651   0.390
   33GLOH    C2 8634   3.067   5.768   0.447
   33GLOH   H04 8635   3.008   5.840   0.506
   33GLOH    O2 8636   3.118   5.666   0.535
   33GLOH   H05 8637   3.202   5.628   0.497
   33GLOH    C3 8638   3.182   5.848   0.380
   33GLOH   H06 8639   3.240   5.895   0.458
   33GLOH   H07 8640   3.136   5.928   0.321
   33GLOH    O3 8641   3.267   5.769   0.295
   33GLOH   H01 8642   3.304   5.693   0.347
   34GLOH   H03 8643   3.697   0.341   1.187
   34GLOH    O1 8644   3.671   0.245   1.192
   34GLOH    C1 8645   3.536   0.237   1.243
   34GLOH   H02 8646   3.523   0.306   1.326
   34GLOH   H08 8647   3.519   0.137   1.282
   34GLOH    C2 8648   3.427   0.267   1.138
   34GLOH   H04 8649   3.438   0.195   1.056
   34GLOH    O2 8650   3.295   0.250   1.195
   34GLOH   H05 8651   3.235   0.219   1.121
   34GLOH    C3 8652   3.441   0.409   1.080
   34GLOH   H06 8653   3.448   0.479   1.162
   34GLOH   H07 8654   3.349   0.433   1.026
   34GLOH    O3 8655   3.554   0.423   0.992
   34GLOH   H01 8656   3.528   0.390   0.902
   35GLOH   H03 8657   2.766   5.129   1.633
   35GLOH    O1 8658   2.865   5.136   1.636
   35GLOH    C1 8659   2.900   5.234   1.736
   35GLOH   H02 8660   2.881   5.193   1.835
   35GLOH   H08 8661   2.837   5.322   1.726
   35GLOH    C2 8662   3.048   5.274   1.727
   35GLOH   H04 8663   3.078   5.276   1.621
   35GLOH    O2 8664   3.069   5.405   1.784
   35GLOH   H05 8665   3.166   5.431   1.769
   35GLOH    C3 8666   3.135   5.170   1.800
   35GLOH   H06 8667   3.103   5.165   1.904
   35GLOH   H07 8668   3.239   5.205   1.801
   35GLOH    O3 8669   3.128   5.039   1.742
   35GLOH   H01 8670   3.044   4.994   1.771
   36GLOH   H03 8671   3.650   7.560   0.105
   36GLOH    O1 8672   3.577   7.522   0.050
   36GLOH    C1 8673   3.517   7.411   0.121
   36GLOH   H02 8674   3.482   7.444   0.219
   36GLOH   H08 8675   3.590   7.332   0.137
   36GLOH    C2 8676   3.397   7.353   0.043
   36GLOH   H04 8677   3.434   7.315   2.794
   36GLOH    O2 8678   3.337   7.245   0.117
   36GLOH   H05 8679   3.276   7.194   0.059
   36GLOH    C3 8680   3.294   7.464   0.015
   36GLOH   H06 8681   3.255   7.501   0.111
   36GLOH   H07 8682   3.210   7.422   2.808
   36GLOH    O3 8683   3.355   7.571   2.789
   36GLOH   H01 8684   3.449   7.571   2.819
   37GLOH   H03 8685   4.748   3.780   2.233
   37GLOH    O1 8686   4.846   3.791   2.243
   37GLOH    C1 8687   4.914   3.753   2.122
   37GLOH   H02 8688   5.014   3.795   2.120
   37GLOH   H08 8689   4.861   3.792   2.035
   37GLOH    C2 8690   4.926   3.600   2.107
   37GLOH   H04 8691   4.825   3.556   2.109
   37GLOH    O2 8692   4.989   3.566   1.982
   37GLOH   H05 8693   4.932   3.503   1.933
   37GLOH    C3 8694   5.005   3.542   2.226
   37GLOH   H06 8695   5.104   3.586   2.226
   37GLOH   H07 8696   5.016   3.434   2.212
   37GLOH    O3 8697   4.938   3.569   2.350
   37GLOH   H01 8698   4.915   3.665   2.347
   38GLOH   H03 8699   2.742   6.729   2.427
   38GLOH    O1 8700   2.807   6.740   2.355
   38GLOH    C1 8701   2.894   6.625   2.351
   38GLOH   H02 8702   2.915   6.589   2.452
   38GLOH   H08 8703   2.991   6.653   2.308
   38GLOH    C2 8704   2.836   6.509   2.268
   38GLOH   H04 8705   2.819   6.543   2.166
   38GLOH    O2 8706   2.931   6.400   2.266
   38GLOH   H05 8707   3.020   6.434   2.237
   38GLOH    C3 8708   2.701   6.463   2.327
   38GLOH   H06 8709   2.639   6.551   2.345
   38GLOH   H07 8710   2.720   6.417   2.424
   38GLOH    O3 8711   2.628   6.371   2.243
   38GLOH   H01 8712   2.602   6.416   2.159
   39GLOH   H03 8713   2.327   5.318   0.625
   39GLOH    O1 8714   2.425   5.299   0.630
   39GLOH    C1 8715   2.482   5.303   0.497
   39GLOH   H02 8716   2.591   5.307   0.503
   39GLOH   H08 8717   2.450   5.393   0.445
   39GLOH    C2 8718   2.442   5.181   0.412
   39GLOH   H04 8719   2.334   5.187   0.391
   39GLOH    O2 8720   2.514   5.181   0.287
   39GLOH   H05 8721   2.606   5.142   0.303
   39GLOH    C3 8722   2.467   5.050   0.489
   39GLOH   H06 8723   2.573   5.044   0.515
   39GLOH   H07 8724   2.446   4.966   0.422
   39GLOH    O3 8725   2.388   5.041   0.608
   39GLOH   H01 8726   2.395   5.129   0.652
   40GLOH   H03 8727   4.081   0.361   1.316
   40GLOH    O1 8728   4.141   0.299   1.366
   40GLOH    C1 8729   4.273   0.359   1.368
   40GLOH   H02 8730   4.339   0.301   1.433
   40GLOH   H08 8731   4.269   0.460   1.409
   40GLOH    C2 8732   4.337   0.365   1.228
   40GLOH   H04 8733   4.270   0.421   1.162
   40GLOH    O2 8734   4.465   0.433   1.232
   40GLOH   H05 8735   4.448   0.531   1.244
   40GLOH    C3 8736   4.353   0.223   1.170
   40GLOH   H06 8737   4.424   0.167   1.231
   40GLOH   H07 8738   4.395   0.230   1.070
   40GLOH    O3 8739   4.226   0.156   1.166
   40GLOH   H01 8740   4.180   0.181   1.250
   41GLOH   H03 8741   2.371   9.537   1.251
   41GLOH    O1 8742   2.357   9.612   1.315
   41GLOH    C1 8743   2.396   9.566   1.446
   41GLOH   H02 8744   2.484   9.501   1.438
   41GLOH   H08 8745   2.317   9.506   1.490
   41GLOH    C2 8746   2.430   9.681   1.543
   41GLOH   H04 8747   2.505   9.746   1.494
   41GLOH    O2 8748   2.312   9.758   1.574
   41GLOH   H05 8749   2.260   9.775   1.491
   41GLOH    C3 8750   2.493   9.624   1.671
   41GLOH   H06 8751   2.558   9.540   1.644
   41GLOH   H07 8752   2.414   9.583   1.734
   41GLOH    O3 8753   2.570   9.720   1.746
   41GLOH   H01 8754   2.519   9.806   1.751
   42GLOH   H03 8755   3.455   8.078   1.238
   42GLOH    O1 8756   3.538   8.036   1.269
   42GLOH    C1 8757   3.650   8.121   1.236
   42GLOH   H02 8758   3.646   8.213   1.295
   42GLOH   H08 8759   3.646   8.150   1.131
   42GLOH    C2 8760   3.785   8.052   1.262
   42GLOH   H04 8761   3.790   7.961   1.200
   42GLOH    O2 8762   3.894   8.140   1.225
   42GLOH   H05 8763   3.905   8.135   1.125
   42GLOH    C3 8764   3.799   8.011   1.410
   42GLOH   H06 8765   3.826   8.099   1.469
   42GLOH   H07 8766   3.883   7.942   1.417
   42GLOH    O3 8767   3.680   7.950   1.460
   42GLOH   H01 8768   3.610   7.968   1.392
   43GLOH   H03 8769   4.409   1.220   2.565
   43GLOH    O1 8770   4.472   1.288   2.532
   43GLOH    C1 8771   4.443   1.316   2.393
   43GLOH   H02 8772   4.360   1.387   2.386
   43GLOH   H08 8773   4.411   1.225   2.342
   43GLOH    C2 8774   4.564   1.375   2.319
   43GLOH   H04 8775   4.642   1.297   2.315
   43GLOH    O2 8776   4.529   1.412   2.184
   43GLOH   H05 8777   4.431   1.396   2.167
   43GLOH    C3 8778   4.621   1.496   2.394
   43GLOH   H06 8779   4.545   1.574   2.397
   43GLOH   H07 8780   4.706   1.535   2.339
   43GLOH    O3 8781   4.661   1.459   2.527
   43GLOH   H01 8782   4.595   1.391   2.556
   44GLOH   H03 8783   3.211   5.028   2.130
   44GLOH    O1 8784   3.226   4.930   2.116
   44GLOH    C1 8785   3.328   4.917   2.015
   44GLOH   H02 8786   3.419   4.969   2.046
   44GLOH   H08 8787   3.296   4.964   1.922
   44GLOH    C2 8788   3.364   4.770   1.987
   44GLOH   H04 8789   3.271   4.715   1.970
   44GLOH    O2 8790   3.448   4.762   1.869
   44GLOH   H05 8791   3.397   4.800   1.792
   44GLOH    C3 8792   3.437   4.711   2.110
   44GLOH   H06 8793   3.395   4.755   2.200
   44GLOH   H07 8794   3.541   4.744   2.106
   44GLOH    O3 8795   3.431   4.567   2.118
   44GLOH   H01 8796   3.467   4.529   2.033
   45GLOH   H03 8797   1.798   3.308   1.182
   45GLOH    O1 8798   1.861   3.353   1.121
   45GLOH    C1 8799   1.991   3.294   1.144
   45GLOH   H02 8800   2.038   3.340   1.231
   45GLOH   H08 8801   2.057   3.311   1.059
   45GLOH    C2 8802   1.981   3.142   1.169
   45GLOH   H04 8803   1.934   3.096   1.081
   45GLOH    O2 8804   2.112   3.086   1.187
   45GLOH   H05 8805   2.106   3.000   1.238
   45GLOH    C3 8806   1.892   3.118   1.292
   45GLOH   H06 8807   1.940   3.162   1.379
   45GLOH   H07 8808   1.886   3.011   1.310
   45GLOH    O3 8809   1.759   3.172   1.275
   45GLOH   H01 8810   1.720   3.179   1.366
   46GLOH   H03 8811   3.805   0.270   0.662
   46GLOH    O1 8812   3.735   0.219   0.710
   46GLOH    C1 8813   3.784   0.086   0.731
   46GLOH   H02 8814   3.878   0.088   0.786
   46GLOH   H08 8815   3.805   0.037   0.635
   46GLOH    C2 8816   3.685   9.998   0.809
   46GLOH   H04 8817   3.590   9.997   0.752
   46GLOH    O2 8818   3.732   9.863   0.821
   46GLOH   H05 8819   3.658   9.801   0.797
   46GLOH    C3 8820   3.654   0.060   0.947
   46GLOH   H06 8821   3.580   9.997   0.996
   46GLOH   H07 8822   3.606   0.156   0.929
   46GLOH    O3 8823   3.768   0.079   1.034
   46GLOH   H01 8824   3.738   0.147   1.100
   47GLOH   H03 8825   2.997   7.443   1.962
   47GLOH    O1 8826   2.962   7.379   1.894
   47GLOH    C1 8827   2.866   7.450   1.812
   47GLOH   H02 8828   2.899   7.553   1.796
   47GLOH   H08 8829   2.770   7.455   1.862
   47GLOH    C2 8830   2.845   7.384   1.675
   47GLOH   H04 8831   2.808   7.282   1.690
   47GLOH    O2 8832   2.748   7.460   1.601
   47GLOH   H05 8833   2.683   7.398   1.556
   47GLOH    C3 8834   2.979   7.377   1.598
   47GLOH   H06 8835   3.054   7.335   1.665
   47GLOH   H07 8836   3.010   7.479   1.576
   47GLOH    O3 8837   2.973   7.300   1.477
   47GLOH   H01 8838   2.905   7.339   1.416
   48GLOH   H03 8839   2.988   9.771   1.286
   48GLOH    O1 8840   3.069   9.807   1.240
   48GLOH    C1 8841   3.150   9.872   1.339
   48GLOH   H02 8842   3.166   9.806   1.424
   48GLOH   H08 8843   3.100   9.961   1.377
   48GLOH    C2 8844   3.287   9.913   1.283
   48GLOH   H04 8845   3.271   9.980   1.196
   48GLOH    O2 8846   3.362   9.984   1.384
   48GLOH   H05 8847   3.314   0.069   1.407
   48GLOH    C3 8848   3.365   9.789   1.235
   48GLOH   H06 8849   3.392   9.729   1.322
   48GLOH   H07 8850   3.458   9.822   1.189
   48GLOH    O3 8851   3.287   9.712   1.142
   48GLOH   H01 8852   3.192   9.727   1.167
   49GLOH   H03 8853   5.495   3.054   1.343
   49GLOH    O1 8854   5.542   3.023   1.262
   49GLOH    C1 8855   5.660   3.104   1.244
   49GLOH   H02 8856   5.698   3.092   1.142
   49GLOH   H08 8857   5.739   3.070   1.311
   49GLOH    C2 8858   5.634   3.254   1.271
   49GLOH   H04 8859   5.537   3.280   1.225
   49GLOH    O2 8860   5.624   3.280   1.412
   49GLOH   H05 8861   5.547   3.228   1.448
   49GLOH    C3 8862   5.741   3.341   1.202
   49GLOH   H06 8863   5.839   3.317   1.245
   49GLOH   H07 8864   5.721   3.445   1.224
   49GLOH    O3 8865   5.742   3.319   1.060
   49GLOH   H01 8866   5.650   3.337   1.026
   50GLOH   H03 8867   3.653   5.442   0.966
   50GLOH    O1 8868   3.659   5.532   1.008
   50GLOH    C1 8869   3.778   5.534   1.088
   50GLOH   H02 8870   3.794   5.633   1.129
   50GLOH   H08 8871   3.864   5.511   1.025
   50GLOH    C2 8872   3.775   5.432   1.203
   50GLOH   H04 8873   3.766   5.331   1.161
   50GLOH    O2 8874   3.899   5.442   1.277
   50GLOH   H05 8875   3.931   5.349   1.299
   50GLOH    C3 8876   3.653   5.458   1.292
   50GLOH   H06 8877   3.563   5.455   1.230
   50GLOH   H07 8878   3.661   5.560   1.330
   50GLOH    O3 8879   3.637   5.365   1.402
   50GLOH   H01 8880   3.721   5.365   1.456
   51GLOH   H03 8881   4.176   5.121   1.866
   51GLOH    O1 8882   4.234   5.045   1.836
   51GLOH    C1 8883   4.273   5.066   1.699
   51GLOH   H02 8884   4.311   4.973   1.656
   51GLOH   H08 8885   4.355   5.138   1.694
   51GLOH    C2 8886   4.159   5.118   1.609
   51GLOH   H04 8887   4.138   5.222   1.639
   51GLOH    O2 8888   4.202   5.117   1.471
   51GLOH   H05 8889   4.137   5.170   1.419
   51GLOH    C3 8890   4.030   5.036   1.626
   51GLOH   H06 8891   4.004   5.031   1.732
   51GLOH   H07 8892   4.049   4.934   1.594
   51GLOH    O3 8893   3.920   5.093   1.552
   51GLOH   H01 8894   3.843   5.030   1.557
   52GLOH   H03 8895   2.649   7.805   0.906
   52GLOH    O1 8896   2.561   7.848   0.890
   52GLOH    C1 8897   2.545   7.870   0.749
   52GLOH   H02 8898   2.608   7.953   0.716
   52GLOH   H08 8899   2.443   7.900   0.727
   52GLOH    C2 8900   2.578   7.747   0.662
   52GLOH   H04 8901   2.539   7.765   0.561
   52GLOH    O2 8902   2.722   7.732   0.655
   52GLOH   H05 8903   2.745   7.637   0.636
   52GLOH    C3 8904   2.512   7.619   0.718
   52GLOH   H06 8905   2.563   7.591   0.810
   52GLOH   H07 8906   2.530   7.539   0.646
   52GLOH    O3 8907   2.370   7.631   0.742
   52GLOH   H01 8908   2.329   7.686   0.671
   53GLOH   H03 8909   2.535   4.147   1.327
   53GLOH    O1 8910   2.486   4.106   1.403
   53GLOH    C1 8911   2.510   4.185   1.522
   53GLOH   H02 8912   2.440   4.156   1.600
   53GLOH   H08 8913   2.491   4.291   1.502
   53GLOH    C2 8914   2.653   4.173   1.577
   53GLOH   H04 8915   2.676   4.066   1.592
   53GLOH    O2 8916   2.747   4.229   1.483
   53GLOH   H05 8917   2.833   4.179   1.490
   53GLOH    C3 8918   2.666   4.245   1.712
   53GLOH   H06 8919   2.662   4.352   1.694
   53GLOH   H07 8920   2.766   4.224   1.752
   53GLOH    O3 8921   2.565   4.206   1.806
   53GLOH   H01 8922   2.603   4.139   1.869
   54GLOH   H03 8923   4.912   3.969   0.876
   54GLOH    O1 8924   4.960   3.886   0.902
   54GLOH    C1 8925   5.076   3.868   0.819
   54GLOH   H02 8926   5.070   3.931   0.730
   54GLOH   H08 8927   5.082   3.765   0.783
   54GLOH    C2 8928   5.208   3.899   0.892
   54GLOH   H04 8929   5.205   4.004   0.926
   54GLOH    O2 8930   5.225   3.812   1.006
   54GLOH   H05 8931   5.144   3.815   1.064
   54GLOH    C3 8932   5.329   3.882   0.798
   54GLOH   H06 8933   5.346   3.775   0.783
   54GLOH   H07 8934   5.417   3.922   0.847
   54GLOH    O3 8935   5.311   3.946   0.670
   54GLOH   H01 8936   5.272   4.036   0.684
   55GLOH   H03 8937   3.089   7.118   1.049
   55GLOH    O1 8938   3.163   7.182   1.066
   55GLOH    C1 8939   3.175   7.207   1.208
   55GLOH   H02 8940   3.266   7.161   1.247
   55GLOH   H08 8941   3.091   7.163   1.262
   55GLOH    C2 8942   3.180   7.358   1.239
   55GLOH   H04 8943   3.085   7.403   1.206
   55GLOH    O2 8944   3.195   7.382   1.381
   55GLOH   H05 8945   3.115   7.344   1.427
   55GLOH    C3 8946   3.294   7.424   1.160
   55GLOH   H06 8947   3.389   7.384   1.193
   55GLOH   H07 8948   3.295   7.531   1.182
   55GLOH    O3 8949   3.276   7.403   1.019
   55GLOH   H01 8950   3.239   7.311   1.013
   56GLOH   H03 8951   4.221   0.732   1.009
   56GLOH    O1 8952   4.195   0.758   1.100
   56GLOH    C1 8953   4.188   0.902   1.112
   56GLOH   H02 8954   4.237   0.950   1.027
   56GLOH   H08 8955   4.242   0.934   1.201
   56GLOH    C2 8956   4.044   0.956   1.121
   56GLOH   H04 8957   3.990   0.900   1.199
   56GLOH    O2 8958   4.050   1.095   1.158
   56GLOH   H05 8959   4.065   1.099   1.257
   56GLOH    C3 8960   3.969   0.936   0.988
   56GLOH   H06 8961   3.971   0.830   0.963
   56GLOH   H07 8962   4.025   0.988   0.910
   56GLOH    O3 8963   3.832   0.983   0.990
   56GLOH   H01 8964   3.776   0.919   1.042
   57GLOH   H03 8965   2.496   5.997   1.163
   57GLOH    O1 8966   2.552   5.937   1.220
   57GLOH    C1 8967   2.630   6.020   1.307
   57GLOH   H02 8968   2.678   5.959   1.384
   57GLOH   H08 8969   2.567   6.092   1.359
   57GLOH    C2 8970   2.740   6.097   1.231
   57GLOH   H04 8971   2.692   6.153   1.149
   57GLOH    O2 8972   2.809   6.189   1.318
   57GLOH   H05 8973   2.745   6.256   1.358
   57GLOH    C3 8974   2.838   5.995   1.169
   57GLOH   H06 8975   2.783   5.932   1.100
   57GLOH   H07 8976   2.874   5.930   1.249
   57GLOH    O3 8977   2.949   6.057   1.102
   57GLOH   H01 8978   3.012   6.088   1.173
   58GLOH   H03 8979   3.275   8.133   1.847
   58GLOH    O1 8980   3.225   8.096   1.924
   58GLOH    C1 8981   3.165   7.971   1.884
   58GLOH   H02 8982   3.240   7.892   1.883
   58GLOH   H08 8983   3.126   7.979   1.782
   58GLOH    C2 8984   3.049   7.928   1.976
   58GLOH   H04 8985   2.966   7.998   1.959
   58GLOH    O2 8986   3.004   7.794   1.945
   58GLOH   H05 8987   3.026   7.775   1.848
   58GLOH    C3 8988   3.092   7.939   2.123
   58GLOH   H06 8989   3.179   7.876   2.139
   58GLOH   H07 8990   3.013   7.902   2.188
   58GLOH    O3 8991   3.123   8.076   2.155
   58GLOH   H01 8992   3.175   8.108   2.077
   59GLOH   H03 8993   5.053   4.400   0.423
   59GLOH    O1 8994   4.984   4.411   0.493
   59GLOH    C1 8995   4.856   4.381   0.435
   59GLOH   H02 8996   4.825   4.462   0.368
   59GLOH   H08 8997   4.780   4.373   0.512
   59GLOH    C2 8998   4.860   4.250   0.355
   59GLOH   H04 8999   4.891   4.169   0.423
   59GLOH    O2 9000   4.729   4.218   0.303
   59GLOH   H05 9001   4.729   4.120   0.278
   59GLOH    C3 9002   4.965   4.261   0.242
   59GLOH   H06 9003   4.938   4.346   0.179
   59GLOH   H07 9004   4.957   4.172   0.179
   59GLOH    O3 9005   5.099   4.275   0.292
   59GLOH   H01 9006   5.121   4.189   0.336
   60GLOH   H03 9007   4.079   4.908   1.308
   60GLOH    O1 9008   4.005   4.956   1.262
   60GLOH    C1 9009   4.045   4.982   1.126
   60GLOH   H02 9010   3.958   5.001   1.064
   60GLOH   H08 9011   4.096   4.896   1.084
   60GLOH    C2 9012   4.139   5.104   1.117
   60GLOH   H04 9013   4.226   5.087   1.183
   60GLOH    O2 9014   4.185   5.122   0.982
   60GLOH   H05 9015   4.125   5.186   0.933
   60GLOH    C3 9016   4.065   5.229   1.167
   60GLOH   H06 9017   3.982   5.250   1.100
   60GLOH   H07 9018   4.132   5.314   1.162
   60GLOH    O3 9019   4.015   5.212   1.302
   60GLOH   H01 9020   3.984   5.118   1.309
   61GLOH   H03 9021   1.735   3.665   0.466
   61GLOH    O1 9022   1.745   3.663   0.565
   61GLOH    C1 9023   1.871   3.728   0.595
   61GLOH   H02 9024   1.862   3.835   0.578
   61GLOH   H08 9025   1.948   3.692   0.526
   61GLOH    C2 9026   1.919   3.705   0.739
   61GLOH   H04 9027   1.922   3.597   0.757
   61GLOH    O2 9028   2.053   3.758   0.755
   61GLOH   H05 9029   2.112   3.708   0.690
   61GLOH    C3 9030   1.823   3.769   0.841
   61GLOH   H06 9031   1.769   3.851   0.793
   61GLOH   H07 9032   1.882   3.814   0.921
   61GLOH    O3 9033   1.729   3.676   0.899
   61GLOH   H01 9034   1.696   3.613   0.831
   62GLOH   H03 9035   3.651   5.048   1.162
   62GLOH    O1 9036   3.614   5.097   1.083
   62GLOH    C1 9037   3.480   5.136   1.119
   62GLOH   H02 9038   3.459   5.236   1.081
   62GLOH   H08 9039   3.469   5.141   1.227
   62GLOH    C2 9040   3.375   5.038   1.063
   62GLOH   H04 9041   3.413   4.936   1.078
   62GLOH    O2 9042   3.250   5.053   1.132
   62GLOH   H05 9043   3.215   5.146   1.116
   62GLOH    C3 9044   3.356   5.061   0.912
   62GLOH   H06 9045   3.453   5.059   0.864
   62GLOH   H07 9046   3.314   5.160   0.896
   62GLOH    O3 9047   3.269   4.962   0.852
   62GLOH   H01 9048   3.239   4.997   0.763
   63GLOH   H03 9049   4.104   3.905   1.347
   63GLOH    O1 9050   4.058   3.967   1.410
   63GLOH    C1 9051   4.150   4.062   1.467
   63GLOH   H02 9052   4.103   4.160   1.474
   63GLOH   H08 9053   4.238   4.073   1.403
   63GLOH    C2 9054   4.197   4.021   1.607
   63GLOH   H04 9055   4.256   4.105   1.646
   63GLOH    O2 9056   4.088   3.998   1.700
   63GLOH   H05 9057   4.032   3.921   1.667
   63GLOH    C3 9058   4.291   3.899   1.597
   63GLOH   H06 9059   4.253   3.832   1.521
   63GLOH   H07 9060   4.290   3.844   1.692
   63GLOH    O3 9061   4.426   3.940   1.565
   63GLOH   H01 9062   4.461   3.984   1.647
   64GLOH   H03 9063   4.312   3.569   0.379
   64GLOH    O1 9064   4.328   3.667   0.377
   64GLOH    C1 9065   4.266   3.727   0.493
   64GLOH   H02 9066   4.344   3.758   0.563
   64GLOH   H08 9067   4.203   3.655   0.545
   64GLOH    C2 9068   4.183   3.851   0.458
   64GLOH   H04 9069   4.251   3.929   0.420
   64GLOH    O2 9070   4.085   3.819   0.357
   64GLOH   H05 9071   4.133   3.769   0.288
   64GLOH    C3 9072   4.115   3.906   0.585
   64GLOH   H06 9073   4.047   3.830   0.624
   64GLOH   H07 9074   4.054   3.992   0.558
   64GLOH    O3 9075   4.209   3.942   0.688
   64GLOH   H01 9076   4.255   4.027   0.660
   65GLOH   H03 9077   2.863   9.039   0.127
   65GLOH    O1 9078   2.849   9.123   0.074
   65GLOH    C1 9079   2.758   9.204   0.150
   65GLOH   H02 9080   2.769   9.309   0.122
   65GLOH   H08 9081   2.781   9.198   0.257
   65GLOH    C2 9082   2.610   9.164   0.129
   65GLOH   H04 9083   2.603   9.054   0.135
   65GLOH    O2 9084   2.526   9.223   0.231
   65GLOH   H05 9085   2.565   9.308   0.263
   65GLOH    C3 9086   2.563   9.208   2.838
   65GLOH   H06 9087   2.619   9.153   2.762
   65GLOH   H07 9088   2.585   9.314   2.824
   65GLOH    O3 9089   2.422   9.185   2.821
   65GLOH   H01 9090   2.383   9.193   0.063
   66GLOH   H03 9091   3.401   7.896   2.789
   66GLOH    O1 9092   3.486   7.935   2.758
   66GLOH    C1 9093   3.593   7.891   2.844
   66GLOH   H02 9094   3.688   7.929   2.806
   66GLOH   H08 9095   3.600   7.782   2.843
   66GLOH    C2 9096   3.579   7.938   0.143
   66GLOH   H04 9097   3.481   7.905   0.180
   66GLOH    O2 9098   3.683   7.877   0.222
   66GLOH   H05 9099   3.684   7.919   0.313
   66GLOH    C3 9100   3.586   8.092   0.152
   66GLOH   H06 9101   3.517   8.134   0.079
   66GLOH   H07 9102   3.686   8.124   0.124
   66GLOH    O3 9103   3.553   8.142   0.284
   66GLOH   H01 9104   3.603   8.089   0.352
   67GLOH   H03 9105   3.180   5.152   0.080
   67GLOH    O1 9106   3.236   5.198   0.147
   67GLOH    C1 9107   3.167   5.317   0.189
   67GLOH   H02 9108   3.135   5.375   0.103
   67GLOH   H08 9109   3.233   5.381   0.247
   67GLOH    C2 9110   3.042   5.287   0.275
   67GLOH   H04 9111   2.998   5.383   0.307
   67GLOH    O2 9112   2.943   5.213   0.200
   67GLOH   H05 9113   2.898   5.273   0.136
   67GLOH    C3 9114   3.081   5.208   0.401
   67GLOH   H06 9115   3.136   5.120   0.369
   67GLOH   H07 9116   2.990   5.173   0.449
   67GLOH    O3 9117   3.160   5.283   0.495
   67GLOH   H01 9118   3.252   5.295   0.461
   68GLOH   H03 9119   2.452   5.200   0.147
   68GLOH    O1 9120   2.413   5.217   0.057
   68GLOH    C1 9121   2.402   5.358   0.033
   68GLOH   H02 9122   2.428   5.380   2.778
   68GLOH   H08 9123   2.472   5.413   0.096
   68GLOH    C2 9124   2.260   5.414   0.060
   68GLOH   H04 9125   2.265   5.523   0.051
   68GLOH    O2 9126   2.161   5.364   2.815
   68GLOH   H05 9127   2.190   5.378   2.722
   68GLOH    C3 9128   2.216   5.380   0.203
   68GLOH   H06 9129   2.286   5.426   0.273
   68GLOH   H07 9130   2.222   5.272   0.217
   68GLOH    O3 9131   2.082   5.426   0.227
   68GLOH   H01 9132   2.037   5.415   0.140
   69GLOH   H03 9133   2.369   3.717   0.941
   69GLOH    O1 9134   2.390   3.794   1.001
   69GLOH    C1 9135   2.264   3.857   1.034
   69GLOH   H02 9136   2.268   3.892   1.137
   69GLOH   H08 9137   2.183   3.785   1.027
   69GLOH    C2 9138   2.229   3.978   0.945
   69GLOH   H04 9139   2.307   4.054   0.956
   69GLOH    O2 9140   2.220   3.940   0.806
   69GLOH   H05 9141   2.152   3.867   0.795
   69GLOH    C3 9142   2.095   4.043   0.987
   69GLOH   H06 9143   2.014   3.977   0.957
   69GLOH   H07 9144   2.083   4.135   0.929
   69GLOH    O3 9145   2.087   4.071   1.127
   69GLOH   H01 9146   2.051   3.989   1.170
   70GLOH   H03 9147   3.193   7.198   0.459
   70GLOH    O1 9148   3.212   7.221   0.552
   70GLOH    C1 9149   3.086   7.253   0.615
   70GLOH   H02 9150   3.048   7.347   0.575
   70GLOH   H08 9151   3.102   7.270   0.722
   70GLOH    C2 9152   2.978   7.145   0.597
   70GLOH   H04 9153   2.886   7.180   0.646
   70GLOH    O2 9154   2.953   7.123   0.457
   70GLOH   H05 9155   2.861   7.088   0.445
   70GLOH    C3 9156   3.023   7.014   0.665
   70GLOH   H06 9157   3.062   7.037   0.764
   70GLOH   H07 9158   3.105   6.973   0.607
   70GLOH    O3 9159   2.918   6.915   0.675
   70GLOH   H01 9160   2.909   6.872   0.586
   71GLOH   H03 9161   3.150   1.267   2.142
   71GLOH    O1 9162   3.198   1.311   2.216
   71GLOH    C1 9163   3.180   1.454   2.208
   71GLOH   H02 9164   3.085   1.482   2.254
   71GLOH   H08 9165   3.175   1.486   2.104
   71GLOH    C2 9166   3.294   1.533   2.276
   71GLOH   H04 9167   3.383   1.524   2.213
   71GLOH    O2 9168   3.261   1.673   2.288
   71GLOH   H05 9169   3.172   1.684   2.328
   71GLOH    C3 9170   3.329   1.473   2.414
   71GLOH   H06 9171   3.239   1.471   2.476
   71GLOH   H07 9172   3.401   1.538   2.463
   71GLOH    O3 9173   3.383   1.341   2.401
   71GLOH   H01 9174   3.328   1.294   2.333
   72GLOH   H03 9175   4.088   0.139   2.387
   72GLOH    O1 9176   4.054   0.071   2.450
   72GLOH    C1 9177   4.002   9.959   2.377
   72GLOH   H02 9178   4.084   9.894   2.344
   72GLOH   H08 9179   3.949   9.991   2.287
   72GLOH    C2 9180   3.906   9.876   2.463
   72GLOH   H04 9181   3.831   9.944   2.506
   72GLOH    O2 9182   3.838   9.776   2.385
   72GLOH   H05 9183   3.808   9.709   2.451
   72GLOH    C3 9184   3.982   9.810   2.579
   72GLOH   H06 9185   4.021   9.888   2.645
   72GLOH   H07 9186   4.068   9.757   2.538
   72GLOH    O3 9187   3.899   9.720   2.654
   72GLOH   H01 9188   3.956   9.669   2.717
   73GLOH   H03 9189   3.825   0.445   1.832
   73GLOH    O1 9190   3.800   0.418   1.740
   73GLOH    C1 9191   3.896   0.321   1.690
   73GLOH   H02 9192   3.897   0.233   1.754
   73GLOH   H08 9193   3.996   0.363   1.692
   73GLOH    C2 9194   3.862   0.276   1.547
   73GLOH   H04 9195   3.869   0.365   1.481
   73GLOH    O2 9196   3.956   0.177   1.500
   73GLOH   H05 9197   4.036   0.223   1.462
   73GLOH    C3 9198   3.718   0.224   1.541
   73GLOH   H06 9199   3.709   0.137   1.606
   73GLOH   H07 9200   3.696   0.190   1.440
   73GLOH    O3 9201   3.626   0.326   1.582
   73GLOH   H01 9202   3.675   0.374   1.654
   74GLOH   H03 9203   5.215   3.415   0.473
   74GLOH    O1 9204   5.211   3.324   0.433
   74GLOH    C1 9205   5.227   3.337   0.290
   74GLOH   H02 9206   5.327   3.373   0.265
   74GLOH   H08 9207   5.157   3.411   0.250
   74GLOH    C2 9208   5.203   3.204   0.216
   74GLOH   H04 9209   5.101   3.170   0.238
   74GLOH    O2 9210   5.216   3.225   0.074
   74GLOH   H05 9211   5.185   3.146   0.024
   74GLOH    C3 9212   5.302   3.098   0.265
   74GLOH   H06 9213   5.404   3.130   0.241
   74GLOH   H07 9214   5.284   3.005   0.211
   74GLOH    O3 9215   5.288   3.077   0.407
   74GLOH   H01 9216   5.273   3.167   0.445
   75GLOH   H03 9217   2.749   4.459   0.097
   75GLOH    O1 9218   2.753   4.448   2.846
   75GLOH    C1 9219   2.785   4.576   2.788
   75GLOH   H02 9220   2.885   4.607   2.818
   75GLOH   H08 9221   2.715   4.652   2.825
   75GLOH    C2 9222   2.778   4.575   2.634
   75GLOH   H04 9223   2.675   4.550   2.604
   75GLOH    O2 9224   2.812   4.703   2.577
   75GLOH   H05 9225   2.763   4.775   2.621
   75GLOH    C3 9226   2.871   4.466   2.579
   75GLOH   H06 9227   2.972   4.484   2.616
   75GLOH   H07 9228   2.876   4.473   2.470
   75GLOH    O3 9229   2.826   4.335   2.619
   75GLOH   H01 9230   2.796   4.345   2.713
   76GLOH   H03 9231   3.423   7.842   2.376
   76GLOH    O1 9232   3.395   7.833   2.282
   76GLOH    C1 9233   3.432   7.957   2.219
   76GLOH   H02 9234   3.355   8.032   2.232
   76GLOH   H08 9235   3.445   7.942   2.111
   76GLOH    C2 9236   3.564   8.012   2.277
   76GLOH   H04 9237   3.643   7.938   2.260
   76GLOH    O2 9238   3.602   8.136   2.214
   76GLOH   H05 9239   3.592   8.127   2.114
   76GLOH    C3 9240   3.549   8.032   2.430
   76GLOH   H06 9241   3.482   8.116   2.447
   76GLOH   H07 9242   3.647   8.060   2.469
   76GLOH    O3 9243   3.501   7.914   2.499
   76GLOH   H01 9244   3.502   7.932   2.596
   77GLOH   H03 9245   2.278   9.021   1.405
   77GLOH    O1 9246   2.362   9.060   1.367
   77GLOH    C1 9247   2.390   9.181   1.440
   77GLOH   H02 9248   2.301   9.213   1.496
   77GLOH   H08 9249   2.413   9.262   1.371
   77GLOH    C2 9250   2.508   9.169   1.538
   77GLOH   H04 9251   2.601   9.170   1.479
   77GLOH    O2 9252   2.509   9.283   1.627
   77GLOH   H05 9253   2.425   9.279   1.681
   77GLOH    C3 9254   2.505   9.036   1.616
   77GLOH   H06 9255   2.580   9.039   1.694
   77GLOH   H07 9256   2.535   8.956   1.548
   77GLOH    O3 9257   2.376   9.007   1.673
   77GLOH   H01 9258   2.354   8.913   1.650
   78GLOH   H03 9259   4.570   3.615   2.172
   78GLOH    O1 9260   4.563   3.540   2.107
   78GLOH    C1 9261   4.436   3.548   2.040
   78GLOH   H02 9262   4.372   3.623   2.086
   78GLOH   H08 9263   4.384   3.452   2.048
   78GLOH    C2 9264   4.449   3.580   1.889
   78GLOH   H04 9265   4.496   3.493   1.840
   78GLOH    O2 9266   4.319   3.602   1.831
   78GLOH   H05 9267   4.328   3.596   1.731
   78GLOH    C3 9268   4.540   3.702   1.868
   78GLOH   H06 9269   4.498   3.787   1.921
   78GLOH   H07 9270   4.542   3.727   1.762
   78GLOH    O3 9271   4.673   3.674   1.915
   78GLOH   H01 9272   4.661   3.615   1.994
   79GLOH   H03 9273   4.199   0.589   2.139
   79GLOH    O1 9274   4.288   0.545   2.138
   79GLOH    C1 9275   4.345   0.574   2.010
   79GLOH   H02 9276   4.452   0.551   2.010
   79GLOH   H08 9277   4.336   0.680   1.987
   79GLOH    C2 9278   4.277   0.492   1.899
   79GLOH   H04 9279   4.168   0.508   1.905
   79GLOH    O2 9280   4.324   0.533   1.770
   79GLOH   H05 9281   4.307   0.631   1.759
   79GLOH    C3 9282   4.304   0.342   1.923
   79GLOH   H06 9283   4.409   0.321   1.900
   79GLOH   H07 9284   4.244   0.284   1.853
   79GLOH    O3 9285   4.274   0.306   2.059
   79GLOH   H01 9286   4.288   0.391   2.109
   80GLOH   H03 9287   3.506   9.280   1.651
   80GLOH    O1 9288   3.494   9.343   1.727
   80GLOH    C1 9289   3.391   9.435   1.687
   80GLOH   H02 9290   3.297   9.410   1.736
   80GLOH   H08 9291   3.373   9.430   1.580
   80GLOH    C2 9292   3.427   9.580   1.723
   80GLOH   H04 9293   3.523   9.603   1.674
   80GLOH    O2 9294   3.329   9.673   1.674
   80GLOH   H05 9295   3.380   9.745   1.628
   80GLOH    C3 9296   3.448   9.594   1.875
   80GLOH   H06 9297   3.355   9.570   1.926
   80GLOH   H07 9298   3.471   9.698   1.898
   80GLOH    O3 9299   3.554   9.507   1.918
   80GLOH   H01 9300   3.544   9.426   1.862
   81GLOH   H03 9301   2.201   4.396   0.999
   81GLOH    O1 9302   2.251   4.433   0.922
   81GLOH    C1 9303   2.366   4.349   0.896
   81GLOH   H02 9304   2.336   4.261   0.839
   81GLOH   H08 9305   2.410   4.313   0.989
   81GLOH    C2 9306   2.475   4.425   0.817
   81GLOH   H04 9307   2.509   4.509   0.879
   81GLOH    O2 9308   2.589   4.341   0.786
   81GLOH   H05 9309   2.558   4.251   0.753
   81GLOH    C3 9310   2.415   4.483   0.688
   81GLOH   H06 9311   2.373   4.402   0.629
   81GLOH   H07 9312   2.495   4.528   0.629
   81GLOH    O3 9313   2.313   4.580   0.720
   81GLOH   H01 9314   2.266   4.542   0.799
   82GLOH   H03 9315   3.765   9.036   2.147
   82GLOH    O1 9316   3.733   9.120   2.104
   82GLOH    C1 9317   3.818   9.149   1.991
   82GLOH   H02 9318   3.774   9.107   1.901
   82GLOH   H08 9319   3.915   9.102   2.004
   82GLOH    C2 9320   3.840   9.299   1.969
   82GLOH   H04 9321   3.741   9.344   1.950
   82GLOH    O2 9322   3.898   9.364   2.085
   82GLOH   H05 9323   3.827   9.425   2.121
   82GLOH    C3 9324   3.925   9.322   1.843
   82GLOH   H06 9325   4.013   9.259   1.848
   82GLOH   H07 9326   3.960   9.426   1.843
   82GLOH    O3 9327   3.852   9.296   1.722
   82GLOH   H01 9328   3.817   9.384   1.691
   83GLOH   H03 9329   2.207   0.370   0.310
   83GLOH    O1 9330   2.140   0.382   0.237
   83GLOH    C1 9331   2.063   0.261   0.225
   83GLOH   H02 9332   1.973   0.279   0.167
   83GLOH   H08 9333   2.031   0.226   0.323
   83GLOH    C2 9334   2.141   0.147   0.157
   83GLOH   H04 9335   2.237   0.133   0.209
   83GLOH    O2 9336   2.065   0.025   0.164
   83GLOH   H05 9337   2.018   0.016   0.079
   83GLOH    C3 9338   2.171   0.181   0.010
   83GLOH   H06 9339   2.236   0.104   2.816
   83GLOH   H07 9340   2.226   0.275   0.006
   83GLOH    O3 9341   2.050   0.191   2.779
   83GLOH   H01 9342   2.025   0.286   2.773
   84GLOH   H03 9343   3.363   4.549   0.261
   84GLOH    O1 9344   3.281   4.507   0.229
   84GLOH    C1 9345   3.173   4.529   0.321
   84GLOH   H02 9346   3.087   4.469   0.291
   84GLOH   H08 9347   3.141   4.633   0.317
   84GLOH    C2 9348   3.210   4.494   0.466
   84GLOH   H04 9349   3.237   4.387   0.469
   84GLOH    O2 9350   3.322   4.572   0.513
   84GLOH   H05 9351   3.316   4.666   0.480
   84GLOH    C3 9352   3.088   4.513   0.559
   84GLOH   H06 9353   3.061   4.619   0.558
   84GLOH   H07 9354   3.119   4.489   0.661
   84GLOH    O3 9355   2.975   4.432   0.520
   84GLOH   H01 9356   2.912   4.434   0.597
   85GLOH   H03 9357   3.549   3.752   1.354
   85GLOH    O1 9358   3.549   3.770   1.452
   85GLOH    C1 9359   3.615   3.896   1.474
   85GLOH   H02 9360   3.573   3.945   1.562
   85GLOH   H08 9361   3.597   3.964   1.390
   85GLOH    C2 9362   3.766   3.881   1.493
   85GLOH   H04 9363   3.806   3.820   1.410
   85GLOH    O2 9364   3.829   4.011   1.491
   85GLOH   H05 9365   3.926   3.994   1.469
   85GLOH    C3 9366   3.797   3.807   1.625
   85GLOH   H06 9367   3.754   3.707   1.619
   85GLOH   H07 9368   3.745   3.858   1.706
   85GLOH    O3 9369   3.938   3.798   1.656
   85GLOH   H01 9370   3.980   3.728   1.598
   86GLOH   H03 9371   3.245   7.624   2.697
   86GLOH    O1 9372   3.179   7.652   2.629
   86GLOH    C1 9373   3.237   7.632   2.499
   86GLOH   H02 9374   3.257   7.526   2.483
   86GLOH   H08 9375   3.333   7.684   2.492
   86GLOH    C2 9376   3.147   7.681   2.384
   86GLOH   H04 9377   3.134   7.790   2.396
   86GLOH    O2 9378   3.210   7.656   2.257
   86GLOH   H05 9379   3.287   7.719   2.250
   86GLOH    C3 9380   3.008   7.616   2.393
   86GLOH   H06 9381   3.018   7.508   2.381
   86GLOH   H07 9382   2.947   7.652   2.311
   86GLOH    O3 9383   2.946   7.647   2.518
   86GLOH   H01 9384   3.019   7.653   2.584
   87GLOH   H03 9385   4.137   5.386   0.316
   87GLOH    O1 9386   4.130   5.353   0.408
   87GLOH    C1 9387   4.257   5.294   0.445
   87GLOH   H02 9388   4.259   5.271   0.552
   87GLOH   H08 9389   4.337   5.366   0.428
   87GLOH    C2 9390   4.289   5.167   0.366
   87GLOH   H04 9391   4.291   5.194   0.259
   87GLOH    O2 9392   4.419   5.115   0.401
   87GLOH   H05 9393   4.426   5.098   0.498
   87GLOH    C3 9394   4.179   5.060   0.382
   87GLOH   H06 9395   4.204   4.975   0.320
   87GLOH   H07 9396   4.086   5.101   0.343
   87GLOH    O3 9397   4.159   5.017   0.518
   87GLOH   H01 9398   4.227   4.946   0.537
   88GLOH   H03 9399   5.542   2.883   1.194
   88GLOH    O1 9400   5.527   2.797   1.146
   88GLOH    C1 9401   5.544   2.818   1.004
   88GLOH   H02 9402   5.638   2.777   0.970
   88GLOH   H08 9403   5.546   2.925   0.980
   88GLOH    C2 9404   5.431   2.752   0.923
   88GLOH   H04 9405   5.337   2.802   0.949
   88GLOH    O2 9406   5.454   2.769   0.781
   88GLOH   H05 9407   5.371   2.735   0.735
   88GLOH    C3 9408   5.419   2.603   0.959
   88GLOH   H06 9409   5.513   2.553   0.936
   88GLOH   H07 9410   5.342   2.558   0.896
   88GLOH    O3 9411   5.387   2.589   1.098
   88GLOH   H01 9412   5.440   2.659   1.143
   89GLOH   H03 9413   2.690   6.535   0.794
   89GLOH    O1 9414   2.598   6.526   0.760
   89GLOH    C1 9415   2.599   6.534   0.616
   89GLOH   H02 9416   2.689   6.485   0.577
   89GLOH   H08 9417   2.603   6.638   0.584
   89GLOH    C2 9418   2.478   6.466   0.551
   89GLOH   H04 9419   2.481   6.360   0.578
   89GLOH    O2 9420   2.352   6.522   0.596
   89GLOH   H05 9421   2.305   6.448   0.646
   89GLOH    C3 9422   2.489   6.475   0.398
   89GLOH   H06 9423   2.501   6.580   0.370
   89GLOH   H07 9424   2.395   6.441   0.353
   89GLOH    O3 9425   2.599   6.397   0.348
   89GLOH   H01 9426   2.644   6.447   0.276
   90GLOH   H03 9427   2.087   6.016   2.522
   90GLOH    O1 9428   2.095   6.082   2.595
   90GLOH    C1 9429   2.018   6.037   2.709
   90GLOH   H02 9430   2.057   5.942   2.746
   90GLOH   H08 9431   1.914   6.020   2.680
   90GLOH    C2 9432   2.019   6.139   2.825
   90GLOH   H04 9433   1.970   6.231   2.791
   90GLOH    O2 9434   1.946   6.084   0.089
   90GLOH   H05 9435   1.960   6.141   0.170
   90GLOH    C3 9436   2.164   6.172   0.017
   90GLOH   H06 9437   2.211   6.083   0.057
   90GLOH   H07 9438   2.161   6.246   0.098
   90GLOH    O3 9439   2.237   6.224   2.754
   90GLOH   H01 9440   2.199   6.180   2.674
   91GLOH   H03 9441   3.748   8.438   2.414
   91GLOH    O1 9442   3.724   8.523   2.458
   91GLOH    C1 9443   3.803   8.541   2.578
   91GLOH   H02 9444   3.751   8.608   2.646
   91GLOH   H08 9445   3.897   8.590   2.552
   91GLOH    C2 9446   3.837   8.412   2.655
   91GLOH   H04 9447   3.896   8.347   2.588
   91GLOH    O2 9448   3.918   8.442   2.771
   91GLOH   H05 9449   3.936   8.357   2.821
   91GLOH    C3 9450   3.711   8.335   2.698
   91GLOH   H06 9451   3.646   8.404   2.753
   91GLOH   H07 9452   3.740   8.257   2.768
   91GLOH    O3 9453   3.638   8.276   2.589
   91GLOH   H01 9454   3.689   8.283   2.505
   92GLOH   H03 9455   3.761   9.398   1.203
   92GLOH    O1 9456   3.806   9.315   1.173
   92GLOH    C1 9457   3.717   9.249   1.081
   92GLOH   H02 9458   3.627   9.216   1.133
   92GLOH   H08 9459   3.766   9.160   1.041
   92GLOH    C2 9460   3.676   9.341   0.964
   92GLOH   H04 9461   3.768   9.380   0.917
   92GLOH    O2 9462   3.597   9.271   0.864
   92GLOH   H05 9463   3.625   9.174   0.862
   92GLOH    C3 9464   3.594   9.460   1.018
   92GLOH   H06 9465   3.495   9.423   1.044
   92GLOH   H07 9466   3.580   9.531   0.937
   92GLOH    O3 9467   3.655   9.525   1.131
   92GLOH   H01 9468   3.737   9.573   1.097
   93GLOH   H03 9469   4.037   5.385   0.524
   93GLOH    O1 9470   3.966   5.409   0.589
   93GLOH    C1 9471   3.908   5.287   0.639
   93GLOH   H02 9472   3.880   5.222   0.556
   93GLOH   H08 9473   3.816   5.309   0.694
   93GLOH    C2 9474   4.004   5.210   0.732
   93GLOH   H04 9475   4.100   5.200   0.680
   93GLOH    O2 9476   4.026   5.282   0.855
   93GLOH   H05 9477   4.017   5.377   0.834
   93GLOH    C3 9478   3.949   5.069   0.757
   93GLOH   H06 9479   3.851   5.078   0.803
   93GLOH   H07 9480   4.013   5.017   0.828
   93GLOH    O3 9481   3.941   4.994   0.634
   93GLOH   H01 9482   4.028   5.004   0.587
   94GLOH   H03 9483   2.876   6.717   2.029
   94GLOH    O1 9484   2.970   6.734   2.059
   94GLOH    C1 9485   3.001   6.873   2.042
   94GLOH   H02 9486   3.010   6.897   1.937
   94GLOH   H08 9487   3.098   6.895   2.087
   94GLOH    C2 9488   2.896   6.967   2.106
   94GLOH   H04 9489   2.797   6.941   2.066
   94GLOH    O2 9490   2.893   6.954   2.250
   94GLOH   H05 9491   2.865   6.861   2.276
   94GLOH    C3 9492   2.925   7.114   2.067
   94GLOH   H06 9493   3.028   7.138   2.095
   94GLOH   H07 9494   2.861   7.179   2.127
   94GLOH    O3 9495   2.905   7.139   1.927
   94GLOH   H01 9496   2.929   7.234   1.911
   95GLOH   H03 9497   2.927   9.264   1.320
   95GLOH    O1 9498   2.848   9.207   1.298
   95GLOH    C1 9499   2.875   9.136   1.175
   95GLOH   H02 9500   2.817   9.044   1.170
   95GLOH   H08 9501   2.981   9.108   1.169
   95GLOH    C2 9502   2.841   9.222   1.051
   95GLOH   H04 9503   2.900   9.315   1.057
   95GLOH    O2 9504   2.878   9.155   0.928
   95GLOH   H05 9505   2.820   9.072   0.918
   95GLOH    C3 9506   2.692   9.260   1.054
   95GLOH   H06 9507   2.632   9.169   1.041
   95GLOH   H07 9508   2.670   9.325   0.969
   95GLOH    O3 9509   2.658   9.325   1.177
   95GLOH   H01 9510   2.716   9.283   1.245
   96GLOH   H03 9511   4.130   9.361   2.426
   96GLOH    O1 9512   4.091   9.340   2.514
   96GLOH    C1 9513   4.066   9.463   2.584
   96GLOH   H02 9514   3.963   9.495   2.567
   96GLOH   H08 9515   4.130   9.542   2.544
   96GLOH    C2 9516   4.091   9.455   2.736
   96GLOH   H04 9517   4.199   9.439   2.750
   96GLOH    O2 9518   4.055   9.579   2.800
   96GLOH   H05 9519   4.051   9.566   0.049
   96GLOH    C3 9520   4.019   9.334   2.798
   96GLOH   H06 9521   4.040   9.333   0.057
   96GLOH   H07 9522   4.062   9.243   2.757
   96GLOH    O3 9523   3.877   9.335   2.776
   96GLOH   H01 9524   3.859   9.318   2.682
   97GLOH   H03 9525   3.883   9.266   0.319
   97GLOH    O1 9526   3.820   9.226   0.383
   97GLOH    C1 9527   3.747   9.332   0.447
   97GLOH   H02 9528   3.641   9.308   0.451
   97GLOH   H08 9529   3.755   9.425   0.390
   97GLOH    C2 9530   3.794   9.360   0.591
   97GLOH   H04 9531   3.769   9.272   0.652
   97GLOH    O2 9532   3.937   9.383   0.600
   97GLOH   H05 9533   3.981   9.293   0.601
   97GLOH    C3 9534   3.716   9.480   0.648
   97GLOH   H06 9535   3.723   9.562   0.577
   97GLOH   H07 9536   3.765   9.514   0.740
   97GLOH    O3 9537   3.578   9.448   0.675
   97GLOH   H01 9538   3.578   9.374   0.741
   98GLOH   H03 9539   2.538   1.435   1.230
   98GLOH    O1 9540   2.490   1.385   1.302
   98GLOH    C1 9541   2.583   1.364   1.411
   98GLOH   H02 9542   2.650   1.283   1.385
   98GLOH   H08 9543   2.529   1.331   1.499
   98GLOH    C2 9544   2.670   1.485   1.452
   98GLOH   H04 9545   2.738   1.509   1.369
   98GLOH    O2 9546   2.593   1.603   1.485
   98GLOH   H05 9547   2.659   1.671   1.520
   98GLOH    C3 9548   2.753   1.445   1.575
   98GLOH   H06 9549   2.683   1.420   1.654
   98GLOH   H07 9550   2.811   1.530   1.609
   98GLOH    O3 9551   2.840   1.334   1.549
   98GLOH   H01 9552   2.896   1.323   1.630
   99GLOH   H03 9553   2.022   1.437   1.788
   99GLOH    O1 9554   1.951   1.444   1.857
   99GLOH    C1 9555   2.006   1.407   1.985
   99GLOH   H02 9556   1.962   1.469   2.064
   99GLOH   H08 9557   2.114   1.426   1.988
   99GLOH    C2 9558   1.983   1.259   2.021
   99GLOH   H04 9559   2.036   1.197   1.947
   99GLOH    O2 9560   2.035   1.231   2.152
   99GLOH   H05 9561   2.022   1.133   2.171
   99GLOH    C3 9562   1.833   1.224   2.013
   99GLOH   H06 9563   1.778   1.288   2.083
   99GLOH   H07 9564   1.819   1.121   2.047
   99GLOH    O3 9565   1.782   1.241   1.880
   99GLOH   H01 9566   1.817   1.328   1.849
  100GLOH   H03 9567   3.050   2.159   1.676
  100GLOH    O1 9568   3.033   2.141   1.773
  100GLOH    C1 9569   3.108   2.027   1.821
  100GLOH   H02 9570   3.039   1.956   1.864
  100GLOH   H08 9571   3.176   2.057   1.901
  100GLOH    C2 9572   3.190   1.953   1.713
  100GLOH   H04 9573   3.118   1.905   1.645
  100GLOH    O2 9574   3.274   2.043   1.638
  100GLOH   H05 9575   3.267   2.017   1.542
  100GLOH    C3 9576   3.277   1.843   1.777
  100GLOH   H06 9577   3.352   1.891   1.840
  100GLOH   H07 9578   3.331   1.792   1.697
  100GLOH    O3 9579   3.201   1.747   1.853
  100GLOH   H01 9580   3.176   1.790   1.940
  101GLOH   H03 9581   5.250   4.358   0.283
  101GLOH    O1 9582   5.327   4.408   0.320
  101GLOH    C1 9583   5.451   4.338   0.291
  101GLOH   H02 9584   5.535   4.407   0.297
  101GLOH   H08 9585   5.450   4.298   0.190
  101GLOH    C2 9586   5.476   4.222   0.389
  101GLOH   H04 9587   5.394   4.149   0.377
  101GLOH    O2 9588   5.601   4.154   0.361
  101GLOH   H05 9589   5.678   4.205   0.398
  101GLOH    C3 9590   5.474   4.272   0.535
  101GLOH   H06 9591   5.561   4.336   0.552
  101GLOH   H07 9592   5.484   4.185   0.600
  101GLOH    O3 9593   5.353   4.343   0.564
  101GLOH   H01 9594   5.334   4.397   0.484
  102GLOH   H03 9595   4.620   3.992   1.854
  102GLOH    O1 9596   4.709   3.987   1.898
  102GLOH    C1 9597   4.699   4.054   2.025
  102GLOH   H02 9598   4.707   3.982   2.106
  102GLOH   H08 9599   4.603   4.104   2.036
  102GLOH    C2 9600   4.811   4.159   2.041
  102GLOH   H04 9601   4.808   4.227   1.954
  102GLOH    O2 9602   4.790   4.236   2.161
  102GLOH   H05 9603   4.697   4.272   2.161
  102GLOH    C3 9604   4.947   4.087   2.043
  102GLOH   H06 9605   4.954   4.028   2.135
  102GLOH   H07 9606   5.026   4.162   2.047
  102GLOH    O3 9607   4.961   4.004   1.927
  102GLOH   H01 9608   4.868   3.985   1.897
  103GLOH   H03 9609   4.423   8.699   0.635
  103GLOH    O1 9610   4.451   8.718   0.728
  103GLOH    C1 9611   4.538   8.833   0.730
  103GLOH   H02 9612   4.625   8.815   0.666
  103GLOH   H08 9613   4.576   8.848   0.831
  103GLOH    C2 9614   4.470   8.964   0.685
  103GLOH   H04 9615   4.535   9.047   0.715
  103GLOH    O2 9616   4.453   8.967   0.541
  103GLOH   H05 9617   4.388   9.039   0.518
  103GLOH    C3 9618   4.333   8.982   0.753
  103GLOH   H06 9619   4.264   8.907   0.714
  103GLOH   H07 9620   4.295   9.079   0.722
  103GLOH    O3 9621   4.338   8.976   0.897
  103GLOH   H01 9622   4.339   8.881   0.925
  104GLOH   H03 9623   2.071   1.070   0.946
  104GLOH    O1 9624   2.098   1.150   0.999
  104GLOH    C1 9625   2.241   1.161   0.992
  104GLOH   H02 9626   2.285   1.062   0.973
  104GLOH   H08 9627   2.281   1.194   1.088
  104GLOH    C2 9628   2.288   1.259   0.882
  104GLOH   H04 9629   2.229   1.240   0.791
  104GLOH    O2 9630   2.269   1.395   0.924
  104GLOH   H05 9631   2.172   1.415   0.933
  104GLOH    C3 9632   2.437   1.237   0.848
  104GLOH   H06 9633   2.496   1.266   0.934
  104GLOH   H07 9634   2.463   1.305   0.767
  104GLOH    O3 9635   2.467   1.101   0.810
  104GLOH   H01 9636   2.500   1.099   0.717
  105GLOH   H03 9637   4.322   2.451   1.566
  105GLOH    O1 9638   4.374   2.390   1.625
  105GLOH    C1 9639   4.363   2.256   1.576
  105GLOH   H02 9640   4.442   2.194   1.620
  105GLOH   H08 9641   4.378   2.254   1.468
  105GLOH    C2 9642   4.228   2.190   1.607
  105GLOH   H04 9643   4.149   2.250   1.560
  105GLOH    O2 9644   4.222   2.055   1.554
  105GLOH   H05 9645   4.126   2.035   1.533
  105GLOH    C3 9646   4.201   2.188   1.759
  105GLOH   H06 9647   4.289   2.148   1.809
  105GLOH   H07 9648   4.119   2.118   1.779
  105GLOH    O3 9649   4.168   2.317   1.812
  105GLOH   H01 9650   4.251   2.364   1.838
  106GLOH   H03 9651   4.282   9.169   0.157
  106GLOH    O1 9652   4.219   9.114   0.208
  106GLOH    C1 9653   4.249   8.975   0.185
  106GLOH   H02 9654   4.335   8.945   0.245
  106GLOH   H08 9655   4.277   8.959   0.080
  106GLOH    C2 9656   4.132   8.881   0.218
  106GLOH   H04 9657   4.048   8.904   0.151
  106GLOH    O2 9658   4.174   8.745   0.196
  106GLOH   H05 9659   4.097   8.685   0.179
  106GLOH    C3 9660   4.086   8.903   0.363
  106GLOH   H06 9661   4.060   9.008   0.375
  106GLOH   H07 9662   4.170   8.883   0.430
  106GLOH    O3 9663   3.973   8.821   0.400
  106GLOH   H01 9664   4.006   8.729   0.412
  107GLOH   H03 9665   5.060   2.696   1.949
  107GLOH    O1 9666   5.123   2.773   1.952
  107GLOH    C1 9667   5.093   2.864   2.060
  107GLOH   H02 9668   4.992   2.903   2.049
  107GLOH   H08 9669   5.160   2.950   2.055
  107GLOH    C2 9670   5.106   2.801   2.200
  107GLOH   H04 9671   5.205   2.755   2.208
  107GLOH    O2 9672   5.093   2.902   2.302
  107GLOH   H05 9673   5.000   2.938   2.304
  107GLOH    C3 9674   5.000   2.691   2.220
  107GLOH   H06 9675   5.010   2.653   2.322
  107GLOH   H07 9676   5.024   2.608   2.154
  107GLOH    O3 9677   4.866   2.737   2.197
  107GLOH   H01 9678   4.853   2.825   2.241
  108GLOH   H03 9679   2.914   1.806   0.641
  108GLOH    O1 9680   2.929   1.871   0.567
  108GLOH    C1 9681   2.803   1.903   0.503
  108GLOH   H02 9682   2.821   1.948   0.406
  108GLOH   H08 9683   2.749   1.977   0.562
  108GLOH    C2 9684   2.712   1.781   0.485
  108GLOH   H04 9685   2.678   1.750   0.585
  108GLOH    O2 9686   2.595   1.818   0.408
  108GLOH   H05 9687   2.575   1.743   0.346
  108GLOH    C3 9688   2.787   1.661   0.422
  108GLOH   H06 9689   2.724   1.573   0.431
  108GLOH   H07 9690   2.876   1.640   0.482
  108GLOH    O3 9691   2.826   1.683   0.285
  108GLOH   H01 9692   2.912   1.731   0.285
  109GLOH   H03 9693   3.079   1.642   1.792
  109GLOH    O1 9694   2.989   1.601   1.803
  109GLOH    C1 9695   2.928   1.664   1.917
  109GLOH   H02 9696   2.944   1.772   1.913
  109GLOH   H08 9697   2.976   1.629   2.009
  109GLOH    C2 9698   2.776   1.642   1.931
  109GLOH   H04 9699   2.745   1.686   2.027
  109GLOH    O2 9700   2.703   1.706   1.825
  109GLOH   H05 9701   2.608   1.718   1.855
  109GLOH    C3 9702   2.744   1.492   1.936
  109GLOH   H06 9703   2.770   1.448   1.840
  109GLOH   H07 9704   2.637   1.479   1.949
  109GLOH    O3 9705   2.816   1.422   2.040
  109GLOH   H01 9706   2.803   1.468   2.127
  110GLOH   H03 9707   2.366   1.094   1.495
  110GLOH    O1 9708   2.301   1.110   1.568
  110GLOH    C1 9709   2.273   1.251   1.576
  110GLOH   H02 9710   2.245   1.290   1.478
  110GLOH   H08 9711   2.362   1.304   1.608
  110GLOH    C2 9712   2.162   1.285   1.676
  110GLOH   H04 9713   2.199   1.261   1.777
  110GLOH    O2 9714   2.129   1.426   1.671
  110GLOH   H05 9715   2.213   1.477   1.651
  110GLOH    C3 9716   2.040   1.196   1.649
  110GLOH   H06 9717   2.010   1.206   1.545
  110GLOH   H07 9718   1.956   1.229   1.710
  110GLOH    O3 9719   2.072   1.059   1.677
  110GLOH   H01 9720   2.162   1.044   1.637
  111GLOH   H03 9721   3.228   4.967   2.572
  111GLOH    O1 9722   3.184   4.896   2.623
  111GLOH    C1 9723   3.118   4.806   2.532
  111GLOH   H02 9724   3.028   4.854   2.492
  111GLOH   H08 9725   3.084   4.717   2.586
  111GLOH    C2 9726   3.206   4.759   2.414
  111GLOH   H04 9727   3.258   4.847   2.375
  111GLOH    O2 9728   3.305   4.662   2.454
  111GLOH   H05 9729   3.353   4.628   2.376
  111GLOH    C3 9730   3.119   4.702   2.301
  111GLOH   H06 9731   3.055   4.624   2.342
  111GLOH   H07 9732   3.185   4.655   2.229
  111GLOH    O3 9733   3.041   4.804   2.236
  111GLOH   H01 9734   3.106   4.856   2.181
  112GLOH   H03 9735   3.310   5.961   2.739
  112GLOH    O1 9736   3.263   6.031   2.688
  112GLOH    C1 9737   3.283   6.159   2.750
  112GLOH   H02 9738   3.370   6.209   2.707
  112GLOH   H08 9739   3.303   6.148   0.009
  112GLOH    C2 9740   3.160   6.251   2.733
  112GLOH   H04 9741   3.074   6.202   2.780
  112GLOH    O2 9742   3.184   6.378   2.797
  112GLOH   H05 9743   3.137   6.382   0.035
  112GLOH    C3 9744   3.129   6.271   2.583
  112GLOH   H06 9745   3.209   6.330   2.538
  112GLOH   H07 9746   3.037   6.330   2.574
  112GLOH    O3 9747   3.115   6.145   2.516
  112GLOH   H01 9748   3.168   6.081   2.569
  113GLOH   H03 9749   3.443   9.022   0.686
  113GLOH    O1 9750   3.385   8.975   0.751
  113GLOH    C1 9751   3.249   8.984   0.704
  113GLOH   H02 9752   3.240   8.933   0.608
  113GLOH   H08 9753   3.221   9.088   0.686
  113GLOH    C2 9754   3.145   8.923   0.801
  113GLOH   H04 9755   3.045   8.950   0.763
  113GLOH    O2 9756   3.156   8.779   0.803
  113GLOH   H05 9757   3.126   8.745   0.713
  113GLOH    C3 9758   3.160   8.982   0.942
  113GLOH   H06 9759   3.260   8.961   0.978
  113GLOH   H07 9760   3.091   8.928   1.009
  113GLOH    O3 9761   3.132   9.123   0.947
  113GLOH   H01 9762   3.034   9.136   0.937
  114GLOH   H03 9763   4.205   2.994   2.475
  114GLOH    O1 9764   4.224   2.896   2.472
  114GLOH    C1 9765   4.111   2.830   2.413
  114GLOH   H02 9766   4.124   2.722   2.421
  114GLOH   H08 9767   4.105   2.853   2.306
  114GLOH    C2 9768   3.978   2.868   2.480
  114GLOH   H04 9769   3.967   2.977   2.478
  114GLOH    O2 9770   3.867   2.809   2.408
  114GLOH   H05 9771   3.850   2.721   2.450
  114GLOH    C3 9772   3.977   2.821   2.626
  114GLOH   H06 9773   3.889   2.863   2.675
  114GLOH   H07 9774   4.064   2.863   2.677
  114GLOH    O3 9775   3.977   2.677   2.637
  114GLOH   H01 9776   3.987   2.651   2.731
  115GLOH   H03 9777   4.154   0.798   0.289
  115GLOH    O1 9778   4.243   0.761   0.267
  115GLOH    C1 9779   4.302   0.707   0.386
  115GLOH   H02 9780   4.393   0.651   0.360
  115GLOH   H08 9781   4.235   0.636   0.434
  115GLOH    C2 9782   4.340   0.817   0.486
  115GLOH   H04 9783   4.256   0.887   0.495
  115GLOH    O2 9784   4.366   0.757   0.614
  115GLOH   H05 9785   4.385   0.828   0.683
  115GLOH    C3 9786   4.461   0.895   0.431
  115GLOH   H06 9787   4.443   0.916   0.325
  115GLOH   H07 9788   4.548   0.830   0.435
  115GLOH    O3 9789   4.487   1.018   0.501
  115GLOH   H01 9790   4.492   1.091   0.434
  116GLOH   H03 9791   4.590   1.763   0.186
  116GLOH    O1 9792   4.659   1.819   0.144
  116GLOH    C1 9793   4.765   1.837   0.239
  116GLOH   H02 9794   4.835   1.914   0.205
  116GLOH   H08 9795   4.822   1.745   0.250
  116GLOH    C2 9796   4.710   1.878   0.377
  116GLOH   H04 9797   4.796   1.893   0.445
  116GLOH    O2 9798   4.637   2.003   0.368
  116GLOH   H05 9799   4.587   2.001   0.283
  116GLOH    C3 9800   4.623   1.765   0.436
  116GLOH   H06 9801   4.572   1.803   0.524
  116GLOH   H07 9802   4.690   1.686   0.470
  116GLOH    O3 9803   4.527   1.709   0.343
  116GLOH   H01 9804   4.437   1.726   0.377
  117GLOH   H03 9805   2.354   0.884   2.174
  117GLOH    O1 9806   2.273   0.919   2.128
  117GLOH    C1 9807   2.293   1.057   2.091
  117GLOH   H02 9808   2.284   1.120   2.179
  117GLOH   H08 9809   2.215   1.088   2.022
  117GLOH    C2 9810   2.429   1.085   2.024
  117GLOH   H04 9811   2.508   1.059   2.095
  117GLOH    O2 9812   2.447   1.009   1.902
  117GLOH   H05 9813   2.402   0.920   1.909
  117GLOH    C3 9814   2.441   1.235   1.990
  117GLOH   H06 9815   2.360   1.262   1.923
  117GLOH   H07 9816   2.534   1.250   1.935
  117GLOH    O3 9817   2.439   1.320   2.107
  117GLOH   H01 9818   2.515   1.293   2.165
  118GLOH   H03 9819   3.221   8.860   2.667
  118GLOH    O1 9820   3.253   8.943   2.706
  118GLOH    C1 9821   3.144   9.037   2.718
  118GLOH   H02 9822   3.098   9.029   2.816
  118GLOH   H08 9823   3.066   9.016   2.644
  118GLOH    C2 9824   3.192   9.182   2.698
  118GLOH   H04 9825   3.273   9.201   2.770
  118GLOH    O2 9826   3.244   9.198   2.564
  118GLOH   H05 9827   3.326   9.144   2.558
  118GLOH    C3 9828   3.079   9.282   2.726
  118GLOH   H06 9829   2.995   9.259   2.661
  118GLOH   H07 9830   3.114   9.382   2.700
  118GLOH    O3 9831   3.038   9.279   0.016
  118GLOH   H01 9832   2.962   9.217   0.028
  119GLOH   H03 9833   5.115   3.610   2.678
  119GLOH    O1 9834   5.120   3.707   2.669
  119GLOH    C1 9835   5.219   3.761   2.759
  119GLOH   H02 9836   5.241   3.864   2.731
  119GLOH   H08 9837   5.313   3.706   2.748
  119GLOH    C2 9838   5.177   3.759   0.059
  119GLOH   H04 9839   5.159   3.654   0.088
  119GLOH    O2 9840   5.284   3.813   0.140
  119GLOH   H05 9841   5.273   3.794   0.236
  119GLOH    C3 9842   5.047   3.839   0.079
  119GLOH   H06 9843   4.969   3.793   0.019
  119GLOH   H07 9844   5.062   3.939   0.038
  119GLOH    O3 9845   5.005   3.848   0.217
  119GLOH   H01 9846   5.066   3.910   0.263
  120GLOH   H03 9847   1.982   2.932   0.910
  120GLOH    O1 9848   2.078   2.941   0.888
  120GLOH    C1 9849   2.103   3.071   0.831
  120GLOH   H02 9850   2.066   3.150   0.896
  120GLOH   H08 9851   2.050   3.081   0.736
  120GLOH    C2 9852   2.253   3.095   0.805
  120GLOH   H04 9853   2.289   3.018   0.735
  120GLOH    O2 9854   2.274   3.225   0.747
  120GLOH   H05 9855   2.368   3.229   0.712
  120GLOH    C3 9856   2.331   3.082   0.937
  120GLOH   H06 9857   2.300   3.163   1.003
  120GLOH   H07 9858   2.437   3.095   0.917
  120GLOH    O3 9859   2.306   2.954   0.998
  120GLOH   H01 9860   2.211   2.934   0.976
  121ACOH    H4 9861   4.387   8.704   0.858
  121ACOH    O2 9862   4.337   8.720   0.945
  121ACOH    C2 9863   4.309   8.597   0.993
  121ACOH    O1 9864   4.352   8.491   0.953
  121ACOH    C1 9865   4.223   8.608   1.114
  121ACOH    H1 9866   4.207   8.510   1.158
  121ACOH    H2 9867   4.127   8.650   1.086
  121ACOH    H3 9868   4.271   8.673   1.187
  122ACOH    H4 9869   1.536   3.108   0.946
  122ACOH    O2 9870   1.444   3.112   0.907
  122ACOH    C2 9871   1.451   3.172   0.787
  122ACOH    O1 9872   1.551   3.200   0.723
  122ACOH    C1 9873   1.314   3.191   0.734
  122ACOH    H1 9874   1.317   3.235   0.634
  122ACOH    H2 9875   1.259   3.257   0.800
  122ACOH    H3 9876   1.264   3.095   0.729
  123ACOH    H4 9877   4.765   1.368   1.240
  123ACOH    O2 9878   4.804   1.452   1.279
  123ACOH    C2 9879   4.755   1.463   1.405
  123ACOH    O1 9880   4.667   1.397   1.455
  123ACOH    C1 9881   4.819   1.577   1.475
  123ACOH    H1 9882   4.926   1.559   1.485
  123ACOH    H2 9883   4.776   1.589   1.574
  123ACOH    H3 9884   4.804   1.668   1.418
  124ACOH    H4 9885   2.058   0.494   0.180
  124ACOH    O2 9886   2.000   0.570   0.153
  124ACOH    C2 9887   1.970   0.556   0.023
  124ACOH    O1 9888   1.993   0.459   2.801
  124ACOH    C1 9889   1.890   0.671   2.823
  124ACOH    H1 9890   1.859   0.657   2.720
  124ACOH    H2 9891   1.950   0.761   2.830
  124ACOH    H3 9892   1.802   0.682   0.038
  125ACOH    H4 9893   2.801   0.394   0.303
  125ACOH    O2 9894   2.814   0.404   0.206
  125ACOH    C2 9895   2.737   0.312   0.146
  125ACOH    O1 9896   2.658   0.237   0.200
  125ACOH    C1 9897   2.754   0.318   2.847
  125ACOH    H1 9898   2.858   0.299   2.822
  125ACOH    H2 9899   2.726   0.416   2.811
  125ACOH    H3 9900   2.692   0.243   2.798
  126ACOH    H4 9901   4.588   0.355   1.197
  126ACOH    O2 9902   4.662   0.293   1.174
  126ACOH    C2 9903   4.751   0.361   1.101
  126ACOH    O1 9904   4.743   0.477   1.065
  126ACOH    C1 9905   4.865   0.274   1.063
  126ACOH    H1 9906   4.914   0.239   1.154
  126ACOH    H2 9907   4.937   0.328   1.002
  126ACOH    H3 9908   4.828   0.188   1.008
  127ACOH    H4 9909   5.426   9.395   1.535
  127ACOH    O2 9910   5.418   9.314   1.481
  127ACOH    C2 9911   5.288   9.304   1.448
  127ACOH    O1 9912   5.200   9.382   1.479
  127ACOH    C1 9913   5.264   9.184   1.365
  127ACOH    H1 9914   5.325   9.188   1.276
  127ACOH    H2 9915   5.159   9.178   1.336
  127ACOH    H3 9916   5.290   9.095   1.422
  128ACOH    H4 9917   4.615   1.504   2.110
  128ACOH    O2 9918   4.674   1.575   2.069
  128ACOH    C2 9919   4.721   1.520   1.956
  128ACOH    O1 9920   4.678   1.422   1.899
  128ACOH    C1 9921   4.826   1.607   1.897
  128ACOH    H1 9922   4.862   1.566   1.803
  128ACOH    H2 9923   4.910   1.615   1.966
  128ACOH    H3 9924   4.785   1.706   1.879
  129ACOH    H4 9925   4.237   0.160   2.044
  129ACOH    O2 9926   4.217   0.062   2.048
  129ACOH    C2 9927   4.094   0.044   1.997
  129ACOH    O1 9928   4.014   0.131   1.967
  129ACOH    C1 9929   4.058   9.900   1.992
  129ACOH    H1 9930   3.975   9.880   2.059
  129ACOH    H2 9931   4.143   9.839   2.020
  129ACOH    H3 9932   4.029   9.874   1.890
  130ACOH    H4 9933   1.689   0.743   1.992
  130ACOH    O2 9934   1.602   0.704   1.964
  130ACOH    C2 9935   1.630   0.582   1.913
  130ACOH    O1 9936   1.735   0.522   1.921
  130ACOH    C1 9937   1.508   0.518   1.857
  130ACOH    H1 9938   1.481   0.433   1.918
  130ACOH    H2 9939   1.529   0.485   1.756
  130ACOH    H3 9940   1.426   0.589   1.854
  131ACOH    H4 9941   2.157   5.081   0.197
  131ACOH    O2 9942   2.183   5.004   0.249
  131ACOH    C2 9943   2.111   5.005   0.363
  131ACOH    O1 9944   2.031   5.090   0.396
  131ACOH    C1 9945   2.141   4.887   0.448
  131ACOH    H1 9946   2.175   4.920   0.545
  131ACOH    H2 9947   2.218   4.826   0.402
  131ACOH    H3 9948   2.051   4.828   0.460
  132ACOH    H4 9949   2.130   4.617   1.739
  132ACOH    O2 9950   2.082   4.705   1.731
  132ACOH    C2 9951   1.995   4.689   1.630
  132ACOH    O1 9952   2.002   4.607   1.541
  132ACOH    C1 9953   1.897   4.801   1.628
  132ACOH    H1 9954   1.836   4.796   1.539
  132ACOH    H2 9955   1.950   4.896   1.630
  132ACOH    H3 9956   1.834   4.794   1.716
  133ACOH    H4 9957   3.709   7.725   1.062
  133ACOH    O2 9958   3.784   7.709   1.125
  133ACOH    C2 9959   3.737   7.634   1.226
  133ACOH    O1 9960   3.622   7.601   1.247
  133ACOH    C1 9961   3.849   7.596   1.317
  133ACOH    H1 9962   3.815   7.525   1.392
  133ACOH    H2 9963   3.886   7.686   1.366
  133ACOH    H3 9964   3.929   7.552   1.259
  134ACOH    H4 9965   2.943   5.044   0.817
  134ACOH    O2 9966   2.890   5.091   0.748
  134ACOH    C2 9967   2.905   5.223   0.772
  134ACOH    O1 9968   2.988   5.275   0.844
  134ACOH    C1 9969   2.813   5.301   0.687
  134ACOH    H1 9970   2.829   5.276   0.582
  134ACOH    H2 9971   2.828   5.408   0.700
  134ACOH    H3 9972   2.710   5.277   0.714
  135ACOH    H4 9973   5.112   2.683   1.467
  135ACOH    O2 9974   5.198   2.665   1.515
  135ACOH    C2 9975   5.278   2.772   1.496
  135ACOH    O1 9976   5.254   2.872   1.430
  135ACOH    C1 9977   5.407   2.756   1.566
  135ACOH    H1 9978   5.414   2.829   1.646
  135ACOH    H2 9979   5.489   2.772   1.497
  135ACOH    H3 9980   5.416   2.656   1.608
  136ACOH    H4 9981   2.392   4.759   1.322
  136ACOH    O2 9982   2.324   4.748   1.249
  136ACOH    C2 9983   2.213   4.811   1.292
  136ACOH    O1 9984   2.205   4.888   1.386
  136ACOH    C1 9985   2.101   4.792   1.197
  136ACOH    H1 9986   2.084   4.884   1.142
  136ACOH    H2 9987   2.011   4.767   1.252
  136ACOH    H3 9988   2.123   4.711   1.127
  137ACOH    H4 9989   1.709   2.303   0.779
  137ACOH    O2 9990   1.652   2.384   0.773
  137ACOH    C2 9991   1.622   2.402   0.643
  137ACOH    O1 9992   1.652   2.328   0.551
  137ACOH    C1 9993   1.542   2.525   0.621
  137ACOH    H1 9994   1.445   2.499   0.580
  137ACOH    H2 9995   1.595   2.589   0.551
  137ACOH    H3 9996   1.528   2.579   0.714
  138ACOH    H4 9997   1.977   4.527   1.392
  138ACOH    O2 9998   1.958   4.480   1.306
  138ACOH    C2 9999   1.842   4.533   1.262
  138ACOH    O110000   1.783   4.630   1.305
  138ACOH    C110001   1.798   4.461   1.139
  138ACOH    H110002   1.779   4.357   1.163
  138ACOH    H210003   1.875   4.467   1.063
  138ACOH    H310004   1.707   4.506   1.101
  139ACOH    H410005   3.031   6.997   2.299
  139ACOH    O210006   3.125   7.022   2.321
  139ACOH    C210007   3.122   7.151   2.359
  139ACOH    O110008   3.024   7.223   2.363
  139ACOH    C110009   3.257   7.198   2.394
  139ACOH    H110010   3.321   7.195   2.307
  139ACOH    H210011   3.299   7.133   2.471
  139ACOH    H310012   3.254   7.300   2.432
  140ACOH    H410013   3.000   6.467   1.224
  140ACOH    O210014   3.050   6.539   1.271
  140ACOH    C210015   3.080   6.494   1.394
  140ACOH    O110016   3.067   6.380   1.436
  140ACOH    C110017   3.148   6.600   1.472
  140ACOH    H110018   3.235   6.635   1.417
  140ACOH    H210019   3.180   6.562   1.569
  140ACOH    H310020   3.080   6.683   1.487
  141ACOH    H410021   4.048   8.507   2.107
  141ACOH    O210022   4.138   8.461   2.107
  141ACOH    C210023   4.133   8.368   2.204
  141ACOH    O110024   4.035   8.328   2.264
  141ACOH    C110025   4.267   8.308   2.226
  141ACOH    H110026   4.262   8.201   2.208
  141ACOH    H210027   4.297   8.325   2.329
  141ACOH    H310028   4.340   8.352   2.160
  142ACOH    H410029   2.956   6.045   0.960
  142ACOH    O210030   2.962   6.032   0.861
  142ACOH    C210031   2.908   6.143   0.806
  142ACOH    O110032   2.849   6.232   0.864
  142ACOH    C110033   2.923   6.139   0.659
  142ACOH    H110034   3.028   6.135   0.633
  142ACOH    H210035   2.879   6.228   0.614
  142ACOH    H310036   2.873   6.051   0.619
  143ACOH    H410037   4.215   0.499   0.940
  143ACOH    O210038   4.297   0.554   0.927
  143ACOH    C210039   4.372   0.485   0.838
  143ACOH    O110040   4.336   0.388   0.773
  143ACOH    C110041   4.505   0.547   0.819
  143ACOH    H110042   4.583   0.473   0.839
  143ACOH    H210043   4.519   0.631   0.886
  143ACOH    H310044   4.516   0.581   0.717
  144ACOH    H410045   4.757   3.546   1.679
  144ACOH    O210046   4.699   3.467   1.661
  144ACOH    C210047   4.736   3.373   1.751
  144ACOH    O110048   4.808   3.389   1.848
  144ACOH    C110049   4.662   3.247   1.728
  144ACOH    H110050   4.556   3.267   1.717
  144ACOH    H210051   4.677   3.177   1.810
  144ACOH    H310052   4.699   3.201   1.637
  145ACOH    H410053   5.093   3.943   1.903
  145ACOH    O210054   5.183   3.902   1.893
  145ACOH    C210055   5.186   3.840   1.774
  145ACOH    O110056   5.096   3.832   1.692
  145ACOH    C110057   5.318   3.778   1.749
  145ACOH    H110058   5.386   3.796   1.832
  145ACOH    H210059   5.362   3.819   1.658
  145ACOH    H310060   5.306   3.670   1.737
  146ACOH    H410061   2.037   7.796   0.765
  146ACOH    O210062   2.067   7.887   0.790
  146ACOH    C210063   2.161   7.921   0.700
  146ACOH    O110064   2.217   7.846   0.622
  146ACOH    C110065   2.207   8.060   0.721
  146ACOH    H110066   2.302   8.061   0.775
  146ACOH    H210067   2.134   8.117   0.778
  146ACOH    H310068   2.222   8.109   0.625
  147ACOH    H410069   2.332   4.137   1.409
  147ACOH    O210070   2.241   4.175   1.417
  147ACOH    C210071   2.160   4.075   1.454
  147ACOH    O110072   2.194   3.962   1.486
  147ACOH    C110073   2.019   4.121   1.461
  147ACOH    H110074   2.011   4.202   1.532
  147ACOH    H210075   1.953   4.040   1.491
  147ACOH    H310076   1.988   4.156   1.363
  148ACOH    H410077   5.101   2.071   1.212
  148ACOH    O210078   5.169   2.024   1.157
  148ACOH    C210079   5.106   1.981   1.046
  148ACOH    O110080   4.987   1.992   1.020
  148ACOH    C110081   5.198   1.906   0.957
  148ACOH    H110082   5.196   1.947   0.857
  148ACOH    H210083   5.168   1.802   0.953
  148ACOH    H310084   5.300   1.913   0.994
  149ACOH    H410085   4.046   9.386   2.062
  149ACOH    O210086   4.140   9.403   2.035
  149ACOH    C210087   4.213   9.416   2.147
  149ACOH    O110088   4.175   9.400   2.262
  149ACOH    C110089   4.354   9.447   2.113
  149ACOH    H110090   4.415   9.452   2.202
  149ACOH    H210091   4.358   9.543   2.062
  149ACOH    H310092   4.392   9.370   2.047
  150ACOH    H410093   5.147   2.857   1.833
  150ACOH    O210094   5.162   2.918   1.755
  150ACOH    C210095   5.046   2.982   1.733
  150ACOH    O110096   4.939   2.964   1.789
  150ACOH    C110097   5.059   3.079   1.621
  150ACOH    H110098   5.017   3.175   1.651
  150ACOH    H210099   5.005   3.042   1.534
  150ACOH    H310100   5.163   3.093   1.595
  151ACOH    H410101   3.272   7.694   0.388
  151ACOH    O210102   3.369   7.682   0.370
  151ACOH    C210103   3.426   7.649   0.488
  151ACOH    O110104   3.370   7.626   0.593
  151ACOH    C110105   3.573   7.632   0.473
  151ACOH    H110106   3.617   7.726   0.440
  151ACOH    H210107   3.594   7.555   0.400
  151ACOH    H310108   3.618   7.605   0.568
  152ACOH    H410109   3.731   7.738   0.206
  152ACOH    O210110   3.755   7.642   0.188
  152ACOH    C210111   3.863   7.616   0.264
  152ACOH    O110112   3.921   7.693   0.338
  152ACOH    C110113   3.906   7.475   0.244
  152ACOH    H110114   3.990   7.452   0.308
  152ACOH    H210115   3.935   7.461   0.140
  152ACOH    H310116   3.824   7.408   0.267
  153ACOH    H410117   2.419   5.305   1.123
  153ACOH    O210118   2.379   5.273   1.208
  153ACOH    C210119   2.256   5.328   1.216
  153ACOH    O110120   2.203   5.401   1.134
  153ACOH    C110121   2.186   5.286   1.340
  153ACOH    H110122   2.095   5.233   1.314
  153ACOH    H210123   2.161   5.373   1.399
  153ACOH    H310124   2.249   5.220   1.399
  154ACOH    H410125   2.384   1.455   2.096
  154ACOH    O210126   2.341   1.545   2.085
  154ACOH    C210127   2.333   1.593   2.210
  154ACOH    O110128   2.425   1.591   2.290
  154ACOH    C110129   2.229   1.699   2.218
  154ACOH    H110130   2.276   1.796   2.206
  154ACOH    H210131   2.180   1.694   2.315
  154ACOH    H310132   2.155   1.685   2.140
  155ACOH    H410133   4.039   8.965   1.869
  155ACOH    O210134   4.117   9.022   1.893
  155ACOH    C210135   4.157   8.984   2.016
  155ACOH    O110136   4.100   8.905   2.089
  155ACOH    C110137   4.272   9.065   2.063
  155ACOH    H110138   4.243   9.121   2.151
  155ACOH    H210139   4.304   9.134   1.986
  155ACOH    H310140   4.354   8.998   2.088
  156ACOH    H410141   4.499   4.979   0.888
  156ACOH    O210142   4.589   5.015   0.867
  156ACOH    C210143   4.582   5.072   0.746
  156ACOH    O110144   4.484   5.082   0.674
  156ACOH    C110145   4.715   5.125   0.708
  156ACOH    H110146   4.744   5.203   0.777
  156ACOH    H210147   4.714   5.164   0.607
  156ACOH    H310148   4.788   5.044   0.714
  157ACOH    H410149   3.378   8.281   1.466
  157ACOH    O210150   3.357   8.185   1.448
  157ACOH    C210151   3.335   8.125   1.566
  157ACOH    O110152   3.310   8.179   1.673
  157ACOH    C110153   3.323   7.978   1.548
  157ACOH    H110154   3.418   7.939   1.513
  157ACOH    H210155   3.247   7.957   1.473
  157ACOH    H310156   3.297   7.928   1.640
  158ACOH    H410157   3.048   5.649   1.294
  158ACOH    O210158   3.104   5.625   1.375
  158ACOH    C210159   3.110   5.738   1.448
  158ACOH    O110160   3.080   5.851   1.415
  158ACOH    C110161   3.179   5.711   1.577
  158ACOH    H110162   3.203   5.804   1.628
  158ACOH    H210163   3.269   5.655   1.558
  158ACOH    H310164   3.114   5.652   1.641
  159ACOH    H410165   4.409   8.328   0.949
  159ACOH    O210166   4.451   8.239   0.955
  159ACOH    C210167   4.391   8.161   0.863
  159ACOH    O110168   4.301   8.191   0.787
  159ACOH    C110169   4.452   8.025   0.861
  159ACOH    H110170   4.523   8.014   0.943
  159ACOH    H210171   4.504   8.011   0.767
  159ACOH    H310172   4.374   7.950   0.871
  160ACOH    H410173   1.978   0.398   2.107
  160ACOH    O210174   1.962   0.413   2.205
  160ACOH    C210175   1.974   0.546   2.223
  160ACOH    O110176   2.019   0.627   2.144
  160ACOH    C110177   1.929   0.584   2.358
  160ACOH    H110178   1.983   0.527   2.433
  160ACOH    H210179   1.822   0.563   2.368
  160ACOH    H310180   1.945   0.691   2.376
  161ACOH    H410181   5.582   4.006   0.393
  161ACOH    O210182   5.567   3.911   0.419
  161ACOH    C210183   5.621   3.893   0.541
  161ACOH    O110184   5.679   3.976   0.609
  161ACOH    C110185   5.604   3.753   0.584
  161ACOH    H110186   5.498   3.729   0.589
  161ACOH    H210187   5.649   3.737   0.682
  161ACOH    H310188   5.652   3.687   0.512
  162ACOH    H410189   4.009   8.763   1.810
  162ACOH    O210190   4.072   8.687   1.801
  162ACOH    C210191   4.004   8.590   1.739
  162ACOH    O110192   3.902   8.604   1.673
  162ACOH    C110193   4.082   8.463   1.739
  162ACOH    H110194   4.094   8.429   1.841
  162ACOH    H210195   4.180   8.481   1.696
  162ACOH    H310196   4.031   8.386   1.681
  163ACOH    H410197   5.716   3.393   1.456
  163ACOH    O210198   5.785   3.463   1.473
  163ACOH    C210199   5.721   3.580   1.482
  163ACOH    O110200   5.603   3.601   1.463
  163ACOH    C110201   5.816   3.691   1.508
  163ACOH    H110202   5.823   3.754   1.419
  163ACOH    H210203   5.915   3.652   1.532
  163ACOH    H310204   5.781   3.751   1.591
  164ACOH    H410205   4.005   5.546   1.303
  164ACOH    O210206   4.085   5.604   1.315
  164ACOH    C210207   4.141   5.569   1.432
  164ACOH    O110208   4.094   5.494   1.516
  164ACOH    C110209   4.269   5.641   1.453
  164ACOH    H110210   4.250   5.748   1.450
  164ACOH    H210211   4.338   5.615   1.373
  164ACOH    H310212   4.313   5.615   1.548
  165ACOH    H410213   4.914   4.262   2.240
  165ACOH    O210214   5.000   4.273   2.290
  165ACOH    C210215   4.974   4.353   2.394
  165ACOH    O110216   4.872   4.418   2.413
  165ACOH    C110217   5.092   4.360   2.484
  165ACOH    H110218   5.073   4.425   2.568
  165ACOH    H210219   5.177   4.396   2.428
  165ACOH    H310220   5.114   4.260   2.520
  166ACOH    H410221   5.867   3.288   0.985
  166ACOH    O210222   5.952   3.264   0.939
  166ACOH    C210223   5.921   3.242   0.810
  166ACOH    O110224   5.812   3.251   0.757
  166ACOH    C110225   6.042   3.202   0.734
  166ACOH    H110226   6.114   3.282   0.737
  166ACOH    H210227   6.017   3.179   0.631
  166ACOH    H310228   6.086   3.114   0.780
  167ACOH    H410229   5.338   2.140   0.782
  167ACOH    O210230   5.392   2.153   0.865
  167ACOH    C210231   5.321   2.231   0.949
  167ACOH    O110232   5.214   2.285   0.928
  167ACOH    C110233   5.397   2.250   1.075
  167ACOH    H110234   5.495   2.289   1.053
  167ACOH    H210235   5.407   2.154   1.125
  167ACOH    H310236   5.345   2.318   1.141
  168ACOH    H410237   1.927   8.068   1.248
  168ACOH    O210238   1.902   8.164   1.242
  168ACOH    C210239   1.940   8.222   1.357
  168ACOH    O110240   1.975   8.164   1.459
  168ACOH    C110241   1.925   8.369   1.350
  168ACOH    H110242   1.992   8.408   1.273
  168ACOH    H210243   1.949   8.415   1.445
  168ACOH    H310244   1.822   8.394   1.323
  169ACOH    H410245   2.077   1.337   2.247
  169ACOH    O210246   2.106   1.415   2.302
  169ACOH    C210247   2.083   1.379   2.430
  169ACOH    O110248   2.028   1.278   2.469
  169ACOH    C110249   2.129   1.485   2.523
  169ACOH    H110250   2.075   1.577   2.501
  169ACOH    H210251   2.235   1.502   2.509
  169ACOH    H310252   2.111   1.456   2.626
  170ACOH    H410253   4.538   4.332   1.754
  170ACOH    O210254   4.596   4.334   1.675
  170ACOH    C210255   4.523   4.373   1.569
  170ACOH    O110256   4.404   4.400   1.567
  170ACOH    C110257   4.604   4.373   1.445
  170ACOH    H110258   4.593   4.469   1.395
  170ACOH    H210259   4.571   4.294   1.379
  170ACOH    H310260   4.709   4.358   1.468
  171ACOH    H410261   4.332   0.979   2.183
  171ACOH    O210262   4.426   1.013   2.189
  171ACOH    C210263   4.477   1.010   2.064
  171ACOH    O110264   4.417   0.986   1.961
  171ACOH    C110265   4.618   1.055   2.065
  171ACOH    H110266   4.658   1.059   1.964
  171ACOH    H210267   4.678   0.986   2.125
  171ACOH    H310268   4.625   1.154   2.110
  172ACOH    H410269   5.807   4.079   0.656
  172ACOH    O210270   5.889   4.129   0.678
  172ACOH    C210271   5.902   4.225   0.585
  172ACOH    O110272   5.820   4.257   0.499
  172ACOH    C110273   6.031   4.295   0.602
  172ACOH    H110274   6.043   4.374   0.528
  172ACOH    H210275   6.112   4.224   0.592
  172ACOH    H310276   6.035   4.338   0.702
  173ACOH    H410277   3.583   7.300   0.658
  173ACOH    O210278   3.674   7.266   0.678
  173ACOH    C210279   3.733   7.239   0.560
  173ACOH    O110280   3.696   7.275   0.450
  173ACOH    C110281   3.863   7.169   0.580
  173ACOH    H110282   3.865   7.079   0.519
  173ACOH    H210283   3.875   7.141   0.684
  173ACOH    H310284   3.944   7.234   0.550
  174ACOH    H410285   2.840   9.440   2.297
  174ACOH    O210286   2.917   9.432   2.360
  174ACOH    C210287   3.028   9.463   2.290
  174ACOH    O110288   3.033   9.509   2.178
  174ACOH    C110289   3.151   9.446   2.371
  174ACOH    H110290   3.220   9.380   2.319
  174ACOH    H210291   3.127   9.401   2.467
  174ACOH    H310292   3.198   9.542   2.388
  175ACOH    H410293   1.863   0.508   0.539
  175ACOH    O210294   1.832   0.438   0.475
  175ACOH    C210295   1.761   0.502   0.381
  175ACOH    O110296   1.719   0.616   0.386
  175ACOH    C110297   1.719   0.409   0.272
  175ACOH    H110298   1.749   0.450   0.176
  175ACOH    H210299   1.611   0.397   0.274
  175ACOH    H310300   1.765   0.312   0.285
  176ACOH    H410301   4.493   8.870   0.432
  176ACOH    O210302   4.514   8.808   0.357
  176ACOH    C210303   4.435   8.699   0.373
  176ACOH    O110304   4.371   8.673   0.473
  176ACOH    C110305   4.455   8.601   0.265
  176ACOH    H110306   4.358   8.569   0.227
  176ACOH    H210307   4.508   8.514   0.303
  176ACOH    H310308   4.512   8.645   0.183
  177ACOH    H410309   3.101   6.670   2.022
  177ACOH    O210310   3.189   6.636   1.989
  177ACOH    C210311   3.224   6.533   2.067
  177ACOH    O110312   3.167   6.494   2.167
  177ACOH    C110313   3.351   6.472   2.019
  177ACOH    H110314   3.427   6.549   2.012
  177ACOH    H210315   3.334   6.429   1.921
  177ACOH    H310316   3.384   6.394   2.087
  178ACOH    H410317   2.759   6.650   1.062
  178ACOH    O210318   2.855   6.677   1.061
  178ACOH    C210319   2.909   6.625   0.949
  178ACOH    O110320   2.849   6.588   0.850
  178ACOH    C110321   3.056   6.642   0.950
  178ACOH    H110322   3.100   6.576   1.025
  178ACOH    H210323   3.081   6.745   0.975
  178ACOH    H310324   3.099   6.618   0.853
  179ACOH    H410325   5.130   3.761   2.518
  179ACOH    O210326   5.150   3.772   2.422
  179ACOH    C210327   5.188   3.900   2.404
  179ACOH    O110328   5.187   3.988   2.488
  179ACOH    C110329   5.233   3.925   2.265
  179ACOH    H110330   5.227   3.834   2.206
  179ACOH    H210331   5.336   3.959   2.266
  179ACOH    H310332   5.171   4.001   2.219
  180ACOH    H410333   1.805   1.538   1.626
  180ACOH    O210334   1.725   1.494   1.664
  180ACOH    C210335   1.703   1.383   1.591
  180ACOH    O110336   1.778   1.335   1.508
  180ACOH    C110337   1.579   1.314   1.633
  180ACOH    H110338   1.515   1.298   1.546
  180ACOH    H210339   1.525   1.373   1.707
  180ACOH    H310340   1.604   1.217   1.677
  181ACOH    H410341   3.666   5.572   2.039
  181ACOH    O210342   3.742   5.507   2.039
  181ACOH    C210343   3.727   5.435   2.152
  181ACOH    O110344   3.625   5.421   2.215
  181ACOH    C110345   3.847   5.351   2.177
  181ACOH    H110346   3.934   5.415   2.190
  181ACOH    H210347   3.864   5.285   2.093
  181ACOH    H310348   3.834   5.291   2.266
  182ACOH    H410349   5.083   1.351   0.046
  182ACOH    O210350   5.108   1.296   0.126
  182ACOH    C210351   5.018   1.317   0.224
  182ACOH    O110352   4.925   1.395   0.225
  182ACOH    C110353   5.054   1.235   0.341
  182ACOH    H110354   5.154   1.262   0.375
  182ACOH    H210355   5.054   1.130   0.313
  182ACOH    H310356   4.983   1.250   0.423
  183ACOH    H410357   3.931   8.208   0.343
  183ACOH    O210358   3.936   8.117   0.304
  183ACOH    C210359   3.960   8.131   0.172
  183ACOH    O110360   3.959   8.234   0.108
  183ACOH    C110361   3.981   7.999   0.106
  183ACOH    H110362   3.903   7.983   0.033
  183ACOH    H210363   3.979   7.919   0.179
  183ACOH    H310364   4.077   7.998   0.055
  184SOL     OW10365   3.034   2.657   1.353
  184SOL    HW110366   3.127   2.690   1.371
  184SOL    HW210367   3.016   2.577   1.411
  185SOL     OW10368   2.769   1.776   1.576
  185SOL    HW110369   2.787   1.873   1.559
  185SOL    HW210370   2.759   1.761   1.675
  186SOL     OW10371   2.981   4.120   1.505
  186SOL    HW110372   2.971   4.055   1.581
  186SOL    HW210373   3.045   4.083   1.438
  187SOL     OW10374   2.251   6.300   0.708
  187SOL    HW110375   2.216   6.286   0.801
  187SOL    HW210376   2.320   6.231   0.688
  188SOL     OW10377   3.532   8.581   2.268
  188SOL    HW110378   3.589   8.558   2.346
  188SOL    HW210379   3.575   8.549   2.184
  189SOL     OW10380   2.702   0.944   1.913
  189SOL    HW110381   2.754   1.020   1.953
  189SOL    HW210382   2.606   0.971   1.902
  190SOL     OW10383   3.560   3.701   0.854
  190SOL    HW110384   3.543   3.674   0.759
  190SOL    HW210385   3.552   3.800   0.862
  191SOL     OW10386   3.912   0.343   0.564
  191SOL    HW110387   3.943   0.434   0.537
  191SOL    HW210388   3.990   0.291   0.601
  192SOL     OW10389   3.373   8.505   0.625
  192SOL    HW110390   3.289   8.467   0.664
  192SOL    HW210391   3.396   8.456   0.540
  193SOL     OW10392   3.163   1.291   1.539
  193SOL    HW110393   3.122   1.232   1.469
  193SOL    HW210394   3.103   1.294   1.619
  194SOL     OW10395   3.623   0.851   0.637
  194SOL    HW110396   3.541   0.872   0.584
  194SOL    HW210397   3.663   0.766   0.603
  195SOL     OW10398   3.923   3.520   0.626
  195SOL    HW110399   3.952   3.431   0.590
  195SOL    HW210400   3.974   3.539   0.711
  196SOL     OW10401   2.703   9.201   0.550
  196SOL    HW110402   2.617   9.246   0.528
  196SOL    HW210403   2.747   9.247   0.627
  197SOL     OW10404   2.494   8.902   1.029
  197SOL    HW110405   2.417   8.847   0.995
  197SOL    HW210406   2.515   8.876   1.123
  198SOL     OW10407   3.180   5.049   0.631
  198SOL    HW110408   3.132   4.989   0.567
  198SOL    HW210409   3.169   5.144   0.601
  199SOL     OW10410   3.435   3.048   1.551
  199SOL    HW110411   3.467   3.049   1.457
  199SOL    HW210412   3.369   3.122   1.565
  200SOL     OW10413   1.912   2.241   1.392
  200SOL    HW110414   1.827   2.271   1.434
  200SOL    HW210415   1.927   2.144   1.413
  201SOL     OW10416   2.450   6.113   0.654
  201SOL    HW110417   2.405   6.024   0.666
  201SOL    HW210418   2.489   6.119   0.562
  202SOL     OW10419   2.132   9.872   1.748
  202SOL    HW110420   2.212   9.824   1.710
  202SOL    HW210421   2.071   9.899   1.673
  203SOL     OW10422   4.115   1.771   1.918
  203SOL    HW110423   4.161   1.847   1.965
  203SOL    HW210424   4.035   1.805   1.870
  204SOL     OW10425   3.724   1.254   1.851
  204SOL    HW110426   3.818   1.262   1.818
  204SOL    HW210427   3.715   1.172   1.908
  205SOL     OW10428   3.664   0.307   0.418
  205SOL    HW110429   3.687   0.288   0.322
  205SOL    HW210430   3.748   0.316   0.471
  206SOL     OW10431   4.393   1.871   1.663
  206SOL    HW110432   4.330   1.938   1.623
  206SOL    HW210433   4.432   1.907   1.747
  207SOL     OW10434   2.672   7.741   1.217
  207SOL    HW110435   2.660   7.835   1.249
  207SOL    HW210436   2.749   7.699   1.265
  208SOL     OW10437   3.169   2.278   2.227
  208SOL    HW110438   3.244   2.337   2.257
  208SOL    HW210439   3.153   2.292   2.129
  209SOL     OW10440   2.511   5.503   0.776
  209SOL    HW110441   2.479   5.430   0.715
  209SOL    HW210442   2.444   5.576   0.778
  210SOL     OW10443   4.745   3.134   1.062
  210SOL    HW110444   4.764   3.181   0.976
  210SOL    HW210445   4.808   3.057   1.072
  211SOL     OW10446   2.434   8.033   1.022
  211SOL    HW110447   2.489   8.114   0.999
  211SOL    HW210448   2.475   7.952   0.980
  212SOL     OW10449   2.558   2.721   1.237
  212SOL    HW110450   2.652   2.755   1.246
  212SOL    HW210451   2.528   2.732   1.142
  213SOL     OW10452   3.803   5.574   0.470
  213SOL    HW110453   3.846   5.664   0.461
  213SOL    HW210454   3.862   5.514   0.523
  214SOL     OW10455   3.064   9.332   1.359
  214SOL    HW110456   3.093   9.411   1.413
  214SOL    HW210457   3.125   9.255   1.377
  215SOL     OW10458   3.238   4.793   1.212
  215SOL    HW110459   3.228   4.725   1.139
  215SOL    HW210460   3.231   4.885   1.173
  216SOL     OW10461   4.585   2.811   0.382
  216SOL    HW110462   4.538   2.802   0.294
  216SOL    HW210463   4.671   2.860   0.369
  217SOL     OW10464   3.029   3.367   1.122
  217SOL    HW110465   2.937   3.377   1.084
  217SOL    HW210466   3.075   3.455   1.121
  218SOL     OW10467   4.011   0.849   0.362
  218SOL    HW110468   3.929   0.887   0.319
  218SOL    HW210469   4.032   0.901   0.445
  219SOL     OW10470   3.795   1.777   0.874
  219SOL    HW110471   3.841   1.721   0.943
  219SOL    HW210472   3.825   1.872   0.883
  220SOL     OW10473   2.003   1.335   1.327
  220SOL    HW110474   2.018   1.242   1.294
  220SOL    HW210475   1.924   1.335   1.389
  221SOL     OW10476   4.762   4.502   0.832
  221SOL    HW110477   4.764   4.597   0.863
  221SOL    HW210478   4.678   4.459   0.863
  222SOL     OW10479   4.534   1.807   2.134
  222SOL    HW110480   4.594   1.731   2.108
  222SOL    HW210481   4.449   1.771   2.171
  223SOL     OW10482   2.975   3.947   1.712
  223SOL    HW110483   2.945   3.992   1.796
  223SOL    HW210484   3.074   3.933   1.716
  224SOL     OW10485   4.049   1.000   0.589
  224SOL    HW110486   4.107   1.074   0.555
  224SOL    HW210487   3.975   1.038   0.644
  225SOL     OW10488   3.489   3.649   1.681
  225SOL    HW110489   3.494   3.550   1.674
  225SOL    HW210490   3.517   3.690   1.594
  226SOL     OW10491   3.473   0.515   1.479
  226SOL    HW110492   3.516   0.430   1.508
  226SOL    HW210493   3.374   0.506   1.485
  227SOL     OW10494   2.492   3.338   2.085
  227SOL    HW110495   2.421   3.285   2.129
  227SOL    HW210496   2.569   3.350   2.148
  228SOL     OW10497   2.036   1.077   1.245
  228SOL    HW110498   2.112   1.019   1.273
  228SOL    HW210499   2.048   1.106   1.150
  229SOL     OW10500   3.716   2.640   1.903
  229SOL    HW110501   3.666   2.590   1.832
  229SOL    HW210502   3.793   2.688   1.862
  230SOL     OW10503   2.551   7.585   0.356
  230SOL    HW110504   2.504   7.497   0.363
  230SOL    HW210505   2.484   7.658   0.348
  231SOL     OW10506   2.583   7.064   0.668
  231SOL    HW110507   2.488   7.078   0.695
  231SOL    HW210508   2.635   7.026   0.744
  232SOL     OW10509   4.230   2.371   0.793
  232SOL    HW110510   4.216   2.461   0.752
  232SOL    HW210511   4.328   2.351   0.797
  233SOL     OW10512   3.719   0.613   0.546
  233SOL    HW110513   3.687   0.553   0.619
  233SOL    HW210514   3.819   0.605   0.537
  234SOL     OW10515   3.536   2.283   0.232
  234SOL    HW110516   3.502   2.333   0.312
  234SOL    HW210517   3.580   2.198   0.262
  235SOL     OW10518   3.854   8.924   2.234
  235SOL    HW110519   3.936   8.896   2.184
  235SOL    HW210520   3.876   8.999   2.296
  236SOL     OW10521   2.848   6.241   2.071
  236SOL    HW110522   2.878   6.302   2.145
  236SOL    HW210523   2.776   6.180   2.104
  237SOL     OW10524   2.023   2.797   2.096
  237SOL    HW110525   2.028   2.775   1.998
  237SOL    HW210526   1.940   2.849   2.115
  238SOL     OW10527   2.527   3.230   0.681
  238SOL    HW110528   2.554   3.134   0.686
  238SOL    HW210529   2.575   3.274   0.605
  239SOL     OW10530   2.934   9.024   1.472
  239SOL    HW110531   2.886   9.092   1.417
  239SOL    HW210532   3.033   9.040   1.467
  240SOL     OW10533   2.970   6.895   1.256
  240SOL    HW110534   2.959   6.797   1.240
  240SOL    HW210535   2.962   6.944   1.169
  241SOL     OW10536   2.615   1.513   1.110
  241SOL    HW110537   2.536   1.550   1.061
  241SOL    HW210538   2.688   1.581   1.113
  242SOL     OW10539   3.983   3.079   0.357
  242SOL    HW110540   4.042   3.004   0.387
  242SOL    HW210541   3.993   3.156   0.419
  243SOL     OW10542   4.762   3.095   1.412
  243SOL    HW110543   4.666   3.122   1.403
  243SOL    HW210544   4.816   3.176   1.434
  244SOL     OW10545   2.540   6.492   2.030
  244SOL    HW110546   2.453   6.529   2.064
  244SOL    HW210547   2.530   6.468   1.933
  245SOL     OW10548   2.712   2.917   0.938
  245SOL    HW110549   2.811   2.914   0.924
  245SOL    HW210550   2.690   2.979   1.013
  246SOL     OW10551   2.005   9.907   2.328
  246SOL    HW110552   1.968   9.977   2.267
  246SOL    HW210553   2.077   9.946   2.385
  247SOL     OW10554   4.106   0.755   0.704
  247SOL    HW110555   4.081   0.847   0.673
  247SOL    HW210556   4.204   0.740   0.690
  248SOL     OW10557   4.098   4.358   0.585
  248SOL    HW110558   4.109   4.457   0.574
  248SOL    HW210559   4.015   4.340   0.638
  249SOL     OW10560   2.593   7.304   1.454
  249SOL    HW110561   2.497   7.330   1.464
  249SOL    HW210562   2.601   7.204   1.457
  250SOL     OW10563   2.070   1.832   1.664
  250SOL    HW110564   2.031   1.854   1.754
  250SOL    HW210565   2.169   1.836   1.669
  251SOL     OW10566   2.734   8.938   0.478
  251SOL    HW110567   2.644   8.895   0.479
  251SOL    HW210568   2.725   9.035   0.502
  252SOL     OW10569   3.406   5.053   0.302
  252SOL    HW110570   3.354   5.099   0.230
  252SOL    HW210571   3.504   5.065   0.285
  253SOL     OW10572   2.651   5.115   0.956
  253SOL    HW110573   2.726   5.101   1.020
  253SOL    HW210574   2.634   5.030   0.906
  254SOL     OW10575   2.374   0.308   2.179
  254SOL    HW110576   2.306   0.246   2.219
  254SOL    HW210577   2.459   0.302   2.230
  255SOL     OW10578   3.140   9.169   0.390
  255SOL    HW110579   3.123   9.218   0.475
  255SOL    HW210580   3.072   9.197   0.322
  256SOL     OW10581   4.772   1.614   1.062
  256SOL    HW110582   4.808   1.565   1.142
  256SOL    HW210583   4.672   1.613   1.064
  257SOL     OW10584   4.312   2.100   2.283
  257SOL    HW110585   4.257   2.088   2.366
  257SOL    HW210586   4.405   2.067   2.300
  258SOL     OW10587   2.558   4.021   0.986
  258SOL    HW110588   2.560   4.088   1.060
  258SOL    HW210589   2.496   3.947   1.009
  259SOL     OW10590   2.662   1.762   2.266
  259SOL    HW110591   2.630   1.836   2.207
  259SOL    HW210592   2.583   1.712   2.301
  260SOL     OW10593   2.381   8.013   1.691
  260SOL    HW110594   2.357   8.093   1.747
  260SOL    HW210595   2.374   7.931   1.747
  261SOL     OW10596   2.379   2.488   2.300
  261SOL    HW110597   2.367   2.399   2.257
  261SOL    HW210598   2.414   2.476   2.393
  262SOL     OW10599   2.722   6.693   1.981
  262SOL    HW110600   2.728   6.706   1.882
  262SOL    HW210601   2.670   6.610   2.001
  263SOL     OW10602   4.315   4.297   1.297
  263SOL    HW110603   4.320   4.333   1.390
  263SOL    HW210604   4.220   4.297   1.267
  264SOL     OW10605   3.661   0.824   1.108
  264SOL    HW110606   3.645   0.778   1.195
  264SOL    HW210607   3.574   0.852   1.068
  265SOL     OW10608   3.495   1.562   0.464
  265SOL    HW110609   3.516   1.468   0.436
  265SOL    HW210610   3.401   1.584   0.441
  266SOL     OW10611   4.760   2.093   1.450
  266SOL    HW110612   4.698   2.158   1.406
  266SOL    HW210613   4.767   2.114   1.548
  267SOL     OW10614   2.117   6.788   1.277
  267SOL    HW110615   2.170   6.872   1.288
  267SOL    HW210616   2.037   6.806   1.220
  268SOL     OW10617   3.502   3.041   1.282
  268SOL    HW110618   3.573   2.974   1.259
  268SOL    HW210619   3.416   3.013   1.239
  269SOL     OW10620   2.831   5.919   2.242
  269SOL    HW110621   2.758   5.987   2.234
  269SOL    HW210622   2.918   5.966   2.254
  270SOL     OW10623   3.687   0.705   0.860
  270SOL    HW110624   3.665   0.777   0.794
  270SOL    HW210625   3.682   0.742   0.953
  271SOL     OW10626   2.610   9.455   0.332
  271SOL    HW110627   2.557   9.427   0.412
  271SOL    HW210628   2.556   9.522   0.280
  272SOL     OW10629   1.973   5.820   0.532
  272SOL    HW110630   1.952   5.737   0.583
  272SOL    HW210631   2.022   5.797   0.448
  273SOL     OW10632   2.195   2.958   1.563
  273SOL    HW110633   2.158   2.933   1.473
  273SOL    HW210634   2.294   2.973   1.556
  274SOL     OW10635   3.498   5.091   1.656
  274SOL    HW110636   3.433   5.016   1.658
  274SOL    HW210637   3.457   5.170   1.610
  275SOL     OW10638   3.670   2.441   0.643
  275SOL    HW110639   3.770   2.446   0.644
  275SOL    HW210640   3.632   2.533   0.654
  276SOL     OW10641   3.642   5.131   1.890
  276SOL    HW110642   3.587   5.114   1.807
  276SOL    HW210643   3.711   5.200   1.870
  277SOL     OW10644   2.195   3.528   1.134
  277SOL    HW110645   2.119   3.547   1.072
  277SOL    HW210646   2.191   3.590   1.212
  278SOL     OW10647   3.649   8.136   1.662
  278SOL    HW110648   3.653   8.051   1.609
  278SOL    HW210649   3.690   8.210   1.609
  279SOL     OW10650   4.408   1.369   1.794
  279SOL    HW110651   4.371   1.460   1.778
  279SOL    HW210652   4.505   1.376   1.817
  280SOL     OW10653   3.700   2.328   1.229
  280SOL    HW110654   3.638   2.294   1.300
  280SOL    HW210655   3.673   2.421   1.203
  281SOL     OW10656   2.803   4.674   2.308
  281SOL    HW110657   2.804   4.691   2.407
  281SOL    HW210658   2.880   4.722   2.266
  282SOL     OW10659   5.016   1.647   0.650
  282SOL    HW110660   5.026   1.589   0.730
  282SOL    HW210661   4.932   1.701   0.658
  283SOL     OW10662   2.894   2.669   2.042
  283SOL    HW110663   2.803   2.646   2.010
  283SOL    HW210664   2.963   2.623   1.986
  284SOL     OW10665   2.984   8.732   1.181
  284SOL    HW110666   3.043   8.682   1.117
  284SOL    HW210667   2.901   8.679   1.199
  285SOL     OW10668   3.523   3.743   1.196
  285SOL    HW110669   3.451   3.795   1.150
  285SOL    HW210670   3.515   3.646   1.172
  286SOL     OW10671   3.099   3.066   2.154
  286SOL    HW110672   3.173   3.022   2.205
  286SOL    HW210673   3.076   3.010   2.074
  287SOL     OW10674   4.278   1.382   2.126
  287SOL    HW110675   4.214   1.459   2.122
  287SOL    HW210676   4.267   1.325   2.045
  288SOL     OW10677   2.178   9.736   2.184
  288SOL    HW110678   2.108   9.772   2.245
  288SOL    HW210679   2.245   9.684   2.238
  289SOL     OW10680   3.594   4.359   2.239
  289SOL    HW110681   3.541   4.428   2.189
  289SOL    HW210682   3.573   4.365   2.337
  290SOL     OW10683   3.273   2.934   1.172
  290SOL    HW110684   3.270   2.846   1.124
  290SOL    HW210685   3.200   2.993   1.137
  291SOL     OW10686   2.209   8.879   0.725
  291SOL    HW110687   2.225   8.797   0.669
  291SOL    HW210688   2.277   8.948   0.702
  292SOL     OW10689   5.145   4.057   0.421
  292SOL    HW110690   5.148   4.096   0.513
  292SOL    HW210691   5.189   3.967   0.421
  293SOL     OW10692   5.284   2.556   0.330
  293SOL    HW110693   5.293   2.652   0.358
  293SOL    HW210694   5.215   2.511   0.386
  294SOL     OW10695   3.217   8.731   1.570
  294SOL    HW110696   3.195   8.767   1.661
  294SOL    HW210697   3.316   8.735   1.555
  295SOL     OW10698   2.717   5.912   0.385
  295SOL    HW110699   2.658   5.993   0.389
  295SOL    HW210700   2.667   5.834   0.422
  296SOL     OW10701   1.752   3.660   0.306
  296SOL    HW110702   1.704   3.695   0.225
  296SOL    HW210703   1.837   3.615   0.277
  297SOL     OW10704   1.977   9.007   2.216
  297SOL    HW110705   1.930   9.095   2.224
  297SOL    HW210706   1.920   8.935   2.253
  298SOL     OW10707   3.610   3.297   1.275
  298SOL    HW110708   3.569   3.206   1.276
  298SOL    HW210709   3.547   3.363   1.233
  299SOL     OW10710   3.318   3.549   0.376
  299SOL    HW110711   3.258   3.621   0.342
  299SOL    HW210712   3.304   3.466   0.321
  300SOL     OW10713   2.044   1.686   0.353
  300SOL    HW110714   2.143   1.688   0.336
  300SOL    HW210715   2.025   1.723   0.444
  301SOL     OW10716   2.848   8.139   1.168
  301SOL    HW110717   2.936   8.104   1.200
  301SOL    HW210718   2.852   8.150   1.068
  302SOL     OW10719   2.431   0.519   2.001
  302SOL    HW110720   2.385   0.456   2.063
  302SOL    HW210721   2.529   0.500   1.999
  303SOL     OW10722   3.854   3.743   0.477
  303SOL    HW110723   3.872   3.659   0.528
  303SOL    HW210724   3.935   3.767   0.423
  304SOL     OW10725   3.825   4.097   0.719
  304SOL    HW110726   3.833   4.197   0.718
  304SOL    HW210727   3.895   4.059   0.779
  305SOL     OW10728   2.470   9.369   0.546
  305SOL    HW110729   2.476   9.336   0.640
  305SOL    HW210730   2.386   9.423   0.535
  306SOL     OW10731   3.309   2.940   2.277
  306SOL    HW110732   3.314   2.934   2.376
  306SOL    HW210733   3.390   2.986   2.242
  307SOL     OW10734   4.439   2.961   1.622
  307SOL    HW110735   4.523   2.927   1.664
  307SOL    HW210736   4.375   2.989   1.694
  308SOL     OW10737   4.074   0.868   1.926
  308SOL    HW110738   4.149   0.836   1.869
  308SOL    HW210739   3.997   0.895   1.868
  309SOL     OW10740   2.103   0.298   1.722
  309SOL    HW110741   2.128   0.274   1.629
  309SOL    HW210742   2.134   0.227   1.785
  310SOL     OW10743   3.654   3.454   0.651
  310SOL    HW110744   3.745   3.495   0.656
  310SOL    HW210745   3.657   3.373   0.592
  311SOL     OW10746   2.081   2.787   0.667
  311SOL    HW110747   2.055   2.848   0.592
  311SOL    HW210748   2.091   2.841   0.751
  312SOL     OW10749   3.017   2.672   0.918
  312SOL    HW110750   3.036   2.591   0.863
  312SOL    HW210751   2.935   2.656   0.974
  313SOL     OW10752   3.301   3.322   0.557
  313SOL    HW110753   3.235   3.357   0.623
  313SOL    HW210754   3.343   3.398   0.508
  314SOL     OW10755   2.832   4.729   0.764
  314SOL    HW110756   2.752   4.784   0.791
  314SOL    HW210757   2.891   4.715   0.843
  315SOL     OW10758   3.037   7.559   2.070
  315SOL    HW110759   3.025   7.645   2.020
  315SOL    HW210760   3.105   7.571   2.142
  316SOL     OW10761   3.374   1.102   0.403
  316SOL    HW110762   3.409   1.009   0.412
  316SOL    HW210763   3.284   1.100   0.358
  317SOL     OW10764   2.930   8.940   1.734
  317SOL    HW110765   3.022   8.909   1.757
  317SOL    HW210766   2.929   8.968   1.638
  318SOL     OW10767   2.891   7.642   1.342
  318SOL    HW110768   2.878   7.679   1.434
  318SOL    HW210769   2.974   7.681   1.302
  319SOL     OW10770   3.989   9.550   0.383
  319SOL    HW110771   3.977   9.647   0.406
  319SOL    HW210772   3.982   9.495   0.466
  320SOL     OW10773   5.138   3.736   1.405
  320SOL    HW110774   5.092   3.764   1.321
  320SOL    HW210775   5.117   3.801   1.478
  321SOL     OW10776   4.928   2.928   1.072
  321SOL    HW110777   5.010   2.961   1.119
  321SOL    HW210778   4.908   2.834   1.101
  322SOL     OW10779   2.695   2.578   0.802
  322SOL    HW110780   2.726   2.592   0.896
  322SOL    HW210781   2.620   2.512   0.801
  323SOL     OW10782   2.141   9.062   0.431
  323SOL    HW110783   2.179   8.977   0.396
  323SOL    HW210784   2.079   9.043   0.507
  324SOL     OW10785   2.772   3.490   1.779
  324SOL    HW110786   2.785   3.571   1.722
  324SOL    HW210787   2.675   3.482   1.803
  325SOL     OW10788   3.819   3.975   2.041
  325SOL    HW110789   3.827   4.059   2.095
  325SOL    HW210790   3.724   3.963   2.012
  326SOL     OW10791   3.652   2.057   0.341
  326SOL    HW110792   3.731   2.049   0.402
  326SOL    HW210793   3.591   1.980   0.356
  327SOL     OW10794   2.996   0.930   0.766
  327SOL    HW110795   2.936   0.850   0.765
  327SOL    HW210796   2.956   1.001   0.823
  328SOL     OW10797   4.448   4.504   1.163
  328SOL    HW110798   4.401   4.429   1.210
  328SOL    HW210799   4.493   4.468   1.081
  329SOL     OW10800   2.854   9.353   0.745
  329SOL    HW110801   2.860   9.273   0.805
  329SOL    HW210802   2.841   9.436   0.801
  330SOL     OW10803   3.948   2.453   0.666
  330SOL    HW110804   3.971   2.386   0.737
  330SOL    HW210805   4.016   2.526   0.666
  331SOL     OW10806   2.029   1.509   0.944
  331SOL    HW110807   2.015   1.596   0.992
  331SOL    HW210808   1.960   1.443   0.975
  332SOL     OW10809   2.755   7.529   2.116
  332SOL    HW110810   2.853   7.512   2.121
  332SOL    HW210811   2.738   7.627   2.114
  333SOL     OW10812   2.045   9.291   0.314
  333SOL    HW110813   1.983   9.261   0.242
  333SOL    HW210814   2.090   9.211   0.354
  334SOL     OW10815   4.123   0.209   0.690
  334SOL    HW110816   4.100   0.169   0.779
  334SOL    HW210817   4.203   0.268   0.700
  335SOL     OW10818   3.508   1.844   0.441
  335SOL    HW110819   3.485   1.886   0.529
  335SOL    HW210820   3.515   1.745   0.452
  336SOL     OW10821   2.575   7.352   2.015
  336SOL    HW110822   2.514   7.322   2.088
  336SOL    HW210823   2.641   7.418   2.052
  337SOL     OW10824   3.723   3.011   0.335
  337SOL    HW110825   3.822   3.029   0.336
  337SOL    HW210826   3.690   3.012   0.241
  338SOL     OW10827   4.254   2.712   1.988
  338SOL    HW110828   4.217   2.801   2.013
  338SOL    HW210829   4.181   2.644   1.989
  339SOL     OW10830   2.060   2.279   0.878
  339SOL    HW110831   2.031   2.283   0.973
  339SOL    HW210832   2.065   2.372   0.840
  340SOL     OW10833   3.059   8.717   0.567
  340SOL    HW110834   3.087   8.778   0.494
  340SOL    HW210835   3.023   8.632   0.529
  341SOL     OW10836   4.405   3.940   2.149
  341SOL    HW110837   4.390   4.023   2.202
  341SOL    HW210838   4.336   3.935   2.076
  342SOL     OW10839   1.926   3.223   1.651
  342SOL    HW110840   1.999   3.291   1.651
  342SOL    HW210841   1.956   3.141   1.701
  343SOL     OW10842   3.615   3.448   2.013
  343SOL    HW110843   3.679   3.411   2.080
  343SOL    HW210844   3.554   3.376   1.981
  344SOL     OW10845   2.962   3.660   0.621
  344SOL    HW110846   2.986   3.726   0.551
  344SOL    HW210847   2.946   3.707   0.708
  345SOL     OW10848   4.565   2.002   2.329
  345SOL    HW110849   4.627   1.971   2.401
  345SOL    HW210850   4.564   1.934   2.255
  346SOL     OW10851   3.086   7.595   0.981
  346SOL    HW110852   3.162   7.530   0.982
  346SOL    HW210853   3.007   7.553   0.936
  347SOL     OW10854   2.373   5.700   0.496
  347SOL    HW110855   2.351   5.775   0.559
  347SOL    HW210856   2.289   5.664   0.456
  348SOL     OW10857   2.561   8.272   0.430
  348SOL    HW110858   2.476   8.323   0.436
  348SOL    HW210859   2.608   8.272   0.518
  349SOL     OW10860   3.518   0.587   1.751
  349SOL    HW110861   3.517   0.501   1.802
  349SOL    HW210862   3.502   0.569   1.654
  350SOL     OW10863   3.199   5.182   2.139
  350SOL    HW110864   3.133   5.255   2.120
  350SOL    HW210865   3.291   5.214   2.115
  351SOL     OW10866   2.775   3.387   0.999
  351SOL    HW110867   2.826   3.369   0.914
  351SOL    HW210868   2.677   3.376   0.982
  352SOL     OW10869   2.163   7.136   2.221
  352SOL    HW110870   2.149   7.057   2.162
  352SOL    HW210871   2.108   7.126   2.305
  353SOL     OW10872   2.845   9.497   0.491
  353SOL    HW110873   2.772   9.478   0.425
  353SOL    HW210874   2.831   9.440   0.572
  354SOL     OW10875   2.534   7.937   2.054
  354SOL    HW110876   2.554   8.030   2.085
  354SOL    HW210877   2.615   7.880   2.065
  355SOL     OW10878   2.403   0.068   1.523
  355SOL    HW110879   2.416   0.008   1.443
  355SOL    HW210880   2.319   0.122   1.510
  356SOL     OW10881   4.172   1.709   0.490
  356SOL    HW110882   4.076   1.719   0.513
  356SOL    HW210883   4.202   1.616   0.510
  357SOL     OW10884   2.331   5.532   2.112
  357SOL    HW110885   2.370   5.571   2.028
  357SOL    HW210886   2.248   5.583   2.137
  358SOL     OW10887   4.639   1.450   0.347
  358SOL    HW110888   4.602   1.541   0.327
  358SOL    HW210889   4.726   1.439   0.298
  359SOL     OW10890   4.378   4.485   0.601
  359SOL    HW110891   4.327   4.541   0.535
  359SOL    HW210892   4.434   4.418   0.552
  360SOL     OW10893   3.237   3.248   1.574
  360SOL    HW110894   3.172   3.292   1.513
  360SOL    HW210895   3.211   3.265   1.669
  361SOL     OW10896   3.860   0.488   1.985
  361SOL    HW110897   3.944   0.536   2.009
  361SOL    HW210898   3.830   0.431   2.062
  362SOL     OW10899   2.658   9.047   2.123
  362SOL    HW110900   2.718   8.989   2.177
  362SOL    HW210901   2.652   9.138   2.165
  363SOL     OW10902   2.624   2.924   2.147
  363SOL    HW110903   2.605   2.829   2.170
  363SOL    HW210904   2.651   2.973   2.230
  364SOL     OW10905   2.102   5.666   2.187
  364SOL    HW110906   2.008   5.682   2.219
  364SOL    HW210907   2.129   5.740   2.126
  365SOL     OW10908   5.145   3.412   0.964
  365SOL    HW110909   5.220   3.475   0.986
  365SOL    HW210910   5.125   3.355   1.044
  366SOL     OW10911   2.247   0.286   1.114
  366SOL    HW110912   2.200   0.369   1.082
  366SOL    HW210913   2.265   0.226   1.036
  367SOL     OW10914   2.159   8.815   1.227
  367SOL    HW110915   2.130   8.878   1.299
  367SOL    HW210916   2.204   8.735   1.267
  368SOL     OW10917   2.498   8.593   1.701
  368SOL    HW110918   2.472   8.497   1.711
  368SOL    HW210919   2.589   8.599   1.660
  369SOL     OW10920   5.184   4.175   0.676
  369SOL    HW110921   5.250   4.245   0.645
  369SOL    HW210922   5.105   4.220   0.716
  370SOL     OW10923   4.786   3.626   1.263
  370SOL    HW110924   4.802   3.528   1.247
  370SOL    HW210925   4.721   3.637   1.338
  371SOL     OW10926   4.072   2.124   0.509
  371SOL    HW110927   4.062   2.212   0.461
  371SOL    HW210928   3.984   2.077   0.511
  372SOL     OW10929   2.548   0.013   2.167
  372SOL    HW110930   2.522   0.048   2.077
  372SOL    HW210931   2.559   9.914   2.163
  373SOL     OW10932   3.732   0.705   2.112
  373SOL    HW110933   3.666   0.743   2.047
  373SOL    HW210934   3.773   0.622   2.074
  374SOL     OW10935   3.734   1.189   1.380
  374SOL    HW110936   3.810   1.239   1.422
  374SOL    HW210937   3.740   1.198   1.281
  375SOL     OW10938   4.130   3.435   1.917
  375SOL    HW110939   4.197   3.502   1.886
  375SOL    HW210940   4.076   3.473   1.992
  376SOL     OW10941   4.050   9.081   1.222
  376SOL    HW110942   4.035   9.166   1.172
  376SOL    HW210943   4.148   9.063   1.228
  377SOL     OW10944   4.012   9.506   0.837
  377SOL    HW110945   4.011   9.601   0.806
  377SOL    HW210946   3.995   9.445   0.760
  378SOL     OW10947   1.942   2.312   1.126
  378SOL    HW110948   1.849   2.318   1.090
  378SOL    HW210949   1.939   2.281   1.221
  379SOL     OW10950   2.495   2.389   0.813
  379SOL    HW110951   2.472   2.300   0.775
  379SOL    HW210952   2.412   2.442   0.829
  380SOL     OW10953   3.427   4.755   0.882
  380SOL    HW110954   3.519   4.791   0.869
  380SOL    HW210955   3.360   4.827   0.865
  381SOL     OW10956   2.655   0.189   1.558
  381SOL    HW110957   2.681   0.181   1.461
  381SOL    HW210958   2.563   0.153   1.571
  382SOL     OW10959   3.496   0.324   0.750
  382SOL    HW110960   3.583   0.279   0.734
  382SOL    HW210961   3.474   0.384   0.673
  383SOL     OW10962   1.906   9.396   2.006
  383SOL    HW110963   2.000   9.432   2.010
  383SOL    HW210964   1.841   9.471   2.016
  384SOL     OW10965   2.480   0.776   0.475
  384SOL    HW110966   2.561   0.829   0.448
  384SOL    HW210967   2.399   0.815   0.432
  385SOL     OW10968   4.357   3.271   1.026
  385SOL    HW110969   4.391   3.179   1.047
  385SOL    HW210970   4.433   3.328   0.996
  386SOL     OW10971   4.134   4.642   1.000
  386SOL    HW110972   4.177   4.574   0.941
  386SOL    HW210973   4.204   4.690   1.052
  387SOL     OW10974   2.942   9.695   1.985
  387SOL    HW110975   2.977   9.631   2.054
  387SOL    HW210976   2.849   9.669   1.960
  388SOL     OW10977   3.466   4.150   1.739
  388SOL    HW110978   3.412   4.234   1.734
  388SOL    HW210979   3.555   4.165   1.696
  389SOL     OW10980   3.616   1.884   1.982
  389SOL    HW110981   3.537   1.858   2.038
  389SOL    HW210982   3.607   1.980   1.955
  390SOL     OW10983   4.359   4.917   0.937
  390SOL    HW110984   4.353   4.862   1.020
  390SOL    HW210985   4.295   4.994   0.944
  391SOL     OW10986   3.754   1.220   1.108
  391SOL    HW110987   3.766   1.131   1.064
  391SOL    HW210988   3.837   1.274   1.097
  392SOL     OW10989   2.268   3.867   1.748
  392SOL    HW110990   2.240   3.895   1.656
  392SOL    HW210991   2.284   3.949   1.803
  393SOL     OW10992   3.991   0.451   1.223
  393SOL    HW110993   4.032   0.443   1.132
  393SOL    HW210994   3.893   0.467   1.214
  394SOL     OW10995   3.195   1.946   1.128
  394SOL    HW110996   3.291   1.950   1.101
  394SOL    HW210997   3.138   1.934   1.047
  395SOL     OW10998   4.328   2.816   1.412
  395SOL    HW110999   4.353   2.878   1.486
  395SOL    HW211000   4.260   2.860   1.353
  396SOL     OW11001   2.735   8.947   0.901
  396SOL    HW111002   2.759   8.878   0.833
  396SOL    HW211003   2.646   8.925   0.940
  397SOL     OW11004   2.576   4.222   1.184
  397SOL    HW111005   2.662   4.268   1.164
  397SOL    HW211006   2.504   4.290   1.197
  398SOL     OW11007   4.279   1.951   0.541
  398SOL    HW111008   4.211   2.022   0.523
  398SOL    HW211009   4.243   1.862   0.512
  399SOL     OW11010   2.246   6.849   0.853
  399SOL    HW111011   2.176   6.916   0.880
  399SOL    HW211012   2.221   6.759   0.889
  400SOL     OW11013   3.592   8.374   1.810
  400SOL    HW111014   3.580   8.449   1.745
  400SOL    HW211015   3.607   8.289   1.760
  401SOL     OW11016   3.257   2.690   1.054
  401SOL    HW111017   3.329   2.653   0.995
  401SOL    HW211018   3.168   2.681   1.008
  402SOL     OW11019   2.274   8.212   1.883
  402SOL    HW111020   2.259   8.280   1.955
  402SOL    HW211021   2.208   8.137   1.893
  403SOL     OW11022   2.289   6.737   0.311
  403SOL    HW111023   2.229   6.658   0.294
  403SOL    HW211024   2.300   6.750   0.409
  404SOL     OW11025   2.772   1.278   0.655
  404SOL    HW111026   2.847   1.295   0.592
  404SOL    HW211027   2.731   1.365   0.683
  405SOL     OW11028   1.750   1.322   0.361
  405SOL    HW111029   1.664   1.354   0.402
  405SOL    HW211030   1.741   1.225   0.339
  406SOL     OW11031   3.576   8.132   1.953
  406SOL    HW111032   3.559   8.229   1.935
  406SOL    HW211033   3.604   8.086   1.869
  407SOL     OW11034   2.756   1.895   0.890
  407SOL    HW111035   2.681   1.838   0.858
  407SOL    HW211036   2.747   1.987   0.852
  408SOL     OW11037   3.144   1.855   2.075
  408SOL    HW111038   3.233   1.873   2.118
  408SOL    HW211039   3.072   1.860   2.144
  409SOL     OW11040   3.227   2.088   0.771
  409SOL    HW111041   3.173   2.029   0.830
  409SOL    HW211042   3.183   2.096   0.681
  410SOL     OW11043   2.345   7.500   2.267
  410SOL    HW111044   2.373   7.405   2.254
  410SOL    HW211045   2.426   7.558   2.275
  411SOL     OW11046   3.818   1.547   2.173
  411SOL    HW111047   3.783   1.481   2.240
  411SOL    HW211048   3.768   1.537   2.087
  412SOL     OW11049   2.573   3.213   1.570
  412SOL    HW111050   2.577   3.228   1.669
  412SOL    HW211051   2.534   3.123   1.551
  413SOL     OW11052   3.997   3.173   2.275
  413SOL    HW111053   3.946   3.092   2.244
  413SOL    HW211054   4.076   3.187   2.215
  414SOL     OW11055   2.564   1.611   0.235
  414SOL    HW111056   2.661   1.635   0.225
  414SOL    HW211057   2.556   1.511   0.238
  415SOL     OW11058   2.191   9.048   2.055
  415SOL    HW111059   2.118   9.023   2.118
  415SOL    HW211060   2.263   8.978   2.057
  416SOL     OW11061   3.173   3.612   1.168
  416SOL    HW111062   3.181   3.599   1.267
  416SOL    HW211063   3.130   3.700   1.149
  417SOL     OW11064   3.118   9.050   2.363
  417SOL    HW111065   3.194   9.026   2.302
  417SOL    HW211066   3.150   9.114   2.432
  418SOL     OW11067   3.157   2.463   0.413
  418SOL    HW111068   3.204   2.542   0.453
  418SOL    HW211069   3.223   2.390   0.397
  419SOL     OW11070   3.039   9.256   1.783
  419SOL    HW111071   2.963   9.203   1.822
  419SOL    HW211072   3.002   9.331   1.728
  420SOL     OW11073   4.150   4.195   2.084
  420SOL    HW111074   4.163   4.271   2.021
  420SOL    HW211075   4.152   4.109   2.033
  421SOL     OW11076   4.088   1.103   1.413
  421SOL    HW111077   4.030   1.173   1.455
  421SOL    HW211078   4.090   1.022   1.472
  422SOL     OW11079   2.338   2.231   2.202
  422SOL    HW111080   2.359   2.202   2.108
  422SOL    HW211081   2.255   2.185   2.233
  423SOL     OW11082   3.781   2.290   1.671
  423SOL    HW111083   3.838   2.294   1.753
  423SOL    HW211084   3.840   2.290   1.590
  424SOL     OW11085   2.868   9.702   1.360
  424SOL    HW111086   2.785   9.666   1.318
  424SOL    HW211087   2.853   9.715   1.458
  425SOL     OW11088   4.339   3.457   1.233
  425SOL    HW111089   4.416   3.441   1.295
  425SOL    HW211090   4.336   3.383   1.165
  426SOL     OW11091   3.663   5.295   0.908
  426SOL    HW111092   3.604   5.284   0.828
  426SOL    HW211093   3.649   5.218   0.971
  427SOL     OW11094   1.812   9.824   0.666
  427SOL    HW111095   1.802   9.892   0.739
  427SOL    HW211096   1.881   9.856   0.600
  428SOL     OW11097   2.423   7.234   2.215
  428SOL    HW111098   2.486   7.158   2.233
  428SOL    HW211099   2.329   7.200   2.212
  429SOL     OW11100   3.457   4.820   1.380
  429SOL    HW111101   3.380   4.812   1.317
  429SOL    HW211102   3.529   4.875   1.338
  430SOL     OW11103   3.562   2.202   1.429
  430SOL    HW111104   3.552   2.113   1.383
  430SOL    HW211105   3.586   2.187   1.525
  431SOL     OW11106   2.861   0.375   2.209
  431SOL    HW111107   2.938   0.319   2.181
  431SOL    HW211108   2.894   0.467   2.233
  432SOL     OW11109   1.887   6.694   1.549
  432SOL    HW111110   1.957   6.686   1.620
  432SOL    HW211111   1.867   6.790   1.532
  433SOL     OW11112   4.566   3.419   1.402
  433SOL    HW111113   4.558   3.320   1.407
  433SOL    HW211114   4.613   3.453   1.484
  434SOL     OW11115   2.495   7.421   1.076
  434SOL    HW111116   2.595   7.421   1.079
  434SOL    HW211117   2.460   7.503   1.122
  435SOL     OW11118   2.860   1.148   0.882
  435SOL    HW111119   2.804   1.176   0.960
  435SOL    HW211120   2.826   1.191   0.798
  436SOL     OW11121   2.600   8.239   0.963
  436SOL    HW111122   2.607   8.332   0.998
  436SOL    HW211123   2.692   8.206   0.940
  437SOL     OW11124   4.021   8.407   0.685
  437SOL    HW111125   4.104   8.365   0.722
  437SOL    HW211126   4.019   8.504   0.708
  438SOL     OW11127   5.126   2.526   1.072
  438SOL    HW111128   5.220   2.557   1.088
  438SOL    HW211129   5.127   2.431   1.042
  439SOL     OW11130   2.478   0.656   1.673
  439SOL    HW111131   2.456   0.560   1.692
  439SOL    HW211132   2.422   0.715   1.731
  440SOL     OW11133   4.752   2.358   0.527
  440SOL    HW111134   4.755   2.330   0.431
  440SOL    HW211135   4.819   2.305   0.580
  441SOL     OW11136   3.337   1.301   1.928
  441SOL    HW111137   3.353   1.399   1.930
  441SOL    HW211138   3.389   1.260   1.853
  442SOL     OW11139   2.285   7.168   1.819
  442SOL    HW111140   2.189   7.195   1.823
  442SOL    HW211141   2.301   7.097   1.888
  443SOL     OW11142   4.080   0.417   0.968
  443SOL    HW111143   4.014   0.466   0.910
  443SOL    HW211144   4.070   0.318   0.952
  444SOL     OW11145   2.245   2.275   1.814
  444SOL    HW111146   2.178   2.312   1.879
  444SOL    HW211147   2.208   2.281   1.721
  445SOL     OW11148   2.463   1.748   1.926
  445SOL    HW111149   2.410   1.676   1.972
  445SOL    HW211150   2.497   1.814   1.993
  446SOL     OW11151   2.789   8.735   1.837
  446SOL    HW111152   2.836   8.817   1.803
  446SOL    HW211153   2.773   8.672   1.761
  447SOL     OW11154   3.255   3.966   1.722
  447SOL    HW111155   3.327   4.035   1.728
  447SOL    HW211156   3.267   3.912   1.638
  448SOL     OW11157   2.335   6.624   2.164
  448SOL    HW111158   2.403   6.698   2.169
  448SOL    HW211159   2.317   6.590   2.256
  449SOL     OW11160   4.396   3.964   0.964
  449SOL    HW111161   4.406   3.986   1.061
  449SOL    HW211162   4.353   3.874   0.954
  450SOL     OW11163   1.923   6.397   0.882
  450SOL    HW111164   1.937   6.461   0.807
  450SOL    HW211165   1.921   6.447   0.969
  451SOL     OW11166   1.977   2.666   1.023
  451SOL    HW111167   1.996   2.615   0.939
  451SOL    HW211168   2.061   2.676   1.076
  452SOL     OW11169   2.349   2.077   1.963
  452SOL    HW111170   2.313   2.145   1.899
  452SOL    HW211171   2.273   2.031   2.009
  453SOL     OW11172   2.292   9.239   1.762
  453SOL    HW111173   2.196   9.243   1.788
  453SOL    HW211174   2.316   9.145   1.737
  454SOL     OW11175   2.668   0.614   1.066
  454SOL    HW111176   2.715   0.586   1.150
  454SOL    HW211177   2.579   0.655   1.089
  455SOL     OW11178   2.667   2.789   0.475
  455SOL    HW111179   2.764   2.767   0.469
  455SOL    HW211180   2.613   2.709   0.448
  456SOL     OW11181   3.986   2.541   1.395
  456SOL    HW111182   3.921   2.599   1.444
  456SOL    HW211183   3.959   2.445   1.404
  457SOL     OW11184   2.459   2.031   0.493
  457SOL    HW111185   2.513   1.952   0.465
  457SOL    HW211186   2.499   2.114   0.454
  458SOL     OW11187   4.155   3.793   1.241
  458SOL    HW111188   4.115   3.702   1.254
  458SOL    HW211189   4.250   3.784   1.213
  459SOL     OW11190   2.206   4.482   1.753
  459SOL    HW111191   2.299   4.471   1.788
  459SOL    HW211192   2.155   4.397   1.768
  460SOL     OW11193   3.559   3.974   1.961
  460SOL    HW111194   3.537   3.876   1.958
  460SOL    HW211195   3.509   4.021   1.888
  461SOL     OW11196   3.851   5.348   1.558
  461SOL    HW111197   3.932   5.405   1.543
  461SOL    HW211198   3.877   5.251   1.553
  462SOL     OW11199   3.581   2.508   2.116
  462SOL    HW111200   3.616   2.567   2.043
  462SOL    HW211201   3.635   2.423   2.119
  463SOL     OW11202   3.124   1.079   0.296
  463SOL    HW111203   3.109   1.177   0.279
  463SOL    HW211204   3.054   1.046   0.360
  464SOL     OW11205   3.510   8.991   1.102
  464SOL    HW111206   3.564   8.995   1.018
  464SOL    HW211207   3.446   9.068   1.105
  465SOL     OW11208   3.373   7.749   1.277
  465SOL    HW111209   3.380   7.810   1.199
  465SOL    HW211210   3.456   7.694   1.285
  466SOL     OW11211   4.386   0.923   0.815
  466SOL    HW111212   4.319   0.996   0.827
  466SOL    HW211213   4.478   0.961   0.819
  467SOL     OW11214   4.947   4.319   0.738
  467SOL    HW111215   4.965   4.353   0.646
  467SOL    HW211216   4.889   4.384   0.787
  468SOL     OW11217   3.424   0.876   0.987
  468SOL    HW111218   3.366   0.889   0.906
  468SOL    HW211219   3.366   0.869   1.068
  469SOL     OW11220   1.849   7.768   1.057
  469SOL    HW111221   1.896   7.683   1.034
  469SOL    HW211222   1.797   7.800   0.979
  470SOL     OW11223   2.343   1.566   1.613
  470SOL    HW111224   2.422   1.557   1.553
  470SOL    HW211225   2.331   1.662   1.638
  471SOL     OW11226   1.708   0.872   0.512
  471SOL    HW111227   1.682   0.945   0.448
  471SOL    HW211228   1.694   0.783   0.469
  472SOL     OW11229   2.263   8.106   1.458
  472SOL    HW111230   2.304   8.064   1.539
  472SOL    HW211231   2.163   8.099   1.464
  473SOL     OW11232   3.658   2.153   1.014
  473SOL    HW111233   3.681   2.215   1.089
  473SOL    HW211234   3.741   2.104   0.985
  474SOL     OW11235   3.666   4.907   0.891
  474SOL    HW111236   3.655   4.971   0.966
  474SOL    HW211237   3.753   4.859   0.900
  475SOL     OW11238   1.903   6.920   1.135
  475SOL    HW111239   1.817   6.876   1.159
  475SOL    HW211240   1.919   6.998   1.195
  476SOL     OW11241   1.990   9.134   1.602
  476SOL    HW111242   1.910   9.187   1.574
  476SOL    HW211243   2.008   9.149   1.700
  477SOL     OW11244   2.725   6.742   1.709
  477SOL    HW111245   2.800   6.808   1.718
  477SOL    HW211246   2.638   6.790   1.703
  478SOL     OW11247   3.729   4.501   1.600
  478SOL    HW111248   3.819   4.517   1.559
  478SOL    HW211249   3.714   4.403   1.609
  479SOL     OW11250   4.110   2.885   1.240
  479SOL    HW111251   4.033   2.898   1.303
  479SOL    HW211252   4.108   2.792   1.203
  480SOL     OW11253   2.772   6.356   1.828
  480SOL    HW111254   2.792   6.324   1.920
  480SOL    HW211255   2.844   6.327   1.765
  481SOL     OW11256   3.928   2.277   1.909
  481SOL    HW111257   3.940   2.185   1.947
  481SOL    HW211258   4.017   2.312   1.877
  482SOL     OW11259   4.093   3.245   1.338
  482SOL    HW111260   4.063   3.201   1.254
  482SOL    HW211261   4.032   3.220   1.413
  483SOL     OW11262   2.877   9.804   0.528
  483SOL    HW111263   2.808   9.742   0.490
  483SOL    HW211264   2.962   9.755   0.544
  484SOL     OW11265   2.809   9.739   1.627
  484SOL    HW111266   2.854   9.824   1.654
  484SOL    HW211267   2.717   9.736   1.667
  485SOL     OW11268   3.982   5.040   2.100
  485SOL    HW111269   3.917   4.979   2.055
  485SOL    HW211270   4.068   4.992   2.114
  486SOL     OW11271   3.049   0.775   1.154
  486SOL    HW111272   3.049   0.682   1.119
  486SOL    HW211273   2.965   0.822   1.125
  487SOL     OW11274   4.947   3.337   0.494
  487SOL    HW111275   4.949   3.378   0.585
  487SOL    HW211276   5.040   3.317   0.465
  488SOL     OW11277   4.269   4.453   0.852
  488SOL    HW111278   4.202   4.382   0.876
  488SOL    HW211279   4.286   4.451   0.754
  489SOL     OW11280   2.800   2.231   1.853
  489SOL    HW111281   2.723   2.174   1.826
  489SOL    HW211282   2.885   2.191   1.819
  490SOL     OW11283   4.036   9.313   1.046
  490SOL    HW111284   4.044   9.389   0.982
  490SOL    HW211285   3.951   9.322   1.098
  491SOL     OW11286   4.203   1.805   1.002
  491SOL    HW111287   4.125   1.849   1.046
  491SOL    HW211288   4.288   1.845   1.037
  492SOL     OW11289   4.560   1.641   0.794
  492SOL    HW111290   4.486   1.704   0.773
  492SOL    HW211291   4.554   1.612   0.890
  493SOL     OW11292   2.172   6.604   0.938
  493SOL    HW111293   2.104   6.589   1.009
  493SOL    HW211294   2.253   6.549   0.958
  494SOL     OW11295   1.920   2.242   2.191
  494SOL    HW111296   1.862   2.300   2.247
  494SOL    HW211297   1.946   2.160   2.243
  495SOL     OW11298   3.081   6.181   1.938
  495SOL    HW111299   3.065   6.208   1.843
  495SOL    HW211300   2.999   6.198   1.992
  496SOL     OW11301   2.218   1.375   0.513
  496SOL    HW111302   2.192   1.435   0.589
  496SOL    HW211303   2.147   1.378   0.443
  497SOL     OW11304   4.368   2.955   0.636
  497SOL    HW111305   4.460   2.939   0.601
  497SOL    HW211306   4.363   2.927   0.732
  498SOL     OW11307   2.222   3.718   1.334
  498SOL    HW111308   2.213   3.782   1.411
  498SOL    HW211309   2.319   3.701   1.316
  499SOL     OW11310   4.008   2.716   0.330
  499SOL    HW111311   4.047   2.782   0.392
  499SOL    HW211312   4.077   2.647   0.306
  500SOL     OW11313   2.441   5.956   2.052
  500SOL    HW111314   2.478   5.990   1.965
  500SOL    HW211315   2.497   5.881   2.086
  501SOL     OW11316   2.995   1.302   0.500
  501SOL    HW111317   3.043   1.332   0.417
  501SOL    HW211318   3.056   1.314   0.578
  502SOL     OW11319   2.943   7.046   1.020
  502SOL    HW111320   2.893   7.131   1.032
  502SOL    HW211321   2.890   6.985   0.961
  503SOL     OW11322   4.476   3.086   2.041
  503SOL    HW111323   4.551   3.150   2.059
  503SOL    HW211324   4.511   2.993   2.033
  504SOL     OW11325   2.745   2.273   0.531
  504SOL    HW111326   2.651   2.287   0.498
  504SOL    HW211327   2.783   2.361   0.558
  505SOL     OW11328   2.518   0.331   0.824
  505SOL    HW111329   2.560   0.422   0.821
  505SOL    HW211330   2.424   0.337   0.790
  506SOL     OW11331   2.855   4.003   0.608
  506SOL    HW111332   2.769   3.974   0.566
  506SOL    HW211333   2.842   4.015   0.707
  507SOL     OW11334   3.902   1.632   1.073
  507SOL    HW111335   3.862   1.620   1.164
  507SOL    HW211336   3.993   1.590   1.071
  508SOL     OW11337   3.580   8.846   2.205
  508SOL    HW111338   3.552   8.755   2.236
  508SOL    HW211339   3.672   8.867   2.238
  509SOL     OW11340   1.853   3.197   0.623
  509SOL    HW111341   1.759   3.165   0.615
  509SOL    HW211342   1.867   3.239   0.713
  510SOL     OW11343   3.895   1.735   0.590
  510SOL    HW111344   3.858   1.720   0.682
  510SOL    HW211345   3.860   1.664   0.529
  511SOL     OW11346   2.337   6.202   1.322
  511SOL    HW111347   2.304   6.117   1.363
  511SOL    HW211348   2.374   6.183   1.231
  512SOL     OW11349   2.378   3.331   1.190
  512SOL    HW111350   2.445   3.335   1.116
  512SOL    HW211351   2.305   3.398   1.172
  513SOL     OW11352   3.035   5.395   2.054
  513SOL    HW111353   2.945   5.423   2.086
  513SOL    HW211354   3.038   5.400   1.954
  514SOL     OW11355   1.819   8.820   0.542
  514SOL    HW111356   1.723   8.837   0.561
  514SOL    HW211357   1.875   8.892   0.584
  515SOL     OW11358   3.802   4.171   0.335
  515SOL    HW111359   3.759   4.100   0.391
  515SOL    HW211360   3.778   4.261   0.372
  516SOL     OW11361   2.908   0.268   1.060
  516SOL    HW111362   2.990   0.233   1.014
  516SOL    HW211363   2.906   0.235   1.154
  517SOL     OW11364   2.775   3.758   1.650
  517SOL    HW111365   2.855   3.817   1.662
  517SOL    HW211366   2.725   3.786   1.567
  518SOL     OW11367   3.041   1.913   0.899
  518SOL    HW111368   3.084   1.833   0.858
  518SOL    HW211369   2.941   1.902   0.897
  519SOL     OW11370   4.581   3.758   2.250
  519SOL    HW111371   4.576   3.767   2.350
  519SOL    HW211372   4.519   3.825   2.208
  520SOL     OW11373   2.097   2.858   1.319
  520SOL    HW111374   2.015   2.806   1.343
  520SOL    HW211375   2.169   2.795   1.289
  521SOL     OW11376   1.807   0.827   0.761
  521SOL    HW111377   1.745   0.852   0.835
  521SOL    HW211378   1.768   0.853   0.673
  522SOL     OW11379   2.086   9.962   0.765
  522SOL    HW111380   1.999   9.986   0.808
  522SOL    HW211381   2.074   9.953   0.667
  523SOL     OW11382   4.979   2.728   0.346
  523SOL    HW111383   4.915   2.804   0.350
  523SOL    HW211384   4.962   2.674   0.263
  524SOL     OW11385   3.187   2.676   1.645
  524SOL    HW111386   3.255   2.610   1.677
  524SOL    HW211387   3.220   2.721   1.561
  525SOL     OW11388   2.582   3.775   0.770
  525SOL    HW111389   2.536   3.782   0.859
  525SOL    HW211390   2.632   3.688   0.765
  526SOL     OW11391   3.892   2.935   1.401
  526SOL    HW111392   3.813   2.942   1.340
  526SOL    HW211393   3.902   3.021   1.452
  527SOL     OW11394   3.359   5.414   0.902
  527SOL    HW111395   3.363   5.512   0.886
  527SOL    HW211396   3.402   5.366   0.825
  528SOL     OW11397   3.902   4.146   1.819
  528SOL    HW111398   3.973   4.092   1.775
  528SOL    HW211399   3.874   4.101   1.904
  529SOL     OW11400   2.748   6.629   1.456
  529SOL    HW111401   2.746   6.659   1.551
  529SOL    HW211402   2.713   6.702   1.397
  530SOL     OW11403   3.478   4.595   1.528
  530SOL    HW111404   3.573   4.573   1.552
  530SOL    HW211405   3.474   4.685   1.486
  531SOL     OW11406   2.749   5.075   0.336
  531SOL    HW111407   2.780   5.000   0.395
  531SOL    HW211408   2.828   5.114   0.289
  532SOL     OW11409   3.446   3.248   1.913
  532SOL    HW111410   3.472   3.155   1.885
  532SOL    HW211411   3.347   3.257   1.909
  533SOL     OW11412   3.543   2.049   1.669
  533SOL    HW111413   3.566   2.089   1.758
  533SOL    HW211414   3.443   2.051   1.656
  534SOL     OW11415   2.893   3.340   0.762
  534SOL    HW111416   2.984   3.380   0.746
  534SOL    HW211417   2.888   3.250   0.719
  535SOL     OW11418   2.492   8.820   0.524
  535SOL    HW111419   2.414   8.758   0.525
  535SOL    HW211420   2.467   8.907   0.565
  536SOL     OW11421   3.416   2.296   1.067
  536SOL    HW111422   3.496   2.239   1.048
  536SOL    HW211423   3.366   2.313   0.982
  537SOL     OW11424   2.538   2.035   1.530
  537SOL    HW111425   2.633   2.047   1.502
  537SOL    HW211426   2.485   2.116   1.504
  538SOL     OW11427   2.213   7.058   1.291
  538SOL    HW111428   2.275   7.096   1.223
  538SOL    HW211429   2.252   7.069   1.383
  539SOL     OW11430   3.087   2.080   0.545
  539SOL    HW111431   3.053   2.143   0.475
  539SOL    HW211432   3.022   2.005   0.558
  540SOL     OW11433   4.848   2.690   0.765
  540SOL    HW111434   4.886   2.598   0.758
  540SOL    HW211435   4.920   2.755   0.789
  541SOL     OW11436   3.175   3.295   1.836
  541SOL    HW111437   3.081   3.264   1.823
  541SOL    HW211438   3.176   3.382   1.884
  542SOL     OW11439   3.987   1.212   1.769
  542SOL    HW111440   4.074   1.215   1.817
  542SOL    HW211441   3.959   1.117   1.757
  543SOL     OW11442   3.572   4.251   1.261
  543SOL    HW111443   3.546   4.223   1.168
  543SOL    HW211444   3.669   4.232   1.276
  544SOL     OW11445   3.243   0.216   0.739
  544SOL    HW111446   3.337   0.251   0.740
  544SOL    HW211447   3.243   0.120   0.712
  545SOL     OW11448   3.343   3.889   1.053
  545SOL    HW111449   3.398   3.916   0.974
  545SOL    HW211450   3.256   3.939   1.052
  546SOL     OW11451   3.490   5.265   0.696
  546SOL    HW111452   3.528   5.174   0.678
  546SOL    HW211453   3.454   5.304   0.612
  547SOL     OW11454   3.421   4.470   1.292
  547SOL    HW111455   3.430   4.518   1.379
  547SOL    HW211456   3.482   4.391   1.291
  548SOL     OW11457   3.011   8.517   1.566
  548SOL    HW111458   3.081   8.585   1.545
  548SOL    HW211459   3.042   8.459   1.641
  549SOL     OW11460   2.505   3.532   1.891
  549SOL    HW111461   2.497   3.461   1.960
  549SOL    HW211462   2.416   3.546   1.847
  550SOL     OW11463   4.093   1.587   2.121
  550SOL    HW111464   3.999   1.564   2.145
  550SOL    HW211465   4.094   1.649   2.043
  551SOL     OW11466   4.403   2.857   0.899
  551SOL    HW111467   4.434   2.923   0.968
  551SOL    HW211468   4.472   2.786   0.888
  552SOL     OW11469   2.247   0.894   0.386
  552SOL    HW111470   2.278   0.988   0.399
  552SOL    HW211471   2.188   0.889   0.305
  553SOL     OW11472   2.144   7.195   0.576
  553SOL    HW111473   2.133   7.116   0.516
  553SOL    HW211474   2.210   7.175   0.648
  554SOL     OW11475   3.470   3.644   0.585
  554SOL    HW111476   3.542   3.575   0.598
  554SOL    HW211477   3.413   3.618   0.507
  555SOL     OW11478   3.996   2.593   2.013
  555SOL    HW111479   3.902   2.563   1.997
  555SOL    HW211480   4.023   2.570   2.107
  556SOL     OW11481   3.657   8.816   1.940
  556SOL    HW111482   3.608   8.871   1.872
  556SOL    HW211483   3.622   8.836   2.031
  557SOL     OW11484   3.795   2.081   2.282
  557SOL    HW111485   3.788   2.079   2.381
  557SOL    HW211486   3.806   1.988   2.247
  558SOL     OW11487   2.286   7.074   1.556
  558SOL    HW111488   2.202   7.023   1.576
  558SOL    HW211489   2.328   7.104   1.641
  559SOL     OW11490   3.060   6.062   2.269
  559SOL    HW111491   3.076   6.096   2.362
  559SOL    HW211492   3.095   6.128   2.203
  560SOL     OW11493   2.902   7.043   1.475
  560SOL    HW111494   2.942   7.134   1.471
  560SOL    HW211495   2.935   6.988   1.399
  561SOL     OW11496   2.980   9.526   1.168
  561SOL    HW111497   3.037   9.455   1.210
  561SOL    HW211498   2.942   9.585   1.239
  562SOL     OW11499   3.297   3.590   0.905
  562SOL    HW111500   3.377   3.649   0.894
  562SOL    HW211501   3.247   3.617   0.987
  563SOL     OW11502   4.265   9.133   0.474
  563SOL    HW111503   4.241   9.138   0.377
  563SOL    HW211504   4.182   9.147   0.529
  564SOL     OW11505   3.280   2.795   1.412
  564SOL    HW111506   3.374   2.775   1.438
  564SOL    HW211507   3.280   2.842   1.323
  565SOL     OW11508   4.857   2.360   1.183
  565SOL    HW111509   4.864   2.390   1.278
  565SOL    HW211510   4.787   2.414   1.136
  566SOL     OW11511   3.306   9.745   0.874
  566SOL    HW111512   3.320   9.736   0.973
  566SOL    HW211513   3.212   9.721   0.851
  567SOL     OW11514   3.388   0.572   2.047
  567SOL    HW111515   3.436   0.640   1.992
  567SOL    HW211516   3.411   0.480   2.015
  568SOL     OW11517   2.826   1.161   2.032
  568SOL    HW111518   2.924   1.143   2.029
  568SOL    HW211519   2.810   1.260   2.023
  569SOL     OW11520   3.510   8.467   0.858
  569SOL    HW111521   3.539   8.561   0.878
  569SOL    HW211522   3.463   8.465   0.770
  570SOL     OW11523   3.302   8.382   1.022
  570SOL    HW111524   3.247   8.465   1.026
  570SOL    HW211525   3.380   8.397   0.961
  571SOL     OW11526   2.080   6.102   1.195
  571SOL    HW111527   2.055   6.191   1.233
  571SOL    HW211528   2.119   6.044   1.266
  572SOL     OW11529   2.258   8.770   0.973
  572SOL    HW111530   2.222   8.811   0.889
  572SOL    HW211531   2.203   8.799   1.051
  573SOL     OW11532   3.556   9.477   1.370
  573SOL    HW111533   3.598   9.544   1.431
  573SOL    HW211534   3.586   9.494   1.276
  574SOL     OW11535   2.928   8.684   2.064
  574SOL    HW111536   3.014   8.735   2.062
  574SOL    HW211537   2.880   8.696   1.977
  575SOL     OW11538   2.796   7.483   0.603
  575SOL    HW111539   2.728   7.414   0.578
  575SOL    HW211540   2.834   7.524   0.519
  576SOL     OW11541   2.542   9.743   2.141
  576SOL    HW111542   2.483   9.686   2.198
  576SOL    HW211543   2.591   9.685   2.076
  577SOL     OW11544   2.973   2.254   0.374
  577SOL    HW111545   2.885   2.262   0.421
  577SOL    HW211546   3.023   2.339   0.382
  578SOL     OW11547   2.940   1.863   2.260
  578SOL    HW111548   2.945   1.960   2.283
  578SOL    HW211549   2.846   1.831   2.271
  579SOL     OW11550   2.337   4.252   2.102
  579SOL    HW111551   2.379   4.196   2.173
  579SOL    HW211552   2.376   4.344   2.105
  580SOL     OW11553   4.078   4.279   0.949
  580SOL    HW111554   4.068   4.183   0.924
  580SOL    HW211555   4.075   4.289   1.048
  581SOL     OW11556   2.510   3.373   0.927
  581SOL    HW111557   2.452   3.453   0.910
  581SOL    HW211558   2.518   3.320   0.843
  582SOL     OW11559   1.973   6.520   1.122
  582SOL    HW111560   2.031   6.460   1.177
  582SOL    HW211561   1.901   6.559   1.179
  583SOL     OW11562   2.414   7.653   1.194
  583SOL    HW111563   2.505   7.694   1.204
  583SOL    HW211564   2.369   7.650   1.283
  584SOL     OW11565   3.597   8.990   1.361
  584SOL    HW111566   3.696   8.977   1.367
  584SOL    HW211567   3.569   8.987   1.265
  585SOL     OW11568   4.175   2.613   0.683
  585SOL    HW111569   4.245   2.643   0.618
  585SOL    HW211570   4.163   2.683   0.754
  586SOL     OW11571   3.889   4.360   0.768
  586SOL    HW111572   3.805   4.398   0.808
  586SOL    HW211573   3.956   4.345   0.840
  587SOL     OW11574   2.621   0.161   0.632
  587SOL    HW111575   2.672   0.083   0.669
  587SOL    HW211576   2.587   0.217   0.707
  588SOL     OW11577   2.349   3.590   0.844
  588SOL    HW111578   2.380   3.601   0.749
  588SOL    HW211579   2.261   3.543   0.844
  589SOL     OW11580   3.117   2.313   1.961
  589SOL    HW111581   3.070   2.250   1.899
  589SOL    HW211582   3.098   2.408   1.934
  590SOL     OW11583   3.959   9.750   0.739
  590SOL    HW111584   3.880   9.798   0.780
  590SOL    HW211585   3.963   9.771   0.642
  591SOL     OW11586   4.086   2.147   0.784
  591SOL    HW111587   4.136   2.233   0.792
  591SOL    HW211588   4.078   2.122   0.687
  592SOL     OW11589   2.296   3.180   2.205
  592SOL    HW111590   2.231   3.255   2.188
  592SOL    HW211591   2.247   3.102   2.245
  593SOL     OW11592   2.627   7.108   1.905
  593SOL    HW111593   2.603   7.200   1.936
  593SOL    HW211594   2.727   7.099   1.903
  594SOL     OW11595   2.591   2.239   2.318
  594SOL    HW111596   2.497   2.231   2.284
  594SOL    HW211597   2.655   2.212   2.246
  595SOL     OW11598   5.067   3.517   1.567
  595SOL    HW111599   5.092   3.593   1.507
  595SOL    HW211600   5.020   3.552   1.648
  596SOL     OW11601   3.901   4.756   0.903
  596SOL    HW111602   3.888   4.738   0.806
  596SOL    HW211603   3.988   4.718   0.933
  597SOL     OW11604   4.538   1.435   0.609
  597SOL    HW111605   4.560   1.507   0.674
  597SOL    HW211606   4.592   1.446   0.526
  598SOL     OW11607   2.473   4.502   2.103
  598SOL    HW111608   2.457   4.596   2.131
  598SOL    HW211609   2.558   4.468   2.145
  599SOL     OW11610   2.714   2.838   1.714
  599SOL    HW111611   2.668   2.797   1.636
  599SOL    HW211612   2.813   2.839   1.699
  600SOL     OW11613   2.345   8.416   0.526
  600SOL    HW111614   2.393   8.382   0.606
  600SOL    HW211615   2.268   8.355   0.504
  601SOL     OW11616   4.478   4.703   0.758
  601SOL    HW111617   4.432   4.618   0.734
  601SOL    HW211618   4.433   4.743   0.838
  602SOL     OW11619   2.521   4.103   0.711
  602SOL    HW111620   2.523   4.059   0.801
  602SOL    HW211621   2.554   4.038   0.642
  603SOL     OW11622   3.553   1.312   0.385
  603SOL    HW111623   3.649   1.285   0.386
  603SOL    HW211624   3.495   1.231   0.389
  604SOL     OW11625   4.739   3.218   0.370
  604SOL    HW111626   4.817   3.265   0.412
  604SOL    HW211627   4.679   3.285   0.327
  605SOL     OW11628   1.881   3.621   1.108
  605SOL    HW111629   1.873   3.523   1.126
  605SOL    HW211630   1.817   3.647   1.036
  606SOL     OW11631   1.904   2.561   0.333
  606SOL    HW111632   1.870   2.468   0.323
  606SOL    HW211633   1.993   2.569   0.288
  607SOL     OW11634   3.592   7.745   0.952
  607SOL    HW111635   3.559   7.654   0.926
  607SOL    HW211636   3.516   7.799   0.988
  608SOL     OW11637   3.113   4.043   0.962
  608SOL    HW111638   3.126   4.015   0.867
  608SOL    HW211639   3.063   4.129   0.965
  609SOL     OW11640   4.662   3.283   2.082
  609SOL    HW111641   4.734   3.303   2.015
  609SOL    HW211642   4.620   3.368   2.112
  610SOL     OW11643   3.220   1.604   0.412
  610SOL    HW111644   3.194   1.600   0.508
  610SOL    HW211645   3.174   1.681   0.367
  611SOL     OW11646   2.207   3.222   1.890
  611SOL    HW111647   2.298   3.180   1.890
  611SOL    HW211648   2.195   3.278   1.808
  612SOL     OW11649   2.320   1.718   0.321
  612SOL    HW111650   2.321   1.809   0.280
  612SOL    HW211651   2.395   1.664   0.283
  613SOL     OW11652   5.224   2.712   0.680
  613SOL    HW111653   5.148   2.754   0.728
  613SOL    HW211654   5.223   2.740   0.584
  614SOL     OW11655   4.064   0.141   0.953
  614SOL    HW111656   4.132   0.131   1.026
  614SOL    HW211657   3.983   0.088   0.977
  615SOL     OW11658   2.702   9.353   1.797
  615SOL    HW111659   2.631   9.329   1.730
  615SOL    HW211660   2.737   9.269   1.839
  616SOL     OW11661   2.731   0.769   1.706
  616SOL    HW111662   2.720   0.838   1.777
  616SOL    HW211663   2.644   0.722   1.690
  617SOL     OW11664   3.101   1.194   1.990
  617SOL    HW111665   3.104   1.096   1.971
  617SOL    HW211666   3.189   1.235   1.964
  618SOL     OW11667   5.058   2.496   0.489
  618SOL    HW111668   5.021   2.581   0.452
  618SOL    HW211669   5.040   2.492   0.588
  619SOL     OW11670   2.933   6.554   0.552
  619SOL    HW111671   2.918   6.552   0.651
  619SOL    HW211672   2.911   6.645   0.517
  620SOL     OW11673   2.633   0.581   0.798
  620SOL    HW111674   2.653   0.585   0.895
  620SOL    HW211675   2.703   0.631   0.747
  621SOL     OW11676   3.166   1.318   0.705
  621SOL    HW111677   3.135   1.311   0.800
  621SOL    HW211678   3.239   1.251   0.690
  622SOL     OW11679   3.099   8.359   1.766
  622SOL    HW111680   3.168   8.294   1.733
  622SOL    HW211681   3.143   8.428   1.824
  623SOL     OW11682   4.849   3.673   1.717
  623SOL    HW111683   4.792   3.690   1.798
  623SOL    HW211684   4.919   3.745   1.710
  624SOL     OW11685   5.191   1.833   0.312
  624SOL    HW111686   5.183   1.867   0.218
  624SOL    HW211687   5.126   1.757   0.325
  625SOL     OW11688   2.492   1.420   0.526
  625SOL    HW111689   2.524   1.394   0.435
  625SOL    HW211690   2.392   1.414   0.529
  626SOL     OW11691   2.930   2.211   0.931
  626SOL    HW111692   2.989   2.131   0.935
  626SOL    HW211693   2.848   2.190   0.877
  627SOL     OW11694   3.439   0.453   0.507
  627SOL    HW111695   3.366   0.449   0.439
  627SOL    HW211696   3.522   0.411   0.471
  628SOL     OW11697   1.993   7.919   1.229
  628SOL    HW111698   1.933   7.856   1.180
  628SOL    HW211699   2.067   7.949   1.169
  629SOL     OW11700   2.171   0.094   1.899
  629SOL    HW111701   2.116   0.089   1.983
  629SOL    HW211702   2.159   0.011   1.846
  630SOL     OW11703   2.331   7.354   1.519
  630SOL    HW111704   2.288   7.263   1.519
  630SOL    HW211705   2.360   7.377   1.611
  631SOL     OW11706   2.501   4.779   1.429
  631SOL    HW111707   2.555   4.862   1.444
  631SOL    HW211708   2.515   4.717   1.506
  632SOL     OW11709   2.110   1.952   1.224
  632SOL    HW111710   2.177   1.877   1.220
  632SOL    HW211711   2.159   2.039   1.223
  633SOL     OW11712   2.876   8.266   1.904
  633SOL    HW111713   2.802   8.241   1.841
  633SOL    HW211714   2.954   8.301   1.852
  634SOL     OW11715   3.908   2.278   1.416
  634SOL    HW111716   3.839   2.283   1.344
  634SOL    HW211717   3.933   2.183   1.432
  635SOL     OW11718   5.039   2.879   0.826
  635SOL    HW111719   4.990   2.893   0.912
  635SOL    HW211720   5.120   2.937   0.824
  636SOL     OW11721   2.805   9.122   1.892
  636SOL    HW111722   2.843   9.045   1.839
  636SOL    HW211723   2.755   9.086   1.971
  637SOL     OW11724   3.453   2.576   0.900
  637SOL    HW111725   3.411   2.490   0.870
  637SOL    HW211726   3.493   2.623   0.821
  638SOL     OW11727   4.445   1.920   1.082
  638SOL    HW111728   4.544   1.929   1.071
  638SOL    HW211729   4.400   2.001   1.047
  639SOL     OW11730   2.623   2.972   0.687
  639SOL    HW111731   2.624   2.894   0.624
  639SOL    HW211732   2.643   2.941   0.779
  640SOL     OW11733   2.835   8.604   2.297
  640SOL    HW111734   2.902   8.542   2.338
  640SOL    HW211735   2.866   8.632   2.206
  641SOL     OW11736   2.009   7.559   0.978
  641SOL    HW111737   2.024   7.461   0.986
  641SOL    HW211738   2.096   7.608   0.989
  642SOL     OW11739   3.609   3.139   0.837
  642SOL    HW111740   3.545   3.067   0.863
  642SOL    HW211741   3.566   3.228   0.851
  643SOL     OW11742   2.115   6.673   1.725
  643SOL    HW111743   2.096   6.654   1.822
  643SOL    HW211744   2.213   6.679   1.711
  644SOL     OW11745   2.921   6.357   1.137
  644SOL    HW111746   2.904   6.322   1.045
  644SOL    HW211747   2.890   6.290   1.204
  645SOL     OW11748   3.105   7.749   1.203
  645SOL    HW111749   3.200   7.743   1.235
  645SOL    HW211750   3.095   7.696   1.118
  646SOL     OW11751   2.250   0.743   0.959
  646SOL    HW111752   2.315   0.759   1.034
  646SOL    HW211753   2.299   0.740   0.872
  647SOL     OW11754   2.741   3.021   1.918
  647SOL    HW111755   2.704   2.980   2.002
  647SOL    HW211756   2.736   2.954   1.843
  648SOL     OW11757   1.864   7.067   1.749
  648SOL    HW111758   1.796   7.057   1.823
  648SOL    HW211759   1.922   7.146   1.768
  649SOL     OW11760   2.082   6.934   1.648
  649SOL    HW111761   2.090   6.840   1.682
  649SOL    HW211762   2.000   6.977   1.688
  650SOL     OW11763   1.965   0.506   1.557
  650SOL    HW111764   1.934   0.594   1.591
  650SOL    HW211765   2.020   0.460   1.626
  651SOL     OW11766   3.983   8.563   0.156
  651SOL    HW111767   3.963   8.537   0.062
  651SOL    HW211768   3.993   8.481   0.212
  652SOL     OW11769   2.898   2.449   1.495
  652SOL    HW111770   2.833   2.467   1.421
  652SOL    HW211771   2.858   2.474   1.583
  653SOL     OW11772   3.927   0.581   0.821
  653SOL    HW111773   3.837   0.622   0.837
  653SOL    HW211774   3.989   0.652   0.785
  654SOL     OW11775   4.797   2.217   0.295
  654SOL    HW111776   4.893   2.219   0.325
  654SOL    HW211777   4.755   2.132   0.325
  655SOL     OW11778   2.373   7.811   1.874
  655SOL    HW111779   2.426   7.856   1.945
  655SOL    HW211780   2.286   7.778   1.912
  656SOL     OW11781   2.910   8.229   2.168
  656SOL    HW111782   2.988   8.167   2.174
  656SOL    HW211783   2.893   8.252   2.072
  657SOL     OW11784   4.815   4.096   0.839
  657SOL    HW111785   4.719   4.105   0.812
  657SOL    HW211786   4.867   4.174   0.805
  658SOL     OW11787   2.258   5.579   1.541
  658SOL    HW111788   2.230   5.625   1.457
  658SOL    HW211789   2.356   5.559   1.536
  659SOL     OW11790   2.482   2.760   0.978
  659SOL    HW111791   2.570   2.797   0.947
  659SOL    HW211792   2.415   2.834   0.983
  660SOL     OW11793   2.823   4.330   1.998
  660SOL    HW111794   2.811   4.403   1.931
  660SOL    HW211795   2.783   4.358   2.086
  661SOL     OW11796   4.473   4.692   0.378
  661SOL    HW111797   4.548   4.663   0.437
  661SOL    HW211798   4.503   4.687   0.282
  662SOL     OW11799   3.058   7.735   1.696
  662SOL    HW111800   3.125   7.702   1.630
  662SOL    HW211801   2.967   7.736   1.655
  663SOL     OW11802   2.353   7.346   0.445
  663SOL    HW111803   2.287   7.286   0.488
  663SOL    HW211804   2.306   7.421   0.399
  664SOL     OW11805   2.280   1.742   1.215
  664SOL    HW111806   2.252   1.653   1.249
  664SOL    HW211807   2.362   1.772   1.264
  665SOL     OW11808   4.277   3.410   0.376
  665SOL    HW111809   4.275   3.344   0.451
  665SOL    HW211810   4.250   3.366   0.291
  666SOL     OW11811   2.135   1.986   2.097
  666SOL    HW111812   2.078   1.946   2.025
  666SOL    HW211813   2.083   1.991   2.182
  667SOL     OW11814   3.556   0.789   1.925
  667SOL    HW111815   3.485   0.857   1.906
  667SOL    HW211816   3.556   0.720   1.852
  668SOL     OW11817   4.902   2.667   1.142
  668SOL    HW111818   4.978   2.610   1.111
  668SOL    HW211819   4.816   2.618   1.127
  669SOL     OW11820   4.060   5.218   1.914
  669SOL    HW111821   4.032   5.164   1.993
  669SOL    HW211822   3.981   5.267   1.877
  670SOL     OW11823   2.756   8.585   1.252
  670SOL    HW111824   2.732   8.494   1.287
  670SOL    HW211825   2.749   8.652   1.326
  671SOL     OW11826   2.267   5.722   1.779
  671SOL    HW111827   2.240   5.672   1.696
  671SOL    HW211828   2.341   5.672   1.825
  672SOL     OW11829   3.551   1.677   0.950
  672SOL    HW111830   3.559   1.586   0.990
  672SOL    HW211831   3.642   1.710   0.924
  673SOL     OW11832   1.967   0.364   1.953
  673SOL    HW111833   1.886   0.418   1.930
  673SOL    HW211834   2.020   0.347   1.870
  674SOL     OW11835   3.976   8.672   0.744
  674SOL    HW111836   3.980   8.742   0.815
  674SOL    HW211837   3.891   8.681   0.693
  675SOL     OW11838   2.998   8.147   0.523
  675SOL    HW111839   2.957   8.216   0.583
  675SOL    HW211840   3.065   8.192   0.463
  676SOL     OW11841   3.348   1.119   0.683
  676SOL    HW111842   3.332   1.023   0.706
  676SOL    HW211843   3.374   1.126   0.587
  677SOL     OW11844   4.354   0.884   1.442
  677SOL    HW111845   4.258   0.875   1.468
  677SOL    HW211846   4.393   0.967   1.484
  678SOL     OW11847   4.647   2.200   1.041
  678SOL    HW111848   4.745   2.217   1.041
  678SOL    HW211849   4.610   2.217   1.132
  679SOL     OW11850   3.297   2.351   0.828
  679SOL    HW111851   3.292   2.256   0.799
  679SOL    HW211852   3.209   2.396   0.812
  680SOL     OW11853   2.362   1.708   0.603
  680SOL    HW111854   2.289   1.653   0.641
  680SOL    HW211855   2.354   1.711   0.504
  681SOL     OW11856   3.711   3.318   1.530
  681SOL    HW111857   3.679   3.316   1.436
  681SOL    HW211858   3.635   3.342   1.591
  682SOL     OW11859   4.549   2.469   0.665
  682SOL    HW111860   4.626   2.442   0.607
  682SOL    HW211861   4.522   2.392   0.723
  683SOL     OW11862   3.795   9.051   1.638
  683SOL    HW111863   3.823   9.028   1.545
  683SOL    HW211864   3.819   9.146   1.658
  684SOL     OW11865   3.040   2.217   1.524
  684SOL    HW111866   3.132   2.227   1.487
  684SOL    HW211867   2.989   2.302   1.510
  685SOL     OW11868   3.105   1.124   1.318
  685SOL    HW111869   3.192   1.144   1.273
  685SOL    HW211870   3.082   1.028   1.306
  686SOL     OW11871   3.491   8.732   0.732
  686SOL    HW111872   3.438   8.660   0.688
  686SOL    HW211873   3.433   8.811   0.749
  687SOL     OW11874   2.154   6.274   0.970
  687SOL    HW111875   2.069   6.315   0.938
  687SOL    HW211876   2.134   6.209   1.044
  688SOL     OW11877   4.670   2.606   2.083
  688SOL    HW111878   4.698   2.544   2.009
  688SOL    HW211879   4.751   2.648   2.123
  689SOL     OW11880   3.712   3.978   1.092
  689SOL    HW111881   3.798   3.932   1.069
  689SOL    HW211882   3.643   3.910   1.115
  690SOL     OW11883   3.262   3.297   0.279
  690SOL    HW111884   3.262   3.272   0.376
  690SOL    HW211885   3.251   3.214   0.224
  691SOL     OW11886   2.559   1.950   2.090
  691SOL    HW111887   2.480   1.999   2.054
  691SOL    HW211888   2.636   2.013   2.098
  692SOL     OW11889   3.324   9.618   0.312
  692SOL    HW111890   3.327   9.562   0.395
  692SOL    HW211891   3.260   9.578   0.247
  693SOL     OW11892   2.231   8.399   2.091
  693SOL    HW111893   2.238   8.499   2.096
  693SOL    HW211894   2.288   8.359   2.162
  694SOL     OW11895   3.452   3.474   1.136
  694SOL    HW111896   3.472   3.440   1.044
  694SOL    HW211897   3.355   3.497   1.143
  695SOL     OW11898   4.090   0.862   1.549
  695SOL    HW111899   4.011   0.868   1.610
  695SOL    HW211900   4.074   0.793   1.479
  696SOL     OW11901   2.657   7.997   1.312
  696SOL    HW111902   2.577   8.056   1.299
  696SOL    HW211903   2.736   8.038   1.267
  697SOL     OW11904   4.099   2.614   1.150
  697SOL    HW111905   4.142   2.531   1.117
  697SOL    HW211906   4.048   2.594   1.233
  698SOL     OW11907   2.805   0.739   0.652
  698SOL    HW111908   2.753   0.814   0.611
  698SOL    HW211909   2.857   0.692   0.582
  699SOL     OW11910   2.846   2.350   1.162
  699SOL    HW111911   2.780   2.293   1.211
  699SOL    HW211912   2.886   2.297   1.087
  700SOL     OW11913   4.048   3.615   2.127
  700SOL    HW111914   4.038   3.666   2.042
  700SOL    HW211915   3.992   3.657   2.198
  701SOL     OW11916   3.687   7.994   0.457
  701SOL    HW111917   3.645   7.963   0.542
  701SOL    HW211918   3.783   8.018   0.473
  702SOL     OW11919   3.266   0.858   0.743
  702SOL    HW111920   3.268   0.792   0.668
  702SOL    HW211921   3.171   0.885   0.761
  703SOL     OW11922   2.392   6.831   1.452
  703SOL    HW111923   2.374   6.760   1.521
  703SOL    HW211924   2.359   6.919   1.486
  704SOL     OW11925   2.789   0.593   1.319
  704SOL    HW111926   2.866   0.529   1.321
  704SOL    HW211927   2.816   0.678   1.365
  705SOL     OW11928   3.035   3.347   1.401
  705SOL    HW111929   2.942   3.327   1.432
  705SOL    HW211930   3.039   3.341   1.301
  706SOL     OW11931   3.373   2.453   2.285
  706SOL    HW111932   3.389   2.512   2.364
  706SOL    HW211933   3.442   2.473   2.215
  707SOL     OW11934   2.796   4.385   1.137
  707SOL    HW111935   2.866   4.363   1.205
  707SOL    HW211936   2.771   4.482   1.146
  708SOL     OW11937   3.133   3.470   0.718
  708SOL    HW111938   3.191   3.515   0.786
  708SOL    HW211939   3.075   3.538   0.673
  709SOL     OW11940   4.073   0.691   1.336
  709SOL    HW111941   4.035   0.601   1.317
  709SOL    HW211942   4.120   0.726   1.254
  710SOL     OW11943   1.957   0.932   0.395
  710SOL    HW111944   1.885   0.891   0.452
  710SOL    HW211945   2.043   0.935   0.446
  711SOL     OW11946   3.856   2.013   1.747
  711SOL    HW111947   3.887   2.014   1.841
  711SOL    HW211948   3.785   2.083   1.734
  712SOL     OW11949   3.081   9.622   0.565
  712SOL    HW111950   3.169   9.577   0.555
  712SOL    HW211951   3.009   9.564   0.527
  713SOL     OW11952   4.137   3.237   1.731
  713SOL    HW111953   4.122   3.309   1.799
  713SOL    HW211954   4.192   3.164   1.770
  714SOL     OW11955   3.042   0.013   0.435
  714SOL    HW111956   3.124   9.956   0.425
  714SOL    HW211957   2.964   9.954   0.457
  715SOL     OW11958   3.713   9.804   2.147
  715SOL    HW111959   3.757   9.811   2.237
  715SOL    HW211960   3.645   9.876   2.138
  716SOL     OW11961   3.056   4.302   2.235
  716SOL    HW111962   3.073   4.377   2.172
  716SOL    HW211963   3.115   4.224   2.210
  717SOL     OW11964   4.200   1.204   0.480
  717SOL    HW111965   4.288   1.176   0.442
  717SOL    HW211966   4.205   1.300   0.509
  718SOL     OW11967   2.795   3.755   2.129
  718SOL    HW111968   2.741   3.759   2.045
  718SOL    HW211969   2.849   3.671   2.131
  719SOL     OW11970   2.051   5.979   0.735
  719SOL    HW111971   2.019   5.925   0.658
  719SOL    HW211972   1.981   6.045   0.763
  720SOL     OW11973   2.705   3.351   2.254
  720SOL    HW111974   2.759   3.413   2.311
  720SOL    HW211975   2.766   3.292   2.202
  721SOL     OW11976   2.791   2.596   1.061
  721SOL    HW111977   2.821   2.509   1.102
  721SOL    HW211978   2.800   2.668   1.129
  722SOL     OW11979   3.526   3.061   2.174
  722SOL    HW111980   3.517   3.150   2.129
  722SOL    HW211981   3.584   3.001   2.119
  723SOL     OW11982   2.814   8.778   0.693
  723SOL    HW111983   2.907   8.749   0.670
  723SOL    HW211984   2.777   8.834   0.619
  724SOL     OW11985   4.486   4.283   0.434
  724SOL    HW111986   4.568   4.263   0.380
  724SOL    HW211987   4.406   4.283   0.374
  725SOL     OW11988   5.450   3.001   0.640
  725SOL    HW111989   5.421   2.987   0.545
  725SOL    HW211990   5.471   2.913   0.682
  726SOL     OW11991   3.847   3.372   1.153
  726SOL    HW111992   3.896   3.287   1.134
  726SOL    HW211993   3.763   3.352   1.203
  727SOL     OW11994   4.100   3.289   0.924
  727SOL    HW111995   4.195   3.279   0.951
  727SOL    HW211996   4.082   3.384   0.897
  728SOL     OW11997   2.091   7.802   1.464
  728SOL    HW111998   2.056   7.837   1.377
  728SOL    HW211999   2.167   7.739   1.447
  729SOL     OW12000   2.855   8.159   0.891
  729SOL    HW112001   2.882   8.219   0.816
  729SOL    HW212002   2.897   8.069   0.878
  730SOL     OW12003   3.346   5.571   0.446
  730SOL    HW112004   3.422   5.603   0.504
  730SOL    HW212005   3.355   5.473   0.430
  731SOL     OW12006   4.233   1.992   2.038
  731SOL    HW112007   4.317   1.988   1.983
  731SOL    HW212008   4.254   2.032   2.128
  732SOL     OW12009   2.898   3.486   2.029
  732SOL    HW112010   2.892   3.391   2.062
  732SOL    HW212011   2.852   3.492   1.940
  733SOL     OW12012   3.198   0.521   1.509
  733SOL    HW112013   3.137   0.494   1.435
  733SOL    HW212014   3.171   0.474   1.593
  734SOL     OW12015   3.415   5.301   0.423
  734SOL    HW112016   3.409   5.205   0.396
  734SOL    HW212017   3.501   5.340   0.392
  735SOL     OW12018   4.268   3.217   0.579
  735SOL    HW112019   4.335   3.268   0.632
  735SOL    HW212020   4.285   3.119   0.589
  736SOL     OW12021   3.031   0.518   1.050
  736SOL    HW112022   3.094   0.514   0.972
  736SOL    HW212023   2.964   0.444   1.042
  737SOL     OW12024   2.339   9.126   1.109
  737SOL    HW112025   2.338   9.106   1.207
  737SOL    HW212026   2.396   9.060   1.061
  738SOL     OW12027   3.193   0.754   2.124
  738SOL    HW112028   3.258   0.683   2.098
  738SOL    HW212029   3.111   0.712   2.162
  739SOL     OW12030   4.727   2.034   0.781
  739SOL    HW112031   4.702   2.014   0.876
  739SOL    HW212032   4.644   2.037   0.725
  740SOL     OW12033   2.866   0.808   1.472
  740SOL    HW112034   2.965   0.810   1.490
  740SOL    HW212035   2.817   0.798   1.559
  741SOL     OW12036   2.614   5.769   2.146
  741SOL    HW112037   2.612   5.673   2.172
  741SOL    HW212038   2.698   5.812   2.179
  742SOL     OW12039   4.519   2.068   0.609
  742SOL    HW112040   4.573   2.065   0.525
  742SOL    HW212041   4.429   2.029   0.592
  743SOL     OW12042   2.798   2.486   1.748
  743SOL    HW112043   2.796   2.394   1.787
  743SOL    HW212044   2.742   2.547   1.803
  744SOL     OW12045   4.831   3.665   0.830
  744SOL    HW112046   4.755   3.657   0.894
  744SOL    HW212047   4.886   3.746   0.854
  745SOL     OW12048   3.370   0.965   1.851
  745SOL    HW112049   3.401   1.049   1.807
  745SOL    HW212050   3.272   0.970   1.869
  746SOL     OW12051   3.189   8.631   1.019
  746SOL    HW112052   3.173   8.679   0.933
  746SOL    HW212053   3.259   8.680   1.071
  747SOL     OW12054   2.962   0.221   1.584
  747SOL    HW112055   3.011   0.283   1.645
  747SOL    HW212056   2.864   0.225   1.604
  748SOL     OW12057   4.988   2.447   0.757
  748SOL    HW112058   4.956   2.355   0.735
  748SOL    HW212059   5.065   2.441   0.821
  749SOL     OW12060   3.523   1.955   1.318
  749SOL    HW112061   3.509   1.952   1.219
  749SOL    HW212062   3.436   1.938   1.365
  750SOL     OW12063   5.094   2.466   1.675
  750SOL    HW112064   5.143   2.537   1.623
  750SOL    HW212065   5.076   2.388   1.615
  751SOL     OW12066   5.249   3.351   1.431
  751SOL    HW112067   5.299   3.425   1.386
  751SOL    HW212068   5.184   3.389   1.497
  752SOL     OW12069   2.867   3.091   0.654
  752SOL    HW112070   2.776   3.049   0.662
  752SOL    HW212071   2.932   3.039   0.710
  753SOL     OW12072   2.557   4.728   1.078
  753SOL    HW112073   2.631   4.699   1.138
  753SOL    HW212074   2.469   4.714   1.124
  754SOL     OW12075   2.401   0.719   0.732
  754SOL    HW112076   2.429   0.755   0.643
  754SOL    HW212077   2.478   0.668   0.773
  755SOL     OW12078   4.278   0.798   1.757
  755SOL    HW112079   4.350   0.861   1.782
  755SOL    HW212080   4.237   0.827   1.670
  756SOL     OW12081   4.031   9.137   0.630
  756SOL    HW112082   3.955   9.077   0.607
  756SOL    HW212083   4.057   9.122   0.726
  757SOL     OW12084   2.178   5.348   0.642
  757SOL    HW112085   2.164   5.404   0.724
  757SOL    HW212086   2.091   5.337   0.594
  758SOL     OW12087   3.035   9.917   0.996
  758SOL    HW112088   3.038   9.844   0.928
  758SOL    HW212089   3.037   9.878   1.088
  759SOL     OW12090   3.256   8.565   2.183
  759SOL    HW112091   3.345   8.559   2.227
  759SOL    HW212092   3.189   8.511   2.234
  760SOL     OW12093   4.772   2.847   1.509
  760SOL    HW112094   4.775   2.938   1.467
  760SOL    HW212095   4.740   2.855   1.604
  761SOL     OW12096   4.057   3.555   0.862
  761SOL    HW112097   3.981   3.588   0.917
  761SOL    HW212098   4.133   3.621   0.866
  762SOL     OW12099   4.129   2.895   0.501
  762SOL    HW112100   4.067   2.891   0.579
  762SOL    HW212101   4.223   2.905   0.533
  763SOL     OW12102   2.002   9.393   0.569
  763SOL    HW112103   1.923   9.452   0.585
  763SOL    HW212104   2.001   9.362   0.473
  764SOL     OW12105   3.936   3.168   1.547
  764SOL    HW112106   3.998   3.193   1.621
  764SOL    HW212107   3.854   3.225   1.551
  765SOL     OW12108   4.314   4.816   0.557
  765SOL    HW112109   4.371   4.813   0.639
  765SOL    HW212110   4.365   4.780   0.479
  766SOL     OW12111   4.691   3.960   1.061
  766SOL    HW112112   4.620   4.011   1.110
  766SOL    HW212113   4.736   4.020   0.995
  767SOL     OW12114   3.550   0.286   2.303
  767SOL    HW112115   3.469   0.257   2.254
  767SOL    HW212116   3.527   0.303   2.399
  768SOL     OW12117   2.523   8.340   0.718
  768SOL    HW112118   2.528   8.287   0.802
  768SOL    HW212119   2.584   8.419   0.724
  769SOL     OW12120   3.770   4.727   1.142
  769SOL    HW112121   3.818   4.739   1.056
  769SOL    HW212122   3.686   4.675   1.127
  770SOL     OW12123   2.307   5.882   0.692
  770SOL    HW112124   2.323   5.824   0.772
  770SOL    HW212125   2.216   5.923   0.698
  771SOL     OW12126   4.670   1.868   1.321
  771SOL    HW112127   4.694   1.877   1.224
  771SOL    HW212128   4.708   1.945   1.372
  772SOL     OW12129   3.539   2.693   0.666
  772SOL    HW112130   3.587   2.779   0.646
  772SOL    HW212131   3.460   2.684   0.605
  773SOL     OW12132   3.460   3.922   0.571
  773SOL    HW112133   3.552   3.942   0.538
  773SOL    HW212134   3.447   3.823   0.574
  774SOL     OW12135   3.152   0.160   0.992
  774SOL    HW112136   3.186   0.180   0.900
  774SOL    HW212137   3.112   0.068   0.994
  775SOL     OW12138   2.461   1.091   1.358
  775SOL    HW112139   2.546   1.040   1.346
  775SOL    HW212140   2.471   1.182   1.317
  776SOL     OW12141   2.074   2.547   0.787
  776SOL    HW112142   2.063   2.630   0.733
  776SOL    HW212143   2.165   2.546   0.829
  777SOL     OW12144   1.852   6.145   0.812
  777SOL    HW112145   1.875   6.239   0.836
  777SOL    HW212146   1.753   6.136   0.805
  778SOL     OW12147   2.918   0.185   1.320
  778SOL    HW112148   2.830   0.139   1.305
  778SOL    HW212149   2.939   0.186   1.418
  779SOL     OW12150   3.420   0.621   0.808
  779SOL    HW112151   3.514   0.626   0.841
  779SOL    HW212152   3.382   0.713   0.802
  780SOL     OW12153   5.497   3.353   0.976
  780SOL    HW112154   5.446   3.438   0.989
  780SOL    HW212155   5.497   3.329   0.879
  781SOL     OW12156   4.517   2.813   1.995
  781SOL    HW112157   4.424   2.778   1.982
  781SOL    HW212158   4.575   2.740   2.031
  782SOL     OW12159   1.671   3.089   1.029
  782SOL    HW112160   1.695   3.117   1.122
  782SOL    HW212161   1.732   3.016   0.998
  783SOL     OW12162   2.711   3.229   0.458
  783SOL    HW112163   2.651   3.158   0.421
  783SOL    HW212164   2.783   3.187   0.513
  784SOL     OW12165   3.477   3.377   1.667
  784SOL    HW112166   3.479   3.339   1.760
  784SOL    HW212167   3.395   3.344   1.620
  785SOL     OW12168   2.905   1.674   0.733
  785SOL    HW112169   2.993   1.630   0.718
  785SOL    HW212170   2.833   1.605   0.742
  786SOL     OW12171   2.015   8.658   0.443
  786SOL    HW112172   1.938   8.712   0.476
  786SOL    HW212173   1.981   8.570   0.409
  787SOL     OW12174   2.735   5.371   1.441
  787SOL    HW112175   2.674   5.292   1.437
  787SOL    HW212176   2.789   5.376   1.357
  788SOL     OW12177   2.575   5.501   2.225
  788SOL    HW112178   2.579   5.471   2.320
  788SOL    HW212179   2.479   5.513   2.198
  789SOL     OW12180   2.669   0.242   1.832
  789SOL    HW112181   2.667   0.227   1.734
  789SOL    HW212182   2.582   0.213   1.872
  790SOL     OW12183   3.363   1.241   0.945
  790SOL    HW112184   3.265   1.259   0.955
  790SOL    HW212185   3.380   1.199   0.856
  791SOL     OW12186   3.884   2.941   2.174
  791SOL    HW112187   3.867   2.887   2.257
  791SOL    HW212188   3.806   2.930   2.112
  792SOL     OW12189   2.447   5.703   1.165
  792SOL    HW112190   2.515   5.629   1.173
  792SOL    HW212191   2.490   5.789   1.191
  793SOL     OW12192   3.174   4.490   2.048
  793SOL    HW112193   3.265   4.516   2.078
  793SOL    HW212194   3.180   4.407   1.991
  794SOL     OW12195   3.471   1.931   1.053
  794SOL    HW112196   3.494   1.844   1.010
  794SOL    HW212197   3.529   2.003   1.016
  795SOL     OW12198   2.004   0.613   1.294
  795SOL    HW112199   2.001   0.561   1.379
  795SOL    HW212200   1.969   0.706   1.310
  796SOL     OW12201   1.811   6.960   1.494
  796SOL    HW112202   1.861   7.017   1.428
  796SOL    HW212203   1.815   7.003   1.584
  797SOL     OW12204   3.715   3.973   0.507
  797SOL    HW112205   3.761   3.886   0.492
  797SOL    HW212206   3.755   4.018   0.587
  798SOL     OW12207   1.987   2.010   2.332
  798SOL    HW112208   2.030   2.011   2.422
  798SOL    HW212209   1.913   1.943   2.331
  799SOL     OW12210   2.273   2.672   1.235
  799SOL    HW112211   2.372   2.684   1.246
  799SOL    HW212212   2.254   2.576   1.214
  800SOL     OW12213   2.708   7.019   0.427
  800SOL    HW112214   2.660   7.026   0.514
  800SOL    HW212215   2.660   7.073   0.357
  801SOL     OW12216   2.925   4.263   0.926
  801SOL    HW112217   2.880   4.305   1.005
  801SOL    HW212218   2.916   4.323   0.847
  802SOL     OW12219   2.009   1.411   0.343
  802SOL    HW112220   2.010   1.511   0.335
  802SOL    HW212221   1.915   1.379   0.346
  803SOL     OW12222   2.407   3.022   2.010
  803SOL    HW112223   2.486   2.985   2.058
  803SOL    HW212224   2.354   3.079   2.073
  804SOL     OW12225   2.604   7.304   0.541
  804SOL    HW112226   2.602   7.218   0.591
  804SOL    HW212227   2.514   7.323   0.503
  805SOL     OW12228   2.305   2.552   0.923
  805SOL    HW112229   2.279   2.507   1.009
  805SOL    HW212230   2.369   2.626   0.942
  806SOL     OW12231   5.147   3.564   0.533
  806SOL    HW112232   5.068   3.594   0.479
  806SOL    HW212233   5.116   3.533   0.623
  807SOL     OW12234   4.178   0.931   2.173
  807SOL    HW112235   4.103   0.913   2.236
  807SOL    HW212236   4.147   0.918   2.079
  808SOL     OW12237   3.887   3.801   2.260
  808SOL    HW112238   3.821   3.814   2.334
  808SOL    HW212239   3.863   3.861   2.184
  809SOL     OW12240   3.394   1.564   1.901
  809SOL    HW112241   3.320   1.631   1.901
  809SOL    HW212242   3.433   1.558   1.809
  810SOL     OW12243   4.331   4.753   1.152
  810SOL    HW112244   4.383   4.669   1.166
  810SOL    HW212245   4.301   4.789   1.240
  811SOL     OW12246   2.515   5.342   0.997
  811SOL    HW112247   2.513   5.401   0.917
  811SOL    HW212248   2.562   5.256   0.974
  812SOL     OW12249   2.469   5.200   1.913
  812SOL    HW112250   2.458   5.102   1.897
  812SOL    HW212251   2.440   5.250   1.831
  813SOL     OW12252   4.473   1.186   0.707
  813SOL    HW112253   4.483   1.119   0.634
  813SOL    HW212254   4.505   1.275   0.674
  814SOL     OW12255   2.725   0.903   0.424
  814SOL    HW112256   2.750   0.832   0.359
  814SOL    HW212257   2.806   0.955   0.450
  815SOL     OW12258   2.594   6.817   1.277
  815SOL    HW112259   2.593   6.744   1.209
  815SOL    HW212260   2.511   6.813   1.333
  816SOL     OW12261   1.972   8.329   2.150
  816SOL    HW112262   2.067   8.351   2.127
  816SOL    HW212263   1.917   8.413   2.147
  817SOL     OW12264   3.012   2.935   0.841
  817SOL    HW112265   3.036   2.994   0.919
  817SOL    HW212266   3.018   2.839   0.869
  818SOL     OW12267   2.279   2.627   1.827
  818SOL    HW112268   2.266   2.603   1.923
  818SOL    HW212269   2.344   2.703   1.821
  819SOL     OW12270   3.993   1.332   1.062
  819SOL    HW112271   4.026   1.241   1.089
  819SOL    HW212272   4.068   1.398   1.068
  820SOL     OW12273   3.579   2.148   1.922
  820SOL    HW112274   3.494   2.194   1.899
  820SOL    HW212275   3.630   2.203   1.988
  821SOL     OW12276   2.491   2.320   0.439
  821SOL    HW112277   2.511   2.416   0.417
  821SOL    HW212278   2.393   2.305   0.440
  822SOL     OW12279   3.041   5.077   1.440
  822SOL    HW112280   3.092   5.157   1.408
  822SOL    HW212281   2.986   5.103   1.520
  823SOL     OW12282   2.236   1.489   1.295
  823SOL    HW112283   2.158   1.427   1.305
  823SOL    HW212284   2.321   1.437   1.301
  824SOL     OW12285   2.138   1.569   0.692
  824SOL    HW112286   2.090   1.649   0.657
  824SOL    HW212287   2.101   1.544   0.781
  825SOL     OW12288   2.009   0.975   2.176
  825SOL    HW112289   2.100   0.934   2.167
  825SOL    HW212290   1.941   0.910   2.143
  826SOL     OW12291   2.323   8.765   1.582
  826SOL    HW112292   2.311   8.718   1.494
  826SOL    HW212293   2.378   8.708   1.643
  827SOL     OW12294   2.832   2.619   2.304
  827SOL    HW112295   2.910   2.595   2.363
  827SOL    HW212296   2.865   2.641   2.213
  828SOL     OW12297   1.761   7.784   0.629
  828SOL    HW112298   1.733   7.841   0.707
  828SOL    HW212299   1.840   7.729   0.655
  829SOL     OW12300   2.090   4.238   1.782
  829SOL    HW112301   2.012   4.198   1.829
  829SOL    HW212302   2.173   4.186   1.806
  830SOL     OW12303   1.801   9.551   0.657
  830SOL    HW112304   1.795   9.650   0.655
  830SOL    HW212305   1.791   9.519   0.751
  831SOL     OW12306   4.297   2.125   0.972
  831SOL    HW112307   4.216   2.105   0.917
  831SOL    HW212308   4.363   2.176   0.917
  832SOL     OW12309   2.147   5.513   0.865
  832SOL    HW112310   2.147   5.460   0.950
  832SOL    HW212311   2.202   5.596   0.877
  833SOL     OW12312   2.635   8.185   2.151
  833SOL    HW112313   2.733   8.187   2.171
  833SOL    HW212314   2.603   8.276   2.125
  834SOL     OW12315   3.323   0.189   2.182
  834SOL    HW112316   3.291   0.103   2.222
  834SOL    HW212317   3.246   0.235   2.137
  835SOL     OW12318   2.330   8.619   1.342
  835SOL    HW112319   2.344   8.590   1.247
  835SOL    HW212320   2.323   8.538   1.401
  836SOL     OW12321   3.110   3.301   2.304
  836SOL    HW112322   3.110   3.218   2.248
  836SOL    HW212323   3.199   3.345   2.299
  837SOL     OW12324   3.825   1.606   1.339
  837SOL    HW112325   3.756   1.550   1.385
  837SOL    HW212326   3.917   1.579   1.370
  838SOL     OW12327   2.984   2.856   1.684
  838SOL    HW112328   3.009   2.928   1.619
  838SOL    HW212329   3.049   2.780   1.676
  839SOL     OW12330   3.510   0.684   2.278
  839SOL    HW112331   3.604   0.687   2.244
  839SOL    HW212332   3.454   0.627   2.217
  840SOL     OW12333   2.262   0.328   0.718
  840SOL    HW112334   2.172   0.356   0.748
  840SOL    HW212335   2.266   0.330   0.618
  841SOL     OW12336   2.854   7.477   0.878
  841SOL    HW112337   2.837   7.469   0.780
  841SOL    HW212338   2.826   7.392   0.923
  842SOL     OW12339   3.482   8.510   1.198
  842SOL    HW112340   3.451   8.605   1.193
  842SOL    HW212341   3.417   8.451   1.151
  843SOL     OW12342   2.832   8.911   2.285
  843SOL    HW112343   2.829   8.813   2.300
  843SOL    HW212344   2.922   8.946   2.311
  844SOL     OW12345   3.986   0.606   0.503
  844SOL    HW112346   3.996   0.672   0.429
  844SOL    HW212347   4.034   0.639   0.584
  845SOL     OW12348   2.595   4.694   0.407
  845SOL    HW112349   2.532   4.707   0.330
  845SOL    HW212350   2.549   4.717   0.492
  846SOL     OW12351   3.131   3.991   0.694
  846SOL    HW112352   3.039   3.991   0.656
  846SOL    HW212353   3.192   3.938   0.635
  847SOL     OW12354   3.717   4.213   1.635
  847SOL    HW112355   3.775   4.200   1.715
  847SOL    HW212356   3.743   4.149   1.563
  848SOL     OW12357   2.274   0.112   0.894
  848SOL    HW112358   2.289   0.186   0.828
  848SOL    HW212359   2.207   0.048   0.858
  849SOL     OW12360   2.050   7.023   0.927
  849SOL    HW112361   1.988   7.049   0.853
  849SOL    HW212362   1.998   6.980   1.000
  850SOL     OW12363   2.678   9.582   1.946
  850SOL    HW112364   2.635   9.645   1.880
  850SOL    HW212365   2.690   9.493   1.903
  851SOL     OW12366   3.055   1.816   0.336
  851SOL    HW112367   3.109   1.892   0.300
  851SOL    HW212368   3.020   1.840   0.427
  852SOL     OW12369   5.403   3.126   1.457
  852SOL    HW112370   5.348   3.046   1.477
  852SOL    HW212371   5.344   3.207   1.452
  853SOL     OW12372   2.462   2.977   1.493
  853SOL    HW112373   2.442   2.995   1.397
  853SOL    HW212374   2.503   2.886   1.502
  854SOL     OW12375   2.230   2.566   0.363
  854SOL    HW112376   2.176   2.611   0.434
  854SOL    HW212377   2.221   2.467   0.372
  855SOL     OW12378   4.891   3.328   1.469
  855SOL    HW112379   4.871   3.353   1.374
  855SOL    HW212380   4.954   3.395   1.508
  856SOL     OW12381   4.298   1.265   1.346
  856SOL    HW112382   4.219   1.212   1.378
  856SOL    HW212383   4.320   1.240   1.252
  857SOL     OW12384   2.665   5.374   2.001
  857SOL    HW112385   2.641   5.419   2.086
  857SOL    HW212386   2.592   5.311   1.975
  858SOL     OW12387   2.613   8.508   1.032
  858SOL    HW112388   2.669   8.543   1.108
  858SOL    HW212389   2.516   8.522   1.052
  859SOL     OW12390   4.091   0.041   0.472
  859SOL    HW112391   4.168   0.057   0.410
  859SOL    HW212392   4.103   0.096   0.554
  860SOL     OW12393   2.626   5.610   0.523
  860SOL    HW112394   2.534   5.640   0.501
  860SOL    HW212395   2.629   5.577   0.618
  861SOL     OW12396   1.906   4.097   1.930
  861SOL    HW112397   1.830   4.034   1.915
  861SOL    HW212398   1.952   4.073   2.016
  862SOL     OW12399   3.105   6.124   1.294
  862SOL    HW112400   3.114   6.042   1.351
  862SOL    HW212401   3.088   6.203   1.353
  863SOL     OW12402   2.441   8.160   1.264
  863SOL    HW112403   2.375   8.135   1.334
  863SOL    HW212404   2.427   8.103   1.183
  864SOL     OW12405   2.281   0.011   2.244
  864SOL    HW112406   2.380   0.013   2.234
  864SOL    HW212407   2.246   9.926   2.203
  865SOL     OW12408   2.310   5.729   0.927
  865SOL    HW112409   2.370   5.706   1.003
  865SOL    HW212410   2.255   5.809   0.950
  866SOL     OW12411   4.541   4.325   2.162
  866SOL    HW112412   4.550   4.413   2.208
  866SOL    HW212413   4.471   4.271   2.207
  867SOL     OW12414   3.321   4.880   1.671
  867SOL    HW112415   3.295   4.830   1.589
  867SOL    HW212416   3.246   4.939   1.700
  868SOL     OW12417   3.851   4.749   0.629
  868SOL    HW112418   3.756   4.742   0.601
  868SOL    HW212419   3.880   4.844   0.627
  869SOL     OW12420   3.370   7.886   1.031
  869SOL    HW112421   3.355   7.979   1.065
  869SOL    HW212422   3.339   7.880   0.936
  870SOL     OW12423   4.229   1.203   1.909
  870SOL    HW112424   4.276   1.115   1.922
  870SOL    HW212425   4.288   1.264   1.856
  871SOL     OW12426   3.083   0.281   2.062
  871SOL    HW112427   3.029   0.215   2.011
  871SOL    HW212428   3.075   0.371   2.018
  872SOL     OW12429   2.334   7.383   0.860
  872SOL    HW112430   2.336   7.466   0.804
  872SOL    HW212431   2.393   7.395   0.940
  873SOL     OW12432   4.072   2.519   2.262
  873SOL    HW112433   4.053   2.519   2.360
  873SOL    HW212434   4.153   2.463   2.244
  874SOL     OW12435   2.527   5.521   1.546
  874SOL    HW112436   2.553   5.607   1.590
  874SOL    HW212437   2.605   5.483   1.498
  875SOL     OW12438   2.121   6.366   1.293
  875SOL    HW112439   2.203   6.310   1.298
  875SOL    HW212440   2.131   6.445   1.354
  876SOL     OW12441   2.425   8.886   2.072
  876SOL    HW112442   2.465   8.806   2.027
  876SOL    HW212443   2.498   8.952   2.092
  877SOL     OW12444   2.442   9.856   0.422
  877SOL    HW112445   2.454   9.955   0.410
  877SOL    HW212446   2.393   9.819   0.343
  878SOL     OW12447   4.355   1.810   0.766
  878SOL    HW112448   4.285   1.806   0.838
  878SOL    HW212449   4.320   1.863   0.689
  879SOL     OW12450   2.632   7.031   1.465
  879SOL    HW112451   2.732   7.035   1.474
  879SOL    HW212452   2.608   6.961   1.398
  880SOL     OW12453   2.933   8.500   0.456
  880SOL    HW112454   2.839   8.532   0.441
  880SOL    HW212455   2.965   8.453   0.374
  881SOL     OW12456   3.766   9.933   1.757
  881SOL    HW112457   3.809   9.926   1.666
  881SOL    HW212458   3.769   9.843   1.801
  882SOL     OW12459   2.648   0.187   1.021
  882SOL    HW112460   2.594   0.240   0.955
  882SOL    HW212461   2.742   0.219   1.021
  883SOL     OW12462   2.190   5.850   2.013
  883SOL    HW112463   2.200   5.812   1.921
  883SOL    HW212464   2.273   5.901   2.037
  884SOL     OW12465   2.324   5.261   2.137
  884SOL    HW112466   2.319   5.361   2.134
  884SOL    HW212467   2.378   5.228   2.059
  885SOL     OW12468   1.814   2.183   0.795
  885SOL    HW112469   1.907   2.209   0.817
  885SOL    HW212470   1.814   2.094   0.749
  886SOL     OW12471   3.567   4.195   0.983
  886SOL    HW112472   3.633   4.125   1.009
  886SOL    HW212473   3.615   4.273   0.943
  887SOL     OW12474   2.402   6.977   1.999
  887SOL    HW112475   2.477   7.030   1.959
  887SOL    HW212476   2.439   6.909   2.061
  888SOL     OW12477   3.830   4.154   1.266
  888SOL    HW112478   3.834   4.104   1.352
  888SOL    HW212479   3.794   4.093   1.194
  889SOL     OW12480   2.827   7.646   0.375
  889SOL    HW112481   2.737   7.610   0.349
  889SOL    HW212482   2.821   7.745   0.385
  890SOL     OW12483   2.798   0.859   1.065
  890SOL    HW112484   2.728   0.921   1.031
  890SOL    HW212485   2.767   0.764   1.054
  891SOL     OW12486   2.975   6.422   0.310
  891SOL    HW112487   2.967   6.469   0.398
  891SOL    HW212488   2.955   6.325   0.322
  892SOL     OW12489   4.487   2.251   0.818
  892SOL    HW112490   4.554   2.236   0.891
  892SOL    HW212491   4.504   2.186   0.743
  893SOL     OW12492   2.097   5.476   2.403
  893SOL    HW112493   2.112   5.534   2.323
  893SOL    HW212494   2.101   5.380   2.376
  894SOL     OW12495   3.504   9.216   1.493
  894SOL    HW112496   3.543   9.136   1.448
  894SOL    HW212497   3.528   9.299   1.442
  895SOL     OW12498   3.594   9.671   0.308
  895SOL    HW112499   3.641   9.641   0.225
  895SOL    HW212500   3.496   9.650   0.301
  896SOL     OW12501   2.273   3.073   0.431
  896SOL    HW112502   2.271   3.173   0.431
  896SOL    HW212503   2.368   3.042   0.423
  897SOL     OW12504   1.931   5.332   0.511
  897SOL    HW112505   1.957   5.240   0.483
  897SOL    HW212506   1.881   5.377   0.437
  898SOL     OW12507   4.398   2.637   0.512
  898SOL    HW112508   4.460   2.702   0.468
  898SOL    HW212509   4.451   2.572   0.566
  899SOL     OW12510   3.925   8.666   1.389
  899SOL    HW112511   3.925   8.574   1.351
  899SOL    HW212512   3.919   8.661   1.488
  900SOL     OW12513   2.579   5.144   1.350
  900SOL    HW112514   2.500   5.186   1.306
  900SOL    HW212515   2.638   5.103   1.281
  901SOL     OW12516   3.654   5.397   0.321
  901SOL    HW112517   3.641   5.437   0.230
  901SOL    HW212518   3.707   5.460   0.378
  902SOL     OW12519   1.722   7.931   0.861
  902SOL    HW112520   1.794   7.999   0.877
  902SOL    HW212521   1.637   7.963   0.904
  903SOL     OW12522   4.361   2.436   1.952
  903SOL    HW112523   4.330   2.412   2.044
  903SOL    HW212524   4.360   2.535   1.941
  904SOL     OW12525   2.281   2.175   1.235
  904SOL    HW112526   2.353   2.121   1.192
  904SOL    HW212527   2.314   2.212   1.322
  905SOL     OW12528   3.688   4.734   1.750
  905SOL    HW112529   3.706   4.645   1.709
  905SOL    HW212530   3.599   4.732   1.796
  906SOL     OW12531   2.664   0.102   1.285
  906SOL    HW112532   2.600   0.027   1.303
  906SOL    HW212533   2.647   0.139   1.194
  907SOL     OW12534   4.158   4.633   2.030
  907SOL    HW112535   4.067   4.660   2.061
  907SOL    HW212536   4.225   4.652   2.101
  908SOL     OW12537   3.884   8.732   1.120
  908SOL    HW112538   3.829   8.652   1.095
  908SOL    HW212539   3.906   8.727   1.217
  909SOL     OW12540   2.030   2.742   1.825
  909SOL    HW112541   2.026   2.839   1.801
  909SOL    HW212542   2.122   2.707   1.808
  910SOL     OW12543   3.995   3.256   0.570
  910SOL    HW112544   4.095   3.249   0.575
  910SOL    HW212545   3.955   3.213   0.650
  911SOL     OW12546   2.906   4.078   1.941
  911SOL    HW112547   2.900   4.176   1.962
  911SOL    HW212548   2.817   4.035   1.956
  912SOL     OW12549   4.292   3.040   1.841
  912SOL    HW112550   4.366   3.068   1.902
  912SOL    HW212551   4.220   2.995   1.895
  913SOL     OW12552   3.089   1.285   0.960
  913SOL    HW112553   3.055   1.364   1.011
  913SOL    HW212554   3.013   1.222   0.941
  914SOL     OW12555   2.094   8.003   1.896
  914SOL    HW112556   2.047   7.996   1.808
  914SOL    HW212557   2.117   7.912   1.929
  915SOL     OW12558   3.290   9.108   1.792
  915SOL    HW112559   3.329   9.144   1.877
  915SOL    HW212560   3.209   9.161   1.768
  916SOL     OW12561   1.944   1.604   1.572
  916SOL    HW112562   1.980   1.693   1.599
  916SOL    HW212563   2.014   1.534   1.582
  917SOL     OW12564   2.427   3.519   0.278
  917SOL    HW112565   2.361   3.455   0.317
  917SOL    HW212566   2.484   3.471   0.211
  918SOL     OW12567   2.813   3.743   1.239
  918SOL    HW112568   2.762   3.799   1.303
  918SOL    HW212569   2.897   3.790   1.213
  919SOL     OW12570   3.691   2.854   1.205
  919SOL    HW112571   3.654   2.761   1.208
  919SOL    HW212572   3.743   2.867   1.120
  920SOL     OW12573   3.161   3.589   1.448
  920SOL    HW112574   3.173   3.603   1.546
  920SOL    HW212575   3.106   3.507   1.433
  921SOL     OW12576   2.163   0.713   0.584
  921SOL    HW112577   2.191   0.770   0.507
  921SOL    HW212578   2.239   0.704   0.649
  922SOL     OW12579   3.312   2.869   1.971
  922SOL    HW112580   3.330   2.854   2.068
  922SOL    HW212581   3.213   2.872   1.955
  923SOL     OW12582   5.249   3.045   0.823
  923SOL    HW112583   5.289   3.076   0.909
  923SOL    HW212584   5.322   3.036   0.754
  924SOL     OW12585   2.748   3.264   1.364
  924SOL    HW112586   2.688   3.246   1.442
  924SOL    HW212587   2.724   3.352   1.323
  925SOL     OW12588   3.937   9.167   2.339
  925SOL    HW112589   3.988   9.215   2.410
  925SOL    HW212590   3.917   9.230   2.264
  926SOL     OW12591   2.580   5.753   1.680
  926SOL    HW112592   2.527   5.834   1.655
  926SOL    HW212593   2.674   5.780   1.701
  927SOL     OW12594   3.415   9.172   0.363
  927SOL    HW112595   3.315   9.173   0.372
  927SOL    HW212596   3.439   9.192   0.268
  928SOL     OW12597   4.227   4.651   1.564
  928SOL    HW112598   4.217   4.696   1.653
  928SOL    HW212599   4.286   4.571   1.574
  929SOL     OW12600   2.158   2.957   2.283
  929SOL    HW112601   2.119   2.925   2.369
  929SOL    HW212602   2.123   2.901   2.208
  930SOL     OW12603   3.490   0.077   0.436
  930SOL    HW112604   3.545   9.999   0.466
  930SOL    HW212605   3.543   0.161   0.442
  931SOL     OW12606   3.366   4.406   1.690
  931SOL    HW112607   3.269   4.388   1.673
  931SOL    HW212608   3.397   4.479   1.629
  932SOL     OW12609   2.778   7.728   0.963
  932SOL    HW112610   2.807   7.637   0.935
  932SOL    HW212611   2.745   7.725   1.057
  933SOL     OW12612   3.176   5.299   1.071
  933SOL    HW112613   3.094   5.293   1.014
  933SOL    HW212614   3.247   5.349   1.022
  934SOL     OW12615   2.989   4.324   1.311
  934SOL    HW112616   2.976   4.254   1.382
  934SOL    HW212617   3.080   4.316   1.272
  935SOL     OW12618   2.007   3.841   1.214
  935SOL    HW112619   1.945   3.770   1.178
  935SOL    HW212620   2.080   3.797   1.267
  936SOL     OW12621   2.017   2.385   0.568
  936SOL    HW112622   2.016   2.448   0.646
  936SOL    HW212623   1.929   2.389   0.521
  937SOL     OW12624   3.507   9.999   1.797
  937SOL    HW112625   3.485   9.989   1.894
  937SOL    HW212626   3.606   9.991   1.784
  938SOL     OW12627   3.985   4.535   1.494
  938SOL    HW112628   3.977   4.545   1.395
  938SOL    HW212629   4.065   4.584   1.526
  939SOL     OW12630   3.124   0.381   1.734
  939SOL    HW112631   3.101   0.432   1.817
  939SOL    HW212632   3.202   0.321   1.753
  940SOL     OW12633   2.142   8.259   0.433
  940SOL    HW112634   2.152   8.179   0.373
  940SOL    HW212635   2.070   8.318   0.396
  941SOL     OW12636   2.517   0.634   1.382
  941SOL    HW112637   2.613   0.608   1.370
  941SOL    HW212638   2.498   0.649   1.479
  942SOL     OW12639   2.711   1.249   1.095
  942SOL    HW112640   2.673   1.341   1.082
  942SOL    HW212641   2.779   1.252   1.169
  943SOL     OW12642   2.131   5.604   0.417
  943SOL    HW112643   2.110   5.538   0.345
  943SOL    HW212644   2.079   5.581   0.499
  944SOL     OW12645   4.249   1.992   1.289
  944SOL    HW112646   4.335   1.959   1.252
  944SOL    HW212647   4.261   2.013   1.386
  945SOL     OW12648   2.038   7.510   1.681
  945SOL    HW112649   1.982   7.581   1.723
  945SOL    HW212650   2.099   7.552   1.613
  946SOL     OW12651   3.317   4.335   0.956
  946SOL    HW112652   3.278   4.309   0.868
  946SOL    HW212653   3.404   4.289   0.970
  947SOL     OW12654   4.056   8.041   0.759
  947SOL    HW112655   4.063   7.970   0.689
  947SOL    HW212656   4.139   8.095   0.761
  948SOL     OW12657   2.965   4.700   1.005
  948SOL    HW112658   3.053   4.651   1.007
  948SOL    HW212659   2.911   4.673   1.085
  949SOL     OW12660   3.138   0.787   1.544
  949SOL    HW112661   3.217   0.848   1.536
  949SOL    HW212662   3.166   0.693   1.526
  950SOL     OW12663   3.357   1.144   1.203
  950SOL    HW112664   3.375   1.184   1.113
  950SOL    HW212665   3.354   1.044   1.195
  951SOL     OW12666   4.844   3.362   1.201
  951SOL    HW112667   4.940   3.340   1.190
  951SOL    HW212668   4.788   3.289   1.163
  952SOL     OW12669   2.039   9.193   1.865
  952SOL    HW112670   1.980   9.260   1.912
  952SOL    HW212671   2.081   9.133   1.933
  953SOL     OW12672   1.689   6.824   1.277
  953SOL    HW112673   1.711   6.727   1.290
  953SOL    HW212674   1.711   6.874   1.361
  954SOL     OW12675   4.352   4.698   2.220
  954SOL    HW112676   4.317   4.745   2.302
  954SOL    HW212677   4.433   4.645   2.244
  955SOL     OW12678   4.590   4.556   2.304
  955SOL    HW112679   4.668   4.603   2.262
  955SOL    HW212680   4.619   4.515   2.391
  956SOL     OW12681   2.592   6.631   1.070
  956SOL    HW112682   2.561   6.687   0.993
  956SOL    HW212683   2.534   6.550   1.078
  957SOL     OW12684   3.790   8.363   0.850
  957SOL    HW112685   3.862   8.379   0.782
  957SOL    HW212686   3.700   8.375   0.808
  958SOL     OW12687   2.620   3.704   0.352
  958SOL    HW112688   2.537   3.670   0.308
  958SOL    HW212689   2.690   3.632   0.350
  959SOL     OW12690   2.857   5.078   1.136
  959SOL    HW112691   2.849   5.014   1.212
  959SOL    HW212692   2.923   5.044   1.070
  960SOL     OW12693   4.313   4.171   0.620
  960SOL    HW112694   4.378   4.197   0.549
  960SOL    HW212695   4.234   4.233   0.618
  961SOL     OW12696   2.792   7.910   0.462
  961SOL    HW112697   2.776   7.856   0.544
  961SOL    HW212698   2.863   7.978   0.480
  962SOL     OW12699   2.385   6.430   0.994
  962SOL    HW112700   2.306   6.370   1.002
  962SOL    HW212701   2.456   6.383   0.941
  963SOL     OW12702   1.970   5.571   0.651
  963SOL    HW112703   1.933   5.483   0.623
  963SOL    HW212704   2.019   5.561   0.738
  964SOL     OW12705   3.241   9.943   2.253
  964SOL    HW112706   3.150   9.940   2.210
  964SOL    HW212707   3.285   9.854   2.243
  965SOL     OW12708   3.016   4.961   0.943
  965SOL    HW112709   3.114   4.969   0.926
  965SOL    HW212710   2.993   4.867   0.965
  966SOL     OW12711   3.813   1.110   2.222
  966SOL    HW112712   3.753   1.179   2.261
  966SOL    HW212713   3.898   1.153   2.192
  967SOL     OW12714   2.110   6.638   2.002
  967SOL    HW112715   2.196   6.630   2.053
  967SOL    HW212716   2.046   6.569   2.035
  968SOL     OW12717   5.204   1.851   0.585
  968SOL    HW112718   5.213   1.846   0.485
  968SOL    HW212719   5.148   1.774   0.617
  969SOL     OW12720   2.991   0.240   0.585
  969SOL    HW112721   3.070   0.247   0.647
  969SOL    HW212722   3.000   0.158   0.529
  970SOL     OW12723   2.715   9.448   2.197
  970SOL    HW112724   2.706   9.498   2.110
  970SOL    HW212725   2.628   9.405   2.220
  971SOL     OW12726   3.037   2.890   1.954
  971SOL    HW112727   2.981   2.820   1.999
  971SOL    HW212728   3.014   2.893   1.857
  972SOL     OW12729   1.969   7.948   1.655
  972SOL    HW112730   1.946   8.034   1.609
  972SOL    HW212731   2.017   7.888   1.591
  973SOL     OW12732   3.338   1.746   0.791
  973SOL    HW112733   3.378   1.824   0.743
  973SOL    HW212734   3.404   1.710   0.857
  974SOL     OW12735   1.952   8.418   0.303
  974SOL    HW112736   1.858   8.387   0.285
  974SOL    HW212737   1.991   8.457   0.220
  975SOL     OW12738   3.374   9.210   2.033
  975SOL    HW112739   3.309   9.284   2.014
  975SOL    HW212740   3.444   9.243   2.096
  976SOL     OW12741   3.542   4.593   1.075
  976SOL    HW112742   3.483   4.650   1.019
  976SOL    HW212743   3.489   4.554   1.150
  977SOL     OW12744   3.767   3.328   2.211
  977SOL    HW112745   3.704   3.317   2.288
  977SOL    HW212746   3.854   3.284   2.232
  978SOL     OW12747   2.009   7.827   2.297
  978SOL    HW112748   2.001   7.906   2.236
  978SOL    HW212749   1.987   7.855   2.390
  979SOL     OW12750   2.155   9.495   2.029
  979SOL    HW112751   2.177   9.579   2.077
  979SOL    HW212752   2.229   9.429   2.040
  980SOL     OW12753   2.024   3.392   0.512
  980SOL    HW112754   1.957   3.324   0.545
  980SOL    HW212755   2.041   3.459   0.584
  981SOL     OW12756   3.735   2.283   2.103
  981SOL    HW112757   3.812   2.295   2.040
  981SOL    HW212758   3.760   2.217   2.174
  982SOL     OW12759   3.432   0.843   0.437
  982SOL    HW112760   3.363   0.775   0.462
  982SOL    HW212761   3.500   0.802   0.376
  983SOL     OW12762   2.146   8.959   1.466
  983SOL    HW112763   2.084   9.022   1.513
  983SOL    HW212764   2.178   8.889   1.531
  984SOL     OW12765   3.627   2.514   1.677
  984SOL    HW112766   3.675   2.426   1.673
  984SOL    HW212767   3.645   2.567   1.594
  985SOL     OW12768   3.163   4.035   1.329
  985SOL    HW112769   3.209   4.114   1.287
  985SOL    HW212770   3.231   3.979   1.377
  986SOL     OW12771   4.017   1.946   1.157
  986SOL    HW112772   4.098   1.967   1.212
  986SOL    HW212773   3.942   1.917   1.217
  987SOL     OW12774   2.837   9.561   0.935
  987SOL    HW112775   2.887   9.543   1.019
  987SOL    HW212776   2.756   9.616   0.956
  988SOL     OW12777   3.131   4.810   1.463
  988SOL    HW112778   3.105   4.906   1.468
  988SOL    HW212779   3.169   4.791   1.373
  989SOL     OW12780   1.835   0.811   2.019
  989SOL    HW112781   1.907   0.743   2.028
  989SOL    HW212782   1.852   0.868   1.939
  990SOL     OW12783   3.504   4.089   2.209
  990SOL    HW112784   3.527   4.051   2.120
  990SOL    HW212785   3.539   4.183   2.215
  991SOL     OW12786   4.656   2.535   1.104
  991SOL    HW112787   4.628   2.577   1.018
  991SOL    HW212788   4.575   2.517   1.161
  992SOL     OW12789   1.689   3.191   1.522
  992SOL    HW112790   1.776   3.206   1.569
  992SOL    HW212791   1.614   3.201   1.587
  993SOL     OW12792   3.945   1.306   1.512
  993SOL    HW112793   3.955   1.295   1.611
  993SOL    HW212794   3.989   1.391   1.484
  994SOL     OW12795   4.054   4.350   1.691
  994SOL    HW112796   4.018   4.407   1.617
  994SOL    HW212797   3.980   4.293   1.728
  995SOL     OW12798   1.878   0.760   1.621
  995SOL    HW112799   1.882   0.808   1.534
  995SOL    HW212800   1.864   0.826   1.695
  996SOL     OW12801   2.506   2.588   0.352
  996SOL    HW112802   2.532   2.583   0.255
  996SOL    HW212803   2.406   2.594   0.358
  997SOL     OW12804   2.069   2.374   1.997
  997SOL    HW112805   2.118   2.452   2.036
  997SOL    HW212806   2.018   2.327   2.069
  998SOL     OW12807   3.180   5.342   1.352
  998SOL    HW112808   3.142   5.433   1.373
  998SOL    HW212809   3.174   5.326   1.253
  999SOL     OW12810   4.726   3.668   0.576
  999SOL    HW112811   4.802   3.665   0.511
  999SOL    HW212812   4.762   3.671   0.670
 1000SOL     OW12813   4.207   4.395   1.907
 1000SOL    HW112814   4.155   4.383   1.822
 1000SOL    HW212815   4.187   4.484   1.947
 1001SOL     OW12816   3.191   4.265   1.906
 1001SOL    HW112817   3.187   4.169   1.933
 1001SOL    HW212818   3.151   4.276   1.815
 1002SOL     OW12819   2.442   2.509   1.627
 1002SOL    HW112820   2.363   2.558   1.664
 1002SOL    HW212821   2.494   2.468   1.702
 1003SOL     OW12822   1.961   1.883   1.914
 1003SOL    HW112823   1.901   1.804   1.924
 1003SOL    HW212824   1.905   1.967   1.918
 1004SOL     OW12825   2.719   2.140   0.771
 1004SOL    HW112826   2.620   2.140   0.779
 1004SOL    HW212827   2.745   2.182   0.684
 1005SOL     OW12828   4.126   2.950   2.043
 1005SOL    HW112829   4.035   2.934   2.082
 1005SOL    HW212830   4.165   3.033   2.083
 1006SOL     OW12831   2.127   3.432   0.818
 1006SOL    HW112832   2.032   3.406   0.834
 1006SOL    HW212833   2.179   3.352   0.790
 1007SOL     OW12834   2.610   4.862   0.848
 1007SOL    HW112835   2.584   4.813   0.931
 1007SOL    HW212836   2.551   4.834   0.772
 1008SOL     OW12837   2.699   0.461   2.000
 1008SOL    HW112838   2.749   0.426   2.079
 1008SOL    HW212839   2.697   0.393   1.928
 1009SOL     OW12840   2.601   5.111   1.617
 1009SOL    HW112841   2.534   5.170   1.661
 1009SOL    HW212842   2.590   5.115   1.517
 1010SOL     OW12843   4.789   3.280   0.835
 1010SOL    HW112844   4.870   3.330   0.805
 1010SOL    HW212845   4.753   3.226   0.759
 1011SOL     OW12846   2.712   8.531   0.781
 1011SOL    HW112847   2.680   8.535   0.875
 1011SOL    HW212848   2.739   8.623   0.751
 1012SOL     OW12849   2.486   0.810   2.231
 1012SOL    HW112850   2.472   0.745   2.305
 1012SOL    HW212851   2.569   0.786   2.180
 1013SOL     OW12852   4.475   1.220   0.340
 1013SOL    HW112853   4.431   1.227   0.250
 1013SOL    HW212854   4.534   1.299   0.354
 1014SOL     OW12855   2.348   1.144   0.429
 1014SOL    HW112856   2.293   1.222   0.459
 1014SOL    HW212857   2.428   1.135   0.489
 1015SOL     OW12858   2.995   0.737   1.776
 1015SOL    HW112859   3.050   0.754   1.694
 1015SOL    HW212860   2.898   0.739   1.752
 1016SOL     OW12861   3.721   3.246   0.490
 1016SOL    HW112862   3.819   3.254   0.506
 1016SOL    HW212863   3.704   3.171   0.427
 1017SOL     OW12864   1.967   1.986   1.456
 1017SOL    HW112865   1.999   1.929   1.531
 1017SOL    HW212866   2.012   1.960   1.371
 1018SOL     OW12867   2.302   7.620   1.444
 1018SOL    HW112868   2.295   7.520   1.446
 1018SOL    HW212869   2.358   7.650   1.522
 1019SOL     OW12870   3.698   8.514   0.447
 1019SOL    HW112871   3.706   8.567   0.363
 1019SOL    HW212872   3.709   8.574   0.526
 1020SOL     OW12873   1.949   2.034   0.326
 1020SOL    HW112874   1.917   1.942   0.305
 1020SOL    HW212875   2.036   2.030   0.375
 1021SOL     OW12876   3.453   5.242   2.064
 1021SOL    HW112877   3.499   5.304   2.127
 1021SOL    HW212878   3.521   5.197   2.006
 1022SOL     OW12879   2.164   8.010   1.038
 1022SOL    HW112880   2.264   8.010   1.034
 1022SOL    HW212881   2.128   7.951   0.966
 1023SOL     OW12882   3.736   1.006   1.973
 1023SOL    HW112883   3.663   0.938   1.973
 1023SOL    HW212884   3.755   1.035   2.066
 1024SOL     OW12885   2.602   9.710   0.999
 1024SOL    HW112886   2.565   9.802   1.002
 1024SOL    HW212887   2.544   9.652   0.942
 1025SOL     OW12888   3.906   8.899   0.907
 1025SOL    HW112889   3.977   8.968   0.915
 1025SOL    HW212890   3.901   8.846   0.992
 1026SOL     OW12891   4.976   1.515   0.890
 1026SOL    HW112892   4.991   1.425   0.931
 1026SOL    HW212893   4.902   1.561   0.940
 1027SOL     OW12894   2.122   7.737   1.958
 1027SOL    HW112895   2.117   7.682   2.041
 1027SOL    HW212896   2.043   7.717   1.900
 1028SOL     OW12897   2.806   7.725   1.591
 1028SOL    HW112898   2.766   7.634   1.604
 1028SOL    HW212899   2.734   7.794   1.602
 1029SOL     OW12900   3.037   4.640   1.850
 1029SOL    HW112901   3.085   4.597   1.926
 1029SOL    HW212902   3.026   4.738   1.867
 1030SOL     OW12903   4.480   3.605   0.702
 1030SOL    HW112904   4.562   3.635   0.653
 1030SOL    HW212905   4.470   3.506   0.691
 1031SOL     OW12906   2.901   0.118   1.928
 1031SOL    HW112907   2.918   0.051   1.856
 1031SOL    HW212908   2.816   0.166   1.910
 1032SOL     OW12909   2.112   0.523   1.054
 1032SOL    HW112910   2.161   0.603   1.020
 1032SOL    HW212911   2.068   0.546   1.141
 1033SOL     OW12912   2.285   6.776   0.588
 1033SOL    HW112913   2.267   6.812   0.679
 1033SOL    HW212914   2.308   6.679   0.594
 1034SOL     OW12915   2.533   6.936   1.707
 1034SOL    HW112916   2.564   6.998   1.778
 1034SOL    HW212917   2.556   6.973   1.617
 1035SOL     OW12918   2.892   8.937   0.251
 1035SOL    HW112919   2.980   8.903   0.282
 1035SOL    HW212920   2.826   8.931   0.326
 1036SOL     OW12921   3.180   1.358   0.301
 1036SOL    HW112922   3.269   1.321   0.273
 1036SOL    HW212923   3.192   1.452   0.331
 1037SOL     OW12924   3.009   4.173   0.449
 1037SOL    HW112925   2.941   4.127   0.506
 1037SOL    HW212926   3.007   4.272   0.468
 1038SOL     OW12927   3.057   8.412   2.318
 1038SOL    HW112928   3.094   8.352   2.389
 1038SOL    HW212929   2.997   8.360   2.257
 1039SOL     OW12930   2.028   7.274   1.819
 1039SOL    HW112931   2.031   7.356   1.762
 1039SOL    HW212932   2.024   7.301   1.915
 1040SOL     OW12933   3.114   7.718   0.418
 1040SOL    HW112934   3.026   7.679   0.389
 1040SOL    HW212935   3.099   7.782   0.493
 1041SOL     OW12936   3.631   5.727   0.833
 1041SOL    HW112937   3.610   5.813   0.879
 1041SOL    HW212938   3.643   5.655   0.902
 1042SOL     OW12939   3.934   9.815   0.472
 1042SOL    HW112940   3.838   9.843   0.465
 1042SOL    HW212941   3.992   9.896   0.464
 1043SOL     OW12942   2.802   7.390   1.300
 1043SOL    HW112943   2.828   7.486   1.311
 1043SOL    HW212944   2.717   7.372   1.350
 1044SOL     OW12945   2.458   3.540   0.567
 1044SOL    HW112946   2.547   3.539   0.613
 1044SOL    HW212947   2.471   3.557   0.469
 1045SOL     OW12948   2.408   6.093   1.073
 1045SOL    HW112949   2.459   6.145   1.004
 1045SOL    HW212950   2.329   6.050   1.030
 1046SOL     OW12951   3.169   8.390   0.760
 1046SOL    HW112952   3.190   8.361   0.854
 1046SOL    HW212953   3.071   8.379   0.743
 1047SOL     OW12954   2.246   9.743   0.713
 1047SOL    HW112955   2.188   9.816   0.748
 1047SOL    HW212956   2.340   9.777   0.703
 1048SOL     OW12957   2.398   3.051   1.237
 1048SOL    HW112958   2.369   3.147   1.241
 1048SOL    HW212959   2.349   3.005   1.163
 1049SOL     OW12960   2.914   3.047   1.308
 1049SOL    HW112961   2.854   3.123   1.334
 1049SOL    HW212962   2.982   3.033   1.380
 1050SOL     OW12963   2.216   9.221   0.880
 1050SOL    HW112964   2.117   9.227   0.863
 1050SOL    HW212965   2.232   9.179   0.969
 1051SOL     OW12966   3.295   3.909   2.214
 1051SOL    HW112967   3.241   3.943   2.138
 1051SOL    HW212968   3.369   3.973   2.235
 1052SOL     OW12969   3.143   8.891   0.365
 1052SOL    HW112970   3.224   8.863   0.314
 1052SOL    HW212971   3.145   8.990   0.380
 1053SOL     OW12972   3.804   1.880   1.327
 1053SOL    HW112973   3.708   1.909   1.331
 1053SOL    HW212974   3.809   1.780   1.333
 1054SOL     OW12975   3.175   8.854   1.332
 1054SOL    HW112976   3.097   8.819   1.280
 1054SOL    HW212977   3.181   8.806   1.419
 1055SOL     OW12978   4.823   2.955   0.375
 1055SOL    HW112979   4.788   3.046   0.350
 1055SOL    HW212980   4.885   2.964   0.453
 1056SOL     OW12981   2.653   1.263   2.236
 1056SOL    HW112982   2.700   1.345   2.267
 1056SOL    HW212983   2.717   1.204   2.187
 1057SOL     OW12984   3.820   5.332   1.832
 1057SOL    HW112985   3.801   5.415   1.884
 1057SOL    HW212986   3.823   5.353   1.734
 1058SOL     OW12987   3.079   8.018   1.257
 1058SOL    HW112988   3.088   7.922   1.232
 1058SOL    HW212989   3.043   8.025   1.350
 1059SOL     OW12990   4.274   3.731   0.838
 1059SOL    HW112991   4.253   3.812   0.782
 1059SOL    HW212992   4.351   3.682   0.798
 1060SOL     OW12993   3.581   2.589   1.158
 1060SOL    HW112994   3.555   2.584   1.062
 1060SOL    HW212995   3.502   2.565   1.215
 1061SOL     OW12996   2.855   8.290   1.507
 1061SOL    HW112997   2.791   8.308   1.433
 1061SOL    HW212998   2.917   8.368   1.517
 1062SOL     OW12999   3.619   8.576   1.614
 1062SOL    HW113000   3.712   8.598   1.645
 1062SOL    HW213001   3.572   8.661   1.589
 1063SOL     OW13002   3.332   2.487   1.241
 1063SOL    HW113003   3.283   2.557   1.189
 1063SOL    HW213004   3.356   2.412   1.180
 1064SOL     OW13005   2.091   7.299   0.970
 1064SOL    HW113006   2.082   7.200   0.970
 1064SOL    HW213007   2.180   7.324   0.933
 1065SOL     OW13008   3.482   1.189   1.733
 1065SOL    HW113009   3.575   1.214   1.759
 1065SOL    HW213010   3.475   1.191   1.633
 1066SOL     OW13011   1.869   0.903   1.383
 1066SOL    HW113012   1.933   0.964   1.336
 1066SOL    HW213013   1.781   0.949   1.392
 1067SOL     OW13014   1.981   7.649   0.724
 1067SOL    HW113015   1.982   7.607   0.815
 1067SOL    HW213016   2.001   7.580   0.655
 1068SOL     OW13017   3.710   0.186   1.978
 1068SOL    HW113018   3.740   0.245   2.053
 1068SOL    HW213019   3.790   0.147   1.932
 1069SOL     OW13020   2.202   3.651   0.571
 1069SOL    HW113021   2.294   3.613   0.563
 1069SOL    HW213022   2.190   3.722   0.502
 1070SOL     OW13023   4.308   1.628   1.779
 1070SOL    HW113024   4.350   1.697   1.720
 1070SOL    HW213025   4.246   1.673   1.844
 1071SOL     OW13026   4.581   3.769   0.360
 1071SOL    HW113027   4.486   3.739   0.356
 1071SOL    HW213028   4.622   3.737   0.446
 1072SOL     OW13029   2.866   3.205   2.093
 1072SOL    HW113030   2.827   3.144   2.024
 1072SOL    HW213031   2.953   3.167   2.126
 1073SOL     OW13032   2.627   3.860   1.417
 1073SOL    HW113033   2.580   3.948   1.424
 1073SOL    HW213034   2.569   3.795   1.367
 1074SOL     OW13035   2.038   9.893   0.501
 1074SOL    HW113036   2.033   9.933   0.409
 1074SOL    HW213037   2.092   9.810   0.499
 1075SOL     OW13038   2.503   1.821   1.349
 1075SOL    HW113039   2.537   1.734   1.384
 1075SOL    HW213040   2.515   1.892   1.419
 1076SOL     OW13041   3.492   9.855   1.565
 1076SOL    HW113042   3.447   9.908   1.493
 1076SOL    HW213043   3.500   9.910   1.648
 1077SOL     OW13044   4.658   0.746   1.124
 1077SOL    HW113045   4.574   0.724   1.174
 1077SOL    HW213046   4.703   0.661   1.096
 1078SOL     OW13047   2.575   1.015   1.035
 1078SOL    HW113048   2.527   1.034   0.949
 1078SOL    HW213049   2.616   1.099   1.070
 1079SOL     OW13050   2.961   1.482   1.095
 1079SOL    HW113051   2.913   1.569   1.095
 1079SOL    HW213052   2.936   1.430   1.177
 1080SOL     OW13053   2.538   1.747   0.807
 1080SOL    HW113054   2.486   1.708   0.883
 1080SOL    HW213055   2.481   1.748   0.725
 1081SOL     OW13056   2.579   3.227   1.843
 1081SOL    HW113057   2.542   3.270   1.926
 1081SOL    HW213058   2.632   3.146   1.868
 1082SOL     OW13059   3.630   1.438   1.455
 1082SOL    HW113060   3.633   1.344   1.420
 1082SOL    HW213061   3.569   1.493   1.398
 1083SOL     OW13062   3.185   9.389   1.970
 1083SOL    HW113063   3.126   9.433   2.038
 1083SOL    HW213064   3.128   9.343   1.902
 1084SOL     OW13065   1.932   9.606   1.104
 1084SOL    HW113066   1.988   9.552   1.167
 1084SOL    HW213067   1.948   9.704   1.120
 1085SOL     OW13068   3.658   9.013   0.868
 1085SOL    HW113069   3.747   8.968   0.877
 1085SOL    HW213070   3.600   8.959   0.808
 1086SOL     OW13071   2.571   2.102   1.795
 1086SOL    HW113072   2.494   2.073   1.851
 1086SOL    HW213073   2.558   2.070   1.701
 1087SOL     OW13074   2.795   0.395   0.467
 1087SOL    HW113075   2.855   0.334   0.518
 1087SOL    HW213076   2.701   0.384   0.499
 1088SOL     OW13077   3.653   0.739   0.312
 1088SOL    HW113078   3.669   0.688   0.228
 1088SOL    HW213079   3.677   0.683   0.391
 1089SOL     OW13080   4.664   2.887   1.765
 1089SOL    HW113081   4.758   2.912   1.789
 1089SOL    HW213082   4.616   2.853   1.845
 1090SOL     OW13083   2.934   5.667   2.198
 1090SOL    HW113084   2.897   5.755   2.228
 1090SOL    HW213085   3.024   5.653   2.241
 1091SOL     OW13086   4.671   3.141   0.630
 1091SOL    HW113087   4.673   3.042   0.644
 1091SOL    HW213088   4.695   3.162   0.535
 1092SOL     OW13089   3.825   4.217   2.156
 1092SOL    HW113090   3.750   4.276   2.187
 1092SOL    HW213091   3.911   4.269   2.159
 1093SOL     OW13092   2.475   9.327   2.253
 1093SOL    HW113093   2.459   9.254   2.320
 1093SOL    HW213094   2.426   9.307   2.169
 1094SOL     OW13095   4.609   2.290   1.337
 1094SOL    HW113096   4.531   2.345   1.307
 1094SOL    HW213097   4.683   2.351   1.368
 1095SOL     OW13098   3.902   8.886   1.826
 1095SOL    HW113099   3.825   8.849   1.878
 1095SOL    HW213100   3.867   8.942   1.751
 1096SOL     OW13101   4.977   2.563   1.902
 1096SOL    HW113102   5.030   2.528   1.825
 1096SOL    HW213103   4.888   2.518   1.904
 1097SOL     OW13104   4.054   0.648   2.096
 1097SOL    HW113105   4.047   0.736   2.050
 1097SOL    HW213106   3.997   0.648   2.178
 1098SOL     OW13107   3.342   2.238   1.825
 1098SOL    HW113108   3.304   2.184   1.750
 1098SOL    HW213109   3.268   2.267   1.886
 1099SOL     OW13110   4.783   1.775   0.698
 1099SOL    HW113111   4.708   1.722   0.737
 1099SOL    HW213112   4.777   1.870   0.730
 1100SOL     OW13113   2.820   2.034   1.474
 1100SOL    HW113114   2.849   1.987   1.391
 1100SOL    HW213115   2.888   2.103   1.499
 1101SOL     OW13116   2.352   7.795   0.376
 1101SOL    HW113117   2.297   7.819   0.456
 1101SOL    HW213118   2.419   7.867   0.359
 1102SOL     OW13119   2.208   2.584   2.098
 1102SOL    HW113120   2.153   2.665   2.114
 1102SOL    HW213121   2.271   2.570   2.174
 1103SOL     OW13122   1.831   2.885   0.937
 1103SOL    HW113123   1.862   2.798   0.977
 1103SOL    HW213124   1.777   2.866   0.855
 1104SOL     OW13125   2.807   1.718   1.102
 1104SOL    HW113126   2.787   1.773   1.022
 1104SOL    HW213127   2.850   1.775   1.172
 1105SOL     OW13128   3.454   2.421   0.461
 1105SOL    HW113129   3.534   2.410   0.520
 1105SOL    HW213130   3.418   2.514   0.470
 1106SOL     OW13131   3.579   7.901   0.695
 1106SOL    HW113132   3.480   7.905   0.710
 1106SOL    HW213133   3.623   7.857   0.773
 1107SOL     OW13134   1.982   2.471   1.753
 1107SOL    HW113135   1.978   2.571   1.758
 1107SOL    HW213136   2.004   2.433   1.843
 1108SOL     OW13137   3.832   2.008   0.551
 1108SOL    HW113138   3.770   2.044   0.620
 1108SOL    HW213139   3.846   1.910   0.567
 1109SOL     OW13140   2.280   4.440   1.487
 1109SOL    HW113141   2.247   4.348   1.468
 1109SOL    HW213142   2.245   4.471   1.575
 1110SOL     OW13143   2.447   7.644   1.673
 1110SOL    HW113144   2.452   7.551   1.711
 1110SOL    HW213145   2.425   7.708   1.746
 1111SOL     OW13146   4.219   4.859   1.381
 1111SOL    HW113147   4.233   4.948   1.425
 1111SOL    HW213148   4.224   4.787   1.450
 1112SOL     OW13149   1.848   9.246   2.229
 1112SOL    HW113150   1.868   9.295   2.144
 1112SOL    HW213151   1.801   9.308   2.292
 1113SOL     OW13152   4.005   1.643   1.669
 1113SOL    HW113153   3.918   1.668   1.713
 1113SOL    HW213154   4.075   1.631   1.739
 1114SOL     OW13155   2.800   5.143   2.088
 1114SOL    HW113156   2.758   5.072   2.032
 1114SOL    HW213157   2.765   5.233   2.060
 1115SOL     OW13158   3.984   2.903   0.727
 1115SOL    HW113159   4.029   2.858   0.805
 1115SOL    HW213160   3.943   2.989   0.758
 1116SOL     OW13161   4.462   1.728   1.430
 1116SOL    HW113162   4.540   1.773   1.387
 1116SOL    HW213163   4.440   1.773   1.516
 1117SOL     OW13164   3.239   0.203   1.452
 1117SOL    HW113165   3.145   0.223   1.480
 1117SOL    HW213166   3.254   0.239   1.360
 1118SOL     OW13167   2.320   4.116   1.866
 1118SOL    HW113168   2.410   4.139   1.830
 1118SOL    HW213169   2.309   4.155   1.957
 1119SOL     OW13170   3.513   4.431   1.918
 1119SOL    HW113171   3.455   4.434   1.837
 1119SOL    HW213172   3.563   4.344   1.921
 1120SOL     OW13173   2.539   7.996   0.384
 1120SOL    HW113174   2.631   7.960   0.398
 1120SOL    HW213175   2.542   8.096   0.384
 1121SOL     OW13176   2.502   2.369   1.859
 1121SOL    HW113177   2.404   2.354   1.848
 1121SOL    HW213178   2.551   2.283   1.846
 1122SOL     OW13179   3.794   1.538   0.425
 1122SOL    HW113180   3.698   1.560   0.409
 1122SOL    HW213181   3.808   1.439   0.413
 1123SOL     OW13182   4.998   2.999   0.578
 1123SOL    HW113183   4.993   2.950   0.665
 1123SOL    HW213184   5.071   3.067   0.582
 1124SOL     OW13185   3.694   9.525   2.149
 1124SOL    HW113186   3.633   9.511   2.071
 1124SOL    HW213187   3.705   9.622   2.166
 1125SOL     OW13188   2.176   5.958   0.980
 1125SOL    HW113189   2.124   5.971   0.895
 1125SOL    HW213190   2.125   5.998   1.056
 1126SOL     OW13191   3.154   1.587   0.675
 1126SOL    HW113192   3.172   1.489   0.691
 1126SOL    HW213193   3.224   1.641   0.720
 1127SOL     OW13194   2.574   6.056   1.833
 1127SOL    HW113195   2.599   6.093   1.744
 1127SOL    HW213196   2.648   6.073   1.899
 1128SOL     OW13197   3.665   1.504   1.950
 1128SOL    HW113198   3.681   1.411   1.916
 1128SOL    HW213199   3.567   1.523   1.951
 1129SOL     OW13200   1.862   0.234   0.670
 1129SOL    HW113201   1.919   0.292   0.728
 1129SOL    HW213202   1.838   0.285   0.587
 1130SOL     OW13203   3.817   3.608   0.997
 1130SOL    HW113204   3.814   3.524   1.051
 1130SOL    HW213205   3.727   3.624   0.956
 1131SOL     OW13206   3.738   8.731   0.621
 1131SOL    HW113207   3.758   8.824   0.590
 1131SOL    HW213208   3.649   8.730   0.667
 1132SOL     OW13209   2.694   8.194   1.705
 1132SOL    HW113210   2.675   8.099   1.681
 1132SOL    HW213211   2.752   8.236   1.635
 1133SOL     OW13212   3.766   8.290   2.356
 1133SOL    HW113213   3.858   8.291   2.316
 1133SOL    HW213214   3.706   8.235   2.297
 1134SOL     OW13215   2.900   6.002   1.587
 1134SOL    HW113216   2.878   5.926   1.648
 1134SOL    HW213217   2.953   5.968   1.509
 1135SOL     OW13218   2.540   6.810   2.169
 1135SOL    HW113219   2.615   6.777   2.111
 1135SOL    HW213220   2.573   6.887   2.224
 1136SOL     OW13221   2.907   3.767   0.866
 1136SOL    HW113222   2.891   3.724   0.955
 1136SOL    HW213223   2.872   3.861   0.868
 1137SOL     OW13224   2.248   7.692   0.977
 1137SOL    HW113225   2.303   7.677   0.894
 1137SOL    HW213226   2.306   7.687   1.057
 1138SOL     OW13227   2.633   7.038   2.305
 1138SOL    HW113228   2.623   7.091   2.389
 1138SOL    HW213229   2.730   7.028   2.284
 1139SOL     OW13230   2.506   8.847   1.300
 1139SOL    HW113231   2.453   8.927   1.327
 1139SOL    HW213232   2.454   8.764   1.320
 1140SOL     OW13233   3.688   4.950   1.283
 1140SOL    HW113234   3.735   4.871   1.242
 1140SOL    HW213235   3.711   4.955   1.380
 1141SOL     OW13236   3.106   0.931   1.937
 1141SOL    HW113237   3.056   0.872   1.873
 1141SOL    HW213238   3.143   0.876   2.011
 1142SOL     OW13239   3.054   5.573   0.777
 1142SOL    HW113240   3.058   5.473   0.777
 1142SOL    HW213241   3.074   5.606   0.685
 1143SOL     OW13242   3.657   8.546   2.018
 1143SOL    HW113243   3.650   8.637   1.976
 1143SOL    HW213244   3.632   8.476   1.951
 1144SOL     OW13245   3.410   1.858   2.170
 1144SOL    HW113246   3.440   1.924   2.240
 1144SOL    HW213247   3.371   1.778   2.215
 1145SOL     OW13248   1.811   2.787   0.470
 1145SOL    HW113249   1.837   2.705   0.418
 1145SOL    HW213250   1.882   2.856   0.459
 1146SOL     OW13251   2.381   2.281   1.480
 1146SOL    HW113252   2.284   2.275   1.505
 1146SOL    HW213253   2.420   2.365   1.519
 1147SOL     OW13254   4.238   3.181   2.143
 1147SOL    HW113255   4.239   3.277   2.169
 1147SOL    HW213256   4.329   3.155   2.111
 1148SOL     OW13257   3.247   0.195   0.356
 1148SOL    HW113258   3.168   0.137   0.375
 1148SOL    HW213259   3.331   0.148   0.386
 1149SOL     OW13260   3.999   3.123   1.115
 1149SOL    HW113261   4.044   3.036   1.134
 1149SOL    HW213262   4.044   3.169   1.038
 1150SOL     OW13263   2.013   2.987   0.489
 1150SOL    HW113264   1.963   3.066   0.525
 1150SOL    HW213265   2.104   3.016   0.459
 1151SOL     OW13266   4.567   2.678   1.445
 1151SOL    HW113267   4.644   2.742   1.453
 1151SOL    HW213268   4.484   2.728   1.421
 1152SOL     OW13269   2.490   2.025   1.154
 1152SOL    HW113270   2.507   1.939   1.202
 1152SOL    HW213271   2.556   2.094   1.185
 1153SOL     OW13272   2.468   9.954   1.763
 1153SOL    HW113273   2.456   0.025   1.833
 1153SOL    HW213274   2.435   9.989   1.675
 1154SOL     OW13275   2.214   7.553   0.348
 1154SOL    HW113276   2.246   7.647   0.342
 1154SOL    HW213277   2.132   7.549   0.406
 1155SOL     OW13278   2.263   3.643   2.090
 1155SOL    HW113279   2.244   3.734   2.128
 1155SOL    HW213280   2.361   3.625   2.097
 1156SOL     OW13281   2.462   9.287   0.801
 1156SOL    HW113282   2.478   9.382   0.826
 1156SOL    HW213283   2.372   9.258   0.833
 1157SOL     OW13284   3.056   3.085   1.076
 1157SOL    HW113285   3.063   3.185   1.072
 1157SOL    HW213286   2.997   3.060   1.153
 1158SOL     OW13287   2.908   9.488   1.680
 1158SOL    HW113288   2.879   9.582   1.660
 1158SOL    HW213289   2.832   9.438   1.720
 1159SOL     OW13290   2.944   9.966   1.700
 1159SOL    HW113291   3.023   9.914   1.732
 1159SOL    HW213292   2.975   0.046   1.649
 1160SOL     OW13293   4.297   2.371   2.213
 1160SOL    HW113294   4.376   2.421   2.248
 1160SOL    HW213295   4.307   2.274   2.233
 1161SOL     OW13296   4.133   1.415   0.801
 1161SOL    HW113297   4.151   1.465   0.886
 1161SOL    HW213298   4.034   1.405   0.790
 1162SOL     OW13299   3.225   8.552   1.905
 1162SOL    HW113300   3.238   8.545   2.003
 1162SOL    HW213301   3.227   8.649   1.878
 1163SOL     OW13302   2.060   6.381   0.522
 1163SOL    HW113303   2.127   6.336   0.581
 1163SOL    HW213304   2.025   6.463   0.568
 1164SOL     OW13305   2.271   4.050   0.572
 1164SOL    HW113306   2.360   4.095   0.581
 1164SOL    HW213307   2.245   4.010   0.660
 1165SOL     OW13308   1.949   6.848   0.623
 1165SOL    HW113309   1.910   6.928   0.668
 1165SOL    HW213310   2.004   6.877   0.544
 1166SOL     OW13311   2.651   3.084   1.143
 1166SOL    HW113312   2.698   3.150   1.201
 1166SOL    HW213313   2.559   3.067   1.178
 1167SOL     OW13314   2.257   3.887   2.242
 1167SOL    HW113315   2.326   3.959   2.247
 1167SOL    HW213316   2.253   3.839   2.330
 1168SOL     OW13317   3.944   2.748   1.790
 1168SOL    HW113318   3.985   2.839   1.792
 1168SOL    HW213319   3.985   2.691   1.861
 1169SOL     OW13320   2.552   3.017   0.369
 1169SOL    HW113321   2.593   2.936   0.412
 1169SOL    HW213322   2.537   2.999   0.272
 1170SOL     OW13323   1.984   8.054   2.145
 1170SOL    HW113324   1.970   8.152   2.160
 1170SOL    HW213325   2.021   8.039   2.053
 1171SOL     OW13326   1.952   9.255   0.799
 1171SOL    HW113327   1.978   9.302   0.714
 1171SOL    HW213328   1.890   9.314   0.852
 1172SOL     OW13329   4.416   2.456   1.244
 1172SOL    HW113330   4.381   2.507   1.322
 1172SOL    HW213331   4.341   2.413   1.195
 1173SOL     OW13332   4.265   1.459   0.569
 1173SOL    HW113333   4.364   1.451   0.583
 1173SOL    HW213334   4.217   1.448   0.656
 1174SOL     OW13335   4.490   3.155   1.438
 1174SOL    HW113336   4.413   3.216   1.454
 1174SOL    HW213337   4.483   3.076   1.498
 1175SOL     OW13338   4.050   4.081   0.264
 1175SOL    HW113339   3.958   4.119   0.278
 1175SOL    HW213340   4.051   3.985   0.293
 1176SOL     OW13341   2.945   1.033   0.511
 1176SOL    HW113342   2.959   1.132   0.512
 1176SOL    HW213343   2.976   0.994   0.598
 1177SOL     OW13344   2.692   0.949   1.314
 1177SOL    HW113345   2.730   0.930   1.223
 1177SOL    HW213346   2.750   0.908   1.383
 1178SOL     OW13347   2.902   8.359   0.686
 1178SOL    HW113348   2.831   8.410   0.735
 1178SOL    HW213349   2.923   8.406   0.600
 1179SOL     OW13350   4.310   1.704   2.252
 1179SOL    HW113351   4.234   1.663   2.202
 1179SOL    HW213352   4.288   1.706   2.350
 1180SOL     OW13353   3.603   5.022   0.651
 1180SOL    HW113354   3.632   4.984   0.738
 1180SOL    HW213355   3.591   4.948   0.585
 1181SOL     OW13356   3.534   3.698   1.944
 1181SOL    HW113357   3.576   3.614   1.978
 1181SOL    HW213358   3.515   3.688   1.846
 1182SOL     OW13359   2.396   6.404   1.503
 1182SOL    HW113360   2.374   6.325   1.446
 1182SOL    HW213361   2.327   6.475   1.490
 1183SOL     OW13362   3.775   1.713   1.812
 1183SOL    HW113363   3.742   1.628   1.853
 1183SOL    HW213364   3.730   1.791   1.857
 1184SOL     OW13365   3.778   9.539   1.668
 1184SOL    HW113366   3.784   9.597   1.749
 1184SOL    HW213367   3.752   9.595   1.589
 1185SOL     OW13368   2.829   4.226   2.369
 1185SOL    HW113369   2.916   4.249   2.325
 1185SOL    HW213370   2.831   4.251   2.465
 1186SOL     OW13371   4.174   1.540   1.058
 1186SOL    HW113372   4.231   1.525   1.138
 1186SOL    HW213373   4.186   1.634   1.025
 1187SOL     OW13374   3.565   1.413   1.028
 1187SOL    HW113375   3.635   1.351   1.064
 1187SOL    HW213376   3.488   1.360   0.993
 1188SOL     OW13377   3.820   1.834   2.155
 1188SOL    HW113378   3.829   1.737   2.178
 1188SOL    HW213379   3.744   1.847   2.091
 1189SOL     OW13380   1.788   9.637   2.067
 1189SOL    HW113381   1.772   9.667   2.161
 1189SOL    HW213382   1.852   9.699   2.022
 1190SOL     OW13383   3.563   5.624   0.593
 1190SOL    HW113384   3.581   5.666   0.682
 1190SOL    HW213385   3.649   5.604   0.548
 1191SOL     OW13386   3.337   4.824   0.439
 1191SOL    HW113387   3.241   4.842   0.457
 1191SOL    HW213388   3.377   4.899   0.386
 1192SOL     OW13389   3.633   9.851   0.505
 1192SOL    HW113390   3.622   9.786   0.429
 1192SOL    HW213391   3.600   9.809   0.589
 1193SOL     OW13392   2.380   9.583   2.307
 1193SOL    HW113393   2.408   9.490   2.284
 1193SOL    HW213394   2.393   9.599   2.405
 1194SOL     OW13395   3.263   9.953   0.686
 1194SOL    HW113396   3.265   9.915   0.594
 1194SOL    HW213397   3.282   9.881   0.752
 1195SOL     OW13398   2.158   9.781   1.348
 1195SOL    HW113399   2.110   9.811   1.266
 1195SOL    HW213400   2.227   9.712   1.324
 1196SOL     OW13401   2.457   4.783   0.629
 1196SOL    HW113402   2.391   4.717   0.663
 1196SOL    HW213403   2.415   4.874   0.626
 1197SOL     OW13404   3.920   8.345   0.429
 1197SOL    HW113405   3.968   8.357   0.516
 1197SOL    HW213406   3.834   8.396   0.431
 1198SOL     OW13407   5.354   3.580   1.324
 1198SOL    HW113408   5.284   3.644   1.354
 1198SOL    HW213409   5.439   3.598   1.372
 1199SOL     OW13410   3.745   9.695   1.895
 1199SOL    HW113411   3.750   9.741   1.983
 1199SOL    HW213412   3.675   9.624   1.898
 1200SOL     OW13413   2.315   8.385   1.483
 1200SOL    HW113414   2.368   8.378   1.568
 1200SOL    HW213415   2.281   8.295   1.458
 1201SOL     OW13416   3.327   9.474   0.542
 1201SOL    HW113417   3.266   9.401   0.570
 1201SOL    HW213418   3.416   9.461   0.585
 1202SOL     OW13419   3.786   4.898   1.950
 1202SOL    HW113420   3.762   4.836   1.876
 1202SOL    HW213421   3.733   4.982   1.942
 1203SOL     OW13422   5.349   3.578   1.048
 1203SOL    HW113423   5.314   3.668   1.023
 1203SOL    HW213424   5.358   3.572   1.147
 1204SOL     OW13425   2.042   1.811   0.600
 1204SOL    HW113426   2.036   1.836   0.696
 1204SOL    HW213427   2.094   1.881   0.551
 1205SOL     OW13428   2.750   9.936   0.733
 1205SOL    HW113429   2.805   9.940   0.816
 1205SOL    HW213430   2.803   9.893   0.659
 1206SOL     OW13431   3.402   5.321   1.523
 1206SOL    HW113432   3.487   5.337   1.473
 1206SOL    HW213433   3.325   5.321   1.459
 1207SOL     OW13434   4.060   3.538   1.257
 1207SOL    HW113435   4.145   3.485   1.252
 1207SOL    HW213436   3.983   3.480   1.227
 1208SOL     OW13437   2.482   9.966   1.019
 1208SOL    HW113438   2.400   0.002   0.974
 1208SOL    HW213439   2.554   0.036   1.018
 1209SOL     OW13440   5.251   3.806   0.441
 1209SOL    HW113441   5.225   3.714   0.470
 1209SOL    HW213442   5.300   3.852   0.515
 1210SOL     OW13443   3.645   1.330   2.292
 1210SOL    HW113444   3.597   1.280   2.221
 1210SOL    HW213445   3.583   1.347   2.369
 1211SOL     OW13446   3.159   3.536   1.964
 1211SOL    HW113447   3.218   3.575   2.035
 1211SOL    HW213448   3.066   3.527   1.999
 1212SOL     OW13449   3.518   4.445   0.629
 1212SOL    HW113450   3.438   4.495   0.596
 1212SOL    HW213451   3.507   4.348   0.611
 1213SOL     OW13452   1.705   0.384   1.207
 1213SOL    HW113453   1.654   0.470   1.213
 1213SOL    HW213454   1.734   0.356   1.299
 1214SOL     OW13455   3.323   2.683   0.488
 1214SOL    HW113456   3.259   2.745   0.533
 1214SOL    HW213457   3.363   2.728   0.408
 1215SOL     OW13458   2.455   9.564   0.821
 1215SOL    HW113459   2.490   9.631   0.756
 1215SOL    HW213460   2.355   9.569   0.825
 1216SOL     OW13461   2.870   6.962   1.734
 1216SOL    HW113462   2.889   6.995   1.642
 1216SOL    HW213463   2.897   7.033   1.800
 1217SOL     OW13464   3.292   0.875   1.225
 1217SOL    HW113465   3.203   0.832   1.208
 1217SOL    HW213466   3.312   0.872   1.322
 1218SOL     OW13467   2.344   3.337   1.470
 1218SOL    HW113468   2.352   3.340   1.371
 1218SOL    HW213469   2.429   3.301   1.509
 1219SOL     OW13470   2.514   6.766   0.845
 1219SOL    HW113471   2.518   6.677   0.800
 1219SOL    HW213472   2.420   6.800   0.844
 1220SOL     OW13473   3.729   0.498   1.175
 1220SOL    HW113474   3.692   0.571   1.233
 1220SOL    HW213475   3.674   0.490   1.092
 1221SOL     OW13476   4.097   9.097   0.894
 1221SOL    HW113477   4.082   9.177   0.952
 1221SOL    HW213478   4.190   9.063   0.908
 1222SOL     OW13479   2.364   5.943   1.643
 1222SOL    HW113480   2.407   6.010   1.703
 1222SOL    HW213481   2.320   5.872   1.697
 1223SOL     OW13482   3.578   4.739   0.568
 1223SOL    HW113483   3.564   4.648   0.606
 1223SOL    HW213484   3.495   4.768   0.520
 1224SOL     OW13485   1.866   0.240   1.046
 1224SOL    HW113486   1.800   0.290   1.102
 1224SOL    HW213487   1.905   0.301   0.978
 1225SOL     OW13488   2.038   7.344   2.079
 1225SOL    HW113489   2.050   7.436   2.118
 1225SOL    HW213490   2.088   7.278   2.135
 1226SOL     OW13491   1.860   0.980   1.806
 1226SOL    HW113492   1.811   1.064   1.830
 1226SOL    HW213493   1.944   1.003   1.757
 1227SOL     OW13494   2.180   6.582   1.452
 1227SOL    HW113495   2.164   6.656   1.386
 1227SOL    HW213496   2.137   6.605   1.539
 1228SOL     OW13497   4.727   1.887   1.046
 1228SOL    HW113498   4.745   1.789   1.038
 1228SOL    HW213499   4.813   1.938   1.039
 1229SOL     OW13500   3.103   4.331   1.647
 1229SOL    HW113501   3.059   4.257   1.595
 1229SOL    HW213502   3.065   4.419   1.618
 1230SOL     OW13503   2.878   6.804   0.441
 1230SOL    HW113504   2.934   6.794   0.358
 1230SOL    HW213505   2.807   6.872   0.425
 1231SOL     OW13506   3.362   2.496   1.731
 1231SOL    HW113507   3.353   2.403   1.766
 1231SOL    HW213508   3.458   2.515   1.711
 1232SOL     OW13509   4.650   3.691   1.037
 1232SOL    HW113510   4.700   3.660   1.118
 1232SOL    HW213511   4.657   3.790   1.030
 1233SOL     OW13512   2.602   8.490   2.174
 1233SOL    HW113513   2.681   8.524   2.223
 1233SOL    HW213514   2.581   8.550   2.097
 1234SOL     OW13515   3.192   0.475   0.836
 1234SOL    HW113516   3.201   0.384   0.796
 1234SOL    HW213517   3.277   0.526   0.825
 1235SOL     OW13518   1.735   1.055   0.292
 1235SOL    HW113519   1.826   1.021   0.316
 1235SOL    HW213520   1.719   1.042   0.194
 1236SOL     OW13521   3.177   8.804   2.079
 1236SOL    HW113522   3.225   8.879   2.125
 1236SOL    HW213523   3.202   8.717   2.122
 1237SOL     OW13524   3.354   3.431   2.303
 1237SOL    HW113525   3.353   3.504   2.235
 1237SOL    HW213526   3.368   3.470   2.394
 1238SOL     OW13527   2.454   0.772   1.149
 1238SOL    HW113528   2.496   0.862   1.136
 1238SOL    HW213529   2.476   0.738   1.240
 1239SOL     OW13530   2.776   7.266   1.058
 1239SOL    HW113531   2.712   7.191   1.074
 1239SOL    HW213532   2.796   7.312   1.145
 1240SOL     OW13533   2.579   2.662   2.214
 1240SOL    HW113534   2.665   2.640   2.260
 1240SOL    HW213535   2.506   2.602   2.247
 1241SOL     OW13536   4.662   4.625   0.566
 1241SOL    HW113537   4.732   4.569   0.610
 1241SOL    HW213538   4.600   4.663   0.636
 1242SOL     OW13539   3.496   2.996   1.817
 1242SOL    HW113540   3.424   2.942   1.862
 1242SOL    HW213541   3.473   3.007   1.721
 1243SOL     OW13542   1.899   7.721   1.794
 1243SOL    HW113543   1.915   7.806   1.743
 1243SOL    HW213544   1.806   7.722   1.830
 1244SOL     OW13545   3.340   3.651   2.138
 1244SOL    HW113546   3.413   3.666   2.071
 1244SOL    HW213547   3.315   3.739   2.180
 1245SOL     OW13548   2.854   2.509   0.601
 1245SOL    HW113549   2.794   2.542   0.673
 1245SOL    HW213550   2.889   2.586   0.548
 1246SOL     OW13551   2.661   1.520   0.711
 1246SOL    HW113552   2.595   1.487   0.643
 1246SOL    HW213553   2.625   1.601   0.757
 1247SOL     OW13554   3.112   9.311   0.626
 1247SOL    HW113555   3.176   9.303   0.702
 1247SOL    HW213556   3.020   9.329   0.662
 1248SOL     OW13557   2.896   1.295   1.293
 1248SOL    HW113558   2.974   1.233   1.291
 1248SOL    HW213559   2.870   1.313   1.388
 1249SOL     OW13560   1.840   0.038   0.855
 1249SOL    HW113561   1.832   0.101   0.778
 1249SOL    HW213562   1.831   0.089   0.941
 1250SOL     OW13563   3.432   8.433   1.461
 1250SOL    HW113564   3.454   8.461   1.368
 1250SOL    HW213565   3.488   8.485   1.526
 1251SOL     OW13566   1.925   0.124   2.180
 1251SOL    HW113567   1.937   0.219   2.210
 1251SOL    HW213568   1.873   0.123   2.094
 1252SOL     OW13569   3.563   9.288   2.208
 1252SOL    HW113570   3.627   9.219   2.175
 1252SOL    HW213571   3.609   9.377   2.215
 1253SOL     OW13572   2.280   8.662   2.170
 1253SOL    HW113573   2.329   8.633   2.253
 1253SOL    HW213574   2.320   8.748   2.137
 1254SOL     OW13575   3.215   5.578   2.156
 1254SOL    HW113576   3.255   5.607   2.069
 1254SOL    HW213577   3.155   5.499   2.141
 1255SOL     OW13578   3.217   7.635   1.489
 1255SOL    HW113579   3.217   7.541   1.455
 1255SOL    HW213580   3.277   7.690   1.431
 1256SOL     OW13581   2.581   1.099   0.572
 1256SOL    HW113582   2.647   1.169   0.600
 1256SOL    HW213583   2.627   1.030   0.516
 1257SOL     OW13584   2.946   2.723   0.458
 1257SOL    HW113585   3.010   2.784   0.505
 1257SOL    HW213586   2.996   2.669   0.390
 1258SOL     OW13587   3.991   3.790   1.924
 1258SOL    HW113588   3.923   3.849   1.967
 1258SOL    HW213589   3.967   3.775   1.828
 1259SOL     OW13590   2.825   2.791   1.249
 1259SOL    HW113591   2.838   2.889   1.262
 1259SOL    HW213592   2.901   2.741   1.290
 1260SOL     OW13593   3.044   3.861   1.155
 1260SOL    HW113594   3.081   3.917   1.230
 1260SOL    HW213595   3.049   3.914   1.070
 1261SOL     OW13596   3.037   2.430   0.794
 1261SOL    HW113597   2.981   2.446   0.713
 1261SOL    HW213598   3.000   2.354   0.846
 1262SOL     OW13599   3.490   8.808   1.545
 1262SOL    HW113600   3.521   8.860   1.466
 1262SOL    HW213601   3.502   8.862   1.628
 1263SOL     OW13602   3.747   8.344   1.518
 1263SOL    HW113603   3.698   8.428   1.544
 1263SOL    HW213604   3.804   8.362   1.438
 1264SOL     OW13605   3.026   0.439   1.314
 1264SOL    HW113606   3.047   0.471   1.221
 1264SOL    HW213607   2.991   0.345   1.309
 1265SOL     OW13608   2.996   1.336   1.759
 1265SOL    HW113609   2.995   1.434   1.777
 1265SOL    HW213610   3.019   1.287   1.842
 1266SOL     OW13611   4.835   2.980   2.302
 1266SOL    HW113612   4.785   2.983   2.388
 1266SOL    HW213613   4.815   3.062   2.248
 1267SOL     OW13614   2.046   0.138   1.234
 1267SOL    HW113615   2.129   0.181   1.199
 1267SOL    HW213616   1.967   0.174   1.185
 1268SOL     OW13617   2.560   1.331   0.274
 1268SOL    HW113618   2.485   1.265   0.273
 1268SOL    HW213619   2.646   1.284   0.251
 1269SOL     OW13620   2.813   4.836   0.500
 1269SOL    HW113621   2.740   4.782   0.458
 1269SOL    HW213622   2.823   4.809   0.596
 1270SOL     OW13623   4.413   0.692   1.250
 1270SOL    HW113624   4.408   0.754   1.329
 1270SOL    HW213625   4.336   0.710   1.189
 1271SOL     OW13626   3.007   9.932   2.114
 1271SOL    HW113627   2.980   9.845   2.073
 1271SOL    HW213628   2.965   0.007   2.064
 1272SOL     OW13629   2.660   6.370   1.436
 1272SOL    HW113630   2.562   6.384   1.453
 1272SOL    HW213631   2.707   6.458   1.438
 1273SOL     OW13632   3.644   1.526   0.709
 1273SOL    HW113633   3.596   1.539   0.622
 1273SOL    HW213634   3.595   1.576   0.781
 1274SOL     OW13635   3.491   1.179   2.130
 1274SOL    HW113636   3.427   1.218   2.064
 1274SOL    HW213637   3.457   1.090   2.161
 1275SOL     OW13638   3.547   9.075   0.580
 1275SOL    HW113639   3.640   9.046   0.557
 1275SOL    HW213640   3.503   9.114   0.499
 1276SOL     OW13641   2.131   4.336   1.134
 1276SOL    HW113642   2.070   4.381   1.199
 1276SOL    HW213643   2.115   4.237   1.137
 1277SOL     OW13644   3.537   9.710   0.732
 1277SOL    HW113645   3.547   9.614   0.708
 1277SOL    HW213646   3.452   9.724   0.782
 1278SOL     OW13647   2.542   6.138   0.393
 1278SOL    HW113648   2.573   6.233   0.381
 1278SOL    HW213649   2.473   6.117   0.324
 1279SOL     OW13650   2.672   8.579   0.433
 1279SOL    HW113651   2.608   8.509   0.401
 1279SOL    HW213652   2.620   8.659   0.463
 1280SOL     OW13653   3.338   8.992   2.195
 1280SOL    HW113654   3.350   9.071   2.135
 1280SOL    HW213655   3.425   8.945   2.206
 1281SOL     OW13656   4.667   2.868   0.639
 1281SOL    HW113657   4.730   2.805   0.685
 1281SOL    HW213658   4.641   2.830   0.551
 1282SOL     OW13659   2.634   7.029   1.096
 1282SOL    HW113660   2.668   6.988   1.011
 1282SOL    HW213661   2.627   6.958   1.166
 1283SOL     OW13662   2.146   3.386   2.115
 1283SOL    HW113663   2.175   3.481   2.106
 1283SOL    HW213664   2.152   3.341   2.026
 1284SOL     OW13665   3.461   8.365   0.400
 1284SOL    HW113666   3.543   8.421   0.414
 1284SOL    HW213667   3.487   8.281   0.353
 1285SOL     OW13668   2.750   8.809   1.423
 1285SOL    HW113669   2.670   8.840   1.373
 1285SOL    HW213670   2.816   8.883   1.430
 1286SOL     OW13671   3.255   1.922   1.400
 1286SOL    HW113672   3.196   1.847   1.429
 1286SOL    HW213673   3.232   1.948   1.306
 1287SOL     OW13674   3.315   8.129   1.147
 1287SOL    HW113675   3.305   8.219   1.107
 1287SOL    HW213676   3.233   8.105   1.198
 1288SOL     OW13677   1.792   9.456   0.921
 1288SOL    HW113678   1.846   9.514   0.982
 1288SOL    HW213679   1.700   9.445   0.958
 1289SOL     OW13680   2.912   3.243   1.777
 1289SOL    HW113681   2.851   3.169   1.805
 1289SOL    HW213682   2.860   3.328   1.769
 1290SOL     OW13683   2.969   7.905   0.877
 1290SOL    HW113684   3.051   7.875   0.925
 1290SOL    HW213685   2.893   7.843   0.900
 1291SOL     OW13686   3.655   2.164   0.723
 1291SOL    HW113687   3.655   2.171   0.822
 1291SOL    HW213688   3.654   2.256   0.683
 1292SOL     OW13689   2.736   6.924   0.862
 1292SOL    HW113690   2.804   6.912   0.790
 1292SOL    HW213691   2.664   6.856   0.851
 1293SOL     OW13692   2.411   8.328   2.281
 1293SOL    HW113693   2.481   8.394   2.253
 1293SOL    HW213694   2.453   8.237   2.291
 1294SOL     OW13695   4.224   4.277   0.344
 1294SOL    HW113696   4.172   4.314   0.421
 1294SOL    HW213697   4.170   4.207   0.297
 1295SOL     OW13698   2.004   9.939   1.516
 1295SOL    HW113699   1.975   0.017   1.461
 1295SOL    HW213700   2.055   9.875   1.458
 1296SOL     OW13701   4.339   1.533   1.283
 1296SOL    HW113702   4.386   1.596   1.345
 1296SOL    HW213703   4.340   1.441   1.323
 1297SOL     OW13704   4.513   2.519   2.289
 1297SOL    HW113705   4.574   2.543   2.213
 1297SOL    HW213706   4.479   2.603   2.331
 1298SOL     OW13707   2.342   0.405   1.352
 1298SOL    HW113708   2.400   0.487   1.348
 1298SOL    HW213709   2.327   0.371   1.259
 1299SOL     OW13710   2.228   8.288   1.111
 1299SOL    HW113711   2.303   8.264   1.173
 1299SOL    HW213712   2.182   8.205   1.081
 1300SOL     OW13713   3.733   2.733   0.367
 1300SOL    HW113714   3.724   2.832   0.360
 1300SOL    HW213715   3.829   2.707   0.353
 1301SOL     OW13716   1.904   1.589   1.287
 1301SOL    HW113717   1.900   1.618   1.382
 1301SOL    HW213718   1.943   1.497   1.281
 1302SOL     OW13719   4.823   2.446   1.446
 1302SOL    HW113720   4.760   2.454   1.523
 1302SOL    HW213721   4.881   2.527   1.441
 1303SOL     OW13722   2.404   5.313   1.674
 1303SOL    HW113723   2.307   5.332   1.667
 1303SOL    HW213724   2.456   5.389   1.634
 1304SOL     OW13725   1.839   2.293   0.337
 1304SOL    HW113726   1.760   2.288   0.398
 1304SOL    HW213727   1.877   2.201   0.324
 1305SOL     OW13728   1.787   0.323   1.459
 1305SOL    HW113729   1.852   0.392   1.490
 1305SOL    HW213730   1.774   0.254   1.530
 1306SOL     OW13731   4.933   3.647   0.383
 1306SOL    HW113732   4.957   3.723   0.322
 1306SOL    HW213733   4.886   3.575   0.330
 1307SOL     OW13734   3.967   2.017   1.501
 1307SOL    HW113735   3.928   2.008   1.593
 1307SOL    HW213736   3.914   1.961   1.437
 1308SOL     OW13737   2.218   2.294   0.420
 1308SOL    HW113738   2.206   2.196   0.403
 1308SOL    HW213739   2.145   2.326   0.480
 1309SOL     OW13740   3.166   4.001   1.988
 1309SOL    HW113741   3.067   4.013   1.985
 1309SOL    HW213742   3.198   3.963   1.901
 1310SOL     OW13743   4.008   2.373   0.410
 1310SOL    HW113744   3.980   2.407   0.500
 1310SOL    HW213745   3.933   2.387   0.344
 1311SOL     OW13746   2.950   1.887   1.271
 1311SOL    HW113747   2.985   1.826   1.342
 1311SOL    HW213748   3.026   1.923   1.218
 1312SOL     OW13749   2.383   6.700   1.703
 1312SOL    HW113750   2.442   6.622   1.726
 1312SOL    HW213751   2.431   6.785   1.720
 1313SOL     OW13752   2.617   0.257   2.286
 1313SOL    HW113753   2.710   0.291   2.271
 1313SOL    HW213754   2.613   0.161   2.260
 1314SOL     OW13755   2.246   3.605   1.816
 1314SOL    HW113756   2.229   3.612   1.914
 1314SOL    HW213757   2.253   3.696   1.777
 1315SOL     OW13758   2.466   4.454   1.833
 1315SOL    HW113759   2.503   4.362   1.822
 1315SOL    HW213760   2.469   4.480   1.929
 1316SOL     OW13761   3.339   0.205   1.717
 1316SOL    HW113762   3.319   0.202   1.619
 1316SOL    HW213763   3.393   0.124   1.742
 1317SOL     OW13764   2.175   3.861   0.401
 1317SOL    HW113765   2.206   3.934   0.462
 1317SOL    HW213766   2.192   3.887   0.306
 1318SOL     OW13767   3.911   4.714   2.113
 1318SOL    HW113768   3.855   4.705   2.195
 1318SOL    HW213769   3.866   4.775   2.048
 1319SOL     OW13770   3.603   2.967   0.593
 1319SOL    HW113771   3.640   3.034   0.658
 1319SOL    HW213772   3.653   2.973   0.507
 1320SOL     OW13773   5.103   3.277   1.203
 1320SOL    HW113774   5.153   3.307   1.285
 1320SOL    HW213775   5.110   3.178   1.194
 1321SOL     OW13776   2.241   9.520   0.559
 1321SOL    HW113777   2.156   9.470   0.573
 1321SOL    HW213778   2.240   9.603   0.616
 1322SOL     OW13779   3.529   0.011   2.081
 1322SOL    HW113780   3.453   0.061   2.121
 1322SOL    HW213781   3.597   0.075   2.046
 1323SOL     OW13782   3.022   3.860   0.440
 1323SOL    HW113783   2.950   3.911   0.488
 1323SOL    HW213784   3.060   3.916   0.366
 1324SOL     OW13785   3.144   2.868   0.595
 1324SOL    HW113786   3.101   2.889   0.682
 1324SOL    HW213787   3.210   2.939   0.573
 1325SOL     OW13788   2.639   4.019   1.968
 1325SOL    HW113789   2.648   4.023   2.067
 1325SOL    HW213790   2.628   3.923   1.939
 1326SOL     OW13791   1.790   6.571   1.328
 1326SOL    HW113792   1.832   6.612   1.409
 1326SOL    HW213793   1.740   6.489   1.354
 1327SOL     OW13794   3.394   0.932   2.209
 1327SOL    HW113795   3.310   0.887   2.176
 1327SOL    HW213796   3.451   0.865   2.255
 1328SOL     OW13797   2.769   4.503   1.472
 1328SOL    HW113798   2.762   4.403   1.462
 1328SOL    HW213799   2.859   4.527   1.507
 1329SOL     OW13800   2.009   0.410   0.829
 1329SOL    HW113801   2.045   0.449   0.913
 1329SOL    HW213802   1.975   0.483   0.770
 1330SOL     OW13803   4.424   2.775   2.345
 1330SOL    HW113804   4.353   2.814   2.403
 1330SOL    HW213805   4.432   2.828   2.261
 1331SOL     OW13806   3.036   0.532   1.955
 1331SOL    HW113807   3.025   0.605   1.887
 1331SOL    HW213808   3.005   0.565   2.044
 1332SOL     OW13809   2.787   4.537   1.832
 1332SOL    HW113810   2.878   4.578   1.835
 1332SOL    HW213811   2.729   4.590   1.769
 1333SOL     OW13812   4.995   3.793   1.163
 1333SOL    HW113813   4.960   3.842   1.083
 1333SOL    HW213814   4.923   3.736   1.202
 1334SOL     OW13815   3.752   0.985   0.412
 1334SOL    HW113816   3.736   0.977   0.511
 1334SOL    HW213817   3.706   0.910   0.365
 1335SOL     OW13818   5.381   3.114   1.062
 1335SOL    HW113819   5.414   3.203   1.031
 1335SOL    HW213820   5.446   3.077   1.129
 1336SOL     OW13821   3.337   9.199   1.112
 1336SOL    HW113822   3.251   9.173   1.067
 1336SOL    HW213823   3.327   9.289   1.154
 1337SOL     OW13824   3.041   9.703   0.822
 1337SOL    HW113825   2.967   9.649   0.861
 1337SOL    HW213826   3.054   9.677   0.726
 1338SOL     OW13827   3.006   5.726   1.942
 1338SOL    HW113828   2.968   5.700   2.031
 1338SOL    HW213829   3.091   5.676   1.926
 1339SOL     OW13830   3.948   3.839   1.061
 1339SOL    HW113831   3.903   3.751   1.044
 1339SOL    HW213832   4.021   3.826   1.127
 1340SOL     OW13833   3.043   1.734   1.475
 1340SOL    HW113834   3.107   1.666   1.510
 1340SOL    HW213835   2.956   1.725   1.523
 1341SOL     OW13836   3.908   0.855   2.266
 1341SOL    HW113837   3.842   0.797   2.218
 1341SOL    HW213838   3.875   0.949   2.266
 1342SOL     OW13839   2.949   8.030   1.495
 1342SOL    HW113840   2.921   8.126   1.506
 1342SOL    HW213841   2.888   7.972   1.548
 1343SOL     OW13842   2.030   4.034   2.166
 1343SOL    HW113843   2.045   4.119   2.217
 1343SOL    HW213844   2.106   3.972   2.182
 1344SOL     OW13845   4.536   4.131   0.804
 1344SOL    HW113846   4.492   4.065   0.864
 1344SOL    HW213847   4.477   4.151   0.726
 1345SOL     OW13848   4.338   4.179   2.277
 1345SOL    HW113849   4.262   4.191   2.212
 1345SOL    HW213850   4.302   4.184   2.370
 1346SOL     OW13851   2.694   3.502   1.231
 1346SOL    HW113852   2.723   3.460   1.144
 1346SOL    HW213853   2.742   3.589   1.243
 1347SOL     OW13854   4.502   1.640   1.077
 1347SOL    HW113855   4.447   1.591   1.145
 1347SOL    HW213856   4.479   1.737   1.079
 1348SOL     OW13857   1.672   7.658   0.406
 1348SOL    HW113858   1.633   7.723   0.342
 1348SOL    HW213859   1.700   7.705   0.489
 1349SOL     OW13860   4.750   3.961   0.253
 1349SOL    HW113861   4.834   3.911   0.231
 1349SOL    HW213862   4.681   3.896   0.287
 1350SOL     OW13863   4.594   2.653   0.863
 1350SOL    HW113864   4.688   2.680   0.843
 1350SOL    HW213865   4.561   2.590   0.793
 1351SOL     OW13866   4.142   2.771   0.913
 1351SOL    HW113867   4.122   2.717   0.995
 1351SOL    HW213868   4.236   2.806   0.918
 1352SOL     OW13869   3.670   5.120   0.307
 1352SOL    HW113870   3.678   5.220   0.313
 1352SOL    HW213871   3.743   5.078   0.361
 1353SOL     OW13872   3.111   3.010   1.493
 1353SOL    HW113873   3.158   3.092   1.525
 1353SOL    HW213874   3.178   2.940   1.472
 1354SOL     OW13875   3.044   2.550   1.849
 1354SOL    HW113876   3.110   2.596   1.789
 1354SOL    HW213877   2.961   2.530   1.798
 1355SOL     OW13878   3.306   7.853   0.763
 1355SOL    HW113879   3.227   7.885   0.710
 1355SOL    HW213880   3.329   7.760   0.734
 1356SOL     OW13881   3.458   1.971   0.683
 1356SOL    HW113882   3.375   2.020   0.710
 1356SOL    HW213883   3.536   2.034   0.686
 1357SOL     OW13884   1.692   2.849   0.707
 1357SOL    HW113885   1.608   2.900   0.684
 1357SOL    HW213886   1.737   2.820   0.623
 1358SOL     OW13887   2.393   1.618   0.995
 1358SOL    HW113888   2.340   1.666   1.065
 1358SOL    HW213889   2.343   1.537   0.965
 1359SOL     OW13890   1.663   3.482   0.734
 1359SOL    HW113891   1.610   3.404   0.702
 1359SOL    HW213892   1.684   3.542   0.656
 1360SOL     OW13893   3.375   8.763   1.170
 1360SOL    HW113894   3.308   8.797   1.236
 1360SOL    HW213895   3.433   8.839   1.139
 1361SOL     OW13896   3.503   1.655   1.352
 1361SOL    HW113897   3.540   1.720   1.419
 1361SOL    HW213898   3.486   1.703   1.265
 1362SOL     OW13899   2.382   4.401   1.237
 1362SOL    HW113900   2.296   4.383   1.190
 1362SOL    HW213901   2.363   4.438   1.328
 1363SOL     OW13902   2.334   7.128   0.764
 1363SOL    HW113903   2.305   7.062   0.834
 1363SOL    HW213904   2.339   7.219   0.805
 1364SOL     OW13905   2.117   2.315   1.569
 1364SOL    HW113906   2.056   2.285   1.496
 1364SOL    HW213907   2.070   2.382   1.627
 1365SOL     OW13908   4.965   2.688   1.406
 1365SOL    HW113909   4.948   2.685   1.308
 1365SOL    HW213910   4.897   2.749   1.449
 1366SOL     OW13911   4.196   4.778   1.798
 1366SOL    HW113912   4.178   4.727   1.882
 1366SOL    HW213913   4.206   4.875   1.819
 1367SOL     OW13914   3.544   8.979   1.750
 1367SOL    HW113915   3.622   9.026   1.709
 1367SOL    HW213916   3.467   9.043   1.757
 1368SOL     OW13917   3.911   8.146   0.969
 1368SOL    HW113918   3.862   8.223   0.928
 1368SOL    HW213919   3.959   8.096   0.897
 1369SOL     OW13920   2.750   4.497   0.260
 1369SOL    HW113921   2.698   4.561   0.317
 1369SOL    HW213922   2.812   4.444   0.318
 1370SOL     OW13923   2.987   6.245   1.682
 1370SOL    HW113924   2.955   6.155   1.651
 1370SOL    HW213925   3.015   6.299   1.603
 1371SOL     OW13926   3.810   8.995   0.511
 1371SOL    HW113927   3.810   9.080   0.457
 1371SOL    HW213928   3.871   8.928   0.467
 1372SOL     OW13929   2.395   9.059   0.627
 1372SOL    HW113930   2.435   9.122   0.693
 1372SOL    HW213931   2.349   9.111   0.555
 1373SOL     OW13932   2.526   6.463   1.754
 1373SOL    HW113933   2.617   6.425   1.765
 1373SOL    HW213934   2.484   6.426   1.672
 1374SOL     OW13935   4.527   3.731   1.431
 1374SOL    HW113936   4.499   3.814   1.481
 1374SOL    HW213937   4.487   3.733   1.339
 1375SOL     OW13938   4.043   1.220   2.135
 1375SOL    HW113939   4.084   1.188   2.049
 1375SOL    HW213940   4.110   1.275   2.185
 1376SOL     OW13941   2.281   4.887   1.669
 1376SOL    HW113942   2.271   4.900   1.571
 1376SOL    HW213943   2.207   4.828   1.703
 1377SOL     OW13944   2.650   3.760   1.893
 1377SOL    HW113945   2.591   3.680   1.898
 1377SOL    HW213946   2.696   3.763   1.804
 1378SOL     OW13947   2.055   3.012   1.785
 1378SOL    HW113948   2.102   3.080   1.841
 1378SOL    HW213949   2.109   2.994   1.702
 1379SOL     OW13950   4.460   4.302   1.896
 1379SOL    HW113951   4.499   4.315   1.987
 1379SOL    HW213952   4.367   4.339   1.894
 1380SOL     OW13953   2.552   2.428   1.080
 1380SOL    HW113954   2.615   2.505   1.084
 1380SOL    HW213955   2.534   2.404   0.984
 1381SOL     OW13956   2.551   6.228   0.882
 1381SOL    HW113957   2.521   6.190   0.795
 1381SOL    HW213958   2.650   6.243   0.879
 1382SOL     OW13959   5.527   3.252   0.726
 1382SOL    HW113960   5.627   3.257   0.724
 1382SOL    HW213961   5.498   3.164   0.690
 1383SOL     OW13962   3.490   3.389   0.866
 1383SOL    HW113963   3.552   3.417   0.792
 1383SOL    HW213964   3.407   3.444   0.862
 1384SOL     OW13965   4.605   2.257   2.216
 1384SOL    HW113966   4.590   2.340   2.270
 1384SOL    HW213967   4.601   2.177   2.276
 1385SOL     OW13968   1.868   3.347   0.854
 1385SOL    HW113969   1.791   3.399   0.818
 1385SOL    HW213970   1.860   3.341   0.954
 1386SOL     OW13971   2.023   7.451   0.539
 1386SOL    HW113972   2.070   7.364   0.553
 1386SOL    HW213973   1.934   7.435   0.497
 1387SOL     OW13974   3.134   9.537   1.530
 1387SOL    HW113975   3.054   9.521   1.587
 1387SOL    HW213976   3.202   9.588   1.582
 1388SOL     OW13977   3.073   7.907   0.622
 1388SOL    HW113978   3.024   7.899   0.709
 1388SOL    HW213979   3.056   7.996   0.582
 1389SOL     OW13980   2.128   5.215   2.317
 1389SOL    HW113981   2.201   5.228   2.250
 1389SOL    HW213982   2.116   5.118   2.336
 1390SOL     OW13983   3.491   3.966   0.841
 1390SOL    HW113984   3.513   4.059   0.870
 1390SOL    HW213985   3.475   3.965   0.742
 1391SOL     OW13986   1.779   7.409   0.428
 1391SOL    HW113987   1.727   7.345   0.371
 1391SOL    HW213988   1.739   7.500   0.421
 1392SOL     OW13989   4.254   1.169   0.858
 1392SOL    HW113990   4.189   1.242   0.838
 1392SOL    HW213991   4.335   1.181   0.800
 1393SOL     OW13992   2.243   9.499   0.287
 1393SOL    HW113993   2.249   9.517   0.385
 1393SOL    HW213994   2.176   9.426   0.271
 1394SOL     OW13995   3.542   2.781   1.503
 1394SOL    HW113996   3.640   2.761   1.512
 1394SOL    HW213997   3.521   2.868   1.547
 1395SOL     OW13998   2.701   4.007   2.235
 1395SOL    HW113999   2.750   3.921   2.223
 1395SOL    HW214000   2.759   4.072   2.283
 1396SOL     OW14001   3.279   9.875   0.417
 1396SOL    HW114002   3.359   9.933   0.400
 1396SOL    HW214003   3.294   9.786   0.375
 1397SOL     OW14004   2.823   4.451   0.729
 1397SOL    HW114005   2.818   4.550   0.742
 1397SOL    HW214006   2.735   4.410   0.752
 1398SOL     OW14007   2.711   3.539   0.682
 1398SOL    HW114008   2.781   3.593   0.635
 1398SOL    HW214009   2.754   3.457   0.721
 1399SOL     OW14010   4.477   1.973   1.910
 1399SOL    HW114011   4.512   1.916   1.984
 1399SOL    HW214012   4.516   2.065   1.918
 1400SOL     OW14013   2.638   6.109   2.188
 1400SOL    HW114014   2.622   6.201   2.225
 1400SOL    HW214015   2.550   6.069   2.161
 1401SOL     OW14016   4.255   2.554   1.458
 1401SOL    HW114017   4.157   2.546   1.439
 1401SOL    HW214018   4.283   2.650   1.450
 1402SOL     OW14019   2.489   5.590   1.883
 1402SOL    HW114020   2.529   5.653   1.816
 1402SOL    HW214021   2.560   5.528   1.917
 1403SOL     OW14022   2.262   8.674   0.547
 1403SOL    HW114023   2.171   8.674   0.506
 1403SOL    HW214024   2.299   8.581   0.544
 1404SOL     OW14025   3.673   2.898   2.002
 1404SOL    HW114026   3.678   2.799   1.985
 1404SOL    HW214027   3.620   2.942   1.929
 1405SOL     OW14028   2.179   0.226   1.470
 1405SOL    HW114029   2.237   0.299   1.434
 1405SOL    HW214030   2.119   0.193   1.397
 1406SOL     OW14031   2.921   4.898   1.814
 1406SOL    HW114032   2.850   4.920   1.881
 1406SOL    HW214033   2.878   4.883   1.725
 1407SOL     OW14034   1.905   7.113   0.711
 1407SOL    HW114035   1.980   7.156   0.661
 1407SOL    HW214036   1.827   7.175   0.713
 1408SOL     OW14037   3.069   4.882   0.432
 1408SOL    HW114038   3.070   4.880   0.332
 1408SOL    HW214039   2.977   4.862   0.465
 1409SOL     OW14040   2.945   0.648   2.211
 1409SOL    HW114041   2.862   0.684   2.168
 1409SOL    HW214042   2.953   0.684   2.304
 1410SOL     OW14043   1.979   9.012   0.658
 1410SOL    HW114044   2.055   8.961   0.698
 1410SOL    HW214045   1.960   9.093   0.714
 1411SOL     OW14046   2.196   2.423   1.144
 1411SOL    HW114047   2.241   2.337   1.169
 1411SOL    HW214048   2.098   2.408   1.139
 1412SOL     OW14049   3.649   4.436   0.875
 1412SOL    HW114050   3.594   4.449   0.793
 1412SOL    HW214051   3.615   4.495   0.948
 1413SOL     OW14052   4.344   3.575   1.573
 1413SOL    HW114053   4.335   3.480   1.545
 1413SOL    HW214054   4.418   3.618   1.521
 1414SOL     OW14055   3.196   5.931   1.970
 1414SOL    HW114056   3.175   6.029   1.960
 1414SOL    HW214057   3.112   5.878   1.971
 1415SOL     OW14058   3.293   3.841   1.475
 1415SOL    HW114059   3.235   3.760   1.462
 1415SOL    HW214060   3.389   3.815   1.468
 1416SOL     OW14061   2.429   0.162   1.951
 1416SOL    HW114062   2.425   0.225   2.028
 1416SOL    HW214063   2.336   0.137   1.923
 1417SOL     OW14064   2.768   3.471   0.337
 1417SOL    HW114065   2.742   3.386   0.383
 1417SOL    HW214066   2.865   3.467   0.311
 1418SOL     OW14067   3.182   8.857   1.814
 1418SOL    HW114068   3.175   8.840   1.913
 1418SOL    HW214069   3.232   8.943   1.800
 1419SOL     OW14070   2.481   3.693   1.248
 1419SOL    HW114071   2.456   3.721   1.155
 1419SOL    HW214072   2.538   3.611   1.243
 1420SOL     OW14073   2.726   4.862   1.609
 1420SOL    HW114074   2.675   4.780   1.634
 1420SOL    HW214075   2.673   4.943   1.633
 1421SOL     OW14076   3.829   1.250   0.401
 1421SOL    HW114077   3.925   1.259   0.426
 1421SOL    HW214078   3.803   1.154   0.400
 1422SOL     OW14079   3.741   4.410   0.460
 1422SOL    HW114080   3.817   4.471   0.480
 1422SOL    HW214081   3.665   4.430   0.522
 1423SOL     OW14082   4.482   3.327   0.706
 1423SOL    HW114083   4.546   3.257   0.675
 1423SOL    HW214084   4.506   3.356   0.799
 1424SOL     OW14085   4.239   4.936   2.092
 1424SOL    HW114086   4.264   4.977   2.004
 1424SOL    HW214087   4.299   4.859   2.111
 1425SOL     OW14088   3.489   1.564   1.652
 1425SOL    HW114089   3.525   1.656   1.633
 1425SOL    HW214090   3.539   1.497   1.596
 1426SOL     OW14091   2.848   5.778   1.728
 1426SOL    HW114092   2.857   5.692   1.677
 1426SOL    HW214093   2.898   5.770   1.814
 1427SOL     OW14094   2.951   2.137   2.303
 1427SOL    HW114095   3.036   2.183   2.277
 1427SOL    HW214096   2.910   2.184   2.381
 1428SOL     OW14097   3.291   2.282   1.428
 1428SOL    HW114098   3.386   2.252   1.436
 1428SOL    HW214099   3.286   2.364   1.371
 1429SOL     OW14100   1.808   1.659   1.932
 1429SOL    HW114101   1.862   1.580   1.901
 1429SOL    HW214102   1.712   1.643   1.910
 1430SOL     OW14103   3.859   1.107   0.745
 1430SOL    HW114104   3.836   1.063   0.832
 1430SOL    HW214105   3.853   1.206   0.755
 1431SOL     OW14106   2.487   0.126   0.400
 1431SOL    HW114107   2.537   0.137   0.486
 1431SOL    HW214108   2.545   0.156   0.324
 1432SOL     OW14109   2.005   9.880   1.135
 1432SOL    HW114110   2.019   9.969   1.178
 1432SOL    HW214111   1.969   9.894   1.043
 1433SOL     OW14112   3.440   4.198   0.527
 1433SOL    HW114113   3.445   4.218   0.429
 1433SOL    HW214114   3.442   4.099   0.541
 1434SOL     OW14115   3.129   9.805   1.804
 1434SOL    HW114116   3.073   9.757   1.870
 1434SOL    HW214117   3.202   9.745   1.772
 1435SOL     OW14118   3.305   9.288   0.818
 1435SOL    HW114119   3.250   9.226   0.873
 1435SOL    HW214120   3.400   9.282   0.845
 1436SOL     OW14121   1.951   7.121   1.314
 1436SOL    HW114122   2.048   7.100   1.308
 1436SOL    HW214123   1.937   7.219   1.300
 1437SOL     OW14124   4.217   3.435   2.248
 1437SOL    HW114125   4.151   3.493   2.201
 1437SOL    HW214126   4.255   3.485   2.326
 1438SOL     OW14127   2.517   9.790   0.674
 1438SOL    HW114128   2.496   9.811   0.578
 1438SOL    HW214129   2.595   9.845   0.704
 1439SOL     OW14130   4.490   3.038   1.095
 1439SOL    HW114131   4.584   3.071   1.083
 1439SOL    HW214132   4.475   3.015   1.191
 1440SOL     OW14133   2.348   8.536   1.084
 1440SOL    HW114134   2.292   8.454   1.077
 1440SOL    HW214135   2.307   8.609   1.029
 1441SOL     OW14136   3.893   8.402   1.291
 1441SOL    HW114137   3.913   8.306   1.274
 1441SOL    HW214138   3.841   8.439   1.214
 1442SOL     OW14139   2.663   9.588   1.235
 1442SOL    HW114140   2.633   9.639   1.154
 1442SOL    HW214141   2.663   9.490   1.215
 1443SOL     OW14142   1.927   0.605   0.652
 1443SOL    HW114143   1.876   0.678   0.697
 1443SOL    HW214144   2.015   0.640   0.621
 1444SOL     OW14145   2.400   9.403   1.162
 1444SOL    HW114146   2.498   9.380   1.164
 1444SOL    HW214147   2.349   9.324   1.128
 1445SOL     OW14148   4.988   2.146   1.295
 1445SOL    HW114149   4.917   2.114   1.359
 1445SOL    HW214150   4.953   2.223   1.241
 1446SOL     OW14151   2.885   5.538   1.608
 1446SOL    HW114152   2.947   5.486   1.667
 1446SOL    HW214153   2.835   5.475   1.549
 1447SOL     OW14154   3.981   4.572   1.220
 1447SOL    HW114155   3.897   4.627   1.212
 1447SOL    HW214156   4.043   4.594   1.145
 1448SOL     OW14157   4.071   1.536   1.430
 1448SOL    HW114158   4.060   1.585   1.516
 1448SOL    HW214159   4.163   1.553   1.394
 1449SOL     OW14160   2.754   8.607   1.599
 1449SOL    HW114161   2.749   8.685   1.537
 1449SOL    HW214162   2.843   8.563   1.590
 1450SOL     OW14163   2.637   7.948   1.584
 1450SOL    HW114164   2.543   7.957   1.616
 1450SOL    HW214165   2.640   7.962   1.485
 1451SOL     OW14166   2.209   5.695   1.295
 1451SOL    HW114167   2.298   5.697   1.249
 1451SOL    HW214168   2.144   5.643   1.241
 1452SOL     OW14169   3.869   9.633   1.051
 1452SOL    HW114170   3.933   9.603   0.980
 1452SOL    HW214171   3.888   9.728   1.075
 1453SOL     OW14172   3.242   4.243   0.714
 1453SOL    HW114173   3.309   4.243   0.639
 1453SOL    HW214174   3.187   4.159   0.710
 1454SOL     OW14175   3.321   9.451   1.221
 1454SOL    HW114176   3.305   9.543   1.184
 1454SOL    HW214177   3.391   9.456   1.293
 1455SOL     OW14178   2.451   2.830   1.819
 1455SOL    HW114179   2.545   2.838   1.786
 1455SOL    HW214180   2.429   2.908   1.878
 1456SOL     OW14181   3.488   7.501   0.891
 1456SOL    HW114182   3.494   7.441   0.812
 1456SOL    HW214183   3.412   7.471   0.949
 1457SOL     OW14184   2.185   2.018   0.471
 1457SOL    HW114185   2.284   2.003   0.465
 1457SOL    HW214186   2.163   2.058   0.560
 1458SOL     OW14187   1.840   2.125   1.948
 1458SOL    HW114188   1.865   2.171   2.033
 1458SOL    HW214189   1.822   2.193   1.877
 1459SOL     OW14190   2.248   0.925   1.298
 1459SOL    HW114191   2.278   0.833   1.272
 1459SOL    HW214192   2.327   0.980   1.323
 1460SOL     OW14193   5.160   3.009   1.190
 1460SOL    HW114194   5.189   2.953   1.268
 1460SOL    HW214195   5.241   3.036   1.137
 1461SOL     OW14196   2.281   3.349   0.439
 1461SOL    HW114197   2.183   3.364   0.455
 1461SOL    HW214198   2.334   3.391   0.512
 1462SOL     OW14199   1.982   6.205   0.322
 1462SOL    HW114200   2.011   6.279   0.382
 1462SOL    HW214201   1.935   6.135   0.376
 1463SOL     OW14202   3.181   8.285   0.359
 1463SOL    HW114203   3.270   8.322   0.386
 1463SOL    HW214204   3.188   8.246   0.267
 1464SOL     OW14205   3.210   9.110   1.427
 1464SOL    HW114206   3.300   9.135   1.461
 1464SOL    HW214207   3.215   9.021   1.382
 1465SOL     OW14208   1.995   9.801   1.979
 1465SOL    HW114209   2.065   9.773   2.044
 1465SOL    HW214210   2.037   9.817   1.890
 1466SOL     OW14211   4.035   4.020   0.878
 1466SOL    HW114212   4.106   3.984   0.818
 1466SOL    HW214213   4.008   3.951   0.944
 1467SOL     OW14214   3.239   4.281   1.215
 1467SOL    HW114215   3.296   4.351   1.257
 1467SOL    HW214216   3.249   4.285   1.115
 1468SOL     OW14217   2.462   9.907   1.291
 1468SOL    HW114218   2.446   9.810   1.307
 1468SOL    HW214219   2.456   9.926   1.192
 1469SOL     OW14220   4.575   3.419   0.949
 1469SOL    HW114221   4.590   3.514   0.975
 1469SOL    HW214222   4.662   3.376   0.925
 1470SOL     OW14223   2.958   5.762   0.943
 1470SOL    HW114224   2.993   5.692   0.881
 1470SOL    HW214225   2.964   5.852   0.898
 1471SOL     OW14226   3.225   4.602   0.997
 1471SOL    HW114227   3.290   4.651   0.939
 1471SOL    HW214228   3.246   4.504   0.994
 1472SOL     OW14229   3.405   1.187   1.469
 1472SOL    HW114230   3.324   1.238   1.499
 1472SOL    HW214231   3.410   1.188   1.369
 1473SOL     OW14232   4.217   2.538   0.320
 1473SOL    HW114233   4.283   2.564   0.390
 1473SOL    HW214234   4.159   2.463   0.355
 1474SOL     OW14235   3.496   0.351   1.892
 1474SOL    HW114236   3.437   0.298   1.831
 1474SOL    HW214237   3.574   0.295   1.920
 1475SOL     OW14238   2.808   4.023   0.875
 1475SOL    HW114239   2.851   4.110   0.899
 1475SOL    HW214240   2.716   4.018   0.915
 1476SOL     OW14241   2.554   8.670   1.962
 1476SOL    HW114242   2.508   8.635   1.880
 1476SOL    HW214243   2.646   8.700   1.938
 1477SOL     OW14244   2.788   1.519   2.279
 1477SOL    HW114245   2.744   1.609   2.273
 1477SOL    HW214246   2.831   1.509   2.368
 1478SOL     OW14247   2.164   3.380   1.672
 1478SOL    HW114248   2.222   3.365   1.592
 1478SOL    HW214249   2.184   3.468   1.713
 1479SOL     OW14250   3.756   8.687   0.247
 1479SOL    HW114251   3.781   8.779   0.277
 1479SOL    HW214252   3.834   8.644   0.202
 1480SOL     OW14253   4.464   4.067   1.218
 1480SOL    HW114254   4.476   4.021   1.306
 1480SOL    HW214255   4.413   4.152   1.232
 1481SOL     OW14256   2.398   7.165   1.124
 1481SOL    HW114257   2.480   7.110   1.113
 1481SOL    HW214258   2.421   7.262   1.114
 1482SOL     OW14259   2.139   6.956   0.443
 1482SOL    HW114260   2.196   6.897   0.500
 1482SOL    HW214261   2.155   6.936   0.347
 1483SOL     OW14262   2.753   2.141   2.112
 1483SOL    HW114263   2.833   2.139   2.172
 1483SOL    HW214264   2.777   2.189   2.027
 1484SOL     OW14265   3.869   8.951   1.386
 1484SOL    HW114266   3.893   8.854   1.386
 1484SOL    HW214267   3.930   9.001   1.325
 1485SOL     OW14268   3.820   2.715   1.542
 1485SOL    HW114269   3.861   2.717   1.633
 1485SOL    HW214270   3.850   2.794   1.489
 1486SOL     OW14271   4.462   4.037   1.814
 1486SOL    HW114272   4.466   4.135   1.835
 1486SOL    HW214273   4.385   3.996   1.864
 1487SOL     OW14274   4.527   4.385   0.920
 1487SOL    HW114275   4.540   4.291   0.887
 1487SOL    HW214276   4.434   4.415   0.897
 1488SOL     OW14277   4.051   4.308   1.223
 1488SOL    HW114278   3.973   4.249   1.242
 1488SOL    HW214279   4.022   4.404   1.228
 1489SOL     OW14280   2.716   0.728   2.085
 1489SOL    HW114281   2.713   0.802   2.018
 1489SOL    HW214282   2.700   0.640   2.039
 1490SOL     OW14283   4.619   2.487   1.628
 1490SOL    HW114284   4.604   2.564   1.566
 1490SOL    HW214285   4.532   2.439   1.643
 1491SOL     OW14286   5.017   1.635   0.373
 1491SOL    HW114287   5.017   1.627   0.472
 1491SOL    HW214288   4.980   1.551   0.333
 1492SOL     OW14289   4.283   3.315   1.514
 1492SOL    HW114290   4.222   3.300   1.436
 1492SOL    HW214291   4.235   3.290   1.598
 1493SOL     OW14292   5.228   2.816   0.427
 1493SOL    HW114293   5.137   2.793   0.394
 1493SOL    HW214294   5.244   2.914   0.415
 1494SOL     OW14295   2.612   3.905   0.538
 1494SOL    HW114296   2.612   3.843   0.459
 1494SOL    HW214297   2.595   3.852   0.621
 1495SOL     OW14298   2.045   0.925   0.884
 1495SOL    HW114299   1.969   0.883   0.834
 1495SOL    HW214300   2.110   0.854   0.911
 1496SOL     OW14301   2.437   7.385   1.776
 1496SOL    HW114302   2.498   7.397   1.855
 1496SOL    HW214303   2.376   7.308   1.793
 1497SOL     OW14304   2.682   8.320   1.296
 1497SOL    HW114305   2.588   8.286   1.291
 1497SOL    HW214306   2.742   8.260   1.241
 1498SOL     OW14307   2.143   6.915   2.063
 1498SOL    HW114308   2.235   6.933   2.029
 1498SOL    HW214309   2.115   6.823   2.035
 1499SOL     OW14310   2.229   5.958   1.397
 1499SOL    HW114311   2.274   5.955   1.486
 1499SOL    HW214312   2.216   5.865   1.363
 1500SOL     OW14313   1.973   1.754   1.084
 1500SOL    HW114314   1.934   1.693   1.152
 1500SOL    HW214315   2.011   1.835   1.129
 1501SOL     OW14316   3.860   1.380   0.798
 1501SOL    HW114317   3.783   1.431   0.759
 1501SOL    HW214318   3.860   1.390   0.898
 1502SOL     OW14319   3.870   0.957   1.739
 1502SOL    HW114320   3.807   0.963   1.662
 1502SOL    HW214321   3.820   0.969   1.824
 1503SOL     OW14322   2.863   4.997   2.316
 1503SOL    HW114323   2.845   5.062   2.242
 1503SOL    HW214324   2.934   4.933   2.288
 1504SOL     OW14325   3.341   3.048   0.547
 1504SOL    HW114326   3.435   3.020   0.564
 1504SOL    HW214327   3.333   3.147   0.558
 1505SOL     OW14328   2.592   4.624   1.645
 1505SOL    HW114329   2.536   4.565   1.703
 1505SOL    HW214330   2.643   4.569   1.580
 1506SOL     OW14331   3.883   3.150   0.794
 1506SOL    HW114332   3.787   3.154   0.821
 1506SOL    HW214333   3.938   3.203   0.859
 1507SOL     OW14334   4.214   3.956   1.934
 1507SOL    HW114335   4.158   3.878   1.961
 1507SOL    HW214336   4.181   3.991   1.846
 1508SOL     OW14337   2.098   7.591   2.189
 1508SOL    HW114338   2.186   7.564   2.227
 1508SOL    HW214339   2.064   7.672   2.237
 1509SOL     OW14340   2.774   7.804   2.101
 1509SOL    HW114341   2.850   7.809   2.036
 1509SOL    HW214342   2.797   7.858   2.183
 1510SOL     OW14343   4.407   1.130   1.565
 1510SOL    HW114344   4.384   1.188   1.487
 1510SOL    HW214345   4.443   1.187   1.639
 1511SOL     OW14346   4.073   3.631   1.517
 1511SOL    HW114347   4.166   3.609   1.545
 1511SOL    HW214348   4.053   3.589   1.429
 1512SOL     OW14349   3.386   5.794   2.183
 1512SOL    HW114350   3.330   5.874   2.160
 1512SOL    HW214351   3.327   5.718   2.210
 1513SOL     OW14352   2.594   2.255   1.280
 1513SOL    HW114353   2.578   2.318   1.204
 1513SOL    HW214354   2.532   2.277   1.355
 1514SOL     OW14355   2.785   4.661   1.238
 1514SOL    HW114356   2.774   4.600   1.317
 1514SOL    HW214357   2.808   4.753   1.270
 1515SOL     OW14358   3.963   2.022   2.001
 1515SOL    HW114359   4.061   2.020   2.020
 1515SOL    HW214360   3.916   1.961   2.064
 1516SOL     OW14361   2.522   0.505   0.531
 1516SOL    HW114362   2.506   0.597   0.495
 1516SOL    HW214363   2.556   0.511   0.625
 1517SOL     OW14364   2.704   4.431   2.229
 1517SOL    HW114365   2.743   4.518   2.258
 1517SOL    HW214366   2.741   4.358   2.287
 1518SOL     OW14367   3.911   8.588   2.112
 1518SOL    HW114368   3.902   8.670   2.169
 1518SOL    HW214369   3.822   8.560   2.078
 1519SOL     OW14370   2.645   2.581   1.960
 1519SOL    HW114371   2.586   2.507   1.929
 1519SOL    HW214372   2.608   2.621   2.044
 1520SOL     OW14373   3.220   1.558   1.578
 1520SOL    HW114374   3.317   1.567   1.598
 1520SOL    HW214375   3.200   1.462   1.555
 1521SOL     OW14376   2.665   6.144   1.597
 1521SOL    HW114377   2.752   6.096   1.583
 1521SOL    HW214378   2.666   6.230   1.546
 1522SOL     OW14379   1.781   9.742   2.323
 1522SOL    HW114380   1.716   9.771   2.394
 1522SOL    HW214381   1.863   9.798   2.327
 1523SOL     OW14382   4.102   4.632   0.571
 1523SOL    HW114383   4.011   4.670   0.589
 1523SOL    HW214384   4.169   4.706   0.567
 1524SOL     OW14385   4.410   3.713   1.180
 1524SOL    HW114386   4.486   3.713   1.114
 1524SOL    HW214387   4.377   3.620   1.193
 1525SOL     OW14388   2.571   2.722   1.509
 1525SOL    HW114389   2.565   2.713   1.409
 1525SOL    HW214390   2.525   2.644   1.551
 1526SOL     OW14391   4.992   3.458   0.748
 1526SOL    HW114392   4.932   3.533   0.777
 1526SOL    HW214393   5.054   3.434   0.823
 1527SOL     OW14394   2.347   0.763   1.916
 1527SOL    HW114395   2.374   0.671   1.943
 1527SOL    HW214396   2.285   0.801   1.985
 1528SOL     OW14397   3.889   2.031   0.936
 1528SOL    HW114398   3.954   2.074   0.873
 1528SOL    HW214399   3.937   2.001   1.018
 1529SOL     OW14400   2.348   1.834   1.687
 1529SOL    HW114401   2.407   1.898   1.637
 1529SOL    HW214402   2.390   1.811   1.774
 1530SOL     OW14403   2.317   0.341   0.432
 1530SOL    HW114404   2.385   0.409   0.461
 1530SOL    HW214405   2.363   0.253   0.416
 1531SOL     OW14406   4.196   2.332   1.138
 1531SOL    HW114407   4.231   2.262   1.075
 1531SOL    HW214408   4.128   2.291   1.199
 1532SOL     OW14409   2.448   4.086   2.297
 1532SOL    HW114410   2.538   4.052   2.271
 1532SOL    HW214411   2.456   4.137   2.383
 1533SOL     OW14412   4.731   2.438   1.875
 1533SOL    HW114413   4.687   2.353   1.902
 1533SOL    HW214414   4.699   2.465   1.784
 1534SOL     OW14415   3.613   1.797   1.589
 1534SOL    HW114416   3.692   1.769   1.643
 1534SOL    HW214417   3.592   1.893   1.607
 1535SOL     OW14418   2.009   6.592   0.706
 1535SOL    HW114419   1.979   6.681   0.673
 1535SOL    HW214420   2.076   6.604   0.780
 1536SOL     OW14421   2.453   8.330   1.717
 1536SOL    HW114422   2.539   8.280   1.721
 1536SOL    HW214423   2.389   8.291   1.783
 1537SOL     OW14424   3.740   8.500   1.088
 1537SOL    HW114425   3.646   8.495   1.120
 1537SOL    HW214426   3.749   8.446   1.004
 1538SOL     OW14427   2.839   4.912   1.359
 1538SOL    HW114428   2.921   4.966   1.378
 1538SOL    HW214429   2.797   4.883   1.446
 1539SOL     OW14430   3.711   4.943   1.567
 1539SOL    HW114431   3.634   5.001   1.591
 1539SOL    HW214432   3.711   4.861   1.623
 1540SOL     OW14433   3.428   7.354   0.650
 1540SOL    HW114434   3.400   7.449   0.636
 1540SOL    HW214435   3.356   7.293   0.619
 1541SOL     OW14436   4.553   2.235   1.954
 1541SOL    HW114437   4.580   2.238   2.050
 1541SOL    HW214438   4.483   2.305   1.936
 1542SOL     OW14439   3.012   4.587   1.583
 1542SOL    HW114440   3.054   4.661   1.530
 1542SOL    HW214441   3.024   4.606   1.680
 1543SOL     OW14442   2.332   9.278   2.032
 1543SOL    HW114443   2.278   9.197   2.055
 1543SOL    HW214444   2.344   9.284   1.933
 1544SOL     OW14445   3.213   3.628   1.709
 1544SOL    HW114446   3.183   3.599   1.800
 1544SOL    HW214447   3.312   3.646   1.711
  10.00000  10.00000   2.84800
