Written by MDAnalysis
27904
    1CHTO  H203    1   6.007   6.594   2.654 -3.8819  0.1525 -1.2301
    1CHTO   O82    2   6.025   6.510   2.616  0.0024  0.4900 -0.3718
    1CHTO  C123    3   6.149   6.461   2.671  0.2198 -0.1843 -0.4718
    1CHTO  H227    4   6.191   6.541   2.735  0.9632 -0.0168 -1.1598
    1CHTO   O77    5   6.110   6.345   2.746  0.4649  0.8274 -0.2317
    1CHTO  C118    6   6.212   6.282   2.832 -0.1132 -1.0354  0.6022
    1CHTO  H222    7   6.257   6.340   2.914 -0.4334  1.7742 -1.1575
    1CHTO  C125    8   6.132   6.165   2.892  0.6827 -0.1349  0.2565
    1CHTO   O84    9   6.211   6.095   2.995 -0.1817 -0.1111  0.4636
    1CHTO  H205   10   6.213   6.151   3.070 -0.0708 -2.2739  2.1081
    1CHTO  C114   11   6.323   6.233   2.734 -0.8210 -0.0482 -0.1362
    1CHTO  H218   12   6.283   6.161   2.663  1.5275 -0.5111 -1.0459
    1CHTO  C116   13   6.368   6.351   2.636  0.4806 -1.2134  0.0351
    1CHTO  H220   14   6.437   6.413   2.696 -0.2624  0.4369 -0.7890
    1CHTO   O79   15   6.445   6.281   2.537 -0.1380  0.1941  0.5652
    1CHTO  H201   16   6.486   6.344   2.481  0.5136 -0.7760 -0.0515
    1CHTO  C120   17   6.254   6.423   2.563 -0.1294  0.6105  0.1539
    1CHTO  H224   18   6.208   6.347   2.497 -1.0330 -0.7905  2.3325
    1CHTO   N21   19   6.310   6.536   2.484 -0.4046 -0.4407 -0.1208
    1CHTO  H211   20   6.238   6.570   2.412 -0.9442  0.4885  0.8508
    1CHTO  H212   21   6.332   6.625   2.541  1.9440 -0.4266 -1.0055
    1CHTO   O75   22   6.427   6.169   2.817  0.3541 -0.1385 -0.0459
    1CHTO  C112   23   6.477   6.011   2.788 -0.2949 -0.2771 -0.1862
    1CHTO  H216   24   6.457   5.987   2.683  0.2549  1.1206 -0.6231
    1CHTO   O73   25   6.401   5.930   2.877 -0.3674 -0.1037  0.1549
    1CHTO  C113   26   6.434   5.791   2.869  0.3634 -0.2757 -0.5023
    1CHTO  H217   27   6.431   5.764   2.761  0.3723 -1.2542 -0.2597
    1CHTO  C124   28   6.332   5.699   2.936  0.3417  0.1895  0.0941
    1CHTO   O83   29   6.334   5.728   3.075 -0.6298 -0.2034  0.2074
    1CHTO  H204   30   6.395   5.676   3.124 -0.4298  2.3029  2.7192
    1CHTO  C109   31   6.577   5.759   2.916 -0.2255  0.5948  0.4870
    1CHTO  H213   32   6.581   5.781   3.024 -0.4452 -1.8080  1.0202
    1CHTO  C110   33   6.682   5.852   2.838  0.4247 -0.0837  0.3955
    1CHTO  H214   34   6.688   5.798   2.743 -1.8971 -1.0908  0.7915
    1CHTO   O78   35   6.817   5.839   2.891  0.3372 -0.1169  0.8535
    1CHTO  H200   36   6.874   5.912   2.872  0.3529 -0.1975  0.5759
    1CHTO  C111   37   6.632   6.001   2.833 -0.5598  0.2273  0.0772
    1CHTO  H215   38   6.639   6.044   2.934  0.0931  1.0070 -0.2900
    1CHTO   N19   39   6.721   6.080   2.739  0.1565 -0.2750  0.4341
    1CHTO  H207   40   6.696   6.185   2.725  1.3827 -0.0162  0.1256
    1CHTO  H208   41   6.717   6.027   2.645  2.0058 -0.5405  0.4889
    1CHTO   O74   42   6.621   5.617   2.889  0.3477 -0.7362  0.0969
    1CHTO  C115   43   6.695   5.550   3.009 -0.5915 -0.6948 -0.5127
    1CHTO  H219   44   6.751   5.625   3.065 -0.2724 -0.4428 -1.1593
    1CHTO   O76   45   6.595   5.487   3.116 -0.0420  0.2998  0.2236
    1CHTO  C122   46   6.547   5.360   3.077 -0.4296 -0.7543 -0.2235
    1CHTO  H226   47   6.489   5.369   2.985  0.7965 -0.1173 -0.9397
    1CHTO  C126   48   6.444   5.306   3.184  0.3170  0.4404  0.1469
    1CHTO   O85   49   6.487   5.286   3.318 -0.2126  0.0843  0.7005
    1CHTO  H206   50   6.448   5.353   3.371 -1.0934 -1.0105  1.4553
    1CHTO  C121   51   6.654   5.252   3.042 -0.0552 -0.1239  0.5296
    1CHTO  H225   52   6.666   5.184   3.129 -1.0886 -1.2326 -0.1912
    1CHTO   O81   53   6.610   5.156   2.944 -0.3724  0.4961 -0.3892
    1CHTO  H202   54   6.525   5.122   2.964 -0.3162 -0.5504 -1.9107
    1CHTO  C119   55   6.795   5.320   3.020 -0.0426 -0.3450  0.5520
    1CHTO  H223   56   6.834   5.349   3.118 -0.5595  2.1589  0.0607
    1CHTO  C117   57   6.790   5.450   2.937  0.1332  0.1047  0.1901
    1CHTO  H221   58   6.756   5.451   2.833  0.0365 -0.5023  0.2155
    1CHTO   N20   59   6.926   5.509   2.939  0.1823 -0.6343 -0.3798
    1CHTO  H209   60   6.926   5.592   2.870  0.5654 -0.2816  0.0412
    1CHTO  H210   61   7.011   5.444   2.927  1.4810  1.3623 -2.5897
    1CHTO   O80   62   6.913   5.204   2.971  0.5194  0.2853 -0.1367
    1CHTO  C103   63   6.909   5.136   2.817  0.2310  0.5406  0.5698
    1CHTO  H190   64   6.855   5.041   2.817  1.4587 -0.1678 -0.8295
    1CHTO  C101   65   6.848   5.214   2.692 -0.1628 -1.2452 -0.0243
    1CHTO  H188   66   6.886   5.315   2.699 -0.6213 -1.2080  2.1267
    1CHTO   O68   67   6.702   5.226   2.693 -0.2761  0.1691 -0.4132
    1CHTO  H168   68   6.683   5.286   2.762  0.5841 -1.0154  0.8745
    1CHTO   C99   69   6.884   5.142   2.550  0.9005  0.5034 -0.0924
    1CHTO  H186   70   6.826   5.048   2.549 -1.0690  1.6859 -2.6182
    1CHTO   N17   71   6.844   5.208   2.425 -0.3148 -0.4558 -0.5712
    1CHTO  H174   72   6.738   5.225   2.421 -0.2057 -0.0316 -1.9596
    1CHTO  H175   73   6.881   5.158   2.337 -1.5114  2.6166 -2.8947
    1CHTO   C97   74   7.030   5.096   2.550 -0.2583 -0.1581  0.0533
    1CHTO  H184   75   7.089   5.188   2.541 -0.7129  0.1398  0.1364
    1CHTO   O64   76   7.059   5.027   2.668  0.0090 -0.5021  0.1288
    1CHTO  C104   77   7.065   5.102   2.794 -0.0610 -0.2426  0.2402
    1CHTO  H191   78   7.125   5.192   2.804 -1.0995  0.3326  1.4744
    1CHTO  C108   79   7.137   5.005   2.891  0.5806  0.2422 -0.0176
    1CHTO   O71   80   7.264   4.961   2.845  0.2262 -0.6420  0.3033
    1CHTO  H171   81   7.255   4.872   2.816  1.6628 -0.4513 -0.7774
    1CHTO   O62   82   7.067   4.999   2.448 -0.7213 -0.2317 -0.2633
    1CHTO   C91   83   7.179   5.042   2.365 -0.3942  0.0759  0.1087
    1CHTO  H178   84   7.197   5.149   2.370 -1.3511  0.2592 -0.3373
    1CHTO   C92   85   7.151   5.015   2.213  0.5318 -0.4932 -0.4377
    1CHTO  H179   86   7.045   5.033   2.190  1.0069  0.7113 -1.7785
    1CHTO   O66   87   7.225   5.116   2.141  0.2733 -0.0457 -0.3287
    1CHTO  H166   88   7.211   5.111   2.048 -1.9129  1.6669 -0.1205
    1CHTO   C93   89   7.193   4.869   2.163 -0.2552  0.6541  0.4920
    1CHTO  H180   90   7.201   4.878   2.054 -1.1772 -1.4348  0.2369
    1CHTO   N16   91   7.094   4.758   2.199  0.5275 -0.1170 -0.3741
    1CHTO  H172   92   7.024   4.736   2.119 -0.2961  2.0506 -0.3014
    1CHTO  H173   93   7.029   4.780   2.282  1.6394  0.5797  0.3129
    1CHTO   C94   94   7.331   4.826   2.226 -0.1156  0.7315  0.0854
    1CHTO  H181   95   7.317   4.750   2.304 -2.1033 -0.5156 -1.4202
    1CHTO   O61   96   7.399   4.932   2.301 -0.4473 -0.0528  0.6211
    1CHTO   C95   97   7.319   4.968   2.412 -0.1666 -0.3231 -0.3826
    1CHTO  H182   98   7.297   4.880   2.472 -0.5894  1.2994  1.9198
    1CHTO  C106   99   7.405   5.055   2.516  0.1314  0.6208 -0.3479
    1CHTO   O69  100   7.495   4.964   2.578 -0.4623  0.0578 -0.6435
    1CHTO  H169  101   7.579   4.979   2.539  0.4049 -1.0620  0.7552
    1CHTO   O63  102   7.423   4.773   2.103  0.4777  0.5905  0.5168
    1CHTO   C96  103   7.528   4.663   2.148  0.4004  0.1589  0.4912
    1CHTO  H183  104   7.525   4.641   2.255  0.7498  0.5087  0.5734
    1CHTO   C98  105   7.678   4.709   2.116  0.3129  0.3020  0.1928
    1CHTO  H185  106   7.688   4.817   2.130  2.3110 -0.0786  1.9014
    1CHTO   O67  107   7.768   4.654   2.215 -0.2872 -0.6085  0.4321
    1CHTO  H167  108   7.761   4.697   2.298 -0.6204  1.9558 -0.8787
    1CHTO  C102  109   7.735   4.666   1.967  0.1646 -1.1206  0.1051
    1CHTO  H189  110   7.843   4.678   1.978 -0.2127  2.3947  0.7336
    1CHTO   N18  111   7.690   4.741   1.849  0.0417 -0.3952 -0.1436
    1CHTO  H176  112   7.757   4.819   1.814 -0.7048  0.1732 -0.3220
    1CHTO  H177  113   7.592   4.782   1.866 -0.6338 -0.6839 -3.0114
    1CHTO  C105  114   7.707   4.514   1.935  0.0239  0.8224 -0.3717
    1CHTO  H192  115   7.695   4.494   1.828  0.9027 -1.5469 -0.0505
    1CHTO   O65  116   7.605   4.462   2.022 -0.3506  0.3798  0.3628
    1CHTO  C100  117   7.490   4.536   2.069  0.1173  0.2540 -0.2278
    1CHTO  H187  118   7.433   4.561   1.978 -0.9451 -2.1053 -0.2226
    1CHTO  C107  119   7.400   4.441   2.157 -0.6335 -0.5599 -0.6240
    1CHTO   O70  120   7.480   4.367   2.251  0.1090 -0.0618  0.1994
    1CHTO  H170  121   7.531   4.297   2.216  0.2324 -1.0179  2.1870
    1CHTO   O57  122   7.852   4.445   1.971 -0.7113  0.1601  0.1029
    1CHTO   C85  123   7.871   4.305   1.957  0.3124 -0.0786 -0.3812
    1CHTO  H157  124   7.793   4.276   1.884 -0.9983 -0.0104  0.9640
    1CHTO   C83  125   7.829   4.242   2.091 -0.2549 -0.0265  0.1801
    1CHTO  H155  126   7.725   4.262   2.114 -0.2918 -0.4616  0.3904
    1CHTO   O56  127   7.910   4.303   2.190 -0.3068 -0.1437  0.0208
    1CHTO  H135  128   7.964   4.250   2.246  1.0799  0.7013 -0.4962
    1CHTO   C81  129   7.844   4.086   2.063  0.2210  0.3216  0.2983
    1CHTO  H153  130   7.787   4.069   1.971  0.5835  0.1715  0.1010
    1CHTO   N14  131   7.790   4.017   2.180  0.2301 -0.3637  0.0857
    1CHTO  H141  132   7.691   3.990   2.153  0.1758  2.2414 -2.5604
    1CHTO  H142  133   7.797   4.078   2.268  3.3356 -0.5935  0.0511
    1CHTO   C79  134   7.995   4.054   2.034  0.3777  0.5397 -0.2317
    1CHTO  H151  135   7.997   3.946   2.018 -2.8867  0.1886  1.3386
    1CHTO   O52  136   8.038   4.115   1.912  0.0408 -0.2827  0.1115
    1CHTO   C86  137   8.020   4.260   1.915 -0.0036 -0.1129  0.1439
    1CHTO  H158  138   8.097   4.289   1.989  0.7827  1.5817 -1.3078
    1CHTO   C90  139   8.063   4.322   1.774 -0.4073  0.0761 -0.3771
    1CHTO   O60  140   8.097   4.463   1.800  0.4868  0.8824  0.8975
    1CHTO  H138  141   8.089   4.505   1.716 -1.6146 -2.5651 -0.7615
    1CHTO   O50  142   8.085   4.093   2.140  0.0462 -0.7802 -0.2134
    1CHTO   C73  143   8.210   4.055   2.191  0.7094 -0.6039 -0.8609
    1CHTO  H145  144   8.278   4.030   2.108 -0.7281  1.6179 -2.7894
    1CHTO   C74  145   8.185   3.945   2.307  0.0574 -0.2388 -0.0700
    1CHTO  H146  146   8.146   3.853   2.261 -0.6708  0.4529 -0.8522
    1CHTO   O54  147   8.310   3.901   2.362 -0.2014  0.2678 -0.3074
    1CHTO  H133  148   8.329   3.954   2.438 -1.0073  0.2577 -0.0975
    1CHTO   C75  149   8.091   3.997   2.422  0.0470  0.2989 -0.4512
    1CHTO  H147  150   7.987   4.006   2.386 -0.9168 -0.3306  2.0746
    1CHTO   N13  151   8.057   3.906   2.541  0.4681  0.1477 -0.6990
    1CHTO  H139  152   8.133   3.892   2.616 -2.0180 -3.8858  1.2015
    1CHTO  H140  153   7.968   3.944   2.589 -0.1923 -0.2271 -1.6004
    1CHTO   C76  154   8.138   4.141   2.470  1.4512 -0.1232 -0.5662
    1CHTO  H148  155   8.226   4.124   2.532  1.4799 -0.9677 -0.8270
    1CHTO   O49  156   8.188   4.226   2.365  0.2973 -0.2945 -0.5147
    1CHTO   C77  157   8.278   4.178   2.263  0.2088 -0.3838  0.0523
    1CHTO  H149  158   8.375   4.149   2.304  0.5110 -0.3859 -0.6519
    1CHTO   C88  159   8.309   4.300   2.171 -0.5366 -0.0566 -0.0447
    1CHTO   O58  160   8.385   4.394   2.244 -0.4634 -0.0591  0.1778
    1CHTO  H136  161   8.439   4.439   2.182 -0.1026  0.6285  0.9729
    1CHTO   O51  162   8.024   4.224   2.529 -0.1781 -0.0042  0.0847
    1CHTO   C78  163   8.066   4.362   2.618  0.0265 -0.0127 -0.0810
    1CHTO  H150  164   8.143   4.419   2.562 -0.9370 -1.2232 -2.7262
    1CHTO   C80  165   8.117   4.322   2.760 -0.2117  0.1143 -0.5796
    1CHTO  H152  166   8.037   4.267   2.814  0.0540  0.5487  0.2715
    1CHTO   O55  167   8.222   4.225   2.744  0.3865 -0.1137 -0.1702
    1CHTO  H134  168   8.209   4.160   2.810 -1.6939 -0.1581 -0.5698
    1CHTO   C84  169   8.155   4.455   2.836  0.5836 -0.3379 -0.9382
    1CHTO  H156  170   8.235   4.500   2.778  0.4056  0.6604 -0.4115
    1CHTO   N15  171   8.222   4.433   2.971  0.5860  0.6165 -0.3715
    1CHTO  H143  172   8.147   4.392   3.035  0.5649  1.3000  0.0491
    1CHTO  H144  173   8.259   4.522   3.018 -0.7184  0.6927  0.5320
    1CHTO   C87  174   8.027   4.545   2.851  0.8638  0.5158  0.0722
    1CHTO  H159  175   7.960   4.476   2.902  3.0575  0.1477  2.5093
    1CHTO   O53  176   7.965   4.574   2.708  0.2774 -0.2285 -0.4661
    1CHTO   C82  177   7.944   4.449   2.641  0.2183  0.5592  0.8308
    1CHTO  H154  178   7.864   4.394   2.690 -1.4240  1.8473 -0.3465
    1CHTO   C89  179   7.886   4.488   2.497  0.3332 -0.1657 -0.5943
    1CHTO   O59  180   7.754   4.546   2.508 -0.1215  0.6901  0.0515
    1CHTO  H137  181   7.703   4.483   2.555 -0.3066 -0.8122 -2.1206
    1CHTO   O45  182   8.062   4.693   2.913  0.4560 -0.3629  0.3333
    1CHTO   C67  183   7.957   4.789   2.930 -0.3728 -0.1787 -0.0450
    1CHTO  H124  184   7.934   4.843   2.838  0.3972  1.3757  0.6644
    1CHTO   C65  185   7.822   4.718   2.973  0.0305 -0.0846  0.1056
    1CHTO  H122  186   7.858   4.633   3.031 -0.7696 -0.6197 -0.1837
    1CHTO   O44  187   7.749   4.691   2.852 -0.9469 -0.5024 -0.1075
    1CHTO  H102  188   7.707   4.769   2.822 -1.8087 -0.0597  2.1431
    1CHTO   C63  189   7.743   4.806   3.074 -0.0667  0.1517 -1.0298
    1CHTO  H120  190   7.781   4.790   3.175 -2.4795  2.3307  0.2740
    1CHTO   N11  191   7.604   4.758   3.091  0.1347  0.3041 -0.3911
    1CHTO  H108  192   7.541   4.812   3.159  0.6922 -0.7715  0.9800
    1CHTO  H109  193   7.568   4.734   2.993 -1.6053 -0.5489  0.4398
    1CHTO   C61  194   7.755   4.966   3.045  0.1263  0.2531 -0.0763
    1CHTO  H118  195   7.713   5.011   3.137 -0.3982 -0.8644  0.2468
    1CHTO   O40  196   7.898   5.005   3.048 -0.2501 -0.5133  0.0644
    1CHTO   C68  197   8.002   4.895   3.034 -0.6892 -0.2250 -0.6716
    1CHTO  H125  198   8.023   4.843   3.130  2.6951  0.1526 -1.1327
    1CHTO   C72  199   8.139   4.954   2.990 -0.0484 -0.0145 -0.0708
    1CHTO   O48  200   8.190   5.066   3.061 -0.8074 -0.3114  0.2150
    1CHTO  H105  201   8.144   5.067   3.142 -1.1854  0.0462  0.0010
    1CHTO   O38  202   7.689   5.019   2.928  0.1829 -0.2375 -0.3386
    1CHTO   C55  203   7.656   5.156   2.943 -0.6220 -0.0247  0.1098
    1CHTO  H112  204   7.709   5.206   3.025 -0.5589 -2.4418  1.5749
    1CHTO   C56  205   7.498   5.169   2.950  0.1476  0.3256 -0.3151
    1CHTO  H113  206   7.444   5.122   2.866 -1.3470 -0.7853  1.2349
    1CHTO   O42  207   7.451   5.096   3.060  0.0172 -0.2204  0.5277
    1CHTO  H100  208   7.475   5.145   3.137  0.2646  0.6980 -0.1170
    1CHTO   C57  209   7.453   5.320   2.964 -0.0785 -0.4275  0.5213
    1CHTO  H114  210   7.488   5.364   3.057 -0.8245 -0.0543  0.6300
    1CHTO   N10  211   7.301   5.345   2.958  0.1731  0.4432  0.6634
    1CHTO  H106  212   7.269   5.448   2.951 -1.0936  0.1344  1.8515
    1CHTO  H107  213   7.248   5.293   3.035 -0.7399  0.2349 -0.0941
    1CHTO   C58  214   7.520   5.404   2.852 -0.5045 -0.4377  0.3182
    1CHTO  H115  215   7.460   5.400   2.759 -0.4030 -0.3787  0.2516
    1CHTO   O37  216   7.662   5.363   2.831  0.4584 -0.0967 -0.5855
    1CHTO   C59  217   7.696   5.231   2.820 -0.3103 -0.3415  0.5285
    1CHTO  H116  218   7.650   5.187   2.732  1.9951 -3.4296  0.7696
    1CHTO   C70  219   7.849   5.223   2.791  0.4422  0.4458  0.6722
    1CHTO   O46  220   7.900   5.097   2.741  0.1844 -0.2028 -0.4242
    1CHTO  H103  221   7.956   5.107   2.666  0.1116 -1.1729 -0.6199
    1CHTO   O39  222   7.544   5.550   2.896  0.6660  0.0039  0.3026
    1CHTO   C60  223   7.483   5.653   2.813 -0.6905  0.2757  0.1446
    1CHTO  H117  224   7.464   5.610   2.714 -0.2578 -2.8077  1.3342
    1CHTO   C62  225   7.362   5.717   2.881 -0.2746 -0.0922 -0.0274
    1CHTO  H119  226   7.289   5.636   2.897 -0.8162  0.4936  0.5134
    1CHTO   O43  227   7.385   5.770   3.011 -0.9220  0.4603  0.7012
    1CHTO  H101  228   7.425   5.708   3.069 -2.3841 -0.9648  0.2309
    1CHTO   C66  229   7.300   5.834   2.792 -0.0519  0.2224 -0.0699
    1CHTO  H123  230   7.283   5.795   2.692 -0.1609 -0.3014  0.1536
    1CHTO   N12  231   7.174   5.888   2.842 -1.0127  0.5572  0.1962
    1CHTO  H110  232   7.094   5.846   2.782  1.1538 -0.4083 -2.0997
    1CHTO  H111  233   7.151   5.858   2.943  1.7154  1.5406  1.1610
    1CHTO   C69  234   7.403   5.945   2.778 -0.4432  0.4481 -0.6741
    1CHTO  H126  235   7.425   5.997   2.873  2.5084  0.5149 -1.3338
    1CHTO   O41  236   7.529   5.883   2.713 -0.4601 -0.0916  0.1697
    1CHTO   C64  237   7.588   5.764   2.789  0.4742 -0.2602 -0.0978
    1CHTO  H121  238   7.622   5.807   2.886 -0.1772 -3.1051  1.4328
    1CHTO   C71  239   7.710   5.707   2.711  0.4477 -0.1470  0.1081
    1CHTO   O47  240   7.790   5.626   2.793  0.1494 -0.0831 -0.0493
    1CHTO  H104  241   7.840   5.569   2.739  1.2787  1.2872 -0.4672
    1CHTO   O34  242   7.359   6.060   2.675 -0.4550 -0.8720  0.2544
    1CHTO   C49  243   7.303   6.191   2.617 -0.1848 -0.2409 -0.4906
    1CHTO   H91  244   7.292   6.187   2.509 -1.2336 -0.2909 -0.3827
    1CHTO   C47  245   7.397   6.309   2.654 -0.2085 -0.6655  0.1590
    1CHTO   H89  246   7.347   6.393   2.601 -0.3681 -1.1367 -0.4393
    1CHTO   O33  247   7.519   6.274   2.588 -0.0887 -0.7265 -0.6812
    1CHTO   H70  248   7.591   6.332   2.606 -1.6363  0.8390  0.6664
    1CHTO   C45  249   7.398   6.325   2.814 -0.1530  0.1676  0.2797
    1CHTO   H87  250   7.429   6.230   2.860  1.0360  0.8734  0.9841
    1CHTO    N8  251   7.500   6.427   2.855  0.1434 -0.3015 -0.1655
    1CHTO   H75  252   7.453   6.521   2.832 -2.6419 -1.5576  0.1570
    1CHTO   H76  253   7.510   6.422   2.962  1.2439  1.1862 -0.1925
    1CHTO   C43  254   7.252   6.355   2.875 -0.0343 -0.8324  0.1569
    1CHTO   H85  255   7.272   6.336   2.981  1.5591 -0.3923 -0.0514
    1CHTO   O29  256   7.151   6.263   2.819 -0.2595  0.2088 -0.3902
    1CHTO   C50  257   7.156   6.226   2.677 -0.8015 -0.0791  0.0711
    1CHTO   H92  258   7.095   6.136   2.660 -1.4152  0.2577  0.4584
    1CHTO   C54  259   7.080   6.325   2.586 -1.0317  0.0503  0.4603
    1CHTO   O36  260   6.938   6.292   2.594  0.1837  0.1579 -0.0860
    1CHTO   H72  261   6.910   6.282   2.683  0.0431  1.3839  0.0124
    1CHTO   O27  262   7.198   6.482   2.854 -0.0841  0.7918 -0.0856
    1CHTO   C37  263   7.211   6.624   2.848 -0.0405 -0.3931 -0.3828
    1CHTO   H79  264   7.314   6.651   2.817 -0.3736  3.2508  1.4619
    1CHTO   C38  265   7.118   6.690   2.738  0.4648 -0.0248 -0.4773
    1CHTO   H80  266   7.018   6.645   2.749 -0.1434  1.5829  0.8077
    1CHTO   O31  267   7.172   6.655   2.604  0.0274  0.2910 -0.1536
    1CHTO   H68  268   7.106   6.602   2.563 -1.2719  0.6566  1.3845
    1CHTO   C39  269   7.106   6.844   2.739  0.1862  0.2716 -0.3634
    1CHTO   H81  270   7.200   6.871   2.691  0.0477 -1.1704 -1.4914
    1CHTO    N7  271   6.988   6.890   2.665  0.7000 -0.4885 -0.1354
    1CHTO   H73  272   6.913   6.919   2.737 -0.5963  0.4159 -1.7977
    1CHTO   H74  273   7.013   6.981   2.612 -2.2285  0.6668  0.3478
    1CHTO   C40  274   7.118   6.901   2.888  0.4467  0.1592 -0.4866
    1CHTO   H82  275   7.019   6.918   2.931  0.1479 -0.2803 -0.9966
    1CHTO   O26  276   7.203   6.831   2.977 -0.3279  0.2852 -0.2035
    1CHTO   C41  277   7.185   6.683   2.987  0.3935  0.7487  0.1341
    1CHTO   H83  278   7.077   6.671   3.006  0.4444 -1.9587 -1.0638
    1CHTO   C52  279   7.274   6.628   3.105  0.0234 -0.0775 -0.1873
    1CHTO   O35  280   7.429   6.695   3.098 -0.0350 -0.1329  0.1526
    1CHTO   H71  281   7.489   6.635   3.137  0.5931  0.3199 -0.1088
    1CHTO   O28  282   7.170   7.033   2.891 -0.6450  0.2798 -0.4356
    1CHTO   C42  283   7.298   7.079   2.835  0.2067 -0.0970  0.7046
    1CHTO   H84  284   7.336   7.003   2.767 -0.6889  0.4035 -0.3868
    1CHTO   C44  285   7.412   7.108   2.942  0.3571 -0.4755  0.0829
    1CHTO   H86  286   7.375   7.166   3.026 -0.5038 -0.9474  0.0366
    1CHTO   O32  287   7.451   6.989   3.006 -0.0642 -0.1974  0.0603
    1CHTO   H69  288   7.519   6.944   2.959  0.8923  2.2759 -1.0131
    1CHTO   C48  289   7.543   7.159   2.868 -0.8546 -0.8299 -0.7530
    1CHTO   H90  290   7.593   7.084   2.807  0.5858 -1.1459  0.7573
    1CHTO    N9  291   7.646   7.215   2.962  0.0375 -0.5012 -0.4865
    1CHTO   H77  292   7.601   7.298   3.016  0.4106 -2.1087  2.4389
    1CHTO   H78  293   7.670   7.133   3.028 -2.0169 -0.6130  0.1545
    1CHTO   C51  294   7.510   7.264   2.757 -0.1509  0.3312  0.9753
    1CHTO   H93  295   7.496   7.358   2.810  1.0120 -0.4410  2.7045
    1CHTO   O30  296   7.394   7.223   2.679  0.1529 -0.2003  0.1528
    1CHTO   C46  297   7.282   7.207   2.748 -0.1898  0.1390  0.0118
    1CHTO   H88  298   7.270   7.297   2.809 -0.1234 -0.3363  0.7275
    1CHTO   C53  299   7.158   7.205   2.653 -0.5502  0.3788 -0.7093
    1CHTO   O72  300   7.043   7.221   2.733 -0.0688  0.1181  0.0619
    1CHTO  H199  301   6.969   7.168   2.709  1.5245 -2.6803  1.1107
    1CHTO   O22  302   7.616   7.287   2.666 -0.4529  0.3396  0.6390
    1CHTO   C31  303   7.607   7.348   2.528  0.3693  0.1881 -0.0092
    1CHTO   H59  304   7.500   7.362   2.502  0.4526  1.4934  0.3365
    1CHTO   C29  305   7.680   7.484   2.525  0.3196  0.3471  0.2561
    1CHTO   H57  306   7.787   7.468   2.549  0.2885 -0.2029  0.0460
    1CHTO   O21  307   7.622   7.565   2.629 -0.1430 -0.0567  0.2459
    1CHTO   H37  308   7.616   7.529   2.715 -3.6923 -1.5563 -0.5075
    1CHTO   C27  309   7.670   7.548   2.385 -0.4690 -1.2682 -0.2188
    1CHTO   H55  310   7.565   7.578   2.369 -0.5279 -0.4712  1.4872
    1CHTO    N5  311   7.754   7.669   2.370 -0.6445  0.1427 -0.5517
    1CHTO   H43  312   7.859   7.643   2.363 -1.0945 -1.5926 -0.9966
    1CHTO   H44  313   7.743   7.732   2.457  1.0004 -0.4122  0.0755
    1CHTO   C25  314   7.722   7.440   2.278  0.0005  0.0776 -0.0362
    1CHTO   H53  315   7.828   7.416   2.294 -0.0852 -0.0887  0.2944
    1CHTO   O17  316   7.656   7.314   2.289 -0.0715 -0.1764 -0.0844
    1CHTO   C32  317   7.659   7.258   2.418 -0.5401 -0.0809 -0.1833
    1CHTO   H60  318   7.765   7.242   2.439 -0.2266  0.5164 -1.2930
    1CHTO   C36  319   7.592   7.119   2.400  0.6454  0.2010  0.0756
    1CHTO   O25  320   7.621   7.026   2.506 -0.1237 -0.2490  0.0568
    1CHTO   H40  321   7.626   6.936   2.480  0.1079  0.2672 -1.7255
    1CHTO   O15  322   7.696   7.478   2.130  0.2220  0.1438 -0.1698
    1CHTO   C19  323   7.689   7.411   1.997  0.1949  0.0848 -0.0088
    1CHTO   H47  324   7.647   7.494   1.938 -1.5467 -0.6963  0.0884
    1CHTO   C20  325   7.824   7.363   1.940  0.9708 -0.4997 -0.0389
    1CHTO   H48  326   7.861   7.279   2.000 -0.6103  1.4431  3.8275
    1CHTO   O19  327   7.924   7.464   1.951 -0.0272  0.2953  0.5948
    1CHTO   H35  328   7.927   7.529   1.883 -2.8942 -0.2235 -0.0955
    1CHTO   C21  329   7.805   7.309   1.793  0.6867 -0.5093 -0.6303
    1CHTO   H49  330   7.770   7.390   1.730 -1.5515 -0.8821  0.0963
    1CHTO    N4  331   7.924   7.247   1.725 -0.1770  0.1132  0.1822
    1CHTO   H41  332   7.896   7.211   1.627 -0.8338 -2.3499  1.2507
    1CHTO   H42  333   7.975   7.168   1.779 -0.2458 -0.3076 -0.3680
    1CHTO   C22  334   7.678   7.222   1.774  0.2229 -0.2431  0.2891
    1CHTO   H50  335   7.695   7.118   1.802  2.1952  0.2757  1.1010
    1CHTO   O14  336   7.565   7.274   1.853  0.4001 -0.6130 -0.2737
    1CHTO   C23  337   7.581   7.306   1.992  0.1359 -0.2321 -0.0723
    1CHTO   H51  338   7.606   7.216   2.049  0.7017 -0.4690 -0.6839
    1CHTO   C34  339   7.441   7.360   2.047  0.7714 -0.1263 -0.4623
    1CHTO   O23  340   7.357   7.247   2.052 -0.2272  0.1929 -0.5681
    1CHTO   H38  341   7.271   7.259   2.088  1.0437  1.9706  1.9537
    1CHTO   O16  342   7.632   7.227   1.639 -0.3234  0.5154  0.5506
    1CHTO   C24  343   7.606   7.079   1.574 -0.4802 -0.6752  0.3993
    1CHTO   H52  344   7.643   6.996   1.634 -2.0387 -2.7067 -1.3753
    1CHTO   C26  345   7.677   7.078   1.440 -0.1648 -0.9672  0.2054
    1CHTO   H54  346   7.648   7.168   1.382  2.2437  0.8033  1.6118
    1CHTO   O20  347   7.824   7.095   1.458  0.1953 -0.3035 -0.2110
    1CHTO   H36  348   7.843   7.149   1.531 -0.2950 -1.3076  0.6822
    1CHTO   C30  349   7.653   6.943   1.366  0.0679 -0.4163  0.3301
    1CHTO   H58  350   7.675   6.859   1.433 -1.4170 -1.5190 -0.5138
    1CHTO    N6  351   7.728   6.929   1.237 -0.3701 -0.2417 -0.0703
    1CHTO   H45  352   7.778   7.020   1.206 -0.1573 -0.9597 -1.8978
    1CHTO   H46  353   7.804   6.852   1.243  0.5772  0.7042  0.4207
    1CHTO   C33  354   7.496   6.929   1.337  0.0758 -0.0813  0.3871
    1CHTO   H61  355   7.463   7.017   1.280  0.3000  0.0439  0.4493
    1CHTO   O18  356   7.435   6.938   1.469 -0.1410 -0.3486  0.4098
    1CHTO   C28  357   7.454   7.057   1.549  1.5202  0.4328  0.3185
    1CHTO   H56  358   7.410   7.143   1.500 -1.0651 -1.0024  0.0052
    1CHTO   C35  359   7.379   7.050   1.690  0.1094  0.7087  0.6719
    1CHTO   O24  360   7.242   7.015   1.656 -0.1638  0.0014 -1.0322
    1CHTO   H39  361   7.181   7.084   1.672 -0.8269 -0.9168  0.4679
    1CHTO    O9  362   7.449   6.815   1.262 -0.5282  0.0857 -0.0215
    1CHTO   C13  363   7.297   6.795   1.220 -0.3806 -0.2417  0.0334
    1CHTO   H26  364   7.253   6.896   1.205 -0.5869 -0.0807  1.5426
    1CHTO   C11  365   7.219   6.723   1.334 -0.0556  0.2766 -0.0237
    1CHTO   H24  366   7.216   6.789   1.422 -0.5260 -0.9985  0.9384
    1CHTO    O8  367   7.282   6.599   1.381  0.8749 -0.5315 -0.0560
    1CHTO    H3  368   7.220   6.555   1.436 -1.5904 -0.7201 -2.8096
    1CHTO    C9  369   7.074   6.696   1.283 -0.0248 -0.8539 -0.0015
    1CHTO   H22  370   7.035   6.792   1.248 -0.1323 -0.3729  1.4013
    1CHTO    N2  371   6.975   6.657   1.387 -0.3336  0.0606  0.3900
    1CHTO   H10  372   6.915   6.571   1.359  0.1491 -0.1932  0.1205
    1CHTO   H11  373   6.920   6.742   1.424  0.1611  0.9458 -0.8961
    1CHTO    C7  374   7.077   6.601   1.155 -0.2041 -0.2357  0.4281
    1CHTO   H20  375   7.010   6.639   1.075 -0.7436 -0.1490  0.9136
    1CHTO    O4  376   7.208   6.599   1.094 -0.1547  0.2702 -0.1388
    1CHTO   C14  377   7.283   6.720   1.078  0.0298 -0.0653 -0.1561
    1CHTO   H27  378   7.219   6.779   1.009 -0.6685 -1.3843 -0.6562
    1CHTO   C18  379   7.416   6.683   1.004 -0.1858 -0.0445 -0.5166
    1CHTO   O13  380   7.380   6.638   0.871  0.2223 -0.1308  0.2733
    1CHTO    H7  381   7.448   6.653   0.808  0.3798 -0.0925  0.4530
    1CHTO    O2  382   7.037   6.435   1.189  0.0651 -0.2589 -0.5582
    1CHTO    C1  383   7.113   6.331   1.120 -0.1666 -0.6334  0.0381
    1CHTO   H14  384   7.217   6.366   1.101 -0.1883 -0.2436  0.6263
    1CHTO    C2  385   7.043   6.288   0.980 -0.2314 -1.0174 -0.5162
    1CHTO   H15  386   6.940   6.270   1.015  0.5398 -3.4303  0.6350
    1CHTO    O6  387   7.047   6.411   0.908  0.0703 -0.3514 -0.2995
    1CHTO    H1  388   6.970   6.419   0.854  0.4750  1.9466 -0.6087
    1CHTO    C3  389   7.117   6.166   0.913 -0.3203  0.1855  0.2473
    1CHTO   H16  390   7.214   6.203   0.876 -1.1036 -0.0769 -2.1535
    1CHTO    N1  391   7.033   6.126   0.798  1.1134 -0.0212 -0.3046
    1CHTO    H8  392   7.029   6.018   0.805  1.2612 -0.1200 -1.6542
    1CHTO    H9  393   7.074   6.143   0.700  0.2240  0.2077 -0.6430
    1CHTO    C4  394   7.148   6.051   1.014  0.4430  0.7853  0.2833
    1CHTO   H17  395   7.057   5.995   1.035  1.3534 -0.5497  0.7457
    1CHTO    O1  396   7.209   6.107   1.138  0.6486  0.2022  0.5229
    1CHTO    C5  397   7.122   6.200   1.206  0.5714 -0.0703  0.1090
    1CHTO   H18  398   7.020   6.170   1.227  0.7829  0.1369  1.5199
    1CHTO   C16  399   7.193   6.231   1.334 -0.2755  0.1056  0.3487
    1CHTO   O11  400   7.166   6.129   1.426 -0.5501 -0.1801  0.4569
    1CHTO    H5  401   7.073   6.122   1.438 -0.3825 -1.3002  1.1660
    1CHTO    O3  402   7.254   5.968   0.958  0.6060  0.2983  0.1892
    1CHTO    C6  403   7.259   5.829   1.012  0.3178 -0.2276 -0.1063
    1CHTO   H19  404   7.208   5.804   1.105 -1.0016  1.6230 -0.2989
    1CHTO    C8  405   7.195   5.731   0.915 -0.0891  0.3485 -0.0934
    1CHTO   H21  406   7.255   5.737   0.825 -1.1611  1.8456 -0.7236
    1CHTO    O7  407   7.052   5.766   0.900  0.5805  0.0036 -0.8656
    1CHTO    H2  408   7.040   5.841   0.845  0.8762 -0.0697 -1.0302
    1CHTO   C12  409   7.202   5.581   0.968 -0.8241 -0.1958 -0.0034
    1CHTO   H25  410   7.145   5.588   1.063 -1.0752 -0.9502 -0.0978
    1CHTO    N3  411   7.134   5.482   0.873 -0.2357 -0.2374  0.0348
    1CHTO   H12  412   7.047   5.438   0.918 -1.5732  1.4760 -0.8136
    1CHTO   H13  413   7.202   5.402   0.847 -0.7049 -1.3539  2.0989
    1CHTO   C15  414   7.356   5.555   1.007 -0.1958  0.2995 -0.1749
    1CHTO   H28  415   7.433   5.536   0.933 -0.9013  0.4606 -0.9500
    1CHTO   O10  416   7.371   5.427   1.100  0.3830  0.1294 -0.0528
    1CHTO    H4  417   7.387   5.345   1.057 -1.2663 -0.3092  0.1427
    1CHTO    O5  418   7.412   5.659   1.091 -0.0260  0.3894 -0.0258
    1CHTO   C10  419   7.404   5.789   1.029 -0.1824  0.2381 -0.4102
    1CHTO   H23  420   7.455   5.783   0.933  3.4815  0.6436  1.4174
    1CHTO   C17  421   7.475   5.899   1.112  0.4673  0.4921 -0.3537
    1CHTO   O12  422   7.618   5.896   1.125 -0.5221 -0.4443 -0.7348
    1CHTO    H6  423   7.647   5.825   1.179  0.9259  0.3676 -0.3978
    2CHTO  H203  424   6.546   3.769   3.614  0.7928 -0.4083  1.5706
    2CHTO   O82  425   6.461   3.759   3.653  0.0918 -0.1654  0.1236
    2CHTO  C123  426   6.382   3.855   3.575  1.0473 -0.3703 -0.1104
    2CHTO  H227  427   6.420   3.870   3.473  1.4551  2.2063  0.3938
    2CHTO   O77  428   6.246   3.802   3.570 -0.1361 -0.1459 -0.3836
    2CHTO  C118  429   6.163   3.866   3.473 -0.2699  0.3501 -0.7324
    2CHTO  H222  430   6.208   3.860   3.373 -3.4374 -1.6706 -2.1300
    2CHTO  C125  431   6.032   3.780   3.468 -0.1611  0.5687  0.1840
    2CHTO   O84  432   6.060   3.642   3.415  0.4248 -0.0319 -0.2753
    2CHTO  H205  433   6.056   3.637   3.321  2.0919  0.6199 -0.3969
    2CHTO  C114  434   6.140   4.010   3.517  0.8287  0.3464  0.4506
    2CHTO  H218  435   6.064   4.012   3.595 -0.5094 -1.9169 -0.7534
    2CHTO  C116  436   6.262   4.085   3.569  0.1720  0.3684 -0.0355
    2CHTO  H220  437   6.323   4.128   3.487 -0.4962  1.8571  0.2318
    2CHTO   O79  438   6.222   4.203   3.647  0.0632  0.0069  0.4306
    2CHTO  H201  439   6.149   4.240   3.601 -1.0650 -1.5482  0.9362
    2CHTO  C120  440   6.371   3.994   3.655  0.5256 -0.0530  0.3353
    2CHTO  H224  441   6.330   3.987   3.758 -0.3003  0.4892  0.0514
    2CHTO   N21  442   6.492   4.078   3.659 -0.2461  0.7421  0.1521
    2CHTO  H211  443   6.552   4.054   3.746  1.0615  0.3536 -0.8225
    2CHTO  H212  444   6.557   4.044   3.579  1.6304 -0.0237  1.9637
    2CHTO   O75  445   6.080   4.060   3.401 -0.4653  0.2528  0.0128
    2CHTO  C112  446   5.948   4.155   3.412  0.4170  0.7987 -0.2493
    2CHTO  H216  447   5.963   4.233   3.488  1.2825  0.7333 -0.3459
    2CHTO   O73  448   5.844   4.066   3.448  0.3982 -0.7346  0.4626
    2CHTO  C113  449   5.716   4.134   3.451  0.0338  0.1551  0.0053
    2CHTO  H217  450   5.722   4.221   3.520  0.4942  1.2143 -1.3319
    2CHTO  C124  451   5.615   4.032   3.512 -0.0252  0.1741 -0.4732
    2CHTO   O83  452   5.625   3.895   3.459  0.1723 -0.6931  0.1738
    2CHTO  H204  453   5.604   3.899   3.367 -0.3301 -2.8359  0.1560
    2CHTO  C109  454   5.670   4.173   3.311 -0.3087  0.2848  0.5746
    2CHTO  H213  455   5.664   4.079   3.255  2.3383 -0.7667  1.9873
    2CHTO  C110  456   5.774   4.274   3.256  0.6694  0.5189 -0.2290
    2CHTO  H214  457   5.755   4.370   3.305  0.7282 -0.1156  1.0605
    2CHTO   O78  458   5.745   4.306   3.118  0.2197 -0.1907  0.2456
    2CHTO  H200  459   5.716   4.233   3.068  0.9533 -0.6468  0.4856
    2CHTO  C111  460   5.919   4.212   3.270 -0.0245 -0.0793  0.4413
    2CHTO  H215  461   5.931   4.125   3.203  1.7217  2.0986 -2.1905
    2CHTO   N19  462   6.036   4.302   3.243  0.5947 -0.1510 -0.0223
    2CHTO  H207  463   6.129   4.247   3.248 -0.8161 -2.5292  0.6375
    2CHTO  H208  464   6.029   4.359   3.151 -2.2954 -3.7500 -2.1481
    2CHTO   O74  465   5.539   4.238   3.319 -0.5941 -0.4981  0.2379
    2CHTO  C115  466   5.446   4.222   3.193  0.4186 -0.0071  0.0715
    2CHTO  H219  467   5.504   4.224   3.101 -1.0833 -1.6456 -0.9469
    2CHTO   O76  468   5.372   4.092   3.197 -0.0248  0.3235 -1.0204
    2CHTO  C122  469   5.254   4.090   3.283  0.2065 -0.9222 -0.4516
    2CHTO  H226  470   5.283   4.100   3.388 -0.6009  0.7651 -0.3755
    2CHTO  C126  471   5.192   3.942   3.279 -0.2647 -0.7738  0.1668
    2CHTO   O85  472   5.276   3.839   3.335  0.1503  0.2118 -0.0688
    2CHTO  H206  473   5.297   3.854   3.425 -2.1946  1.6537  0.2619
    2CHTO  C121  474   5.141   4.193   3.252 -0.0097 -0.0951  0.2858
    2CHTO  H225  475   5.058   4.148   3.192 -1.8717  2.1233  1.1270
    2CHTO   O81  476   5.083   4.234   3.379  0.1277  0.1407  0.0149
    2CHTO  H202  477   5.074   4.158   3.434  0.9975 -0.7736 -1.0857
    2CHTO  C119  478   5.195   4.320   3.171  0.2603  0.9533 -0.4708
    2CHTO  H223  479   5.184   4.279   3.070 -1.6704 -2.5509  1.0835
    2CHTO  C117  480   5.348   4.350   3.203 -0.4302  0.1678  0.8132
    2CHTO  H221  481   5.359   4.372   3.309 -0.2747  0.3726  0.7556
    2CHTO   N20  482   5.405   4.469   3.132  0.1972 -0.5108 -0.0375
    2CHTO  H209  483   5.330   4.547   3.131  0.5768 -0.1505 -1.2545
    2CHTO  H210  484   5.500   4.507   3.164 -0.8491  0.7447  1.6602
    2CHTO   O80  485   5.082   4.443   3.171  0.5767  0.4165  0.0259
    2CHTO  C103  486   5.072   4.543   3.024  0.1265 -0.3342  0.4383
    2CHTO  H190  487   5.172   4.571   2.989 -0.1395 -0.5057 -0.4562
    2CHTO  C101  488   4.980   4.483   2.898 -0.1218 -0.2818 -0.7056
    2CHTO  H188  489   4.887   4.451   2.943  1.4738  2.0661  4.6484
    2CHTO   O68  490   5.044   4.385   2.840  0.1608 -0.4164  0.1043
    2CHTO  H168  491   5.048   4.403   2.748 -0.9757  1.0426  0.3221
    2CHTO   C99  492   4.947   4.604   2.792 -0.3367 -0.2402  0.0300
    2CHTO  H186  493   5.041   4.649   2.754 -0.4774  1.1335  1.2475
    2CHTO   N17  494   4.863   4.565   2.677 -0.2215 -0.1710  0.4998
    2CHTO  H174  495   4.762   4.556   2.714 -0.1475  3.0333  1.6506
    2CHTO  H175  496   4.864   4.634   2.594 -0.3997  1.4159  1.7915
    2CHTO   C97  497   4.874   4.716   2.864  0.2947  0.5857 -0.1910
    2CHTO  H184  498   4.781   4.681   2.912  0.1091 -0.5285 -1.3120
    2CHTO   O64  499   4.966   4.769   2.961  0.3833  0.5827  0.1561
    2CHTO  C104  500   4.997   4.680   3.069 -0.4949  0.5226  0.4319
    2CHTO  H191  501   4.910   4.645   3.124  0.3299  1.1524  2.1735
    2CHTO  C108  502   5.092   4.751   3.172  0.4697  0.1333  0.1057
    2CHTO   O71  503   5.029   4.860   3.238 -0.2050  0.0947  0.3337
    2CHTO  H171  504   5.084   4.909   3.296  0.0196  1.6839 -1.2053
    2CHTO   O62  505   4.866   4.835   2.798  0.1898  0.2848 -0.1956
    2CHTO   C91  506   4.739   4.887   2.759 -0.1309  0.6842  0.0741
    2CHTO  H178  507   4.661   4.811   2.766  0.7667 -0.4921 -2.3427
    2CHTO   C92  508   4.745   4.936   2.612 -0.3051 -0.2488  0.1003
    2CHTO  H179  509   4.794   4.858   2.553  1.4781  0.3676  0.7309
    2CHTO   O66  510   4.605   4.939   2.576 -0.3246  0.6719 -0.6529
    2CHTO  H166  511   4.590   4.980   2.493  1.0773  4.7581  1.0266
    2CHTO   C93  512   4.800   5.083   2.594 -0.2021  0.3321  0.0111
    2CHTO  H180  513   4.762   5.109   2.495 -0.6361  2.0327  0.6036
    2CHTO   N16  514   4.945   5.099   2.586  0.1208  0.1228  0.4297
    2CHTO  H172  515   4.966   5.205   2.582  1.5332 -0.1732 -0.6722
    2CHTO  H173  516   4.985   5.071   2.682  0.6196  2.3165  0.8735
    2CHTO   C94  517   4.729   5.188   2.696  0.2367 -0.1883  0.0018
    2CHTO  H181  518   4.804   5.242   2.753  1.3322  0.7447 -2.2680
    2CHTO   O61  519   4.643   5.117   2.793 -0.6033  0.0419  0.1582
    2CHTO   C95  520   4.693   4.997   2.856  0.1076  0.1012  1.1463
    2CHTO  H182  521   4.781   5.020   2.915  0.9845 -0.0104 -0.0862
    2CHTO  C106  522   4.585   4.943   2.955 -1.2287 -0.3722  0.3179
    2CHTO   O69  523   4.626   4.853   3.060  0.4884  0.0400  0.0963
    2CHTO  H169  524   4.699   4.889   3.108  0.0287  0.1521  0.7139
    2CHTO   O63  525   4.631   5.301   2.604  0.4475  0.3738 -0.2032
    2CHTO   C96  526   4.693   5.418   2.562  0.0123 -0.0642  0.4410
    2CHTO  H183  527   4.800   5.402   2.556  0.2935  1.7094  0.7202
    2CHTO   C98  528   4.663   5.532   2.659 -0.8337  0.0434 -0.4471
    2CHTO  H185  529   4.557   5.525   2.688 -0.4898 -1.4064  0.4926
    2CHTO   O67  530   4.733   5.514   2.781  0.1834 -0.8576 -0.4189
    2CHTO  H167  531   4.739   5.423   2.804 -0.0155 -0.4552  1.3621
    2CHTO  C102  532   4.691   5.684   2.605  0.5374  0.4035 -0.2982
    2CHTO  H189  533   4.800   5.698   2.603  0.7740 -1.4020 -0.6181
    2CHTO   N18  534   4.641   5.790   2.690  0.4346  0.2137 -0.7594
    2CHTO  H176  535   4.536   5.806   2.670  0.5660  1.0989 -0.7537
    2CHTO  H177  536   4.648   5.761   2.794 -0.8359 -1.6605 -1.1724
    2CHTO  C105  537   4.647   5.693   2.451 -0.1236  0.0009 -0.1651
    2CHTO  H192  538   4.539   5.696   2.441  0.2316  0.2607 -5.0004
    2CHTO   O65  539   4.698   5.576   2.377  0.8742  0.2766  0.2658
    2CHTO  C100  540   4.643   5.450   2.417  0.0932 -0.0569  0.0224
    2CHTO  H187  541   4.533   5.458   2.414  0.2764  2.0173 -2.8421
    2CHTO  C107  542   4.699   5.349   2.316 -0.0971 -0.5688  0.5652
    2CHTO   O70  543   4.637   5.385   2.192  0.3190  0.5162  0.4851
    2CHTO  H170  544   4.697   5.441   2.147  0.8216 -3.0481 -3.6399
    2CHTO   O57  545   4.705   5.829   2.392 -0.3972  0.5180  0.4932
    2CHTO   C85  546   4.665   5.878   2.266 -0.3060  0.8362  0.1908
    2CHTO  H157  547   4.573   5.818   2.250  0.6634 -0.9070  1.0155
    2CHTO   C83  548   4.767   5.835   2.151  0.3141 -0.0796 -0.0998
    2CHTO  H155  549   4.737   5.731   2.137 -1.8042  0.9815 -4.4472
    2CHTO   O56  550   4.905   5.844   2.191  0.4819 -0.2605  0.1192
    2CHTO  H135  551   4.952   5.771   2.154  2.0061  0.1381  1.2584
    2CHTO   C81  552   4.725   5.917   2.023 -0.0951  0.4844 -0.0606
    2CHTO  H153  553   4.619   5.905   2.003 -0.1095  2.6146 -1.4486
    2CHTO   N14  554   4.789   5.855   1.902  0.6388  0.1782  0.0496
    2CHTO  H141  555   4.847   5.929   1.849  0.8323 -1.0319 -1.4697
    2CHTO  H142  556   4.712   5.817   1.839 -0.0160 -1.4307  1.8048
    2CHTO   C79  557   4.752   6.075   2.045 -0.1785 -0.2440  0.2606
    2CHTO  H151  558   4.723   6.124   1.952 -0.9520  0.0146  0.6294
    2CHTO   O52  559   4.668   6.118   2.157 -0.2959 -0.3902 -0.1966
    2CHTO   C86  560   4.640   6.036   2.273  1.0081 -0.1620 -0.1445
    2CHTO  H158  561   4.705   6.078   2.353  0.3437 -1.2275  0.9802
    2CHTO   C90  562   4.500   6.058   2.324 -0.2175  0.0565  0.5416
    2CHTO   O60  563   4.488   6.011   2.464  0.5205  0.0174 -0.5105
    2CHTO  H138  564   4.423   6.062   2.509 -1.2223 -2.4299 -0.1564
    2CHTO   O50  565   4.890   6.117   2.074  0.8506  0.0985  0.5129
    2CHTO   C73  566   5.011   6.191   2.064  0.0395 -0.2083 -0.0291
    2CHTO  H145  567   4.992   6.296   2.036  0.9165 -0.5052 -1.8526
    2CHTO   C74  568   5.093   6.128   1.947  0.3810 -0.0336  0.1691
    2CHTO  H146  569   5.035   6.127   1.854 -0.7810 -0.9319  0.8719
    2CHTO   O54  570   5.195   6.226   1.918 -0.4099  0.4620  0.3759
    2CHTO  H133  571   5.219   6.214   1.828 -2.5242  1.4080 -0.3467
    2CHTO   C75  572   5.152   5.992   1.984 -0.4709 -0.6794  0.3756
    2CHTO  H147  573   5.074   5.915   1.975 -0.6081 -0.7226  1.7813
    2CHTO   N13  574   5.248   5.933   1.884 -0.0433  0.1187 -0.3070
    2CHTO  H139  575   5.215   5.959   1.784  0.0325 -1.5724 -0.7737
    2CHTO  H140  576   5.347   5.970   1.902 -0.1277 -0.8868  2.3536
    2CHTO   C76  577   5.213   5.983   2.132  0.4752 -0.2266 -0.1093
    2CHTO  H148  578   5.314   6.023   2.128 -0.1498  1.6362  1.9033
    2CHTO   O49  579   5.131   6.053   2.234  0.8411  0.0391  0.5067
    2CHTO   C77  580   5.085   6.191   2.203 -0.3091  0.8658  0.8569
    2CHTO  H149  581   5.164   6.265   2.203  1.6713 -1.1361 -1.5234
    2CHTO   C88  582   4.985   6.214   2.317  0.3650 -0.0994  0.2678
    2CHTO   O58  583   5.043   6.267   2.418 -0.4161 -0.3300  0.4083
    2CHTO  H136  584   5.057   6.360   2.411  3.4860 -0.7906  1.0980
    2CHTO   O51  585   5.206   5.828   2.186  0.0235 -0.6201  0.5462
    2CHTO   C78  586   5.306   5.803   2.303 -0.2971 -0.5200 -0.3732
    2CHTO  H150  587   5.337   5.903   2.340 -0.0368  0.1781 -2.4467
    2CHTO   C80  588   5.440   5.729   2.267 -0.1785  0.9009  0.8645
    2CHTO  H152  589   5.416   5.634   2.215  1.9134 -0.8555  3.0061
    2CHTO   O55  590   5.502   5.815   2.173  0.8660 -0.9461 -0.0028
    2CHTO  H134  591   5.450   5.816   2.094 -1.3785 -2.3466  1.4157
    2CHTO   C84  592   5.528   5.702   2.387 -0.2195 -0.1206  0.4702
    2CHTO  H156  593   5.562   5.800   2.418 -0.2392 -0.9957  3.3518
    2CHTO   N15  594   5.654   5.621   2.355  0.0652  0.2133 -0.1202
    2CHTO  H143  595   5.662   5.531   2.413  0.5196  0.7649  0.6736
    2CHTO  H144  596   5.746   5.674   2.359 -0.1333  0.4658  1.7820
    2CHTO   C87  597   5.441   5.634   2.497 -0.9525  0.3861 -0.1067
    2CHTO  H159  598   5.404   5.542   2.451  0.7100 -0.3470  0.0022
    2CHTO   O53  599   5.326   5.731   2.533 -0.4064 -0.3521 -0.2370
    2CHTO   C82  600   5.231   5.734   2.423 -0.7150 -0.5921 -0.1010
    2CHTO  H154  601   5.192   5.636   2.395  2.0154 -1.6882 -0.2603
    2CHTO   C89  602   5.114   5.821   2.474  0.0329  0.0453 -0.2147
    2CHTO   O59  603   5.010   5.743   2.531  0.2233  0.2173 -0.1510
    2CHTO  H137  604   4.931   5.743   2.481 -0.0521  1.3091  0.2580
    2CHTO   O45  605   5.517   5.604   2.632  0.8177 -0.4524  0.1730
    2CHTO   C67  606   5.435   5.532   2.726  0.0200  0.4232 -0.2535
    2CHTO  H124  607   5.330   5.545   2.698 -0.4464 -1.5697  0.4379
    2CHTO   C65  608   5.461   5.376   2.757  0.0189 -0.0448  0.0787
    2CHTO  H122  609   5.564   5.364   2.723 -0.0803  1.7212 -0.9521
    2CHTO   O44  610   5.380   5.290   2.676  0.1436 -0.4479  0.0853
    2CHTO  H102  611   5.289   5.316   2.676 -0.5451 -2.5069 -3.0506
    2CHTO   C63  612   5.462   5.338   2.909 -0.0797  0.3285  0.3344
    2CHTO  H120  613   5.553   5.382   2.949 -0.3779  2.3824 -1.1835
    2CHTO   N11  614   5.473   5.189   2.944  0.1043 -0.1816 -0.1751
    2CHTO  H108  615   5.561   5.145   2.902  1.2139  2.3250 -0.6321
    2CHTO  H109  616   5.460   5.179   3.049  2.5189  0.6602  0.2372
    2CHTO   C61  617   5.347   5.417   2.979  0.3846  0.0637  0.4285
    2CHTO  H118  618   5.365   5.387   3.083  0.6131  0.2078  0.4298
    2CHTO   O40  619   5.360   5.561   2.967  0.0537  0.0046 -0.2197
    2CHTO   C68  620   5.454   5.611   2.860  0.5295 -0.0654 -0.0927
    2CHTO  H125  621   5.561   5.587   2.880  0.4195 -0.1799  0.3629
    2CHTO   C72  622   5.447   5.765   2.863 -0.0355 -0.4975 -0.1524
    2CHTO   O48  623   5.459   5.818   2.992 -0.3471  0.0579  0.3167
    2CHTO  H105  624   5.538   5.784   3.028 -0.1071  1.1058  0.8018
    2CHTO   O38  625   5.214   5.378   2.928  0.5262  0.1028 -0.6057
    2CHTO   C55  626   5.100   5.392   3.016  0.1231 -0.1782  0.1048
    2CHTO  H112  627   5.127   5.450   3.105 -0.1360  0.2835 -0.1179
    2CHTO   C56  628   5.035   5.254   3.057 -0.3925  0.4326 -0.0595
    2CHTO  H113  629   5.013   5.196   2.966  2.2885  1.4839 -1.4424
    2CHTO   O42  630   5.129   5.167   3.127 -0.6422 -0.4758  0.2301
    2CHTO  H100  631   5.192   5.133   3.066 -0.0561 -0.0793  0.6063
    2CHTO   C57  632   4.902   5.278   3.142  0.0208 -0.5842  0.7820
    2CHTO  H114  633   4.929   5.325   3.236 -1.2314  2.0063 -0.1211
    2CHTO   N10  634   4.824   5.158   3.181  0.7422  0.4879 -0.1340
    2CHTO  H106  635   4.855   5.085   3.107 -2.3878 -1.5723  0.4702
    2CHTO  H107  636   4.859   5.130   3.279 -0.9967  1.6457  0.8320
    2CHTO   C58  637   4.813   5.373   3.065  1.0431  1.1022  0.6721
    2CHTO  H115  638   4.777   5.318   2.975  0.6789 -0.7333  1.9129
    2CHTO   O37  639   4.878   5.492   3.024  0.1792 -0.7627 -0.1813
    2CHTO   C59  640   4.994   5.469   2.939 -0.2012 -0.1037  0.3944
    2CHTO  H116  641   4.958   5.419   2.849  1.2171  0.1519 -0.3366
    2CHTO   C70  642   5.049   5.604   2.890  0.0887  0.3742 -0.4296
    2CHTO   O46  643   5.073   5.694   2.998 -0.6055 -0.2977 -0.2222
    2CHTO  H103  644   4.988   5.709   3.034 -1.8430 -1.8571 -2.3981
    2CHTO   O39  645   4.693   5.436   3.163  0.3585 -0.1012 -0.0144
    2CHTO   C60  646   4.571   5.485   3.111 -0.1108 -0.8050  0.1230
    2CHTO  H117  647   4.596   5.581   3.065  1.7625 -1.1155  0.4452
    2CHTO   C62  648   4.503   5.389   3.006  0.6583 -0.2803  0.4499
    2CHTO  H119  649   4.576   5.369   2.924 -0.9885  0.2864 -1.1817
    2CHTO   O43  650   4.460   5.273   3.075 -0.1728  0.4734 -0.1314
    2CHTO  H101  651   4.417   5.214   3.016 -1.0877  0.1799  0.8127
    2CHTO   C66  652   4.375   5.460   2.936  0.5487 -0.1922  0.6194
    2CHTO  H123  653   4.407   5.553   2.890  1.8763  0.0056  1.9061
    2CHTO   N12  654   4.310   5.372   2.836 -0.1520  0.0821  0.5295
    2CHTO  H110  655   4.309   5.404   2.733  1.4616 -2.1502 -0.2189
    2CHTO  H111  656   4.334   5.267   2.843  0.2815  0.0694 -0.8626
    2CHTO   C69  657   4.266   5.501   3.042  0.0323 -0.0219 -0.0374
    2CHTO  H126  658   4.194   5.421   3.071  1.3146 -0.7111  1.3245
    2CHTO   O41  659   4.345   5.572   3.170  0.8939  0.2759  0.4854
    2CHTO   C64  660   4.471   5.517   3.222 -0.4044  0.2787 -0.3302
    2CHTO  H121  661   4.453   5.426   3.283  2.1829 -1.3450 -1.9005
    2CHTO   C71  662   4.515   5.636   3.312 -0.0960 -0.1477  0.3932
    2CHTO   O47  663   4.604   5.593   3.417 -0.1129 -0.0680  0.1046
    2CHTO  H104  664   4.553   5.593   3.496  0.9418  1.6719  0.8250
    2CHTO   O34  665   4.169   5.614   2.954 -0.9221  0.2629  0.0306
    2CHTO   C49  666   4.161   5.773   2.996 -0.0788 -0.2329  0.2422
    2CHTO   H91  667   4.140   5.787   3.102 -1.7372  0.5581 -0.1690
    2CHTO   C47  668   4.050   5.826   2.904 -0.3900  0.3488 -0.0816
    2CHTO   H89  669   4.026   5.928   2.943 -0.4267  0.8785 -1.4603
    2CHTO   O33  670   3.942   5.739   2.921 -0.5477 -0.7264  0.1225
    2CHTO   H70  671   3.887   5.778   2.987 -0.6572 -0.8547  0.1075
    2CHTO   C45  672   4.105   5.824   2.754 -0.5286 -0.0116 -0.6996
    2CHTO   H87  673   4.123   5.717   2.737  1.0892 -0.1373  1.5442
    2CHTO    N8  674   4.006   5.872   2.654 -0.3255 -0.4951  0.1952
    2CHTO   H75  675   3.915   5.816   2.668 -1.0210  0.3618 -0.8319
    2CHTO   H76  676   4.000   5.980   2.653  0.8596 -0.4230 -0.2397
    2CHTO   C43  677   4.246   5.906   2.743  0.2600  0.3855 -1.2585
    2CHTO   H85  678   4.281   5.890   2.641  2.6494 -4.6282  0.1914
    2CHTO   O29  679   4.336   5.850   2.834 -0.4981 -0.5713 -0.2645
    2CHTO   C50  680   4.291   5.840   2.973  0.7816 -0.1118 -0.0259
    2CHTO   H92  681   4.365   5.785   3.032  0.8767  0.5895  0.5093
    2CHTO   C54  682   4.289   5.977   3.043  0.3080 -0.2057 -0.1864
    2CHTO   O36  683   4.410   6.052   3.040 -0.0589 -0.2641 -0.0203
    2CHTO   H72  684   4.398   6.104   3.117  0.1864  0.1459 -0.2629
    2CHTO   O27  685   4.239   6.049   2.761  0.3494 -0.3090  0.0885
    2CHTO   C37  686   4.234   6.180   2.705  0.0900 -0.2931  0.8327
    2CHTO   H79  687   4.249   6.192   2.597  1.5153 -0.0189  1.0560
    2CHTO   C38  688   4.099   6.248   2.743  0.3695  0.0616  0.8280
    2CHTO   H80  689   4.084   6.219   2.847  1.1781  0.4951  1.0731
    2CHTO   O31  690   3.992   6.190   2.664 -0.2938  0.0365  0.0423
    2CHTO   H68  691   3.991   6.097   2.671 -0.1404  0.0054 -0.3648
    2CHTO   C39  692   4.091   6.402   2.703  0.4064  0.1834 -0.4833
    2CHTO   H81  693   4.108   6.410   2.595  3.0822 -2.0404 -0.2773
    2CHTO    N7  694   3.968   6.474   2.745 -0.1252 -0.1396 -0.8252
    2CHTO   H73  695   3.909   6.521   2.668 -0.1958  0.7581 -0.2289
    2CHTO   H74  696   3.915   6.413   2.816  1.2449  0.3144  0.6264
    2CHTO   C40  697   4.215   6.468   2.772 -0.0937 -0.5556  0.5165
    2CHTO   H82  698   4.198   6.461   2.880  0.1728  1.2028  0.6841
    2CHTO   O26  699   4.340   6.404   2.738  0.2857  0.2411  0.2274
    2CHTO   C41  700   4.348   6.263   2.777  0.6144 -1.0231 -0.8335
    2CHTO   H83  701   4.329   6.251   2.885 -0.3304  0.4757 -0.8147
    2CHTO   C52  702   4.487   6.203   2.746 -0.5137 -0.2946 -0.2174
    2CHTO   O35  703   4.586   6.275   2.793 -0.4712  0.3173  0.5125
    2CHTO   H71  704   4.653   6.219   2.827 -1.1976 -1.1867 -0.5026
    2CHTO   O28  705   4.245   6.605   2.743  0.3650  0.1097 -0.1781
    2CHTO   C42  706   4.305   6.697   2.853  0.8825  0.3614  0.4622
    2CHTO   H84  707   4.318   6.788   2.795  0.0254  0.8998  1.1050
    2CHTO   C44  708   4.447   6.649   2.897  0.1338  0.0444  0.6224
    2CHTO   H86  709   4.450   6.543   2.923  2.8607 -0.2329 -0.6468
    2CHTO   O32  710   4.532   6.656   2.778  0.2560 -0.2159 -0.1749
    2CHTO   H69  711   4.511   6.590   2.715 -0.0744 -0.5154  0.2391
    2CHTO   C48  712   4.506   6.729   3.018  0.1169  0.3111 -0.3123
    2CHTO   H90  713   4.533   6.830   2.987  0.8900  0.5289  1.0349
    2CHTO    N9  714   4.633   6.673   3.080  0.0348 -0.1063  0.4680
    2CHTO   H77  715   4.724   6.715   3.039 -1.1067  1.4628 -0.4871
    2CHTO   H78  716   4.639   6.566   3.063  0.0539 -0.3010  1.6503
    2CHTO   C51  717   4.397   6.743   3.135 -0.1160  0.2462  0.3351
    2CHTO   H93  718   4.362   6.647   3.171  0.8060 -0.6503 -1.1093
    2CHTO   O30  719   4.292   6.819   3.081 -0.1788  0.0285 -0.6276
    2CHTO   C46  720   4.211   6.738   2.979  0.3605  0.1887  0.0045
    2CHTO   H88  721   4.173   6.647   3.027  1.1887  0.1298  0.5519
    2CHTO   C53  722   4.086   6.819   2.920 -0.1508 -0.8172  0.7176
    2CHTO   O72  723   3.985   6.846   3.019  0.7096 -0.2841 -0.5370
    2CHTO  H199  724   4.010   6.918   3.073 -0.7024  0.2791 -0.6019
    2CHTO   O22  725   4.448   6.825   3.240  0.8089 -0.4110 -0.1695
    2CHTO   C31  726   4.367   6.865   3.362 -0.9484 -0.3807  0.0739
    2CHTO   H59  727   4.446   6.884   3.437  0.9813  0.4057 -2.0736
    2CHTO   C29  728   4.285   6.993   3.352 -0.5995  0.1140 -0.7858
    2CHTO   H57  729   4.197   6.965   3.292 -2.4741  0.8953  1.5320
    2CHTO   O21  730   4.356   7.098   3.287 -0.4621  0.2935 -0.5364
    2CHTO   H37  731   4.442   7.105   3.323 -0.5553  0.1190 -0.2748
    2CHTO   C27  732   4.230   7.029   3.500  0.6326 -0.5931 -0.4142
    2CHTO   H55  733   4.313   7.054   3.568 -0.6379 -0.0573  0.9718
    2CHTO    N5  734   4.133   7.146   3.501 -0.3031 -0.1628 -0.1504
    2CHTO   H43  735   4.040   7.134   3.555 -0.5777 -1.0038 -0.8100
    2CHTO   H44  736   4.123   7.195   3.405  0.0075 -3.1876 -1.7827
    2CHTO   C25  737   4.149   6.913   3.571 -0.7665 -0.7391  0.0355
    2CHTO   H53  738   4.046   6.904   3.532 -0.4400  1.6608 -1.4929
    2CHTO   O17  739   4.221   6.789   3.547 -0.1303  0.3261 -0.5091
    2CHTO   C32  740   4.276   6.746   3.424  0.2403 -0.4732 -0.2250
    2CHTO   H60  741   4.197   6.717   3.354 -0.1075 -3.2535  1.2460
    2CHTO   C36  742   4.354   6.621   3.457 -0.2524 -0.0533  0.1263
    2CHTO   O25  743   4.274   6.520   3.509  0.1599 -0.3465  0.5153
    2CHTO   H40  744   4.270   6.459   3.438 -0.0429  1.4113 -1.0452
    2CHTO   O15  745   4.142   6.925   3.713  0.1495  0.4227 -0.3802
    2CHTO   C19  746   4.061   6.904   3.834 -0.6427 -0.0732 -0.6579
    2CHTO   H47  747   3.974   6.968   3.814 -0.4276  0.1112 -1.0232
    2CHTO   C20  748   4.003   6.759   3.854  0.2996 -0.0739 -0.2840
    2CHTO   H48  749   4.083   6.686   3.876  0.8497  0.0081 -1.9112
    2CHTO   O19  750   3.952   6.718   3.728 -0.1788  0.4350 -0.1095
    2CHTO   H35  751   3.937   6.625   3.724  1.0773  0.2706 -1.4038
    2CHTO   C21  752   3.898   6.742   3.973 -0.2884  0.4375  1.0692
    2CHTO   H49  753   3.809   6.803   3.957 -0.1656 -0.1212 -2.0622
    2CHTO    N4  754   3.849   6.605   3.990 -0.6088  0.5938 -0.4395
    2CHTO   H41  755   3.765   6.604   4.059 -0.9031 -0.9305 -0.8129
    2CHTO   H42  756   3.926   6.536   4.021  0.1825  1.5767 -0.1750
    2CHTO   C22  757   3.964   6.804   4.097 -0.5850 -0.2767  0.2313
    2CHTO   H50  758   4.036   6.733   4.138 -1.6695 -0.2485  2.2066
    2CHTO   O14  759   4.013   6.937   4.070  0.1292 -0.6112  0.0900
    2CHTO   C23  760   4.116   6.951   3.969 -0.0579  0.5411 -0.6591
    2CHTO   H51  761   4.206   6.897   4.000 -1.6144 -2.2564 -0.8891
    2CHTO   C34  762   4.159   7.093   3.966 -0.6133  0.5511  0.3044
    2CHTO   O23  763   4.237   7.132   4.082 -0.5064  0.7859 -0.1581
    2CHTO   H38  764   4.310   7.072   4.080  0.2141  1.6813 -1.0587
    2CHTO   O16  765   3.864   6.834   4.199 -0.0474  0.1664 -0.5371
    2CHTO   C24  766   3.905   6.795   4.367  0.5451  0.6676  0.3539
    2CHTO   H52  767   4.012   6.778   4.380  0.6832  0.3884 -1.0814
    2CHTO   C26  768   3.830   6.672   4.419  0.0482  0.2842 -0.1253
    2CHTO   H54  769   3.723   6.692   4.397  0.4046  1.7345 -0.6282
    2CHTO   O20  770   3.869   6.564   4.335 -0.3037  0.2156  0.1392
    2CHTO   H36  771   3.807   6.548   4.266 -2.3573  0.9680  1.7515
    2CHTO   C30  772   3.865   6.639   4.571  0.4389  0.3649  0.5142
    2CHTO   H58  773   3.973   6.632   4.589  0.4320 -0.5023  0.2377
    2CHTO    N6  774   3.788   6.514   4.605 -0.1965  0.3244  0.3652
    2CHTO   H45  775   3.817   6.482   4.704  2.2104  0.6995 -0.2039
    2CHTO   H46  776   3.682   6.538   4.602 -0.9812 -2.9949 -0.2022
    2CHTO   C33  777   3.819   6.768   4.646  0.1251  0.3396  0.5076
    2CHTO   H61  778   3.713   6.787   4.628  0.2626  2.2584  1.5539
    2CHTO   O18  779   3.893   6.883   4.592 -0.1545 -0.2366 -0.2821
    2CHTO   C28  780   3.870   6.912   4.459  0.0057  0.5189  0.9435
    2CHTO   H56  781   3.772   6.951   4.435 -1.0840 -2.1280  0.9304
    2CHTO   C35  782   3.953   7.028   4.415 -0.2546 -0.2694 -0.0302
    2CHTO   O24  783   3.918   7.090   4.296 -0.5391  0.1156 -0.0627
    2CHTO   H39  784   3.973   7.161   4.270  1.2401 -0.9043  0.7658
    2CHTO    O9  785   3.837   6.758   4.789  0.4914  0.2793 -0.2382
    2CHTO   C13  786   3.734   6.851   4.874 -0.6668  0.6220 -0.3186
    2CHTO   H26  787   3.637   6.842   4.820 -0.8901 -2.6796  0.5414
    2CHTO   C11  788   3.789   7.001   4.874  0.1183  0.2126 -0.0159
    2CHTO   H24  789   3.760   7.052   4.782  0.7074  1.8857  0.7004
    2CHTO    O8  790   3.931   7.003   4.882  0.3023  0.0291 -0.1879
    2CHTO    H3  791   3.955   7.091   4.859 -1.7395  0.4809 -0.6649
    2CHTO    C9  792   3.714   7.073   4.992  1.0581 -0.9919  0.6443
    2CHTO   H22  793   3.608   7.047   4.980  0.7376  0.6538 -0.2696
    2CHTO    N2  794   3.713   7.221   4.984 -0.3310  0.7947 -0.3404
    2CHTO   H10  795   3.618   7.264   4.957 -1.3522 -0.3693  1.2759
    2CHTO   H11  796   3.754   7.267   5.072  2.1433  1.3520 -1.7106
    2CHTO    C7  797   3.762   7.015   5.127 -0.2300 -0.0959  0.0232
    2CHTO   H20  798   3.675   7.032   5.194  0.5886  0.5833  0.9316
    2CHTO    O4  799   3.788   6.872   5.125  0.3377 -0.4811  0.3558
    2CHTO   C14  800   3.712   6.799   5.030 -0.0703 -0.3915  0.3884
    2CHTO   H27  801   3.604   6.808   5.054  0.8114  2.3341  3.6265
    2CHTO   C18  802   3.755   6.653   5.059 -0.2798 -0.6569 -0.2060
    2CHTO   O13  803   3.737   6.617   5.194 -0.2840 -0.1616  0.7486
    2CHTO    H7  804   3.651   6.629   5.229 -0.1505 -1.8507  1.7050
    2CHTO    O2  805   3.902   7.101   5.191 -0.0031 -0.3508 -0.4676
    2CHTO    C1  806   3.917   7.068   5.329  0.7251 -0.4918 -0.1777
    2CHTO   H14  807   3.850   6.984   5.357 -0.6669  0.3257 -1.0172
    2CHTO    C2  808   3.873   7.193   5.416 -0.5452  0.2314  0.7061
    2CHTO   H15  809   3.935   7.273   5.373 -1.4337  0.7972  0.4582
    2CHTO    O6  810   3.729   7.217   5.406 -0.4614  0.8164  0.3484
    2CHTO    H1  811   3.711   7.286   5.346  1.1508 -1.2378 -2.6286
    2CHTO    C3  812   3.912   7.177   5.579  0.5424  0.0812  0.3584
    2CHTO   H16  813   3.844   7.106   5.628  0.7347 -0.7343 -0.5469
    2CHTO    N1  814   3.911   7.310   5.646  0.1657 -0.1274 -0.4319
    2CHTO    H8  815   4.000   7.368   5.631 -0.3720  1.2470  1.4676
    2CHTO    H9  816   3.914   7.290   5.753  2.0920 -2.2757 -0.8467
    2CHTO    C4  817   4.056   7.107   5.587  0.0170 -0.3631  0.3614
    2CHTO   H17  818   4.131   7.183   5.564  0.8586 -0.8335  1.5661
    2CHTO    O1  819   4.061   6.986   5.510 -0.7114  0.8349  0.6529
    2CHTO    C5  820   4.059   7.007   5.370 -0.6818  0.0552  0.2080
    2CHTO   H18  821   4.135   7.078   5.337 -0.2105  0.3477  1.8921
    2CHTO   C16  822   4.095   6.879   5.302  0.2468  0.2392  0.0262
    2CHTO   O11  823   4.013   6.765   5.332  0.0775  0.0360  0.0155
    2CHTO    H5  824   4.025   6.743   5.422 -0.6897  1.1801  0.4114
    2CHTO    O3  825   4.085   7.066   5.724  0.4811  0.3773 -0.1289
    2CHTO    C6  826   4.221   7.016   5.765  0.4580 -0.5630  0.6719
    2CHTO   H19  827   4.279   6.997   5.675  0.1425 -0.5191  0.4612
    2CHTO    C8  828   4.290   7.113   5.865 -0.2635  0.0142  0.8582
    2CHTO   H21  829   4.227   7.130   5.952  0.5747  3.1391  0.9263
    2CHTO    O7  830   4.284   7.242   5.797 -0.3757  0.8553  0.1439
    2CHTO    H2  831   4.205   7.292   5.810 -0.5185  0.9769 -1.1609
    2CHTO   C12  832   4.435   7.062   5.884  0.0253  0.1304  0.3580
    2CHTO   H25  833   4.476   7.044   5.782 -1.3285 -1.3210  0.0449
    2CHTO    N3  834   4.522   7.151   5.966 -0.5820 -1.0179 -0.5520
    2CHTO   H12  835   4.626   7.133   5.943 -0.1668 -0.0234  0.5277
    2CHTO   H13  836   4.502   7.139   6.071 -0.2374 -0.5895 -0.4355
    2CHTO   C15  837   4.428   6.923   5.946  0.4145 -0.1020 -0.2291
    2CHTO   H28  838   4.386   6.928   6.046 -1.6152 -0.3355 -1.0469
    2CHTO   O10  839   4.571   6.839   5.958 -0.1071 -0.1579  0.1527
    2CHTO    H4  840   4.636   6.856   5.893  1.9996  0.3913  2.3302
    2CHTO    O5  841   4.346   6.837   5.865  0.2767 -0.1644  0.2734
    2CHTO   C10  842   4.212   6.880   5.842  0.1577  0.1280  0.9156
    2CHTO   H23  843   4.170   6.901   5.940  1.2963  0.7399  1.2947
    2CHTO   C17  844   4.127   6.771   5.766 -0.6080 -1.4259  0.9152
    2CHTO   O12  845   4.105   6.671   5.864  0.6405  0.4867  1.0091
    2CHTO    H6  846   4.039   6.691   5.927 -1.4460 -0.0373 -0.9613
    3CHTO  H203  847   5.993   1.893   1.712  0.7245  0.4781  2.6580
    3CHTO   O82  848   6.065   1.943   1.681  0.4763 -0.3878  0.5967
    3CHTO  C123  849   6.170   1.868   1.626  0.1653 -0.0513  0.3215
    3CHTO  H227  850   6.136   1.833   1.528 -0.6339  3.3174 -0.6715
    3CHTO   O77  851   6.275   1.960   1.606  0.1588 -0.0687 -0.6583
    3CHTO  C118  852   6.396   1.918   1.539  0.1200 -0.2773  0.4123
    3CHTO  H222  853   6.356   1.876   1.445 -2.8515 -1.8651  2.2909
    3CHTO  C125  854   6.476   2.046   1.501 -0.9664 -0.5324 -0.1530
    3CHTO   O84  855   6.427   2.119   1.393  0.0143 -0.3084  0.1934
    3CHTO  H205  856   6.474   2.200   1.384 -2.6711  1.3170  0.2972
    3CHTO  C114  857   6.470   1.813   1.634  0.1377  0.0247  0.4317
    3CHTO  H218  858   6.492   1.864   1.728  0.0444  1.1330 -0.1351
    3CHTO  C116  859   6.372   1.696   1.662  0.3941 -0.2281  0.3053
    3CHTO  H220  860   6.377   1.626   1.576  1.6759  0.3292 -0.0844
    3CHTO   O79  861   6.426   1.622   1.774 -0.6097 -0.2625  0.5665
    3CHTO  H201  862   6.446   1.537   1.739 -1.1173 -1.2291  2.5770
    3CHTO  C120  863   6.225   1.742   1.709  0.2314 -0.8241  0.0708
    3CHTO  H224  864   6.235   1.772   1.816 -1.3346 -1.3999  0.3988
    3CHTO   N21  865   6.131   1.626   1.694  0.7538 -0.4398 -0.1600
    3CHTO  H211  866   6.032   1.654   1.660  0.9716  1.1602  0.4916
    3CHTO  H212  867   6.137   1.566   1.783  1.8214  0.5768  0.4620
    3CHTO   O75  868   6.593   1.782   1.562 -0.1666  0.6896  0.4463
    3CHTO  C112  869   6.678   1.674   1.623 -0.3780  0.9251 -1.1368
    3CHTO  H216  870   6.614   1.588   1.648  2.2210 -0.7074  0.1343
    3CHTO   O73  871   6.753   1.723   1.736 -0.5867  0.0684  0.4727
    3CHTO  C113  872   6.827   1.630   1.821 -0.3573  0.0412 -0.4807
    3CHTO  H217  873   6.767   1.627   1.914 -0.1868 -0.8883 -0.4009
    3CHTO  C124  874   6.959   1.691   1.858 -0.7397  0.4931 -0.4160
    3CHTO   O83  875   6.943   1.789   1.961  0.1781  0.0726 -0.0610
    3CHTO  H204  876   6.878   1.849   1.929 -0.1035  0.6052  1.4479
    3CHTO  C109  877   6.847   1.491   1.757 -0.1154 -0.3544  0.1006
    3CHTO  H213  878   6.931   1.447   1.812 -0.8516 -0.9618  0.7437
    3CHTO  C110  879   6.871   1.501   1.597  0.0527 -0.0571 -0.5866
    3CHTO  H214  880   6.851   1.401   1.558  0.0422 -1.4325  2.7363
    3CHTO   O78  881   7.012   1.531   1.576  0.7031 -0.0765  0.4257
    3CHTO  H200  882   7.023   1.588   1.502 -2.5125  0.7495  0.5026
    3CHTO  C111  883   6.790   1.615   1.526  1.0201 -0.2222 -0.4081
    3CHTO  H215  884   6.854   1.705   1.521 -1.1076  1.4435  1.4652
    3CHTO   N19  885   6.739   1.585   1.391 -0.7039  1.0002 -0.1814
    3CHTO  H207  886   6.691   1.489   1.404  1.6518 -0.3281 -1.1025
    3CHTO  H208  887   6.818   1.584   1.318  0.2924 -0.5910  0.8860
    3CHTO   O74  888   6.720   1.420   1.783  0.6614 -0.0610  0.3791
    3CHTO  C115  889   6.723   1.266   1.761 -0.3984 -0.0165 -0.9344
    3CHTO  H219  890   6.800   1.233   1.692  2.1519 -0.1367  1.8674
    3CHTO   O76  891   6.743   1.189   1.897 -0.2463 -0.0221  0.6277
    3CHTO  C122  892   6.636   1.213   1.988 -0.3704 -0.1828 -0.0154
    3CHTO  H226  893   6.643   1.317   2.020  2.7202 -0.4976  0.4306
    3CHTO  C126  894   6.668   1.126   2.123 -0.6707 -0.1145  0.7910
    3CHTO   O85  895   6.760   1.198   2.211 -0.6338  0.2334 -0.3851
    3CHTO  H206  896   6.763   1.161   2.298 -1.8702  0.5606 -0.1893
    3CHTO  C121  897   6.491   1.176   1.926 -0.0170  0.0243  0.0490
    3CHTO  H225  898   6.443   1.096   1.986 -3.3667  1.7237 -0.1884
    3CHTO   O81  899   6.397   1.289   1.921  0.2469  0.7959 -0.4048
    3CHTO  H202  900   6.446   1.368   1.914  0.0551  1.1637  1.9548
    3CHTO  C119  901   6.512   1.126   1.781 -0.5841 -0.0057  1.3254
    3CHTO  H223  902   6.576   1.039   1.788  0.1208  0.0971 -2.6840
    3CHTO  C117  903   6.584   1.241   1.694 -0.7023  0.1228  0.1021
    3CHTO  H221  904   6.531   1.336   1.700 -2.8524 -1.0053 -0.3115
    3CHTO   N20  905   6.598   1.221   1.545 -0.2243  0.2636  0.5171
    3CHTO  H209  906   6.504   1.203   1.494 -0.6153 -0.4260  1.4642
    3CHTO  H210  907   6.690   1.195   1.497 -0.0961  2.8135 -0.7109
    3CHTO   O80  908   6.391   1.067   1.714 -0.2754  0.4204  0.1610
    3CHTO  C103  909   6.315   0.937   1.775  0.3907  0.0755 -0.4691
    3CHTO  H190  910   6.367   0.899   1.862  1.1561  1.5290 -0.2845
    3CHTO  C101  911   6.158   0.951   1.809  0.0244  0.6611  0.1335
    3CHTO  H188  912   6.105   0.995   1.724 -0.6180  0.7712  0.5868
    3CHTO   O68  913   6.140   1.027   1.948  0.4790 -0.3789 -0.2872
    3CHTO  H168  914   6.108   1.115   1.938  2.4813  0.3550 -0.7073
    3CHTO   C99  915   6.086   0.804   1.826  0.1486  0.0739  0.6085
    3CHTO  H186  916   6.132   0.745   1.908  1.4796 -0.1825 -0.3155
    3CHTO   N17  917   5.941   0.813   1.837  0.3117 -0.0829 -0.4100
    3CHTO  H174  918   5.889   0.846   1.749 -1.1768 -0.6798  0.2380
    3CHTO  H175  919   5.895   0.727   1.882 -0.8115  1.3757  1.3136
    3CHTO   C97  920   6.119   0.718   1.700  0.1588 -0.4833  0.8069
    3CHTO  H184  921   6.075   0.764   1.610  1.1804 -0.5832  0.2556
    3CHTO   O64  922   6.260   0.707   1.679  0.6060 -0.2920 -0.4434
    3CHTO  C104  923   6.338   0.828   1.657 -0.4302  0.5488  0.5041
    3CHTO  H191  924   6.318   0.875   1.561 -0.8680 -0.7122 -0.0269
    3CHTO  C108  925   6.486   0.791   1.656  0.0956 -0.4112 -0.3438
    3CHTO   O71  926   6.526   0.707   1.543  0.5659  0.0535  0.2593
    3CHTO  H171  927   6.608   0.740   1.514  1.1744 -0.4283  1.3894
    3CHTO   O62  928   6.070   0.581   1.703  0.0923 -0.2441  0.2371
    3CHTO   C91  929   6.056   0.515   1.574  0.2529 -0.2758  0.3637
    3CHTO  H178  930   6.130   0.562   1.508  0.0909 -1.6236 -0.7963
    3CHTO   C92  931   5.913   0.542   1.513 -0.7380 -0.3614 -0.2461
    3CHTO  H179  932   5.846   0.533   1.600  0.1394 -1.6331  0.3226
    3CHTO   O66  933   5.906   0.686   1.496 -0.0959 -0.0267  0.0363
    3CHTO  H166  934   5.816   0.709   1.506 -0.0618  1.1100 -1.9936
    3CHTO   C93  935   5.884   0.468   1.375  0.4141  0.3265  0.0623
    3CHTO  H180  936   5.941   0.508   1.290 -1.1185  0.5392 -0.8895
    3CHTO   N16  937   5.739   0.484   1.354  0.0080 -0.2446  0.0790
    3CHTO  H172  938   5.673   0.400   1.372 -0.7746  0.3279 -0.0827
    3CHTO  H173  939   5.706   0.524   1.259  0.0893 -0.7376 -0.1565
    3CHTO   C94  940   5.926   0.316   1.382  0.1219  0.6437  0.1973
    3CHTO  H181  941   5.865   0.257   1.450 -2.0147  1.1560 -1.2502
    3CHTO   O61  942   6.058   0.304   1.441  0.1981  0.0757 -0.6906
    3CHTO   C95  943   6.083   0.362   1.570 -0.6774  0.1362  0.3520
    3CHTO  H182  944   6.012   0.325   1.644 -0.8670 -1.2482 -0.4947
    3CHTO  C106  945   6.230   0.331   1.617 -0.5799  0.3140 -0.1214
    3CHTO   O69  946   6.251   0.192   1.631 -0.2410  0.4384 -0.3990
    3CHTO  H169  947   6.342   0.170   1.629 -0.8598 -2.4762  1.6309
    3CHTO   O63  948   5.932   0.249   1.235 -0.6699  0.0354  0.2907
    3CHTO   C96  949   5.930   0.091   1.239  0.1003  0.7215 -0.2004
    3CHTO  H183  950   5.915   0.059   1.342 -1.0675 -1.3745 -0.9673
    3CHTO   C98  951   6.058   0.027   1.175  0.1728  0.5526  0.2961
    3CHTO  H185  952   6.076   0.062   1.072 -2.4645 -0.8923 -0.7140
    3CHTO   O67  953   6.176   0.063   1.252  0.2691 -0.4125  0.2133
    3CHTO  H167  954   6.167   0.151   1.283  4.3700 -0.0188  0.6429
    3CHTO  C102  955   6.050  -0.132   1.163  0.4350  0.1048 -0.0076
    3CHTO  H189  956   6.103  -0.178   1.247  1.0878  1.5355  0.3686
    3CHTO   N18  957   6.118  -0.192   1.039 -0.5954 -0.0439  0.6477
    3CHTO  H176  958   6.067  -0.160   0.949 -3.0659 -1.0491  1.6202
    3CHTO  H177  959   6.108  -0.300   1.034 -2.0933  0.1631 -1.9275
    3CHTO  C105  960   5.901  -0.181   1.170 -0.2367  0.0359  0.7442
    3CHTO  H192  961   5.897  -0.285   1.136  2.8902  0.1806 -0.2005
    3CHTO   O65  962   5.805  -0.097   1.099 -0.1422  0.2575  0.1929
    3CHTO  C100  963   5.800   0.037   1.154  0.0973  0.1068  0.8329
    3CHTO  H187  964   5.790   0.107   1.069  0.1299  0.3903  1.0616
    3CHTO  C107  965   5.674   0.057   1.238  0.9854 -0.1878 -0.0183
    3CHTO   O70  966   5.563   0.008   1.163  0.1815  0.1562  0.2315
    3CHTO  H170  967   5.545   0.077   1.102 -2.6714 -0.1838  0.6176
    3CHTO   O57  968   5.873  -0.187   1.338  0.5374 -0.2577 -0.6369
    3CHTO   C85  969   5.879  -0.306   1.410  0.2631 -0.9839 -0.3078
    3CHTO  H157  970   5.955  -0.373   1.365  0.4812 -1.1038  0.2361
    3CHTO   C83  971   5.743  -0.384   1.380 -1.0025  0.6206 -0.2101
    3CHTO  H155  972   5.739  -0.419   1.277  2.2877 -2.0422  0.4958
    3CHTO   O56  973   5.634  -0.287   1.402  0.0239  0.2250  0.1953
    3CHTO  H135  974   5.553  -0.312   1.362  1.2396 -2.8913 -0.3999
    3CHTO   C81  975   5.734  -0.502   1.476 -0.1297  0.1268 -1.1423
    3CHTO  H153  976   5.825  -0.560   1.461  0.8620  1.1987  0.5482
    3CHTO   N14  977   5.617  -0.588   1.459  0.2439 -0.5840  0.3024
    3CHTO  H141  978   5.594  -0.630   1.554 -1.3130  0.2704  0.3121
    3CHTO  H142  979   5.528  -0.543   1.422  1.2430  1.3634  0.1808
    3CHTO   C79  980   5.739  -0.455   1.630  0.2576  0.8436 -0.4387
    3CHTO  H151  981   5.737  -0.547   1.689 -0.7379  0.8131 -0.5034
    3CHTO   O52  982   5.865  -0.401   1.651 -0.5332  0.6219 -0.0424
    3CHTO   C86  983   5.904  -0.286   1.566 -0.3355  0.1659 -0.7900
    3CHTO  H158  984   5.839  -0.205   1.604  1.9038  0.5661  2.3325
    3CHTO   C90  985   6.050  -0.246   1.595 -0.3130 -0.7683 -0.1131
    3CHTO   O60  986   6.090  -0.120   1.540 -0.7126 -0.1593  0.2925
    3CHTO  H138  987   6.179  -0.096   1.555 -0.3549  0.1436 -2.0316
    3CHTO   O50  988   5.640  -0.362   1.683 -0.0629 -0.2054  0.2465
    3CHTO   C73  989   5.527  -0.304   1.756 -0.1951  0.4033  0.3044
    3CHTO  H145  990   5.460  -0.385   1.788  0.2848 -0.3072 -0.4784
    3CHTO   C74  991   5.451  -0.200   1.666  0.2671 -0.8253 -0.2426
    3CHTO  H146  992   5.411  -0.249   1.576 -0.4557 -0.3256 -0.1979
    3CHTO   O54  993   5.338  -0.165   1.744  0.0479 -0.1075  0.1422
    3CHTO  H133  994   5.257  -0.186   1.701 -0.2429 -1.3119  1.2385
    3CHTO   C75  995   5.552  -0.085   1.628 -0.4654  0.5291  0.6897
    3CHTO  H147  996   5.634  -0.127   1.568 -0.3262 -0.9187  1.8581
    3CHTO   N13  997   5.492   0.025   1.548 -0.5774  0.2288 -0.4333
    3CHTO  H139  998   5.457   0.103   1.615  0.1019 -2.7732  3.6304
    3CHTO  H140  999   5.569   0.065   1.483 -0.9908  0.1736 -0.9609
    3CHTO   C76 1000   5.625  -0.030   1.764  0.8170 -0.0112 -0.2187
    3CHTO  H148 1001   5.540   0.017   1.814  0.0825  1.1240 -2.4797
    3CHTO   O49 1002   5.675  -0.142   1.849  0.0583 -1.1345 -0.3325
    3CHTO   C77 1003   5.572  -0.231   1.882 -0.4228  0.2527  0.0178
    3CHTO  H149 1004   5.495  -0.174   1.934  0.3540 -0.1547  1.6772
    3CHTO   C88 1005   5.623  -0.323   1.998  0.3190 -0.0917  0.3730
    3CHTO   O58 1006   5.513  -0.429   2.066 -0.1494  0.1558  0.6804
    3CHTO  H136 1007   5.437  -0.381   2.094  0.5953  0.3459  2.4612
    3CHTO   O51 1008   5.748   0.060   1.737  0.1697 -0.2588 -0.0092
    3CHTO   C78 1009   5.787   0.138   1.850  0.2955 -0.3573 -0.4596
    3CHTO  H150 1010   5.741   0.102   1.945  1.3092 -0.0747  0.1460
    3CHTO   C80 1011   5.752   0.287   1.831  0.1467 -0.8618 -1.2038
    3CHTO  H152 1012   5.804   0.328   1.742  1.8047 -1.0945 -0.3606
    3CHTO   O55 1013   5.609   0.296   1.804  0.0079 -0.5790 -0.2198
    3CHTO  H134 1014   5.552   0.256   1.867 -1.5306 -0.1220 -1.3052
    3CHTO   C84 1015   5.781   0.370   1.963 -0.0075 -0.6981  0.3706
    3CHTO  H156 1016   5.727   0.317   2.041  0.8975 -3.0489 -0.5633
    3CHTO   N15 1017   5.737   0.514   1.959 -0.2798  0.0107 -0.4527
    3CHTO  H143 1018   5.792   0.564   1.882  0.8931  1.2206  1.1126
    3CHTO  H144 1019   5.633   0.510   1.933 -0.8742  1.0785  1.6158
    3CHTO   C87 1020   5.933   0.360   2.002  0.3225  0.0802  0.2219
    3CHTO  H159 1021   5.984   0.418   1.924 -0.2498 -0.1397 -0.3188
    3CHTO   O53 1022   5.979   0.206   1.994 -0.1290 -0.1562  0.5875
    3CHTO   C82 1023   5.941   0.139   1.870  0.0758  0.6704 -0.2594
    3CHTO  H154 1024   5.994   0.183   1.786 -2.2922 -0.7891 -2.5944
    3CHTO   C89 1025   5.995  -0.004   1.881 -1.2047  0.1168 -0.5106
    3CHTO   O59 1026   6.133  -0.008   1.854 -0.0089 -0.1524  0.1479
    3CHTO  H137 1027   6.192   0.014   1.924  0.8682 -0.8903 -0.3412
    3CHTO   O45 1028   5.956   0.429   2.154  0.3525 -0.5094 -0.1606
    3CHTO   C67 1029   6.064   0.527   2.153  0.1377 -0.0153 -0.1164
    3CHTO  H124 1030   6.065   0.578   2.056 -0.9116  0.7413  0.2641
    3CHTO   C65 1031   6.027   0.635   2.265 -0.8283 -1.0893  1.3699
    3CHTO  H122 1032   5.920   0.626   2.285 -1.1885  2.5811  1.5153
    3CHTO   O44 1033   6.056   0.767   2.203 -0.7975  0.5370 -0.0093
    3CHTO  H102 1034   6.011   0.841   2.238  0.4947  1.3965 -0.1406
    3CHTO   C63 1035   6.111   0.605   2.389  0.4386 -0.1636  0.2184
    3CHTO  H120 1036   6.090   0.504   2.424 -0.1497 -0.0218  0.2857
    3CHTO   N11 1037   6.060   0.674   2.510  0.6286  0.6560  0.0824
    3CHTO  H108 1038   5.966   0.635   2.543  1.0996 -0.4288  0.1923
    3CHTO  H109 1039   6.069   0.780   2.507  0.8205  0.6769  1.1598
    3CHTO   C61 1040   6.265   0.616   2.355  0.3885 -0.7324 -0.1137
    3CHTO  H118 1041   6.309   0.554   2.434  2.7173 -0.3824 -1.0846
    3CHTO   O40 1042   6.300   0.558   2.227 -0.6930 -0.4948  0.1034
    3CHTO   C68 1043   6.210   0.465   2.164 -1.1454 -0.4849  0.1898
    3CHTO  H125 1044   6.208   0.364   2.212 -1.9299 -0.6872 -0.2627
    3CHTO   C72 1045   6.265   0.441   2.020  0.6916  0.1527 -0.2242
    3CHTO   O48 1046   6.400   0.404   2.026  0.5168 -0.1200 -0.3548
    3CHTO  H105 1047   6.440   0.444   2.101  0.4213  1.6796 -1.2419
    3CHTO   O38 1048   6.319   0.751   2.364  0.1150 -0.5571 -0.1750
    3CHTO   C55 1049   6.456   0.751   2.406 -0.2478  0.2699 -0.3097
    3CHTO  H112 1050   6.502   0.651   2.400 -3.1566 -1.0455 -1.0544
    3CHTO   C56 1051   6.466   0.816   2.546  0.6885 -0.5448 -0.8979
    3CHTO  H113 1052   6.434   0.920   2.534  2.1308 -0.2454 -2.1788
    3CHTO   O42 1053   6.382   0.748   2.643  0.2395 -0.2522 -0.1423
    3CHTO  H100 1054   6.366   0.808   2.713 -3.4821 -1.4168  0.0865
    3CHTO   C57 1055   6.618   0.830   2.596  0.1659 -0.0696  0.5782
    3CHTO  H114 1056   6.660   0.734   2.627 -3.8260 -1.6237  1.4281
    3CHTO   N10 1057   6.630   0.912   2.717  0.2346  0.4201  0.1209
    3CHTO  H106 1058   6.704   0.878   2.788  1.3074 -2.3072 -2.2070
    3CHTO  H107 1059   6.539   0.906   2.776  1.1534 -0.9300  1.4337
    3CHTO   C58 1060   6.702   0.892   2.487 -0.8894 -0.3711 -0.2542
    3CHTO  H115 1061   6.689   1.001   2.478  3.0982 -0.0480 -3.7408
    3CHTO   O37 1062   6.678   0.833   2.361  0.3981  0.3948  0.0503
    3CHTO   C59 1063   6.540   0.844   2.315  0.6340  0.1746 -0.4809
    3CHTO  H116 1064   6.506   0.947   2.318  0.5054  0.1133  0.4117
    3CHTO   C70 1065   6.524   0.807   2.168 -0.2957  0.0079  0.4354
    3CHTO   O46 1066   6.594   0.682   2.149  0.8368 -0.3652 -0.5022
    3CHTO  H103 1067   6.619   0.677   2.058  3.5162  0.1677  0.1754
    3CHTO   O39 1068   6.865   0.854   2.499 -0.2255  0.1755  0.2870
    3CHTO   C60 1069   6.952   0.903   2.391 -0.3216 -0.7075 -0.2438
    3CHTO  H117 1070   6.888   0.910   2.303  1.5208 -2.1616 -1.7350
    3CHTO   C62 1071   7.006   1.041   2.422 -1.1628 -0.0728  0.1144
    3CHTO  H119 1072   6.917   1.105   2.440 -1.7923 -1.1596  0.9855
    3CHTO   O43 1073   7.085   1.044   2.545  0.2145  0.3988 -0.0253
    3CHTO  H101 1074   7.046   0.995   2.615 -2.3265  0.2774 -1.4904
    3CHTO   C66 1075   7.078   1.094   2.291  0.4998  0.2948 -0.1866
    3CHTO  H123 1076   7.010   1.083   2.206  0.2620  0.2365  0.0094
    3CHTO   N12 1077   7.115   1.236   2.295  0.2583 -0.3830  0.0061
    3CHTO  H110 1078   7.160   1.255   2.391 -1.1918  0.8791  0.4761
    3CHTO  H111 1079   7.184   1.276   2.223 -0.7327  0.5807 -0.4260
    3CHTO   C69 1080   7.190   1.000   2.247 -0.4007  0.6022 -0.2174
    3CHTO  H126 1081   7.288   1.013   2.298 -0.1141  0.7634 -0.8116
    3CHTO   O41 1082   7.147   0.849   2.247  0.8302  0.1640 -0.0120
    3CHTO   C64 1083   7.070   0.805   2.364  0.5613  0.0199  0.5271
    3CHTO  H121 1084   7.131   0.810   2.456 -1.4371  1.0220  1.8432
    3CHTO   C71 1085   7.005   0.662   2.340 -0.7970  0.2870  0.5760
    3CHTO   O47 1086   6.994   0.586   2.457  0.0047 -0.2251  0.1653
    3CHTO  H104 1087   6.927   0.523   2.436  1.5897 -1.7009 -0.6213
    3CHTO   O34 1088   7.226   1.042   2.097  0.3688 -0.9216 -0.3706
    3CHTO   C49 1089   7.253   0.990   1.963 -0.5961  0.6638  0.6108
    3CHTO   H91 1090   7.333   1.055   1.927  1.1754 -1.7220  0.0345
    3CHTO   C47 1091   7.137   1.002   1.871  0.6257  0.4873 -1.1635
    3CHTO   H89 1092   7.178   0.986   1.769  0.9725 -0.5145 -0.8764
    3CHTO   O33 1093   7.071   1.129   1.874  0.1595 -0.5745 -0.1139
    3CHTO   H70 1094   7.131   1.200   1.857  1.3942 -0.9519  2.3651
    3CHTO   C45 1095   7.024   0.892   1.919  0.7672  0.7807 -0.4032
    3CHTO   H87 1096   7.024   0.895   2.029  1.9872  1.4816 -0.4194
    3CHTO    N8 1097   6.887   0.897   1.855  0.0624 -0.1368 -0.1505
    3CHTO   H75 1098   6.835   0.804   1.875 -0.7502  0.4920  0.6631
    3CHTO   H76 1099   6.827   0.973   1.901 -0.1966 -0.0858 -0.5638
    3CHTO   C43 1100   7.101   0.754   1.885 -0.0593 -0.4374 -0.3318
    3CHTO   H85 1101   7.033   0.671   1.903  0.2854 -0.8783 -1.0621
    3CHTO   O29 1102   7.219   0.746   1.972  0.6960 -0.3015 -0.5618
    3CHTO   C50 1103   7.316   0.850   1.957 -0.5709 -0.1662  0.4081
    3CHTO   H92 1104   7.385   0.834   2.041 -1.0299  0.4179  0.8975
    3CHTO   C54 1105   7.418   0.825   1.838 -0.5289 -0.3104 -0.7904
    3CHTO   O36 1106   7.500   0.709   1.847  0.0919  0.3385  0.0916
    3CHTO   H72 1107   7.541   0.724   1.929  0.3825 -3.1840  0.6782
    3CHTO   O27 1108   7.127   0.750   1.742 -0.1382  0.1660 -0.5371
    3CHTO   C37 1109   7.138   0.650   1.638  0.6529  0.3843 -0.2592
    3CHTO   H79 1110   7.235   0.655   1.586 -0.6494 -0.2948 -2.8195
    3CHTO   C38 1111   7.134   0.507   1.687 -0.2316 -0.2875 -0.1717
    3CHTO   H80 1112   7.054   0.500   1.762  1.7005  0.1324  1.9817
    3CHTO   O31 1113   7.256   0.488   1.765 -0.4423 -0.0893  0.6225
    3CHTO   H68 1114   7.248   0.404   1.805  1.5305  0.6464  2.6831
    3CHTO   C39 1115   7.134   0.401   1.574 -0.7198 -0.2817 -0.4199
    3CHTO   H81 1116   7.235   0.393   1.533 -0.2837  0.1868  0.5484
    3CHTO    N7 1117   7.095   0.261   1.619 -0.2728 -0.2368 -0.1946
    3CHTO   H73 1118   7.061   0.259   1.722  1.6727 -2.5636  0.4618
    3CHTO   H74 1119   7.034   0.205   1.549 -1.6979 -0.5990  1.2947
    3CHTO   C40 1120   7.042   0.441   1.452  0.1372  0.4860  0.0331
    3CHTO   H82 1121   6.937   0.422   1.477  0.1097  1.2958  0.5717
    3CHTO   O26 1122   7.069   0.579   1.422  0.3237 -0.2495  0.9347
    3CHTO   C41 1123   7.034   0.674   1.524 -0.5762 -0.3244 -0.1223
    3CHTO   H83 1124   6.936   0.650   1.566 -0.2378 -1.0382  0.2732
    3CHTO   C52 1125   7.033   0.819   1.473 -0.3545 -0.4084  0.3572
    3CHTO   O35 1126   6.924   0.864   1.418 -0.4613 -0.1298 -0.1734
    3CHTO   H71 1127   6.850   0.808   1.434 -0.6719  1.0183  3.3376
    3CHTO   O28 1128   7.072   0.364   1.335  0.1061  0.1497 -0.7494
    3CHTO   C42 1129   6.986   0.335   1.224 -0.1192  0.2289  0.1540
    3CHTO   H84 1130   7.031   0.239   1.199  0.8705  0.5447  0.6668
    3CHTO   C44 1131   7.013   0.438   1.098 -0.2515  0.4363 -0.1998
    3CHTO   H86 1132   6.984   0.539   1.125 -3.0855 -0.0032 -1.3450
    3CHTO   O32 1133   7.153   0.412   1.061 -0.1234  0.7038  0.4357
    3CHTO   H69 1134   7.211   0.432   1.132  1.5000  3.0501 -1.4879
    3CHTO   C48 1135   6.925   0.400   0.976 -0.1777 -0.0367 -0.2895
    3CHTO   H90 1136   6.943   0.302   0.932  0.6499 -0.4054  0.8311
    3CHTO    N9 1137   6.949   0.489   0.864  0.0677 -0.6259  0.2292
    3CHTO   H77 1138   7.046   0.535   0.877 -0.4805  0.6180  0.0351
    3CHTO   H78 1139   6.885   0.577   0.869  1.2518  0.2278  0.7117
    3CHTO   C51 1140   6.775   0.397   1.026  0.2869 -0.6837  0.1838
    3CHTO   H93 1141   6.737   0.490   1.067 -1.6800 -1.7401  0.8232
    3CHTO   O30 1142   6.761   0.288   1.114  0.6125 -0.1133 -0.0809
    3CHTO   C46 1143   6.832   0.309   1.250  0.3445 -0.5751  0.2524
    3CHTO   H88 1144   6.791   0.393   1.307  1.8643 -0.9356  1.9343
    3CHTO   C53 1145   6.813   0.174   1.329 -0.4282 -0.6244 -0.8675
    3CHTO   O72 1146   6.825   0.184   1.472  0.4810  0.2133  0.8227
    3CHTO  H199 1147   6.751   0.222   1.515  0.7760  0.6009  0.9912
    3CHTO   O22 1148   6.677   0.359   0.924  0.2355  0.2606  0.1814
    3CHTO   C31 1149   6.540   0.403   0.924  0.6034 -0.1983 -0.2916
    3CHTO   H59 1150   6.487   0.345   0.846  0.6558 -1.5647  0.6683
    3CHTO   C29 1151   6.466   0.382   1.060  0.6794 -0.7329  0.1552
    3CHTO   H57 1152   6.513   0.444   1.137  1.8018  1.6941 -2.4246
    3CHTO   O21 1153   6.472   0.243   1.099  0.9850  0.2480  0.7615
    3CHTO   H37 1154   6.557   0.225   1.134  1.7222  1.7862 -0.2006
    3CHTO   C27 1155   6.311   0.424   1.047  0.6460 -0.6758 -0.3239
    3CHTO   H55 1156   6.262   0.354   0.978  2.2714 -0.5739 -1.6350
    3CHTO    N5 1157   6.243   0.417   1.177 -0.3558 -0.8229  0.4767
    3CHTO   H43 1158   6.149   0.469   1.169  1.0864  2.1059  1.6080
    3CHTO   H44 1159   6.297   0.468   1.256 -0.1014  1.2914 -1.0179
    3CHTO   C25 1160   6.290   0.562   0.977  0.0574  0.0570 -1.0664
    3CHTO   H53 1161   6.294   0.644   1.050  1.2408 -0.2284 -0.7930
    3CHTO   O17 1162   6.389   0.586   0.871  0.2192 -0.3546 -0.1664
    3CHTO   C32 1163   6.526   0.558   0.889  0.5753 -0.0729 -0.1956
    3CHTO   H60 1164   6.562   0.615   0.975 -0.7160  1.1350 -0.4426
    3CHTO   C36 1165   6.591   0.582   0.757 -0.1971 -0.1662  0.6311
    3CHTO   O25 1166   6.598   0.724   0.722 -0.3170  0.2021 -0.2819
    3CHTO   H40 1167   6.628   0.738   0.634  0.2536 -1.4027 -0.3517
    3CHTO   O15 1168   6.152   0.578   0.926  0.5740  0.3674  0.2866
    3CHTO   C19 1169   6.061   0.686   0.883 -0.0581  0.0873 -1.3524
    3CHTO   H47 1170   6.008   0.637   0.800  0.9216 -0.7127 -1.5132
    3CHTO   C20 1171   5.960   0.709   1.001 -0.1717  0.1804 -0.5030
    3CHTO   H48 1172   6.014   0.738   1.092 -1.1766 -0.2023  0.2334
    3CHTO   O19 1173   5.896   0.581   1.032 -0.3572 -0.0345 -0.1515
    3CHTO   H35 1174   5.970   0.524   1.030 -0.5120 -0.2598  0.5542
    3CHTO   C21 1175   5.857   0.823   0.957  0.4509  0.1569  0.4432
    3CHTO   H49 1176   5.824   0.798   0.856  3.0547 -2.0612  0.0735
    3CHTO    N4 1177   5.750   0.852   1.056  0.4287  0.2471  0.0593
    3CHTO   H41 1178   5.792   0.901   1.142 -2.9089 -1.8260  2.9870
    3CHTO   H42 1179   5.711   0.757   1.087  2.5573 -0.5767  0.3225
    3CHTO   C22 1180   5.944   0.947   0.930 -0.6165  0.2612 -0.5346
    3CHTO   H50 1181   6.016   0.969   1.009  0.3717 -2.6653 -0.5600
    3CHTO   O14 1182   6.023   0.909   0.813  0.1029 -0.4357  0.1959
    3CHTO   C23 1183   6.126   0.810   0.830 -0.3397  0.5164  0.4014
    3CHTO   H51 1184   6.204   0.853   0.895  2.2340 -1.5667 -1.2277
    3CHTO   C34 1185   6.182   0.795   0.691 -0.7690  0.1326 -0.3805
    3CHTO   O23 1186   6.323   0.813   0.688  0.1269  0.0307  0.4864
    3CHTO   H38 1187   6.340   0.905   0.687  0.4442 -0.0470 -2.2051
    3CHTO   O16 1188   5.871   1.063   0.890 -0.2154  0.2393  0.7847
    3CHTO   C24 1189   5.962   1.199   0.849 -0.5858 -0.0575  1.0697
    3CHTO   H52 1190   6.053   1.170   0.795 -0.3190 -0.8204  1.9195
    3CHTO   C26 1191   6.003   1.285   0.968 -0.5076  0.5780  0.1488
    3CHTO   H54 1192   5.910   1.322   1.016 -1.6044 -1.1378 -0.6087
    3CHTO   O20 1193   6.091   1.208   1.055  0.0496 -0.1696 -0.0093
    3CHTO   H36 1194   6.111   1.264   1.128  1.5447 -1.5093  0.6236
    3CHTO   C30 1195   6.076   1.411   0.917  0.3131  0.3007 -0.4081
    3CHTO   H58 1196   6.177   1.373   0.895  0.1584  0.1943 -0.9558
    3CHTO    N6 1197   6.100   1.514   1.023  0.4070 -0.3064  0.1654
    3CHTO   H45 1198   6.012   1.567   1.056  1.8525  3.2613 -1.4292
    3CHTO   H46 1199   6.172   1.588   0.993  1.1631 -1.3955 -0.7660
    3CHTO   C33 1200   6.027   1.481   0.787 -0.7457 -0.4907  1.4609
    3CHTO   H61 1201   5.945   1.551   0.807 -0.7918 -0.3062  0.6050
    3CHTO   O18 1202   5.976   1.380   0.704  0.5500  0.1436  0.3181
    3CHTO   C28 1203   5.878   1.288   0.757  0.3061  0.4047  0.1338
    3CHTO   H56 1204   5.797   1.332   0.815 -0.7107  0.9236 -1.6402
    3CHTO   C35 1205   5.819   1.212   0.633  0.1467 -0.9194 -0.4411
    3CHTO   O24 1206   5.697   1.142   0.665 -0.1213 -0.7433  0.0598
    3CHTO   H39 1207   5.639   1.204   0.704  0.2489  1.4854 -2.7609
    3CHTO    O9 1208   6.128   1.553   0.723  0.2194 -0.2945  0.0121
    3CHTO   C13 1209   6.135   1.719   0.736 -0.5621  0.1962  0.4094
    3CHTO   H26 1210   6.056   1.755   0.804 -0.4333 -1.0352  1.2260
    3CHTO   C11 1211   6.119   1.766   0.592 -0.8372 -0.5643  0.1428
    3CHTO   H24 1212   6.016   1.735   0.566 -0.7981 -0.5461 -0.0290
    3CHTO    O8 1213   6.199   1.698   0.502 -0.3426 -0.2133  0.4800
    3CHTO    H3 1214   6.180   1.722   0.413  1.5095  2.6501  0.8052
    3CHTO    C9 1215   6.135   1.921   0.595  0.7430  0.4666 -0.1550
    3CHTO   H22 1216   6.085   1.955   0.686  1.6762  2.2190 -0.2692
    3CHTO    N2 1217   6.076   2.004   0.487 -1.0946  0.0007  0.5613
    3CHTO   H10 1218   6.147   2.075   0.447  1.5653 -3.0415 -0.2259
    3CHTO   H11 1219   6.000   2.065   0.535 -0.8328  1.1016 -0.3982
    3CHTO    C7 1220   6.289   1.952   0.608 -0.2062  0.5072 -0.4629
    3CHTO   H20 1221   6.305   2.060   0.629  3.2573 -0.0386  0.0384
    3CHTO    O4 1222   6.353   1.871   0.709  1.3728  0.3724  0.1275
    3CHTO   C14 1223   6.277   1.782   0.798 -0.0367 -0.2314 -0.2969
    3CHTO   H27 1224   6.244   1.839   0.887  1.6001 -1.6971  1.3137
    3CHTO   C18 1225   6.379   1.673   0.849  0.0477 -0.9171  0.1573
    3CHTO   O13 1226   6.481   1.739   0.933 -0.4088 -0.1303 -0.0125
    3CHTO    H7 1227   6.521   1.818   0.903 -2.5199  2.4597  3.6367
    3CHTO    O2 1228   6.365   1.926   0.460 -0.3258  0.2707 -0.2820
    3CHTO    C1 1229   6.479   2.001   0.415 -0.8064 -0.7302 -0.0928
    3CHTO   H14 1230   6.512   2.071   0.495  1.6599 -0.7574 -1.0649
    3CHTO    C2 1231   6.449   2.092   0.287  0.1011 -1.0548 -0.7427
    3CHTO   H15 1232   6.386   2.033   0.218 -1.1031  1.0498 -1.4978
    3CHTO    O6 1233   6.367   2.204   0.329  0.1088  0.4610  0.4669
    3CHTO    H1 1234   6.407   2.236   0.408  0.1033 -0.5787  0.9008
    3CHTO    C3 1235   6.577   2.160   0.222  0.6805  0.4172 -0.1988
    3CHTO   H16 1236   6.608   2.244   0.286 -0.6477  1.0066 -0.3200
    3CHTO    N1 1237   6.558   2.230   0.087 -0.0783  0.1703 -0.1334
    3CHTO    H8 1238   6.456   2.225   0.052  0.0448 -2.2207 -0.2703
    3CHTO    H9 1239   6.581   2.335   0.101  2.4549 -0.4741  0.7647
    3CHTO    C4 1240   6.702   2.057   0.219  0.0461  0.6936 -0.3884
    3CHTO   H17 1241   6.688   1.984   0.139  2.1765  0.9317 -1.0011
    3CHTO    O1 1242   6.713   1.987   0.347 -1.0593  0.3364 -0.4634
    3CHTO    C5 1243   6.598   1.907   0.384 -0.5453  0.2846 -0.0067
    3CHTO   H18 1244   6.564   1.840   0.306  1.8565  0.2926 -1.1029
    3CHTO   C16 1245   6.648   1.821   0.501  0.0856 -0.3479  0.0476
    3CHTO   O11 1246   6.689   1.893   0.610 -0.1104  0.1139  0.3028
    3CHTO    H5 1247   6.711   1.835   0.680 -0.8003 -1.2725 -0.5935
    3CHTO    O3 1248   6.821   2.124   0.206 -0.3463  0.3698  0.8168
    3CHTO    C6 1249   6.952   2.062   0.246  0.5097  1.0389  1.0857
    3CHTO   H19 1250   6.940   1.960   0.282  0.3102  0.1302 -1.4751
    3CHTO    C8 1251   7.040   2.048   0.121  0.6650  0.4995  0.1957
    3CHTO   H21 1252   7.045   2.148   0.078  1.2222  0.7568  0.8427
    3CHTO    O7 1253   6.982   1.954   0.025  0.1252  0.4095  0.2269
    3CHTO    H2 1254   7.013   1.980  -0.060 -0.3628  1.7294  0.4380
    3CHTO   C12 1255   7.187   1.993   0.156 -0.0868  0.2956  0.0232
    3CHTO   H25 1256   7.172   1.889   0.192  0.6983  0.6947  1.5814
    3CHTO    N3 1257   7.279   1.985   0.038 -0.4250  0.1175  0.0705
    3CHTO   H12 1258   7.226   1.927  -0.036  2.1389 -3.4879  0.9893
    3CHTO   H13 1259   7.303   2.085   0.002  0.4680  0.2158  0.9243
    3CHTO   C15 1260   7.250   2.079   0.275  0.2660 -0.3924  0.1149
    3CHTO   H28 1261   7.278   2.179   0.240 -2.6180  0.7450  0.9563
    3CHTO   O10 1262   7.364   2.012   0.335  0.3958  0.1391 -0.1248
    3CHTO    H4 1263   7.439   2.062   0.310 -0.9003  1.4852 -1.3903
    3CHTO    O5 1264   7.156   2.095   0.380 -0.5539 -0.4314 -0.1657
    3CHTO   C10 1265   7.024   2.144   0.351  0.4030  0.0787 -1.3439
    3CHTO   H23 1266   7.030   2.249   0.324 -0.1475  0.1416 -1.2291
    3CHTO   C17 1267   6.942   2.135   0.478 -0.4801  0.0281 -0.2043
    3CHTO   O12 1268   6.936   2.262   0.543 -0.4138 -0.3599  0.5044
    3CHTO    H6 1269   6.986   2.328   0.499 -3.5427  1.1774 -0.9229
    4CHTO  H203 1270   6.685   7.291   2.426  0.1998 -0.7316  0.5384
    4CHTO   O82 1271   6.756   7.323   2.374 -0.5364  0.6682  0.3688
    4CHTO  C123 1272   6.782   7.465   2.393 -0.4412 -0.3334  0.9264
    4CHTO  H227 1273   6.747   7.500   2.491 -1.9610 -0.2106  0.3514
    4CHTO   O77 1274   6.927   7.462   2.392 -0.4523 -0.5875 -0.1988
    4CHTO  C118 1275   6.990   7.585   2.426 -0.0916 -0.2822 -0.6397
    4CHTO  H222 1276   6.949   7.630   2.517  0.4466  2.0871 -1.5377
    4CHTO  C125 1277   7.145   7.564   2.441 -0.2260 -0.5313 -0.0452
    4CHTO   O84 1278   7.213   7.515   2.320  0.3740 -0.0115 -0.2235
    4CHTO  H205 1279   7.206   7.581   2.254 -0.2025 -0.3284 -0.4865
    4CHTO  C114 1280   6.951   7.688   2.314 -0.0020  0.5767  0.1164
    4CHTO  H218 1281   6.995   7.656   2.219 -0.6637 -0.0744  0.0205
    4CHTO  C116 1282   6.788   7.693   2.299 -0.4546  0.8755  0.1358
    4CHTO  H220 1283   6.751   7.739   2.392  0.5493  1.7744  0.0964
    4CHTO   O79 1284   6.761   7.790   2.190  0.7825  0.2301 -0.2413
    4CHTO  H201 1285   6.670   7.809   2.183  0.2043 -3.2276 -3.1627
    4CHTO  C120 1286   6.723   7.550   2.278  0.0328 -0.0360  0.2826
    4CHTO  H224 1287   6.757   7.511   2.180  4.0936  2.8019  0.4347
    4CHTO   N21 1288   6.577   7.565   2.274  0.2843  0.4343  0.3810
    4CHTO  H211 1289   6.535   7.650   2.327 -0.1028  0.2154  0.4254
    4CHTO  H212 1290   6.528   7.475   2.309 -2.3817  2.0424  0.9667
    4CHTO   O75 1291   7.014   7.814   2.352 -0.4703  0.5484  0.1554
    4CHTO  C112 1292   7.071   7.896   2.224 -1.0467  0.1456  0.2604
    4CHTO  H216 1293   6.990   7.916   2.152  0.1980 -1.5464 -1.6955
    4CHTO   O73 1294   7.178   7.817   2.168 -0.2580  0.5869  0.3414
    4CHTO  C113 1295   7.228   7.881   2.047  0.0955 -0.1286 -0.2092
    4CHTO  H217 1296   7.141   7.893   1.979 -0.2018 -1.3706 -0.0638
    4CHTO  C124 1297   7.322   7.780   1.980 -0.4660  1.1778 -0.1547
    4CHTO   O83 1298   7.444   7.753   2.052  0.2003 -0.5226  0.2789
    4CHTO  H204 1299   7.471   7.830   2.098  1.9024  0.1445 -1.7633
    4CHTO  C109 1300   7.291   8.017   2.078  0.5553  0.3656 -0.1625
    4CHTO  H213 1301   7.377   7.999   2.144  0.2109 -0.6750  0.0005
    4CHTO  C110 1302   7.186   8.107   2.151  0.7060 -0.2393 -0.5207
    4CHTO  H214 1303   7.105   8.145   2.089 -3.0494 -1.6275  3.2666
    4CHTO   O78 1304   7.253   8.233   2.188 -0.1286 -0.4521 -0.7870
    4CHTO  H200 1305   7.273   8.279   2.108  2.1013  0.3055  0.1627
    4CHTO  C111 1306   7.126   8.030   2.275  0.0708 -0.0586  0.3207
    4CHTO  H215 1307   7.208   7.999   2.342  0.4973 -1.5320 -0.8433
    4CHTO   N19 1308   7.021   8.101   2.355  0.1501 -0.2294  0.0461
    4CHTO  H207 1309   6.944   8.135   2.287 -0.8148 -0.8972  0.7844
    4CHTO  H208 1310   6.975   8.044   2.435 -2.3707  0.3035 -0.9889
    4CHTO   O74 1311   7.334   8.073   1.954 -0.0243  0.0780 -0.4104
    4CHTO  C115 1312   7.445   8.184   1.940  0.2502  0.2619  0.6452
    4CHTO  H219 1313   7.429   8.271   2.005  1.7704  1.0979 -0.0723
    4CHTO   O76 1314   7.586   8.135   1.983  0.0247  0.3079 -0.2329
    4CHTO  C122 1315   7.635   8.020   1.900 -0.4779 -0.1442  0.2321
    4CHTO  H226 1316   7.594   7.928   1.943  1.9868 -0.0197  3.0014
    4CHTO  C126 1317   7.794   8.008   1.924 -0.4120 -0.3176  0.0814
    4CHTO   O85 1318   7.857   8.129   1.880 -0.1968 -0.8714  0.3483
    4CHTO  H206 1319   7.937   8.138   1.930 -0.7265 -0.3515  1.1150
    4CHTO  C121 1320   7.602   8.034   1.742  0.2094  0.3176  0.3575
    4CHTO  H225 1321   7.687   7.999   1.680 -0.9848  1.3438 -1.9561
    4CHTO   O81 1322   7.492   7.940   1.713 -0.0479 -0.0809  0.0201
    4CHTO  H202 1323   7.515   7.899   1.632 -0.2048  0.4058 -0.2655
    4CHTO  C119 1324   7.566   8.182   1.706 -1.2203  0.5877 -0.0029
    4CHTO  H223 1325   7.647   8.248   1.736  0.7928 -1.2273 -1.2650
    4CHTO  C117 1326   7.444   8.230   1.787  0.6792  0.0305 -0.0434
    4CHTO  H221 1327   7.352   8.184   1.752 -1.0050  0.6096  3.4669
    4CHTO   N20 1328   7.417   8.377   1.778 -0.0959 -0.1322 -0.3740
    4CHTO  H209 1329   7.369   8.409   1.687 -0.3122 -1.2883 -0.6723
    4CHTO  H210 1330   7.368   8.419   1.865 -0.9870 -0.2901 -0.8035
    4CHTO   O80 1331   7.554   8.203   1.561 -0.1176  0.3695 -0.3265
    4CHTO  C103 1332   7.674   8.253   1.463 -0.1669  0.1890 -0.6935
    4CHTO  H190 1333   7.719   8.347   1.496 -4.9787  1.4540  2.9396
    4CHTO  C101 1334   7.801   8.154   1.467  1.0343 -0.2347  0.0361
    4CHTO  H188 1335   7.765   8.051   1.462  0.8389 -0.0693 -2.0881
    4CHTO   O68 1336   7.879   8.168   1.603 -0.8790 -0.1805  0.1469
    4CHTO  H168 1337   7.940   8.097   1.608 -1.9738 -1.3406 -1.7845
    4CHTO   C99 1338   7.897   8.189   1.342  0.1990 -0.3121  0.0205
    4CHTO  H186 1339   7.958   8.278   1.369 -1.7819  1.4582 -1.2147
    4CHTO   N17 1340   8.009   8.095   1.326 -0.2474  0.2804 -0.5149
    4CHTO  H174 1341   8.071   8.099   1.414  2.4619 -0.7538 -2.3034
    4CHTO  H175 1342   8.075   8.115   1.242  0.3619  3.3587  0.6428
    4CHTO   C97 1343   7.827   8.221   1.207 -0.6121  0.3505 -0.2989
    4CHTO  H184 1344   7.787   8.128   1.164  1.7574  0.5817 -3.1908
    4CHTO   O64 1345   7.726   8.316   1.243 -0.1321  0.0388 -0.0289
    4CHTO  C104 1346   7.613   8.275   1.315 -0.9783 -0.6824  0.6569
    4CHTO  H191 1347   7.567   8.184   1.276 -3.2978  0.1306  1.4185
    4CHTO  C108 1348   7.504   8.387   1.304 -0.7214  0.4791 -0.5440
    4CHTO   O71 1349   7.458   8.420   1.172  0.5304  0.3849 -0.1179
    4CHTO  H171 1350   7.479   8.359   1.103 -2.8785 -1.3253  0.2780
    4CHTO   O62 1351   7.906   8.297   1.116  0.3619  0.4078  0.3220
    4CHTO   C91 1352   7.875   8.295   0.975  0.1431  0.5577 -0.2735
    4CHTO  H178 1353   7.769   8.278   0.961  0.0286 -1.0182  2.2897
    4CHTO   C92 1354   7.939   8.176   0.895 -0.1030  0.7899  0.2860
    4CHTO  H179 1355   8.037   8.147   0.936  0.7957 -0.0661 -2.3987
    4CHTO   O66 1356   7.853   8.060   0.909 -0.3841  0.3586 -0.2622
    4CHTO  H166 1357   7.866   8.008   0.833 -0.7918  0.9670 -0.7526
    4CHTO   C93 1358   7.956   8.205   0.738  0.0911  0.4434 -0.2037
    4CHTO  H180 1359   7.860   8.192   0.687  1.3747 -2.9148 -1.9803
    4CHTO   N16 1360   8.045   8.099   0.680 -0.5197 -0.3933 -1.1113
    4CHTO  H172 1361   8.064   8.023   0.754 -1.0771 -0.4853 -1.0610
    4CHTO  H173 1362   8.010   8.074   0.580 -0.2713  0.3524 -1.3860
    4CHTO   C94 1363   8.016   8.344   0.712  0.3740 -0.3840 -0.5032
    4CHTO  H181 1364   8.104   8.364   0.773 -0.8636 -0.7238  1.4339
    4CHTO   O61 1365   7.920   8.432   0.776 -0.0080  0.3911  0.4384
    4CHTO   C95 1366   7.913   8.431   0.916 -0.5313 -0.7475 -0.4819
    4CHTO  H182 1367   8.013   8.447   0.957  0.5938 -2.6812 -2.3318
    4CHTO  C106 1368   7.825   8.543   0.979 -0.1378  0.1204  0.7389
    4CHTO   O69 1369   7.709   8.583   0.904 -0.0317 -0.5146  0.1599
    4CHTO  H169 1370   7.670   8.651   0.956 -0.5284 -1.2135  0.7244
    4CHTO   O63 1371   8.029   8.395   0.541 -0.2063 -0.1813  0.7648
    4CHTO   C96 1372   7.885   8.405   0.482 -0.5577  0.8665 -0.6484
    4CHTO  H183 1373   7.814   8.368   0.555  0.6315 -1.8659 -0.8138
    4CHTO   C98 1374   7.878   8.322   0.348 -0.5223  0.0500  0.1059
    4CHTO  H185 1375   7.932   8.374   0.267 -0.8626  0.9198  0.4298
    4CHTO   O67 1376   7.936   8.190   0.366  0.7775 -0.1927  0.2551
    4CHTO  H167 1377   7.881   8.116   0.381  1.8881 -1.0285  0.2229
    4CHTO  C102 1378   7.717   8.324   0.298 -0.2101  0.7458 -0.0263
    4CHTO  H189 1379   7.665   8.251   0.362  2.1850  0.2008  1.3319
    4CHTO   N18 1380   7.695   8.264   0.161  0.1349  0.8623  0.4318
    4CHTO  H176 1381   7.614   8.322   0.118  0.1233 -1.1880 -2.4890
    4CHTO  H177 1382   7.660   8.162   0.173 -0.4808  1.0673  0.4399
    4CHTO  C105 1383   7.662   8.465   0.316  0.2723  0.1405  0.4314
    4CHTO  H192 1384   7.601   8.492   0.230 -0.2453 -4.2179 -0.7144
    4CHTO   O65 1385   7.762   8.564   0.336  0.2583 -0.6606 -0.1136
    4CHTO  C100 1386   7.849   8.554   0.450  0.1661 -0.0992  0.1258
    4CHTO  H187 1387   7.942   8.609   0.432 -1.7531  2.6013 -1.9085
    4CHTO  C107 1388   7.784   8.626   0.566  0.1641  0.0664 -0.2832
    4CHTO   O70 1389   7.710   8.749   0.530  0.4435 -0.0587 -0.0638
    4CHTO  H170 1390   7.673   8.730   0.446 -0.6325 -0.6798  0.5486
    4CHTO   O57 1391   7.553   8.455   0.442 -0.1802  0.0875  0.4352
    4CHTO   C85 1392   7.425   8.527   0.421  0.6546  0.2902  0.1208
    4CHTO  H157 1393   7.429   8.579   0.323 -1.1330  1.0185  0.4042
    4CHTO   C83 1394   7.413   8.642   0.528 -0.4527  0.8151  0.7393
    4CHTO  H155 1395   7.485   8.720   0.503  0.8279 -0.4561  0.4219
    4CHTO   O56 1396   7.457   8.587   0.653  0.1264 -0.1102  0.5788
    4CHTO  H135 1397   7.549   8.605   0.654  0.7064 -2.5286 -3.0857
    4CHTO   C81 1398   7.274   8.705   0.514  0.4257  1.0204  0.1632
    4CHTO  H153 1399   7.265   8.733   0.409 -0.2025 -0.1211 -0.0967
    4CHTO   N14 1400   7.260   8.826   0.591 -0.1700  0.2681  0.5122
    4CHTO  H141 1401   7.331   8.840   0.669 -0.3283  1.5870  0.4217
    4CHTO  H142 1402   7.160   8.844   0.623 -0.5997 -1.3603  0.1819
    4CHTO   C79 1403   7.164   8.591   0.541 -0.2562  0.5625  0.7617
    4CHTO  H151 1404   7.065   8.637   0.531 -0.1070  0.4279 -1.5441
    4CHTO   O52 1405   7.173   8.489   0.434 -0.3080  0.4999 -0.1268
    4CHTO   C86 1406   7.301   8.423   0.426 -0.0069  0.2755 -0.2430
    4CHTO  H158 1407   7.300   8.360   0.517 -2.6555 -0.5007 -0.7700
    4CHTO   C90 1408   7.320   8.330   0.297 -0.1666 -0.1642 -0.3432
    4CHTO   O60 1409   7.308   8.397   0.170  0.3858 -0.1134  0.3940
    4CHTO  H138 1410   7.234   8.454   0.164  1.7758  1.8315  1.2596
    4CHTO   O50 1411   7.172   8.523   0.667  0.2908 -0.0764  0.1288
    4CHTO   C73 1412   7.134   8.455   0.789  0.2682  0.0640  0.1848
    4CHTO  H145 1413   7.069   8.525   0.845 -1.0327 -0.0448 -1.1570
    4CHTO   C74 1414   7.253   8.412   0.879  0.7960 -0.3378  0.0651
    4CHTO  H146 1415   7.313   8.502   0.901  3.6290 -2.5711  1.8228
    4CHTO   O54 1416   7.200   8.355   1.000  0.6804  0.2812 -0.0811
    4CHTO  H133 1417   7.271   8.357   1.060 -1.1280 -1.0922  2.1704
    4CHTO   C75 1418   7.336   8.305   0.799 -0.7765 -0.7872 -0.3396
    4CHTO  H147 1419   7.389   8.355   0.717 -0.6453 -0.0539  0.1853
    4CHTO   N13 1420   7.451   8.246   0.873 -0.2117  0.1401 -0.5315
    4CHTO  H139 1421   7.429   8.235   0.979  1.3284  0.7168 -0.1346
    4CHTO  H140 1422   7.537   8.309   0.858  1.0283 -1.4945 -0.3941
    4CHTO   C76 1423   7.246   8.184   0.745 -0.2474 -0.2712  0.1675
    4CHTO  H148 1424   7.223   8.113   0.825 -0.4690  0.7748  1.0371
    4CHTO   O49 1425   7.123   8.226   0.679  0.8741  0.0060  0.4666
    4CHTO   C77 1426   7.050   8.332   0.742 -0.2888  0.1931 -0.0657
    4CHTO  H149 1427   7.003   8.291   0.831  0.5000 -1.5215 -0.4306
    4CHTO   C88 1428   6.930   8.372   0.658 -0.5044  0.1573  0.3486
    4CHTO   O58 1429   6.835   8.454   0.746  0.6060  0.0827  1.1176
    4CHTO  H136 1430   6.780   8.391   0.789  0.7809 -1.0545 -0.2949
    4CHTO   O51 1431   7.335   8.116   0.634  0.4054 -0.0820  0.0600
    4CHTO   C78 1432   7.401   7.945   0.664  0.4415 -0.5618  0.2674
    4CHTO  H150 1433   7.376   7.884   0.574  0.1059 -0.7363  0.4784
    4CHTO   C80 1434   7.330   7.874   0.780 -0.3339 -0.3479  0.0805
    4CHTO  H152 1435   7.340   7.939   0.870  0.2740  1.1705 -1.0562
    4CHTO   O55 1436   7.194   7.872   0.741  1.0220  0.9575 -0.6328
    4CHTO  H134 1437   7.179   7.843   0.653 -0.8162  1.5370 -0.5282
    4CHTO   C84 1438   7.389   7.731   0.809  0.1031 -0.3253 -0.5123
    4CHTO  H156 1439   7.349   7.672   0.727  0.1111  0.8988 -1.4096
    4CHTO   N15 1440   7.339   7.674   0.937  0.2999 -0.2699 -0.4598
    4CHTO  H143 1441   7.416   7.657   1.010 -0.0024  0.4892  0.0411
    4CHTO  H144 1442   7.288   7.584   0.912  0.2016 -0.2167 -0.4471
    4CHTO   C87 1443   7.541   7.735   0.814 -0.2227  0.1066  0.4164
    4CHTO  H159 1444   7.575   7.789   0.902  2.0277 -2.2104  1.0050
    4CHTO   O53 1445   7.598   7.805   0.693  0.0350  0.1632 -0.1801
    4CHTO   C82 1446   7.557   7.939   0.678 -0.2184  0.8377  0.6343
    4CHTO  H154 1447   7.593   7.999   0.762 -1.1160 -0.6262  2.1235
    4CHTO   C89 1448   7.617   7.997   0.547 -0.3586 -0.2456 -0.1556
    4CHTO   O59 1449   7.755   7.964   0.528  0.1162  0.0367 -0.7146
    4CHTO  H137 1450   7.774   7.931   0.442 -0.7106  1.8616 -1.6370
    4CHTO   O45 1451   7.604   7.579   0.841  0.3004  0.4191 -0.1403
    4CHTO   C67 1452   7.693   7.530   0.741  0.8083  0.3788  0.3588
    4CHTO  H124 1453   7.746   7.616   0.701 -0.4043  1.5325  1.2119
    4CHTO   C65 1454   7.797   7.429   0.802  0.4427  0.2851  0.1481
    4CHTO  H122 1455   7.829   7.475   0.896  0.2544  0.1769  0.2650
    4CHTO   O44 1456   7.915   7.405   0.718  0.4303 -0.1758  0.2924
    4CHTO  H102 1457   7.967   7.345   0.769  0.8538 -0.2169 -0.1855
    4CHTO   C63 1458   7.726   7.301   0.844  0.2215  1.2545  0.2005
    4CHTO  H120 1459   7.638   7.328   0.902  0.6633  1.6238  0.6976
    4CHTO   N11 1460   7.802   7.211   0.937 -0.2754  0.1471 -0.2664
    4CHTO  H108 1461   7.755   7.115   0.945  1.5315 -0.5643  2.3224
    4CHTO  H109 1462   7.902   7.194   0.900  0.0564  0.1749  0.6120
    4CHTO   C61 1463   7.667   7.230   0.713  0.8235 -0.2915  0.3044
    4CHTO  H118 1464   7.600   7.156   0.758 -1.2965  1.0881 -0.4840
    4CHTO   O40 1465   7.585   7.319   0.631  0.3958  0.4933  0.5011
    4CHTO   C68 1466   7.611   7.455   0.618 -0.7125 -0.4938 -0.4538
    4CHTO  H125 1467   7.511   7.500   0.601  0.0080  1.7449  1.0237
    4CHTO   C72 1468   7.694   7.476   0.477  0.4049  0.4984  0.2224
    4CHTO   O48 1469   7.761   7.598   0.466 -0.2156  0.2693 -0.3041
    4CHTO  H105 1470   7.723   7.672   0.509 -0.5111 -0.0084 -0.0859
    4CHTO   O38 1471   7.760   7.162   0.621 -0.4606  0.0811 -0.4754
    4CHTO   C55 1472   7.703   7.046   0.551 -0.6385 -0.5880 -0.3730
    4CHTO  H112 1473   7.594   7.039   0.550 -0.5837 -1.4625 -1.0078
    4CHTO   C56 1474   7.770   6.905   0.615 -0.1385  0.0938  0.2370
    4CHTO  H113 1475   7.879   6.923   0.611 -0.3044  0.8945 -0.9924
    4CHTO   O42 1476   7.749   6.899   0.760 -0.3221  0.0704  0.4292
    4CHTO  H100 1477   7.659   6.883   0.779 -1.0153  1.5447 -1.4683
    4CHTO   C57 1478   7.714   6.771   0.546 -0.5089  1.2210 -0.3385
    4CHTO  H114 1479   7.609   6.756   0.570 -0.1501  1.5177  1.5631
    4CHTO   N10 1480   7.787   6.645   0.586 -0.6322  0.7824  0.7506
    4CHTO  H106 1481   7.763   6.606   0.683 -0.5337  0.7353  0.7555
    4CHTO  H107 1482   7.895   6.656   0.578 -0.6610  0.7171  0.2230
    4CHTO   C58 1483   7.723   6.799   0.390  0.2015 -0.5354 -0.9698
    4CHTO  H115 1484   7.828   6.804   0.354 -0.1278  4.3039 -1.4679
    4CHTO   O37 1485   7.661   6.923   0.361 -0.6403  0.2147  0.2832
    4CHTO   C59 1486   7.736   7.041   0.402 -0.4007 -0.6280  0.2693
    4CHTO  H116 1487   7.843   7.039   0.382  0.0474  1.0975  2.3869
    4CHTO   C70 1488   7.688   7.170   0.326 -0.3972 -0.1145 -0.0376
    4CHTO   O46 1489   7.655   7.156   0.189 -0.2274 -1.0129 -0.1763
    4CHTO  H103 1490   7.708   7.219   0.143  2.9156 -2.1702  1.6804
    4CHTO   O39 1491   7.640   6.692   0.315  0.3076 -0.0156  0.5929
    4CHTO   C60 1492   7.686   6.637   0.190 -0.0229 -0.7046  0.2692
    4CHTO  H117 1493   7.719   6.717   0.124 -0.2207  1.5073  2.7297
    4CHTO   C62 1494   7.805   6.539   0.207 -0.6669  0.4110 -0.1102
    4CHTO  H119 1495   7.895   6.600   0.229  1.6717 -3.0133  0.1196
    4CHTO   O43 1496   7.776   6.443   0.312 -0.1811  0.1415  0.1040
    4CHTO  H101 1497   7.839   6.456   0.381  3.5241  1.6943 -3.3531
    4CHTO   C66 1498   7.829   6.465   0.067 -0.6575  0.6156 -0.8671
    4CHTO  H123 1499   7.840   6.538  -0.014  0.3274  1.8069  0.3291
    4CHTO   N12 1500   7.958   6.385   0.069  0.1985  0.0729  0.7486
    4CHTO  H110 1501   7.954   6.295   0.129  0.5787  0.3734  1.2217
    4CHTO  H111 1502   8.003   6.369  -0.028 -0.9329 -1.9655  0.5242
    4CHTO   C69 1503   7.697   6.392   0.029 -0.1307  0.6900  0.2751
    4CHTO  H126 1504   7.660   6.325   0.110 -1.0013 -1.0371 -1.4995
    4CHTO   O41 1505   7.601   6.500   0.007 -0.2513 -0.1076 -0.0463
    4CHTO   C64 1506   7.567   6.576   0.125  0.1716  0.0890  0.3224
    4CHTO  H121 1507   7.505   6.511   0.191  1.3292 -0.4398  0.9153
    4CHTO   C71 1508   7.479   6.699   0.093 -0.2010 -0.2511 -0.0386
    4CHTO   O47 1509   7.360   6.675   0.015 -0.4337  0.5967  0.2599
    4CHTO  H104 1510   7.376   6.687  -0.077  2.1841  0.5763  0.6659
    4CHTO   O34 1511   7.715   6.311  -0.092 -0.5884  0.5452  0.4073
    4CHTO   C49 1512   7.642   6.221  -0.212  0.2910 -0.9148 -0.5386
    4CHTO   H91 1513   7.591   6.291  -0.279  1.7417 -0.4643 -1.2070
    4CHTO   C47 1514   7.537   6.131  -0.143  0.5978  0.0147 -0.1705
    4CHTO   H89 1515   7.476   6.074  -0.216 -0.3093 -1.6037  1.7845
    4CHTO   O33 1516   7.451   6.205  -0.058  0.3032  0.6069 -0.4021
    4CHTO   H70 1517   7.388   6.248  -0.113 -0.1428 -0.9215 -1.1003
    4CHTO   C45 1518   7.627   6.019  -0.052  0.1145  0.6643 -0.0029
    4CHTO   H87 1519   7.685   6.079   0.021 -2.3318  1.3842  1.4017
    4CHTO    N8 1520   7.539   5.928   0.023 -0.8113  0.4679 -0.1642
    4CHTO   H75 1521   7.490   5.977   0.105 -1.9797  1.4955 -1.4466
    4CHTO   H76 1522   7.470   5.873  -0.040 -2.0559  2.1707 -0.3254
    4CHTO   C43 1523   7.732   5.940  -0.147 -0.0368  0.7752 -0.1513
    4CHTO   H85 1524   7.791   5.884  -0.076  0.2080 -1.5383 -2.0964
    4CHTO   O29 1525   7.811   6.030  -0.230 -1.2538 -0.1607 -0.3356
    4CHTO   C50 1526   7.742   6.137  -0.296  0.9468 -0.0627  0.3756
    4CHTO   H92 1527   7.817   6.210  -0.331  1.6415 -0.7938  0.3090
    4CHTO   C54 1528   7.687   6.086  -0.435  0.5502 -0.5396 -0.6590
    4CHTO   O36 1529   7.778   6.072  -0.541  0.4469  0.0829  0.9674
    4CHTO   H72 1530   7.761   5.999  -0.599 -0.4566 -1.6943  3.3830
    4CHTO   O27 1531   7.663   5.833  -0.221 -0.2641 -0.3672 -0.3083
    4CHTO   C37 1532   7.681   5.699  -0.262 -0.0088 -0.6301  0.1057
    4CHTO   H79 1533   7.635   5.688  -0.362 -2.4291  2.9522  0.7300
    4CHTO   C38 1534   7.834   5.665  -0.285  0.1530  0.0799 -0.4878
    4CHTO   H80 1535   7.879   5.693  -0.188  0.8820 -1.3711 -0.4029
    4CHTO   O31 1536   7.885   5.749  -0.395  0.2939 -0.4040  0.1546
    4CHTO   H68 1537   7.901   5.836  -0.365 -1.9063  0.0454  0.1151
    4CHTO   C39 1538   7.855   5.512  -0.318  0.1272  0.1726  0.1470
    4CHTO   H81 1539   7.797   5.485  -0.406 -1.0511 -1.7404  1.4451
    4CHTO    N7 1540   8.002   5.469  -0.333 -0.5045  0.2733  0.2421
    4CHTO   H73 1541   8.064   5.532  -0.272  1.3642 -0.2820 -1.0647
    4CHTO   H74 1542   8.031   5.488  -0.435 -1.8508  0.9041 -0.0368
    4CHTO   C40 1543   7.796   5.437  -0.191  0.2823  0.6380  0.1009
    4CHTO   H82 1544   7.840   5.470  -0.097 -1.3344 -2.9389  2.1765
    4CHTO   O26 1545   7.657   5.463  -0.195 -0.1793 -0.2256  0.4205
    4CHTO   C41 1546   7.617   5.602  -0.159  0.1292 -0.3835  0.2898
    4CHTO   H83 1547   7.660   5.635  -0.063 -1.0292  1.5488  0.1760
    4CHTO   C52 1548   7.463   5.617  -0.155  0.4408  0.5765  0.0313
    4CHTO   O35 1549   7.405   5.500  -0.102 -0.6297 -0.6402  0.7239
    4CHTO   H71 1550   7.317   5.515  -0.074 -0.0479  2.9614  0.8494
    4CHTO   O28 1551   7.804   5.292  -0.195  1.2736  0.4413 -0.1883
    4CHTO   C42 1552   7.787   5.216  -0.074 -0.0399  0.3430 -0.4639
    4CHTO   H84 1553   7.788   5.113  -0.110 -1.3266 -0.1110  0.7504
    4CHTO   C44 1554   7.649   5.235  -0.002  0.1959  0.1499  0.4156
    4CHTO   H86 1555   7.646   5.337   0.037  3.1537  1.3704 -2.3012
    4CHTO   O32 1556   7.550   5.222  -0.110  0.7072 -0.2130 -0.7029
    4CHTO   H69 1557   7.469   5.261  -0.084  1.4940  0.2178  1.1649
    4CHTO   C48 1558   7.626   5.137   0.119  0.3998 -0.7823  0.3016
    4CHTO   H90 1559   7.626   5.033   0.086  0.5843 -0.6768 -0.0411
    4CHTO    N9 1560   7.496   5.166   0.190  0.4551 -0.0918  0.3349
    4CHTO   H77 1561   7.477   5.270   0.214  1.6495  0.3918 -0.7717
    4CHTO   H78 1562   7.482   5.097   0.272 -1.8727 -0.7818 -0.5903
    4CHTO   C51 1563   7.748   5.156   0.224  0.1969 -0.1764 -0.0007
    4CHTO   H93 1564   7.748   5.256   0.268  2.6884 -0.3036  0.3974
    4CHTO   O30 1565   7.870   5.127   0.157 -0.3495 -0.0350 -0.0084
    4CHTO   C46 1566   7.897   5.227   0.034  0.6072  0.4777 -0.1925
    4CHTO   H88 1567   7.892   5.330   0.068  0.4415  0.9457 -1.6317
    4CHTO   C53 1568   8.034   5.201  -0.026  0.4498  0.1282  0.0849
    4CHTO   O72 1569   8.051   5.078  -0.096 -0.5668  0.4447 -0.6181
    4CHTO  H199 1570   8.130   5.039  -0.064 -3.0522 -1.7624  3.2154
    4CHTO   O22 1571   7.746   5.061   0.327  0.2170  0.4242 -0.5861
    4CHTO   C31 1572   7.768   5.113   0.469 -0.1882 -0.5246 -0.5065
    4CHTO   H59 1573   7.846   5.191   0.457  0.2859 -0.9468 -0.2079
    4CHTO   C29 1574   7.650   5.182   0.543 -0.0614  0.1904 -0.4827
    4CHTO   H57 1575   7.559   5.120   0.542  0.0879 -0.0237 -0.9788
    4CHTO   O21 1576   7.624   5.303   0.463  0.0410  0.3000  0.2705
    4CHTO   H37 1577   7.533   5.321   0.476 -0.3183 -0.9097 -0.4911
    4CHTO   C27 1578   7.679   5.232   0.691 -0.1973  0.2071  0.9721
    4CHTO   H55 1579   7.749   5.315   0.677  0.1936 -0.4899 -1.2975
    4CHTO    N5 1580   7.549   5.274   0.753 -0.3594 -0.1250  0.1261
    4CHTO   H43 1581   7.484   5.298   0.670 -0.0356 -0.8871 -0.3521
    4CHTO   H44 1582   7.564   5.360   0.817  0.4808 -0.7808  0.8204
    4CHTO   C25 1583   7.756   5.128   0.772 -0.2952 -0.1316 -0.1849
    4CHTO   H53 1584   7.694   5.050   0.819  0.0643  0.2694  0.9602
    4CHTO   O17 1585   7.862   5.068   0.687 -0.3743 -0.0063  0.1395
    4CHTO   C32 1586   7.828   5.004   0.563  0.5959 -0.3972 -0.2340
    4CHTO   H60 1587   7.758   4.923   0.581 -0.0513  0.4092  0.9910
    4CHTO   C36 1588   7.957   4.962   0.498 -0.1912  0.0945  0.0797
    4CHTO   O25 1589   8.004   4.846   0.561  0.5751 -0.2058 -0.0044
    4CHTO   H40 1590   7.962   4.772   0.521 -1.6483  0.9060  0.1860
    4CHTO   O15 1591   7.816   5.201   0.878 -0.3600  0.3231 -0.1015
    4CHTO   C19 1592   7.881   5.175   1.010  0.0097  0.0342 -0.5009
    4CHTO   H47 1593   7.812   5.110   1.066 -0.0855  1.5588  1.2166
    4CHTO   C20 1594   8.015   5.102   1.003  0.7530 -0.8943 -0.2668
    4CHTO   H48 1595   8.090   5.158   0.946 -0.1093 -0.2541 -0.7832
    4CHTO   O19 1596   7.995   4.976   0.940  0.7058 -0.5819  0.0165
    4CHTO   H35 1597   7.968   4.982   0.850  0.8088 -0.1064  0.0173
    4CHTO   C21 1598   8.077   5.085   1.148  0.1011  0.1616  0.4148
    4CHTO   H49 1599   8.028   5.000   1.196 -2.1647  0.4121 -1.3604
    4CHTO    N4 1600   8.215   5.038   1.145 -0.2010 -0.4111  0.0587
    4CHTO   H41 1601   8.280   5.090   1.076  0.4147  1.1446  1.7783
    4CHTO   H42 1602   8.257   5.046   1.245  1.2130 -0.3252 -0.5282
    4CHTO   C22 1603   8.067   5.214   1.231 -0.9628 -0.4198  0.8459
    4CHTO   H50 1604   8.145   5.281   1.196 -0.9087 -1.5969 -1.4144
    4CHTO   O14 1605   7.932   5.262   1.219 -0.3618  0.1829 -0.4002
    4CHTO   C23 1606   7.889   5.302   1.090  0.5360 -0.3125  0.4475
    4CHTO   H51 1607   7.963   5.371   1.046  2.8722 -2.7013  0.5107
    4CHTO   C34 1608   7.753   5.383   1.092 -0.0995 -0.5382  0.5404
    4CHTO   O23 1609   7.666   5.321   1.181 -0.1942 -0.3560  0.7646
    4CHTO   H38 1610   7.587   5.371   1.190 -0.2189 -0.1729 -0.3980
    4CHTO   O16 1611   8.090   5.200   1.373  0.1003 -0.1415 -0.3236
    4CHTO   C24 1612   8.073   5.343   1.458 -0.0621 -0.3235 -0.2999
    4CHTO   H52 1613   8.030   5.423   1.398 -0.5106 -0.0855  0.3345
    4CHTO   C26 1614   8.205   5.386   1.524  0.0627 -0.6815  0.5133
    4CHTO   H54 1615   8.235   5.303   1.592 -1.6092 -1.7682 -0.0347
    4CHTO   O20 1616   8.307   5.389   1.418  0.5267 -0.6668 -0.2345
    4CHTO   H36 1617   8.299   5.443   1.342  0.3034 -0.7841 -0.2941
    4CHTO   C30 1618   8.192   5.519   1.611 -0.5251 -0.0940 -0.6459
    4CHTO   H58 1619   8.172   5.609   1.551  2.2566  0.4626 -0.8297
    4CHTO    N6 1620   8.321   5.550   1.677 -0.4212 -0.3042 -0.2055
    4CHTO   H45 1621   8.360   5.476   1.745 -2.4656 -0.1602  1.1618
    4CHTO   H46 1622   8.320   5.645   1.730  0.6024 -0.3250 -0.1515
    4CHTO   C33 1623   8.078   5.487   1.712 -0.3320 -0.9412 -0.5809
    4CHTO   H61 1624   8.112   5.412   1.785 -0.6121  0.5195  1.0938
    4CHTO   O18 1625   7.964   5.441   1.648  0.5131  0.2868  0.1167
    4CHTO   C28 1626   7.974   5.318   1.580 -0.3722 -0.5303 -0.3319
    4CHTO   H56 1627   8.009   5.240   1.646  0.5247  0.7599  0.7356
    4CHTO   C35 1628   7.840   5.264   1.531 -0.3539  0.1804  0.3279
    4CHTO   O24 1629   7.780   5.354   1.443 -0.2792 -0.1403  0.1545
    4CHTO   H39 1630   7.700   5.312   1.419  0.4758 -0.8665 -1.1671
    4CHTO    O9 1631   8.045   5.607   1.790 -0.1410  0.0638 -0.0371
    4CHTO   C13 1632   7.929   5.587   1.896 -0.4693  0.0553  0.4921
    4CHTO   H26 1633   7.949   5.493   1.951  0.0439 -0.8845 -1.2591
    4CHTO   C11 1634   7.785   5.586   1.822 -0.3308  0.7503 -0.1579
    4CHTO   H24 1635   7.751   5.481   1.819  0.9093  0.2692  2.0425
    4CHTO    O8 1636   7.791   5.654   1.695  0.3514 -0.1534 -0.1829
    4CHTO    H3 1637   7.860   5.628   1.637 -0.4073 -0.5533 -0.9238
    4CHTO    C9 1638   7.681   5.654   1.920 -0.4065 -0.1869  0.4239
    4CHTO   H22 1639   7.694   5.607   2.018  2.4075 -1.9404 -0.7184
    4CHTO    N2 1640   7.538   5.645   1.880  0.2156 -0.3912  0.6230
    4CHTO   H10 1641   7.507   5.571   1.807 -1.3735 -1.0831  1.9808
    4CHTO   H11 1642   7.517   5.742   1.838  0.6213 -0.6142 -0.1047
    4CHTO    C7 1643   7.730   5.803   1.933 -0.0504  0.7326 -0.4077
    4CHTO   H20 1644   7.684   5.823   2.032 -0.4332 -1.1627 -0.1974
    4CHTO    O4 1645   7.876   5.817   1.942  0.0626 -0.1540  0.2093
    4CHTO   C14 1646   7.940   5.702   2.002  0.5364  0.6535  0.5393
    4CHTO   H27 1647   7.892   5.677   2.099  0.5941 -0.2253  0.3499
    4CHTO   C18 1648   8.088   5.736   2.036 -0.3665 -1.4309  0.3700
    4CHTO   O13 1649   8.096   5.848   2.131  0.1198 -0.3542 -0.3116
    4CHTO    H7 1650   8.080   5.927   2.082  0.2989 -0.2542 -0.2101
    4CHTO    O2 1651   7.669   5.905   1.791  0.0346 -0.6308 -0.3356
    4CHTO    C1 1652   7.661   6.050   1.809 -0.2105  0.2412 -0.4098
    4CHTO   H14 1653   7.619   6.101   1.719 -0.1391  3.1827  1.1955
    4CHTO    C2 1654   7.804   6.121   1.838 -0.1054 -0.2993 -0.7847
    4CHTO   H15 1655   7.862   6.052   1.901 -0.2223  0.0195 -0.3301
    4CHTO    O6 1656   7.872   6.139   1.720  0.2383 -0.6685 -0.2225
    4CHTO    H1 1657   7.963   6.151   1.739 -0.4255  1.7334  1.6120
    4CHTO    C3 1658   7.785   6.272   1.910  0.3205 -0.3542 -0.7537
    4CHTO   H16 1659   7.755   6.348   1.837 -1.0252 -1.7878 -1.6967
    4CHTO    N1 1660   7.922   6.326   1.968  0.5022 -0.4093  0.2501
    4CHTO    H8 1661   7.962   6.256   2.039 -0.5868 -1.5330 -0.2198
    4CHTO    H9 1662   7.991   6.359   1.892  0.1743 -1.2711 -0.4296
    4CHTO    C4 1663   7.671   6.267   2.017 -0.2065  0.0276 -0.0373
    4CHTO   H17 1664   7.708   6.212   2.103  1.2647 -0.8079 -1.1828
    4CHTO    O1 1665   7.550   6.209   1.965  0.1683 -0.1041 -0.0117
    4CHTO    C5 1666   7.558   6.075   1.920  0.5074  0.1330 -0.0862
    4CHTO   H18 1667   7.601   6.025   2.007  0.2063  0.5337  0.2946
    4CHTO   C16 1668   7.414   6.023   1.900  0.2052 -0.7378  0.5320
    4CHTO   O11 1669   7.334   6.037   2.010  0.4285 -0.4787 -0.2976
    4CHTO    H5 1670   7.242   6.022   1.999  0.3808 -0.5983  0.2569
    4CHTO    O3 1671   7.624   6.399   2.049 -0.1113  0.0948  0.6681
    4CHTO    C6 1672   7.591   6.420   2.192 -0.3032  0.2463  0.6490
    4CHTO   H19 1673   7.589   6.331   2.257 -0.4156  0.9093  1.5685
    4CHTO    C8 1674   7.702   6.518   2.245 -0.1172  0.0254  0.0305
    4CHTO   H21 1675   7.715   6.596   2.171 -2.5948  0.5109  0.0540
    4CHTO    O7 1676   7.825   6.439   2.255  0.1167 -0.0398  0.7637
    4CHTO    H2 1677   7.891   6.502   2.277  1.2094 -0.9653  0.1363
    4CHTO   C12 1678   7.660   6.574   2.384  0.5716  0.0643  0.4063
    4CHTO   H25 1679   7.664   6.490   2.457  4.2232 -1.4859 -1.4334
    4CHTO    N3 1680   7.762   6.680   2.425  0.2156 -0.3798  0.5535
    4CHTO   H12 1681   7.725   6.730   2.514 -0.7358 -0.0079 -0.0513
    4CHTO   H13 1682   7.861   6.638   2.442  0.0369 -1.1188 -0.1778
    4CHTO   C15 1683   7.509   6.625   2.382 -0.3376  0.0830 -0.2834
    4CHTO   H28 1684   7.493   6.711   2.316 -1.4594 -0.9248 -1.3485
    4CHTO   O10 1685   7.437   6.656   2.520 -0.2531  0.1055 -0.1711
    4CHTO    H4 1686   7.445   6.591   2.587  0.9843  2.0497  1.6455
    4CHTO    O5 1687   7.418   6.526   2.339  0.8190 -0.0391  0.3886
    4CHTO   C10 1688   7.441   6.481   2.204  0.0284  0.3225  0.2727
    4CHTO   H23 1689   7.445   6.557   2.126  1.1766 -0.4086 -0.4000
    4CHTO   C17 1690   7.332   6.381   2.161 -0.1187  0.3121 -0.1997
    4CHTO   O12 1691   7.342   6.260   2.237 -0.4972 -0.0842 -0.4668
    4CHTO    H6 1692   7.328   6.264   2.330  2.2532  0.1823 -0.0146
    5CHTO  H203 1693   8.031   3.018   1.615 -0.2463 -0.8410  0.3306
    5CHTO   O82 1694   8.094   2.952   1.636  0.5031 -0.1334  0.3069
    5CHTO  C123 1695   8.057   2.892   1.759 -0.0896 -0.7840 -0.7105
    5CHTO  H227 1696   8.142   2.831   1.791  0.1475 -1.4456 -2.5420
    5CHTO   O77 1697   8.048   3.002   1.856 -0.3223 -0.6254  0.1315
    5CHTO  C118 1698   8.016   2.968   1.994  0.6919 -0.7236 -0.1996
    5CHTO  H222 1699   8.095   2.909   2.042  3.1222  2.6442  0.1089
    5CHTO  C125 1700   8.009   3.100   2.081 -0.0480  0.1205  0.0221
    5CHTO   O84 1701   8.138   3.160   2.079 -0.0049  0.0097  0.2077
    5CHTO  H205 1702   8.193   3.128   2.149  0.3588  1.3530  0.5605
    5CHTO  C114 1703   7.880   2.897   1.998 -0.1617 -0.5927 -0.0268
    5CHTO  H218 1704   7.804   2.973   1.977  1.3143  0.9234  0.0165
    5CHTO  C116 1705   7.863   2.785   1.892 -0.8702 -0.7508 -1.1695
    5CHTO  H220 1706   7.913   2.696   1.936 -3.2250 -0.8991  1.3287
    5CHTO   O79 1707   7.725   2.758   1.876  0.1872  0.0653 -0.6165
    5CHTO  H201 1708   7.711   2.697   1.806  0.3887 -0.3443 -0.3058
    5CHTO  C120 1709   7.915   2.827   1.747  0.8682  0.4121  0.5041
    5CHTO  H224 1710   7.850   2.909   1.712  1.0860  0.7946  0.9910
    5CHTO   N21 1711   7.902   2.714   1.652 -0.6466 -0.6680  0.4840
    5CHTO  H211 1712   7.880   2.741   1.549  0.7605 -1.1272  0.0487
    5CHTO  H212 1713   7.991   2.653   1.659 -1.1303 -1.3517  0.7283
    5CHTO   O75 1714   7.855   2.834   2.126  0.2627 -0.6587 -0.0844
    5CHTO  C112 1715   7.695   2.867   2.178  0.5214  0.0598 -0.5385
    5CHTO  H216 1716   7.631   2.807   2.111  0.8317 -1.2642  0.3281
    5CHTO   O73 1717   7.665   3.004   2.171  0.2175  0.1820 -0.1213
    5CHTO  C113 1718   7.532   3.041   2.211 -0.1385 -0.0923  0.2002
    5CHTO  H217 1719   7.455   2.983   2.156 -1.7286  1.8794  0.3247
    5CHTO  C124 1720   7.520   3.193   2.181 -0.2890  0.3271 -0.6397
    5CHTO   O83 1721   7.387   3.239   2.180 -0.1437  0.0326  0.4519
    5CHTO  H204 1722   7.373   3.301   2.250  2.0610  0.3974  0.5979
    5CHTO  C109 1723   7.516   3.012   2.360  0.5985 -1.1099  0.3702
    5CHTO  H213 1724   7.581   3.082   2.415  0.3503 -0.0478 -0.6857
    5CHTO  C110 1725   7.536   2.866   2.391 -0.5137 -0.1708  0.3969
    5CHTO  H214 1726   7.461   2.797   2.354  1.2258 -0.3571 -2.9134
    5CHTO   O78 1727   7.535   2.852   2.532 -0.1806 -0.2330 -0.5821
    5CHTO  H200 1728   7.455   2.880   2.572  0.5661  0.4828  0.4694
    5CHTO  C111 1729   7.670   2.806   2.329  1.0381  0.5466  0.0408
    5CHTO  H215 1730   7.753   2.851   2.386  1.1997  1.0464 -0.5820
    5CHTO   N19 1731   7.683   2.663   2.338 -0.3578 -0.0429  0.1662
    5CHTO  H207 1732   7.601   2.611   2.292 -0.5100  1.4330 -1.2806
    5CHTO  H208 1733   7.784   2.636   2.313  0.2743  1.4712  0.9554
    5CHTO   O74 1734   7.374   3.050   2.395 -0.6137 -0.5600 -0.3109
    5CHTO  C115 1735   7.347   3.155   2.515 -1.0178 -0.1659 -0.0190
    5CHTO  H219 1736   7.386   3.119   2.610  2.4283  2.0109 -0.4900
    5CHTO   O76 1737   7.414   3.278   2.492  0.1030 -0.2665 -0.5015
    5CHTO  C122 1738   7.401   3.394   2.577  0.4202 -0.1383  0.2469
    5CHTO  H226 1739   7.453   3.479   2.532  2.8746 -0.2673  2.7457
    5CHTO  C126 1740   7.476   3.362   2.714 -0.1851  0.0268  0.3541
    5CHTO   O85 1741   7.614   3.338   2.693 -0.0975  0.2072 -0.0680
    5CHTO  H206 1742   7.648   3.274   2.753  0.6237 -2.3578 -3.0504
    5CHTO  C121 1743   7.253   3.418   2.607 -0.1735  0.3483 -0.7475
    5CHTO  H225 1744   7.245   3.492   2.690 -0.4678 -0.4747 -0.0292
    5CHTO   O81 1745   7.193   3.505   2.506 -0.0612  0.0755  0.2189
    5CHTO  H202 1746   7.243   3.583   2.494 -1.1205  0.5649 -1.1772
    5CHTO  C119 1747   7.163   3.286   2.629 -0.2936  0.0145 -0.3408
    5CHTO  H223 1748   7.200   3.253   2.726 -0.3445  0.1067 -0.2898
    5CHTO  C117 1749   7.196   3.173   2.520 -0.4696  1.4527  0.3383
    5CHTO  H221 1750   7.180   3.187   2.413  1.0302 -2.5287 -0.4857
    5CHTO   N20 1751   7.126   3.045   2.554 -0.1575 -0.3253 -0.3185
    5CHTO  H209 1752   7.053   3.016   2.481 -0.2318  0.4334 -0.5542
    5CHTO  H210 1753   7.202   2.969   2.569  0.2743 -0.1085 -1.3827
    5CHTO   O80 1754   7.011   3.301   2.660 -0.2669 -0.1414  0.6289
    5CHTO  C103 1755   6.907   3.366   2.550  0.6177  0.4283 -0.2254
    5CHTO  H190 1756   6.936   3.471   2.540  1.0488  0.3622  0.3177
    5CHTO  C101 1757   6.888   3.289   2.412  0.3767 -0.4678 -0.3491
    5CHTO  H188 1758   6.876   3.181   2.422 -1.2942 -0.1850  1.0135
    5CHTO   O68 1759   7.006   3.307   2.331 -0.3852  0.5743  0.3040
    5CHTO  H168 1760   7.004   3.395   2.299 -0.9752  0.2402 -0.5905
    5CHTO   C99 1761   6.755   3.337   2.336  0.4948 -0.4764 -0.5287
    5CHTO  H186 1762   6.753   3.444   2.305 -1.6033 -0.8826 -1.9136
    5CHTO   N17 1763   6.720   3.253   2.211  0.1351  0.2989  0.0492
    5CHTO  H174 1764   6.613   3.252   2.199  0.1142 -1.2001  0.3082
    5CHTO  H175 1765   6.762   3.154   2.210 -1.0309 -0.1977  0.2001
    5CHTO   C97 1766   6.634   3.320   2.430 -0.1018 -0.7375 -0.2594
    5CHTO  H184 1767   6.623   3.211   2.444 -1.1826 -0.6013  0.0002
    5CHTO   O64 1768   6.655   3.392   2.558  0.0897 -0.0232 -0.0724
    5CHTO  C104 1769   6.781   3.369   2.626  0.3063 -0.4542  0.3390
    5CHTO  H191 1770   6.765   3.277   2.682 -1.0534  1.3996  3.0898
    5CHTO  C108 1771   6.796   3.479   2.740 -0.5675  0.3591  0.2392
    5CHTO   O71 1772   6.696   3.448   2.840  0.0983  0.0424 -0.1723
    5CHTO  H171 1773   6.615   3.494   2.829 -0.7520 -1.2334  0.6849
    5CHTO   O62 1774   6.511   3.384   2.388 -0.0184 -0.1482  0.2565
    5CHTO   C91 1775   6.387   3.357   2.457  0.6080  0.2218  0.3753
    5CHTO  H178 1776   6.412   3.318   2.555 -3.5280  0.3578  1.5911
    5CHTO   C92 1777   6.323   3.237   2.378  0.0996 -0.3069 -0.1269
    5CHTO  H179 1778   6.405   3.173   2.341  1.6659  1.6732 -0.1987
    5CHTO   O66 1779   6.243   3.165   2.476 -0.1234  0.0133  0.8338
    5CHTO  H166 1780   6.303   3.134   2.542 -0.4486 -0.7337  0.7914
    5CHTO   C93 1781   6.219   3.274   2.255  0.5350 -0.5337  0.6188
    5CHTO  H180 1782   6.173   3.178   2.228  0.9898 -0.6847  0.3661
    5CHTO   N16 1783   6.281   3.322   2.129 -0.3249 -0.4827  0.8792
    5CHTO  H172 1784   6.204   3.355   2.061  1.0581  0.6787 -0.1595
    5CHTO  H173 1785   6.343   3.411   2.135 -1.9524  0.6652  1.0680
    5CHTO   C94 1786   6.102   3.355   2.321  0.6700 -1.1356 -0.6966
    5CHTO  H181 1787   6.058   3.425   2.250 -0.7349 -1.3823 -0.1057
    5CHTO   O61 1788   6.137   3.437   2.438  0.0622  0.0680 -0.3466
    5CHTO   C95 1789   6.277   3.474   2.455 -0.3824 -0.2010  0.2456
    5CHTO  H182 1790   6.304   3.545   2.377 -0.7216 -1.4357 -1.0368
    5CHTO  C106 1791   6.288   3.552   2.589  0.1151 -0.4795 -0.3116
    5CHTO   O69 1792   6.215   3.678   2.597  0.0713 -0.0718  0.5643
    5CHTO  H169 1793   6.280   3.745   2.584  1.2388 -0.8087  2.3255
    5CHTO   O63 1794   5.981   3.269   2.355 -0.1942 -1.4131 -0.0436
    5CHTO   C96 1795   5.906   3.193   2.227 -0.9066 -0.2170  0.0996
    5CHTO  H183 1796   5.982   3.189   2.150  1.1434  1.6139  1.9629
    5CHTO   C98 1797   5.785   3.268   2.172 -0.1572  0.3876  0.4237
    5CHTO  H185 1798   5.721   3.306   2.253 -0.9129  1.9550 -0.8829
    5CHTO   O67 1799   5.839   3.394   2.118 -0.0497 -0.3248  0.1520
    5CHTO  H167 1800   5.781   3.463   2.144  0.7503  0.6725 -0.6740
    5CHTO  C102 1801   5.708   3.180   2.063 -0.3044 -0.2339  0.1371
    5CHTO  H189 1802   5.773   3.167   1.975 -0.8042 -1.1885 -0.0978
    5CHTO   N18 1803   5.579   3.240   2.014 -0.5153 -0.1065  0.1618
    5CHTO  H176 1804   5.513   3.252   2.099 -1.2883 -0.5285 -0.3753
    5CHTO  H177 1805   5.528   3.174   1.946  0.8326 -1.7544  0.7173
    5CHTO  C105 1806   5.680   3.034   2.110  0.5919 -0.1816  1.2481
    5CHTO  H192 1807   5.605   3.041   2.188 -0.3085 -0.8363  0.4496
    5CHTO   O65 1808   5.801   2.976   2.157 -0.0508 -0.4313  0.2625
    5CHTO  C100 1809   5.860   3.043   2.271 -0.9648  0.4691 -0.5012
    5CHTO  H187 1810   5.780   3.041   2.346 -0.6864 -2.2656 -0.2359
    5CHTO  C107 1811   5.981   2.965   2.334 -0.5157  0.1179  0.1103
    5CHTO   O70 1812   6.090   2.934   2.245 -0.0641  0.1974 -0.3648
    5CHTO  H170 1813   6.164   2.978   2.281 -1.7021  2.0275  0.8461
    5CHTO   O57 1814   5.640   2.953   2.001 -0.1952  0.1572  0.2481
    5CHTO   C85 1815   5.589   2.820   1.996  0.1269  0.5143 -0.9139
    5CHTO  H157 1816   5.502   2.832   2.064 -0.7896  0.3081 -2.0294
    5CHTO   C83 1817   5.683   2.714   2.066  0.4867  0.1816 -0.4149
    5CHTO  H155 1818   5.696   2.750   2.168  0.6324  0.5821 -0.5764
    5CHTO   O56 1819   5.815   2.724   2.007  0.0894 -0.1599  0.1445
    5CHTO  H135 1820   5.881   2.686   2.061 -1.6781 -1.0993  1.7054
    5CHTO   C81 1821   5.621   2.569   2.069 -0.0757  0.0213  0.3603
    5CHTO  H153 1822   5.529   2.574   2.128  0.0636  0.2963  0.5528
    5CHTO   N14 1823   5.706   2.469   2.139 -0.3088 -0.6347  0.2690
    5CHTO  H141 1824   5.720   2.508   2.237 -0.4599  0.3582 -0.0928
    5CHTO  H142 1825   5.801   2.479   2.091 -1.1569 -0.4813 -1.4565
    5CHTO   C79 1826   5.584   2.527   1.921 -0.1073 -0.4647  0.4343
    5CHTO  H151 1827   5.521   2.439   1.934  0.2687 -0.9540 -0.9350
    5CHTO   O52 1828   5.500   2.633   1.850 -0.0953 -0.0713 -0.5075
    5CHTO   C86 1829   5.548   2.770   1.857 -0.3691 -0.1633  0.0846
    5CHTO  H158 1830   5.632   2.780   1.785  0.1360  2.4593  0.9771
    5CHTO   C90 1831   5.435   2.858   1.799  0.5563  0.3191  0.9069
    5CHTO   O60 1832   5.465   2.992   1.776 -0.7960 -0.6062  0.3469
    5CHTO  H138 1833   5.558   3.003   1.769 -0.9774 -0.3064 -2.1856
    5CHTO   O50 1834   5.703   2.497   1.835  0.4953  0.1528 -0.9740
    5CHTO   C73 1835   5.683   2.441   1.707 -0.2032  0.0316  0.2577
    5CHTO  H145 1836   5.595   2.487   1.662  1.1704  2.8709  0.3780
    5CHTO   C74 1837   5.664   2.288   1.710  0.1591 -0.2033  0.2857
    5CHTO  H146 1838   5.562   2.275   1.751  0.6272  3.8388  2.9715
    5CHTO   O54 1839   5.658   2.228   1.576 -0.2203 -0.1062  0.1046
    5CHTO  H133 1840   5.569   2.233   1.546  0.3494 -0.3458 -1.7428
    5CHTO   C75 1841   5.776   2.228   1.807 -0.3254  0.0018  0.2717
    5CHTO  H147 1842   5.769   2.277   1.906 -4.2104  2.0252 -0.9094
    5CHTO   N13 1843   5.773   2.080   1.805  0.0374 -0.0044 -0.4144
    5CHTO  H139 1844   5.687   2.051   1.864  0.6477 -1.9481 -0.4265
    5CHTO  H140 1845   5.762   2.043   1.704 -0.4833 -0.5924 -0.1474
    5CHTO   C76 1846   5.921   2.285   1.746  0.0572 -0.0394  0.6106
    5CHTO  H148 1847   5.950   2.224   1.660  0.9662  0.5374  0.5108
    5CHTO   O49 1848   5.924   2.420   1.686 -0.4440 -0.2487  0.5569
    5CHTO   C77 1849   5.810   2.475   1.625  0.3537 -0.2225 -0.3035
    5CHTO  H149 1850   5.793   2.426   1.529 -1.5249  0.8269 -0.5381
    5CHTO   C88 1851   5.834   2.627   1.605  0.8399  0.2107  0.2865
    5CHTO   O58 1852   5.735   2.688   1.502  0.1224  0.5759  0.5296
    5CHTO  H136 1853   5.778   2.678   1.419  1.5360  0.3209  1.2940
    5CHTO   O51 1854   6.029   2.289   1.881  0.1557 -0.6696  0.7544
    5CHTO   C78 1855   6.165   2.392   1.867 -0.3982  0.0104 -0.1939
    5CHTO  H150 1856   6.142   2.479   1.802 -0.0410 -0.1297 -0.5119
    5CHTO   C80 1857   6.285   2.312   1.804  0.4655  0.4120  0.4708
    5CHTO  H152 1858   6.278   2.209   1.843  1.7209  0.1530  0.0523
    5CHTO   O55 1859   6.247   2.285   1.667  0.4498 -0.0953  0.3151
    5CHTO  H134 1860   6.319   2.248   1.620  1.5719  1.0303  1.1136
    5CHTO   C84 1861   6.424   2.377   1.809 -0.2766 -0.2337 -0.5355
    5CHTO  H156 1862   6.425   2.463   1.742 -1.2942 -0.0606 -0.3250
    5CHTO   N15 1863   6.536   2.280   1.775 -0.5358 -0.0791  0.1735
    5CHTO  H143 1864   6.565   2.291   1.672 -1.1459  1.3227  0.1419
    5CHTO  H144 1865   6.624   2.303   1.832  0.2686 -1.6448 -0.4143
    5CHTO   C87 1866   6.446   2.435   1.951 -0.7070 -0.3024  0.3541
    5CHTO  H159 1867   6.447   2.353   2.022  1.7505 -0.7255 -0.1521
    5CHTO   O53 1868   6.321   2.519   1.985  0.6604 -0.3833  0.3425
    5CHTO   C82 1869   6.198   2.450   2.007 -0.5950  0.5275 -1.1563
    5CHTO  H154 1870   6.210   2.375   2.085 -1.2335  1.4960 -0.1094
    5CHTO   C89 1871   6.096   2.554   2.055  0.2639  0.4324  0.6204
    5CHTO   O59 1872   6.127   2.594   2.190  0.1106 -0.7066  0.2294
    5CHTO  H137 1873   6.135   2.687   2.187  1.2950 -0.7440  1.5001
    5CHTO   O45 1874   6.595   2.540   1.959 -0.3197  0.4437  0.6681
    5CHTO   C67 1875   6.604   2.605   2.088  0.5744 -0.1694 -0.2883
    5CHTO  H124 1876   6.503   2.634   2.119  0.9570 -0.4995  1.3216
    5CHTO   C65 1877   6.657   2.504   2.194  0.0210  0.2413  0.3438
    5CHTO  H122 1878   6.691   2.420   2.133 -0.3997 -0.3457  0.9043
    5CHTO   O44 1879   6.546   2.448   2.262 -0.4184  0.1949 -0.4786
    5CHTO  H102 1880   6.568   2.390   2.332 -3.0091 -0.7551 -0.3907
    5CHTO   C63 1881   6.776   2.564   2.275  0.2710  0.3458  0.2967
    5CHTO  H120 1882   6.858   2.572   2.203  0.4292  1.4027  0.5898
    5CHTO   N11 1883   6.834   2.470   2.376  0.0175  0.0835 -0.2868
    5CHTO  H108 1884   6.930   2.443   2.337 -0.2304 -0.9334 -0.2035
    5CHTO  H109 1885   6.838   2.510   2.475 -3.1094  0.5534 -0.2867
    5CHTO   C61 1886   6.746   2.716   2.314 -0.1532 -0.1513  0.4873
    5CHTO  H118 1887   6.837   2.758   2.358 -0.2472  1.0078 -0.4139
    5CHTO   O40 1888   6.707   2.804   2.201 -0.1417 -0.2896 -0.2004
    5CHTO   C68 1889   6.688   2.745   2.072  0.2890  0.3569 -0.7636
    5CHTO  H125 1890   6.789   2.727   2.029  1.1244  0.4294  1.1041
    5CHTO   C72 1891   6.615   2.846   1.987  0.3407  0.0140 -0.0028
    5CHTO   O48 1892   6.676   2.972   1.965  0.0832 -0.2117  0.4754
    5CHTO  H105 1893   6.743   2.969   1.900 -0.8011 -0.8816 -0.4248
    5CHTO   O38 1894   6.642   2.709   2.409 -0.0863 -0.2466  0.2724
    5CHTO   C55 1895   6.561   2.819   2.461  0.2959 -0.7396  0.2826
    5CHTO  H112 1896   6.545   2.887   2.376 -1.8963  0.0280  1.2756
    5CHTO   C56 1897   6.643   2.886   2.583  0.6712 -0.4254 -0.6262
    5CHTO  H113 1898   6.674   2.804   2.649  0.5161  0.7292  0.9040
    5CHTO   O42 1899   6.766   2.952   2.544 -0.0086 -0.4818  0.2596
    5CHTO  H100 1900   6.743   3.026   2.491  1.6711 -1.1175 -1.4004
    5CHTO   C57 1901   6.554   2.987   2.680 -0.3187  0.1284 -0.2591
    5CHTO  H114 1902   6.551   3.081   2.626  0.5457  0.3027 -0.0156
    5CHTO   N10 1903   6.624   3.020   2.811  0.2564 -0.3829 -0.1641
    5CHTO  H106 1904   6.729   3.041   2.792  0.0661 -0.8071 -1.7951
    5CHTO  H107 1905   6.583   3.104   2.866  0.9349  0.2595 -0.6188
    5CHTO   C58 1906   6.412   2.929   2.696 -0.3707  0.7234  0.6405
    5CHTO  H115 1907   6.418   2.835   2.755 -2.1493  0.1106 -0.1247
    5CHTO   O37 1908   6.364   2.892   2.560  0.4277  0.9730  0.1137
    5CHTO   C59 1909   6.424   2.771   2.515  0.4761 -0.0150  0.6227
    5CHTO  H116 1910   6.433   2.690   2.587 -0.0591 -1.2077 -0.6195
    5CHTO   C70 1911   6.334   2.721   2.401 -0.1569 -0.8018  0.0103
    5CHTO   O46 1912   6.197   2.712   2.436  0.0702 -0.0174 -0.1362
    5CHTO  H103 1913   6.160   2.634   2.399 -0.0338 -0.8558  1.6896
    5CHTO   O39 1914   6.306   3.023   2.790  0.2916 -0.7044 -0.2418
    5CHTO   C60 1915   6.167   3.001   2.761  0.2871 -0.4408 -0.2916
    5CHTO  H117 1916   6.167   3.021   2.654  0.8614  1.8132  0.0974
    5CHTO   C62 1917   6.092   2.864   2.775  0.4690 -0.0539  0.0164
    5CHTO  H119 1918   6.150   2.797   2.708  0.1148 -0.3759  0.0279
    5CHTO   O43 1919   6.086   2.816   2.913  0.1396  0.2783 -0.6523
    5CHTO  H101 1920   6.012   2.842   2.964  0.1806  0.2996 -0.6033
    5CHTO   C66 1921   5.951   2.874   2.698  0.4626  0.0884 -0.5135
    5CHTO  H123 1922   5.964   2.940   2.613  1.3206 -0.8674 -1.1235
    5CHTO   N12 1923   5.898   2.739   2.650  0.1690  0.5143  0.1627
    5CHTO  H110 1924   5.898   2.666   2.729  0.2329  0.0697 -0.2506
    5CHTO  H111 1925   5.959   2.703   2.569 -0.4805 -0.6404  0.1794
    5CHTO   C69 1926   5.851   2.945   2.797 -0.4341  0.3068  0.5229
    5CHTO  H126 1927   5.821   2.889   2.887  0.4169 -0.3604  0.4040
    5CHTO   O41 1928   5.919   3.093   2.829  0.6399 -0.0885  0.4278
    5CHTO   C64 1929   6.078   3.111   2.833 -0.4140  0.6046 -0.0762
    5CHTO  H121 1930   6.107   3.114   2.940  0.2066  0.6971 -0.2425
    5CHTO   C71 1931   6.118   3.244   2.765  0.1722 -0.1918  0.1318
    5CHTO   O47 1932   6.070   3.350   2.838  0.4931  0.1213 -0.5626
    5CHTO  H104 1933   6.136   3.411   2.866  1.7828 -1.2616 -0.5078
    5CHTO   O34 1934   5.709   2.996   2.725  0.4430  0.3799  0.0206
    5CHTO   C49 1935   5.618   3.120   2.730  0.2519  0.0351 -0.0296
    5CHTO   H91 1936   5.514   3.088   2.723 -0.2242  1.8789 -1.8258
    5CHTO   C47 1937   5.640   3.202   2.601  0.3137  0.2687 -0.2009
    5CHTO   H89 1938   5.583   3.149   2.522  0.6192  0.3257 -0.4597
    5CHTO   O33 1939   5.784   3.189   2.567 -0.3953 -0.7683  0.7736
    5CHTO   H70 1940   5.813   3.239   2.493  0.1253 -1.1088  0.7457
    5CHTO   C45 1941   5.596   3.360   2.622  0.0210 -0.1727 -0.5502
    5CHTO   H87 1942   5.684   3.411   2.665  1.0093 -2.5748  0.3692
    5CHTO    N8 1943   5.565   3.424   2.493 -0.7966  0.7447 -0.3449
    5CHTO   H75 1944   5.553   3.531   2.500  0.6595  0.9283 -0.3961
    5CHTO   H76 1945   5.641   3.408   2.417  0.2399  1.5270  0.5197
    5CHTO   C43 1946   5.476   3.368   2.726  0.5467  1.2275 -0.7961
    5CHTO   H85 1947   5.457   3.474   2.743 -0.1916  0.5833  2.6791
    5CHTO   O29 1948   5.515   3.306   2.853 -0.1463  0.5517 -0.5369
    5CHTO   C50 1949   5.628   3.211   2.857  0.3634 -0.6419  0.2310
    5CHTO   H92 1950   5.720   3.271   2.865  0.3941 -0.5465 -0.7834
    5CHTO   C54 1951   5.618   3.135   2.985 -0.3185 -0.0893  0.4430
    5CHTO   O36 1952   5.634   3.216   3.102 -0.0428 -0.2782 -0.2013
    5CHTO   H72 1953   5.550   3.226   3.142 -0.5553 -0.9132 -1.1058
    5CHTO   O27 1954   5.359   3.304   2.680 -0.1433 -0.0967  0.6231
    5CHTO   C37 1955   5.228   3.323   2.726  0.6264 -0.0349  0.0184
    5CHTO   H79 1956   5.222   3.395   2.809  1.3789 -0.6524  0.6125
    5CHTO   C38 1957   5.146   3.391   2.609  0.0108 -0.2218  0.0536
    5CHTO   H80 1958   5.162   3.331   2.518 -0.1664  0.0285 -0.1454
    5CHTO   O31 1959   5.208   3.524   2.590 -0.4607 -0.3844 -0.0627
    5CHTO   H68 1960   5.162   3.561   2.518 -1.1412 -0.2845  0.4215
    5CHTO   C39 1961   4.992   3.392   2.642 -0.1802  0.1017 -0.8730
    5CHTO   H81 1962   4.958   3.462   2.718 -1.0101  0.7596 -1.8384
    5CHTO    N7 1963   4.906   3.431   2.522  0.1718  0.0342  0.0078
    5CHTO   H73 1964   4.803   3.407   2.541  0.3923 -0.2592  0.8336
    5CHTO   H74 1965   4.944   3.370   2.441 -0.6638  1.8553 -1.8191
    5CHTO   C40 1966   4.938   3.245   2.691 -0.5212 -0.6175 -0.3169
    5CHTO   H82 1967   4.932   3.179   2.604 -0.9168  1.2348 -1.7223
    5CHTO   O26 1968   5.022   3.195   2.795 -1.2223  0.4065 -0.2093
    5CHTO   C41 1969   5.165   3.184   2.768  0.3576 -0.1371  0.1578
    5CHTO   H83 1970   5.175   3.108   2.690 -0.1276  1.3720 -1.4256
    5CHTO   C52 1971   5.223   3.123   2.888 -0.1383  0.0188  0.0271
    5CHTO   O35 1972   5.182   2.992   2.918  0.9429 -0.1618 -0.2132
    5CHTO   H71 1973   5.094   3.006   2.949  0.5331  2.0644 -2.1983
    5CHTO   O28 1974   4.798   3.243   2.735  0.5451 -0.6748  0.3394
    5CHTO   C42 1975   4.743   3.229   2.873 -0.2501  0.5068  0.5650
    5CHTO   H84 1976   4.635   3.241   2.864 -0.2358  0.8474  0.8352
    5CHTO   C44 1977   4.790   3.338   2.986 -0.0045  0.8357  0.9659
    5CHTO   H86 1978   4.899   3.338   2.981 -0.0368 -0.1594  0.2035
    5CHTO   O32 1979   4.755   3.471   2.936  0.1083  0.6821 -0.4408
    5CHTO   H69 1980   4.805   3.489   2.859  0.9123 -2.4416 -0.7313
    5CHTO   C48 1981   4.748   3.295   3.124 -0.5731 -0.2860  0.0460
    5CHTO   H90 1982   4.639   3.295   3.128 -0.5594  0.5179  0.5863
    5CHTO    N9 1983   4.793   3.398   3.232  0.5183 -0.6985 -0.1932
    5CHTO   H77 1984   4.758   3.362   3.328 -0.8002 -2.0695 -1.1673
    5CHTO   H78 1985   4.735   3.486   3.211  1.2640  0.1938  1.4322
    5CHTO   C51 1986   4.798   3.144   3.150  0.8316 -0.0183 -0.2836
    5CHTO   H93 1987   4.905   3.150   3.129  0.2653  2.6449 -2.8535
    5CHTO   O30 1988   4.731   3.060   3.060  0.5305  0.3884 -0.0012
    5CHTO   C46 1989   4.769   3.082   2.920 -0.5254  0.3750 -0.0961
    5CHTO   H88 1990   4.877   3.067   2.919 -0.4552  0.8221  0.7157
    5CHTO   C53 1991   4.698   2.976   2.823  0.1139  0.6149  0.2481
    5CHTO   O72 1992   4.774   2.857   2.834  0.8533 -0.1264  0.7511
    5CHTO  H199 1993   4.746   2.807   2.908 -0.0338 -1.0772 -0.2129
    5CHTO   O22 1994   4.766   3.097   3.278 -0.5953 -0.2591 -0.1735
    5CHTO   C31 1995   4.835   2.989   3.345  0.5244 -1.2532  0.5653
    5CHTO   H59 1996   4.763   2.951   3.421 -2.3678  2.1415 -0.3570
    5CHTO   C29 1997   4.878   2.872   3.255  0.0481 -0.5634  0.6404
    5CHTO   H57 1998   4.926   2.924   3.171  0.7862 -2.5933 -0.2261
    5CHTO   O21 1999   4.763   2.802   3.206  0.1716  0.6464  0.1293
    5CHTO   H37 2000   4.743   2.730   3.262 -1.2021  1.9339  1.3596
    5CHTO   C27 2001   4.976   2.769   3.326 -0.4938  0.3404 -0.2217
    5CHTO   H55 2002   4.923   2.716   3.406  3.1324 -1.7167  0.9548
    5CHTO    N5 2003   5.035   2.667   3.243  0.1969  0.0207 -0.8990
    5CHTO   H43 2004   4.986   2.571   3.232  1.2623 -0.6897  0.4370
    5CHTO   H44 2005   5.137   2.678   3.210 -0.2230  0.3908 -2.1105
    5CHTO   C25 2006   5.087   2.855   3.389 -1.1677  0.8595 -0.2838
    5CHTO   H53 2007   5.138   2.902   3.303 -0.7308  0.3260 -0.3222
    5CHTO   O17 2008   5.031   2.941   3.487  0.0691 -0.4250 -0.5441
    5CHTO   C32 2009   4.953   3.045   3.426  0.1215  0.2425 -0.6672
    5CHTO   H60 2010   5.024   3.093   3.359  1.6987 -1.7098 -0.4295
    5CHTO   C36 2011   4.921   3.147   3.537  0.2542 -0.2954  0.5356
    5CHTO   O25 2012   4.795   3.138   3.598  0.3617 -0.4301 -0.1092
    5CHTO   H40 2013   4.765   3.227   3.603  0.0595 -0.5926  0.9913
    5CHTO   O15 2014   5.193   2.744   3.466  0.1486  0.8040  0.8897
    5CHTO   C19 2015   5.337   2.766   3.495 -0.0395  0.6288  0.6449
    5CHTO   H47 2016   5.335   2.869   3.535  0.3106  0.6946  0.4918
    5CHTO   C20 2017   5.393   2.683   3.611 -0.3654 -0.7297 -0.4440
    5CHTO   H48 2018   5.392   2.576   3.585  0.9820 -1.0687  0.7911
    5CHTO   O19 2019   5.319   2.697   3.733  0.7149  0.4741 -0.0534
    5CHTO   H35 2020   5.234   2.658   3.727  1.5512 -1.1228 -2.0117
    5CHTO   C21 2021   5.551   2.717   3.638  0.2582 -0.5389 -0.0519
    5CHTO   H49 2022   5.558   2.822   3.667 -0.3286 -0.3461 -0.6105
    5CHTO    N4 2023   5.609   2.634   3.754 -0.8257 -0.3623  0.8826
    5CHTO   H41 2024   5.545   2.648   3.840 -1.3788  0.1912  0.3828
    5CHTO   H42 2025   5.710   2.668   3.773 -0.5447 -0.0490 -1.0199
    5CHTO   C22 2026   5.625   2.708   3.508  0.0158  0.1748  0.8278
    5CHTO   H50 2027   5.621   2.604   3.478  0.8481  0.1953  0.6259
    5CHTO   O14 2028   5.576   2.801   3.415  0.2719 -0.2979  0.2454
    5CHTO   C23 2029   5.443   2.763   3.373 -0.3197 -0.3160  0.1189
    5CHTO   H51 2030   5.450   2.664   3.327 -1.5136  0.5918 -2.1430
    5CHTO   C34 2031   5.411   2.863   3.254  0.2384  0.7764  0.3239
    5CHTO   O23 2032   5.518   2.865   3.163  0.5421 -0.2819 -0.5953
    5CHTO   H38 2033   5.494   2.802   3.097 -1.6425  1.7923 -1.8668
    5CHTO   O16 2034   5.771   2.749   3.513 -0.1059 -0.3009  0.7576
    5CHTO   C24 2035   5.864   2.656   3.392  0.4609 -0.6276  0.7074
    5CHTO   H52 2036   5.799   2.614   3.315 -1.5732  1.6743  1.1184
    5CHTO   C26 2037   5.931   2.543   3.472 -0.5273  0.4682 -0.7263
    5CHTO   H54 2038   5.988   2.583   3.558 -0.4278 -1.2102  0.0097
    5CHTO   O20 2039   5.827   2.460   3.534 -0.3229 -0.7969 -0.5922
    5CHTO   H36 2040   5.864   2.405   3.600  0.0940 -0.1508 -0.2796
    5CHTO   C30 2041   6.030   2.458   3.382  0.7976 -0.1100 -0.3202
    5CHTO   H58 2042   5.974   2.402   3.306 -1.0950  0.8952  0.2993
    5CHTO    N6 2043   6.121   2.360   3.455 -0.6927 -0.0862 -0.0714
    5CHTO   H45 2044   6.060   2.300   3.520 -0.0849 -1.2285 -0.5551
    5CHTO   H46 2045   6.198   2.418   3.504 -0.8681  0.1705 -0.0964
    5CHTO   C33 2046   6.119   2.554   3.297 -0.4099  0.0701 -0.4795
    5CHTO   H61 2047   6.184   2.602   3.372  0.5131 -1.0524 -0.5507
    5CHTO   O18 2048   6.043   2.652   3.232 -0.1277  0.1471  0.4584
    5CHTO   C28 2049   5.968   2.741   3.315 -0.5263 -0.1175  0.8601
    5CHTO   H56 2050   6.027   2.798   3.388 -0.5629  0.4088  0.4811
    5CHTO   C35 2051   5.893   2.842   3.220  0.1351 -0.1058  0.7352
    5CHTO   O24 2052   5.981   2.934   3.151 -0.1297  0.3996 -0.2892
    5CHTO   H39 2053   5.960   2.940   3.060 -0.6902  0.0874 -0.1822
    5CHTO    O9 2054   6.209   2.484   3.208 -0.0749  0.0001  0.1664
    5CHTO   C13 2055   6.304   2.565   3.111 -0.1416  0.0538  0.0287
    5CHTO   H26 2056   6.244   2.639   3.054  0.1301 -0.1681 -0.5382
    5CHTO   C11 2057   6.387   2.470   3.015 -0.3751  0.7574  0.2038
    5CHTO   H24 2058   6.320   2.410   2.952  1.1717 -1.1288  0.3029
    5CHTO    O8 2059   6.475   2.377   3.082 -0.2944 -0.1264  0.5144
    5CHTO    H3 2060   6.415   2.318   3.123  0.4425 -1.4740 -0.2951
    5CHTO    C9 2061   6.461   2.565   2.918 -0.0500  0.1138  0.4047
    5CHTO   H22 2062   6.380   2.627   2.876  1.0618  1.5063  0.2632
    5CHTO    N2 2063   6.519   2.505   2.797 -0.4272  0.1619 -0.0438
    5CHTO   H10 2064   6.576   2.580   2.744 -0.3647  1.4835  1.8273
    5CHTO   H11 2065   6.445   2.448   2.743  1.3285 -2.6521  0.4251
    5CHTO    C7 2066   6.561   2.656   2.991 -0.4501 -0.4707 -0.9223
    5CHTO   H20 2067   6.585   2.735   2.917  2.8844 -0.3324  0.1908
    5CHTO    O4 2068   6.507   2.726   3.103  0.5515  0.7204 -0.5022
    5CHTO   C14 2069   6.407   2.657   3.191  0.6959  0.3153  0.3027
    5CHTO   H27 2070   6.354   2.737   3.247 -2.3063 -1.2296 -0.2345
    5CHTO   C18 2071   6.497   2.581   3.291 -0.2222 -0.3499  0.0700
    5CHTO   O13 2072   6.434   2.526   3.399  0.5969 -0.6265 -0.2480
    5CHTO    H7 2073   6.396   2.599   3.445  1.6453 -0.3591  0.2123
    5CHTO    O2 2074   6.702   2.591   3.052 -0.5531  0.1499  0.4681
    5CHTO    C1 2075   6.817   2.675   3.015 -0.9961 -0.7049 -0.1653
    5CHTO   H14 2076   6.779   2.776   2.991 -0.5294 -0.2539  0.9692
    5CHTO    C2 2077   6.906   2.623   2.894  0.3539 -0.6636 -0.8514
    5CHTO   H15 2078   6.949   2.525   2.920  1.6133  0.5875  1.9203
    5CHTO    O6 2079   6.827   2.610   2.780 -0.4130  0.3449 -0.0998
    5CHTO    H1 2080   6.884   2.584   2.711  2.4731  0.7619  2.0123
    5CHTO    C3 2081   7.023   2.726   2.883  0.0542  0.6172 -0.2098
    5CHTO   H16 2082   6.979   2.825   2.863  1.9079  0.9349 -2.9235
    5CHTO    N1 2083   7.113   2.708   2.761  0.2482  0.4948  0.0392
    5CHTO    H8 2084   7.182   2.634   2.796 -1.9246 -0.5821  2.1778
    5CHTO    H9 2085   7.167   2.799   2.738  1.5766 -0.4114 -0.4795
    5CHTO    C4 2086   7.093   2.742   3.021 -1.0207  0.0632  0.4309
    5CHTO   H17 2087   7.136   2.646   3.050 -1.0683  0.8458  3.3158
    5CHTO    O1 2088   7.004   2.781   3.119  0.3672  0.1469 -0.3606
    5CHTO    C5 2089   6.899   2.689   3.146  0.3224  0.1611 -0.7779
    5CHTO   H18 2090   6.944   2.594   3.174 -0.3486  0.0707  0.0236
    5CHTO   C16 2091   6.819   2.751   3.262  0.4570  0.2080  0.7394
    5CHTO   O11 2092   6.775   2.890   3.241  0.3784 -0.1146  0.7209
    5CHTO    H5 2093   6.682   2.885   3.250  0.3811 -0.2913  0.6583
    5CHTO    O3 2094   7.195   2.846   3.021 -0.2996 -0.6498  0.0365
    5CHTO    C6 2095   7.305   2.811   3.100  0.1426 -0.1189  0.0270
    5CHTO   H19 2096   7.292   2.727   3.168  0.2421 -0.0342  0.1520
    5CHTO    C8 2097   7.423   2.780   3.001  0.5275  0.1004  0.5237
    5CHTO   H21 2098   7.436   2.860   2.928 -1.4881 -1.7235 -1.9198
    5CHTO    O7 2099   7.401   2.653   2.934  0.2836  0.2315  0.7640
    5CHTO    H2 2100   7.311   2.643   2.911  0.0767  2.9105  0.2210
    5CHTO   C12 2101   7.562   2.778   3.077 -0.1258 -0.0913  0.2183
    5CHTO   H25 2102   7.551   2.693   3.148 -0.9418 -0.0483  0.1492
    5CHTO    N3 2103   7.678   2.750   2.981  0.4486 -0.7589  0.2161
    5CHTO   H12 2104   7.705   2.645   2.984  0.5732 -0.7652 -0.8604
    5CHTO   H13 2105   7.763   2.803   3.021  0.9201 -1.1733 -0.2244
    5CHTO   C15 2106   7.574   2.912   3.163 -0.3251 -0.8939  0.1419
    5CHTO   H28 2107   7.573   3.000   3.098  0.1472 -0.9044  0.1182
    5CHTO   O10 2108   7.679   2.896   3.256 -0.0832  0.4077  0.3980
    5CHTO    H4 2109   7.685   2.808   3.288  0.5894  0.7859  1.3404
    5CHTO    O5 2110   7.467   2.924   3.255  0.4047  0.3275  0.1257
    5CHTO   C10 2111   7.335   2.931   3.195  1.0520  0.1627  0.0886
    5CHTO   H23 2112   7.324   3.027   3.145 -0.1901 -0.2449 -0.4207
    5CHTO   C17 2113   7.225   2.939   3.305  0.0678  0.5691 -0.1113
    5CHTO   O12 2114   7.201   2.809   3.367  0.4352 -0.3611 -0.3278
    5CHTO    H6 2115   7.236   2.739   3.315 -2.4364 -1.8558 -0.3307
    6CHTO  H203 2116   7.096   4.264   0.359  0.4487  2.2758 -0.2005
    6CHTO   O82 2117   7.012   4.264   0.317  0.0284 -0.2501  0.5154
    6CHTO  C123 2118   6.965   4.398   0.337  0.2973  0.7717  0.2591
    6CHTO  H227 2119   7.041   4.471   0.308 -0.5582  0.7379 -2.1890
    6CHTO   O77 2120   6.851   4.400   0.252  0.0017  0.2382 -0.2692
    6CHTO  C118 2121   6.775   4.522   0.264 -0.6012  0.0218 -0.3624
    6CHTO  H222 2122   6.845   4.606   0.254  1.4534 -1.6742 -0.6312
    6CHTO  C125 2123   6.668   4.529   0.149  0.1053  0.1174  0.7970
    6CHTO   O84 2124   6.730   4.508   0.014 -0.4421 -0.6436 -0.0729
    6CHTO  H205 2125   6.810   4.557   0.017 -1.2390  0.5809  2.1126
    6CHTO  C114 2126   6.720   4.533   0.403  0.2359 -0.4585  0.3224
    6CHTO  H218 2127   6.652   4.449   0.413  0.5144 -0.7772 -0.4126
    6CHTO  C116 2128   6.834   4.528   0.518  0.3447 -0.2878  0.9702
    6CHTO  H220 2129   6.889   4.625   0.524  1.9551 -1.2195  1.4690
    6CHTO   O79 2130   6.779   4.513   0.643 -0.4410 -0.6861 -0.1923
    6CHTO  H201 2131   6.826   4.504   0.724 -0.9013  0.2136  0.1726
    6CHTO  C120 2132   6.931   4.413   0.489 -0.1779  0.4980  0.0148
    6CHTO  H224 2133   6.877   4.319   0.513 -0.2022  0.6006  0.3647
    6CHTO   N21 2134   7.056   4.422   0.573 -0.3687 -0.1153  0.4841
    6CHTO  H211 2135   7.094   4.523   0.567  1.7346 -0.8643  0.6355
    6CHTO  H212 2136   7.033   4.389   0.673 -1.0117  0.9293  0.6824
    6CHTO   O75 2137   6.650   4.659   0.401  0.0869 -0.2028 -0.2189
    6CHTO  C112 2138   6.508   4.641   0.510 -0.3650  0.6875  0.1384
    6CHTO  H216 2139   6.550   4.628   0.611  1.1370 -1.2298 -0.6878
    6CHTO   O73 2140   6.439   4.516   0.468 -0.1679  0.1876  0.1130
    6CHTO  C113 2141   6.330   4.475   0.556 -0.3595  0.5591 -0.4909
    6CHTO  H217 2142   6.373   4.476   0.658 -1.8700 -2.2128  0.2233
    6CHTO  C124 2143   6.275   4.345   0.516  0.3106 -0.1499 -0.2057
    6CHTO   O83 2144   6.384   4.251   0.494 -0.6064 -0.4488  0.3627
    6CHTO  H204 2145   6.354   4.170   0.459 -0.6418 -1.1158  1.8998
    6CHTO  C109 2146   6.216   4.581   0.542  0.2359 -0.1464  0.0573
    6CHTO  H213 2147   6.190   4.582   0.435  1.6755 -1.0521 -0.3123
    6CHTO  C110 2148   6.274   4.729   0.574  0.3688  0.1742  0.4301
    6CHTO  H214 2149   6.301   4.734   0.680 -0.7831 -1.7466  0.8331
    6CHTO   O78 2150   6.178   4.825   0.555 -0.4848  0.2272 -0.3706
    6CHTO  H200 2151   6.093   4.788   0.558  1.1055 -3.4635  1.7682
    6CHTO  C111 2152   6.399   4.751   0.488 -0.3630  0.1983  0.0266
    6CHTO  H215 2153   6.362   4.756   0.384 -1.5045 -1.9506  0.2942
    6CHTO   N19 2154   6.465   4.880   0.509 -0.0396  0.6613  0.3398
    6CHTO  H207 2155   6.559   4.854   0.553  1.1383  0.8226 -1.9896
    6CHTO  H208 2156   6.411   4.952   0.570 -0.4570  0.0743  0.6661
    6CHTO   O74 2157   6.094   4.554   0.626  0.4973  0.1690  0.5072
    6CHTO  C115 2158   6.091   4.525   0.791 -0.2402 -0.0471  0.1574
    6CHTO  H219 2159   6.172   4.457   0.816  1.4267  1.4266 -1.1085
    6CHTO   O76 2160   6.118   4.661   0.871 -0.0173 -0.1204 -0.4913
    6CHTO  C122 2161   6.017   4.761   0.855  0.0074  0.1514  0.2932
    6CHTO  H226 2162   6.023   4.811   0.758 -1.0997  2.8880  1.5722
    6CHTO  C126 2163   6.032   4.871   0.964 -0.4030 -0.5875 -0.2310
    6CHTO   O85 2164   5.937   4.975   0.947  0.6097 -0.3068  0.2017
    6CHTO  H206 2165   5.928   5.035   1.019 -1.6986 -1.0527  0.5781
    6CHTO  C121 2166   5.874   4.703   0.868  1.0483  0.0576  0.1779
    6CHTO  H225 2167   5.812   4.768   0.934  2.1415  0.7549  0.5254
    6CHTO   O81 2168   5.800   4.706   0.741 -0.1665 -0.2810  0.1094
    6CHTO  H202 2169   5.708   4.724   0.750 -0.4642 -1.5719 -0.1817
    6CHTO  C119 2170   5.869   4.560   0.925  0.2219  0.2330 -0.4632
    6CHTO  H223 2171   5.913   4.555   1.024 -2.5587 -1.4592  0.7540
    6CHTO  C117 2172   5.949   4.465   0.830  0.2265  0.3743  1.3131
    6CHTO  H221 2173   5.896   4.440   0.739  1.5779  0.0321  0.6173
    6CHTO   N20 2174   5.969   4.329   0.893 -0.7702 -0.1519  1.0528
    6CHTO  H209 2175   5.887   4.297   0.955 -2.2131  0.3119 -0.5995
    6CHTO  H210 2176   6.057   4.345   0.954  0.6141  2.8527 -1.6109
    6CHTO   O80 2177   5.722   4.507   0.955 -0.8494 -0.4166 -0.0294
    6CHTO  C103 2178   5.671   4.508   1.080  0.5318 -0.1636  0.5582
    6CHTO  H190 2179   5.747   4.479   1.153 -0.1639 -0.4776  1.1744
    6CHTO  C101 2180   5.595   4.638   1.137  0.0587  0.3450 -0.2070
    6CHTO  H188 2181   5.525   4.670   1.061  0.4271  1.5995 -0.0220
    6CHTO   O68 2182   5.705   4.755   1.153  0.0427  0.0913 -0.1692
    6CHTO  H168 2183   5.690   4.805   1.231  1.1477  0.5401 -0.2328
    6CHTO   C99 2184   5.508   4.613   1.273  0.1371 -0.0142 -1.0196
    6CHTO  H186 2185   5.571   4.585   1.360 -0.3567  0.4642 -0.5014
    6CHTO   N17 2186   5.431   4.725   1.324  0.1532  0.1211  0.6255
    6CHTO  H174 2187   5.382   4.705   1.418 -1.0238  1.7503  0.3620
    6CHTO  H175 2188   5.490   4.816   1.316  0.1478 -0.0779 -2.6442
    6CHTO   C97 2189   5.416   4.490   1.247  0.3263  0.2144  0.3953
    6CHTO  H184 2190   5.347   4.517   1.166 -0.9503  2.6859  2.2168
    6CHTO   O64 2191   5.505   4.380   1.213 -0.7789  0.4216 -0.4273
    6CHTO  C104 2192   5.559   4.391   1.077 -0.5514  0.0261  0.0493
    6CHTO  H191 2193   5.481   4.415   1.006 -0.8288 -1.0089  0.0002
    6CHTO  C108 2194   5.616   4.254   1.034  0.0190 -1.1667 -0.1109
    6CHTO   O71 2195   5.732   4.197   1.102 -0.1198 -0.0158 -0.5272
    6CHTO  H171 2196   5.698   4.119   1.142  0.7454 -0.1718 -0.0971
    6CHTO   O62 2197   5.345   4.442   1.363  0.0508 -0.2744  0.4020
    6CHTO   C91 2198   5.203   4.439   1.365 -0.5597 -0.0054  0.3777
    6CHTO  H178 2199   5.180   4.534   1.414  0.4816 -0.2076  1.2895
    6CHTO   C92 2200   5.144   4.319   1.444 -1.1920  0.5539 -0.3803
    6CHTO  H179 2201   5.189   4.311   1.544  0.3833 -0.2733 -1.1326
    6CHTO   O66 2202   5.005   4.340   1.469  0.0302 -0.5402  0.0836
    6CHTO  H166 2203   4.967   4.349   1.384  1.1952  1.0555 -0.2868
    6CHTO   C93 2204   5.144   4.187   1.361  0.3873  0.7684 -0.5808
    6CHTO  H180 2205   5.060   4.128   1.399  1.7653 -1.2799 -0.6181
    6CHTO   N16 2206   5.274   4.114   1.392  0.2033 -0.4981  0.1301
    6CHTO  H172 2207   5.275   4.018   1.342  4.1093 -0.7423  0.5052
    6CHTO  H173 2208   5.274   4.092   1.497  0.0632  0.9758  0.4448
    6CHTO   C94 2209   5.132   4.204   1.206  0.5184  0.1978 -1.3594
    6CHTO  H181 2210   5.226   4.225   1.156  0.8414  3.9185  0.6495
    6CHTO   O61 2211   5.043   4.317   1.189 -0.3337  0.3319 -0.0837
    6CHTO   C95 2212   5.112   4.435   1.228  0.1457 -0.1016  0.0223
    6CHTO  H182 2213   5.174   4.470   1.146 -0.7300  0.2128 -0.5115
    6CHTO  C106 2214   5.002   4.553   1.239  0.1723 -0.3314  0.8159
    6CHTO   O69 2215   4.966   4.607   1.112 -0.5352  0.6812 -0.0603
    6CHTO  H169 2216   5.041   4.625   1.058  1.5685 -4.6462  0.8093
    6CHTO   O63 2217   5.061   4.081   1.143  0.5254  0.1390  0.0515
    6CHTO   C96 2218   5.150   3.985   1.056  0.5288 -0.9645  0.2016
    6CHTO  H183 2219   5.252   4.017   1.080  0.4673 -0.0071 -0.7681
    6CHTO   C98 2220   5.132   4.008   0.908  0.6037 -0.1414  0.4137
    6CHTO  H185 2221   5.026   3.984   0.893  0.8830 -2.1460  1.4798
    6CHTO   O67 2222   5.148   4.147   0.874  0.2881 -0.3551 -0.1034
    6CHTO  H167 2223   5.141   4.151   0.781  1.3597 -1.0014 -0.2254
    6CHTO  C102 2224   5.240   3.918   0.825 -0.1937  0.3599  0.4795
    6CHTO  H189 2225   5.330   3.980   0.812  0.4840 -0.9482 -1.3479
    6CHTO   N18 2226   5.197   3.880   0.684  0.3333  0.2783 -0.0690
    6CHTO  H176 2227   5.089   3.881   0.673  0.4642  3.8041 -2.0347
    6CHTO  H177 2228   5.232   3.946   0.606  0.0876  0.1761 -0.2658
    6CHTO  C105 2229   5.295   3.797   0.908  0.1081  0.4181  0.0652
    6CHTO  H192 2230   5.332   3.719   0.841 -0.2150  0.5907 -0.3148
    6CHTO   O65 2231   5.199   3.743   1.000  0.1386 -0.3835  0.4863
    6CHTO  C100 2232   5.124   3.830   1.080  0.0412  0.1215 -0.6718
    6CHTO  H187 2233   5.016   3.811   1.068 -0.5423  2.3733  0.5490
    6CHTO  C107 2234   5.151   3.784   1.234  0.1713  0.0993  0.5121
    6CHTO   O70 2235   5.069   3.670   1.257 -0.2624  0.1310  0.0091
    6CHTO  H170 2236   5.059   3.657   1.350 -1.4968  1.4918  0.0762
    6CHTO   O57 2237   5.433   3.855   0.988  0.2222  0.2771 -0.5497
    6CHTO   C85 2238   5.531   3.749   1.009 -0.1881 -0.2173  0.6001
    6CHTO  H157 2239   5.503   3.671   0.934  0.0488  0.0210  0.2626
    6CHTO   C83 2240   5.507   3.698   1.156  0.0339 -0.3511  0.0175
    6CHTO  H155 2241   5.404   3.662   1.154 -0.1003  0.0249  0.1729
    6CHTO   O56 2242   5.515   3.810   1.248  0.6296 -0.2144 -0.3862
    6CHTO  H135 2243   5.452   3.803   1.318  1.1518 -1.7244 -0.0624
    6CHTO   C81 2244   5.601   3.577   1.179 -0.3662  0.0172  0.0559
    6CHTO  H153 2245   5.575   3.502   1.105 -0.3246 -1.1757  1.2258
    6CHTO   N14 2246   5.569   3.504   1.307 -0.2588 -0.6073 -0.3986
    6CHTO  H141 2247   5.534   3.403   1.303 -0.4010 -0.6408  1.0894
    6CHTO  H142 2248   5.507   3.553   1.380  0.9959 -1.8823  1.5814
    6CHTO   C79 2249   5.754   3.617   1.154  0.7848  0.1118 -0.3794
    6CHTO  H151 2250   5.810   3.524   1.155  4.1553  2.0126 -2.0791
    6CHTO   O52 2251   5.767   3.679   1.015  0.0434 -0.1904  0.0088
    6CHTO   C86 2252   5.680   3.791   0.988 -0.1545 -0.6155 -0.4015
    6CHTO  H158 2253   5.707   3.862   1.069  1.7764 -0.5084 -1.1285
    6CHTO   C90 2254   5.707   3.866   0.854 -0.1042  0.2091 -0.9681
    6CHTO   O60 2255   5.835   3.939   0.853  0.9019 -0.6633 -0.6936
    6CHTO  H138 2256   5.873   3.926   0.768 -0.5230  0.1499 -1.4778
    6CHTO   O50 2257   5.820   3.701   1.250 -0.0149  0.5637  0.3411
    6CHTO   C73 2258   5.861   3.733   1.384 -0.2822  0.2726 -0.4888
    6CHTO  H145 2259   5.858   3.640   1.443  0.0777  0.3206 -0.3904
    6CHTO   C74 2260   5.767   3.843   1.446  0.4144  0.1752  0.3360
    6CHTO  H146 2261   5.661   3.815   1.435  0.0940  1.6966 -0.6199
    6CHTO   O54 2262   5.788   3.852   1.589  0.0278 -0.3524  0.1499
    6CHTO  H133 2263   5.740   3.789   1.639 -1.4674  0.5266 -0.1361
    6CHTO   C75 2264   5.789   3.988   1.373  0.1400 -0.3602 -0.0760
    6CHTO  H147 2265   5.759   3.979   1.268 -0.5202  0.5617  0.0304
    6CHTO   N13 2266   5.703   4.095   1.425 -0.4781  0.1422  0.1857
    6CHTO  H139 2267   5.608   4.086   1.374  0.1121  1.3242 -1.1659
    6CHTO  H140 2268   5.692   4.084   1.531 -1.3133 -3.3503 -0.1983
    6CHTO   C76 2269   5.944   4.018   1.366 -0.2764 -0.9003 -0.2033
    6CHTO  H148 2270   5.977   4.036   1.468 -0.4811  0.0642 -0.3080
    6CHTO   O49 2271   6.018   3.911   1.308 -0.1640 -0.1642  0.3759
    6CHTO   C77 2272   6.010   3.786   1.386  0.4265  0.0092  0.2871
    6CHTO  H149 2273   6.044   3.786   1.489 -0.8992 -0.5928  0.7400
    6CHTO   C88 2274   6.107   3.685   1.321  0.3491  0.6140 -0.7446
    6CHTO   O58 2275   6.236   3.749   1.319  0.5703  0.3651  0.1286
    6CHTO  H136 2276   6.291   3.732   1.245  0.2589  3.1953 -0.7769
    6CHTO   O51 2277   5.970   4.145   1.255 -0.1787  0.5136  0.0546
    6CHTO   C78 2278   6.044   4.259   1.299  0.1442  0.6190  0.6463
    6CHTO  H150 2279   6.073   4.248   1.406  1.5816 -0.0318  0.1877
    6CHTO   C80 2280   5.964   4.389   1.282  0.0785 -0.1643 -0.4790
    6CHTO  H152 2281   5.939   4.406   1.175  0.5822 -0.9292 -0.7242
    6CHTO   O55 2282   5.845   4.373   1.352  0.4907  0.1752 -0.1307
    6CHTO  H134 2283   5.788   4.445   1.331 -0.0724  0.4007  2.0921
    6CHTO   C84 2284   6.050   4.517   1.317 -0.3764  0.1888 -0.7055
    6CHTO  H156 2285   6.067   4.505   1.424 -0.5100 -1.0925 -0.8263
    6CHTO   N15 2286   5.965   4.643   1.312 -0.2010 -0.5106 -0.2611
    6CHTO  H143 2287   6.009   4.714   1.379 -0.8055  0.0736 -0.4760
    6CHTO  H144 2288   5.862   4.632   1.337 -0.4834  3.6776  0.7657
    6CHTO   C87 2289   6.187   4.520   1.239  0.5747  0.7637 -0.0870
    6CHTO  H159 2290   6.174   4.526   1.131  0.9655  1.6364 -0.0906
    6CHTO   O53 2291   6.264   4.373   1.279 -0.2859 -0.9150  0.0287
    6CHTO   C82 2292   6.176   4.272   1.219 -0.1946  0.3985  0.0042
    6CHTO  H154 2293   6.158   4.295   1.114  0.8637 -0.3782 -0.3631
    6CHTO   C89 2294   6.267   4.152   1.214  0.0514  0.5920  0.1539
    6CHTO   O59 2295   6.220   4.041   1.141 -0.2978 -0.2365 -0.0384
    6CHTO  H137 2296   6.293   3.997   1.103  2.3729  1.7175  2.5076
    6CHTO   O45 2297   6.285   4.650   1.287  0.1372  0.2664  0.5601
    6CHTO   C67 2298   6.410   4.649   1.222 -0.1287 -0.4986  0.0573
    6CHTO  H124 2299   6.464   4.555   1.233  1.6159  0.8688  4.1172
    6CHTO   C65 2300   6.400   4.682   1.067 -0.2874 -0.8782 -0.4705
    6CHTO  H122 2301   6.295   4.701   1.049 -0.0785 -0.3967 -1.2120
    6CHTO   O44 2302   6.436   4.566   0.982 -0.0174  0.6324 -0.5536
    6CHTO  H102 2303   6.372   4.499   0.988  0.6439  0.1884  2.0710
    6CHTO   C63 2304   6.477   4.819   1.035 -0.4711 -0.0564 -0.6463
    6CHTO  H120 2305   6.427   4.903   1.082 -0.2989  0.9402 -2.2293
    6CHTO   N11 2306   6.462   4.859   0.896 -0.1516 -0.0281 -0.0779
    6CHTO  H108 2307   6.400   4.794   0.837  0.8852 -0.7542 -0.3746
    6CHTO  H109 2308   6.560   4.867   0.855  0.8864 -3.4359  1.6414
    6CHTO   C61 2309   6.630   4.798   1.091  0.6245 -0.2807  0.5906
    6CHTO  H118 2310   6.678   4.896   1.074 -0.2272 -0.0842 -0.6941
    6CHTO   O40 2311   6.627   4.771   1.241 -0.0575 -0.4870 -0.5096
    6CHTO   C68 2312   6.496   4.754   1.299  0.1971 -0.4714  0.5719
    6CHTO  H125 2313   6.453   4.856   1.309  0.3586 -0.2742 -0.7395
    6CHTO   C72 2314   6.509   4.698   1.441 -0.4018  0.5388  0.4771
    6CHTO   O48 2315   6.573   4.789   1.536 -0.2579 -0.1403  0.2309
    6CHTO  H105 2316   6.666   4.788   1.523 -0.2507  1.4881  0.0677
    6CHTO   O38 2317   6.702   4.688   1.028 -0.0488  0.6133  0.3135
    6CHTO   C55 2318   6.835   4.670   1.064  0.0186  0.0508 -0.7684
    6CHTO  H112 2319   6.844   4.699   1.170 -2.0127 -0.8127 -0.3364
    6CHTO   C56 2320   6.932   4.752   0.972  0.1419  0.5910 -0.2672
    6CHTO  H113 2321   6.888   4.736   0.873 -0.2236 -1.7351  0.2497
    6CHTO   O42 2322   6.913   4.892   0.995 -0.1224  0.1728  0.0785
    6CHTO  H100 2323   6.944   4.917   1.079  1.9377 -0.7950 -0.3709
    6CHTO   C57 2324   7.086   4.710   0.983  0.5188  0.3275 -0.2252
    6CHTO  H114 2325   7.118   4.759   1.075  1.0220 -2.8385  1.3430
    6CHTO   N10 2326   7.176   4.745   0.867  0.3393 -0.4900  0.2644
    6CHTO  H106 2327   7.109   4.732   0.784 -0.5116  0.7819  0.7503
    6CHTO  H107 2328   7.252   4.668   0.868 -1.4238 -2.2645  1.6560
    6CHTO   C58 2329   7.094   4.558   1.007 -0.1621  0.4082 -0.0647
    6CHTO  H115 2330   7.084   4.503   0.911 -2.2328 -1.5201  1.2061
    6CHTO   O37 2331   7.003   4.500   1.107 -0.9133  0.0649  0.3373
    6CHTO   C59 2332   6.871   4.520   1.063 -0.7091 -0.8204 -0.4973
    6CHTO  H116 2333   6.856   4.474   0.966  3.6039 -2.4758 -0.5076
    6CHTO   C70 2334   6.770   4.446   1.155 -0.7210  0.3425  0.5318
    6CHTO   O46 2335   6.801   4.488   1.292 -0.1986 -0.7703  0.5288
    6CHTO  H103 2336   6.739   4.541   1.338 -0.5218 -0.7658  0.0885
    6CHTO   O39 2337   7.251   4.536   1.091  0.4962  0.2867  0.0712
    6CHTO   C60 2338   7.311   4.407   1.058 -0.2578  0.5833 -0.3967
    6CHTO  H117 2339   7.233   4.341   1.020  0.9105 -0.0675 -1.7320
    6CHTO   C62 2340   7.415   4.421   0.942 -1.2420 -0.8592 -0.3794
    6CHTO  H119 2341   7.367   4.453   0.847 -1.8199  1.2169  0.5799
    6CHTO   O43 2342   7.514   4.515   0.981  0.1449 -0.2714 -0.1692
    6CHTO  H101 2343   7.566   4.533   0.905  0.3664  1.9366  0.4696
    6CHTO   C66 2344   7.482   4.275   0.918  0.3485  0.1381 -0.4752
    6CHTO  H123 2345   7.399   4.206   0.908 -0.6114  0.8550  1.9333
    6CHTO   N12 2346   7.558   4.263   0.797 -0.5074  0.3971  0.5119
    6CHTO  H110 2347   7.578   4.157   0.789 -0.7799  0.1949  2.2564
    6CHTO  H111 2348   7.650   4.320   0.795  1.8278 -3.2267  1.0575
    6CHTO   C69 2349   7.559   4.230   1.048  0.0262 -0.0173  0.4005
    6CHTO  H126 2350   7.633   4.311   1.063  1.7217 -1.4339 -0.1404
    6CHTO   O41 2351   7.449   4.222   1.170  0.0255  0.4025  0.3191
    6CHTO   C64 2352   7.367   4.349   1.192 -1.0261 -0.3610  0.3273
    6CHTO  H121 2353   7.432   4.428   1.236 -0.2644 -1.3074  0.9248
    6CHTO   C71 2354   7.244   4.321   1.290 -0.0231  0.0586  0.1281
    6CHTO   O47 2355   7.285   4.236   1.402  0.1329  0.1496  0.2743
    6CHTO  H104 2356   7.225   4.242   1.474 -1.2779  0.3024 -0.8929
    6CHTO   O34 2357   7.619   4.088   1.045  0.4117  0.2539  0.2880
    6CHTO   C49 2358   7.714   3.993   0.994  0.2792 -0.3909 -0.7264
    6CHTO   H91 2359   7.680   3.935   0.909  1.4475  0.6900 -1.9584
    6CHTO   C47 2360   7.752   3.890   1.100 -0.9628  0.2330 -0.4138
    6CHTO   H89 2361   7.824   3.820   1.052  0.0257  1.2184 -0.3914
    6CHTO   O33 2362   7.635   3.818   1.151 -0.0671 -0.1583 -0.3423
    6CHTO   H70 2363   7.603   3.769   1.077  0.5307  0.6892 -1.1665
    6CHTO   C45 2364   7.819   3.967   1.220 -0.7070  0.4846 -0.0429
    6CHTO   H87 2365   7.740   4.001   1.289 -2.1796  0.6682 -1.7801
    6CHTO    N8 2366   7.906   3.870   1.292  0.1561  0.4320  0.0508
    6CHTO   H75 2367   7.870   3.842   1.390 -0.0052  1.5690  0.3161
    6CHTO   H76 2368   7.918   3.781   1.232  0.3474  0.4213  0.1037
    6CHTO   C43 2369   7.891   4.109   1.176  0.3847 -0.2297 -0.0792
    6CHTO   H85 2370   7.810   4.183   1.172  1.8156  1.4441  1.2291
    6CHTO   O29 2371   7.945   4.087   1.041 -0.2632  0.2145 -0.2398
    6CHTO   C50 2372   7.852   4.057   0.940  0.6347 -0.9526 -0.5477
    6CHTO   H92 2373   7.826   4.149   0.886 -2.0124 -1.4078 -0.1472
    6CHTO   C54 2374   7.913   3.971   0.822  0.7222 -0.2736 -0.2319
    6CHTO   O36 2375   8.002   4.043   0.734 -0.0716  0.0243 -0.1849
    6CHTO   H72 2376   8.076   3.992   0.708 -2.2909 -2.7368 -1.3278
    6CHTO   O27 2377   7.987   4.160   1.264  0.2592 -0.1785  0.0086
    6CHTO   C37 2378   8.064   4.281   1.258  0.2741 -1.0096  0.7964
    6CHTO   H79 2379   8.134   4.271   1.174  1.1234  2.4223  1.0593
    6CHTO   C38 2380   7.975   4.401   1.218  0.1163 -0.3769 -0.0211
    6CHTO   H80 2381   7.892   4.400   1.290 -0.1085  0.8021 -0.2543
    6CHTO   O31 2382   7.918   4.397   1.084 -0.0325  0.0285 -0.3956
    6CHTO   H68 2383   7.825   4.401   1.082 -0.1494 -2.5367 -1.1963
    6CHTO   C39 2384   8.055   4.538   1.232 -0.2144 -0.0670 -0.6086
    6CHTO   H81 2385   8.123   4.551   1.147  0.5599  0.4253  0.0807
    6CHTO    N7 2386   7.982   4.664   1.214 -0.1744 -0.0427  0.3054
    6CHTO   H73 2387   7.989   4.690   1.110  4.2136 -3.0851 -0.3137
    6CHTO   H74 2388   7.881   4.654   1.250 -0.9700  3.8780 -0.6243
    6CHTO   C40 2389   8.127   4.540   1.374 -0.4274 -0.0216 -0.6330
    6CHTO   H82 2390   8.054   4.562   1.453 -0.1571  0.4117 -0.5063
    6CHTO   O26 2391   8.207   4.423   1.397 -0.5717  0.4744 -0.4339
    6CHTO   C41 2392   8.137   4.297   1.390  0.2807  0.0947  0.2455
    6CHTO   H83 2393   8.065   4.290   1.473  0.3978 -0.8272  0.2722
    6CHTO   C52 2394   8.225   4.183   1.411  0.5652 -0.9652 -0.1684
    6CHTO   O35 2395   8.285   4.191   1.560  0.3410 -0.5551  0.4744
    6CHTO   H71 2396   8.327   4.112   1.589  0.2478 -0.9551 -0.4592
    6CHTO   O28 2397   8.233   4.630   1.379 -0.2863  0.2804  0.0515
    6CHTO   C42 2398   8.282   4.696   1.499  0.1359 -0.1762  0.2828
    6CHTO   H84 2399   8.352   4.773   1.464  0.0162  0.8591  2.2463
    6CHTO   C44 2400   8.363   4.601   1.600 -0.0195 -0.4531  0.4204
    6CHTO   H86 2401   8.304   4.511   1.617 -0.7690 -0.0686 -0.1405
    6CHTO   O32 2402   8.476   4.562   1.524  0.1261 -0.0069 -0.2756
    6CHTO   H69 2403   8.474   4.469   1.514 -2.4563 -0.3977  2.9749
    6CHTO   C48 2404   8.410   4.672   1.725  0.4859 -0.1509 -0.1157
    6CHTO   H90 2405   8.489   4.745   1.709  0.8276 -0.6102 -0.4957
    6CHTO    N9 2406   8.483   4.577   1.818  0.3174 -0.0278 -0.7136
    6CHTO   H77 2407   8.512   4.633   1.906  0.4027  0.5397 -1.1059
    6CHTO   H78 2408   8.415   4.496   1.841  1.2474 -0.9139 -1.0701
    6CHTO   C51 2409   8.286   4.751   1.788  0.3571  0.5060 -0.6162
    6CHTO   H93 2410   8.214   4.675   1.821  1.2087  0.9134  2.3382
    6CHTO   O30 2411   8.231   4.839   1.696  0.0364  0.2928 -0.5615
    6CHTO   C46 2412   8.169   4.772   1.581  0.6839 -0.1892 -0.4327
    6CHTO   H88 2413   8.094   4.699   1.613  0.6662  0.2500  0.5494
    6CHTO   C53 2414   8.094   4.879   1.494 -0.0436 -0.3722 -0.1308
    6CHTO   O72 2415   7.963   4.913   1.537  0.1883  0.1801 -0.3010
    6CHTO  H199 2416   7.903   4.893   1.467  1.0983  2.1103 -1.6702
    6CHTO   O22 2417   8.323   4.832   1.906  0.1726 -0.2048 -0.0235
    6CHTO   C31 2418   8.223   4.895   1.999 -0.3182 -0.4454 -0.8007
    6CHTO   H59 2419   8.275   4.920   2.093 -1.9646  5.3342 -1.2496
    6CHTO   C29 2420   8.161   5.030   1.946  0.2091 -0.4992  0.3234
    6CHTO   H57 2421   8.105   4.997   1.857 -0.6956 -2.1890  1.4737
    6CHTO   O21 2422   8.275   5.112   1.908  0.4485  0.2441  0.2422
    6CHTO   H37 2423   8.335   5.114   1.980 -1.9541  1.0845  2.2886
    6CHTO   C27 2424   8.057   5.096   2.046  0.1749 -0.2152 -0.2292
    6CHTO   H55 2425   8.110   5.125   2.138 -1.3048  0.6550  0.3581
    6CHTO    N5 2426   7.992   5.218   1.988 -0.3212  0.0569  0.1636
    6CHTO   H43 2427   7.942   5.197   1.895  0.0021  1.6060 -0.3807
    6CHTO   H44 2428   8.058   5.298   1.957  0.7076 -0.8036  0.1425
    6CHTO   C25 2429   7.948   4.991   2.090  1.1847  0.3372  0.1132
    6CHTO   H53 2430   7.899   4.963   1.996  1.0644  2.1849 -0.3801
    6CHTO   O17 2431   8.019   4.873   2.141 -0.0118 -0.4492 -0.0406
    6CHTO   C32 2432   8.102   4.806   2.041  0.2313  0.0953  0.6107
    6CHTO   H60 2433   8.050   4.780   1.949 -0.1066 -0.1951  0.8837
    6CHTO   C36 2434   8.170   4.688   2.100 -0.4787 -0.1885 -0.0457
    6CHTO   O25 2435   8.074   4.593   2.139 -0.1331  0.5391 -0.2836
    6CHTO   H40 2436   8.021   4.575   2.064  0.0297 -2.3275  0.2185
    6CHTO   O15 2437   7.863   5.051   2.203 -0.0580 -0.3756 -0.0424
    6CHTO   C19 2438   7.802   5.163   2.277  0.0990  0.6552  0.5260
    6CHTO   H47 2439   7.755   5.115   2.364  0.9925  0.6677  1.0227
    6CHTO   C20 2440   7.909   5.253   2.340 -0.6609  0.1333  0.5274
    6CHTO   H48 2441   7.971   5.298   2.261 -0.9264 -1.1308 -0.4251
    6CHTO   O19 2442   7.995   5.176   2.424 -0.2839  0.0530 -0.2993
    6CHTO   H35 2443   7.944   5.144   2.496 -0.0398  0.0741 -0.1164
    6CHTO   C21 2444   7.847   5.366   2.426 -0.2118 -0.5236 -0.4642
    6CHTO   H49 2445   7.823   5.321   2.522 -2.2839 -2.0531 -1.6631
    6CHTO    N4 2446   7.943   5.471   2.472 -0.0961  0.5044  0.2057
    6CHTO   H41 2447   8.038   5.441   2.513 -1.6441 -2.6875  1.6633
    6CHTO   H42 2448   7.958   5.542   2.392 -1.2273  0.1502 -0.3378
    6CHTO   C22 2449   7.733   5.433   2.343 -0.0468  0.0177 -0.8966
    6CHTO   H50 2450   7.771   5.500   2.266  0.6960  0.9569  0.2593
    6CHTO   O14 2451   7.643   5.339   2.281 -0.2560  0.1822 -0.1885
    6CHTO   C23 2452   7.704   5.244   2.198  0.2260 -0.1287  0.0017
    6CHTO   H51 2453   7.756   5.302   2.120  1.3626  1.0018  1.5848
    6CHTO   C34 2454   7.596   5.153   2.132  0.2879 -0.0673  0.2694
    6CHTO   O23 2455   7.653   5.091   2.017  0.2173  0.8356 -0.4981
    6CHTO   H38 2456   7.630   5.000   2.015  0.2953  0.7261  1.8580
    6CHTO   O16 2457   7.644   5.510   2.425  0.1407  0.0986 -0.1285
    6CHTO   C24 2458   7.547   5.615   2.337 -0.2630  0.3300 -0.1458
    6CHTO   H52 2459   7.553   5.588   2.232  1.5068 -2.8599  0.6886
    6CHTO   C26 2460   7.584   5.766   2.359 -0.3188  0.1097 -0.4496
    6CHTO   H54 2461   7.585   5.781   2.469  1.1919 -1.1339 -0.2913
    6CHTO   O20 2462   7.703   5.785   2.289 -0.4611 -0.3691  0.1837
    6CHTO   H36 2463   7.766   5.796   2.357 -0.3220 -1.6743  0.2875
    6CHTO   C30 2464   7.473   5.866   2.309  0.5342 -0.2371  0.6332
    6CHTO   H58 2465   7.453   5.875   2.201 -0.4295 -0.4205  0.7875
    6CHTO    N6 2466   7.497   6.006   2.363 -0.2321 -0.6143 -0.5756
    6CHTO   H45 2467   7.496   6.009   2.471  2.6627 -2.3378 -0.4494
    6CHTO   H46 2468   7.412   6.062   2.326 -1.9666  0.0415  4.0213
    6CHTO   C33 2469   7.332   5.812   2.360  0.5455 -0.0943 -0.8091
    6CHTO   H61 2470   7.328   5.816   2.470 -0.6536  1.9201 -0.8939
    6CHTO   O18 2471   7.317   5.676   2.312 -0.3062  0.0874  0.2580
    6CHTO   C28 2472   7.403   5.594   2.387 -0.0268  0.2748 -0.8326
    6CHTO   H56 2473   7.397   5.621   2.493 -0.6583 -0.8540 -0.5674
    6CHTO   C35 2474   7.335   5.449   2.381 -0.1238 -0.7387  0.0712
    6CHTO   O24 2475   7.342   5.404   2.241 -0.8479 -0.7193  0.4287
    6CHTO   H39 2476   7.269   5.427   2.186  0.5457  0.1255 -1.1025
    6CHTO    O9 2477   7.221   5.900   2.312  0.1976  0.1815  0.4742
    6CHTO   C13 2478   7.084   5.898   2.407 -0.0406  0.2642  0.5504
    6CHTO   H26 2479   7.098   5.956   2.500 -0.7872  1.0032  0.2065
    6CHTO   C11 2480   7.028   5.750   2.434  0.5544 -0.0247  0.0032
    6CHTO   H24 2481   7.110   5.700   2.487 -1.0175 -1.2500  1.3453
    6CHTO    O8 2482   7.010   5.677   2.313 -0.1248 -0.5055 -0.0059
    6CHTO    H3 2483   6.951   5.608   2.335 -0.7650  0.3869  1.1337
    6CHTO    C9 2484   6.905   5.749   2.526  0.1021 -0.4229  0.7404
    6CHTO   H22 2485   6.930   5.809   2.614 -0.1206 -0.7584  1.0325
    6CHTO    N2 2486   6.868   5.620   2.578  0.4823  0.5347  0.2581
    6CHTO   H10 2487   6.942   5.577   2.643 -1.0600 -0.3533  1.4761
    6CHTO   H11 2488   6.823   5.553   2.507  0.3618 -1.3788  2.0889
    6CHTO    C7 2489   6.793   5.826   2.446 -0.4505 -0.4185 -0.6949
    6CHTO   H20 2490   6.704   5.837   2.511 -0.4986 -1.2768 -0.5999
    6CHTO    O4 2491   6.841   5.959   2.406 -0.4190 -1.1852  0.1951
    6CHTO   C14 2492   6.969   5.980   2.341  0.6070 -0.8116  0.0137
    6CHTO   H27 2493   6.988   6.089   2.347 -0.3890 -0.6193 -0.1750
    6CHTO   C18 2494   6.961   5.941   2.190  0.9333  0.1957  0.0000
    6CHTO   O13 2495   6.839   5.993   2.130 -0.0147 -0.4133  0.3949
    6CHTO    H7 2496   6.851   5.986   2.037 -0.3154  1.2804  0.2161
    6CHTO    O2 2497   6.716   5.740   2.300 -0.0258 -0.1670 -0.9519
    6CHTO    C1 2498   6.580   5.763   2.285 -0.4446  0.4181 -0.2105
    6CHTO   H14 2499   6.561   5.737   2.178 -0.9402 -0.2708  0.0436
    6CHTO    C2 2500   6.520   5.907   2.310 -0.3609 -0.1250  0.3754
    6CHTO   H15 2501   6.549   5.940   2.411 -0.3672  1.8551 -0.2446
    6CHTO    O6 2502   6.566   6.009   2.223 -0.1325  0.4473  0.0399
    6CHTO    H1 2503   6.570   5.965   2.140  0.7676  2.6509 -1.1253
    6CHTO    C3 2504   6.360   5.906   2.310  0.2923  0.1237  0.3654
    6CHTO   H16 2505   6.321   5.873   2.213 -2.2852  1.4377  0.9155
    6CHTO    N1 2506   6.287   6.041   2.341  0.1384 -0.8145  0.2581
    6CHTO    H8 2507   6.221   6.028   2.426 -0.0388 -1.6692 -0.0069
    6CHTO    H9 2508   6.361   6.114   2.372 -1.0532  0.2269  0.7294
    6CHTO    C4 2509   6.319   5.792   2.412  0.3029  0.4058 -0.8381
    6CHTO   H17 2510   6.357   5.813   2.512 -2.8076 -0.0521  0.5022
    6CHTO    O1 2511   6.363   5.668   2.363 -0.2699 -0.5506 -0.3747
    6CHTO    C5 2512   6.506   5.662   2.379  0.9015  0.5443 -0.0364
    6CHTO   H18 2513   6.531   5.691   2.481  3.3167  3.5453 -1.3565
    6CHTO   C16 2514   6.556   5.523   2.344 -0.3589  0.0295  0.2064
    6CHTO   O11 2515   6.521   5.429   2.447 -0.6326  0.2637 -0.0735
    6CHTO    H5 2516   6.544   5.343   2.417  0.4852  0.6743 -0.4314
    6CHTO    O3 2517   6.173   5.774   2.420 -0.6434  0.0047  0.4429
    6CHTO    C6 2518   6.123   5.704   2.540  0.6377 -0.2124  0.2500
    6CHTO   H19 2519   6.207   5.658   2.592  0.5074 -2.3627 -1.3567
    6CHTO    C8 2520   6.042   5.795   2.632 -0.3088 -0.2436 -0.0224
    6CHTO   H21 2521   5.968   5.845   2.569  0.4660 -0.5824 -1.2129
    6CHTO    O7 2522   6.132   5.892   2.678 -0.3473 -0.4019  0.2855
    6CHTO    H2 2523   6.095   5.967   2.721  0.9267 -0.8684  2.2530
    6CHTO   C12 2524   5.961   5.720   2.746 -0.3055  0.1839  0.3830
    6CHTO   H25 2525   6.038   5.680   2.814 -0.6543 -1.2971 -0.0622
    6CHTO    N3 2526   5.875   5.815   2.830  0.4294  0.1710  0.0370
    6CHTO   H12 2527   5.935   5.879   2.892  0.9033 -0.8335  0.6381
    6CHTO   H13 2528   5.800   5.864   2.771  1.0278  0.0873 -0.8082
    6CHTO   C15 2529   5.878   5.608   2.676 -0.2686 -0.1747  0.3408
    6CHTO   H28 2530   5.799   5.652   2.615  0.0212 -1.0783 -0.7134
    6CHTO   O10 2531   5.817   5.510   2.790  0.2554 -0.2942  0.4970
    6CHTO    H4 2532   5.873   5.498   2.864 -1.5167 -1.1890  1.7242
    6CHTO    O5 2533   5.965   5.521   2.611  0.1431 -0.0317  0.3001
    6CHTO   C10 2534   6.030   5.581   2.497  0.7888 -0.1216  0.1757
    6CHTO   H23 2535   5.948   5.621   2.438 -0.9666 -0.6064  2.2269
    6CHTO   C17 2536   6.103   5.469   2.422 -0.4251 -0.0956  0.1032
    6CHTO   O12 2537   6.009   5.400   2.334 -0.6202 -0.1341  0.0639
    6CHTO    H6 2538   6.060   5.354   2.270  0.4366  1.9252 -0.6087
    7CHTO  H203 2539   4.962   1.686   2.675 -0.3129  0.0395 -1.7440
    7CHTO   O82 2540   4.970   1.779   2.686 -0.4261 -0.1032 -0.4408
    7CHTO  C123 2541   5.047   1.824   2.573  0.9316 -0.6853 -0.9148
    7CHTO  H227 2542   4.992   1.801   2.480 -0.9512  1.9459 -0.4701
    7CHTO   O77 2543   5.067   1.966   2.601  0.0208  0.2477  0.1067
    7CHTO  C118 2544   5.151   2.026   2.503 -0.4046  0.5355 -0.1498
    7CHTO  H222 2545   5.095   2.016   2.409  2.0032 -0.6423 -1.4890
    7CHTO  C125 2546   5.164   2.184   2.543  0.2617  0.5532  0.5623
    7CHTO   O84 2547   5.037   2.242   2.577  0.1358  0.6088 -0.0287
    7CHTO  H205 2548   4.966   2.217   2.520 -0.5058 -0.1651  1.0964
    7CHTO  C114 2549   5.291   1.965   2.484  0.7074  0.1799  0.5060
    7CHTO  H218 2550   5.347   1.976   2.577  2.3079  5.6483 -0.9283
    7CHTO  C116 2551   5.279   1.813   2.468 -0.8407  0.2332 -0.0452
    7CHTO  H220 2552   5.235   1.793   2.368 -2.0201  1.0901  0.2833
    7CHTO   O79 2553   5.411   1.749   2.479 -0.0177  0.0184  0.1737
    7CHTO  H201 2554   5.416   1.673   2.424 -3.7957  1.6668 -2.6592
    7CHTO  C120 2555   5.186   1.751   2.577 -0.3812 -0.2523 -0.1137
    7CHTO  H224 2556   5.237   1.769   2.674 -0.5267  1.8273 -0.3888
    7CHTO   N21 2557   5.174   1.607   2.550  0.0815 -0.0994 -0.2533
    7CHTO  H211 2558   5.186   1.551   2.641 -0.4590 -1.0733 -0.7667
    7CHTO  H212 2559   5.075   1.589   2.509  0.4031 -0.8251 -0.7171
    7CHTO   O75 2560   5.351   2.048   2.385 -0.3599  0.1690  0.1298
    7CHTO  C112 2561   5.519   2.047   2.401  0.7632  0.0214  0.3277
    7CHTO  H216 2562   5.548   1.947   2.438  1.1047  0.8370  2.3318
    7CHTO   O73 2563   5.549   2.142   2.500  0.6641 -0.0527 -0.9514
    7CHTO  C113 2564   5.687   2.136   2.545  0.6587  0.2512 -0.5401
    7CHTO  H217 2565   5.697   2.033   2.585  0.8216 -0.5801 -2.6511
    7CHTO  C124 2566   5.710   2.242   2.652  0.3907 -0.1717 -0.2454
    7CHTO   O83 2567   5.621   2.210   2.763  0.4632  0.5038  0.7048
    7CHTO  H204 2568   5.578   2.286   2.795  0.8966  2.6171 -3.3300
    7CHTO  C109 2569   5.787   2.156   2.430  0.6152 -0.3580 -0.2612
    7CHTO  H213 2570   5.774   2.262   2.404  0.3620 -0.5231 -0.8063
    7CHTO  C110 2571   5.746   2.056   2.322 -0.3108 -0.3690  0.0640
    7CHTO  H214 2572   5.756   1.953   2.359 -1.6013 -0.2786  0.6849
    7CHTO   O78 2573   5.842   2.062   2.212  0.2185  0.1326  0.0355
    7CHTO  H200 2574   5.839   2.145   2.169 -0.0227 -0.8715 -1.9369
    7CHTO  C111 2575   5.598   2.080   2.271  0.4230 -0.3918 -0.1466
    7CHTO  H215 2576   5.594   2.183   2.234  1.3476 -1.1312 -2.3721
    7CHTO   N19 2577   5.551   1.992   2.164 -0.0683  0.0537 -0.0478
    7CHTO  H207 2578   5.631   1.982   2.093  0.8909 -2.9639  1.3798
    7CHTO  H208 2579   5.459   2.026   2.119 -0.3680 -0.8741 -0.1509
    7CHTO   O74 2580   5.918   2.127   2.477 -0.2591 -0.1539 -0.3742
    7CHTO  C115 2581   6.013   2.263   2.483 -0.4170 -0.1703 -0.3700
    7CHTO  H219 2582   5.977   2.337   2.411 -0.2582  0.8390  0.5701
    7CHTO   O76 2583   5.995   2.345   2.620  0.0963 -0.2017  0.6212
    7CHTO  C122 2584   6.048   2.281   2.740 -0.3110  0.2507 -0.1557
    7CHTO  H226 2585   5.990   2.195   2.773 -0.2544 -1.0365 -3.2804
    7CHTO  C126 2586   6.048   2.382   2.853 -0.2197  0.0960  0.0837
    7CHTO   O85 2587   5.921   2.432   2.880 -0.6095 -0.3951 -0.7212
    7CHTO  H206 2588   5.923   2.466   2.967 -2.5309  0.7752 -1.0780
    7CHTO  C121 2589   6.197   2.238   2.714 -0.1010  0.0218  0.1175
    7CHTO  H225 2590   6.257   2.330   2.691  0.6131 -0.3983  0.2753
    7CHTO   O81 2591   6.250   2.164   2.825 -1.2181 -0.0591  0.3065
    7CHTO  H202 2592   6.203   2.176   2.905 -0.6181 -0.2297  0.6936
    7CHTO  C119 2593   6.199   2.147   2.589 -0.6452 -0.7807 -0.6252
    7CHTO  H223 2594   6.303   2.113   2.587 -0.4946 -0.3221 -2.8474
    7CHTO  C117 2595   6.160   2.215   2.456 -0.3350 -0.3602 -0.0978
    7CHTO  H221 2596   6.153   2.153   2.367 -1.6077 -0.5452  0.1346
    7CHTO   N20 2597   6.238   2.338   2.406  0.0490  0.4953  1.3607
    7CHTO  H209 2598   6.336   2.306   2.374  0.4827  0.4911  2.6924
    7CHTO  H210 2599   6.237   2.417   2.479  1.5294  1.0964  0.7637
    7CHTO   O80 2600   6.128   2.011   2.605 -0.1190 -0.0359 -0.7081
    7CHTO  C103 2601   6.190   1.872   2.539  0.5864 -0.0471  0.2144
    7CHTO  H190 2602   6.183   1.874   2.430  3.4793  2.3110  0.0123
    7CHTO  C101 2603   6.335   1.838   2.569  0.8105 -0.3024 -0.3398
    7CHTO  H188 2604   6.349   1.853   2.676  0.7286 -0.0526 -0.3638
    7CHTO   O68 2605   6.437   1.932   2.483  0.0057 -0.3175 -0.8017
    7CHTO  H168 2606   6.387   2.002   2.446 -1.2938 -0.3294  0.9008
    7CHTO   C99 2607   6.355   1.685   2.519 -0.3298 -0.6242  0.2389
    7CHTO  H186 2608   6.356   1.690   2.408  0.4546 -0.7695  0.2352
    7CHTO   N17 2609   6.494   1.636   2.556 -0.2854 -0.2526  0.2889
    7CHTO  H174 2610   6.495   1.632   2.664 -1.2018  3.1440  0.4586
    7CHTO  H175 2611   6.526   1.546   2.504  0.2059 -0.2030  0.4959
    7CHTO   C97 2612   6.244   1.582   2.556  0.0781  0.6021  0.6136
    7CHTO  H184 2613   6.262   1.566   2.664 -0.5639  0.7398  0.7441
    7CHTO   O64 2614   6.117   1.646   2.531  0.1782  0.6434  0.1560
    7CHTO  C104 2615   6.084   1.771   2.587 -0.0036 -0.4257 -0.2314
    7CHTO  H191 2616   6.078   1.770   2.696  0.5375 -2.0814 -0.1978
    7CHTO  C108 2617   5.945   1.802   2.533  0.1586 -0.6654 -0.2091
    7CHTO   O71 2618   5.851   1.701   2.581  0.2583 -0.3892 -0.1503
    7CHTO  H171 2619   5.773   1.708   2.530  1.9860  0.5510 -2.7303
    7CHTO   O62 2620   6.240   1.457   2.483 -0.5059  0.5779  0.9589
    7CHTO   C91 2621   6.180   1.336   2.545 -0.1883 -0.1713  0.2648
    7CHTO  H178 2622   6.183   1.261   2.466  1.5283 -0.3024  0.4399
    7CHTO   C92 2623   6.032   1.348   2.588 -0.1917 -0.6568 -0.1530
    7CHTO  H179 2624   6.028   1.434   2.656  0.1417 -2.6144  2.4206
    7CHTO   O66 2625   5.963   1.377   2.465 -0.1825  0.3524 -0.0686
    7CHTO  H166 2626   5.968   1.471   2.460 -0.4666  0.4180  0.7685
    7CHTO   C93 2627   5.971   1.223   2.667  0.5384  0.6294 -0.3136
    7CHTO  H180 2628   5.923   1.158   2.593  3.3465 -2.3614  0.3493
    7CHTO   N16 2629   5.853   1.256   2.748 -0.3856  0.3343 -0.1165
    7CHTO  H172 2630   5.834   1.184   2.827  0.5354  0.1474 -0.0506
    7CHTO  H173 2631   5.768   1.269   2.683 -0.0517 -1.5700 -0.9647
    7CHTO   C94 2632   6.074   1.133   2.748 -0.0875  0.0491 -0.1941
    7CHTO  H181 2633   6.074   1.158   2.854  0.5835  1.2560 -0.4669
    7CHTO   O61 2634   6.213   1.142   2.694  0.4998  0.3983 -0.3544
    7CHTO   C95 2635   6.264   1.269   2.664  0.6478 -0.5485 -0.0593
    7CHTO  H182 2636   6.246   1.334   2.750 -1.1773 -0.4233 -0.5117
    7CHTO  C106 2637   6.424   1.261   2.628 -0.1431 -0.2239 -0.4237
    7CHTO   O69 2638   6.444   1.202   2.500  0.2623  0.2403 -0.1108
    7CHTO  H169 2639   6.535   1.184   2.484 -0.3216 -1.7430 -1.3964
    7CHTO   O63 2640   6.039   0.980   2.737 -0.2426  0.4058 -0.0711
    7CHTO   C96 2641   6.035   0.901   2.863  0.7314 -0.9258 -0.3219
    7CHTO  H183 2642   6.030   0.965   2.951 -1.6872  0.1564 -1.2083
    7CHTO   C98 2643   6.169   0.812   2.872 -0.0107  0.0380  0.2892
    7CHTO  H185 2644   6.195   0.751   2.784  1.4812 -0.9373  1.3891
    7CHTO   O67 2645   6.282   0.912   2.882  0.3739 -0.5675 -0.1416
    7CHTO  H167 2646   6.355   0.853   2.874  1.9875  1.0699  1.8866
    7CHTO  C102 2647   6.162   0.712   2.991 -0.8477 -0.3646 -0.3109
    7CHTO  H189 2648   6.168   0.777   3.079  1.4561 -1.0596  0.0874
    7CHTO   N18 2649   6.279   0.620   2.992  0.0023  0.5815 -0.5189
    7CHTO  H176 2650   6.375   0.665   3.009 -0.1959  0.4714  0.9051
    7CHTO  H177 2651   6.288   0.568   2.898 -1.5711 -0.4022 -0.1436
    7CHTO  C105 2652   6.026   0.636   2.990  0.0242  0.2709 -0.0341
    7CHTO  H192 2653   6.024   0.574   2.900  4.8047  0.2047 -0.2151
    7CHTO   O65 2654   5.916   0.727   2.989 -0.5231 -0.2292  0.0167
    7CHTO  C100 2655   5.912   0.810   2.874 -0.1268  0.5977  0.1783
    7CHTO  H187 2656   5.900   0.760   2.777 -0.7037  2.5217 -0.7565
    7CHTO  C107 2657   5.781   0.896   2.880  0.0782 -0.1915 -0.3708
    7CHTO   O70 2658   5.780   0.999   2.980 -0.2010 -0.5270 -0.3637
    7CHTO  H170 2659   5.725   1.072   2.960 -1.5845 -1.7235 -0.9625
    7CHTO   O57 2660   6.029   0.551   3.131  0.2648  0.0299 -0.3030
    7CHTO   C85 2661   6.011   0.412   3.131  0.0082 -0.1501  0.3463
    7CHTO  H157 2662   6.058   0.392   3.033 -1.0155 -2.2513  0.2329
    7CHTO   C83 2663   5.862   0.374   3.120 -0.0106  0.4992 -0.6598
    7CHTO  H155 2664   5.818   0.403   3.025 -0.9225 -0.9781 -0.7086
    7CHTO   O56 2665   5.789   0.447   3.219  0.0301  0.4464  0.2926
    7CHTO  H135 2666   5.755   0.523   3.176 -0.6661 -0.4902 -0.8437
    7CHTO   C81 2667   5.850   0.215   3.129  0.0085  0.6228  0.2861
    7CHTO  H153 2668   5.903   0.172   3.044 -2.4463  0.0603 -1.0059
    7CHTO   N14 2669   5.711   0.173   3.113  0.0393 -0.8658  0.3983
    7CHTO  H141 2670   5.701   0.127   3.017  2.5471  0.0205 -0.3244
    7CHTO  H142 2671   5.642   0.254   3.118  0.8318 -0.0635 -1.1944
    7CHTO   C79 2672   5.908   0.158   3.260  0.4096 -0.5737  0.1376
    7CHTO  H151 2673   5.902   0.049   3.259 -0.6669 -0.5355  1.9288
    7CHTO   O52 2674   6.047   0.194   3.271 -0.0053 -0.1538  0.3034
    7CHTO   C86 2675   6.087   0.336   3.252  0.0136 -0.9433 -0.1029
    7CHTO  H158 2676   6.070   0.392   3.347 -1.2144 -2.1894  0.4339
    7CHTO   C90 2677   6.241   0.330   3.232  0.8717 -0.2649  0.6726
    7CHTO   O60 2678   6.287   0.279   3.106  0.0799  0.0308 -0.1470
    7CHTO  H138 2679   6.268   0.345   3.042  3.3083  1.8122  0.6328
    7CHTO   O50 2680   5.842   0.209   3.377 -0.3845 -0.3505  0.3517
    7CHTO   C73 2681   5.802   0.123   3.488 -0.0101  0.6437  0.4439
    7CHTO  H145 2682   5.884   0.051   3.499 -1.3212 -1.2786 -1.8767
    7CHTO   C74 2683   5.666   0.048   3.454  0.4534 -0.2774 -0.3330
    7CHTO  H146 2684   5.675  -0.010   3.360  0.4372 -0.2499 -0.3514
    7CHTO   O54 2685   5.634  -0.046   3.560  0.2274 -0.6656  0.1852
    7CHTO  H133 2686   5.554  -0.087   3.536 -0.4453  2.5451 -3.6494
    7CHTO   C75 2687   5.554   0.159   3.447  0.9748 -0.1631 -0.2326
    7CHTO  H147 2688   5.581   0.226   3.364  2.0051  0.0431  0.2578
    7CHTO   N13 2689   5.414   0.106   3.414 -0.4404 -0.5643 -0.6002
    7CHTO  H139 2690   5.402  -0.000   3.403 -1.4994 -0.3524 -1.5363
    7CHTO  H140 2691   5.339   0.139   3.484  0.4159 -1.5190  0.7981
    7CHTO   C76 2692   5.550   0.238   3.583 -0.5480  0.2390  0.1928
    7CHTO  H148 2693   5.524   0.174   3.667 -0.4646  1.0702  0.8647
    7CHTO   O49 2694   5.679   0.299   3.624 -0.5156  0.6147 -0.5862
    7CHTO   C77 2695   5.785   0.210   3.622 -0.5822 -0.3242  0.2613
    7CHTO  H149 2696   5.769   0.144   3.707  0.9730 -1.1892 -0.0929
    7CHTO   C88 2697   5.918   0.290   3.645  0.6004 -0.5602  0.0362
    7CHTO   O58 2698   5.935   0.399   3.556  0.1933 -0.2800 -0.3142
    7CHTO  H136 2699   5.967   0.372   3.471  0.6993  1.9975 -0.8767
    7CHTO   O51 2700   5.462   0.357   3.572 -0.1782  0.1835  0.2536
    7CHTO   C78 2701   5.430   0.429   3.719  0.6282 -0.0652 -0.0269
    7CHTO  H150 2702   5.503   0.392   3.794  0.3457  0.8488  0.7105
    7CHTO   C80 2703   5.282   0.386   3.759  0.4024  0.7350  0.3197
    7CHTO  H152 2704   5.219   0.414   3.673 -1.3181 -1.6104  0.7662
    7CHTO   O55 2705   5.283   0.243   3.762 -1.1651 -0.2142 -0.1002
    7CHTO  H134 2706   5.220   0.211   3.700 -0.8822 -0.0872 -0.4539
    7CHTO   C84 2707   5.230   0.448   3.897 -0.0916 -0.1792 -0.0674
    7CHTO  H156 2708   5.287   0.409   3.981  0.3452  0.4810 -0.0517
    7CHTO   N15 2709   5.087   0.419   3.920  0.3020  0.2736  0.4553
    7CHTO  H143 2710   5.039   0.458   3.833 -0.0355  1.2477  1.0749
    7CHTO  H144 2711   5.074   0.313   3.920  1.1539  0.1314 -2.1105
    7CHTO   C87 2712   5.266   0.598   3.901 -0.2678 -0.7710 -0.7661
    7CHTO  H159 2713   5.196   0.650   3.836  0.1781 -0.3491 -0.9158
    7CHTO   O53 2714   5.410   0.629   3.862 -0.1162 -0.1792  0.4116
    7CHTO   C82 2715   5.440   0.584   3.730 -0.0100  0.1346  0.6216
    7CHTO  H154 2716   5.371   0.635   3.663  1.2169  1.3623  0.2852
    7CHTO   C89 2717   5.580   0.628   3.694  0.2335  0.5764  0.7766
    7CHTO   O59 2718   5.625   0.593   3.563  0.1687  0.0727 -0.5533
    7CHTO  H137 2719   5.665   0.664   3.518  1.0429 -0.5149 -0.7209
    7CHTO   O45 2720   5.241   0.659   4.049 -0.1839 -0.1778 -0.1056
    7CHTO   C67 2721   5.211   0.802   4.052  0.4807 -0.3596 -0.0892
    7CHTO  H124 2722   5.276   0.856   3.983  0.1224  0.3927  0.1576
    7CHTO   C65 2723   5.058   0.823   4.008  0.0651  0.2438  0.4072
    7CHTO  H122 2724   5.013   0.725   4.022  1.8609 -0.6806 -0.1494
    7CHTO   O44 2725   5.067   0.849   3.865  0.3103  0.0496 -1.1668
    7CHTO  H102 2726   5.018   0.919   3.827  0.0495 -0.1068 -1.1193
    7CHTO   C63 2727   4.969   0.923   4.087  0.1868 -0.3178 -0.1534
    7CHTO  H120 2728   4.945   0.884   4.186  1.5147  0.4352  0.4813
    7CHTO   N11 2729   4.830   0.948   4.025 -1.0335 -0.4662 -0.0678
    7CHTO  H108 2730   4.833   0.980   3.923  4.2049 -0.8830 -0.1891
    7CHTO  H109 2731   4.765   0.866   4.048 -2.0777  0.6420  0.9926
    7CHTO   C61 2732   5.059   1.050   4.111 -0.1961  0.4159  0.5907
    7CHTO  H118 2733   5.001   1.118   4.175 -1.0729 -0.9726  1.2879
    7CHTO   O40 2734   5.179   1.021   4.180 -0.0708 -0.4190  0.6413
    7CHTO   C68 2735   5.233   0.883   4.182  0.0966  0.1518 -0.5166
    7CHTO  H125 2736   5.185   0.824   4.263  2.2336 -0.6936  0.1750
    7CHTO   C72 2737   5.385   0.884   4.218  0.9162  0.0434  0.8497
    7CHTO   O48 2738   5.418   0.947   4.348 -0.0108  0.1021  0.3993
    7CHTO  H105 2739   5.393   1.037   4.345 -2.3439 -0.4395  2.0333
    7CHTO   O38 2740   5.085   1.119   3.986  0.0617  0.1322  0.0697
    7CHTO   C55 2741   5.161   1.242   3.982 -0.1680 -0.6776 -0.4384
    7CHTO  H112 2742   5.212   1.256   4.078 -0.9443  0.8591 -0.2281
    7CHTO   C56 2743   5.060   1.357   3.959  0.1170 -1.0394 -0.8698
    7CHTO  H113 2744   5.010   1.330   3.864 -1.2471  1.5671 -0.9298
    7CHTO   O42 2745   4.957   1.362   4.062  0.7302 -0.2019 -0.0136
    7CHTO  H100 2746   4.926   1.449   4.078 -1.3665 -1.1013  0.9345
    7CHTO   C57 2747   5.145   1.494   3.940  0.0022  0.3561  0.0786
    7CHTO  H114 2748   5.173   1.538   4.036 -0.3154  0.6319  0.0474
    7CHTO   N10 2749   5.058   1.602   3.886  0.0912 -0.3392  0.5139
    7CHTO  H106 2750   4.999   1.565   3.804  1.8317 -2.2942  0.0860
    7CHTO  H107 2751   4.994   1.632   3.967 -2.0185  0.4243 -1.3800
    7CHTO   C58 2752   5.274   1.483   3.859 -0.3907  0.6222 -0.2542
    7CHTO  H115 2753   5.251   1.473   3.750  1.3709  4.2146 -1.0290
    7CHTO   O37 2754   5.347   1.373   3.909  0.4066 -0.3999 -0.3595
    7CHTO   C59 2755   5.277   1.248   3.881 -0.1420  0.4258 -0.2954
    7CHTO  H116 2756   5.241   1.236   3.779 -0.4080 -2.9625  0.1340
    7CHTO   C70 2757   5.380   1.134   3.903 -0.8115  0.8685 -0.9467
    7CHTO   O46 2758   5.486   1.161   3.809  0.1145  0.6274  0.0291
    7CHTO  H103 2759   5.523   1.083   3.772  0.6911  1.1147 -0.4443
    7CHTO   O39 2760   5.367   1.599   3.883 -0.7477  0.1136 -0.4833
    7CHTO   C60 2761   5.479   1.596   3.791  0.3652 -1.1106 -0.0201
    7CHTO  H117 2762   5.496   1.490   3.770 -2.6931 -1.7238  0.3405
    7CHTO   C62 2763   5.444   1.657   3.652 -0.1415  0.0869 -0.2840
    7CHTO  H119 2764   5.352   1.610   3.613  0.1922  0.0960 -1.1006
    7CHTO   O43 2765   5.421   1.792   3.677 -0.1931 -0.2636 -0.6724
    7CHTO  H101 2766   5.396   1.834   3.597 -2.1888  0.2327  0.1811
    7CHTO   C66 2767   5.564   1.642   3.537 -0.8083 -0.2040 -0.2143
    7CHTO  H123 2768   5.597   1.538   3.532  1.4985  0.4162  1.5849
    7CHTO   N12 2769   5.524   1.687   3.398 -0.5935 -0.0713  0.3551
    7CHTO  H110 2770   5.427   1.648   3.371 -1.3492  1.3265  0.9964
    7CHTO  H111 2771   5.523   1.792   3.420  0.7448  0.1460 -0.5611
    7CHTO   C69 2772   5.688   1.718   3.595 -0.4697 -0.1234 -0.2756
    7CHTO  H126 2773   5.687   1.828   3.578 -2.6456 -0.5140 -2.9941
    7CHTO   O41 2774   5.716   1.662   3.762  0.1931  0.1987 -0.0751
    7CHTO   C64 2775   5.612   1.660   3.856  0.3085  0.3363  0.4922
    7CHTO  H121 2776   5.588   1.766   3.875 -1.7137  0.2637 -1.4282
    7CHTO   C71 2777   5.664   1.589   3.978  0.1178 -0.0926 -0.0546
    7CHTO   O47 2778   5.754   1.668   4.057 -0.4946  0.1534 -0.2449
    7CHTO  H104 2779   5.832   1.690   4.010 -1.9763  2.0253 -1.8802
    7CHTO   O34 2780   5.819   1.667   3.514  0.1883 -0.1412 -0.3692
    7CHTO   C49 2781   5.960   1.743   3.479 -0.6142  0.0013  0.3166
    7CHTO   H91 2782   5.930   1.816   3.403 -0.5007 -0.0227  0.2478
    7CHTO   C47 2783   6.045   1.636   3.402  0.1204 -0.0921  0.1768
    7CHTO   H89 2784   6.128   1.696   3.358 -0.4634 -0.1356 -1.0059
    7CHTO   O33 2785   5.964   1.585   3.291  0.3097  0.1041 -0.3210
    7CHTO   H70 2786   5.970   1.494   3.271  0.2963  0.4561 -2.0074
    7CHTO   C45 2787   6.111   1.525   3.503  0.0319 -1.0278  0.2138
    7CHTO   H87 2788   6.056   1.431   3.487  0.3560 -0.8432 -2.0892
    7CHTO    N8 2789   6.259   1.515   3.469 -0.4032 -0.0093  0.5389
    7CHTO   H75 2790   6.311   1.449   3.538  0.1114 -1.2854 -1.0287
    7CHTO   H76 2791   6.263   1.478   3.368 -0.9686 -1.9929  1.2142
    7CHTO   C43 2792   6.087   1.575   3.654 -0.0462  0.1263 -0.5737
    7CHTO   H85 2793   5.980   1.561   3.670  0.1013  0.9146  1.2316
    7CHTO   O29 2794   6.124   1.709   3.675  0.1062  0.1702  0.2482
    7CHTO   C50 2795   6.046   1.802   3.598 -0.5409 -0.0247 -0.3765
    7CHTO   H92 2796   5.965   1.847   3.657 -0.1248  3.2272 -2.2361
    7CHTO   C54 2797   6.127   1.920   3.553 -0.0643  0.3825 -0.7068
    7CHTO   O36 2798   6.241   1.883   3.481 -0.4108  0.7361  0.1599
    7CHTO   H72 2799   6.303   1.949   3.504 -1.2785  1.1965  1.1974
    7CHTO   O27 2800   6.164   1.501   3.751  0.0109  0.5901  0.4917
    7CHTO   C37 2801   6.207   1.394   3.830 -0.2826 -0.5237 -0.1019
    7CHTO   H79 2802   6.194   1.412   3.937 -0.0441  0.7065 -0.2742
    7CHTO   C38 2803   6.145   1.261   3.787  0.6682  0.4124 -0.3187
    7CHTO   H80 2804   6.156   1.258   3.677  0.3150 -1.5754 -0.3227
    7CHTO   O31 2805   6.009   1.270   3.818 -0.6232  0.3067  0.2684
    7CHTO   H68 2806   5.959   1.193   3.802 -1.8224  1.0468  0.3414
    7CHTO   C39 2807   6.217   1.135   3.856  0.4869  0.1836 -0.3245
    7CHTO   H81 2808   6.186   1.129   3.960 -2.1789  0.6521 -1.0610
    7CHTO    N7 2809   6.173   1.009   3.794 -0.3523  1.0828 -0.4964
    7CHTO   H73 2810   6.196   1.025   3.690 -0.9547 -0.8985 -0.9639
    7CHTO   H74 2811   6.227   0.930   3.844 -0.4930  1.5355  0.3696
    7CHTO   C40 2812   6.373   1.151   3.850  0.0585 -0.2604  0.6088
    7CHTO   H82 2813   6.408   1.132   3.748  2.4264  1.7699  1.0066
    7CHTO   O26 2814   6.407   1.284   3.892 -0.3318 -0.2606  0.6211
    7CHTO   C41 2815   6.359   1.390   3.808  0.2629  0.3165 -0.3970
    7CHTO   H83 2816   6.380   1.368   3.702 -1.3684 -2.7124 -0.1313
    7CHTO   C52 2817   6.429   1.518   3.842 -0.3742  0.1586  0.3684
    7CHTO   O35 2818   6.579   1.518   3.850 -0.9231 -0.3150 -0.0359
    7CHTO   H71 2819   6.608   1.496   3.936 -2.2685  1.2902  0.8757
    7CHTO   O28 2820   6.439   1.076   3.955  0.3047  0.1243 -0.2732
    7CHTO   C42 2821   6.584   1.035   3.945  0.7525  0.4649 -1.3534
    7CHTO   H84 2822   6.592   0.973   4.034 -0.7699  0.9840 -0.8356
    7CHTO   C44 2823   6.686   1.153   3.965 -0.9058  0.0826  0.0845
    7CHTO   H86 2824   6.661   1.236   3.899 -1.5386  0.6511  1.0371
    7CHTO   O32 2825   6.661   1.206   4.092  0.2820 -0.0293 -0.4856
    7CHTO   H69 2826   6.573   1.232   4.107 -0.0026 -1.3987  0.2918
    7CHTO   C48 2827   6.838   1.104   3.953  1.3821  0.3476 -0.1199
    7CHTO   H90 2828   6.864   1.031   4.030 -1.3473  1.9403  2.4509
    7CHTO    N9 2829   6.931   1.221   3.968 -0.0400  0.4442  0.2604
    7CHTO   H77 2830   7.029   1.192   3.933 -1.0355 -1.6326 -0.9445
    7CHTO   H78 2831   6.943   1.260   4.068 -0.1706  1.3319 -0.0689
    7CHTO   C51 2832   6.854   1.035   3.812  0.1389  0.3745 -0.7813
    7CHTO   H93 2833   6.810   1.104   3.740 -1.1677 -0.2770 -0.6395
    7CHTO   O30 2834   6.772   0.913   3.822 -0.1176  0.5877 -0.6097
    7CHTO   C46 2835   6.620   0.948   3.822  0.0680 -0.4082  0.1512
    7CHTO   H88 2836   6.586   1.014   3.743  0.8131  0.1181  0.2641
    7CHTO   C53 2837   6.553   0.813   3.815 -0.0404 -0.0738 -0.0688
    7CHTO   O72 2838   6.571   0.737   3.692 -0.1221 -0.0753 -1.1236
    7CHTO  H199 2839   6.663   0.720   3.687  0.0805  1.1196 -1.8243
    7CHTO   O22 2840   6.984   0.986   3.773 -0.4852 -0.3592  0.6527
    7CHTO   C31 2841   7.042   0.957   3.636  0.1297 -0.2906  0.4200
    7CHTO   H59 2842   7.148   0.929   3.651  0.3226  0.7505  1.0076
    7CHTO   C29 2843   6.977   0.843   3.564  0.4705  0.0159  0.7370
    7CHTO   H57 2844   6.867   0.849   3.561  0.4412 -1.0984 -1.4189
    7CHTO   O21 2845   7.003   0.731   3.649 -0.4651 -0.3153  0.3364
    7CHTO   H37 2846   6.985   0.656   3.596 -1.1075  2.0871 -3.0679
    7CHTO   C27 2847   7.040   0.821   3.420  0.0209 -0.1092  0.5335
    7CHTO   H55 2848   7.138   0.775   3.434  0.2866 -0.1531 -1.4576
    7CHTO    N5 2849   6.953   0.730   3.346  0.0751 -0.2707  0.1807
    7CHTO   H43 2850   6.902   0.781   3.265  0.1976  0.9657  0.8756
    7CHTO   H44 2851   7.014   0.650   3.309 -1.7369 -1.9284  0.6955
    7CHTO   C25 2852   7.051   0.961   3.341 -0.2057  0.3924  0.4349
    7CHTO   H53 2853   6.956   0.983   3.290  0.7369 -0.0073 -1.5113
    7CHTO   O17 2854   7.108   1.069   3.424  0.1884  0.1268  0.0397
    7CHTO   C32 2855   7.048   1.090   3.554  0.1080 -0.6092 -0.1988
    7CHTO   H60 2856   6.946   1.124   3.536 -0.6904 -2.0728  1.3345
    7CHTO   C36 2857   7.124   1.205   3.622 -0.0105  0.0925  0.4962
    7CHTO   O25 2858   7.083   1.326   3.569 -0.2919  0.3793  0.4040
    7CHTO   H40 2859   7.146   1.365   3.512 -1.3166 -0.5606 -1.4462
    7CHTO   O15 2860   7.146   0.938   3.203 -0.6009  0.2880 -0.0668
    7CHTO   C19 2861   7.133   1.006   3.074  0.1040  0.1793 -0.6687
    7CHTO   H47 2862   7.169   0.937   2.997 -0.7919 -1.1318  0.0738
    7CHTO   C20 2863   6.993   1.053   3.039  0.8178 -0.3316  0.2007
    7CHTO   H48 2864   6.955   1.127   3.111  1.9103 -0.5472  1.0323
    7CHTO   O19 2865   6.904   0.939   3.035  0.4203  0.3963  0.4050
    7CHTO   H35 2866   6.825   0.964   2.991  0.9153  1.1588 -0.0499
    7CHTO   C21 2867   6.983   1.129   2.900 -0.2926  0.2725 -0.6050
    7CHTO   H49 2868   7.010   1.052   2.827  1.8303  1.2489 -0.9120
    7CHTO    N4 2869   6.848   1.180   2.868 -0.3708 -0.4645  0.1687
    7CHTO   H41 2870   6.855   1.287   2.859  3.3862 -0.5928  0.8951
    7CHTO   H42 2871   6.811   1.135   2.777 -0.8567  0.8350 -0.2896
    7CHTO   C22 2872   7.095   1.237   2.899  0.3460  0.3187 -0.0828
    7CHTO   H50 2873   7.064   1.310   2.974 -2.3539 -0.8574  0.0005
    7CHTO   O14 2874   7.226   1.186   2.942 -0.0809  0.3061  0.7469
    7CHTO   C23 2875   7.227   1.125   3.071 -0.3341  0.5993 -0.1520
    7CHTO   H51 2876   7.195   1.200   3.145 -1.5845 -0.1967  0.1250
    7CHTO   C34 2877   7.371   1.079   3.103 -0.1766  0.1382 -0.4726
    7CHTO   O23 2878   7.470   1.181   3.085  0.1879  0.1790 -0.2920
    7CHTO   H38 2879   7.450   1.223   3.004  2.5370  2.0814  0.0964
    7CHTO   O16 2880   7.129   1.279   2.766 -0.2858  0.2281 -0.2901
    7CHTO   C24 2881   7.092   1.438   2.747 -0.1353  0.1991  0.2754
    7CHTO   H52 2882   7.016   1.468   2.819  1.1441  0.2344  1.6337
    7CHTO   C26 2883   7.040   1.467   2.602  0.4284 -0.3361  0.3416
    7CHTO   H54 2884   7.115   1.432   2.528 -0.0250 -1.0114  0.2074
    7CHTO   O20 2885   6.918   1.387   2.585  0.2214 -0.3244 -0.3554
    7CHTO   H36 2886   6.884   1.411   2.501 -0.5051  1.0667  0.3161
    7CHTO   C30 2887   7.006   1.619   2.593 -0.1803  0.4375  0.4646
    7CHTO   H58 2888   6.913   1.645   2.645 -0.1614  2.5233 -0.4860
    7CHTO    N6 2889   6.974   1.663   2.456 -0.0603  0.4035 -0.2276
    7CHTO   H45 2890   6.887   1.607   2.421 -0.2471  0.0156  0.8430
    7CHTO   H46 2891   7.058   1.647   2.389  0.6283  1.0244  0.4875
    7CHTO   C33 2892   7.114   1.714   2.656  0.2598  0.1283 -1.4493
    7CHTO   H61 2893   7.150   1.784   2.579  0.7488 -1.6953 -2.9145
    7CHTO   O18 2894   7.232   1.649   2.704  0.1787 -0.0354  0.3630
    7CHTO   C28 2895   7.218   1.525   2.781 -0.5519 -0.6276 -0.1483
    7CHTO   H56 2896   7.306   1.462   2.770  1.0980  1.3123  1.5588
    7CHTO   C35 2897   7.222   1.570   2.933  0.4938  0.1066 -0.2692
    7CHTO   O24 2898   7.265   1.466   3.022  0.5138 -0.1150 -0.0948
    7CHTO   H39 2899   7.186   1.421   3.044  0.3444  1.2390  2.2165
    7CHTO    O9 2900   7.055   1.798   2.762  0.0939  0.0272  0.2852
    7CHTO   C13 2901   7.010   1.955   2.728 -0.4202  0.5931  0.0838
    7CHTO   H26 2902   6.955   1.952   2.632  1.4629  0.9806 -1.0153
    7CHTO   C11 2903   7.138   2.046   2.721  0.0132  0.0649  0.7002
    7CHTO   H24 2904   7.191   2.016   2.629  2.3023  0.7780  1.7380
    7CHTO    O8 2905   7.217   2.013   2.830 -0.0627  0.4858  0.5295
    7CHTO    H3 2906   7.304   2.012   2.793 -0.9963  0.5748 -1.7114
    7CHTO    C9 2907   7.103   2.199   2.710 -0.5112  0.1228 -0.0374
    7CHTO   H22 2908   7.039   2.209   2.621 -0.3692  3.7990  0.1923
    7CHTO    N2 2909   7.221   2.285   2.694  0.2186  0.0377  0.1535
    7CHTO   H10 2910   7.316   2.243   2.726 -0.2872 -0.6695  0.7582
    7CHTO   H11 2911   7.221   2.330   2.596  0.6128  0.4589  0.3443
    7CHTO    C7 2912   7.013   2.232   2.840 -0.1589  0.8952 -0.2708
    7CHTO   H20 2913   6.975   2.336   2.835  0.1612  0.9622 -1.3380
    7CHTO    O4 2914   6.899   2.143   2.850  0.6849 -0.9974  0.1133
    7CHTO   C14 2915   6.906   2.004   2.836 -0.0866  0.5226 -0.1596
    7CHTO   H27 2916   6.807   1.971   2.796  0.6299  0.8543 -2.2639
    7CHTO   C18 2917   6.921   1.944   2.973  0.3274  0.4312  0.2908
    7CHTO   O13 2918   6.799   1.901   3.027  0.6228 -0.0800 -0.4528
    7CHTO    H7 2919   6.730   1.964   3.021 -0.2173 -0.9466  0.0424
    7CHTO    O2 2920   7.091   2.219   2.991  0.2856  0.3535 -0.0448
    7CHTO    C1 2921   7.102   2.321   3.091 -0.4125 -0.4075  0.2061
    7CHTO   H14 2922   7.061   2.418   3.059 -0.0638 -0.4198 -0.2766
    7CHTO    C2 2923   7.254   2.343   3.134 -0.0587  0.0352 -0.1853
    7CHTO   H15 2924   7.287   2.245   3.171 -0.2383 -0.3347 -0.9922
    7CHTO    O6 2925   7.333   2.391   3.027 -0.4904  0.0946 -0.2154
    7CHTO    H1 2926   7.414   2.414   3.067 -1.2402  1.0259  0.7811
    7CHTO    C3 2927   7.265   2.443   3.255  0.0008 -0.1744  0.1489
    7CHTO   H16 2928   7.229   2.538   3.214 -0.9252  0.5936  2.6441
    7CHTO    N1 2929   7.405   2.465   3.309  0.0473 -0.8842 -0.0797
    7CHTO    H8 2930   7.399   2.526   3.398 -0.9763 -0.0768 -0.7010
    7CHTO    H9 2931   7.461   2.518   3.234  2.8063 -3.3140  0.1518
    7CHTO    C4 2932   7.161   2.402   3.364  0.0606 -0.2888 -0.0459
    7CHTO   H17 2933   7.199   2.313   3.414 -1.8435 -1.6065 -0.8469
    7CHTO    O1 2934   7.029   2.384   3.311  0.2202  0.0032  0.4978
    7CHTO    C5 2935   7.023   2.281   3.216 -0.4179 -0.1727  0.6476
    7CHTO   H18 2936   7.065   2.186   3.250 -2.9509 -1.0392  1.4782
    7CHTO   C16 2937   6.879   2.261   3.206  0.1256 -0.0567  0.2447
    7CHTO   O11 2938   6.824   2.173   3.300  0.4261 -0.1118  0.2547
    7CHTO    H5 2939   6.832   2.085   3.271  2.1184  0.3391 -0.7551
    7CHTO    O3 2940   7.144   2.510   3.457 -0.3891 -0.1228 -0.9527
    7CHTO    C6 2941   7.120   2.475   3.598 -0.7188  0.1847 -0.3525
    7CHTO   H19 2942   7.113   2.368   3.617  0.7744 -0.0960 -1.3129
    7CHTO    C8 2943   7.247   2.512   3.678  0.0280  0.1003 -0.4382
    7CHTO   H21 2944   7.274   2.616   3.656  1.0901  0.3995  2.1254
    7CHTO    O7 2945   7.349   2.430   3.633 -0.4216  0.0568  0.0358
    7CHTO    H2 2946   7.426   2.449   3.684  0.1674 -0.3220 -0.6950
    7CHTO   C12 2947   7.217   2.508   3.837 -0.2649 -0.4764  0.4718
    7CHTO   H25 2948   7.214   2.404   3.876  2.6400 -0.4747  0.8106
    7CHTO    N3 2949   7.334   2.557   3.919 -0.6122 -0.2663  0.4055
    7CHTO   H12 2950   7.334   2.664   3.938 -1.8825 -0.3975  1.1808
    7CHTO   H13 2951   7.361   2.498   4.005  2.6892 -0.3699 -0.6118
    7CHTO   C15 2952   7.076   2.573   3.868 -0.0037  0.1840  0.9740
    7CHTO   H28 2953   7.088   2.680   3.854  0.1052  0.0069 -0.3436
    7CHTO   O10 2954   7.031   2.539   3.993 -0.0718 -0.5654  0.1965
    7CHTO    H4 2955   6.972   2.600   4.032  2.1262  1.3243  0.6973
    7CHTO    O5 2956   6.971   2.519   3.787  0.4187  0.3002 -0.3445
    7CHTO   C10 2957   6.992   2.535   3.649 -0.6894 -0.3194 -0.1810
    7CHTO   H23 2958   6.984   2.642   3.627  1.5578 -0.4589 -1.9559
    7CHTO   C17 2959   6.870   2.475   3.579  0.1624  0.1711 -0.2196
    7CHTO   O12 2960   6.751   2.546   3.622 -0.0253  0.4807 -0.1426
    7CHTO    H6 2961   6.756   2.584   3.707 -2.2455 -1.3209  0.8653
    8CHTO  H203 2962   8.315   7.464   1.475  1.9120 -0.9743 -1.8782
    8CHTO   O82 2963   8.251   7.507   1.421  0.8371 -0.2637 -0.0940
    8CHTO  C123 2964   8.114   7.489   1.462  0.0820  0.1977 -0.3548
    8CHTO  H227 2965   8.110   7.423   1.550  1.0813 -0.3154 -0.6879
    8CHTO   O77 2966   8.075   7.626   1.507 -0.3249  0.1520  0.3688
    8CHTO  C118 2967   7.947   7.623   1.574  0.2379  0.1665  0.8371
    8CHTO  H222 2968   7.952   7.539   1.644  2.4149  0.7648  1.4666
    8CHTO  C125 2969   7.938   7.753   1.639  0.2319 -0.7703 -0.1114
    8CHTO   O84 2970   7.838   7.757   1.743 -0.1941 -0.4841  0.2867
    8CHTO  H205 2971   7.754   7.755   1.701  0.7622 -1.3472 -1.6481
    8CHTO  C114 2972   7.836   7.591   1.464  0.7984 -0.0463 -0.3570
    8CHTO  H218 2973   7.831   7.669   1.389 -0.2861  1.2913  1.0786
    8CHTO  C116 2974   7.866   7.457   1.392 -0.7104 -0.1186  0.2771
    8CHTO  H220 2975   7.845   7.374   1.464 -0.9709  0.6554  1.0971
    8CHTO   O79 2976   7.762   7.436   1.293  0.2442 -0.3921  0.0009
    8CHTO  H201 2977   7.791   7.360   1.245  0.9668 -0.5962  0.7467
    8CHTO  C120 2978   8.022   7.448   1.347  0.5792 -0.2700  0.0558
    8CHTO  H224 2979   8.040   7.517   1.262 -1.4671  2.3521  1.6763
    8CHTO   N21 2980   8.045   7.306   1.303 -0.1833  0.2531 -0.5283
    8CHTO  H211 2981   8.073   7.243   1.386 -0.7499  0.2390 -0.3490
    8CHTO  H212 2982   8.116   7.300   1.222 -0.4713 -1.7160 -0.6703
    8CHTO   O75 2983   7.708   7.573   1.540  0.5295 -0.5974 -0.0997
    8CHTO  C112 2984   7.567   7.609   1.461  0.5035 -0.0796  0.0017
    8CHTO  H216 2985   7.537   7.524   1.397  2.3672 -0.4006 -0.4930
    8CHTO   O73 2986   7.594   7.730   1.390 -0.1141  0.9835  0.6602
    8CHTO  C113 2987   7.478   7.780   1.311 -0.8175  0.3428  0.0569
    8CHTO  H217 2988   7.441   7.705   1.238 -1.2758  1.4908 -0.9100
    8CHTO  C124 2989   7.507   7.906   1.235  0.0499 -0.1941  0.0223
    8CHTO   O83 2990   7.619   7.906   1.147  0.4982 -0.1649  0.0002
    8CHTO  H204 2991   7.594   7.981   1.097  0.5393  0.2273  0.5531
    8CHTO  C109 2992   7.354   7.797   1.412  0.4936 -0.4488 -0.3312
    8CHTO  H213 2993   7.373   7.892   1.465  1.0785 -0.0818 -1.1811
    8CHTO  C110 2994   7.322   7.676   1.512  0.4424  0.1325 -0.0944
    8CHTO  H214 2995   7.262   7.604   1.456  0.4414  1.1324 -1.4039
    8CHTO   O78 2996   7.220   7.722   1.606  0.2502 -0.0758  0.3997
    8CHTO  H200 2997   7.236   7.807   1.641 -0.8865  0.6932 -0.8910
    8CHTO  C111 2998   7.458   7.626   1.576 -0.1041 -0.0950  1.4487
    8CHTO  H215 2999   7.499   7.702   1.644  1.5818  1.2738 -1.0161
    8CHTO   N19 3000   7.435   7.498   1.649  0.3649 -0.1558 -0.3832
    8CHTO  H207 3001   7.388   7.428   1.581 -2.0082  1.0748 -0.0573
    8CHTO  H208 3002   7.370   7.514   1.733  0.6127  0.9942 -0.3950
    8CHTO   O74 3003   7.239   7.812   1.323  0.5948 -0.5608  0.3066
    8CHTO  C115 3004   7.138   7.939   1.365  0.1156  0.1110 -0.3474
    8CHTO  H219 3005   7.035   7.905   1.366  1.5060 -4.4964  0.8988
    8CHTO   O76 3006   7.161   7.985   1.517 -0.2855 -0.5090  0.1863
    8CHTO  C122 3007   7.101   8.105   1.566 -0.0867  0.3718 -0.1168
    8CHTO  H226 3008   7.147   8.137   1.659  1.7238 -1.1146 -0.4806
    8CHTO  C126 3009   6.946   8.089   1.597 -0.0129  0.5523 -0.4233
    8CHTO   O85 3010   6.917   8.005   1.711 -0.3466 -0.5687  0.2720
    8CHTO  H206 3011   6.847   7.944   1.700  0.6215 -1.6128 -0.3051
    8CHTO  C121 3012   7.122   8.222   1.465  0.9292 -0.3409 -0.0991
    8CHTO  H225 3013   7.068   8.314   1.498 -1.5925 -2.1562  0.9461
    8CHTO   O81 3014   7.255   8.255   1.446 -0.9571 -0.1227 -0.0843
    8CHTO  H202 3015   7.268   8.348   1.444  1.4801 -0.4465 -2.5243
    8CHTO  C119 3016   7.075   8.180   1.320 -0.1169  0.2681  0.3553
    8CHTO  H223 3017   6.969   8.155   1.328 -1.0235  4.4089  2.6037
    8CHTO  C117 3018   7.156   8.057   1.265  0.6273 -0.3228  0.2950
    8CHTO  H221 3019   7.263   8.070   1.250  0.9932 -1.5965  1.7178
    8CHTO   N20 3020   7.100   8.020   1.129  0.4552 -0.7706 -0.4366
    8CHTO  H209 3021   7.146   7.934   1.082 -0.3596 -2.2761  1.4330
    8CHTO  H210 3022   6.994   7.999   1.136 -0.5097  3.9330  0.3777
    8CHTO   O80 3023   7.064   8.306   1.218  0.2035  0.4777 -0.2531
    8CHTO  C103 3024   6.994   8.470   1.275 -0.7301  0.2749  0.0497
    8CHTO  H190 3025   6.923   8.466   1.357  0.5845  1.7354  1.2663
    8CHTO  C101 3026   7.104   8.584   1.309 -0.3423 -0.0049 -0.2595
    8CHTO  H188 3027   7.189   8.574   1.241 -1.3164  0.9089 -1.6499
    8CHTO   O68 3028   7.153   8.568   1.480  1.0080  0.5021  0.1638
    8CHTO  H168 3029   7.105   8.623   1.539  2.6878 -0.4953  2.5694
    8CHTO   C99 3030   7.050   8.726   1.302  0.1862  0.4548 -0.0084
    8CHTO  H186 3031   6.975   8.740   1.383 -0.6428 -1.3631 -0.4508
    8CHTO   N17 3032   7.153   8.837   1.332  0.9461 -0.0152  0.4177
    8CHTO  H174 3033   7.142   8.913   1.256 -3.6676 -1.3521 -0.4479
    8CHTO  H175 3034   7.132   8.875   1.432 -0.7225  0.6943 -0.1815
    8CHTO   C97 3035   6.976   8.746   1.170  0.3266 -0.4498 -0.3446
    8CHTO  H184 3036   7.049   8.750   1.089  0.3885 -1.1088 -0.3238
    8CHTO   O64 3037   6.874   8.646   1.148 -0.0161  0.1909 -0.7033
    8CHTO  C104 3038   6.919   8.513   1.148  0.2259  0.2201  0.1509
    8CHTO  H191 3039   6.979   8.493   1.059  0.1629 -0.1148  0.1841
    8CHTO  C108 3040   6.794   8.431   1.135 -1.0173 -0.1482 -0.0677
    8CHTO   O71 3041   6.752   8.416   0.999  0.4942 -0.7631 -0.1449
    8CHTO  H171 3042   6.685   8.352   0.993 -0.1047 -0.3767  2.0333
    8CHTO   O62 3043   6.891   8.865   1.172 -0.5705 -0.3511  0.4987
    8CHTO   C91 3044   6.922   8.977   1.087  0.0835  0.6058  0.5147
    8CHTO  H178 3045   7.029   8.975   1.070 -0.0906 -0.5935 -0.5525
    8CHTO   C92 3046   6.882   9.119   1.148  0.2108  0.0348 -0.2063
    8CHTO  H179 3047   6.773   9.124   1.166  0.1056  1.8984 -1.3101
    8CHTO   O66 3048   6.950   9.134   1.274 -0.3989 -0.4724  0.6977
    8CHTO  H166 3049   6.902   9.181   1.339 -0.9087 -1.4680  1.0572
    8CHTO   C93 3050   6.915   9.236   1.060 -0.2630 -0.2844  0.6602
    8CHTO  H180 3051   7.024   9.247   1.052 -0.5496  0.4445 -3.5467
    8CHTO   N16 3052   6.879   9.368   1.109 -0.0476 -0.4465 -0.4677
    8CHTO  H172 3053   6.814   9.429   1.049  0.8794  1.0539  0.0322
    8CHTO  H173 3054   6.960   9.426   1.150  1.6226 -1.9215 -1.5755
    8CHTO   C94 3055   6.861   9.214   0.911  0.6041  0.4008  0.9359
    8CHTO  H181 3056   6.753   9.230   0.904  0.5160 -0.4278  0.3611
    8CHTO   O61 3057   6.892   9.078   0.877 -0.2971  0.2060 -0.9067
    8CHTO   C95 3058   6.845   8.971   0.957  0.0217  0.6636  0.6541
    8CHTO  H182 3059   6.739   8.981   0.979 -0.6966  0.8453 -2.6590
    8CHTO  C106 3060   6.853   8.839   0.864 -0.7818 -0.0746 -0.3575
    8CHTO   O69 3061   6.993   8.826   0.832  0.2585 -0.0200  0.5080
    8CHTO  H169 3062   7.043   8.810   0.910  0.3440 -1.2873  0.2047
    8CHTO   O63 3063   6.920   9.311   0.821 -0.7920 -0.3886 -0.0926
    8CHTO   C96 3064   6.837   9.312   0.681 -0.8511 -0.1401 -0.3990
    8CHTO  H183 3065   6.771   9.226   0.694  1.5486 -1.7275  1.6717
    8CHTO   C98 3066   6.932   9.280   0.564  1.1151  0.1512  0.5341
    8CHTO  H185 3067   7.013   9.354   0.563 -0.9322  2.4574 -2.1349
    8CHTO   O67 3068   6.996   9.152   0.586 -0.0670  0.4099 -0.6220
    8CHTO  H167 3069   7.089   9.154   0.600 -0.0168  1.6730 -1.0670
    8CHTO  C102 3070   6.858   9.277   0.419 -0.9967  0.8304 -0.0133
    8CHTO  H189 3071   6.782   9.198   0.428  0.1018 -0.1248  1.0066
    8CHTO   N18 3072   6.938   9.244   0.299 -0.2091 -0.0917 -0.1970
    8CHTO  H176 3073   6.876   9.230   0.212 -2.3087  2.4950  0.8437
    8CHTO  H177 3074   7.026   9.303   0.276 -1.9377  2.5550 -0.1164
    8CHTO  C105 3075   6.771   9.403   0.407 -0.0231  0.5005  0.1370
    8CHTO  H192 3076   6.838   9.489   0.401  0.5104  0.2545  2.1988
    8CHTO   O65 3077   6.684   9.435   0.515  0.1112 -0.4145 -0.5492
    8CHTO  C100 3078   6.760   9.439   0.638  0.2406 -0.1710  0.0018
    8CHTO  H187 3079   6.824   9.528   0.624 -1.4104  1.1964  0.9742
    8CHTO  C107 3080   6.663   9.478   0.761  0.3879 -0.1233 -0.2908
    8CHTO   O70 3081   6.622   9.614   0.768  0.4561  0.2035  0.2773
    8CHTO  H170 3082   6.608   9.660   0.848 -1.4792  0.8708 -0.4139
    8CHTO   O57 3083   6.676   9.377   0.277 -0.5432  0.0041 -0.0578
    8CHTO   C85 3084   6.646   9.486   0.184 -0.3245 -0.2881  0.2480
    8CHTO  H157 3085   6.738   9.514   0.129  0.2582  1.6124  2.0917
    8CHTO   C83 3086   6.605   9.618   0.251  0.2434 -1.1040  0.1962
    8CHTO  H155 3087   6.693   9.648   0.308 -0.0769 -0.8887  0.5766
    8CHTO   O56 3088   6.496   9.591   0.348  0.1944 -0.0886 -0.5092
    8CHTO  H135 3089   6.473   9.666   0.399 -1.7430 -0.7993 -0.2841
    8CHTO   C81 3090   6.570   9.736   0.153 -0.6558  0.4837 -0.3070
    8CHTO  H153 3091   6.651   9.738   0.080 -2.4526 -0.1631 -2.4062
    8CHTO   N14 3092   6.573   9.871   0.213  0.3820  0.6546  0.0916
    8CHTO  H141 3093   6.495   9.887   0.284 -1.5208 -1.8078 -1.3738
    8CHTO  H142 3094   6.567   9.935   0.128  3.2277 -1.8629 -2.1371
    8CHTO   C79 3095   6.446   9.694   0.078  0.0026 -0.5473  0.1789
    8CHTO  H151 3096   6.428   9.770   0.002  3.7449  1.7248  1.4496
    8CHTO   O52 3097   6.475   9.569   0.003  0.0082 -0.2350 -0.1045
    8CHTO   C86 3098   6.528   9.458   0.085  0.7628 -0.4046  0.0679
    8CHTO  H158 3099   6.437   9.428   0.141  1.4615  0.7650  1.9002
    8CHTO   C90 3100   6.554   9.341  -0.013  0.0155 -0.3579  0.6998
    8CHTO   O60 3101   6.431   9.285  -0.047 -0.3289  0.0731 -0.1498
    8CHTO  H138 3102   6.391   9.242   0.026 -2.0410  1.6942 -0.1153
    8CHTO   O50 3103   6.321   9.676   0.143  0.4103 -0.4528  0.1443
    8CHTO   C73 3104   6.176   9.680   0.127  0.1542  0.8780 -0.0977
    8CHTO  H145 3105   6.152   9.651   0.023 -0.9564  0.2013  0.3309
    8CHTO   C74 3106   6.124   9.819   0.160  0.6538  0.8639 -0.8883
    8CHTO  H146 3107   6.192   9.892   0.113  1.1264  1.2718  0.4086
    8CHTO   O54 3108   5.989   9.821   0.112  0.6150  0.0537  0.3171
    8CHTO  H133 3109   5.945   9.749   0.152  1.1818 -2.0272 -2.6226
    8CHTO   C75 3110   6.134   9.837   0.315  0.0804 -0.6673 -0.2331
    8CHTO  H147 3111   6.240   9.842   0.346 -0.0871 -1.4825  0.4905
    8CHTO   N13 3112   6.080   9.968   0.361 -0.1707 -0.2243 -1.0005
    8CHTO  H139 3113   6.146  10.049   0.332 -1.4862  2.5023  3.2203
    8CHTO  H140 3114   5.975   9.986   0.343 -0.5488 -0.1590  1.1786
    8CHTO   C76 3115   6.065   9.718   0.395  0.2167  0.3862 -0.0843
    8CHTO  H148 3116   5.957   9.721   0.381  0.3009 -3.9082 -2.5352
    8CHTO   O49 3117   6.122   9.586   0.350 -0.1779  0.2078  0.1112
    8CHTO   C77 3118   6.103   9.567   0.213  0.8108  0.8235 -0.3010
    8CHTO  H149 3119   5.997   9.573   0.189  1.3752  2.4247 -2.5508
    8CHTO   C88 3120   6.152   9.424   0.196 -0.0885  0.4739 -0.8423
    8CHTO   O58 3121   6.166   9.380   0.071 -0.1486 -0.3672 -0.5858
    8CHTO  H136 3122   6.206   9.296   0.064 -0.8193 -0.8406  1.1926
    8CHTO   O51 3123   6.115   9.710   0.549 -0.3869  0.1179  0.3685
    8CHTO   C78 3124   6.042   9.603   0.644 -0.0753 -0.5135  1.2240
    8CHTO  H150 3125   5.994   9.526   0.580 -2.1786  1.9791 -0.2954
    8CHTO   C80 3126   5.937   9.665   0.729  0.1819 -0.1103 -0.1931
    8CHTO  H152 3127   5.991   9.739   0.792  1.3402 -0.4203 -0.7955
    8CHTO   O55 3128   5.844   9.730   0.637 -0.1058  0.1088  1.0056
    8CHTO  H134 3129   5.854   9.823   0.638  1.0657 -0.0054  1.6463
    8CHTO   C84 3130   5.871   9.557   0.820  0.1115 -0.3220  0.2015
    8CHTO  H156 3131   5.811   9.493   0.756 -1.6925  1.1445  0.3618
    8CHTO   N15 3132   5.764   9.619   0.911 -0.3010  0.6163 -0.3797
    8CHTO  H143 3133   5.802   9.715   0.939 -1.2828  0.9046 -0.0258
    8CHTO  H144 3134   5.676   9.629   0.851 -0.9927  0.1713  0.5540
    8CHTO   C87 3135   5.973   9.486   0.905 -0.2037 -0.6544  0.0514
    8CHTO  H159 3136   6.032   9.556   0.965  1.1018 -2.9149  1.4369
    8CHTO   O53 3137   6.072   9.429   0.810  0.3901 -0.2398 -0.4868
    8CHTO   C82 3138   6.144   9.527   0.727  0.3152  0.3047 -0.0970
    8CHTO  H154 3139   6.203   9.596   0.786 -0.2513  0.9616 -0.2947
    8CHTO   C89 3140   6.236   9.445   0.641 -0.4987 -0.4196 -0.5396
    8CHTO   O59 3141   6.350   9.515   0.592  0.3244 -0.0612  0.0067
    8CHTO  H137 3142   6.420   9.465   0.629  1.5756 -0.0958 -2.3223
    8CHTO   O45 3143   5.921   9.377   1.000 -0.3034 -0.2635 -0.3334
    8CHTO   C67 3144   6.018   9.309   1.079  0.1667  0.0978 -0.3778
    8CHTO  H124 3145   6.106   9.296   1.016  0.4601  0.2125  0.0064
    8CHTO   C65 3146   6.051   9.390   1.214 -0.0426  0.3815  0.1113
    8CHTO  H122 3147   5.962   9.448   1.237  0.9452  1.6404  0.7886
    8CHTO   O44 3148   6.164   9.470   1.182  0.7264 -0.2318  0.0380
    8CHTO  H102 3149   6.148   9.521   1.105  1.2633 -1.3593 -0.8380
    8CHTO   C63 3150   6.057   9.296   1.344  0.3243 -0.0382 -0.4332
    8CHTO  H120 3151   5.957   9.258   1.364  1.0614 -1.1674  1.2479
    8CHTO   N11 3152   6.103   9.362   1.467 -0.4384  0.3999  0.6200
    8CHTO  H108 3153   6.095   9.298   1.552  0.3299 -4.7861 -2.9849
    8CHTO  H109 3154   6.039   9.445   1.488 -0.4397 -0.0603  2.5121
    8CHTO   C61 3155   6.134   9.156   1.312 -0.4391 -0.7418 -0.4022
    8CHTO  H118 3156   6.130   9.088   1.398  0.8213  0.0839  0.3238
    8CHTO   O40 3157   6.076   9.089   1.205 -0.0394  0.4354 -0.3339
    8CHTO   C68 3158   5.973   9.159   1.115  0.1981 -0.1300  0.3217
    8CHTO  H125 3159   5.874   9.155   1.164 -0.6428  1.3401 -1.1812
    8CHTO   C72 3160   5.958   9.069   0.988 -0.0572 -0.1253 -0.1373
    8CHTO   O48 3161   5.852   9.106   0.893 -0.2685  0.1019 -0.1200
    8CHTO  H105 3162   5.893   9.133   0.813  1.7447 -1.8107  0.2496
    8CHTO   O38 3163   6.272   9.178   1.285  0.4170  0.1365  0.3879
    8CHTO   C55 3164   6.361   9.067   1.268  0.3732  0.7167  0.0114
    8CHTO  H112 3165   6.305   8.976   1.242 -1.6132  1.5352  1.2544
    8CHTO   C56 3166   6.461   9.048   1.389  0.1698 -0.1687  0.0963
    8CHTO  H113 3167   6.550   9.108   1.370  1.5116 -2.6069 -1.6017
    8CHTO   O42 3168   6.391   9.076   1.515  0.2949  0.1262 -0.7980
    8CHTO  H100 3169   6.366   9.167   1.514  0.2704  0.1122 -1.5608
    8CHTO   C57 3170   6.525   8.900   1.371  0.7476 -0.7554 -0.0790
    8CHTO  H114 3171   6.446   8.827   1.386  0.0103 -0.2741 -1.4585
    8CHTO   N10 3172   6.627   8.860   1.475 -0.0401  0.2518  0.3324
    8CHTO  H106 3173   6.727   8.880   1.441  1.3659 -2.1309  2.9233
    8CHTO  H107 3174   6.605   8.926   1.558  0.8864  2.2648 -0.9838
    8CHTO   C58 3175   6.577   8.882   1.227 -0.6197  0.2314 -0.4422
    8CHTO  H115 3176   6.677   8.928   1.220 -0.9975  1.0174 -0.7733
    8CHTO   O37 3177   6.515   8.951   1.115  0.6531  0.4479  0.1515
    8CHTO   C59 3178   6.449   9.073   1.141 -0.1562  0.6416 -0.4052
    8CHTO  H116 3179   6.526   9.149   1.154  0.5748 -0.1913  0.1732
    8CHTO   C70 3180   6.377   9.121   1.011  0.3600 -0.6698 -0.9507
    8CHTO   O46 3181   6.281   9.031   0.963  0.7280  0.4605  0.3510
    8CHTO  H103 3182   6.321   8.948   0.942 -1.6979 -1.1740  1.9589
    8CHTO   O39 3183   6.575   8.719   1.181 -0.2999  0.1300  0.6904
    8CHTO   C60 3184   6.450   8.672   1.125 -0.7603 -0.2697 -0.4319
    8CHTO  H117 3185   6.363   8.726   1.163 -0.1521  0.3456  0.0835
    8CHTO   C62 3186   6.438   8.691   0.971 -0.3173 -1.0361 -0.5142
    8CHTO  H119 3187   6.453   8.799   0.949 -0.7705 -1.1490 -1.3925
    8CHTO   O43 3188   6.547   8.625   0.908  0.0895  0.5303  0.2002
    8CHTO  H101 3189   6.630   8.664   0.928  1.0860 -0.9598 -0.9119
    8CHTO   C66 3190   6.294   8.647   0.916 -0.0377  0.1421 -0.2848
    8CHTO  H123 3191   6.215   8.708   0.961  0.1215 -0.4390  0.8118
    8CHTO   N12 3192   6.282   8.669   0.771  0.1652  0.2236  0.3139
    8CHTO  H110 3193   6.268   8.774   0.749  1.4193  0.6040  1.2536
    8CHTO  H111 3194   6.218   8.595   0.727  1.7507 -0.2821 -1.1779
    8CHTO   C69 3195   6.281   8.497   0.957 -0.2279  0.0040  0.2658
    8CHTO  H126 3196   6.353   8.432   0.903 -0.5282 -0.2080  0.1243
    8CHTO   O41 3197   6.304   8.476   1.100  0.1682  0.1361 -0.1294
    8CHTO   C64 3198   6.429   8.522   1.159  0.3757 -0.0808  0.3215
    8CHTO  H121 3199   6.515   8.473   1.109 -0.3746  0.5944 -1.6620
    8CHTO   C71 3200   6.437   8.488   1.309  0.0878 -0.9508  0.6438
    8CHTO   O47 3201   6.558   8.530   1.383  0.3722 -0.7669 -0.5847
    8CHTO  H104 3202   6.629   8.553   1.326  0.7131 -1.4630 -0.4477
    8CHTO   O34 3203   6.133   8.439   0.904  0.9982 -0.2354  0.3538
    8CHTO   C49 3204   6.016   8.447   1.029  0.3761  0.9849 -0.5022
    8CHTO   H91 3205   6.044   8.382   1.112 -0.7899 -0.7401 -1.4261
    8CHTO   C47 3206   5.888   8.398   0.971  0.2220 -1.0295 -0.9948
    8CHTO   H89 3207   5.812   8.400   1.052  1.0313  0.4466 -0.2619
    8CHTO   O33 3208   5.899   8.263   0.929  0.2540 -0.4607  0.0696
    8CHTO   H70 3209   5.896   8.211   1.007  0.8105  0.1199  0.4890
    8CHTO   C45 3210   5.832   8.497   0.860 -0.2301  1.5986  0.3460
    8CHTO   H87 3211   5.919   8.514   0.795  0.1513 -0.5298  0.2549
    8CHTO    N8 3212   5.720   8.439   0.782 -0.1814 -0.8247 -0.2988
    8CHTO   H75 3213   5.643   8.401   0.847  1.0389 -0.7249  1.2237
    8CHTO   H76 3214   5.687   8.523   0.721  1.2813  1.9000  2.5142
    8CHTO   C43 3215   5.797   8.637   0.922  0.2114 -0.1116  0.1627
    8CHTO   H85 3216   5.784   8.705   0.838 -2.7177 -0.2668  0.4535
    8CHTO   O29 3217   5.901   8.677   1.012  0.0764  0.0896 -0.1056
    8CHTO   C50 3218   5.984   8.591   1.091  0.2631  0.4467  0.0110
    8CHTO   H92 3219   6.082   8.641   1.093 -0.0043  0.9222  1.6187
    8CHTO   C54 3220   5.947   8.595   1.239 -0.1255  0.3210  0.2241
    8CHTO   O36 3221   5.813   8.558   1.267  0.2630  0.4980  0.1678
    8CHTO   H72 3222   5.752   8.601   1.211  2.0756  0.7423 -1.6770
    8CHTO   O27 3223   5.674   8.640   0.997  0.5604  0.2014  0.2433
    8CHTO   C37 3224   5.577   8.738   1.021  0.2494 -0.7067  0.1072
    8CHTO   H79 3225   5.498   8.712   1.093  0.4255  0.3618  0.7081
    8CHTO   C38 3226   5.629   8.872   1.084  0.5095 -0.2432 -0.9054
    8CHTO   H80 3227   5.710   8.918   1.025 -0.8372  2.4108 -0.7642
    8CHTO   O31 3228   5.677   8.840   1.219 -0.0259 -0.3291 -0.0907
    8CHTO   H68 3229   5.735   8.911   1.241 -0.7838  0.2844 -0.0620
    8CHTO   C39 3230   5.509   8.975   1.100 -0.3888  0.7339 -0.5082
    8CHTO   H81 3231   5.433   8.919   1.155 -1.3469 -0.4027 -2.9371
    8CHTO    N7 3232   5.545   9.106   1.168 -0.1120 -0.4082  0.1075
    8CHTO   H73 3233   5.533   9.183   1.094 -1.6555  2.4658  3.1788
    8CHTO   H74 3234   5.646   9.110   1.207 -0.4906 -1.0932  1.2134
    8CHTO   C40 3235   5.451   9.001   0.959  0.2059  0.0633  0.2465
    8CHTO   H82 3236   5.529   9.048   0.898  0.4814 -0.5216  0.1432
    8CHTO   O26 3237   5.403   8.879   0.902 -0.2103  0.3308  0.1762
    8CHTO   C41 3238   5.505   8.776   0.886  0.0964  0.0977 -0.1900
    8CHTO   H83 3239   5.579   8.824   0.820  0.2720  0.1098  0.0176
    8CHTO   C52 3240   5.446   8.648   0.815  0.0708 -0.2173 -0.0690
    8CHTO   O35 3241   5.337   8.588   0.877  0.3441 -0.0905  0.3140
    8CHTO   H71 3242   5.255   8.634   0.872 -0.5995 -1.4828  2.0967
    8CHTO   O28 3243   5.323   9.072   0.968 -0.1542  0.7515 -0.1610
    8CHTO   C42 3244   5.274   9.153   0.854  0.0115 -0.2061  0.4681
    8CHTO   H84 3245   5.179   9.184   0.898  0.1333 -1.2461  1.5012
    8CHTO   C44 3246   5.239   9.076   0.721 -0.6939  0.2971 -0.3023
    8CHTO   H86 3247   5.330   9.031   0.681 -0.4331  0.6058 -0.0600
    8CHTO   O32 3248   5.144   8.974   0.753 -1.3537 -0.0522 -0.6850
    8CHTO   H69 3249   5.120   8.927   0.676 -1.7251 -0.5232 -0.2865
    8CHTO   C48 3250   5.179   9.173   0.613  0.3449  0.2332  0.6406
    8CHTO   H90 3251   5.086   9.214   0.653 -0.4698 -1.8340  0.9433
    8CHTO    N9 3252   5.140   9.092   0.490  0.6844  0.2471 -0.2456
    8CHTO   H77 3253   5.067   9.013   0.504  0.5556  0.5516  0.8213
    8CHTO   H78 3254   5.102   9.154   0.410 -0.2313  1.5482  1.1918
    8CHTO   C51 3255   5.279   9.291   0.576 -0.0501  0.0145 -0.2188
    8CHTO   H93 3256   5.371   9.248   0.537  1.1673  0.3410  2.2220
    8CHTO   O30 3257   5.300   9.352   0.703 -0.5603 -0.7811  0.6253
    8CHTO   C46 3258   5.360   9.279   0.821 -0.1928 -0.2772  0.3758
    8CHTO   H88 3259   5.464   9.257   0.797 -0.7564 -0.3782 -2.0965
    8CHTO   C53 3260   5.350   9.373   0.939 -0.2911  0.1459  0.5163
    8CHTO   O72 3261   5.444   9.482   0.927 -0.2910  0.0216 -0.5962
    8CHTO  H199 3262   5.531   9.447   0.937 -0.2416  0.0786 -0.8226
    8CHTO   O22 3263   5.219   9.391   0.488  0.4629  0.0690 -0.3954
    8CHTO   C31 3264   5.292   9.485   0.405  0.1860  0.3442 -0.0183
    8CHTO   H59 3265   5.213   9.561   0.387 -0.7503 -0.8624 -1.0687
    8CHTO   C29 3266   5.411   9.562   0.463  0.0652  0.1339  0.7083
    8CHTO   H57 3267   5.475   9.483   0.506  0.0641 -0.5696 -0.5585
    8CHTO   O21 3268   5.357   9.650   0.563  0.4396  0.0329  0.0465
    8CHTO   H37 3269   5.346   9.593   0.637 -0.3738 -1.4803 -1.1938
    8CHTO   C27 3270   5.488   9.649   0.360 -0.5066 -0.8198 -0.4425
    8CHTO   H55 3271   5.425   9.735   0.335 -1.2784 -0.6292  2.0698
    8CHTO    N5 3272   5.613   9.710   0.420 -0.4497  0.3187 -0.3468
    8CHTO   H43 3273   5.599   9.809   0.462  1.3450 -0.0308  1.1364
    8CHTO   H44 3274   5.689   9.707   0.343  0.7529 -1.3208  0.8637
    8CHTO   C25 3275   5.526   9.561   0.233 -0.5743  0.3229 -0.4075
    8CHTO   H53 3276   5.585   9.474   0.265 -2.0526 -0.4222  0.3373
    8CHTO   O17 3277   5.394   9.523   0.178 -0.2725 -0.1269  0.0741
    8CHTO   C32 3278   5.322   9.431   0.267 -0.3211 -0.1286  0.7206
    8CHTO   H60 3279   5.389   9.346   0.274  1.3535  1.2141  1.4979
    8CHTO   C36 3280   5.189   9.411   0.184  0.0902 -0.5666 -0.4125
    8CHTO   O25 3281   5.136   9.286   0.188  0.0159 -0.1410 -0.2658
    8CHTO   H40 3282   5.090   9.246   0.116 -0.0825 -0.6539  0.0753
    8CHTO   O15 3283   5.602   9.628   0.117 -1.0736  0.4536 -0.5048
    8CHTO   C19 3284   5.659   9.581  -0.009 -0.7717  0.6869 -0.2420
    8CHTO   H47 3285   5.577   9.532  -0.063  0.6888 -1.9019 -0.1457
    8CHTO   C20 3286   5.699   9.702  -0.103  0.3018 -0.0940 -0.2441
    8CHTO   H48 3287   5.769   9.769  -0.050 -0.2663  0.4134 -0.1249
    8CHTO   O19 3288   5.577   9.782  -0.130  0.6228  0.2666  0.2523
    8CHTO   H35 3289   5.554   9.837  -0.059 -3.5398  0.4658 -1.1258
    8CHTO   C21 3290   5.769   9.659  -0.235 -0.4810  0.1103 -0.8082
    8CHTO   H49 3291   5.703   9.600  -0.298 -1.1582 -0.5336  0.4871
    8CHTO    N4 3292   5.815   9.778  -0.315 -0.0793  0.0651 -0.0242
    8CHTO   H41 3293   5.782   9.749  -0.414 -0.5217 -1.4133  0.5504
    8CHTO   H42 3294   5.923   9.773  -0.320 -0.0381  1.0172 -0.2466
    8CHTO   C22 3295   5.876   9.551  -0.202 -0.0258  0.1725  0.4544
    8CHTO   H50 3296   5.961   9.598  -0.152  0.7269 -0.0112 -0.6553
    8CHTO   O14 3297   5.819   9.442  -0.130 -0.4733 -0.3626 -0.4138
    8CHTO   C23 3298   5.779   9.480  -0.000 -0.1167 -0.1574 -0.2241
    8CHTO   H51 3299   5.869   9.520   0.049  0.9701 -1.1615 -1.3491
    8CHTO   C34 3300   5.732   9.351   0.062 -0.3379 -0.8322 -0.2966
    8CHTO   O23 3301   5.840   9.264   0.086  0.6228 -0.2197  0.2288
    8CHTO   H38 3302   5.925   9.299   0.068  0.4671 -0.1470 -0.3923
    8CHTO   O16 3303   5.931   9.490  -0.322 -0.0580 -0.1261 -0.6087
    8CHTO   C24 3304   6.068   9.407  -0.302 -0.2538  0.2047  0.2084
    8CHTO   H52 3305   6.098   9.401  -0.197 -0.9067 -1.1832  0.3288
    8CHTO   C26 3306   6.180   9.482  -0.373  0.3964 -0.3135  0.1866
    8CHTO   H54 3307   6.142   9.515  -0.472  0.9827  4.2217  1.3535
    8CHTO   O20 3308   6.206   9.594  -0.294 -0.5202 -0.2102 -0.7113
    8CHTO   H36 3309   6.239   9.660  -0.352  2.0478 -0.1261  0.7966
    8CHTO   C30 3310   6.312   9.406  -0.398  0.7759  1.0898 -0.1645
    8CHTO   H58 3311   6.355   9.393  -0.298  0.2788 -2.8646 -0.4004
    8CHTO    N6 3312   6.414   9.476  -0.480  0.0448 -0.3064 -0.5969
    8CHTO   H45 3313   6.512   9.473  -0.434  0.0703  1.8894 -0.4515
    8CHTO   H46 3314   6.386   9.580  -0.482  0.8419 -0.0794 -0.4264
    8CHTO   C33 3315   6.282   9.258  -0.446 -0.7723  0.1651  0.3874
    8CHTO   H61 3316   6.239   9.253  -0.547 -0.1399 -0.6938  0.1516
    8CHTO   O18 3317   6.190   9.197  -0.352 -0.0751 -0.0162 -0.9265
    8CHTO   C28 3318   6.065   9.261  -0.352 -0.5556 -0.0129  0.5264
    8CHTO   H56 3319   6.015   9.254  -0.449  0.3102 -4.0937  0.2811
    8CHTO   C35 3320   5.965   9.182  -0.273 -0.4048  0.4317 -0.1089
    8CHTO   O24 3321   5.954   9.053  -0.318  0.2534  0.2696 -0.2390
    8CHTO   H39 3322   5.943   8.996  -0.244  0.8164 -0.9152 -1.0418
    8CHTO    O9 3323   6.405   9.184  -0.459 -0.1274 -0.8095  0.1197
    8CHTO   C13 3324   6.397   9.022  -0.490  0.2202  0.4501  0.7332
    8CHTO   H26 3325   6.328   9.005  -0.575  1.8539  1.8472 -0.8972
    8CHTO   C11 3326   6.362   8.937  -0.360  0.0640 -0.3101 -0.2821
    8CHTO   H24 3327   6.262   8.964  -0.323 -1.0720 -0.7250 -2.9512
    8CHTO    O8 3328   6.461   8.957  -0.254  0.0707 -0.2767  0.3530
    8CHTO    H3 3329   6.545   8.933  -0.287  0.0877  1.7867 -1.2817
    8CHTO    C9 3330   6.368   8.786  -0.394 -0.1287 -0.0702 -0.5140
    8CHTO   H22 3331   6.302   8.770  -0.481  1.8077 -2.9529 -1.5463
    8CHTO    N2 3332   6.322   8.697  -0.291 -1.4630  0.3679 -0.4770
    8CHTO   H10 3333   6.372   8.718  -0.197 -0.8661 -0.2722 -0.6474
    8CHTO   H11 3334   6.328   8.594  -0.323 -2.1780  0.2523 -0.2428
    8CHTO    C7 3335   6.507   8.757  -0.446 -0.1552  0.5286 -0.0667
    8CHTO   H20 3336   6.510   8.652  -0.481 -1.7904  0.6517 -0.6264
    8CHTO    O4 3337   6.557   8.838  -0.558  0.0119 -0.3906 -0.1315
    8CHTO   C14 3338   6.529   8.978  -0.556 -0.3105  0.0342 -0.7791
    8CHTO   H27 3339   6.524   9.017  -0.660 -1.8289  1.0775 -0.3392
    8CHTO   C18 3340   6.653   9.042  -0.494  0.0169  0.2677  0.0734
    8CHTO   O13 3341   6.770   9.019  -0.571 -0.3895 -0.1707  0.1804
    8CHTO    H7 3342   6.784   9.099  -0.618 -0.4549 -0.6048 -0.5960
    8CHTO    O2 3343   6.618   8.743  -0.318  0.2223 -0.0320 -0.0877
    8CHTO    C1 3344   6.727   8.647  -0.322 -0.1132 -0.2010  0.1896
    8CHTO   H14 3345   6.794   8.693  -0.246  1.9987 -0.6610 -1.3639
    8CHTO    C2 3346   6.800   8.634  -0.466  0.6075 -0.2029 -0.1174
    8CHTO   H15 3347   6.720   8.629  -0.542  0.6547  0.1263 -0.1905
    8CHTO    O6 3348   6.872   8.757  -0.487 -0.1658  0.2717  0.1688
    8CHTO    H1 3349   6.960   8.732  -0.506 -0.6190  0.6147 -2.7433
    8CHTO    C3 3350   6.891   8.496  -0.459 -0.3082  0.6484  0.1972
    8CHTO   H16 3351   6.971   8.506  -0.384 -1.8710  0.5299  1.9157
    8CHTO    N1 3352   6.953   8.466  -0.592 -0.4831  0.4188  0.0770
    8CHTO    H8 3353   7.033   8.395  -0.575  0.3394  0.6623 -2.6558
    8CHTO    H9 3354   6.993   8.552  -0.642  2.1628 -0.2615  0.9491
    8CHTO    C4 3355   6.807   8.369  -0.414  0.0185  0.8656 -0.4562
    8CHTO   H17 3356   6.726   8.351  -0.484  0.4517  1.5467 -1.1462
    8CHTO    O1 3357   6.770   8.400  -0.279  0.2568  0.0620  0.1195
    8CHTO    C5 3358   6.668   8.506  -0.280  0.3994 -0.1959  0.1129
    8CHTO   H18 3359   6.587   8.482  -0.349 -0.6165  1.0271  0.8709
    8CHTO   C16 3360   6.609   8.524  -0.142 -0.4937 -0.7073  0.7026
    8CHTO   O11 3361   6.534   8.416  -0.099 -0.2243 -0.3480  0.0408
    8CHTO    H5 3362   6.584   8.349  -0.057  1.2329  1.1431  0.7411
    8CHTO    O3 3363   6.888   8.255  -0.393 -0.1844 -0.3185  1.0895
    8CHTO    C6 3364   6.836   8.124  -0.438  0.6774 -0.1117 -0.3549
    8CHTO   H19 3365   6.728   8.122  -0.455 -0.1186  0.6902  4.0673
    8CHTO    C8 3366   6.889   8.074  -0.582 -0.4238 -0.4983  0.1271
    8CHTO   H21 3367   6.995   8.099  -0.585 -0.8543  1.2274 -1.1605
    8CHTO    O7 3368   6.815   8.156  -0.679 -0.2995 -0.2248  0.2172
    8CHTO    H2 3369   6.852   8.138  -0.764 -0.8860 -0.4025  0.0014
    8CHTO   C12 3370   6.867   7.921  -0.613  0.3600  0.0934  0.3582
    8CHTO   H25 3371   6.757   7.907  -0.624  0.5366 -1.7742  0.8025
    8CHTO    N3 3372   6.932   7.876  -0.737 -0.1514  0.5791 -0.4430
    8CHTO   H12 3373   6.997   7.945  -0.789  0.1197  2.9916  2.9335
    8CHTO   H13 3374   6.870   7.825  -0.809 -1.8658  1.0098  0.7074
    8CHTO   C15 3375   6.907   7.841  -0.493 -0.2240  0.0362 -0.4336
    8CHTO   H28 3376   7.014   7.850  -0.475 -0.0785 -2.7853  0.2863
    8CHTO   O10 3377   6.872   7.688  -0.498  0.5648 -0.8170 -0.0919
    8CHTO    H4 3378   6.780   7.672  -0.498  0.5141 -0.6647 -2.5714
    8CHTO    O5 3379   6.838   7.887  -0.376  0.2576  0.0754  0.1841
    8CHTO   C10 3380   6.872   8.016  -0.328 -0.1761 -0.6417 -0.1679
    8CHTO   H23 3381   6.980   8.024  -0.317 -0.1493  0.3910 -1.1712
    8CHTO   C17 3382   6.812   8.040  -0.190  0.0129  0.0541  0.2889
    8CHTO   O12 3383   6.889   7.952  -0.097  0.0606 -0.1749  0.1459
    8CHTO    H6 3384   6.889   7.860  -0.115  0.7517 -0.0626 -0.4246
    9CHTO  H203 3385   7.523   4.158   3.453  0.7786  0.2247 -0.0241
    9CHTO   O82 3386   7.563   4.176   3.370 -0.2866 -0.5735 -0.7317
    9CHTO  C123 3387   7.706   4.153   3.373 -0.0327  0.0673 -0.0003
    9CHTO  H227 3388   7.750   4.191   3.466  1.9887  0.0995 -0.9499
    9CHTO   O77 3389   7.708   4.014   3.378 -0.1218 -0.1677  0.3280
    9CHTO  C118 3390   7.835   3.946   3.357 -0.1173  0.1081 -0.5099
    9CHTO  H222 3391   7.905   3.981   3.434  1.0753  0.7158 -1.8414
    9CHTO  C125 3392   7.804   3.787   3.370  0.3625 -0.7543  0.4324
    9CHTO   O84 3393   7.733   3.752   3.486  0.2579 -0.4968 -0.1818
    9CHTO  H205 3394   7.642   3.776   3.479  0.7917  2.2369  1.2448
    9CHTO  C114 3395   7.880   3.991   3.215  0.0430  0.5368  0.1982
    9CHTO  H218 3396   7.803   3.960   3.143  0.8295  1.5728 -1.0911
    9CHTO  C116 3397   7.899   4.148   3.192  0.1310  0.5337 -0.2607
    9CHTO  H220 3398   7.990   4.183   3.244  0.2734 -3.5028  2.4699
    9CHTO   O79 3399   7.917   4.187   3.054 -0.0460  0.0760 -0.3607
    9CHTO  H201 3400   7.839   4.164   3.007  0.0160 -1.2587  0.1661
    9CHTO  C120 3401   7.771   4.211   3.239 -0.0829  0.4842  0.4983
    9CHTO  H224 3402   7.704   4.192   3.153 -0.5488  1.4689  0.6353
    9CHTO   N21 3403   7.783   4.357   3.251 -0.0083 -0.2555  0.2644
    9CHTO  H211 3404   7.881   4.388   3.285  0.9574  0.3808 -2.9813
    9CHTO  H212 3405   7.713   4.397   3.324 -0.0318 -2.3960  1.4669
    9CHTO   O75 3406   8.001   3.918   3.189  0.0480  0.3913  0.1869
    9CHTO  C112 3407   7.996   3.820   3.050 -0.1907 -0.1855 -0.2326
    9CHTO  H216 3408   7.926   3.869   2.980  0.0175  1.4133  0.6522
    9CHTO   O73 3409   7.948   3.690   3.096 -0.1775 -0.1109 -0.2334
    9CHTO  C113 3410   7.930   3.601   2.984 -0.3489  0.3773 -0.1701
    9CHTO  H217 3411   7.841   3.644   2.933  0.4578  1.1637 -0.9321
    9CHTO  C124 3412   7.895   3.470   3.046  1.0394 -0.3168 -0.2903
    9CHTO   O83 3413   7.828   3.380   2.957 -0.3380 -0.0611  0.1576
    9CHTO  H204 3414   7.743   3.411   2.932 -0.5621  0.3442  1.3643
    9CHTO  C109 3415   8.045   3.586   2.890 -0.3042  0.3062 -0.2365
    9CHTO  H213 3416   8.124   3.534   2.946 -0.3023 -1.2369 -1.6523
    9CHTO  C110 3417   8.094   3.731   2.847  0.5420  0.2681  0.1402
    9CHTO  H214 3418   8.022   3.786   2.787  1.4293  3.6758  2.0530
    9CHTO   O78 3419   8.218   3.724   2.764 -0.4075  0.2620 -0.1073
    9CHTO  H200 3420   8.281   3.657   2.783  1.3314  2.0825  0.6847
    9CHTO  C111 3421   8.128   3.807   2.982  0.8793  0.2074 -0.3402
    9CHTO  H215 3422   8.197   3.742   3.039 -1.8642 -1.5313  1.1444
    9CHTO   N19 3423   8.193   3.935   2.968  0.8420  0.0236  0.1964
    9CHTO  H207 3424   8.217   3.956   3.072  2.2889 -0.9806  0.0703
    9CHTO  H208 3425   8.278   3.934   2.902  1.4995 -0.4875  1.0373
    9CHTO   O74 3426   8.003   3.505   2.780 -0.1367  0.0426 -0.0173
    9CHTO  C115 3427   8.109   3.408   2.729  0.2291  0.5186  0.5294
    9CHTO  H219 3428   8.208   3.427   2.769  0.9378 -0.6705 -0.6335
    9CHTO   O76 3429   8.074   3.256   2.765 -0.3044  0.1971  0.3127
    9CHTO  C122 3430   7.954   3.212   2.703 -0.1532 -0.2774 -0.1143
    9CHTO  H226 3431   7.870   3.271   2.740  0.7641 -0.7797  2.9012
    9CHTO  C126 3432   7.924   3.071   2.760 -0.2229 -0.3719 -0.4847
    9CHTO   O85 3433   7.928   3.056   2.906 -0.5980 -0.2869  0.2588
    9CHTO  H206 3434   7.978   2.983   2.936 -1.0304 -0.0734  1.5172
    9CHTO  C121 3435   7.954   3.228   2.543 -0.9537 -0.2694  0.7083
    9CHTO  H225 3436   8.035   3.164   2.504 -0.9448  0.9806 -1.4147
    9CHTO   O81 3437   7.820   3.191   2.501  0.8697  0.1563 -0.4679
    9CHTO  H202 3438   7.809   3.098   2.500 -0.6566  0.3340 -2.8397
    9CHTO  C119 3439   7.990   3.378   2.506 -0.0807  0.1156 -0.2036
    9CHTO  H223 3440   8.005   3.373   2.398  0.6248 -1.0577 -0.0602
    9CHTO  C117 3441   8.121   3.431   2.574 -0.0426  0.0298  0.0577
    9CHTO  H221 3442   8.126   3.539   2.559  0.9848 -0.0336 -0.0514
    9CHTO   N20 3443   8.249   3.382   2.520 -0.2226 -0.0361  0.3154
    9CHTO  H209 3444   8.269   3.287   2.568  1.3081 -0.5439 -1.2664
    9CHTO  H210 3445   8.329   3.454   2.529 -1.0661  1.2160 -1.7548
    9CHTO   O80 3446   7.876   3.481   2.525 -0.5046  0.2586 -0.0108
    9CHTO  C103 3447   7.845   3.585   2.417  0.2086 -0.1095 -0.6366
    9CHTO  H190 3448   7.914   3.669   2.426  0.6982 -0.5709 -0.0149
    9CHTO  C101 3449   7.842   3.527   2.266 -0.1637  0.2695  0.5892
    9CHTO  H188 3450   7.798   3.428   2.262  2.5210 -1.0522  2.1989
    9CHTO   O68 3451   7.976   3.504   2.210 -0.2394 -0.1523  0.2031
    9CHTO  H168 3452   8.030   3.439   2.252  1.0910  0.0590 -1.1359
    9CHTO   C99 3453   7.761   3.622   2.165 -0.0391  0.3410  0.1341
    9CHTO  H186 3454   7.817   3.714   2.137 -3.5838  2.1859 -1.2646
    9CHTO   N17 3455   7.730   3.549   2.031 -0.0109 -0.8234  0.4427
    9CHTO  H174 3456   7.817   3.552   1.968 -1.1922  0.9030 -1.1747
    9CHTO  H175 3457   7.704   3.447   2.053 -1.8945 -0.2882  0.8548
    9CHTO   C97 3458   7.627   3.671   2.225  0.4353  0.1535 -1.0648
    9CHTO  H184 3459   7.555   3.588   2.235  1.5072 -0.6317  0.2998
    9CHTO   O64 3460   7.658   3.733   2.355  0.4500 -0.0244 -0.2488
    9CHTO  C104 3461   7.703   3.634   2.450 -0.0946 -0.9879  0.5195
    9CHTO  H191 3462   7.634   3.549   2.451 -1.3653  0.0391  0.6484
    9CHTO  C108 3463   7.705   3.698   2.592  0.4558 -0.0729 -0.1088
    9CHTO   O71 3464   7.570   3.707   2.632 -0.2784  0.1928 -0.6161
    9CHTO  H171 3465   7.555   3.735   2.720 -1.2368 -0.1610 -0.6621
    9CHTO   O62 3466   7.570   3.788   2.161  1.0045 -0.0630 -0.0372
    9CHTO   C91 3467   7.435   3.777   2.108 -0.1211  0.1582 -0.2259
    9CHTO  H178 3468   7.447   3.718   2.017  1.8648  0.2431 -0.0403
    9CHTO   C92 3469   7.394   3.925   2.071 -0.1479  0.1242  0.1916
    9CHTO  H179 3470   7.483   3.985   2.045 -0.4752  0.9675  1.0016
    9CHTO   O66 3471   7.308   3.929   1.954  0.8355  0.2014 -0.5299
    9CHTO  H166 3472   7.287   4.020   1.947  0.4586  0.1698  0.1442
    9CHTO   C93 3473   7.324   3.994   2.199 -0.6789 -0.1730  0.1857
    9CHTO  H180 3474   7.285   4.089   2.159  0.8245 -0.7514 -2.7325
    9CHTO   N16 3475   7.414   4.031   2.311 -1.0186 -0.4026 -0.0023
    9CHTO  H172 3476   7.410   4.139   2.317 -0.0993 -0.4283  1.3220
    9CHTO  H173 3477   7.516   4.005   2.289 -0.5669  0.4066  1.0803
    9CHTO   C94 3478   7.209   3.898   2.255  0.3860 -0.1253  0.3935
    9CHTO  H181 3479   7.216   3.886   2.363 -1.2798  0.3252  0.5712
    9CHTO   O61 3480   7.199   3.765   2.197 -0.7056  0.6225  0.4590
    9CHTO   C95 3481   7.331   3.697   2.192  0.1265  0.1232  0.5491
    9CHTO  H182 3482   7.368   3.681   2.293 -0.4320  0.3327  0.7911
    9CHTO  C106 3483   7.308   3.559   2.129 -0.8129  0.3746 -0.1221
    9CHTO   O69 3484   7.200   3.487   2.192  0.2375 -0.4601  0.3042
    9CHTO  H169 3485   7.154   3.438   2.126  2.1593 -2.1474  0.1626
    9CHTO   O63 3486   7.055   3.977   2.218 -0.1640  0.1940 -0.5925
    9CHTO   C96 3487   6.966   3.996   2.336 -0.2379  0.5103 -0.5130
    9CHTO  H183 3488   7.025   4.026   2.423 -0.4389 -0.0925 -0.1627
    9CHTO   C98 3489   6.885   3.873   2.380 -0.6271 -0.1988 -0.3975
    9CHTO  H185 3490   6.827   3.827   2.299 -1.4401  0.6833 -0.3259
    9CHTO   O67 3491   6.975   3.774   2.431 -0.3841 -0.0421  0.2792
    9CHTO  H167 3492   7.006   3.795   2.516  1.1303 -2.0309  0.2580
    9CHTO  C102 3493   6.769   3.897   2.489 -0.0503 -0.3226  1.1808
    9CHTO  H189 3494   6.821   3.927   2.582 -0.1750  0.0242  1.1386
    9CHTO   N18 3495   6.683   3.782   2.524  0.2273 -0.5073 -0.8622
    9CHTO  H176 3496   6.606   3.764   2.449 -0.1321  0.7441 -0.8083
    9CHTO  H177 3497   6.620   3.807   2.607  1.8850  1.5384 -0.1918
    9CHTO  C105 3498   6.689   4.021   2.447  0.2542  0.0820  0.2599
    9CHTO  H192 3499   6.634   4.000   2.356  0.6495 -0.2041  0.0836
    9CHTO   O65 3500   6.784   4.126   2.415 -0.1240 -0.1577 -0.2121
    9CHTO  C100 3501   6.872   4.113   2.303  0.4531  0.4203  0.3110
    9CHTO  H187 3502   6.811   4.102   2.212 -1.8058 -0.6313  1.9251
    9CHTO  C107 3503   6.947   4.248   2.287  0.1837 -0.2095  0.8041
    9CHTO   O70 3504   6.991   4.274   2.161 -0.0193  0.0129  0.4544
    9CHTO  H170 3505   6.984   4.367   2.158 -1.3774 -0.0895 -0.1187
    9CHTO   O57 3506   6.583   4.067   2.548 -0.1618  0.0434  0.0576
    9CHTO   C85 3507   6.470   4.146   2.521 -0.3000  0.2722 -0.1573
    9CHTO  H157 3508   6.424   4.078   2.446  1.2241 -2.5693  1.4165
    9CHTO   C83 3509   6.499   4.274   2.445  0.0225  0.3584  0.3117
    9CHTO  H155 3510   6.530   4.251   2.343  0.5004 -3.1042  1.1949
    9CHTO   O56 3511   6.614   4.333   2.504  0.5136 -0.4017 -0.2094
    9CHTO  H135 3512   6.623   4.423   2.478 -0.5583 -0.5533 -1.1199
    9CHTO   C81 3513   6.369   4.359   2.444  0.2921  0.5652  0.8707
    9CHTO  H153 3514   6.286   4.294   2.416 -0.7776  2.6127 -0.8853
    9CHTO   N14 3515   6.368   4.479   2.349 -0.3548 -0.0592 -0.4408
    9CHTO  H141 3516   6.394   4.567   2.404 -2.5360 -0.9275  2.0563
    9CHTO  H142 3517   6.442   4.463   2.274 -0.4169  0.4661 -0.6174
    9CHTO   C79 3518   6.343   4.413   2.591  0.5681  0.5800  0.2593
    9CHTO  H151 3519   6.238   4.444   2.596 -0.8649 -3.9302  0.4845
    9CHTO   O52 3520   6.363   4.308   2.692  0.1114  0.0003 -0.0276
    9CHTO   C86 3521   6.371   4.169   2.647 -0.5604 -0.1868  0.3839
    9CHTO  H158 3522   6.414   4.132   2.742  1.7343  2.0457  0.2516
    9CHTO   C90 3523   6.236   4.097   2.633  0.5348  0.8807 -0.0799
    9CHTO   O60 3524   6.171   4.061   2.754  0.0909  0.2999 -0.5695
    9CHTO  H138 3525   6.145   3.971   2.755 -2.3471  0.8877 -3.3636
    9CHTO   O50 3526   6.423   4.531   2.627  0.8510 -0.3712 -0.0740
    9CHTO   C73 3527   6.491   4.637   2.699  0.4791  0.5801  0.3716
    9CHTO  H145 3528   6.428   4.692   2.771 -0.4450 -0.5445  0.4318
    9CHTO   C74 3529   6.555   4.742   2.605  0.4789  0.6497 -0.1928
    9CHTO  H146 3530   6.481   4.791   2.540  0.9243  0.5611 -0.7759
    9CHTO   O54 3531   6.607   4.850   2.688 -0.7799  0.0275 -0.3915
    9CHTO  H133 3532   6.537   4.903   2.721  1.0391  0.9888  2.0359
    9CHTO   C75 3533   6.668   4.673   2.518 -0.5843 -0.1876  0.9666
    9CHTO  H147 3534   6.618   4.597   2.455 -0.2446  0.5401 -0.2010
    9CHTO   N13 3535   6.741   4.762   2.428  0.0753 -0.1122  0.6900
    9CHTO  H139 3536   6.667   4.800   2.359 -2.8746 -1.5860  2.9357
    9CHTO  H140 3537   6.781   4.847   2.482  1.3478  1.0015 -1.9547
    9CHTO   C76 3538   6.778   4.605   2.612  0.2154 -0.7234  0.5206
    9CHTO  H148 3539   6.821   4.680   2.678  1.8118 -0.5830 -0.6422
    9CHTO   O49 3540   6.703   4.507   2.689 -0.7138 -0.0270 -0.1235
    9CHTO   C77 3541   6.601   4.568   2.782 -0.4942 -0.4091  0.3337
    9CHTO  H149 3542   6.654   4.642   2.842  1.1478 -0.4052 -1.0771
    9CHTO   C88 3543   6.539   4.464   2.872 -0.0819  0.0662  0.1649
    9CHTO   O58 3544   6.636   4.348   2.905  0.0008  0.5802  0.2688
    9CHTO  H136 3545   6.693   4.376   2.974 -0.8613  0.1968  1.1425
    9CHTO   O51 3546   6.890   4.507   2.534 -0.2358 -1.0288  0.3157
    9CHTO   C78 3547   7.019   4.504   2.633  0.8379  0.4300 -0.7339
    9CHTO  H150 3548   6.993   4.538   2.736 -3.0134  0.7406 -1.7450
    9CHTO   C80 3549   7.137   4.583   2.579  0.3695  0.0199  0.1441
    9CHTO  H152 3550   7.172   4.528   2.489  2.0093 -0.8163  1.2633
    9CHTO   O55 3551   7.098   4.718   2.556  0.1472 -0.5602  0.2897
    9CHTO  H134 3552   7.026   4.735   2.498 -0.6929  1.3472  1.8305
    9CHTO   C84 3553   7.255   4.567   2.682  0.1749  0.0995  0.1308
    9CHTO  H156 3554   7.215   4.594   2.780  0.6985 -0.0684  0.3937
    9CHTO   N15 3555   7.380   4.649   2.657  0.3233 -0.0839 -0.1411
    9CHTO  H143 3556   7.367   4.715   2.574 -1.2904  0.1175  0.2476
    9CHTO  H144 3557   7.388   4.709   2.745  0.3049 -1.6850  0.9618
    9CHTO   C87 3558   7.299   4.421   2.693  0.4357 -0.1647  0.6392
    9CHTO  H159 3559   7.331   4.381   2.597 -0.3320  3.3557 -1.1330
    9CHTO   O53 3560   7.154   4.337   2.744  0.3105 -0.2180 -0.5096
    9CHTO   C82 3561   7.061   4.358   2.644  0.4626  0.2940  0.1692
    9CHTO  H154 3562   7.086   4.328   2.542 -0.4819  2.9159 -0.8607
    9CHTO   C89 3563   6.942   4.276   2.686 -0.3998  0.6014  0.3434
    9CHTO   O59 3564   6.967   4.134   2.666 -0.1320  0.1081  0.4781
    9CHTO  H137 3565   6.953   4.111   2.576 -1.2066  0.3786  0.5685
    9CHTO   O45 3566   7.408   4.386   2.806  0.0383  0.0886 -0.6641
    9CHTO   C67 3567   7.425   4.248   2.837 -0.1745  0.2509 -0.4717
    9CHTO  H124 3568   7.330   4.195   2.827  0.4392 -0.6498 -1.5091
    9CHTO   C65 3569   7.540   4.188   2.746 -1.0432  0.3552  0.4400
    9CHTO  H122 3570   7.596   4.271   2.702 -0.6287 -0.3412 -0.3656
    9CHTO   O44 3571   7.471   4.122   2.641  0.0484  0.0762 -0.7378
    9CHTO  H102 3572   7.481   4.029   2.646 -1.7741 -0.1329 -0.8018
    9CHTO   C63 3573   7.656   4.115   2.832 -0.4207 -0.4608  0.2007
    9CHTO  H120 3574   7.705   4.188   2.896 -1.1282 -0.0040  0.2250
    9CHTO   N11 3575   7.777   4.073   2.753  0.1296 -0.2781 -0.2455
    9CHTO  H108 3576   7.858   4.042   2.815  2.0436  1.3222 -1.8689
    9CHTO  H109 3577   7.744   3.995   2.687 -2.8404 -0.7070  1.6456
    9CHTO   C61 3578   7.587   4.015   2.933 -0.1717 -0.1662  0.4038
    9CHTO  H118 3579   7.673   3.978   2.990  0.1921  2.2595  1.4760
    9CHTO   O40 3580   7.505   4.089   3.021  0.3019 -0.0746  0.4141
    9CHTO   C68 3581   7.460   4.230   2.991 -0.4559 -0.5923 -0.0991
    9CHTO  H125 3582   7.541   4.298   3.025 -2.6995  1.2230  1.7986
    9CHTO   C72 3583   7.341   4.253   3.088 -0.2058  0.0156 -0.0013
    9CHTO   O48 3584   7.287   4.387   3.082  0.3553  0.0200  0.7175
    9CHTO  H105 3585   7.359   4.447   3.072  0.7652 -0.7467 -1.2685
    9CHTO   O38 3586   7.531   3.903   2.859 -0.4360  0.6791  0.2454
    9CHTO   C55 3587   7.430   3.825   2.925 -0.4466  0.0092 -0.9261
    9CHTO  H112 3588   7.376   3.884   3.000  0.0040 -0.0712 -0.5400
    9CHTO   C56 3589   7.492   3.691   2.990  0.1790 -0.3543  0.8090
    9CHTO  H113 3590   7.543   3.639   2.908  0.8172  0.9096  0.3878
    9CHTO   O42 3591   7.599   3.727   3.081 -0.0814 -0.8267  0.4198
    9CHTO  H100 3592   7.632   3.651   3.126  0.1160  0.0831  1.8620
    9CHTO   C57 3593   7.380   3.612   3.062  0.0644 -0.2064 -0.4744
    9CHTO  H114 3594   7.359   3.675   3.148 -1.6704  1.1900 -1.8937
    9CHTO   N10 3595   7.411   3.476   3.103  0.0711 -0.2110 -0.3020
    9CHTO  H106 3596   7.516   3.462   3.122  0.7938  0.3955 -3.6346
    9CHTO  H107 3597   7.374   3.400   3.036  0.1048 -0.0612 -0.4904
    9CHTO   C58 3598   7.249   3.599   2.972  0.0566 -0.6775 -0.2041
    9CHTO  H115 3599   7.262   3.520   2.895 -1.7996 -2.3324  1.1234
    9CHTO   O37 3600   7.213   3.720   2.903  0.1562  0.1220  0.1097
    9CHTO   C59 3601   7.319   3.782   2.822  0.4063  0.5980 -0.7241
    9CHTO  H116 3602   7.357   3.708   2.751 -1.3505 -1.5353  0.4741
    9CHTO   C70 3603   7.262   3.904   2.752 -0.3315  0.6021  0.2079
    9CHTO   O46 3604   7.163   3.872   2.657  0.4886 -0.1705 -0.5587
    9CHTO  H103 3605   7.213   3.860   2.579  2.6584 -1.3061  0.9436
    9CHTO   O39 3606   7.129   3.583   3.070  0.5324 -0.4538  0.1198
    9CHTO   C60 3607   7.023   3.486   3.047 -0.5614  0.1434  1.1623
    9CHTO  H117 3608   6.980   3.519   2.952 -1.4687  0.5851  1.7161
    9CHTO   C62 3609   7.057   3.332   3.042  0.0186  0.3484  0.6960
    9CHTO  H119 3610   7.126   3.319   2.956 -1.3201 -0.7107 -0.2287
    9CHTO   O43 3611   7.123   3.302   3.170 -0.3923  0.0443 -0.0720
    9CHTO  H101 3612   7.202   3.352   3.178 -0.1497  0.4551 -3.9004
    9CHTO   C66 3613   6.934   3.244   3.014 -0.0688  0.1421  0.1169
    9CHTO  H123 3614   6.890   3.269   2.918 -1.2387 -3.6708 -0.4471
    9CHTO   N12 3615   6.962   3.100   3.017  0.8708 -0.2002  0.1945
    9CHTO  H110 3616   6.988   3.055   3.112  0.3100 -2.0601 -0.5251
    9CHTO  H111 3617   6.888   3.039   2.969  1.3759  0.6011 -1.6359
    9CHTO   C69 3618   6.821   3.284   3.115  1.0348  0.6866  0.2219
    9CHTO  H126 3619   6.832   3.224   3.207 -0.5995 -0.3225 -0.2253
    9CHTO   O41 3620   6.818   3.430   3.139 -0.4782  0.3031  0.6254
    9CHTO   C64 3621   6.912   3.508   3.155  0.1145  0.4342  0.1049
    9CHTO  H121 3622   6.952   3.487   3.257  1.0885 -0.0634 -0.3693
    9CHTO   C71 3623   6.853   3.652   3.152  0.6480  0.4887 -0.7491
    9CHTO   O47 3624   6.806   3.700   3.279 -0.2482 -0.0200  0.0325
    9CHTO  H104 3625   6.768   3.785   3.274  0.5524  0.3361 -0.0584
    9CHTO   O34 3626   6.685   3.243   3.065  0.8566 -0.0751 -0.5200
    9CHTO   C49 3627   6.527   3.245   3.084  0.3500  0.7349 -1.1593
    9CHTO   H91 3628   6.497   3.246   2.979  0.0086  0.9325 -1.0621
    9CHTO   C47 3629   6.470   3.371   3.151  0.4651 -0.0610  0.5682
    9CHTO   H89 3630   6.364   3.375   3.119  0.9088 -2.0970 -1.2341
    9CHTO   O33 3631   6.540   3.479   3.089 -0.0389 -0.5610  0.0296
    9CHTO   H70 3632   6.553   3.463   2.998 -0.1593 -1.4842  0.1685
    9CHTO   C45 3633   6.488   3.371   3.313 -0.1148 -0.1281  0.9837
    9CHTO   H87 3634   6.574   3.436   3.330 -0.5332  1.3287 -2.1877
    9CHTO    N8 3635   6.366   3.421   3.379 -0.3165 -0.6397 -0.0198
    9CHTO   H75 3636   6.324   3.514   3.342  1.6122  0.3318  0.1793
    9CHTO   H76 3637   6.369   3.421   3.487  1.1271  0.8515 -0.0530
    9CHTO   C43 3638   6.547   3.233   3.359  0.7056  0.4539 -0.0922
    9CHTO   H85 3639   6.649   3.242   3.323  0.9491 -0.0879  0.4595
    9CHTO   O29 3640   6.475   3.124   3.296  0.6503 -0.5243 -1.0071
    9CHTO   C50 3641   6.469   3.129   3.158  0.1190  0.5642  0.2846
    9CHTO   H92 3642   6.534   3.047   3.124  1.1413  1.3370  0.3338
    9CHTO   C54 3643   6.321   3.090   3.111  0.2673 -0.5853 -0.1904
    9CHTO   O36 3644   6.267   2.964   3.141 -0.2211 -0.2557  0.8608
    9CHTO   H72 3645   6.210   2.969   3.215  1.3723 -2.7706  2.2959
    9CHTO   O27 3646   6.565   3.205   3.501 -0.6420 -0.0684 -0.4279
    9CHTO   C37 3647   6.668   3.181   3.596  0.3698  0.5929 -0.0755
    9CHTO   H79 3648   6.620   3.168   3.693 -0.9078  2.1409 -0.4772
    9CHTO   C38 3649   6.755   3.056   3.557  0.5147 -0.3732  1.1007
    9CHTO   H80 3650   6.780   3.072   3.451 -2.7551  0.8708  0.4522
    9CHTO   O31 3651   6.678   2.936   3.571  0.1171  0.6300 -0.1069
    9CHTO   H68 3652   6.590   2.951   3.545 -0.1777 -2.6728 -1.3659
    9CHTO   C39 3653   6.891   3.049   3.633 -0.5850 -0.1948 -0.0874
    9CHTO   H81 3654   6.877   3.030   3.740 -0.0515  0.1318  0.0404
    9CHTO    N7 3655   6.978   2.942   3.586 -0.0678  0.3959 -0.1756
    9CHTO   H73 3656   7.072   2.940   3.640 -0.8671  1.7011  1.3044
    9CHTO   H74 3657   6.922   2.853   3.611 -1.2920  0.7044 -1.7855
    9CHTO   C40 3658   6.970   3.193   3.634  0.5972  0.0143  0.3121
    9CHTO   H82 3659   7.008   3.212   3.534  2.8810 -0.6292  1.0307
    9CHTO   O26 3660   6.874   3.288   3.680  0.4074 -0.3853 -0.1051
    9CHTO   C41 3661   6.755   3.312   3.600 -0.2406 -0.2397 -0.1843
    9CHTO   H83 3662   6.791   3.338   3.500  1.4820 -2.5816 -0.2352
    9CHTO   C52 3663   6.682   3.435   3.653 -0.2409  0.0049 -0.3040
    9CHTO   O35 3664   6.736   3.557   3.619 -0.0067  0.2043  0.6956
    9CHTO   H71 3665   6.709   3.593   3.536 -1.2885  0.8992  1.3993
    9CHTO   O28 3666   7.086   3.194   3.723 -0.1344  0.2100 -0.8800
    9CHTO   C42 3667   7.161   3.316   3.762 -0.1545 -0.1583 -0.0562
    9CHTO   H84 3668   7.261   3.284   3.792 -0.2300 -0.7790 -0.4792
    9CHTO   C44 3669   7.097   3.391   3.886 -1.0227 -0.4572 -0.5374
    9CHTO   H86 3670   6.991   3.400   3.867 -0.5471 -0.1078 -3.1726
    9CHTO   O32 3671   7.127   3.316   4.006 -0.3529 -0.2988  0.6157
    9CHTO   H69 3672   7.104   3.365   4.083  1.2980  1.2572  0.1512
    9CHTO   C48 3673   7.142   3.543   3.890 -0.2413  0.0035 -0.0314
    9CHTO   H90 3674   7.245   3.539   3.926 -0.4356 -1.3602  0.4327
    9CHTO    N9 3675   7.074   3.622   4.002 -0.7452  0.6478  1.0845
    9CHTO   H77 3676   7.121   3.719   4.007 -0.5104  0.7036 -1.4902
    9CHTO   H78 3677   7.085   3.572   4.097 -1.1675  1.4637  1.5703
    9CHTO   C51 3678   7.140   3.624   3.755  0.0972 -0.1583 -0.3970
    9CHTO   H93 3679   7.036   3.617   3.721  0.6286 -2.6665 -1.6397
    9CHTO   O30 3680   7.231   3.556   3.669 -0.5663 -0.2849 -0.0377
    9CHTO   C46 3681   7.181   3.408   3.628  0.1846  0.1210  0.0059
    9CHTO   H88 3682   7.085   3.412   3.577  0.5047  0.3129 -0.5868
    9CHTO   C53 3683   7.296   3.347   3.531  0.4126 -0.0757  0.0769
    9CHTO   O72 3684   7.327   3.448   3.433  0.2094 -0.3421 -0.0857
    9CHTO  H199 3685   7.276   3.426   3.357 -2.1393  0.2604  1.2832
    9CHTO   O22 3686   7.198   3.756   3.757 -0.2515  0.0790  0.8379
    9CHTO   C31 3687   7.179   3.854   3.647 -0.7170  0.2502  0.5846
    9CHTO   H59 3688   7.209   3.950   3.695  1.7806  0.3940 -1.1696
    9CHTO   C29 3689   7.274   3.835   3.530  0.1562  0.1315 -0.1684
    9CHTO   H57 3690   7.262   3.735   3.485 -1.5357  0.5571 -0.7128
    9CHTO   O21 3691   7.412   3.827   3.576  0.4784 -0.4839  0.0638
    9CHTO   H37 3692   7.426   3.747   3.622  0.1354 -0.2902  0.5182
    9CHTO   C27 3693   7.249   3.940   3.424  0.1958 -0.1893 -0.0594
    9CHTO   H55 3694   7.269   4.040   3.466 -1.2027  0.1205 -0.1048
    9CHTO    N5 3695   7.328   3.922   3.303  0.0006 -0.1165 -1.0122
    9CHTO   H43 3696   7.429   3.953   3.324 -0.5751  0.4419  1.0467
    9CHTO   H44 3697   7.315   3.824   3.260 -2.6605 -0.3428  0.2060
    9CHTO   C25 3698   7.098   3.945   3.387  0.4587  0.1244 -0.4659
    9CHTO   H53 3699   7.061   3.851   3.343  0.1694 -0.0342  0.1010
    9CHTO   O17 3700   7.022   3.978   3.505 -0.4431  0.2555  0.1091
    9CHTO   C32 3701   7.029   3.871   3.605 -0.2614  0.1788  0.7988
    9CHTO   H60 3702   6.995   3.778   3.560  2.3023 -0.1832 -0.4953
    9CHTO   C36 3703   6.941   3.898   3.726  0.0209  0.4311  0.5294
    9CHTO   O25 3704   6.805   3.868   3.697  0.0237  0.2419 -0.5225
    9CHTO   H40 3705   6.762   3.945   3.666 -0.2913 -0.2040 -1.2099
    9CHTO   O15 3706   7.073   4.071   3.290 -0.7828  0.4911  0.2833
    9CHTO   C19 3707   6.965   4.088   3.195  0.0744 -0.1735 -0.4378
    9CHTO   H47 3708   6.979   4.187   3.149  0.6124 -0.4734 -0.9249
    9CHTO   C20 3709   6.980   3.978   3.086  0.0394 -0.0270 -0.7435
    9CHTO   H48 3710   6.978   3.877   3.130  2.7543  0.1459 -0.1314
    9CHTO   O19 3711   7.113   3.995   3.031  0.1570 -0.0982  0.0255
    9CHTO   H35 3712   7.181   3.931   3.037  0.0529 -0.4111 -2.0579
    9CHTO   C21 3713   6.857   3.991   2.987  0.3289  0.5402  0.1166
    9CHTO   H49 3714   6.868   4.087   2.937 -1.5651 -0.2708 -1.9336
    9CHTO    N4 3715   6.855   3.895   2.880 -0.3276  0.7159 -0.0146
    9CHTO   H41 3716   6.906   3.802   2.900  0.3221  0.5818 -2.1678
    9CHTO   H42 3717   6.891   3.935   2.786 -0.8188 -0.2540 -0.6277
    9CHTO   C22 3718   6.724   3.988   3.072  0.0257  0.5906 -0.2912
    9CHTO   H50 3719   6.721   3.891   3.122 -2.0463  0.5867 -0.3808
    9CHTO   O14 3720   6.717   4.094   3.170  0.0139  0.6615  0.6125
    9CHTO   C23 3721   6.827   4.091   3.268 -0.3689  0.0170 -0.1397
    9CHTO   H51 3722   6.818   4.006   3.337 -0.5244  0.4700  0.4027
    9CHTO   C34 3723   6.804   4.218   3.342  0.8413 -0.3723 -0.5403
    9CHTO   O23 3724   6.874   4.233   3.461  0.5026  0.0795 -0.0772
    9CHTO   H38 3725   6.903   4.321   3.472 -3.6417  1.6764 -1.1572
    9CHTO   O16 3726   6.606   4.019   2.998  0.3478  0.5483  0.4792
    9CHTO   C24 3727   6.469   3.946   3.067  0.6390 -0.2647  0.2706
    9CHTO   H52 3728   6.481   3.920   3.172 -3.0134 -1.5418  0.4174
    9CHTO   C26 3729   6.433   3.819   2.987  0.3559 -0.0488  0.6560
    9CHTO   H54 3730   6.416   3.853   2.882  0.5120 -0.5890  0.4541
    9CHTO   O20 3731   6.548   3.733   2.980  0.0461 -0.1003 -0.0786
    9CHTO   H36 3732   6.537   3.691   2.896  1.7731  0.3615 -0.5661
    9CHTO   C30 3733   6.302   3.755   3.043 -0.7322  0.4745  0.2776
    9CHTO   H58 3734   6.324   3.723   3.146  1.0818  1.1067  0.1028
    9CHTO    N6 3735   6.271   3.632   2.965 -0.2478 -0.4607 -0.8866
    9CHTO   H45 3736   6.358   3.570   2.972  0.7032  0.9160 -0.3749
    9CHTO   H46 3737   6.246   3.654   2.862 -0.7186  0.2959 -0.6147
    9CHTO   C33 3738   6.186   3.858   3.045  0.3537 -0.1872  0.6849
    9CHTO   H61 3739   6.153   3.887   2.944 -1.9091 -0.8580  1.1953
    9CHTO   O18 3740   6.229   3.973   3.122  0.3473  1.7128  0.5048
    9CHTO   C28 3741   6.343   4.047   3.064  0.2786 -0.5787 -0.4280
    9CHTO   H56 3742   6.325   4.075   2.960  0.5357  0.8307 -0.0968
    9CHTO   C35 3743   6.383   4.174   3.141 -0.0381  0.0308  0.0764
    9CHTO   O24 3744   6.435   4.144   3.269 -0.1971  0.7305 -0.1746
    9CHTO   H39 3745   6.518   4.101   3.264 -1.0899 -1.1387  0.2071
    9CHTO    O9 3746   6.066   3.800   3.106 -0.4416 -0.1951 -0.2365
    9CHTO   C13 3747   5.942   3.775   3.000  0.0384  0.1702  0.4244
    9CHTO   H26 3748   5.976   3.795   2.897  1.3576  0.3167  0.8713
    9CHTO   C11 3749   5.829   3.867   3.044  0.2649  0.3641  0.2090
    9CHTO   H24 3750   5.861   3.970   3.024 -0.5583  0.8904  1.5073
    9CHTO    O8 3751   5.812   3.861   3.186  0.4741 -0.1841  1.2494
    9CHTO    H3 3752   5.723   3.835   3.203 -0.1003  0.3320 -0.8835
    9CHTO    C9 3753   5.702   3.834   2.965 -0.4251 -0.4237  0.1183
    9CHTO   H22 3754   5.735   3.831   2.860 -1.2455  0.4623 -0.1632
    9CHTO    N2 3755   5.597   3.938   2.964 -0.0332 -0.6797 -0.2208
    9CHTO   H10 3756   5.565   3.942   3.067 -0.1251  0.0424 -0.2782
    9CHTO   H11 3757   5.517   3.925   2.893 -0.5323  0.8153  0.0450
    9CHTO    C7 3758   5.659   3.686   2.992  0.3123 -0.0700 -0.5525
    9CHTO   H20 3759   5.570   3.658   2.932 -0.3616 -0.2202  0.4938
    9CHTO    O4 3760   5.767   3.592   2.963  0.2249  0.9842  0.0112
    9CHTO   C14 3761   5.899   3.622   2.998 -0.2236  0.5820 -0.5012
    9CHTO   H27 3762   5.959   3.566   2.923 -1.0863 -0.5964 -0.3269
    9CHTO   C18 3763   5.921   3.546   3.131  0.4925  0.3621 -0.4099
    9CHTO   O13 3764   5.929   3.408   3.116  0.0060  1.0381 -0.4736
    9CHTO    H7 3765   5.860   3.384   3.057  1.4909 -0.4788 -1.6630
    9CHTO    O2 3766   5.616   3.668   3.152 -0.0622  0.0607  0.4295
    9CHTO    C1 3767   5.571   3.544   3.205 -1.2961  0.0211 -0.4490
    9CHTO   H14 3768   5.631   3.463   3.157 -0.1594 -0.1850  1.2674
    9CHTO    C2 3769   5.419   3.525   3.170  0.5526  0.6724 -0.2460
    9CHTO   H15 3770   5.379   3.619   3.212  1.0462  0.3186  1.0322
    9CHTO    O6 3771   5.399   3.510   3.027 -0.2606  0.1866  0.8382
    9CHTO    H1 3772   5.377   3.597   2.999  1.0442  0.0749 -0.5984
    9CHTO    C3 3773   5.358   3.395   3.247  0.0237  0.5675 -0.4314
    9CHTO   H16 3774   5.386   3.302   3.195 -1.9455  0.0873 -0.6865
    9CHTO    N1 3775   5.206   3.395   3.243 -0.3050  0.4332 -0.0620
    9CHTO    H8 3776   5.174   3.467   3.169  0.4929  0.7445 -0.1093
    9CHTO    H9 3777   5.159   3.303   3.211 -1.0948  0.5706  0.6716
    9CHTO    C4 3778   5.403   3.382   3.397 -0.2656 -0.1263 -0.1571
    9CHTO   H17 3779   5.349   3.446   3.467  1.4224 -0.5816  1.5969
    9CHTO    O1 3780   5.546   3.403   3.403 -0.1391 -0.3413  0.2361
    9CHTO    C5 3781   5.581   3.532   3.365  0.0112 -0.1252 -0.0314
    9CHTO   H18 3782   5.513   3.606   3.407  2.4183  2.2295 -0.0995
    9CHTO   C16 3783   5.718   3.558   3.419  0.4030 -0.5342 -0.8221
    9CHTO   O11 3784   5.731   3.542   3.558  0.1805  0.8634 -0.3395
    9CHTO    H5 3785   5.770   3.460   3.580  1.3098  2.0127  2.1749
    9CHTO    O3 3786   5.389   3.247   3.439 -0.2833 -0.8942  0.1662
    9CHTO    C6 3787   5.426   3.221   3.578  0.4625  1.2855 -0.3712
    9CHTO   H19 3788   5.469   3.304   3.634  1.3389  1.0016 -0.6087
    9CHTO    C8 3789   5.288   3.185   3.649  0.1091  0.0904 -0.6050
    9CHTO   H21 3790   5.233   3.107   3.595 -1.3897 -0.7577  2.0465
    9CHTO    O7 3791   5.211   3.305   3.638 -0.1492 -0.1640 -0.0025
    9CHTO    H2 3792   5.131   3.306   3.687  1.5476  0.5649  2.8183
    9CHTO   C12 3793   5.307   3.148   3.799  0.1890 -0.3808  0.6602
    9CHTO   H25 3794   5.343   3.240   3.850 -1.8713  1.4169 -1.0340
    9CHTO    N3 3795   5.181   3.098   3.872 -0.0588  0.1889 -0.1110
    9CHTO   H12 3796   5.101   3.076   3.804 -0.3151 -3.4995  1.2694
    9CHTO   H13 3797   5.154   3.155   3.960  1.4868  0.8985 -0.0719
    9CHTO   C15 3798   5.418   3.043   3.808 -0.0644 -0.7800 -0.2021
    9CHTO   H28 3799   5.393   2.940   3.785  1.8440 -1.2993 -0.0740
    9CHTO   O10 3800   5.477   3.048   3.975  0.1864 -0.6252 -0.3630
    9CHTO    H4 3801   5.431   3.116   4.020 -2.1448 -0.5963 -2.6627
    9CHTO    O5 3802   5.540   3.081   3.740  0.2444  0.2823  0.1406
    9CHTO   C10 3803   5.524   3.099   3.602  0.0872 -0.5883  0.1389
    9CHTO   H23 3804   5.489   3.003   3.564  1.2775 -1.3693  0.9987
    9CHTO   C17 3805   5.659   3.123   3.536  0.1299  0.2661 -0.0924
    9CHTO   O12 3806   5.650   3.128   3.395  0.2281  0.1180  0.2307
    9CHTO    H6 3807   5.704   3.062   3.356  0.6882  0.3010  0.5564
   10CHTO  H203 3808   5.835   6.228  -0.834  1.3175  0.1766  0.3238
   10CHTO   O82 3809   5.812   6.248  -0.745  0.5426  0.9007 -0.0287
   10CHTO  C123 3810   5.689   6.321  -0.748  0.2573  0.1329 -0.3599
   10CHTO  H227 3811   5.698   6.401  -0.823  1.9355  0.7892  0.5125
   10CHTO   O77 3812   5.590   6.223  -0.796 -0.3073 -0.0779 -0.0766
   10CHTO  C118 3813   5.462   6.277  -0.816  0.6090  0.0315  0.2114
   10CHTO  H222 3814   5.467   6.359  -0.889 -1.6789 -0.4154 -0.4610
   10CHTO  C125 3815   5.370   6.163  -0.871 -0.2459  0.3426  0.1064
   10CHTO   O84 3816   5.371   6.038  -0.797 -0.8395  0.3075 -0.2653
   10CHTO  H205 3817   5.289   6.032  -0.752  0.5087 -1.0204  2.1223
   10CHTO  C114 3818   5.409   6.342  -0.691 -0.1073  0.0675 -0.5682
   10CHTO  H218 3819   5.413   6.263  -0.615 -3.1730 -0.3972 -0.8231
   10CHTO  C116 3820   5.503   6.454  -0.637 -0.2450 -0.0351 -0.5384
   10CHTO  H220 3821   5.509   6.537  -0.710  0.7791  1.0368  0.7453
   10CHTO   O79 3822   5.455   6.505  -0.510 -0.0101  0.3490  0.2216
   10CHTO  H201 3823   5.382   6.562  -0.524 -1.2874 -1.5391 -0.9592
   10CHTO  C120 3824   5.651   6.391  -0.615 -0.4229  0.4380  0.3247
   10CHTO  H224 3825   5.642   6.314  -0.536 -0.3943 -1.2139 -1.2515
   10CHTO   N21 3826   5.747   6.499  -0.568  0.0885  0.1589 -0.1809
   10CHTO  H211 3827   5.791   6.547  -0.655  3.2210 -0.6476  0.8869
   10CHTO  H212 3828   5.708   6.576  -0.504  2.0541  0.7018  0.4000
   10CHTO   O75 3829   5.278   6.398  -0.709  0.3193 -0.4663 -0.2380
   10CHTO  C112 3830   5.178   6.399  -0.591 -0.2159 -0.1324 -0.0909
   10CHTO  H216 3831   5.215   6.464  -0.510 -0.0313 -0.1212 -0.1833
   10CHTO   O73 3832   5.162   6.260  -0.550  0.3681  0.0012 -0.1352
   10CHTO  C113 3833   5.098   6.241  -0.424 -0.5286  0.3858  0.4685
   10CHTO  H217 3834   5.133   6.308  -0.344  0.5272  1.0706 -0.5656
   10CHTO  C124 3835   5.114   6.099  -0.372  0.8884 -0.5480 -0.3495
   10CHTO   O83 3836   5.167   6.010  -0.470  0.4851 -0.2767  0.8727
   10CHTO  H204 3837   5.115   5.997  -0.547 -0.4274 -0.3848  1.4995
   10CHTO  C109 3838   4.954   6.271  -0.455  0.7248 -0.7185 -0.4726
   10CHTO  H213 3839   4.915   6.195  -0.525  0.4475 -1.2006  0.1921
   10CHTO  C110 3840   4.937   6.417  -0.512 -0.6183  0.1622  0.5085
   10CHTO  H214 3841   4.955   6.488  -0.431 -1.8733  0.4230  0.5612
   10CHTO   O78 3842   4.799   6.430  -0.547  0.1820 -0.1881 -0.5159
   10CHTO  H200 3843   4.783   6.394  -0.632 -0.4238 -1.2830  0.0566
   10CHTO  C111 3844   5.040   6.449  -0.627 -0.0091 -0.2414  0.4005
   10CHTO  H215 3845   5.003   6.404  -0.720 -1.0827  2.3275 -0.4695
   10CHTO   N19 3846   5.044   6.596  -0.656 -0.4244  0.1350  0.2638
   10CHTO  H207 3847   4.943   6.634  -0.651  0.6230  3.5738 -2.7454
   10CHTO  H208 3848   5.067   6.619  -0.759  0.7093  2.2197  0.9588
   10CHTO   O74 3849   4.886   6.264  -0.324  0.0628  0.0780 -0.5549
   10CHTO  C115 3850   4.734   6.190  -0.321 -0.0012 -0.3711  0.2101
   10CHTO  H219 3851   4.675   6.220  -0.407 -0.6699  0.0403  0.8085
   10CHTO   O76 3852   4.749   6.038  -0.330  0.4866 -0.4542  0.9431
   10CHTO  C122 3853   4.804   5.965  -0.221  0.2390  0.1339  0.7582
   10CHTO  H226 3854   4.911   5.984  -0.214  1.0712 -1.7322 -4.4094
   10CHTO  C126 3855   4.795   5.817  -0.244  0.1634  0.5365  0.3512
   10CHTO   O85 3856   4.845   5.735  -0.137  0.2473  0.0416 -0.2290
   10CHTO  H206 3857   4.843   5.654  -0.184 -0.4508  1.3786 -2.5943
   10CHTO  C121 3858   4.735   5.993  -0.085  0.0051 -1.0296 -0.5141
   10CHTO  H225 3859   4.698   5.899  -0.039 -1.3839 -0.1946  0.1053
   10CHTO   O81 3860   4.825   6.031   0.016 -0.4867 -0.1400 -0.5740
   10CHTO  H202 3861   4.787   6.090   0.079 -0.3220  0.6783 -1.2315
   10CHTO  C119 3862   4.626   6.098  -0.094 -0.3007  0.9156  0.6154
   10CHTO  H223 3863   4.539   6.057  -0.146 -0.0212 -0.4868  1.2484
   10CHTO  C117 3864   4.671   6.225  -0.179  0.3480 -0.4678 -0.6525
   10CHTO  H221 3865   4.742   6.292  -0.132 -0.6109  0.8984 -1.1060
   10CHTO   N20 3866   4.546   6.303  -0.206 -0.5327 -0.2962  0.4500
   10CHTO  H209 3867   4.571   6.398  -0.253 -0.9472  0.2505  1.3315
   10CHTO  H210 3868   4.462   6.299  -0.138 -0.6864 -2.1103  0.1707
   10CHTO   O80 3869   4.559   6.123   0.057 -0.4469 -0.6437 -0.3537
   10CHTO  C103 3870   4.474   6.024   0.116  0.0132  0.0191 -0.6237
   10CHTO  H190 3871   4.454   5.947   0.041  0.4514 -0.3785 -0.3298
   10CHTO  C101 3872   4.524   5.964   0.247  0.0228  0.0729 -0.5507
   10CHTO  H188 3873   4.581   6.041   0.299 -1.1025  0.7056 -0.2254
   10CHTO   O68 3874   4.635   5.854   0.198  0.3685 -0.1742 -1.2283
   10CHTO  H168 3875   4.631   5.793   0.269 -1.5972  0.5690 -0.6682
   10CHTO   C99 3876   4.406   5.902   0.330 -0.3927  0.1126  0.1244
   10CHTO  H186 3877   4.370   5.805   0.290  1.7328 -1.1192  1.1264
   10CHTO   N17 3878   4.461   5.871   0.469 -0.1586 -0.1393  0.1348
   10CHTO  H174 3879   4.567   5.848   0.469 -0.1843 -0.2669 -0.5442
   10CHTO  H175 3880   4.440   5.955   0.533  2.2346  0.3699  0.2963
   10CHTO   C97 3881   4.283   5.996   0.341  0.6173 -0.9569  0.2644
   10CHTO  H184 3882   4.311   6.083   0.402 -0.1537 -0.4550 -0.0896
   10CHTO   O64 3883   4.244   6.035   0.209 -0.1000  0.2596  0.2491
   10CHTO  C104 3884   4.344   6.106   0.128  0.0320  0.2865 -0.4120
   10CHTO  H191 3885   4.369   6.202   0.173  1.2481 -1.6476  3.1813
   10CHTO  C108 3886   4.277   6.138  -0.010 -0.0311  0.4211 -0.3050
   10CHTO   O71 3887   4.176   6.238   0.016 -0.2250 -0.5723 -0.2781
   10CHTO  H171 3888   4.134   6.247  -0.067  1.0347  1.9296 -0.6956
   10CHTO   O62 3889   4.162   5.939   0.388  0.0556 -0.0113 -0.0561
   10CHTO   C91 3890   4.106   5.970   0.522 -0.6767 -0.2182  1.0589
   10CHTO  H178 3891   4.185   6.014   0.583 -1.9008  2.0758  1.0280
   10CHTO   C92 3892   4.073   5.834   0.587 -0.0168  0.3766 -1.0793
   10CHTO  H179 3893   4.037   5.764   0.511  1.2223 -0.6758 -0.7114
   10CHTO   O66 3894   4.199   5.777   0.629 -0.6167  0.7232  0.1056
   10CHTO  H166 3895   4.188   5.694   0.672 -0.1357  0.6020  0.0011
   10CHTO   C93 3896   3.967   5.834   0.713  0.3247 -0.5436  0.1099
   10CHTO  H180 3897   4.025   5.846   0.806 -2.1785 -1.2251  1.8033
   10CHTO   N16 3898   3.901   5.703   0.728 -0.8501  0.8744 -0.2008
   10CHTO  H172 3899   3.898   5.642   0.639  0.1107 -1.1697  1.1201
   10CHTO  H173 3900   3.806   5.713   0.779 -1.3884 -0.8765 -0.8271
   10CHTO   C94 3901   3.866   5.958   0.705  0.1018 -0.2560 -0.0513
   10CHTO  H181 3902   3.788   5.942   0.630  0.9010 -1.1468 -0.6987
   10CHTO   O61 3903   3.933   6.079   0.659 -0.7415  0.4020 -0.2111
   10CHTO   C95 3904   3.981   6.068   0.530  0.2910 -0.3107 -0.4592
   10CHTO  H182 3905   3.896   6.039   0.467 -0.0572 -1.0905  0.3654
   10CHTO  C106 3906   4.002   6.211   0.489  0.2404 -0.2601  0.3906
   10CHTO   O69 3907   4.074   6.211   0.363 -0.1835 -0.4846  0.0453
   10CHTO  H169 3908   4.069   6.294   0.319  1.1051  0.3792  1.5077
   10CHTO   O63 3909   3.788   5.984   0.848  0.5856 -0.8713 -0.6860
   10CHTO   C96 3910   3.898   5.995   0.992 -0.3994  0.1528 -0.2791
   10CHTO  H183 3911   4.000   5.988   0.955 -1.4174 -1.5887 -2.8772
   10CHTO   C98 3912   3.862   5.886   1.097  0.3878 -0.2056  0.7594
   10CHTO  H185 3913   3.752   5.880   1.095  0.4821 -1.9557 -1.5163
   10CHTO   O67 3914   3.901   5.764   1.037 -0.6720 -0.4622  0.2154
   10CHTO  H167 3915   3.831   5.703   1.027 -0.0368 -1.2479  0.4760
   10CHTO  C102 3916   3.933   5.922   1.238  0.9114 -0.0214 -0.3969
   10CHTO  H189 3917   4.041   5.920   1.216  0.6011  0.6425 -2.0203
   10CHTO   N18 3918   3.903   5.819   1.342  0.5305  0.1574 -0.2205
   10CHTO  H176 3919   3.886   5.856   1.442  1.3531  1.0353 -0.3944
   10CHTO  H177 3920   3.944   5.719   1.334  0.0281 -0.2512  1.8736
   10CHTO  C105 3921   3.894   6.064   1.276  0.3678  0.0793 -0.0593
   10CHTO  H192 3922   3.785   6.072   1.281  0.2533 -1.4534  0.2006
   10CHTO   O65 3923   3.942   6.151   1.173 -0.0250 -0.3105 -0.1048
   10CHTO  C100 3924   3.879   6.134   1.048  0.8296 -0.1329 -0.3706
   10CHTO  H187 3925   3.771   6.148   1.058  0.9767 -0.0579  1.2872
   10CHTO  C107 3926   3.930   6.239   0.952  0.3150 -0.4395  0.1270
   10CHTO   O70 3927   4.071   6.237   0.934 -0.0051 -0.2534 -0.8703
   10CHTO  H170 3928   4.090   6.300   0.868 -1.2673 -0.3901 -1.3781
   10CHTO   O57 3929   3.978   6.084   1.432 -0.3954  0.3645  0.3764
   10CHTO   C85 3930   3.937   6.183   1.526 -0.2079  0.8010  0.7350
   10CHTO  H157 3931   3.870   6.251   1.470 -0.6985 -0.3204 -0.0696
   10CHTO   C83 3932   4.065   6.263   1.571  0.3825 -0.4273 -0.1785
   10CHTO  H155 3933   4.107   6.323   1.490  0.5118  0.7505  0.7498
   10CHTO   O56 3934   4.172   6.171   1.613 -0.0180  0.2508  0.4186
   10CHTO  H135 3935   4.172   6.096   1.557 -0.3111  1.7305 -1.6039
   10CHTO   C81 3936   4.017   6.363   1.688 -0.8682 -0.4139 -0.3477
   10CHTO  H153 3937   3.949   6.436   1.644 -0.3454  0.4683  0.2918
   10CHTO   N14 3938   4.121   6.457   1.734 -0.5834  0.1101  0.4337
   10CHTO  H141 3939   4.095   6.488   1.833  1.3693 -0.0987  1.0484
   10CHTO  H142 3940   4.126   6.542   1.670 -1.0043  1.5187  2.2234
   10CHTO   C79 3941   3.943   6.289   1.811 -0.6149 -0.3810 -0.0419
   10CHTO  H151 3942   3.894   6.365   1.871  1.7314 -0.5318  2.1454
   10CHTO   O52 3943   3.835   6.199   1.766  0.6282  0.3855 -0.3371
   10CHTO   C86 3944   3.864   6.112   1.655  0.7768 -0.4978  0.2354
   10CHTO  H158 3945   3.934   6.032   1.688  0.4707 -0.8349  0.0700
   10CHTO   C90 3946   3.737   6.044   1.607 -0.4154  0.1449 -0.2139
   10CHTO   O60 3947   3.628   6.134   1.575 -1.2103  0.1548  0.1541
   10CHTO  H138 3948   3.642   6.143   1.483  0.2671  1.6437  0.4949
   10CHTO   O50 3949   4.018   6.202   1.895  0.5892 -1.0280  0.2863
   10CHTO   C73 3950   4.025   6.101   1.999 -0.5906 -0.2912  0.4851
   10CHTO  H145 3951   3.983   6.001   1.978  0.3806 -1.4637  3.7433
   10CHTO   C74 3952   3.948   6.165   2.125 -0.4213 -0.2369  0.5862
   10CHTO  H146 3953   3.847   6.194   2.093 -0.0701 -0.3908 -0.6797
   10CHTO   O54 3954   3.945   6.063   2.222 -0.4032 -0.0313 -0.7408
   10CHTO  H133 3955   3.986   6.089   2.302 -3.5447  0.0811  0.9381
   10CHTO   C75 3956   4.028   6.289   2.169 -0.3179 -0.2333 -0.2387
   10CHTO  H147 3957   4.031   6.362   2.087 -1.2138 -0.4776 -0.5014
   10CHTO   N13 3958   3.971   6.348   2.296 -0.7509 -0.4448  0.3763
   10CHTO  H139 3959   3.970   6.272   2.373  0.4042  0.4973  1.3569
   10CHTO  H140 3960   4.012   6.444   2.323  1.8592 -2.0824  2.4588
   10CHTO   C76 3961   4.182   6.266   2.195 -0.3579 -0.3435  0.4870
   10CHTO  H148 3962   4.182   6.208   2.287 -0.9769 -0.7516  0.2325
   10CHTO   O49 3963   4.251   6.193   2.082  0.4441 -0.3236  0.3138
   10CHTO   C77 3964   4.179   6.079   2.033  0.6987  0.0151 -1.0486
   10CHTO  H149 3965   4.179   5.996   2.104 -1.4757  0.3963 -0.5520
   10CHTO   C88 3966   4.252   6.013   1.910  0.1449 -0.1136 -0.3286
   10CHTO   O58 3967   4.193   5.884   1.871 -0.4224  0.4378  0.4848
   10CHTO  H136 3968   4.141   5.850   1.942  1.0876  0.2217  1.5157
   10CHTO   O51 3969   4.259   6.412   2.201  0.9551  0.5311  0.0244
   10CHTO   C78 3970   4.411   6.415   2.216  0.3244 -0.1811  0.0206
   10CHTO  H150 3971   4.454   6.320   2.176  1.4457  0.7146 -0.9703
   10CHTO   C80 3972   4.468   6.450   2.353  0.4238 -0.3814 -0.3181
   10CHTO  H152 3973   4.429   6.551   2.379 -0.0293 -1.1897  2.3462
   10CHTO   O55 3974   4.410   6.360   2.446 -0.0108 -0.5293 -0.6712
   10CHTO  H134 3975   4.431   6.392   2.532  0.9401 -0.5500 -0.8926
   10CHTO   C84 3976   4.624   6.454   2.338 -0.0729  0.1304  0.2817
   10CHTO  H156 3977   4.657   6.361   2.292  1.5672  0.5896  0.4831
   10CHTO   N15 3978   4.684   6.462   2.477  0.7827  0.4785 -0.2461
   10CHTO  H143 3979   4.751   6.379   2.481 -3.2596 -3.0206 -0.9015
   10CHTO  H144 3980   4.739   6.554   2.478  2.2166 -0.3633 -0.0644
   10CHTO   C87 3981   4.667   6.565   2.239 -0.2112 -0.4949  0.9064
   10CHTO  H159 3982   4.624   6.655   2.284 -1.2386 -1.1093  1.1741
   10CHTO   O53 3983   4.599   6.532   2.110  0.2607  0.3859 -0.1659
   10CHTO   C82 3984   4.455   6.525   2.119 -0.3069 -0.3896  0.1171
   10CHTO  H154 3985   4.407   6.620   2.144 -0.6091 -0.3389 -0.6356
   10CHTO   C89 3986   4.394   6.489   1.982 -0.3551 -0.6893  0.2534
   10CHTO   O59 3987   4.451   6.367   1.923 -0.0940  0.2582 -0.1709
   10CHTO  H137 3988   4.440   6.384   1.832  1.0480  0.0123 -0.3579
   10CHTO   O45 3989   4.820   6.577   2.206 -0.4534  0.3670  0.5364
   10CHTO   C67 3990   4.904   6.687   2.251 -0.7399  0.4055 -0.4450
   10CHTO  H124 3991   4.881   6.699   2.357  0.3361 -0.4167 -0.1195
   10CHTO   C65 3992   5.062   6.659   2.238  0.4849  0.0811 -0.2367
   10CHTO  H122 3993   5.083   6.566   2.292  0.2439  0.5697  0.7070
   10CHTO   O44 3994   5.126   6.767   2.305  0.0653  0.0052 -0.1485
   10CHTO  H102 3995   5.216   6.744   2.321 -0.0208  0.0682  0.4373
   10CHTO   C63 3996   5.106   6.654   2.088 -0.0963  0.2340 -0.2352
   10CHTO  H120 3997   5.036   6.591   2.034 -1.9717  2.0379  0.0248
   10CHTO   N11 3998   5.234   6.584   2.054 -0.5478  0.1115 -0.1086
   10CHTO  H108 3999   5.252   6.566   1.950 -0.5478 -2.0208  0.2474
   10CHTO  H109 4000   5.315   6.644   2.090 -1.3832  0.6428  0.9113
   10CHTO   C61 4001   5.076   6.799   2.028 -0.7849  0.5747 -0.4475
   10CHTO  H118 4002   5.080   6.793   1.918  0.8230  1.5387 -0.4597
   10CHTO   O40 4003   4.951   6.868   2.061 -0.6788  0.1377 -0.3010
   10CHTO   C68 4004   4.867   6.828   2.177  0.4863  0.1086  0.2955
   10CHTO  H125 4005   4.763   6.815   2.142  0.0330 -1.4491  2.1525
   10CHTO   C72 4006   4.867   6.946   2.279 -0.5706 -0.5994 -0.4697
   10CHTO   O48 4007   4.827   7.065   2.214  0.8028 -0.3089  0.7635
   10CHTO  H105 4008   4.875   7.142   2.240  2.1957  0.0314 -2.6210
   10CHTO   O38 4009   5.175   6.887   2.069 -0.0251 -0.2870 -0.3649
   10CHTO   C55 4010   5.219   6.989   1.978 -0.3283 -0.5130 -0.2256
   10CHTO  H112 4011   5.135   7.005   1.909 -0.1973 -0.7840 -0.4535
   10CHTO   C56 4012   5.351   6.961   1.897 -0.0016  0.0165 -0.2388
   10CHTO  H113 4013   5.425   6.945   1.977  0.1411  1.2290 -0.1156
   10CHTO   O42 4014   5.335   6.834   1.829  0.0771 -0.0230  0.1551
   10CHTO  H100 4015   5.402   6.821   1.764  0.3532  0.6507  0.2964
   10CHTO   C57 4016   5.387   7.087   1.803  0.0556  0.2953 -0.2591
   10CHTO  H114 4017   5.303   7.105   1.736 -1.1732  1.6861  1.5949
   10CHTO   N10 4018   5.511   7.063   1.721 -0.5105  0.0364 -0.1472
   10CHTO  H106 4019   5.490   7.008   1.631  0.0585 -1.8524  0.8408
   10CHTO  H107 4020   5.588   7.009   1.775 -0.8724 -0.2448  0.0842
   10CHTO   C58 4021   5.394   7.211   1.894  0.4412 -0.0425 -0.1294
   10CHTO  H115 4022   5.478   7.201   1.967 -0.0562  0.5914  0.5396
   10CHTO   O37 4023   5.267   7.226   1.961 -0.2137  0.0551  0.2383
   10CHTO   C59 4024   5.239   7.123   2.053 -0.6898 -0.4147 -0.8940
   10CHTO  H116 4025   5.325   7.098   2.116 -2.4237 -1.0832  1.2589
   10CHTO   C70 4026   5.119   7.163   2.140 -0.7814 -0.0186 -0.1094
   10CHTO   O46 4027   5.139   7.246   2.255  0.0585  0.5502 -0.6560
   10CHTO  H103 4028   5.067   7.237   2.315 -0.6901 -0.5397 -1.6893
   10CHTO   O39 4029   5.413   7.335   1.807 -0.4264 -0.3961  0.1682
   10CHTO   C60 4030   5.454   7.446   1.893  0.7847 -0.4560  0.4922
   10CHTO  H117 4031   5.418   7.422   1.993  0.1190 -0.0002  0.3622
   10CHTO   C62 4032   5.610   7.480   1.892 -0.2141  0.1517 -0.5226
   10CHTO  H119 4033   5.664   7.405   1.954  1.0401 -0.3919 -2.2486
   10CHTO   O43 4034   5.641   7.467   1.752  0.6399  0.3460  0.2530
   10CHTO  H101 4035   5.601   7.536   1.703  0.8691  0.4306  0.1842
   10CHTO   C66 4036   5.637   7.620   1.967 -0.4588  0.3063 -0.1694
   10CHTO  H123 4037   5.605   7.607   2.070  1.2367 -1.9095  0.1107
   10CHTO   N12 4038   5.780   7.658   1.966  0.1533  0.5028  0.1093
   10CHTO  H110 4039   5.789   7.765   1.976  0.5628  0.5562 -0.8005
   10CHTO  H111 4040   5.820   7.612   2.055  0.4102  2.5624  1.0897
   10CHTO   C69 4041   5.545   7.725   1.905 -0.1204 -0.1742  0.2291
   10CHTO  H126 4042   5.566   7.732   1.796 -1.4549 -0.8874 -0.0885
   10CHTO   O41 4043   5.405   7.689   1.924  0.0337  0.3511  0.3828
   10CHTO   C64 4044   5.369   7.578   1.848 -0.0527 -0.5609 -0.0032
   10CHTO  H121 4045   5.388   7.600   1.741 -1.2711  1.9792  0.2759
   10CHTO   C71 4046   5.209   7.573   1.848 -0.5160  0.5226  0.5417
   10CHTO   O47 4047   5.159   7.578   1.977 -0.5295  0.6553 -0.7108
   10CHTO  H104 4048   5.076   7.620   1.976 -0.3453  1.0089 -1.7270
   10CHTO   O34 4049   5.562   7.855   1.955  0.2319 -0.2259 -0.3722
   10CHTO   C49 4050   5.560   8.003   1.929 -0.2578  0.3295 -0.1868
   10CHTO   H91 4051   5.587   8.065   2.014  0.7876  0.8389 -0.8831
   10CHTO   C47 4052   5.410   8.033   1.883 -0.1138  0.0510 -0.4615
   10CHTO   H89 4053   5.401   8.143   1.880  0.3710  0.1067  0.0575
   10CHTO   O33 4054   5.313   7.992   1.983 -0.5742 -0.0744 -0.3548
   10CHTO   H70 4055   5.230   8.030   1.962  0.0815  0.8893 -1.2542
   10CHTO   C45 4056   5.389   7.969   1.726  0.1182 -0.7205 -0.4444
   10CHTO   H87 4057   5.421   7.864   1.721 -0.6284 -0.8511 -3.1130
   10CHTO    N8 4058   5.249   7.984   1.685  0.1859  0.1339  0.2880
   10CHTO   H75 4059   5.242   7.947   1.585 -0.7917  0.7727  0.1183
   10CHTO   H76 4060   5.222   8.089   1.692 -0.9465 -0.0723 -0.9051
   10CHTO   C43 4061   5.490   8.054   1.628  0.3512 -0.3683  0.6588
   10CHTO   H85 4062   5.475   8.018   1.526 -0.9821  0.2606  0.6233
   10CHTO   O29 4063   5.621   8.029   1.671  0.2489  0.1191  0.2999
   10CHTO   C50 4064   5.651   8.045   1.814  0.3691  0.0086  0.6081
   10CHTO   H92 4065   5.745   7.992   1.831 -0.8371 -2.7615 -0.8643
   10CHTO   C54 4066   5.689   8.193   1.814 -0.1701  0.1882 -0.2232
   10CHTO   O36 4067   5.789   8.211   1.920  0.4591 -0.0550  0.5529
   10CHTO   H72 4068   5.872   8.181   1.888  1.5143  3.5971 -0.3683
   10CHTO   O27 4069   5.443   8.192   1.624 -0.1376  0.3654  0.2722
   10CHTO   C37 4070   5.458   8.319   1.564  0.1050  0.5740 -0.0137
   10CHTO   H79 4071   5.557   8.353   1.596  0.6268 -0.7320 -0.2036
   10CHTO   C38 4072   5.449   8.307   1.409  0.2487  0.1139 -0.3678
   10CHTO   H80 4073   5.352   8.259   1.388  0.4779  0.3312 -2.0477
   10CHTO   O31 4074   5.559   8.221   1.377  0.3001 -0.2523  0.2449
   10CHTO   H68 4075   5.537   8.141   1.423 -0.0595 -0.0366  0.4503
   10CHTO   C39 4076   5.454   8.447   1.330  0.1390 -0.2464  1.0220
   10CHTO   H81 4077   5.551   8.491   1.355  0.1982  1.0164 -1.2995
   10CHTO    N7 4078   5.449   8.422   1.183  0.2516 -0.0032 -0.7299
   10CHTO   H73 4079   5.372   8.350   1.162 -1.7936  2.2122 -0.9133
   10CHTO   H74 4080   5.546   8.378   1.161  0.8912  1.0189 -0.0230
   10CHTO   C40 4081   5.346   8.540   1.386  0.0781  0.8763 -0.4388
   10CHTO   H82 4082   5.252   8.491   1.363 -0.1074  0.9488  0.1671
   10CHTO   O26 4083   5.367   8.547   1.534  0.0109 -0.1879  0.0431
   10CHTO   C41 4084   5.337   8.423   1.606 -0.2345 -0.2578  0.2938
   10CHTO   H83 4085   5.235   8.386   1.588 -0.6805  1.4743 -0.8055
   10CHTO   C52 4086   5.346   8.449   1.761 -0.2757  0.4663 -0.0536
   10CHTO   O35 4087   5.477   8.480   1.821 -0.2200 -0.7308  0.1551
   10CHTO   H71 4088   5.513   8.554   1.777 -0.5814 -0.8342 -0.3216
   10CHTO   O28 4089   5.359   8.681   1.349 -0.2802 -0.8762 -0.3548
   10CHTO   C42 4090   5.229   8.766   1.338 -0.2565 -0.2948  0.1086
   10CHTO   H84 4091   5.157   8.712   1.400  1.1490 -0.9749  1.1941
   10CHTO   C44 4092   5.170   8.776   1.194  0.2118  0.3418  0.7006
   10CHTO   H86 4093   5.247   8.812   1.125  1.1983  0.8621  2.0524
   10CHTO   O32 4094   5.127   8.644   1.158 -0.5999  0.2409  0.5053
   10CHTO   H69 4095   5.205   8.594   1.148  0.3873  2.0143 -1.1311
   10CHTO   C48 4096   5.049   8.877   1.184 -0.0968 -0.0989 -0.6500
   10CHTO   H90 4097   4.963   8.837   1.238 -0.7949  1.0029 -0.9378
   10CHTO    N9 4098   5.010   8.898   1.042 -0.7747 -0.3387  0.4252
   10CHTO   H77 4099   4.910   8.935   1.028 -0.7217 -0.2853  0.2019
   10CHTO   H78 4100   5.012   8.806   0.985 -1.2807  0.7330 -1.3330
   10CHTO   C51 4101   5.087   9.014   1.261 -0.3625 -0.2854 -0.3170
   10CHTO   H93 4102   5.169   9.063   1.209 -0.4980 -1.0846 -1.3133
   10CHTO   O30 4103   5.122   8.982   1.397  0.7935 -0.3076 -0.8506
   10CHTO   C46 4104   5.243   8.903   1.403 -0.4161  0.1490 -0.1044
   10CHTO   H88 4105   5.313   8.967   1.350 -0.7342  0.4053 -0.2231
   10CHTO   C53 4106   5.300   8.887   1.551 -0.0602 -0.5697 -0.0610
   10CHTO   O72 4107   5.245   8.784   1.627  0.1375 -0.5481 -0.3924
   10CHTO  H199 4108   5.157   8.815   1.620  0.0934 -0.3311  0.8974
   10CHTO   O22 4109   4.976   9.104   1.247  0.0296 -0.5124 -0.6098
   10CHTO   C31 4110   4.976   9.245   1.282 -0.3997 -0.2276 -0.6468
   10CHTO   H59 4111   4.870   9.273   1.297 -1.3550 -4.1473  0.7005
   10CHTO   C29 4112   5.058   9.295   1.404 -0.1322  0.0662  0.0887
   10CHTO   H57 4113   5.154   9.240   1.402 -1.5280 -2.4119 -1.1364
   10CHTO   O21 4114   5.001   9.246   1.521 -0.6103 -0.4331 -0.1633
   10CHTO   H37 4115   5.003   9.152   1.516  1.1168 -0.4123 -0.0866
   10CHTO   C27 4116   5.088   9.456   1.403 -0.4604  0.2432 -0.2128
   10CHTO   H55 4117   4.999   9.511   1.439  0.4402 -0.3981  3.1748
   10CHTO    N5 4118   5.199   9.485   1.497 -0.3459  0.3757 -0.6695
   10CHTO   H43 4119   5.169   9.443   1.592  2.1023  0.1122  0.0180
   10CHTO   H44 4120   5.213   9.592   1.502  0.6557  0.1764  1.6819
   10CHTO   C25 4121   5.116   9.511   1.264  0.4604 -0.3286 -0.2018
   10CHTO   H53 4122   5.210   9.458   1.243 -0.1508 -1.8557  0.8047
   10CHTO   O17 4123   5.019   9.470   1.160 -0.2451 -0.2313  0.1470
   10CHTO   C32 4124   5.018   9.324   1.150  0.2813  0.2037 -0.0769
   10CHTO   H60 4125   5.119   9.293   1.124  0.4184 -1.8744  2.7012
   10CHTO   C36 4126   4.931   9.294   1.022 -0.2065 -0.4667  0.2605
   10CHTO   O25 4127   4.981   9.367   0.911 -0.7288  0.5833 -0.5599
   10CHTO   H40 4128   4.978   9.456   0.939  0.8459  0.0393  1.4451
   10CHTO   O15 4129   5.113   9.645   1.255  0.2231 -0.4799  0.0145
   10CHTO   C19 4130   5.117   9.783   1.212  0.3323 -0.9517 -0.2293
   10CHTO   H47 4131   5.025   9.801   1.154  1.5642 -0.6454 -2.1380
   10CHTO   C20 4132   5.106   9.885   1.329  0.9853  0.4149 -0.4277
   10CHTO   H48 4133   5.189   9.876   1.401  0.2674  0.7322  0.4593
   10CHTO   O19 4134   4.984   9.855   1.406  0.0342  0.5315  0.0797
   10CHTO   H35 4135   4.974   9.768   1.440  0.0195  0.3554 -0.3673
   10CHTO   C21 4136   5.111  10.040   1.290  0.3214 -0.2457  0.3288
   10CHTO   H49 4137   5.018  10.067   1.239  1.2991  2.9716  0.1439
   10CHTO    N4 4138   5.124  10.135   1.401 -0.0827  0.0048 -0.5001
   10CHTO   H41 4139   5.034  10.184   1.433 -0.1407 -0.5421  0.2004
   10CHTO   H42 4140   5.171  10.096   1.491  1.4289  0.5989 -1.0197
   10CHTO   C22 4141   5.224  10.060   1.182 -0.0977  0.5387  0.6083
   10CHTO   H50 4142   5.321  10.081   1.228  0.1085  1.7118 -0.3280
   10CHTO   O14 4143   5.236   9.957   1.083  0.6191  0.2188 -0.0993
   10CHTO   C23 4144   5.236   9.823   1.124 -0.3522 -0.1139  0.0205
   10CHTO   H51 4145   5.333   9.797   1.167  0.5884  3.5044  0.2595
   10CHTO   C34 4146   5.241   9.742   0.996  0.6071  0.2284  0.4445
   10CHTO   O23 4147   5.359   9.761   0.912  0.2054 -0.3111  0.2027
   10CHTO   H38 4148   5.368   9.686   0.857 -1.8676 -0.8853  0.5955
   10CHTO   O16 4149   5.194  10.180   1.107 -0.6130  0.1467 -0.5758
   10CHTO   C24 4150   5.314  10.229   1.002  0.3744  0.1485 -0.4829
   10CHTO   H52 4151   5.405  10.170   1.011 -2.3245 -4.2091 -0.0863
   10CHTO   C26 4152   5.341  10.371   1.044 -0.1868  0.7568 -0.6619
   10CHTO   H54 4153   5.250  10.431   1.022  1.0900  2.6755 -0.7966
   10CHTO   O20 4154   5.382  10.380   1.182 -0.1619 -0.1419  0.3963
   10CHTO   H36 4155   5.318  10.338   1.237  1.5728 -1.9233  1.1279
   10CHTO   C30 4156   5.457  10.431   0.955  0.4167  0.3108 -0.1251
   10CHTO   H58 4157   5.549  10.374   0.977  0.7854  1.1680  0.6099
   10CHTO    N6 4158   5.485  10.573   0.983  0.7973  0.0512  0.7884
   10CHTO   H45 4159   5.432  10.608   1.070 -0.9949 -0.0663 -0.2246
   10CHTO   H46 4160   5.591  10.577   1.003  0.7939 -1.5050  1.2387
   10CHTO   C33 4161   5.418  10.413   0.806 -0.5405 -0.2769  0.0644
   10CHTO   H61 4162   5.336  10.485   0.792 -0.1860  0.1881  0.3302
   10CHTO   O18 4163   5.370  10.279   0.769  0.0384 -0.4401  0.9267
   10CHTO   C28 4164   5.271  10.226   0.853 -0.9637 -0.1705  0.0079
   10CHTO   H56 4165   5.179  10.285   0.844  0.4981  1.9236 -1.5342
   10CHTO   C35 4166   5.223  10.091   0.809  0.0435 -0.1215 -0.2344
   10CHTO   O24 4167   5.124  10.101   0.715  0.7643  0.1511  0.2170
   10CHTO   H39 4168   5.109  10.018   0.674 -0.7651  0.3510  0.3449
   10CHTO    O9 4169   5.527  10.460   0.718  0.1588 -0.2913  0.0021
   10CHTO   C13 4170   5.630  10.361   0.655 -0.0052 -0.9524  0.1001
   10CHTO   H26 4171   5.566  10.301   0.588  0.3537 -0.2773 -0.8767
   10CHTO   C11 4172   5.707  10.270   0.759 -0.1570  0.2476 -0.4735
   10CHTO   H24 4173   5.634  10.208   0.813 -0.1756 -0.0075 -0.7920
   10CHTO    O8 4174   5.779  10.351   0.855  0.5547 -0.3560 -0.1921
   10CHTO    H3 4175   5.718  10.407   0.899  0.9963  0.2443 -0.3424
   10CHTO    C9 4176   5.806  10.180   0.682 -0.2087 -0.0961 -0.1403
   10CHTO   H22 4177   5.737  10.129   0.614 -0.3705  1.9541 -1.5571
   10CHTO    N2 4178   5.874  10.072   0.763 -1.0085 -0.5168 -0.5491
   10CHTO   H10 4179   5.824  10.053   0.857 -0.0196  0.9641  0.2956
   10CHTO   H11 4180   5.883   9.984   0.702 -3.4826 -2.4801  1.7959
   10CHTO    C7 4181   5.905  10.281   0.597 -0.4497 -0.0833  0.1336
   10CHTO   H20 4182   5.958  10.206   0.534 -1.4377 -0.9373  0.2988
   10CHTO    O4 4183   5.839  10.375   0.512 -0.4092 -0.0507 -0.2230
   10CHTO   C14 4184   5.727  10.442   0.569 -0.4556 -0.0444  0.4640
   10CHTO   H27 4185   5.680  10.473   0.473  0.0351  1.3156  0.6434
   10CHTO   C18 4186   5.783  10.575   0.644 -0.4795  0.1791  0.2136
   10CHTO   O13 4187   5.674  10.666   0.665 -0.1181  0.1075 -0.1826
   10CHTO    H7 4188   5.627  10.635   0.740  1.2680 -3.1358 -0.5614
   10CHTO    O2 4189   6.007  10.357   0.681 -0.1684  0.2673 -0.4175
   10CHTO    C1 4190   6.139  10.389   0.628  0.3854 -0.1783  0.6901
   10CHTO   H14 4191   6.193  10.454   0.701 -0.1006  1.1337 -0.1060
   10CHTO    C2 4192   6.142  10.455   0.487 -0.0089  0.2023 -0.4530
   10CHTO   H15 4193   6.070  10.391   0.433  0.6410 -2.5749  1.8405
   10CHTO    O6 4194   6.076  10.584   0.484  0.2667  0.2855  0.2885
   10CHTO    H1 4195   6.134  10.656   0.472  3.1130 -1.8806  0.4859
   10CHTO    C3 4196   6.288  10.453   0.410 -0.3187 -0.2784  0.5552
   10CHTO   H16 4197   6.346  10.539   0.447  0.9050 -0.7242 -0.2912
   10CHTO    N1 4198   6.286  10.488   0.271  0.2780  0.0813 -0.1942
   10CHTO    H8 4199   6.249  10.406   0.212 -0.1194  0.7519 -0.8881
   10CHTO    H9 4200   6.207  10.561   0.260 -0.7715 -1.4660 -3.6776
   10CHTO    C4 4201   6.374  10.324   0.443  0.2983  0.4881 -0.8693
   10CHTO   H17 4202   6.348  10.244   0.374  2.4023 -0.3171 -0.7772
   10CHTO    O1 4203   6.352  10.281   0.583  0.1354  0.7904  0.3152
   10CHTO    C5 4204   6.219  10.259   0.623  0.1507 -0.6014 -0.2233
   10CHTO   H18 4205   6.167  10.190   0.556  0.2230 -1.8241  0.9466
   10CHTO   C16 4206   6.216  10.191   0.769 -0.2654  0.3366  0.4373
   10CHTO   O11 4207   6.296  10.074   0.775 -0.0696  0.1046  0.4185
   10CHTO    H5 4208   6.244  10.001   0.748  0.4096  0.1284 -0.5970
   10CHTO    O3 4209   6.515  10.356   0.436  0.1000  0.2917  0.2333
   10CHTO    C6 4210   6.616  10.260   0.385 -0.1551  0.4480 -0.4581
   10CHTO   H19 4211   6.582  10.156   0.379  3.0168 -0.9260  3.1592
   10CHTO    C8 4212   6.665  10.312   0.246 -0.5895 -0.5368  0.3167
   10CHTO   H21 4213   6.692  10.418   0.254  1.5987 -1.0097 -0.6331
   10CHTO    O7 4214   6.556  10.298   0.156  0.5667  0.4561 -0.3146
   10CHTO    H2 4215   6.589  10.261   0.077  0.5331  1.7304 -0.9500
   10CHTO   C12 4216   6.793  10.236   0.198 -0.4991  0.2644 -0.0676
   10CHTO   H25 4217   6.753  10.140   0.158  1.1393 -0.1500 -0.7624
   10CHTO    N3 4218   6.860  10.305   0.084 -0.5242 -0.7529 -0.1966
   10CHTO   H12 4219   6.913  10.395   0.111  1.9041 -1.9780 -0.7144
   10CHTO   H13 4220   6.792  10.319   0.002  0.1851  1.0945 -0.5078
   10CHTO   C15 4221   6.893  10.197   0.314  0.1600  0.0364  0.0372
   10CHTO   H28 4222   6.968  10.272   0.340 -0.9294  1.1808 -0.0575
   10CHTO   O10 4223   6.987  10.066   0.273 -0.8044 -0.7541  0.6084
   10CHTO    H4 4224   7.052  10.052   0.339 -1.4596  0.1070  1.4460
   10CHTO    O5 4225   6.817  10.148   0.427 -0.2932  0.4766  0.1993
   10CHTO   C10 4226   6.727  10.251   0.482  0.1621  0.3210  0.2072
   10CHTO   H23 4227   6.775  10.349   0.478  1.4407 -0.2613  0.9041
   10CHTO   C17 4228   6.678  10.208   0.619  0.3739  0.1063  0.6760
   10CHTO   O12 4229   6.783  10.186   0.713  0.9671 -0.1828 -0.0492
   10CHTO    H6 4230   6.742  10.201   0.796 -2.3006  0.8136 -1.7667
   11CHTO  H203 4231   7.346   4.456   0.456  0.3640 -1.1096  0.6644
   11CHTO   O82 4232   7.392   4.479   0.378 -0.3791  0.2768  0.6092
   11CHTO  C123 4233   7.396   4.625   0.376  0.3287 -0.7747  0.2383
   11CHTO  H227 4234   7.475   4.663   0.308  0.5303 -1.7315 -0.0734
   11CHTO   O77 4235   7.265   4.653   0.314 -0.0349  0.0913  0.7929
   11CHTO  C118 4236   7.225   4.789   0.294 -0.0221  0.2423 -0.3219
   11CHTO  H222 4237   7.280   4.841   0.214  1.7200  1.7389  1.7809
   11CHTO  C125 4238   7.073   4.788   0.265 -0.2432 -0.4226  0.4760
   11CHTO   O84 4239   7.052   4.713   0.146 -0.1525 -0.4972 -0.4072
   11CHTO  H205 4240   6.994   4.758   0.087  2.6933  1.7965 -1.6470
   11CHTO  C114 4241   7.245   4.859   0.435  0.4486  0.0098  0.1259
   11CHTO  H218 4242   7.175   4.818   0.508  1.6297 -2.6438 -0.2059
   11CHTO  C116 4243   7.388   4.845   0.492 -0.4828 -1.0335 -0.4453
   11CHTO  H220 4244   7.449   4.882   0.407  0.3336  0.8958  0.9394
   11CHTO   O79 4245   7.410   4.930   0.607  0.1714 -0.0019 -0.5273
   11CHTO  H201 4246   7.328   4.950   0.649 -1.0989 -1.1015 -2.4012
   11CHTO  C120 4247   7.415   4.691   0.515  0.8240 -0.0020 -0.9138
   11CHTO  H224 4248   7.343   4.636   0.580  0.7334 -0.6521 -1.5524
   11CHTO   N21 4249   7.548   4.656   0.573  0.1168  0.5464  0.5944
   11CHTO  H211 4250   7.588   4.559   0.546 -1.0243 -1.1445  4.6788
   11CHTO  H212 4251   7.613   4.738   0.545 -0.2559  0.9833  1.0220
   11CHTO   O75 4252   7.208   4.999   0.413  0.3458  0.1840  0.5457
   11CHTO  C112 4253   7.131   5.055   0.537 -0.5084  0.1907  0.0275
   11CHTO  H216 4254   7.189   5.030   0.628  0.7848  0.8671 -0.5977
   11CHTO   O73 4255   7.000   4.996   0.543  0.0844  0.0552  0.1439
   11CHTO  C113 4256   6.907   5.047   0.640  0.4739 -0.0115  0.1952
   11CHTO  H217 4257   6.958   5.044   0.739 -2.3741 -1.2398  1.6967
   11CHTO  C124 4258   6.785   4.948   0.655  0.3822 -0.5284  0.9485
   11CHTO   O83 4259   6.826   4.815   0.657 -0.2655 -0.1946 -0.2796
   11CHTO  H204 4260   6.871   4.807   0.739 -2.8682  0.4071  1.2805
   11CHTO  C109 4261   6.869   5.194   0.591  0.2266  0.1903 -0.1694
   11CHTO  H213 4262   6.843   5.192   0.484 -1.8149  3.0443  0.2316
   11CHTO  C110 4263   6.999   5.278   0.605  0.9247  0.2511  0.8491
   11CHTO  H214 4264   7.021   5.276   0.712 -0.8996 -0.4402  1.2458
   11CHTO   O78 4265   6.976   5.408   0.568  0.2032  0.3051 -0.1745
   11CHTO  H200 4266   6.941   5.422   0.481 -0.7694  1.6547  0.4130
   11CHTO  C111 4267   7.116   5.215   0.522 -0.3321  0.5775 -0.7481
   11CHTO  H215 4268   7.091   5.223   0.415 -0.0506 -1.4681 -0.9820
   11CHTO   N19 4269   7.242   5.293   0.542  0.7292  1.0852 -1.2024
   11CHTO  H207 4270   7.266   5.351   0.454 -0.8339  1.0620 -1.6594
   11CHTO  H208 4271   7.322   5.227   0.571  0.6923  1.6935  0.3297
   11CHTO   O74 4272   6.747   5.249   0.661  0.2680 -0.4284 -0.2670
   11CHTO  C115 4273   6.642   5.289   0.571 -0.2093  0.6828 -0.2544
   11CHTO  H219 4274   6.668   5.281   0.466  0.3650  0.3394 -0.0848
   11CHTO   O76 4275   6.508   5.204   0.592  0.7717  0.0301 -0.3917
   11CHTO  C122 4276   6.459   5.214   0.729 -0.1706 -0.5919  0.0083
   11CHTO  H226 4277   6.511   5.137   0.786  1.2969 -1.6926 -2.7074
   11CHTO  C126 4278   6.309   5.175   0.716 -0.2499 -0.0606 -0.5456
   11CHTO   O85 4279   6.237   5.281   0.655  0.9338 -0.5232  0.1648
   11CHTO  H206 4280   6.179   5.311   0.723  1.2765  2.9984 -1.0282
   11CHTO  C121 4281   6.482   5.353   0.799  0.6938  0.0852 -0.1882
   11CHTO  H225 4282   6.403   5.377   0.873 -0.9638  0.6447 -2.1182
   11CHTO   O81 4283   6.596   5.330   0.886  0.2814 -0.3688  0.1079
   11CHTO  H202 4284   6.643   5.411   0.881 -3.3878  1.8334 -0.6999
   11CHTO  C119 4285   6.496   5.469   0.693 -0.0742 -0.1383 -0.1256
   11CHTO  H223 4286   6.408   5.458   0.629 -0.1727  0.2916 -0.0693
   11CHTO  C117 4287   6.620   5.444   0.604 -0.3116  0.1287 -0.8593
   11CHTO  H221 4288   6.711   5.473   0.656 -1.4188 -1.4726  2.0779
   11CHTO   N20 4289   6.616   5.529   0.484 -0.0766 -0.6339 -0.1819
   11CHTO  H209 4290   6.526   5.493   0.436 -1.1643 -0.9627  2.0366
   11CHTO  H210 4291   6.701   5.509   0.421 -0.1908 -0.4865 -0.3819
   11CHTO   O80 4292   6.480   5.639   0.749  0.2228 -0.5203 -0.3094
   11CHTO  C103 4293   6.503   5.672   0.910  0.1977 -0.1510  0.2356
   11CHTO  H190 4294   6.472   5.582   0.964 -2.7895 -1.6215 -3.7218
   11CHTO  C101 4295   6.654   5.706   0.949  0.2581  0.2492  0.7789
   11CHTO  H188 4296   6.697   5.763   0.867  2.1640 -1.8792  0.2403
   11CHTO   O68 4297   6.750   5.572   0.959  0.0075  0.0620 -0.3657
   11CHTO  H168 4298   6.721   5.508   1.022 -0.7378 -0.3431 -1.1214
   11CHTO   C99 4299   6.666   5.798   1.074 -0.4020 -0.2353 -0.2098
   11CHTO  H186 4300   6.630   5.740   1.161  0.3764 -0.6931 -0.1917
   11CHTO   N17 4301   6.807   5.841   1.111 -0.5743 -0.1007  0.6863
   11CHTO  H174 4302   6.880   5.762   1.097 -1.9466 -1.1315 -0.8983
   11CHTO  H175 4303   6.842   5.925   1.054  0.6117 -1.2133 -0.2585
   11CHTO   C97 4304   6.570   5.915   1.060 -0.0102 -0.7220 -0.2134
   11CHTO  H184 4305   6.597   5.976   0.973  2.1628  0.8729  1.5334
   11CHTO   O64 4306   6.436   5.863   1.051  0.3034 -0.2083  0.5478
   11CHTO  C104 4307   6.398   5.786   0.939  0.1499 -0.0417 -0.7581
   11CHTO  H191 4308   6.389   5.839   0.844 -2.3749 -1.1175 -1.1587
   11CHTO  C108 4309   6.263   5.720   0.956  0.6676  0.0586  0.0961
   11CHTO   O71 4310   6.162   5.820   0.978 -0.3431 -0.4121 -0.2573
   11CHTO  H171 4311   6.081   5.792   0.939 -1.9604 -1.7220  3.7833
   11CHTO   O62 4312   6.572   6.002   1.176  0.4018  0.0065 -0.0688
   11CHTO   C91 4313   6.519   6.136   1.166  0.0252  0.3044  0.3776
   11CHTO  H178 4314   6.497   6.157   1.062 -0.6457 -0.9909  0.2452
   11CHTO   C92 4315   6.632   6.235   1.216  0.3988 -0.5092  0.6139
   11CHTO  H179 4316   6.726   6.209   1.165  0.7074 -0.8211  1.3533
   11CHTO   O66 4317   6.599   6.363   1.161  0.1544  0.4694  0.3406
   11CHTO  H166 4318   6.662   6.427   1.188  2.4236  0.1222 -3.6933
   11CHTO   C93 4319   6.640   6.242   1.372  0.5197  0.1968 -0.2284
   11CHTO  H180 4320   6.703   6.326   1.404 -0.3588  0.9909 -0.5612
   11CHTO   N16 4321   6.724   6.130   1.427  0.5267  0.2203  0.2025
   11CHTO  H172 4322   6.750   6.055   1.353  0.4776  1.3778 -1.0062
   11CHTO  H173 4323   6.811   6.153   1.487 -1.4003 -0.1064  3.2403
   11CHTO   C94 4324   6.503   6.247   1.448  0.2282  0.4506 -0.6416
   11CHTO  H181 4325   6.489   6.160   1.512  2.8525 -0.1586 -0.8509
   11CHTO   O61 4326   6.402   6.263   1.350  0.0702  0.4932  0.3450
   11CHTO   C95 4327   6.395   6.157   1.259 -0.4366  0.9037 -0.7003
   11CHTO  H182 4328   6.375   6.067   1.317 -1.2449  0.8574 -1.0459
   11CHTO  C106 4329   6.259   6.176   1.169  0.1107  0.4282 -0.5700
   11CHTO   O69 4330   6.143   6.135   1.231 -0.4409 -0.1552 -0.0240
   11CHTO  H169 4331   6.151   6.141   1.324 -2.8068  1.0565  0.1410
   11CHTO   O63 4332   6.495   6.376   1.530  0.4371 -0.0808 -0.2391
   11CHTO   C96 4333   6.523   6.358   1.700  0.8094  0.2284  0.1396
   11CHTO  H183 4334   6.585   6.268   1.703  1.1408  0.4722  0.6691
   11CHTO   C98 4335   6.397   6.334   1.778 -1.1204  0.1509  0.1090
   11CHTO  H185 4336   6.324   6.416   1.766 -2.7409 -1.2020  0.5334
   11CHTO   O67 4337   6.337   6.220   1.714  0.4199 -0.4701 -0.2583
   11CHTO  H167 4338   6.333   6.136   1.756 -0.1879 -0.6840 -0.7360
   11CHTO  C102 4339   6.423   6.314   1.929 -0.0320 -0.6713 -0.4515
   11CHTO  H189 4340   6.486   6.225   1.945  2.8212  1.6129  1.5232
   11CHTO   N18 4341   6.298   6.296   2.005 -0.1058 -0.1618 -0.6287
   11CHTO  H176 4342   6.313   6.302   2.112  0.8057  0.8203 -0.8024
   11CHTO  H177 4343   6.255   6.199   1.990 -1.0505 -0.0312  1.1393
   11CHTO  C105 4344   6.504   6.436   1.980 -0.0624  0.9537  0.0247
   11CHTO  H192 4345   6.440   6.524   1.966 -0.8146  0.9019  2.8402
   11CHTO   O65 4346   6.623   6.465   1.903 -0.0299  1.0037  0.1709
   11CHTO  C100 4347   6.596   6.481   1.759  0.0059  0.2496 -0.8383
   11CHTO  H187 4348   6.538   6.572   1.736 -0.2847 -0.4008 -2.7799
   11CHTO  C107 4349   6.727   6.497   1.681  0.3079  0.0886  0.2887
   11CHTO   O70 4350   6.845   6.529   1.756 -0.3476  0.1935  0.2357
   11CHTO  H170 4351   6.899   6.588   1.707 -0.1734  2.0400  2.5843
   11CHTO   O57 4352   6.534   6.420   2.136  0.1069  0.3366  0.1413
   11CHTO   C85 4353   6.625   6.503   2.210  0.3073  0.3244 -0.2237
   11CHTO  H157 4354   6.584   6.488   2.312 -0.9184  1.2274 -0.5599
   11CHTO   C83 4355   6.600   6.657   2.190  0.3037 -0.6473  0.4629
   11CHTO  H155 4356   6.494   6.678   2.206 -0.0482 -3.1204  1.5250
   11CHTO   O56 4357   6.636   6.699   2.057  0.0692 -0.4895  0.3624
   11CHTO  H135 4358   6.609   6.640   1.990  0.2062 -1.1893  0.9280
   11CHTO   C81 4359   6.682   6.731   2.297  0.2069  0.3612 -0.0166
   11CHTO  H153 4360   6.645   6.701   2.395 -1.6396  0.7760 -0.5594
   11CHTO   N14 4361   6.644   6.871   2.301  0.3985  0.1210 -1.0699
   11CHTO  H141 4362   6.669   6.916   2.394 -0.3347  0.0548 -0.8354
   11CHTO  H142 4363   6.693   6.924   2.222 -1.4323 -1.2828 -3.2440
   11CHTO   C79 4364   6.833   6.694   2.288  0.5300 -0.1681 -0.9820
   11CHTO  H151 4365   6.879   6.740   2.375 -0.6354  0.7337 -0.8229
   11CHTO   O52 4366   6.857   6.550   2.298 -0.1234  0.6746  0.3663
   11CHTO   C86 4367   6.780   6.475   2.203 -0.3980  0.3689  0.2904
   11CHTO  H158 4368   6.817   6.503   2.102  0.0709  1.1399  0.6694
   11CHTO   C90 4369   6.807   6.318   2.209  0.0925 -0.3258 -0.2242
   11CHTO   O60 4370   6.929   6.279   2.139 -0.1602  0.2400 -0.1190
   11CHTO  H138 4371   6.921   6.198   2.093 -0.9584 -0.2049  0.7935
   11CHTO   O50 4372   6.907   6.746   2.177 -0.1232 -0.2519  0.2080
   11CHTO   C73 4373   6.988   6.867   2.147 -0.5376  0.7759 -1.1229
   11CHTO  H145 4374   6.983   6.939   2.230  2.3074  2.5935 -2.4826
   11CHTO   C74 4375   6.948   6.925   2.005  0.7334  0.5660 -0.4534
   11CHTO  H146 4376   6.844   6.959   2.013  1.1994  2.0860 -0.7826
   11CHTO   O54 4377   7.036   7.033   1.972 -0.0158 -0.5864 -1.0176
   11CHTO  H133 4378   7.036   7.101   2.036  1.9811 -2.3185  0.8825
   11CHTO   C75 4379   6.964   6.813   1.895 -0.4149 -0.9013  0.6577
   11CHTO  H147 4380   6.891   6.732   1.909  0.1130 -1.7464 -1.4064
   11CHTO   N13 4381   6.928   6.859   1.757 -0.4223 -0.4185 -0.5210
   11CHTO  H139 4382   6.982   6.947   1.724 -3.7297  0.4417 -4.0497
   11CHTO  H140 4383   6.931   6.778   1.686  1.4657 -1.1805  0.3927
   11CHTO   C76 4384   7.121   6.766   1.910 -0.1250  0.9311  0.0433
   11CHTO  H148 4385   7.185   6.851   1.889 -0.8125  1.2223 -0.8778
   11CHTO   O49 4386   7.152   6.719   2.041 -0.3419 -0.4559 -0.4775
   11CHTO   C77 4387   7.141   6.823   2.140  0.4580  0.1119  0.2110
   11CHTO  H149 4388   7.203   6.910   2.117  1.0982 -0.9910 -2.4948
   11CHTO   C88 4389   7.193   6.771   2.275 -0.1589 -0.4023  0.1802
   11CHTO   O58 4390   7.245   6.895   2.351  0.2135  0.4345 -0.1250
   11CHTO  H136 4391   7.290   6.872   2.431  1.5786 -1.3964 -1.3624
   11CHTO   O51 4392   7.145   6.650   1.801 -0.3506 -0.2206  0.1434
   11CHTO   C78 4393   7.287   6.578   1.809  0.1961  0.0394  0.9018
   11CHTO  H150 4394   7.294   6.521   1.904  2.1646  1.0264  1.3575
   11CHTO   C80 4395   7.411   6.662   1.784  0.5757  0.0943  0.1226
   11CHTO  H152 4396   7.386   6.734   1.703  1.3691 -2.0943 -2.1571
   11CHTO   O55 4397   7.429   6.748   1.897 -0.1575 -0.5758 -0.4779
   11CHTO  H134 4398   7.519   6.776   1.898 -0.9821  2.2487 -0.2234
   11CHTO   C84 4399   7.539   6.575   1.749 -0.5710 -0.4934 -0.0720
   11CHTO  H156 4400   7.548   6.519   1.842  1.8001  0.9055  0.5949
   11CHTO   N15 4401   7.658   6.657   1.717  0.3253 -0.9521 -0.2745
   11CHTO  H143 4402   7.733   6.609   1.656  1.5120 -0.6381  0.9318
   11CHTO  H144 4403   7.637   6.752   1.673 -0.8529 -1.7747 -1.5657
   11CHTO   C87 4404   7.502   6.476   1.638 -0.4315 -0.3096  0.7794
   11CHTO  H159 4405   7.474   6.528   1.547 -1.8627 -0.4676  1.1111
   11CHTO   O53 4406   7.382   6.387   1.698  0.2947 -0.0250  0.8861
   11CHTO   C82 4407   7.263   6.464   1.704  0.8700  0.6821 -0.9076
   11CHTO  H154 4408   7.246   6.511   1.607 -1.7674  0.7158 -0.4526
   11CHTO   C89 4409   7.140   6.376   1.742  0.0424  0.0662  0.0215
   11CHTO   O59 4410   7.149   6.318   1.870 -0.0276  0.4503 -0.4553
   11CHTO  H137 4411   7.136   6.385   1.935  1.9441  0.6206 -0.1996
   11CHTO   O45 4412   7.643   6.364   1.589 -0.2629  0.2654 -0.1759
   11CHTO   C67 4413   7.667   6.363   1.450  0.1835  0.1509 -0.3424
   11CHTO  H124 4414   7.574   6.387   1.398  0.0810  1.0003  0.2209
   11CHTO   C65 4415   7.775   6.475   1.417 -0.1613 -0.3584  0.2601
   11CHTO  H122 4416   7.825   6.501   1.511 -0.8316 -1.0303  0.8071
   11CHTO   O44 4417   7.707   6.590   1.373 -0.1136 -0.3902 -0.4384
   11CHTO  H102 4418   7.655   6.623   1.444  0.9384  1.7528 -0.6371
   11CHTO   C63 4419   7.888   6.436   1.325  0.2450  0.0511  0.4506
   11CHTO  H120 4420   7.965   6.389   1.386 -0.4371  0.0843  1.3452
   11CHTO   N11 4421   7.976   6.543   1.269  1.2193 -0.1477 -0.0499
   11CHTO  H108 4422   8.027   6.598   1.345  0.4144  0.9701 -0.3025
   11CHTO  H109 4423   7.903   6.600   1.216  0.8897 -0.3960  0.1323
   11CHTO   C61 4424   7.852   6.319   1.218  0.2264 -0.8219  0.2088
   11CHTO  H118 4425   7.947   6.268   1.198  1.3333  0.9918  0.6831
   11CHTO   O40 4426   7.748   6.219   1.260  0.1213  0.3841  0.2841
   11CHTO   C68 4427   7.718   6.229   1.407 -0.0585 -0.2466 -0.1522
   11CHTO  H125 4428   7.815   6.208   1.457  1.4779  2.0493 -2.0978
   11CHTO   C72 4429   7.612   6.112   1.442 -0.1397  0.2098 -0.3318
   11CHTO   O48 4430   7.662   5.978   1.426  0.1126 -0.0939 -0.3162
   11CHTO  H105 4431   7.606   5.908   1.399 -0.3207 -0.2327  0.9073
   11CHTO   O38 4432   7.794   6.371   1.096  0.4765 -0.0319 -0.1512
   11CHTO   C55 4433   7.758   6.289   0.977  0.9229 -0.3817 -0.3554
   11CHTO  H112 4434   7.754   6.184   1.010  0.1971 -1.0412 -2.4903
   11CHTO   C56 4435   7.857   6.309   0.858 -0.0146 -0.0136 -0.0067
   11CHTO  H113 4436   7.854   6.417   0.839 -1.1882 -0.0177  0.1222
   11CHTO   O42 4437   7.994   6.285   0.887 -0.0124  0.0404  0.0486
   11CHTO  H100 4438   8.020   6.361   0.936 -0.3893 -0.5012  1.0975
   11CHTO   C57 4439   7.805   6.231   0.730  0.5876 -0.0450  0.1665
   11CHTO  H114 4440   7.836   6.127   0.722  0.7478 -0.0286  0.5571
   11CHTO   N10 4441   7.882   6.272   0.606  0.2879  0.2109 -0.3930
   11CHTO  H106 4442   7.984   6.300   0.629 -0.2552  2.6315 -0.7910
   11CHTO  H107 4443   7.830   6.348   0.550  0.2219  0.3349 -0.1619
   11CHTO   C58 4444   7.652   6.243   0.713  0.1686  0.3295  1.4473
   11CHTO  H115 4445   7.624   6.344   0.676 -0.8893 -0.4782 -0.0030
   11CHTO   O37 4446   7.582   6.221   0.834 -0.0233  0.3871 -0.1231
   11CHTO   C59 4447   7.610   6.316   0.939  0.1451  0.2263 -1.0529
   11CHTO  H116 4448   7.591   6.416   0.899  1.2952  0.3490 -1.3288
   11CHTO   C70 4449   7.510   6.283   1.050 -0.1464 -0.1498 -0.2905
   11CHTO   O46 4450   7.521   6.378   1.161  0.0788 -0.4150 -0.1548
   11CHTO  H103 4451   7.512   6.326   1.238 -0.8191 -1.2935 -0.8344
   11CHTO   O39 4452   7.601   6.132   0.621 -0.0932  0.0301 -0.0397
   11CHTO   C60 4453   7.465   6.137   0.570  0.0768 -0.3100 -0.3313
   11CHTO  H117 4454   7.393   6.149   0.651  1.5522  1.2207  0.7950
   11CHTO   C62 4455   7.444   6.261   0.477  0.1780  0.8176 -0.1245
   11CHTO  H119 4456   7.484   6.354   0.522  0.9932 -0.4062  1.7628
   11CHTO   O43 4457   7.535   6.247   0.367  0.2915  0.0169 -0.3456
   11CHTO  H101 4458   7.563   6.157   0.368  0.3142  0.0269 -0.1546
   11CHTO   C66 4459   7.284   6.270   0.430  0.5495 -0.2607  0.2946
   11CHTO  H123 4460   7.223   6.278   0.520 -1.5684 -2.3374 -0.9263
   11CHTO   N12 4461   7.241   6.388   0.353 -0.2057 -0.0812  0.9008
   11CHTO  H110 4462   7.311   6.471   0.356 -0.0682 -0.1225 -0.8476
   11CHTO  H111 4463   7.142   6.422   0.379  0.2611  0.8584  1.5090
   11CHTO   C69 4464   7.254   6.132   0.357 -0.3359 -0.7960  0.7117
   11CHTO  H126 4465   7.321   6.139   0.268 -0.4353 -1.3171  0.5955
   11CHTO   O41 4466   7.278   6.015   0.448 -0.0782 -0.2173 -0.9299
   11CHTO   C64 4467   7.426   6.003   0.502 -0.6860 -0.0223  0.8665
   11CHTO  H121 4468   7.503   5.970   0.430  0.7323  1.2668  1.7591
   11CHTO   C71 4469   7.409   5.889   0.606  0.3312 -0.4119 -0.6296
   11CHTO   O47 4470   7.540   5.854   0.656  0.0388  0.2233  0.3054
   11CHTO  H104 4471   7.606   5.847   0.589  0.0499  0.9774  0.2329
   11CHTO   O34 4472   7.113   6.130   0.310 -0.0894  0.2852  0.3885
   11CHTO   C49 4473   6.999   6.042   0.273  0.1266  0.7232  0.3065
   11CHTO   H91 4474   7.038   5.961   0.212 -1.7507  0.2583 -0.3087
   11CHTO   C47 4475   6.900   6.134   0.199  0.0946 -0.3213  0.1879
   11CHTO   H89 4476   6.817   6.070   0.162 -1.9190  2.6128 -0.5471
   11CHTO   O33 4477   6.971   6.183   0.085 -0.0832  0.5017 -0.0270
   11CHTO   H70 4478   7.037   6.237   0.125 -0.7725 -1.0790  3.4183
   11CHTO   C45 4479   6.847   6.250   0.298  0.3290 -0.2052 -0.5596
   11CHTO   H87 4480   6.933   6.303   0.341  0.1159  1.3265 -1.9890
   11CHTO    N8 4481   6.760   6.346   0.235  0.6094  0.0980 -0.2514
   11CHTO   H75 4482   6.752   6.433   0.299 -1.1254 -1.4499  1.7105
   11CHTO   H76 4483   6.789   6.379   0.136  0.9138 -0.1484 -0.2440
   11CHTO   C43 4484   6.779   6.177   0.429 -0.8168  0.0800  0.1009
   11CHTO   H85 4485   6.773   6.255   0.505 -0.0549 -0.0021  0.2529
   11CHTO   O29 4486   6.857   6.068   0.480  0.0798 -0.0344  0.5920
   11CHTO   C50 4487   6.939   5.981   0.402  0.2257  0.2309 -0.2928
   11CHTO   H92 4488   7.017   5.942   0.469  0.4212  0.6568 -0.2666
   11CHTO   C54 4489   6.859   5.851   0.384 -0.2571  0.0350 -0.7594
   11CHTO   O36 4490   6.848   5.776   0.507  0.7212 -0.6434  0.2583
   11CHTO   H72 4491   6.815   5.690   0.490  0.3936 -0.4733  0.0104
   11CHTO   O27 4492   6.644   6.125   0.417 -0.2442  0.1365 -0.1682
   11CHTO   C37 4493   6.539   6.058   0.493  0.8112  0.1388 -0.1422
   11CHTO   H79 4494   6.578   5.976   0.555  1.8193  1.1849  0.6229
   11CHTO   C38 4495   6.469   6.153   0.600 -0.1353  0.2224  0.0187
   11CHTO   H80 4496   6.430   6.243   0.549  0.1333  0.2580 -0.1247
   11CHTO   O31 4497   6.577   6.186   0.691 -0.0302 -0.4951 -0.5835
   11CHTO   H68 4498   6.555   6.204   0.781  4.4320  0.2819  0.4897
   11CHTO   C39 4499   6.353   6.089   0.672 -0.3974 -0.1621 -0.3001
   11CHTO   H81 4500   6.398   6.014   0.736  1.9699  0.1118 -1.6182
   11CHTO    N7 4501   6.277   6.182   0.761  0.4454  0.0597  0.0501
   11CHTO   H73 4502   6.311   6.164   0.862  0.2009 -1.9486 -0.2142
   11CHTO   H74 4503   6.269   6.286   0.731 -1.6978 -0.2293 -0.4633
   11CHTO   C40 4504   6.255   6.016   0.575 -0.2970  0.5896 -0.2769
   11CHTO   H82 4505   6.181   6.087   0.537 -0.6371 -0.4325 -1.5544
   11CHTO   O26 4506   6.316   5.941   0.474  0.1231  0.3395  0.3838
   11CHTO   C41 4507   6.424   6.006   0.391  0.2753 -0.4091  0.2868
   11CHTO   H83 4508   6.378   6.081   0.325  0.4482 -0.8693 -0.3621
   11CHTO   C52 4509   6.477   5.893   0.306 -0.1702 -0.6361  0.6664
   11CHTO   O35 4510   6.570   5.950   0.182  0.6586  0.1942  0.1060
   11CHTO   H71 4511   6.641   6.004   0.210 -0.6180  1.8474  0.2295
   11CHTO   O28 4512   6.197   5.909   0.650  0.3292 -0.2496  0.1681
   11CHTO   C42 4513   6.068   5.847   0.616 -0.2925 -0.5195 -0.6231
   11CHTO   H84 4514   6.063   5.868   0.509  0.0180  2.0488 -0.1456
   11CHTO   C44 4515   5.950   5.915   0.690  1.0329  0.3718 -0.3620
   11CHTO   H86 4516   5.977   5.933   0.794  1.3095  0.3418 -0.4264
   11CHTO   O32 4517   5.939   6.044   0.631 -0.0703  0.3947 -0.0970
   11CHTO   H69 4518   6.016   6.097   0.643  3.0932 -4.3454  1.9475
   11CHTO   C48 4519   5.808   5.841   0.687 -0.6178  0.4985  0.9291
   11CHTO   H90 4520   5.779   5.843   0.581  1.4687  0.5906  0.3334
   11CHTO    N9 4521   5.694   5.910   0.756 -0.1177  0.6913 -0.0592
   11CHTO   H77 4522   5.656   5.988   0.692 -1.6848 -0.1718 -0.1991
   11CHTO   H78 4523   5.618   5.839   0.783  1.0935 -1.7967 -2.9701
   11CHTO   C51 4524   5.828   5.695   0.725  0.9080  0.1212  0.2889
   11CHTO   H93 4525   5.876   5.699   0.823  0.0562 -0.9674  0.7659
   11CHTO   O30 4526   5.913   5.642   0.622 -0.1127  0.2064  0.2639
   11CHTO   C46 4527   6.062   5.693   0.635  0.3322 -0.1956 -0.1474
   11CHTO   H88 4528   6.101   5.662   0.732  1.3843 -2.3162 -1.1968
   11CHTO   C53 4529   6.140   5.620   0.518 -0.4165  0.1162 -0.1830
   11CHTO   O72 4530   6.278   5.660   0.524 -0.2795  0.6388 -0.1110
   11CHTO  H199 4531   6.331   5.632   0.451 -1.1330  0.4541 -0.6679
   11CHTO   O22 4532   5.704   5.616   0.731  0.1046 -0.3534 -0.0031
   11CHTO   C31 4533   5.692   5.502   0.823  0.6333  0.0279 -0.1966
   11CHTO   H59 4534   5.795   5.463   0.837  0.7709  0.2755 -0.5196
   11CHTO   C29 4535   5.645   5.541   0.973 -0.1446 -0.1289  0.1928
   11CHTO   H57 4536   5.548   5.593   0.969 -0.3642 -0.6908 -3.0394
   11CHTO   O21 4537   5.744   5.625   1.032 -0.5059 -1.1450 -0.1248
   11CHTO   H37 4538   5.731   5.718   1.024 -0.3237 -1.1569 -0.5743
   11CHTO   C27 4539   5.628   5.416   1.060  0.8557  0.7414  0.5844
   11CHTO   H55 4540   5.728   5.378   1.083  1.0390  1.6608  1.3762
   11CHTO    N5 4541   5.557   5.443   1.188 -0.0478 -0.0363  0.2797
   11CHTO   H43 4542   5.581   5.356   1.248  2.5968 -0.0328 -0.7183
   11CHTO   H44 4543   5.587   5.534   1.238  1.9484 -0.2119 -0.5482
   11CHTO   C25 4544   5.544   5.304   0.984 -0.0112  0.0386 -0.1034
   11CHTO   H53 4545   5.441   5.341   0.979  0.2706  0.9143  0.4253
   11CHTO   O17 4546   5.589   5.279   0.851 -0.8133 -0.3310 -0.5558
   11CHTO   C32 4547   5.599   5.389   0.764 -0.7927  0.1222 -0.5430
   11CHTO   H60 4548   5.496   5.422   0.773 -0.7316 -0.3550  2.8435
   11CHTO   C36 4549   5.635   5.341   0.617  0.1539  0.4370 -0.1671
   11CHTO   O25 4550   5.548   5.239   0.574  0.9014  0.2452  0.5485
   11CHTO   H40 4551   5.466   5.279   0.553 -0.2450 -1.0956  2.3018
   11CHTO   O15 4552   5.528   5.167   1.047  0.0831  0.4457  0.4992
   11CHTO   C19 4553   5.459   5.038   1.026 -0.0603  0.2618 -0.0428
   11CHTO   H47 4554   5.519   4.979   1.096  2.0492  1.2167 -1.0266
   11CHTO   C20 4555   5.309   5.037   1.077  0.0770  0.3221  0.2474
   11CHTO   H48 4556   5.251   5.123   1.041 -0.9374  0.8239  3.0134
   11CHTO   O19 4557   5.309   5.066   1.219  0.1534 -0.8556 -0.1056
   11CHTO   H35 4558   5.219   5.062   1.248 -1.0410 -1.1438 -3.6162
   11CHTO   C21 4559   5.234   4.900   1.044 -0.1593 -0.1588  0.1029
   11CHTO   H49 4560   5.248   4.833   1.129  1.3047 -1.6777 -1.2842
   11CHTO    N4 4561   5.089   4.914   1.042  0.2911  0.4982 -0.1258
   11CHTO   H41 4562   5.051   4.922   0.941  0.8003 -0.8454 -0.4275
   11CHTO   H42 4563   5.054   4.818   1.075 -0.7938  1.6403  2.1963
   11CHTO   C22 4564   5.286   4.829   0.913  0.5387 -0.4136 -0.5141
   11CHTO   H50 4565   5.236   4.877   0.828  2.1933 -0.0131 -1.2820
   11CHTO   O14 4566   5.425   4.844   0.884  0.1850  0.3697  0.1807
   11CHTO   C23 4567   5.478   4.978   0.887 -0.1145  0.0303  0.3134
   11CHTO   H51 4568   5.435   5.042   0.807  1.0328  0.9137  0.3811
   11CHTO   C34 4569   5.625   4.962   0.852  0.6673  0.4331  0.4054
   11CHTO   O23 4570   5.659   5.011   0.723  0.2366  0.8719 -0.5106
   11CHTO   H38 4571   5.750   4.998   0.707 -0.1205  0.0736 -1.9690
   11CHTO   O16 4572   5.273   4.688   0.925  0.3769 -0.3528 -0.0101
   11CHTO   C24 4573   5.231   4.626   0.791 -0.6149 -0.6060 -0.3056
   11CHTO   H52 4574   5.245   4.692   0.706  0.3550 -0.0153  0.3032
   11CHTO   C26 4575   5.087   4.579   0.788  0.4200  0.3274 -0.0509
   11CHTO   H54 4576   5.073   4.512   0.876  0.5265 -0.6004 -0.7304
   11CHTO   O20 4577   4.996   4.688   0.800 -0.5535  0.8488 -0.1869
   11CHTO   H36 4578   4.911   4.650   0.809 -0.2492  0.1642 -0.1940
   11CHTO   C30 4579   5.048   4.505   0.656  0.3336 -0.3434 -1.0600
   11CHTO   H58 4580   5.054   4.578   0.574 -2.9496  2.9161  1.4670
   11CHTO    N6 4581   4.913   4.436   0.667  0.1602 -0.4598 -0.3588
   11CHTO   H45 4582   4.910   4.330   0.648 -2.3481 -0.3905 -0.4318
   11CHTO   H46 4583   4.867   4.459   0.762 -0.3076 -2.5807 -0.0535
   11CHTO   C33 4584   5.156   4.395   0.608 -0.6434  0.6911 -0.2547
   11CHTO   H61 4585   5.145   4.296   0.655  2.3888  0.8104  0.7959
   11CHTO   O18 4586   5.292   4.436   0.646 -0.3960  0.5825  0.2566
   11CHTO   C28 4587   5.325   4.508   0.771 -0.5955  0.7936  0.1873
   11CHTO   H56 4588   5.313   4.440   0.855 -0.2706 -1.2219 -1.3717
   11CHTO   C35 4589   5.459   4.551   0.747 -0.0993  0.5599 -0.3617
   11CHTO   O24 4590   5.559   4.451   0.730 -0.1185  0.1461 -0.4111
   11CHTO   H39 4591   5.563   4.399   0.808 -0.6352 -2.3218 -1.9686
   11CHTO    O9 4592   5.142   4.372   0.470  0.9747  0.3323  0.2786
   11CHTO   C13 4593   5.187   4.494   0.378 -0.0871  0.3373  0.2469
   11CHTO   H26 4594   5.229   4.568   0.450 -1.6638  0.5688  0.9490
   11CHTO   C11 4595   5.065   4.551   0.300 -0.1409 -0.1945 -0.1835
   11CHTO   H24 4596   4.990   4.586   0.373 -0.6541  0.5110 -1.0349
   11CHTO    O8 4597   5.006   4.447   0.221 -0.8187  0.3951  0.6063
   11CHTO    H3 4598   4.914   4.444   0.237 -0.7069  0.3742  1.2815
   11CHTO    C9 4599   5.107   4.679   0.225  0.6536  0.0086 -0.5763
   11CHTO   H22 4600   5.120   4.754   0.304 -0.5199  1.2624 -1.5398
   11CHTO    N2 4601   4.998   4.745   0.145 -0.1850 -0.0927 -0.0532
   11CHTO   H10 4602   4.906   4.694   0.120  0.8324 -1.5329 -0.9422
   11CHTO   H11 4603   5.035   4.773   0.048  1.8989 -2.4011 -0.0007
   11CHTO    C7 4604   5.252   4.660   0.161  0.4835 -0.0287 -0.5310
   11CHTO   H20 4605   5.314   4.704   0.241 -0.7153 -0.7901  0.8249
   11CHTO    O4 4606   5.273   4.519   0.142 -0.5276 -0.4552  0.2355
   11CHTO   C14 4607   5.300   4.445   0.268 -0.0786 -0.0779  0.6025
   11CHTO   H27 4608   5.404   4.462   0.304 -0.1972  1.7942  0.0854
   11CHTO   C18 4609   5.280   4.296   0.231  0.0769  0.4199 -0.1083
   11CHTO   O13 4610   5.368   4.261   0.129 -0.5754 -0.0039  0.5760
   11CHTO    H7 4611   5.445   4.216   0.156  0.6364  1.2839 -0.6190
   11CHTO    O2 4612   5.284   4.748   0.012 -0.3481  0.1766  0.1178
   11CHTO    C1 4613   5.386   4.848   0.020 -0.1397 -0.5590 -0.0640
   11CHTO   H14 4614   5.419   4.847   0.126  2.0423 -0.0422 -0.7163
   11CHTO    C2 4615   5.343   4.998  -0.027 -0.7177 -0.1724  0.1269
   11CHTO   H15 4616   5.301   4.986  -0.128  1.8909  0.7553 -1.1162
   11CHTO    O6 4617   5.240   5.050   0.061  0.1393 -0.2328 -0.0472
   11CHTO    H1 4618   5.269   5.041   0.150 -0.6933 -0.1532  0.2345
   11CHTO    C3 4619   5.465   5.105  -0.028 -0.7845 -0.6222  0.2360
   11CHTO   H16 4620   5.496   5.118   0.077  1.7461 -0.5843 -0.5105
   11CHTO    N1 4621   5.431   5.237  -0.069 -0.5282 -0.1407  0.2015
   11CHTO    H8 4622   5.363   5.232  -0.152  0.2051 -1.6690 -0.3291
   11CHTO    H9 4623   5.384   5.270   0.023 -0.2355  0.8288  0.0132
   11CHTO    C4 4624   5.584   5.026  -0.101 -0.6436 -0.6284 -0.1320
   11CHTO   H17 4625   5.558   5.014  -0.206  0.5357 -1.4374 -0.3363
   11CHTO    O1 4626   5.603   4.894  -0.040 -0.6949  0.0393  0.6410
   11CHTO    C5 4627   5.503   4.799  -0.059 -1.0028  0.4024  0.0952
   11CHTO   H18 4628   5.488   4.793  -0.167  2.5007  0.1927 -0.4560
   11CHTO   C16 4629   5.560   4.658  -0.008 -0.8116 -0.0709  0.0872
   11CHTO   O11 4630   5.635   4.582  -0.112  0.3830 -0.1609 -0.1634
   11CHTO    H5 4631   5.690   4.635  -0.166  1.4539  0.4529  1.4894
   11CHTO    O3 4632   5.713   5.092  -0.083 -0.1366 -0.3263 -0.2096
   11CHTO    C6 4633   5.796   5.117  -0.202 -0.4714 -0.4248 -0.4355
   11CHTO   H19 4634   5.762   5.078  -0.298 -2.0082 -0.2992  0.0440
   11CHTO    C8 4635   5.811   5.274  -0.215 -0.5512 -0.2576 -0.5315
   11CHTO   H21 4636   5.822   5.315  -0.115 -1.4704  2.0998 -1.3559
   11CHTO    O7 4637   5.682   5.326  -0.265 -0.2963  0.3511  0.2091
   11CHTO    H2 4638   5.692   5.417  -0.287 -0.9525  0.8977  2.0853
   11CHTO   C12 4639   5.922   5.311  -0.325 -0.3584 -0.7176 -0.0538
   11CHTO   H25 4640   5.874   5.284  -0.421  2.0188 -1.1857 -1.1371
   11CHTO    N3 4641   5.948   5.462  -0.334  0.5680 -0.1409  0.1151
   11CHTO   H12 4642   6.031   5.487  -0.270  0.1743 -0.1138  0.6172
   11CHTO   H13 4643   5.981   5.479  -0.436 -1.7081  0.2550 -0.5988
   11CHTO   C15 4644   6.055   5.223  -0.299  0.3729 -0.5613  0.2535
   11CHTO   H28 4645   6.104   5.256  -0.207  3.9916 -1.6520 -1.2194
   11CHTO   O10 4646   6.152   5.230  -0.392  0.7532 -0.5645 -0.2141
   11CHTO    H4 4647   6.113   5.226  -0.478 -0.8321 -1.4027  0.5202
   11CHTO    O5 4648   6.027   5.087  -0.290 -0.6783  0.3991 -0.0350
   11CHTO   C10 4649   5.934   5.062  -0.181 -0.3744  0.0332 -0.7154
   11CHTO   H23 4650   5.974   5.106  -0.090  1.0112 -1.2311 -0.6945
   11CHTO   C17 4651   5.922   4.917  -0.167 -0.3664  0.2039  0.4522
   11CHTO   O12 4652   6.036   4.856  -0.104 -0.3392  0.3231  0.2304
   11CHTO    H6 4653   5.995   4.801  -0.040 -1.6007  0.7907 -0.1582
   12CHTO  H203 4654   4.465  12.021   3.492 -0.1624  0.2036  0.9757
   12CHTO   O82 4655   4.470  11.957   3.560  0.9821 -0.0313  0.6781
   12CHTO  C123 4656   4.586  11.872   3.542  0.3179 -0.4996 -0.7879
   12CHTO  H227 4657   4.673  11.939   3.551  0.7115 -0.7592 -2.3921
   12CHTO   O77 4658   4.566  11.791   3.658  0.3821  0.1894  1.0599
   12CHTO  C118 4659   4.680  11.703   3.678  0.5102  0.4505  0.0160
   12CHTO  H222 4660   4.763  11.772   3.702  0.2586  1.4080 -1.7526
   12CHTO  C125 4661   4.649  11.603   3.804  0.2948  0.2410 -0.0804
   12CHTO   O84 4662   4.657  11.665   3.928 -0.0098  0.2649 -0.3340
   12CHTO  H205 4663   4.664  11.598   3.993 -4.8654 -0.7899 -0.7073
   12CHTO  C114 4664   4.698  11.613   3.558 -0.6163  0.4983  0.1133
   12CHTO  H218 4665   4.608  11.553   3.543  0.8025 -1.3169 -1.4473
   12CHTO  C116 4666   4.709  11.692   3.425 -0.0580 -0.2255  0.0904
   12CHTO  H220 4667   4.805  11.747   3.423 -0.2122  0.0103 -2.7762
   12CHTO   O79 4668   4.720  11.602   3.311  0.6061 -0.0793  0.3916
   12CHTO  H201 4669   4.660  11.531   3.322  1.0469 -0.1273  2.8313
   12CHTO  C120 4670   4.591  11.793   3.405 -0.6652  0.2120  0.4594
   12CHTO  H224 4671   4.497  11.735   3.394 -0.1210 -0.1026 -3.0236
   12CHTO   N21 4672   4.610  11.882   3.290  0.8585  0.0928 -0.3521
   12CHTO  H211 4673   4.683  11.958   3.315  0.3539 -0.2491  2.3555
   12CHTO  H212 4674   4.512  11.922   3.269  0.4037  0.3280  2.0692
   12CHTO   O75 4675   4.809  11.525   3.582  0.2291 -0.0005  0.2033
   12CHTO  C112 4676   4.777  11.363   3.520  0.2791 -0.1103 -0.4320
   12CHTO  H216 4677   4.711  11.374   3.433  1.1590 -1.0277 -1.2288
   12CHTO   O73 4678   4.717  11.284   3.625  0.8636  0.1310  0.4669
   12CHTO  C113 4679   4.672  11.157   3.580 -0.3639 -0.2156  0.3838
   12CHTO  H217 4680   4.614  11.165   3.486  2.1411  1.8577 -1.0345
   12CHTO  C124 4681   4.572  11.105   3.682  0.8422  0.1616 -0.0895
   12CHTO   O83 4682   4.597  11.095   3.818  0.3973 -0.6948 -0.0963
   12CHTO  H204 4683   4.538  11.031   3.853  1.7650 -1.4323  0.9257
   12CHTO  C109 4684   4.802  11.069   3.554  0.4140 -0.3533 -0.5667
   12CHTO  H213 4685   4.860  11.062   3.648  2.0410  0.7107 -1.4595
   12CHTO  C110 4686   4.888  11.134   3.445 -0.0592 -0.0483 -0.3518
   12CHTO  H214 4687   4.836  11.124   3.350  2.2164 -0.2039 -1.6094
   12CHTO   O78 4688   5.007  11.062   3.421 -0.1020  0.3644  0.1983
   12CHTO  H200 4689   4.987  10.972   3.406 -1.3771  0.3825  1.6930
   12CHTO  C111 4690   4.913  11.284   3.477  0.2463 -0.1381 -1.1322
   12CHTO  H215 4691   4.986  11.293   3.559 -0.7397  2.7909 -0.4904
   12CHTO   N19 4692   4.974  11.355   3.363 -0.0363 -0.2161 -0.4306
   12CHTO  H207 4693   4.903  11.349   3.282  0.9268 -1.2981 -1.2140
   12CHTO  H208 4694   4.979  11.460   3.386  2.3136  0.3524 -3.2489
   12CHTO   O74 4695   4.773  10.929   3.510  0.3416 -0.4953 -0.0602
   12CHTO  C115 4696   4.782  10.810   3.593 -0.3402 -0.2390 -0.1027
   12CHTO  H219 4697   4.835  10.832   3.685  1.4852 -0.0581 -1.1657
   12CHTO   O76 4698   4.656  10.762   3.631 -0.1882  0.7951 -0.4378
   12CHTO  C122 4699   4.569  10.729   3.524  0.4360  0.4671 -0.5294
   12CHTO  H226 4700   4.547  10.823   3.473  0.5025  0.6031 -0.3065
   12CHTO  C126 4701   4.430  10.672   3.577  0.8359  0.5688 -0.5004
   12CHTO   O85 4702   4.338  10.766   3.637 -0.2242  0.3305 -0.4086
   12CHTO  H206 4703   4.321  10.838   3.579  0.0993  0.6345 -0.1335
   12CHTO  C121 4704   4.632  10.629   3.413 -0.0616 -0.3446 -0.6235
   12CHTO  H225 4705   4.566  10.541   3.395  2.3209 -1.7426 -2.8823
   12CHTO   O81 4706   4.640  10.703   3.290 -0.1748 -0.5170 -0.1080
   12CHTO  H202 4707   4.556  10.741   3.270  0.3408  0.0105 -1.3515
   12CHTO  C119 4708   4.769  10.572   3.469  0.1260  0.2299  0.7668
   12CHTO  H223 4709   4.741  10.519   3.560  1.0189 -0.9351  0.3782
   12CHTO  C117 4710   4.864  10.691   3.515  0.0532  0.5699 -0.3227
   12CHTO  H221 4711   4.910  10.742   3.430 -1.2771  1.3089 -0.6262
   12CHTO   N20 4712   4.980  10.636   3.591  0.2325 -0.1352  0.4999
   12CHTO  H209 4713   4.982  10.531   3.617 -0.6255  0.0175  1.2202
   12CHTO  H210 4714   5.028  10.708   3.655 -1.3254  2.1322 -0.8061
   12CHTO   O80 4715   4.828  10.453   3.387  0.1288 -0.0145 -0.3688
   12CHTO  C103 4716   4.842  10.314   3.462 -0.6300 -0.1537 -0.7274
   12CHTO  H190 4717   4.899  10.314   3.555  0.2938 -0.7411 -1.2920
   12CHTO  C101 4718   4.698  10.241   3.490  1.0512 -0.2700 -0.6197
   12CHTO  H188 4719   4.638  10.235   3.400  2.5766  3.3787 -1.9774
   12CHTO   O68 4720   4.619  10.319   3.608  0.1137  0.1042 -0.4938
   12CHTO  H168 4721   4.674  10.351   3.677 -0.3045 -0.6594  0.1890
   12CHTO   C99 4722   4.726  10.090   3.525 -0.1750 -0.0758  0.5032
   12CHTO  H186 4723   4.785  10.079   3.619  1.8446 -1.6542 -0.9207
   12CHTO   N17 4724   4.596  10.012   3.556 -0.0747  0.0453  0.0432
   12CHTO  H174 4725   4.609   9.911   3.591 -3.6754 -0.4438  0.1320
   12CHTO  H175 4726   4.531  10.014   3.470  0.4116  1.8056 -0.2984
   12CHTO   C97 4727   4.816  10.018   3.417  0.2399  0.3765 -1.2766
   12CHTO  H184 4728   4.760  10.021   3.323 -1.0073 -0.1829 -0.5699
   12CHTO   O64 4729   4.939  10.094   3.412  0.3950 -0.1663 -0.3324
   12CHTO  C104 4730   4.926  10.226   3.358 -0.6417 -0.0517  0.0864
   12CHTO  H191 4731   4.875  10.216   3.263  0.1707  1.3367 -0.5039
   12CHTO  C108 4732   5.067  10.283   3.327  0.2762  0.2524 -0.1591
   12CHTO   O71 4733   5.132  10.202   3.228  0.0532  0.8803  0.3507
   12CHTO  H171 4734   5.221  10.180   3.249 -0.0457  0.4710  0.3477
   12CHTO   O62 4735   4.852   9.887   3.459 -0.2668  0.3158 -0.0154
   12CHTO   C91 4736   4.902   9.795   3.360  0.2567 -0.8686 -0.3816
   12CHTO  H178 4737   4.911   9.845   3.263 -1.8886  1.5504  0.6101
   12CHTO   C92 4738   4.790   9.691   3.337  0.0606  0.0242  0.5432
   12CHTO  H179 4739   4.754   9.651   3.433  0.0643  2.3250  1.5272
   12CHTO   O66 4740   4.669   9.753   3.284 -0.7978  0.6712 -0.3096
   12CHTO  H166 4741   4.600   9.692   3.269 -1.1663  0.6107  1.5816
   12CHTO   C93 4742   4.834   9.572   3.242 -0.4813  0.0869  0.0274
   12CHTO  H180 4743   4.850   9.621   3.144  2.1171  0.7899  0.7563
   12CHTO   N16 4744   4.743   9.456   3.226 -0.1501  0.2754  1.1379
   12CHTO  H172 4745   4.785   9.361   3.256  0.5577 -0.5027 -2.1829
   12CHTO  H173 4746   4.703   9.451   3.126 -0.4201  0.4575  1.2378
   12CHTO   C94 4747   4.972   9.520   3.290  0.0236  0.2723 -0.4456
   12CHTO  H181 4748   4.969   9.483   3.393  0.1201  2.8333  0.5113
   12CHTO   O61 4749   5.066   9.632   3.290  0.4766 -0.6069 -0.7423
   12CHTO   C95 4750   5.037   9.727   3.389  0.3828 -0.4140  0.6342
   12CHTO  H182 4751   5.037   9.679   3.486  0.5382  1.5795  1.6492
   12CHTO  C106 4752   5.160   9.819   3.399  0.2040 -0.0564  0.4136
   12CHTO   O69 4753   5.265   9.746   3.464 -1.1544 -0.6670  0.4305
   12CHTO  H169 4754   5.355   9.759   3.438 -1.5463  0.0782 -0.6009
   12CHTO   O63 4755   5.032   9.411   3.190 -0.1846 -0.3677 -0.0946
   12CHTO   C96 4756   5.156   9.331   3.256 -0.1883  0.5968 -0.5931
   12CHTO  H183 4757   5.163   9.357   3.362  0.2795 -0.8712 -0.2575
   12CHTO   C98 4758   5.294   9.370   3.187 -0.4551  0.0179  0.1888
   12CHTO  H185 4759   5.300   9.355   3.078  0.8934  0.9839  0.1092
   12CHTO   O67 4760   5.311   9.509   3.204  0.4523 -0.4076  0.0538
   12CHTO  H167 4761   5.394   9.549   3.188  1.0002 -1.8374 -0.7494
   12CHTO  C102 4762   5.412   9.291   3.255 -0.2988 -0.0669  0.0753
   12CHTO  H189 4763   5.429   9.341   3.352  0.3936 -0.8911  0.3856
   12CHTO   N18 4764   5.541   9.291   3.182  0.0128  0.4370  0.3037
   12CHTO  H176 4765   5.525   9.253   3.083  0.4156 -1.1770  0.8318
   12CHTO  H177 4766   5.619   9.230   3.226 -1.1122 -1.7599 -0.6375
   12CHTO  C105 4767   5.381   9.146   3.302  0.4779 -0.3663 -0.4849
   12CHTO  H192 4768   5.404   9.077   3.221 -2.1274 -1.1184 -0.6393
   12CHTO   O65 4769   5.244   9.121   3.334  0.2527  0.3617 -0.5696
   12CHTO  C100 4770   5.149   9.175   3.239  1.0813 -0.5425 -0.5030
   12CHTO  H187 4771   5.164   9.140   3.136  1.7168  0.0890 -0.6208
   12CHTO  C107 4772   5.016   9.127   3.296  0.0165  0.5466  0.6372
   12CHTO   O70 4773   4.992   8.984   3.285  0.8293  0.5225  0.4311
   12CHTO  H170 4774   5.016   8.941   3.365 -0.1111 -0.6232  0.1064
   12CHTO   O57 4775   5.475   9.121   3.422  0.6260  0.0253 -0.1333
   12CHTO   C85 4776   5.492   8.988   3.467 -0.3959 -0.5144  0.8796
   12CHTO  H157 4777   5.454   8.920   3.388  2.2115 -0.5302 -0.4306
   12CHTO   C83 4778   5.412   8.975   3.596  0.0242  0.2857 -0.5993
   12CHTO  H155 4779   5.306   8.995   3.579 -0.2227  0.0728  0.6805
   12CHTO   O56 4780   5.464   9.070   3.692  0.1514 -0.1217  0.0486
   12CHTO  H135 4781   5.415   9.065   3.772 -1.6205  0.5494 -0.9767
   12CHTO   C81 4782   5.428   8.829   3.648  0.0606 -0.4184 -0.2844
   12CHTO  H153 4783   5.394   8.760   3.570  0.3451 -0.2138 -0.5925
   12CHTO   N14 4784   5.351   8.790   3.766 -0.4658 -0.5807 -0.1516
   12CHTO  H141 4785   5.252   8.816   3.733 -0.1592  1.3694  0.3887
   12CHTO  H142 4786   5.350   8.691   3.805 -1.5676 -0.1789  0.9075
   12CHTO   C79 4787   5.585   8.800   3.685  0.0683 -0.0534 -0.2238
   12CHTO  H151 4788   5.591   8.695   3.715  1.2977  0.2796  0.7131
   12CHTO   O52 4789   5.666   8.821   3.569 -0.3319  0.3523  0.2059
   12CHTO   C86 4790   5.644   8.950   3.502 -0.0116  0.3537 -0.5969
   12CHTO  H158 4791   5.689   9.025   3.570  1.1236  2.4666 -3.5543
   12CHTO   C90 4792   5.733   8.952   3.376 -0.4570 -0.7119  0.4494
   12CHTO   O60 4793   5.717   8.843   3.286  0.0478  0.9213 -0.6021
   12CHTO  H138 4794   5.635   8.843   3.242  0.0498 -1.5808 -0.6748
   12CHTO   O50 4795   5.647   8.885   3.786 -0.2202 -0.5120  0.7439
   12CHTO   C73 4796   5.657   8.897   3.923  0.2434  0.3008  0.9362
   12CHTO  H145 4797   5.581   8.835   3.973 -0.2124 -0.1521 -0.2872
   12CHTO   C74 4798   5.650   9.055   3.966 -0.3524 -0.1995  0.3076
   12CHTO  H146 4799   5.549   9.084   3.931 -0.6724 -0.7839  0.7208
   12CHTO   O54 4800   5.667   9.055   4.106 -0.1279  0.1807  0.0075
   12CHTO  H133 4801   5.620   9.126   4.147  0.9765  0.0592  1.5163
   12CHTO   C75 4802   5.764   9.138   3.891 -0.1370  0.6853  0.8707
   12CHTO  H147 4803   5.744   9.127   3.784  0.8114 -0.4309  0.8071
   12CHTO   N13 4804   5.764   9.280   3.917 -0.8088  0.4485  0.2144
   12CHTO  H139 4805   5.759   9.298   4.023 -1.0928 -2.9120  0.8180
   12CHTO  H140 4806   5.854   9.326   3.879  0.5918 -0.3895  2.4441
   12CHTO   C76 4807   5.908   9.057   3.917  0.2264  0.2558 -0.5943
   12CHTO  H148 4808   5.937   9.077   4.020  1.0515 -2.1244 -0.3396
   12CHTO   O49 4809   5.902   8.917   3.887  0.5285 -0.2096  0.4849
   12CHTO   C77 4810   5.798   8.847   3.961  0.4749 -0.7931 -0.1443
   12CHTO  H149 4811   5.818   8.875   4.064  3.0991  0.7549 -1.0324
   12CHTO   C88 4812   5.817   8.694   3.951 -0.6101 -0.0154  1.2083
   12CHTO   O58 4813   5.819   8.659   3.805  0.1373 -0.1119  0.3258
   12CHTO  H136 4814   5.737   8.681   3.766  0.7845  1.2490 -0.2926
   12CHTO   O51 4815   6.046   9.131   3.806  0.3358  0.0670  0.3353
   12CHTO   C78 4816   6.183   9.046   3.819  0.1375  0.7743 -0.7094
   12CHTO  H150 4817   6.151   8.941   3.834 -0.1571  1.0424  0.6112
   12CHTO   C80 4818   6.267   9.092   3.942  0.8351 -0.3960 -0.5143
   12CHTO  H152 4819   6.273   9.203   3.940 -2.6872 -0.1307 -0.0868
   12CHTO   O55 4820   6.192   9.048   4.060  0.9060 -0.1655  0.5091
   12CHTO  H134 4821   6.251   9.047   4.133  2.2827 -1.0251 -0.5741
   12CHTO   C84 4822   6.417   9.039   3.945  0.5661  0.3096  0.3174
   12CHTO  H156 4823   6.424   8.932   3.966 -1.0336  0.1416  0.0113
   12CHTO   N15 4824   6.504   9.109   4.045  0.3771  0.0111  0.0877
   12CHTO  H143 4825   6.491   9.214   4.035 -0.8870 -0.0963  0.3868
   12CHTO  H144 4826   6.487   9.087   4.149  0.6687 -0.5642  0.0165
   12CHTO   C87 4827   6.478   9.063   3.804  0.9643 -0.5347 -0.1814
   12CHTO  H159 4828   6.483   9.168   3.775  1.2110 -0.1154  1.3187
   12CHTO   O53 4829   6.384   8.978   3.695 -0.1216  0.5505 -0.3954
   12CHTO   C82 4830   6.256   9.053   3.690  0.0302  0.2528  0.2518
   12CHTO  H154 4831   6.280   9.156   3.664  0.3259  0.0102 -0.4529
   12CHTO   C89 4832   6.164   8.998   3.583 -0.0350  0.1538 -0.6094
   12CHTO   O59 4833   6.215   9.047   3.457  0.1589  0.4124  0.1876
   12CHTO  H137 4834   6.301   9.015   3.438  0.3216  0.1664  1.3249
   12CHTO   O45 4835   6.630   9.003   3.790 -0.0489  0.7450 -0.0627
   12CHTO   C67 4836   6.659   8.879   3.734 -0.5608  0.5905 -0.2475
   12CHTO  H124 4837   6.584   8.808   3.772  1.5139  0.0831  3.1609
   12CHTO   C65 4838   6.654   8.889   3.582 -0.6938 -0.3113  0.0839
   12CHTO  H122 4839   6.589   8.972   3.554 -0.1289  0.0310 -0.2123
   12CHTO   O44 4840   6.602   8.765   3.531 -0.1690  0.5890 -0.0120
   12CHTO  H102 4841   6.547   8.725   3.596 -1.1703  0.6631 -0.8013
   12CHTO   C63 4842   6.799   8.922   3.529 -0.2071 -0.3783 -0.9437
   12CHTO  H120 4843   6.832   9.015   3.574 -0.0555  0.7416 -3.2840
   12CHTO   N11 4844   6.809   8.965   3.387 -0.5215 -0.0650 -0.3906
   12CHTO  H108 4845   6.733   9.037   3.369  0.7552  1.3270 -0.2884
   12CHTO  H109 4846   6.905   9.007   3.369 -2.0508  3.3342 -0.9118
   12CHTO   C61 4847   6.900   8.803   3.559  0.3370  0.2507  0.0782
   12CHTO  H118 4848   6.998   8.853   3.572  0.0758  0.2053  2.5092
   12CHTO   O40 4849   6.866   8.733   3.686  0.2209 -0.3418 -0.3754
   12CHTO   C68 4850   6.803   8.820   3.786  0.3535 -0.4549  0.6737
   12CHTO  H125 4851   6.875   8.903   3.807 -0.4898  0.2033  0.9707
   12CHTO   C72 4852   6.784   8.748   3.923  0.0369 -0.3362 -0.6690
   12CHTO   O48 4853   6.727   8.614   3.896  0.0270  0.1776  0.0968
   12CHTO  H105 4854   6.790   8.548   3.878  0.7013  1.6084 -3.0738
   12CHTO   O38 4855   6.891   8.699   3.460 -0.1322  0.3355  0.4408
   12CHTO   C55 4856   7.016   8.631   3.437 -0.0900  0.3635 -0.0449
   12CHTO  H112 4857   7.082   8.644   3.523 -0.3648  0.9805  0.0719
   12CHTO   C56 4858   7.077   8.684   3.302  0.3677 -0.2751 -0.2121
   12CHTO  H113 4859   7.000   8.682   3.223  0.4576 -0.2714 -0.2992
   12CHTO   O42 4860   7.102   8.829   3.318 -0.5333  0.4628 -0.1755
   12CHTO  H100 4861   7.137   8.838   3.405 -2.1786  0.3077  0.5094
   12CHTO   C57 4862   7.204   8.591   3.265  0.3546  0.2721  0.4419
   12CHTO  H114 4863   7.281   8.606   3.340  1.7462 -0.3903 -0.8292
   12CHTO   N10 4864   7.266   8.632   3.138  0.1363 -0.3924 -0.1390
   12CHTO  H106 4865   7.368   8.595   3.136  2.0762  4.5467 -1.1363
   12CHTO  H107 4866   7.213   8.592   3.054 -0.6373  3.3076 -1.5124
   12CHTO   C58 4867   7.167   8.442   3.266 -0.4363  0.2749  0.5171
   12CHTO  H115 4868   7.088   8.430   3.188 -1.5541  0.3424  1.6240
   12CHTO   O37 4869   7.106   8.409   3.388 -0.1294  0.6421  0.5759
   12CHTO   C59 4870   6.985   8.482   3.416 -0.0155 -0.3308 -0.2595
   12CHTO  H116 4871   6.915   8.466   3.334  0.8027  1.5398 -1.3604
   12CHTO   C70 4872   6.929   8.416   3.540 -0.3744  0.3099  0.0355
   12CHTO   O46 4873   6.823   8.315   3.515 -0.4317  0.1620  0.0270
   12CHTO  H103 4874   6.736   8.346   3.530 -0.2273  0.0323  1.4782
   12CHTO   O39 4875   7.302   8.350   3.229  0.4148 -0.2536  0.1122
   12CHTO   C60 4876   7.281   8.232   3.160  0.3433 -0.0582  0.2313
   12CHTO  H117 4877   7.184   8.186   3.175  0.7673 -1.4086 -1.0377
   12CHTO   C62 4878   7.291   8.254   3.006 -0.2877 -0.1379 -0.1034
   12CHTO  H119 4879   7.215   8.330   2.977  0.3641  1.1015  1.3584
   12CHTO   O43 4880   7.426   8.298   2.969  0.2386 -0.4411 -0.1807
   12CHTO  H101 4881   7.462   8.345   3.042 -1.2508  1.0049 -0.3508
   12CHTO   C66 4882   7.257   8.117   2.929 -0.4822  0.0967 -0.0835
   12CHTO  H123 4883   7.159   8.087   2.965  0.0914 -0.5514  0.9812
   12CHTO   N12 4884   7.251   8.136   2.784  0.8790 -0.3898  0.3863
   12CHTO  H110 4885   7.340   8.185   2.748  0.4160  0.5255  0.4640
   12CHTO  H111 4886   7.168   8.199   2.754  1.6888 -0.4830 -2.1418
   12CHTO   C69 4887   7.364   8.008   2.963 -0.2148  0.6009  0.5848
   12CHTO  H126 4888   7.468   8.038   2.938 -0.2056 -1.9319 -2.6701
   12CHTO   O41 4889   7.361   8.002   3.127  0.1615 -0.2231 -0.3812
   12CHTO   C64 4890   7.388   8.128   3.206  0.2833  0.5067 -0.3241
   12CHTO  H121 4891   7.489   8.169   3.183  0.1498  0.3778 -1.1590
   12CHTO   C71 4892   7.388   8.097   3.356 -0.4329  0.3779  0.3721
   12CHTO   O47 4893   7.497   8.024   3.409 -0.5243  0.1757 -0.4967
   12CHTO  H104 4894   7.511   7.947   3.357  2.2173 -0.2048  0.7053
   12CHTO   O34 4895   7.345   7.879   2.916 -0.3335 -0.0055  0.4652
   12CHTO   C49 4896   7.442   7.768   2.880 -0.3230  0.0110 -0.5483
   12CHTO   H91 4897   7.484   7.781   2.781 -0.4445  1.7292 -0.3874
   12CHTO   C47 4898   7.363   7.636   2.881 -0.3872  0.3974 -0.5813
   12CHTO   H89 4899   7.434   7.561   2.838  0.4248  0.1112  1.1976
   12CHTO   O33 4900   7.253   7.657   2.793 -0.3636  0.4064  0.3533
   12CHTO   H70 4901   7.272   7.691   2.708 -1.4836 -0.3738 -0.2217
   12CHTO   C45 4902   7.319   7.595   3.032 -0.3476 -0.4665 -1.0058
   12CHTO   H87 4903   7.216   7.634   3.036 -0.0621  0.1936 -0.0271
   12CHTO    N8 4904   7.318   7.446   3.037 -0.1347 -0.0916 -0.2458
   12CHTO   H75 4905   7.261   7.385   2.968 -2.5610 -0.0250  1.6334
   12CHTO   H76 4906   7.310   7.399   3.134 -2.9146  0.8191  0.0299
   12CHTO   C43 4907   7.394   7.679   3.149 -0.7976 -0.4168 -0.3731
   12CHTO   H85 4908   7.352   7.779   3.165  0.4681 -0.1264  1.3185
   12CHTO   O29 4909   7.536   7.689   3.110  0.0014  0.4286 -0.5672
   12CHTO   C50 4910   7.569   7.748   2.981 -0.1399 -0.6334  0.9060
   12CHTO   H92 4911   7.603   7.850   3.003 -2.8271 -0.1451  3.1150
   12CHTO   C54 4912   7.691   7.684   2.915  0.3292  0.2848  0.0435
   12CHTO   O36 4913   7.809   7.683   3.005 -0.0485 -0.0275  0.1790
   12CHTO   H72 4914   7.785   7.644   3.087 -0.4149  1.8518  1.0017
   12CHTO   O27 4915   7.383   7.612   3.274 -0.6506 -0.2204 -0.5370
   12CHTO   C37 4916   7.334   7.594   3.405 -0.4470  0.2560  0.2984
   12CHTO   H79 4917   7.344   7.490   3.440 -1.1929 -0.3407 -1.1997
   12CHTO   C38 4918   7.416   7.689   3.495 -0.3206  0.7988  0.8473
   12CHTO   H80 4919   7.427   7.785   3.443  3.8780 -0.6768 -1.1148
   12CHTO   O31 4920   7.546   7.632   3.510  0.6836 -0.5802 -0.4059
   12CHTO   H68 4921   7.605   7.702   3.490 -0.9534  1.1453  0.6688
   12CHTO   C39 4922   7.346   7.715   3.634 -0.0822  0.0638  0.0431
   12CHTO   H81 4923   7.350   7.622   3.692  0.2802  0.1406  0.1404
   12CHTO    N7 4924   7.407   7.824   3.709 -0.1895  0.4492  0.4685
   12CHTO   H73 4925   7.370   7.924   3.693  0.6993  0.9819  1.6561
   12CHTO   H74 4926   7.384   7.822   3.814  0.7021 -0.0869  0.6543
   12CHTO   C40 4927   7.191   7.748   3.612 -0.2295 -0.1763 -0.1689
   12CHTO   H82 4928   7.178   7.844   3.561 -0.7924  0.5468  1.2952
   12CHTO   O26 4929   7.130   7.637   3.539  0.2750 -0.2077  0.3286
   12CHTO   C41 4930   7.182   7.629   3.406 -0.0956 -0.4925 -0.4675
   12CHTO   H83 4931   7.174   7.725   3.353  1.9442 -0.9002 -1.5567
   12CHTO   C52 4932   7.107   7.529   3.323 -0.2087  0.4544  0.0345
   12CHTO   O35 4933   6.963   7.568   3.293  0.3408 -0.1218 -0.2691
   12CHTO   H71 4934   6.972   7.653   3.253  0.8624  0.1624  0.4248
   12CHTO   O28 4935   7.122   7.752   3.742 -0.5257 -0.0792  0.4878
   12CHTO   C42 4936   6.982   7.783   3.772 -0.3325 -0.3309  0.2657
   12CHTO   H84 4937   6.974   7.760   3.878 -0.2013  0.6667  0.4990
   12CHTO   C44 4938   6.874   7.694   3.707  0.4514  0.7637  0.1555
   12CHTO   H86 4939   6.878   7.697   3.598 -1.2728  0.2431  0.0594
   12CHTO   O32 4940   6.879   7.550   3.739  0.1270  0.1145 -0.2110
   12CHTO   H69 4941   6.881   7.531   3.831 -0.1611 -1.9603 -0.6166
   12CHTO   C48 4942   6.733   7.745   3.745 -0.5998  0.1221 -0.5323
   12CHTO   H90 4943   6.726   7.733   3.854 -0.4278 -0.4513 -0.5839
   12CHTO    N9 4944   6.615   7.663   3.686 -0.0891 -0.1006  0.1423
   12CHTO   H77 4945   6.619   7.632   3.582  0.5459  1.4417 -0.3022
   12CHTO   H78 4946   6.599   7.577   3.749 -1.5971 -0.5081 -0.7697
   12CHTO   C51 4947   6.720   7.895   3.718 -0.0227 -0.4515  0.6547
   12CHTO   H93 4948   6.732   7.916   3.612  1.6251  3.6096  1.5808
   12CHTO   O30 4949   6.813   7.964   3.797 -0.0362 -0.0530 -0.0910
   12CHTO   C46 4950   6.949   7.937   3.757  0.2577 -0.5462 -0.3791
   12CHTO   H88 4951   6.959   7.969   3.653 -0.3792  1.2589  0.0972
   12CHTO   C53 4952   7.031   8.030   3.846 -0.3099  0.0621 -0.7981
   12CHTO   O72 4953   7.175   8.024   3.834 -0.1890 -0.0076 -0.2859
   12CHTO  H199 4954   7.218   8.047   3.914  2.4654  1.7104 -2.0930
   12CHTO   O22 4955   6.592   7.941   3.768 -0.5106  0.1638  0.0816
   12CHTO   C31 4956   6.524   8.067   3.773 -0.7742  0.3616 -0.7122
   12CHTO   H59 4957   6.418   8.044   3.798 -0.1698 -1.6294  0.0836
   12CHTO   C29 4958   6.577   8.167   3.878 -0.0907  0.3505 -0.6535
   12CHTO   H57 4959   6.674   8.203   3.844  0.9411 -0.2400  1.5586
   12CHTO   O21 4960   6.593   8.096   4.005 -0.4768  0.3578 -0.4963
   12CHTO   H37 4961   6.518   8.050   4.034  0.0429 -2.1264 -2.9105
   12CHTO   C27 4962   6.468   8.285   3.896 -0.2061 -0.8565 -0.2769
   12CHTO   H55 4963   6.374   8.234   3.924  0.3927 -0.9396  1.6635
   12CHTO    N5 4964   6.501   8.385   4.003  0.2494 -0.5352  0.1021
   12CHTO   H43 4965   6.432   8.468   3.996 -0.1188 -0.7306  1.2277
   12CHTO   H44 4966   6.588   8.443   3.979 -0.2275  0.1088 -0.0926
   12CHTO   C25 4967   6.450   8.356   3.758 -0.0087  0.4906  0.9476
   12CHTO   H53 4968   6.538   8.417   3.734 -0.3945  1.3004  1.5674
   12CHTO   O17 4969   6.436   8.262   3.640 -0.2042  0.3217  0.1916
   12CHTO   C32 4970   6.526   8.146   3.645  0.0695 -0.2695  0.4767
   12CHTO   H60 4971   6.625   8.190   3.628 -0.2150  0.8374  1.6000
   12CHTO   C36 4972   6.497   8.058   3.520  0.0688 -0.6415  0.2370
   12CHTO   O25 4973   6.486   8.135   3.396 -0.1555  0.6308  0.1420
   12CHTO   H40 4974   6.508   8.224   3.412  0.1703  0.8367 -1.3506
   12CHTO   O15 4975   6.327   8.445   3.760  0.5932 -0.2072  0.1005
   12CHTO   C19 4976   6.195   8.486   3.714 -0.2201 -0.3656 -0.1258
   12CHTO   H47 4977   6.162   8.562   3.785  0.7420  1.3462 -1.4835
   12CHTO   C20 4978   6.198   8.550   3.570  0.0246  0.0229 -0.3494
   12CHTO   H48 4979   6.224   8.477   3.492 -0.1329 -0.3321 -0.0718
   12CHTO   O19 4980   6.295   8.654   3.584  0.2190  0.0671 -0.5599
   12CHTO   H35 4981   6.267   8.728   3.533  2.1728  1.7822  0.7181
   12CHTO   C21 4982   6.050   8.606   3.535 -0.2204 -0.4849 -0.1186
   12CHTO   H49 4983   6.015   8.677   3.610  0.2747  0.2424 -0.5750
   12CHTO    N4 4984   6.041   8.666   3.401 -0.1913  0.5297  0.3377
   12CHTO   H41 4985   6.137   8.712   3.385 -0.0882  0.2527  0.1487
   12CHTO   H42 4986   6.036   8.585   3.330  0.7724  0.8279 -0.0691
   12CHTO   C22 4987   5.950   8.486   3.545  0.3645  0.8147  0.0443
   12CHTO   H50 4988   5.978   8.413   3.469  0.2852 -0.8612  1.5850
   12CHTO   O14 4989   5.957   8.417   3.672 -0.3086 -0.4287 -0.3113
   12CHTO   C23 4990   6.085   8.370   3.715  0.7116  0.0715 -0.9292
   12CHTO   H51 4991   6.109   8.284   3.650 -1.4908 -1.3216  0.0087
   12CHTO   C34 4992   6.056   8.317   3.859 -0.1748  0.1249 -0.4224
   12CHTO   O23 4993   6.000   8.416   3.954  0.2841  0.5039  0.2056
   12CHTO   H38 4994   6.005   8.390   4.044  0.9315 -1.0310 -0.2556
   12CHTO   O16 4995   5.808   8.531   3.535  0.7626  0.2114  0.0331
   12CHTO   C24 4996   5.707   8.445   3.448 -0.0536 -0.5690 -1.0484
   12CHTO   H52 4997   5.720   8.338   3.459 -0.1560 -0.5011 -0.2581
   12CHTO   C26 4998   5.728   8.484   3.300  0.1347  0.0236 -0.4700
   12CHTO   H54 4999   5.718   8.595   3.298  0.4222  0.0411 -1.5554
   12CHTO   O20 5000   5.862   8.461   3.250  0.1166  0.2007  0.7890
   12CHTO   H36 5001   5.909   8.406   3.309 -0.1499  0.6071  1.3902
   12CHTO   C30 5002   5.623   8.417   3.202  0.5046 -0.1947 -0.2612
   12CHTO   H58 5003   5.625   8.307   3.198 -2.7427 -0.4656  2.8705
   12CHTO    N6 5004   5.642   8.464   3.064  0.1675  0.1614 -0.2162
   12CHTO   H45 5005   5.661   8.570   3.069  0.4780  0.0740  0.3704
   12CHTO   H46 5006   5.556   8.442   3.001 -0.9338  1.4385  0.8178
   12CHTO   C33 5007   5.477   8.445   3.256 -0.3414  0.1961 -0.7059
   12CHTO   H61 5008   5.453   8.552   3.247 -2.2838 -0.1922 -0.3451
   12CHTO   O18 5009   5.472   8.407   3.396 -0.3481  0.2547  0.2853
   12CHTO   C28 5010   5.556   8.475   3.486 -0.5369 -0.0496  0.5143
   12CHTO   H56 5011   5.537   8.582   3.484 -0.3965 -0.0431 -0.3512
   12CHTO   C35 5012   5.537   8.437   3.634  0.1733 -0.0540 -0.0759
   12CHTO   O24 5013   5.410   8.476   3.684  0.4519 -0.5418 -0.1385
   12CHTO   H39 5014   5.407   8.457   3.776 -1.2015 -0.4185 -0.1395
   12CHTO    O9 5015   5.377   8.380   3.174  0.1849 -0.5566  0.2702
   12CHTO   C13 5016   5.385   8.222   3.193 -0.3060  0.1918 -0.0409
   12CHTO   H26 5017   5.454   8.198   3.276 -1.2346 -1.1183  0.3689
   12CHTO   C11 5018   5.432   8.156   3.055 -0.0377 -0.2261 -0.4092
   12CHTO   H24 5019   5.531   8.199   3.035  0.3270  0.1467  2.0193
   12CHTO    O8 5020   5.352   8.196   2.938 -0.0408 -0.1220  0.2551
   12CHTO    H3 5021   5.375   8.138   2.868 -0.5016  0.6753 -0.5677
   12CHTO    C9 5022   5.454   8.006   3.084  0.0029  0.5395  0.4743
   12CHTO   H22 5023   5.521   7.998   3.170 -1.5879 -1.6276  1.5636
   12CHTO    N2 5024   5.522   7.930   2.973 -0.3188 -0.1407 -0.3340
   12CHTO   H10 5025   5.557   7.837   3.015 -0.2790  0.0308  0.0147
   12CHTO   H11 5026   5.614   7.976   2.940 -1.2553  1.1078 -1.2235
   12CHTO    C7 5027   5.315   7.946   3.136 -0.6383  0.1003  0.3156
   12CHTO   H20 5028   5.346   7.884   3.223 -1.6777  0.9605  1.3234
   12CHTO    O4 5029   5.214   8.040   3.172 -0.4096  0.0296  0.7034
   12CHTO   C14 5030   5.245   8.156   3.245 -0.0961 -0.3780 -0.1679
   12CHTO   H27 5031   5.255   8.136   3.353  3.2767 -0.4351 -0.4269
   12CHTO   C18 5032   5.123   8.250   3.220  0.1869  1.1327 -0.1009
   12CHTO   O13 5033   4.996   8.195   3.267  0.5016  0.4503  0.2090
   12CHTO    H7 5034   4.938   8.266   3.287  1.8897  1.3861  0.9596
   12CHTO    O2 5035   5.245   7.848   3.030 -0.1963  0.0203 -1.0255
   12CHTO    C1 5036   5.180   7.732   3.080  0.3060 -0.6442  0.4338
   12CHTO   H14 5037   5.128   7.748   3.177 -1.7446 -1.2527 -0.5573
   12CHTO    C2 5038   5.276   7.605   3.088  0.4383 -0.0691  0.5880
   12CHTO   H15 5039   5.315   7.603   2.985 -1.2922  0.4725 -0.1095
   12CHTO    O6 5040   5.371   7.625   3.197 -0.4232  0.6101 -0.5954
   12CHTO    H1 5041   5.447   7.570   3.191 -0.2439  0.7671  0.1550
   12CHTO    C3 5042   5.196   7.476   3.120  0.0043  0.1213 -0.8033
   12CHTO   H16 5043   5.166   7.472   3.226  1.3903  1.6868 -0.3239
   12CHTO    N1 5044   5.279   7.358   3.096  0.8614  0.7934  0.0377
   12CHTO    H8 5045   5.232   7.271   3.140  1.5006  0.1304 -0.5673
   12CHTO    H9 5046   5.287   7.326   2.993 -0.6362  1.6391 -0.3510
   12CHTO    C4 5047   5.059   7.468   3.037 -0.4555 -0.6300  0.2553
   12CHTO   H17 5048   5.078   7.453   2.931 -0.6135 -3.0590  0.5347
   12CHTO    O1 5049   4.989   7.587   3.037  0.5427 -0.1497 -0.1110
   12CHTO    C5 5050   5.062   7.700   2.984 -0.4930  0.6031 -0.2385
   12CHTO   H18 5051   5.105   7.664   2.891  2.6540 -2.3288  2.2178
   12CHTO   C16 5052   4.965   7.812   2.962  0.4978 -0.8850  0.3943
   12CHTO   O11 5053   4.840   7.774   2.896 -0.2841  0.3992 -1.0197
   12CHTO    H5 5054   4.800   7.846   2.852 -1.8946 -0.0882 -0.4146
   12CHTO    O3 5055   4.972   7.368   3.085 -0.4187  0.3952 -0.7825
   12CHTO    C6 5056   4.867   7.308   2.999 -0.8130 -0.2444  0.3921
   12CHTO   H19 5057   4.859   7.380   2.918  1.1001  0.0305  0.4052
   12CHTO    C8 5058   4.912   7.179   2.930  0.3648 -0.0425 -0.2916
   12CHTO   H21 5059   4.953   7.108   3.002  0.8362  1.4406  0.9411
   12CHTO    O7 5060   5.016   7.195   2.835 -0.1966 -0.4307  0.0380
   12CHTO    H2 5061   5.039   7.125   2.777 -3.1903 -0.2628 -1.4279
   12CHTO   C12 5062   4.783   7.105   2.861 -0.0266  0.6626 -0.1702
   12CHTO   H25 5063   4.758   7.165   2.771 -0.7816  1.4903  0.5819
   12CHTO    N3 5064   4.818   6.968   2.811 -0.3592 -0.3299  0.2697
   12CHTO   H12 5065   4.790   6.955   2.708 -0.7005  0.9065  0.1959
   12CHTO   H13 5066   4.923   6.942   2.820 -0.8177 -2.1320  0.5625
   12CHTO   C15 5067   4.656   7.102   2.950  0.8130 -0.2693 -0.2576
   12CHTO   H28 5068   4.657   7.032   3.034 -0.8973 -3.1529 -2.5080
   12CHTO   O10 5069   4.535   7.070   2.879 -0.7116  0.1220 -0.1226
   12CHTO    H4 5070   4.518   6.978   2.882  1.0263 -0.1390  2.0325
   12CHTO    O5 5071   4.630   7.241   2.982  0.0545 -0.9555 -0.2411
   12CHTO   C10 5072   4.735   7.297   3.065  0.4437  0.5003 -0.3303
   12CHTO   H23 5073   4.737   7.243   3.160 -0.5539  0.6047 -0.2392
   12CHTO   C17 5074   4.686   7.438   3.109  0.0137  0.4091  0.1012
   12CHTO   O12 5075   4.649   7.521   2.998 -0.1544  0.4088 -0.8571
   12CHTO    H6 5076   4.680   7.607   3.018 -1.9234  0.7851  0.5044
   13CHTO  H203 5077   7.729   3.527   1.648 -3.6606 -2.0473 -0.3183
   13CHTO   O82 5078   7.675   3.590   1.690 -0.8253  0.5281 -0.3592
   13CHTO  C123 5079   7.692   3.713   1.625  0.1218 -0.4710  0.4633
   13CHTO  H227 5080   7.722   3.697   1.520  2.4945 -0.3590  1.0954
   13CHTO   O77 5081   7.561   3.758   1.629 -0.3248  0.1774  0.4137
   13CHTO  C118 5082   7.532   3.882   1.563 -0.1637 -0.2250 -0.0902
   13CHTO  H222 5083   7.567   3.871   1.459  2.9906  0.3211  0.8639
   13CHTO  C125 5084   7.380   3.903   1.557 -0.0818 -0.3458 -1.0143
   13CHTO   O84 5085   7.319   3.816   1.461 -0.4394 -0.0034 -0.0083
   13CHTO  H205 5086   7.238   3.780   1.490 -1.2340  0.9371 -1.0195
   13CHTO  C114 5087   7.604   3.995   1.637  0.0278 -0.4997 -0.0443
   13CHTO  H218 5088   7.565   4.004   1.738  0.7383 -1.1891  0.2986
   13CHTO  C116 5089   7.757   3.963   1.647 -0.1360  1.1787  0.1379
   13CHTO  H220 5090   7.802   3.973   1.546  1.3003 -1.3920  0.4712
   13CHTO   O79 5091   7.819   4.071   1.724  0.3881  0.1114  0.5336
   13CHTO  H201 5092   7.895   4.095   1.674 -0.0536  1.6259  0.5569
   13CHTO  C120 5093   7.780   3.816   1.712  0.6224 -0.6772  0.4528
   13CHTO  H224 5094   7.746   3.820   1.818  1.2408  1.4191  0.5867
   13CHTO   N21 5095   7.922   3.775   1.707  0.7829  0.0505 -0.4755
   13CHTO  H211 5096   7.973   3.821   1.624  0.2697  0.5603 -0.5064
   13CHTO  H212 5097   7.975   3.807   1.796  1.7945  0.2793 -1.1599
   13CHTO   O75 5098   7.592   4.112   1.557  0.4449  0.1468 -0.0876
   13CHTO  C112 5099   7.531   4.247   1.634  0.3349 -0.3392  0.1489
   13CHTO  H216 5100   7.583   4.249   1.731 -0.2243 -2.0646  0.5000
   13CHTO   O73 5101   7.395   4.225   1.654  0.1958  0.2095 -0.1951
   13CHTO  C113 5102   7.331   4.317   1.744 -0.3380 -0.4798  0.3222
   13CHTO  H217 5103   7.378   4.311   1.844  2.0190  1.5849 -0.5905
   13CHTO  C124 5104   7.194   4.256   1.768 -0.0574  0.4245  0.3001
   13CHTO   O83 5105   7.144   4.318   1.888  0.7274 -0.7148 -0.3546
   13CHTO  H204 5106   7.073   4.261   1.912  1.3339 -1.7496 -0.9582
   13CHTO  C109 5107   7.322   4.453   1.674  0.2230 -0.7798 -0.3151
   13CHTO  H213 5108   7.251   4.440   1.591  0.6577 -0.0351 -0.8098
   13CHTO  C110 5109   7.463   4.494   1.621  0.2718 -0.3187 -1.0512
   13CHTO  H214 5110   7.515   4.542   1.704  0.2313  1.2020 -1.8892
   13CHTO   O78 5111   7.454   4.604   1.528 -0.2410  0.0733  0.4707
   13CHTO  H200 5112   7.423   4.672   1.585 -1.3121 -0.0596  0.0524
   13CHTO  C111 5113   7.538   4.380   1.553 -0.0407 -0.1214  0.3202
   13CHTO  H215 5114   7.492   4.356   1.457  1.5108 -1.6394 -0.0762
   13CHTO   N19 5115   7.680   4.415   1.527  0.6870 -0.2391 -0.5014
   13CHTO  H207 5116   7.727   4.434   1.622 -2.6628 -2.3377  1.6909
   13CHTO  H208 5117   7.678   4.494   1.453 -0.4408  0.9577  0.7839
   13CHTO   O74 5118   7.261   4.552   1.764 -0.0831  0.0740 -0.1182
   13CHTO  C115 5119   7.188   4.666   1.690  0.0068  0.6203 -0.0664
   13CHTO  H219 5120   7.252   4.714   1.615 -2.0817  1.3452 -1.4434
   13CHTO   O76 5121   7.051   4.619   1.606 -0.4312  0.4061  0.2722
   13CHTO  C122 5122   6.950   4.560   1.696 -0.0613 -0.1978  0.3814
   13CHTO  H226 5123   6.986   4.464   1.733 -3.0818 -0.9865  1.3890
   13CHTO  C126 5124   6.831   4.529   1.598 -0.3631  0.3882 -0.0355
   13CHTO   O85 5125   6.750   4.421   1.652  0.2884 -0.6002 -0.9623
   13CHTO  H206 5126   6.661   4.449   1.661  0.3358 -1.0167  0.8752
   13CHTO  C121 5127   6.918   4.662   1.808 -0.1839  0.0065 -0.2297
   13CHTO  H225 5128   6.810   4.675   1.790 -0.1741 -1.6045 -1.5506
   13CHTO   O81 5129   6.947   4.594   1.931  0.4434  0.3049  0.6202
   13CHTO  H202 5130   7.013   4.529   1.926 -1.2096 -1.4248  0.6717
   13CHTO  C119 5131   6.989   4.798   1.797  0.2466 -0.1228  0.0763
   13CHTO  H223 5132   6.944   4.850   1.713  1.4330  0.7525 -0.0255
   13CHTO  C117 5133   7.148   4.781   1.794  0.0199  0.1174 -0.1661
   13CHTO  H221 5134   7.201   4.739   1.880  2.4426  1.3697 -0.9973
   13CHTO   N20 5135   7.210   4.911   1.765  0.0833  0.2964 -0.0865
   13CHTO  H209 5136   7.232   4.917   1.659  2.2734 -0.8119  0.2686
   13CHTO  H210 5137   7.309   4.908   1.808 -0.7610  1.3746  2.0229
   13CHTO   O80 5138   6.931   4.900   1.943  0.3118 -0.0705  0.1093
   13CHTO  C103 5139   6.811   5.003   1.927 -0.1660 -0.8047  0.3486
   13CHTO  H190 5140   6.813   5.077   2.007  2.8077  0.2303 -0.6135
   13CHTO  C101 5141   6.825   5.097   1.800  0.2139  0.4779 -0.2036
   13CHTO  H188 5142   6.834   5.036   1.709  1.6572 -1.5630  1.2564
   13CHTO   O68 5143   6.955   5.177   1.819  0.2979 -0.3185  0.3230
   13CHTO  H168 5144   7.012   5.128   1.875 -0.9475 -1.2107  0.8356
   13CHTO   C99 5145   6.696   5.190   1.774 -0.3553  0.0015 -0.0215
   13CHTO  H186 5146   6.685   5.264   1.856  0.7157 -1.9821  1.9652
   13CHTO   N17 5147   6.700   5.271   1.646  0.0507 -0.6818 -0.1211
   13CHTO  H174 5148   6.729   5.374   1.665 -0.9826 -0.3582 -0.2854
   13CHTO  H175 5149   6.611   5.266   1.586  0.0361 -1.0220 -0.0689
   13CHTO   C97 5150   6.569   5.100   1.780 -0.7799 -0.0965  1.1703
   13CHTO  H184 5151   6.586   5.034   1.694  1.1212 -0.3390  1.7009
   13CHTO   O64 5152   6.564   5.026   1.909  0.0293 -0.3514 -0.3097
   13CHTO  C104 5153   6.673   4.932   1.924  0.0525  0.1433  0.2211
   13CHTO  H191 5154   6.673   4.855   1.846  0.8875 -1.4188  1.7325
   13CHTO  C108 5155   6.644   4.849   2.048 -0.4287 -0.5949  0.4842
   13CHTO   O71 5156   6.758   4.761   2.079 -0.3888 -0.3965  0.6334
   13CHTO  H171 5157   6.726   4.685   2.125 -3.8602  0.2057 -0.5965
   13CHTO   O62 5158   6.443   5.165   1.772  0.5691 -0.3343 -0.9875
   13CHTO   C91 5159   6.334   5.078   1.720 -0.4845 -0.1462 -0.2572
   13CHTO  H178 5160   6.356   4.973   1.738 -0.5375 -0.2720 -0.9174
   13CHTO   C92 5161   6.318   5.087   1.571 -0.0168 -0.6264 -0.1813
   13CHTO  H179 5162   6.301   5.194   1.550 -0.4303 -0.4135  1.2477
   13CHTO   O66 5163   6.440   5.060   1.499  0.0466  0.1347 -0.9704
   13CHTO  H166 5164   6.462   4.969   1.502  2.1183  0.6261 -0.8304
   13CHTO   C93 5165   6.193   5.007   1.516 -0.7367  0.0796  0.1673
   13CHTO  H180 5166   6.214   4.900   1.531  3.3350  0.6063 -0.9404
   13CHTO   N16 5167   6.161   5.004   1.374  0.4440  0.4410 -0.8189
   13CHTO  H172 5168   6.227   5.071   1.321  0.4382  1.4178  0.3923
   13CHTO  H173 5169   6.164   4.907   1.326 -1.0879  0.8294 -1.7384
   13CHTO   C94 5170   6.066   5.048   1.601 -0.1479  0.0292  0.2327
   13CHTO  H181 5171   6.049   5.156   1.601 -1.1978 -0.1187  1.9285
   13CHTO   O61 5172   6.097   5.017   1.741 -1.2505 -0.5119  0.4709
   13CHTO   C95 5173   6.195   5.106   1.790  0.4153 -0.2718  0.5581
   13CHTO  H182 5174   6.165   5.208   1.771  0.1870 -0.3467  0.5150
   13CHTO  C106 5175   6.213   5.070   1.950 -0.1366  0.5488 -0.2605
   13CHTO   O69 5176   6.100   5.133   2.010 -0.8725  0.2350  0.0206
   13CHTO  H169 5177   6.116   5.173   2.093 -2.7637  2.4369 -0.6345
   13CHTO   O63 5178   5.925   4.968   1.558 -0.6280  0.6302 -0.4615
   13CHTO   C96 5179   5.812   5.035   1.594  0.7596 -0.2148 -0.6546
   13CHTO  H183 5180   5.819   5.136   1.554 -1.2630  0.3996  0.4865
   13CHTO   C98 5181   5.791   5.049   1.751  0.2390 -0.0566 -0.4060
   13CHTO  H185 5182   5.878   5.096   1.799  0.0420 -0.4733  0.3573
   13CHTO   O67 5183   5.681   5.148   1.767 -0.0351  0.3557  0.1248
   13CHTO  H167 5184   5.612   5.167   1.706 -1.3979  2.3681  2.2091
   13CHTO  C102 5185   5.739   4.914   1.821 -0.0139 -0.0946 -0.4288
   13CHTO  H189 5186   5.676   4.947   1.905  0.3462 -0.7279  0.1005
   13CHTO   N18 5187   5.854   4.844   1.876  0.7314  0.6809  0.0407
   13CHTO  H176 5188   5.914   4.912   1.934 -1.1228  1.2012  1.3803
   13CHTO  H177 5189   5.918   4.788   1.810  1.2145  1.1755  0.0870
   13CHTO  C105 5190   5.663   4.826   1.721  0.3532  0.1643  0.1855
   13CHTO  H192 5191   5.738   4.763   1.672 -0.4432 -1.4789  1.0328
   13CHTO   O65 5192   5.601   4.905   1.617 -0.5666 -0.4199 -0.2334
   13CHTO  C100 5193   5.696   4.959   1.526 -0.5086  0.1245  0.2871
   13CHTO  H187 5194   5.738   4.873   1.473 -0.5984  0.2434  0.0212
   13CHTO  C107 5195   5.616   5.047   1.431  1.0973 -0.5151 -0.0136
   13CHTO   O70 5196   5.685   5.073   1.309  0.4745 -0.1326 -0.4736
   13CHTO  H170 5197   5.764   5.121   1.319  0.4350  0.1604 -1.4439
   13CHTO   O57 5198   5.567   4.736   1.813 -0.1980 -0.0960  0.0021
   13CHTO   C85 5199   5.475   4.644   1.753  0.2578 -0.1872 -0.3383
   13CHTO  H157 5200   5.468   4.680   1.648 -0.4523 -1.5330 -0.7627
   13CHTO   C83 5201   5.328   4.662   1.799  0.0006  0.3362 -0.2925
   13CHTO  H155 5202   5.290   4.757   1.759 -1.4330 -0.6668 -1.3696
   13CHTO   O56 5203   5.330   4.685   1.942 -0.7523 -0.0514  0.8961
   13CHTO  H135 5204   5.253   4.659   1.989 -0.2584 -0.0495  1.7256
   13CHTO   C81 5205   5.249   4.543   1.743  0.4528 -0.5559  0.3217
   13CHTO  H153 5206   5.257   4.546   1.635  2.6212  0.5692  0.4782
   13CHTO   N14 5207   5.099   4.557   1.760  0.1913  0.1643  0.4565
   13CHTO  H141 5208   5.067   4.657   1.781 -2.2902 -0.5702  0.2849
   13CHTO  H142 5209   5.063   4.497   1.840 -1.3075  0.8154  0.2966
   13CHTO   C79 5210   5.300   4.408   1.794  0.6590 -0.4624 -0.1140
   13CHTO  H151 5211   5.228   4.331   1.768  1.7126 -1.5159  0.0464
   13CHTO   O52 5212   5.432   4.386   1.720  0.4273 -0.2545  0.5357
   13CHTO   C86 5213   5.531   4.492   1.754 -1.0720 -0.4387  0.0667
   13CHTO  H158 5214   5.556   4.452   1.855 -0.2967 -1.2158 -0.4337
   13CHTO   C90 5215   5.653   4.473   1.663  0.4039  0.1537  0.1201
   13CHTO   O60 5216   5.616   4.447   1.530  0.6112  0.1140 -0.7604
   13CHTO  H138 5217   5.542   4.499   1.504  0.0335 -0.6652 -0.6905
   13CHTO   O50 5218   5.315   4.408   1.938 -0.0639  0.0971 -0.6073
   13CHTO   C73 5219   5.298   4.315   2.046 -0.0257  0.1664 -0.0311
   13CHTO  H145 5220   5.317   4.214   2.007  2.6408  0.8436 -0.6050
   13CHTO   C74 5221   5.159   4.325   2.113  0.3084  0.2362 -0.0784
   13CHTO  H146 5222   5.093   4.299   2.030  0.0973 -0.7719  0.4019
   13CHTO   O54 5223   5.144   4.221   2.216  0.1842  0.0953 -0.0203
   13CHTO  H133 5224   5.057   4.199   2.241  0.2400 -0.7648 -0.5679
   13CHTO   C75 5225   5.129   4.475   2.163 -0.0866  0.0571 -0.1062
   13CHTO  H147 5226   5.135   4.544   2.078 -1.1249 -1.1993 -1.2192
   13CHTO   N13 5227   4.996   4.499   2.229  0.2347 -0.6748  0.7460
   13CHTO  H139 5228   4.981   4.606   2.229  0.8385 -0.5839 -0.3868
   13CHTO  H140 5229   5.001   4.471   2.333  1.6289  0.1641  0.9176
   13CHTO   C76 5230   5.249   4.517   2.255  0.7889  0.2735  0.0864
   13CHTO  H148 5231   5.241   4.471   2.354 -0.7760 -0.3644 -0.3138
   13CHTO   O49 5232   5.379   4.479   2.200  0.4017 -0.1069 -0.3389
   13CHTO   C77 5233   5.401   4.345   2.160 -0.4232  0.4025 -0.3034
   13CHTO  H149 5234   5.384   4.277   2.244 -0.6676  1.3595  0.4245
   13CHTO   C88 5235   5.553   4.344   2.132 -0.3267  0.5133 -0.1778
   13CHTO   O58 5236   5.648   4.379   2.244 -0.0120  0.1027  0.0056
   13CHTO  H136 5237   5.613   4.445   2.299  0.6945 -0.5476  1.2547
   13CHTO   O51 5238   5.270   4.669   2.256 -0.2286  0.2164  0.3390
   13CHTO   C78 5239   5.342   4.717   2.381  0.1974 -0.2287 -0.0958
   13CHTO  H150 5240   5.400   4.632   2.424  1.4288  0.4272 -0.4246
   13CHTO   C80 5241   5.250   4.776   2.493  0.0112  0.0397  0.0777
   13CHTO  H152 5242   5.196   4.863   2.451 -1.3211 -0.1209  1.4383
   13CHTO   O55 5243   5.154   4.677   2.530 -0.0638  0.0745  0.1935
   13CHTO  H134 5244   5.081   4.687   2.471 -0.6036  1.6443  1.1107
   13CHTO   C84 5245   5.346   4.817   2.613  0.4611  0.6235  0.5857
   13CHTO  H156 5246   5.395   4.726   2.649 -2.4530 -0.1642  2.7482
   13CHTO   N15 5247   5.260   4.866   2.732  0.1670  0.0015 -0.1837
   13CHTO  H143 5248   5.286   4.816   2.823  0.4140 -0.5085 -0.5300
   13CHTO  H144 5249   5.160   4.841   2.706 -0.2276  3.8345 -2.6340
   13CHTO   C87 5250   5.442   4.928   2.573  0.4788 -0.1762  0.2086
   13CHTO  H159 5251   5.395   5.024   2.553 -1.0256 -0.5460  1.8593
   13CHTO   O53 5252   5.510   4.894   2.453  0.0585 -0.1525 -0.3956
   13CHTO   C82 5253   5.438   4.832   2.342  0.7560  0.4346  0.3470
   13CHTO  H154 5254   5.379   4.911   2.297  2.3795  1.6280  0.2671
   13CHTO   C89 5255   5.545   4.789   2.242  0.3272  0.6545  0.6548
   13CHTO   O59 5256   5.626   4.696   2.303 -0.3718  0.2115  0.1909
   13CHTO  H137 5257   5.586   4.611   2.302  0.1820 -0.0465 -0.1684
   13CHTO   O45 5258   5.546   4.974   2.704 -0.1758  0.0461  0.4942
   13CHTO   C67 5259   5.671   4.903   2.707 -0.0548 -0.4567 -0.1324
   13CHTO  H124 5260   5.660   4.797   2.682 -0.3346 -0.1087 -1.4970
   13CHTO   C65 5261   5.772   4.968   2.601 -0.3784 -0.2739  0.1855
   13CHTO  H122 5262   5.713   5.039   2.543 -0.5209  0.5121  1.2587
   13CHTO   O44 5263   5.852   4.868   2.522  0.3555 -0.1167 -0.3115
   13CHTO  H102 5264   5.878   4.904   2.440 -0.3203  0.5988 -0.2255
   13CHTO   C63 5265   5.864   5.064   2.689  0.0417 -0.4605 -0.0600
   13CHTO  H120 5266   5.797   5.126   2.748 -1.0495 -1.5296 -0.1711
   13CHTO   N11 5267   5.953   5.165   2.617 -0.3830  0.3245 -0.4469
   13CHTO  H108 5268   5.971   5.243   2.688  0.8245 -0.2924 -0.0481
   13CHTO  H109 5269   5.897   5.206   2.535 -1.5105 -1.7445 -0.7434
   13CHTO   C61 5270   5.946   4.972   2.789  0.2006 -0.2496 -0.6388
   13CHTO  H118 5271   5.985   5.033   2.871 -1.3430 -0.2548  0.1125
   13CHTO   O40 5272   5.865   4.875   2.848  0.9987 -0.0527 -0.2247
   13CHTO   C68 5273   5.722   4.902   2.854 -0.3968  0.8585 -0.7968
   13CHTO  H125 5274   5.707   5.000   2.904  0.1359  1.2818 -1.4602
   13CHTO   C72 5275   5.661   4.789   2.947 -0.0003 -0.9468  0.2295
   13CHTO   O48 5276   5.518   4.801   2.949  0.0062 -0.8789 -0.2612
   13CHTO  H105 5277   5.481   4.722   2.915 -0.7198 -0.7197  0.1501
   13CHTO   O38 5278   6.055   4.904   2.717  0.2388 -0.0888  0.0812
   13CHTO   C55 5279   6.162   4.851   2.789 -0.8309 -0.2158  0.6530
   13CHTO  H112 5280   6.221   4.803   2.710 -1.0157 -2.6380  1.9438
   13CHTO   C56 5281   6.121   4.749   2.895  0.1506 -0.4562 -0.3447
   13CHTO  H113 5282   6.046   4.791   2.964 -0.4816  0.1250 -1.3837
   13CHTO   O42 5283   6.057   4.635   2.829 -0.0257  0.0470  0.7988
   13CHTO  H100 5284   5.984   4.604   2.878 -0.5738 -1.1408 -0.7166
   13CHTO   C57 5285   6.242   4.706   2.983  0.7942  0.9739 -0.3328
   13CHTO  H114 5286   6.284   4.640   2.907  0.6196  1.4232 -0.8234
   13CHTO   N10 5287   6.208   4.635   3.108  0.3312  0.1684  0.1743
   13CHTO  H106 5288   6.109   4.662   3.141  0.5729  0.7441  0.4240
   13CHTO  H107 5289   6.282   4.658   3.182 -0.3116  0.5309  0.7106
   13CHTO   C58 5290   6.342   4.824   3.009 -1.0119  0.1369 -0.7522
   13CHTO  H115 5291   6.300   4.886   3.090  1.5025 -0.8613  1.3908
   13CHTO   O37 5292   6.376   4.906   2.894 -0.1086  0.5605 -0.0181
   13CHTO   C59 5293   6.257   4.964   2.834  0.5584 -0.1886 -0.2395
   13CHTO  H116 5294   6.210   5.027   2.909 -0.0911  1.7313 -2.2096
   13CHTO   C70 5295   6.293   5.056   2.720 -0.4524  0.5346 -0.0350
   13CHTO   O46 5296   6.386   5.159   2.745  0.4197 -0.0078 -0.0061
   13CHTO  H103 5297   6.428   5.184   2.665 -1.7963  1.3568 -0.7885
   13CHTO   O39 5298   6.482   4.757   3.071 -0.0840  0.1169 -0.1378
   13CHTO   C60 5299   6.544   4.854   3.157  0.4455 -0.4957  0.0500
   13CHTO  H117 5300   6.529   4.955   3.120  1.9928  0.9213  3.1200
   13CHTO   C62 5301   6.486   4.851   3.304 -0.2258 -0.2629  0.1015
   13CHTO  H119 5302   6.385   4.892   3.284 -0.4930  0.4625  2.7600
   13CHTO   O43 5303   6.491   4.717   3.351 -0.6489  0.3171  0.1269
   13CHTO  H101 5304   6.456   4.655   3.290 -0.8565  0.4403  0.1193
   13CHTO   C66 5305   6.569   4.952   3.405 -0.5299  0.6280  0.2771
   13CHTO  H123 5306   6.556   5.055   3.372 -0.5130  0.3108 -0.7298
   13CHTO   N12 5307   6.524   4.959   3.545 -0.0124  0.5197  0.3079
   13CHTO  H110 5308   6.578   4.878   3.593 -2.9392 -1.4489  0.3814
   13CHTO  H111 5309   6.418   4.938   3.546  0.1574 -0.3618  0.0610
   13CHTO   C69 5310   6.722   4.921   3.398 -0.0575 -0.2274  0.5033
   13CHTO  H126 5311   6.746   4.817   3.430 -2.5564 -1.2100 -0.6641
   13CHTO   O41 5312   6.776   4.929   3.234  0.3659  0.7510  0.6259
   13CHTO   C64 5313   6.700   4.831   3.157  0.2596  0.3054  0.0244
   13CHTO  H121 5314   6.722   4.732   3.203 -0.5910 -0.5122 -1.2856
   13CHTO   C71 5315   6.758   4.826   3.012 -0.3260  0.2033  0.0709
   13CHTO   O47 5316   6.889   4.768   3.030  0.2457 -0.1383  0.0204
   13CHTO  H104 5317   6.881   4.677   3.050  1.4902 -0.0819  0.8464
   13CHTO   O34 5318   6.797   5.016   3.478 -0.1364 -0.0971  0.0225
   13CHTO   C49 5319   6.934   5.078   3.484 -0.2954 -0.2222  0.2191
   13CHTO   H91 5320   7.013   5.003   3.490 -0.6109 -0.6564 -0.8857
   13CHTO   C47 5321   6.951   5.162   3.607  0.0019 -0.4357  0.1824
   13CHTO   H89 5322   7.058   5.191   3.609 -0.7681  2.7215 -1.1469
   13CHTO   O33 5323   6.921   5.082   3.724 -0.2054  0.0544 -0.0910
   13CHTO   H70 5324   6.937   5.132   3.803 -1.2591  3.9173 -2.1959
   13CHTO   C45 5325   6.857   5.291   3.599 -0.5400  0.1534  0.4707
   13CHTO   H87 5326   6.755   5.263   3.630 -0.1580 -0.4707  1.1844
   13CHTO    N8 5327   6.904   5.402   3.683 -0.5512 -0.0918  0.4892
   13CHTO   H75 5328   6.843   5.419   3.770 -0.7766 -2.5470  0.8629
   13CHTO   H76 5329   6.973   5.476   3.644  0.6242 -1.5391 -0.2637
   13CHTO   C43 5330   6.844   5.340   3.440  0.1582  0.0210  0.0964
   13CHTO   H85 5331   6.759   5.281   3.404  0.8517 -1.0222  0.1405
   13CHTO   O29 5332   6.963   5.312   3.364 -0.5473  0.0226  0.6235
   13CHTO   C50 5333   6.971   5.167   3.358  0.6262 -0.1968  0.2902
   13CHTO   H92 5334   6.900   5.135   3.280  1.6890 -0.8822 -0.4017
   13CHTO   C54 5335   7.099   5.121   3.287 -0.3732  0.6277 -0.3753
   13CHTO   O36 5336   7.212   5.194   3.331  0.1016 -0.4909 -0.3121
   13CHTO   H72 5337   7.256   5.129   3.383  1.4682 -1.2045 -2.3131
   13CHTO   O27 5338   6.803   5.471   3.409  0.1308 -0.3845 -0.1855
   13CHTO   C37 5339   6.828   5.614   3.425  0.0916  0.1110  0.4552
   13CHTO   H79 5340   6.837   5.646   3.530  1.7018 -1.5676  0.8449
   13CHTO   C38 5341   6.959   5.674   3.352 -0.1571 -0.0388 -0.7339
   13CHTO   H80 5342   6.959   5.630   3.251  0.3168  0.3575 -0.9020
   13CHTO   O31 5343   7.072   5.618   3.424  0.3482  0.2033  0.2078
   13CHTO   H68 5344   7.114   5.566   3.358 -0.5978  0.9538 -1.0012
   13CHTO   C39 5345   6.960   5.830   3.349 -0.0398  0.4406  0.5197
   13CHTO   H81 5346   6.970   5.872   3.449 -0.8505  1.7544  0.0595
   13CHTO    N7 5347   7.074   5.880   3.277  0.2039 -0.2062  0.4603
   13CHTO   H73 5348   7.082   5.987   3.287  2.1963 -0.1641 -1.2212
   13CHTO   H74 5349   7.158   5.832   3.325 -0.8238 -1.3277  1.1611
   13CHTO   C40 5350   6.811   5.887   3.305 -0.6026  0.7618  0.4032
   13CHTO   H82 5351   6.799   5.856   3.201 -0.3411  1.9865  0.0033
   13CHTO   O26 5352   6.714   5.820   3.391  0.0385  0.3772 -0.0140
   13CHTO   C41 5353   6.699   5.675   3.366 -0.0681  0.7035 -0.0073
   13CHTO   H83 5354   6.686   5.656   3.259  1.7274 -1.7807  0.1778
   13CHTO   C52 5355   6.566   5.630   3.438  0.6836  0.8429 -0.5658
   13CHTO   O35 5356   6.433   5.690   3.368  0.3537  0.0913 -0.0904
   13CHTO   H71 5357   6.412   5.675   3.278  0.5965 -1.3203  0.0781
   13CHTO   O28 5358   6.801   6.024   3.329 -0.1270  0.2597  0.4448
   13CHTO   C42 5359   6.760   6.111   3.213 -0.3493  0.1998 -0.2905
   13CHTO   H84 5360   6.753   6.050   3.123  0.9555 -0.9692  0.3848
   13CHTO   C44 5361   6.862   6.227   3.176 -0.7744  0.2897  0.3121
   13CHTO   H86 5362   6.859   6.304   3.253 -1.3470 -0.2678  0.8649
   13CHTO   O32 5363   6.997   6.176   3.166  0.0741  0.5663  0.3333
   13CHTO   H69 5364   7.021   6.111   3.229 -1.6612 -0.8987 -0.4788
   13CHTO   C48 5365   6.810   6.295   3.044 -0.3015  0.0732  0.0634
   13CHTO   H90 5366   6.810   6.226   2.960  1.1107  0.0821  0.0353
   13CHTO    N9 5367   6.889   6.406   2.992  0.2511  0.3817  0.2050
   13CHTO   H77 5368   6.965   6.435   3.063  0.2464  0.4363  0.1875
   13CHTO   H78 5369   6.829   6.493   2.974 -4.0007 -2.5774 -0.7021
   13CHTO   C51 5370   6.659   6.341   3.074  0.0780  0.6272  0.1433
   13CHTO   H93 5371   6.674   6.409   3.158  2.0145 -0.2301  0.5273
   13CHTO   O30 5372   6.579   6.230   3.107  0.1314  0.0841  0.1537
   13CHTO   C46 5373   6.619   6.172   3.241 -0.5874  0.3629 -0.6515
   13CHTO   H88 5374   6.615   6.248   3.319  1.6459  1.7608 -1.8176
   13CHTO   C53 5375   6.518   6.065   3.280 -0.5306 -0.7571  0.6107
   13CHTO   O72 5376   6.489   5.983   3.170  0.2164 -0.0038  0.2871
   13CHTO  H199 5377   6.552   5.913   3.167  1.6557  1.0476  3.7816
   13CHTO   O22 5378   6.580   6.395   2.965 -0.3700 -0.4012 -0.4268
   13CHTO   C31 5379   6.495   6.514   2.975  0.1060  0.1184  0.1425
   13CHTO   H59 5380   6.419   6.495   2.896  0.3077  0.4062 -0.1246
   13CHTO   C29 5381   6.426   6.525   3.109  0.6122 -0.2655  0.1021
   13CHTO   H57 5382   6.496   6.536   3.193 -0.7679  1.6846  1.0304
   13CHTO   O21 5383   6.347   6.397   3.128 -0.1792  0.2592  0.0938
   13CHTO   H37 5384   6.310   6.398   3.215 -0.3957 -0.2407  0.0103
   13CHTO   C27 5385   6.324   6.648   3.115 -0.2578 -0.2873  0.3695
   13CHTO   H55 5386   6.241   6.619   3.050  1.3635 -1.8357 -1.0929
   13CHTO    N5 5387   6.274   6.669   3.254 -0.6214 -1.0001  0.0353
   13CHTO   H43 5388   6.225   6.586   3.304 -1.3427 -1.2832 -1.1090
   13CHTO   H44 5389   6.197   6.745   3.247  0.6418  0.4370  1.6607
   13CHTO   C25 5390   6.388   6.779   3.047 -0.0458 -0.1540  0.3079
   13CHTO   H53 5391   6.468   6.823   3.108 -0.3981 -0.4835  1.0111
   13CHTO   O17 5392   6.462   6.754   2.921  0.1235 -0.1248 -0.4015
   13CHTO   C32 5393   6.558   6.646   2.939 -0.7467  0.5122  0.0675
   13CHTO   H60 5394   6.643   6.667   3.004 -1.8438 -0.8636  1.9994
   13CHTO   C36 5395   6.632   6.631   2.804  0.8528 -0.0147 -0.0775
   13CHTO   O25 5396   6.726   6.738   2.783  0.2475  0.2195 -0.1975
   13CHTO   H40 5397   6.683   6.820   2.772  0.2065  0.0024 -1.8323
   13CHTO   O15 5398   6.292   6.874   3.022 -0.5161 -0.0863 -0.2821
   13CHTO   C19 5399   6.171   6.930   2.963  0.5905 -0.5458  0.3208
   13CHTO   H47 5400   6.201   7.035   2.953 -0.7366 -0.3274 -1.5075
   13CHTO   C20 5401   6.124   6.865   2.829 -0.5691 -0.1078 -0.2249
   13CHTO   H48 5402   6.093   6.761   2.848  3.5194 -1.2722  0.7435
   13CHTO   O19 5403   6.242   6.868   2.743 -0.0598  0.6240 -0.6602
   13CHTO   H35 5404   6.235   6.944   2.687 -0.6957  0.8554 -0.2677
   13CHTO   C21 5405   6.005   6.938   2.768  0.2491  0.2870  0.2374
   13CHTO   H49 5406   6.037   7.038   2.738 -1.1976  1.4657  2.4735
   13CHTO    N4 5407   5.952   6.867   2.650  0.0379  0.2626 -0.3735
   13CHTO   H41 5408   5.882   6.935   2.603 -0.3832  1.9941  2.6202
   13CHTO   H42 5409   5.892   6.785   2.688  0.0965 -0.0136 -0.8794
   13CHTO   C22 5410   5.895   6.950   2.876 -0.0061 -0.9639 -0.1744
   13CHTO   H50 5411   5.858   6.850   2.900 -1.7349 -0.1768  0.4552
   13CHTO   O14 5412   5.949   7.003   3.001  0.1681 -0.7340 -0.6361
   13CHTO   C23 5413   6.056   6.937   3.063  0.6111  0.4920  0.1917
   13CHTO   H51 5414   6.021   6.837   3.089  1.8164  0.2474  0.9432
   13CHTO   C34 5415   6.080   7.012   3.197 -0.7398  0.6429  0.5049
   13CHTO   O23 5416   6.116   7.148   3.176  0.4859 -0.1441  0.1667
   13CHTO   H38 5417   6.054   7.200   3.128  2.5566  2.6356  0.3676
   13CHTO   O16 5418   5.781   7.034   2.843 -0.2416  0.0092 -0.0455
   13CHTO   C24 5419   5.657   6.991   2.920  0.4093  0.4837 -0.3966
   13CHTO   H52 5420   5.677   6.919   2.999  0.7111  1.9889  0.9364
   13CHTO   C26 5421   5.559   6.928   2.823 -0.3299  0.5251 -0.2900
   13CHTO   H54 5422   5.541   7.003   2.744  1.2031  2.2813  0.9934
   13CHTO   O20 5423   5.622   6.808   2.759  0.1897 -1.2263 -0.1026
   13CHTO   H36 5424   5.591   6.800   2.671 -2.9182  2.1133  0.5505
   13CHTO   C30 5425   5.424   6.884   2.886  0.0341  0.1907 -0.0256
   13CHTO   H58 5426   5.432   6.794   2.948 -1.8865  1.0456  1.5236
   13CHTO    N6 5427   5.325   6.837   2.785 -0.2890  0.0078  0.0035
   13CHTO   H45 5428   5.232   6.808   2.832 -0.8676  0.1805 -1.0289
   13CHTO   H46 5429   5.304   6.917   2.716 -2.4272 -2.9102 -2.9425
   13CHTO   C33 5430   5.362   7.006   2.958  0.1430 -0.0269  0.4065
   13CHTO   H61 5431   5.334   7.081   2.883 -3.4121  1.2347  2.8884
   13CHTO   O18 5432   5.464   7.062   3.048 -0.1458 -0.2996  0.2720
   13CHTO   C28 5433   5.581   7.115   2.986  0.3141  0.6815  0.1349
   13CHTO   H56 5434   5.555   7.185   2.907  2.4154  0.2164 -1.0210
   13CHTO   C35 5435   5.680   7.187   3.078 -0.9052  0.4115  0.1237
   13CHTO   O24 5436   5.617   7.290   3.152 -0.2365  0.3850  0.4433
   13CHTO   H39 5437   5.552   7.257   3.211 -0.4174  0.4056  0.2511
   13CHTO    O9 5438   5.241   6.971   3.030 -0.3134  0.0800 -0.4613
   13CHTO   C13 5439   5.278   6.874   3.173 -0.2693  0.4866  0.5279
   13CHTO   H26 5440   5.387   6.887   3.191  0.1843 -1.0725 -0.9608
   13CHTO   C11 5441   5.242   6.723   3.144  0.2373 -0.3045  0.2052
   13CHTO   H24 5442   5.323   6.687   3.079 -0.5750 -2.2714  0.2287
   13CHTO    O8 5443   5.117   6.724   3.072 -0.0811  0.8349  0.2219
   13CHTO    H3 5444   5.041   6.711   3.126 -0.5724 -2.9019 -1.2113
   13CHTO    C9 5445   5.255   6.648   3.285 -0.3540  0.2322 -0.3785
   13CHTO   H22 5446   5.360   6.654   3.315  0.2342 -3.0356 -1.5485
   13CHTO    N2 5447   5.235   6.504   3.257  0.3665 -0.9037 -0.1248
   13CHTO   H10 5448   5.297   6.481   3.171 -0.6092 -0.8490 -0.8508
   13CHTO   H11 5449   5.283   6.442   3.331  0.7706 -0.3490  0.0764
   13CHTO    C7 5450   5.157   6.718   3.392  0.1095  0.6438  0.2822
   13CHTO   H20 5451   5.178   6.664   3.487  3.2339 -1.0421 -1.3004
   13CHTO    O4 5452   5.170   6.857   3.407  0.6836 -0.4551  0.6641
   13CHTO   C14 5453   5.199   6.945   3.290 -0.1755 -0.3245  0.5047
   13CHTO   H27 5454   5.274   7.020   3.325 -0.2846  1.1601 -2.2904
   13CHTO   C18 5455   5.074   7.025   3.259 -0.4446  0.5907  0.4755
   13CHTO   O13 5456   5.046   7.122   3.360 -0.5227  0.4482  0.1432
   13CHTO    H7 5457   5.058   7.090   3.447  0.5145  0.9670  0.1952
   13CHTO    O2 5458   4.980   6.677   3.365  0.2797  0.4035  0.4794
   13CHTO    C1 5459   4.902   6.636   3.475  1.3547  0.4564  0.3605
   13CHTO   H14 5460   4.941   6.675   3.571  1.4353  0.1331  0.4599
   13CHTO    C2 5461   4.894   6.486   3.491  0.5418  0.0503 -0.4476
   13CHTO   H15 5462   4.837   6.446   3.406 -0.1892 -1.2049  0.6174
   13CHTO    O6 5463   5.027   6.422   3.505 -0.1400  0.1200  1.0215
   13CHTO    H1 5464   5.049   6.380   3.587 -1.6381  0.9576  1.8828
   13CHTO    C3 5465   4.807   6.460   3.622  0.1904 -0.3427 -0.0636
   13CHTO   H16 5466   4.861   6.497   3.710 -0.4775 -0.0751  0.2364
   13CHTO    N1 5467   4.798   6.313   3.657  0.4078  0.0918 -0.2385
   13CHTO    H8 5468   4.720   6.247   3.623  0.1423 -0.8109  2.0166
   13CHTO    H9 5469   4.899   6.277   3.646 -0.1267 -1.8297  0.8894
   13CHTO    C4 5470   4.673   6.543   3.621 -0.2853 -0.5851  0.0127
   13CHTO   H17 5471   4.602   6.493   3.555 -1.1050 -0.2443  0.6255
   13CHTO    O1 5472   4.685   6.682   3.580  0.4854  0.3554  0.0996
   13CHTO    C5 5473   4.763   6.708   3.464 -0.2281 -0.6211  0.1475
   13CHTO   H18 5474   4.717   6.673   3.371 -0.5233  0.0203  0.0526
   13CHTO   C16 5475   4.765   6.864   3.455 -0.2200 -0.0222 -0.2036
   13CHTO   O11 5476   4.847   6.922   3.556 -0.6213  0.0750 -0.2896
   13CHTO    H5 5477   4.805   6.902   3.638  3.2430 -1.8240  1.3986
   13CHTO    O3 5478   4.636   6.540   3.761 -0.0806  0.0569  0.2265
   13CHTO    C6 5479   4.495   6.526   3.804 -0.0289 -0.1581  0.2991
   13CHTO   H19 5480   4.422   6.528   3.723  0.3704  2.8451 -0.0470
   13CHTO    C8 5481   4.482   6.400   3.883 -0.5232  0.4831 -0.3483
   13CHTO   H21 5482   4.564   6.394   3.954 -2.1130 -0.2066  1.5035
   13CHTO    O7 5483   4.490   6.290   3.796 -0.4653  0.7694  0.5450
   13CHTO    H2 5484   4.442   6.297   3.716  0.5556 -1.1611 -0.2683
   13CHTO   C12 5485   4.348   6.396   3.970 -0.3022 -0.4355  0.2227
   13CHTO   H25 5486   4.262   6.395   3.899  2.3049 -0.0638 -3.0597
   13CHTO    N3 5487   4.348   6.266   4.054  0.3538  0.0060 -0.1935
   13CHTO   H12 5488   4.448   6.256   4.094  0.1140 -2.5734 -0.1174
   13CHTO   H13 5489   4.271   6.269   4.129 -0.7040  1.5870 -1.3255
   13CHTO   C15 5490   4.324   6.523   4.051 -0.0710  0.3678  1.1013
   13CHTO   H28 5491   4.390   6.535   4.137 -1.2430  2.0288  1.8058
   13CHTO   O10 5492   4.189   6.539   4.100 -0.2060 -0.3156 -0.0213
   13CHTO    H4 5493   4.186   6.529   4.193  0.0938  0.9762  0.1311
   13CHTO    O5 5494   4.341   6.638   3.965  0.1432  0.1779 -0.6709
   13CHTO   C10 5495   4.463   6.651   3.897  0.0368  0.2584  0.0358
   13CHTO   H23 5496   4.547   6.655   3.966 -0.1637  1.0018  0.2447
   13CHTO   C17 5497   4.458   6.776   3.813 -0.1506  0.5633 -0.1486
   13CHTO   O12 5498   4.465   6.900   3.885 -0.2293 -0.4264  0.1728
   13CHTO    H6 5499   4.381   6.923   3.919 -0.0315 -0.4875  0.7018
   14CHTO  H203 5500   5.705   4.559   2.504 -1.7329 -0.2044  0.3220
   14CHTO   O82 5501   5.717   4.569   2.596  0.4619  0.4233  0.0016
   14CHTO  C123 5502   5.673   4.460   2.676 -0.2354  0.0937  0.0957
   14CHTO  H227 5503   5.681   4.485   2.783 -0.2693  0.3496  0.0406
   14CHTO   O77 5504   5.534   4.446   2.626  0.0348 -0.5884 -0.2399
   14CHTO  C118 5505   5.458   4.341   2.683  0.0455  0.4685  0.0369
   14CHTO  H222 5506   5.457   4.352   2.793 -0.0679 -1.2586  0.2151
   14CHTO  C125 5507   5.303   4.350   2.619 -0.4830 -0.3795 -0.4359
   14CHTO   O84 5508   5.241   4.466   2.675 -0.1845 -0.3397  0.9439
   14CHTO  H205 5509   5.157   4.492   2.642  0.2701  0.6778  0.5835
   14CHTO  C114 5510   5.526   4.209   2.651  0.1907 -0.5982  0.1023
   14CHTO  H218 5511   5.539   4.200   2.543 -0.6922 -0.1957 -0.0393
   14CHTO  C116 5512   5.671   4.201   2.702 -0.1061 -0.5366 -0.1519
   14CHTO  H220 5513   5.660   4.195   2.812 -1.6373 -1.9169 -0.3540
   14CHTO   O79 5514   5.734   4.081   2.665  0.5678  0.6783  0.1869
   14CHTO  H201 5515   5.728   4.074   2.572  1.4439  0.0593  0.1681
   14CHTO  C120 5516   5.752   4.323   2.649 -0.2464 -0.3488  0.1640
   14CHTO  H224 5517   5.771   4.307   2.540 -1.3529  0.5015 -0.1677
   14CHTO   N21 5518   5.892   4.337   2.699  0.0849 -0.6084 -0.2122
   14CHTO  H211 5519   5.898   4.396   2.789  0.9576  1.0057 -1.3060
   14CHTO  H212 5520   5.961   4.357   2.618 -0.4298  2.2443 -0.0174
   14CHTO   O75 5521   5.447   4.096   2.698 -0.3034 -0.4103 -0.3497
   14CHTO  C112 5522   5.394   3.970   2.583 -0.0843  0.6301  0.3125
   14CHTO  H216 5523   5.422   3.870   2.619 -0.8549  0.4976  0.5651
   14CHTO   O73 5524   5.448   3.998   2.449  0.6009 -0.2185 -0.0402
   14CHTO  C113 5525   5.412   3.919   2.337 -0.5169 -0.7780 -0.3129
   14CHTO  H217 5526   5.448   3.814   2.344 -1.1335 -0.9652  0.0861
   14CHTO  C124 5527   5.483   3.986   2.212  0.1723  0.2536 -0.2101
   14CHTO   O83 5528   5.624   3.974   2.216 -0.2173  0.3968  0.6403
   14CHTO  H204 5529   5.650   3.924   2.140  1.1568  1.3740  0.4540
   14CHTO  C109 5530   5.263   3.919   2.315  0.0592  0.8093 -0.3488
   14CHTO  H213 5531   5.227   4.021   2.292  0.0835  0.7359 -0.7067
   14CHTO  C110 5532   5.193   3.884   2.453 -1.1283 -0.3408 -0.4087
   14CHTO  H214 5533   5.206   3.778   2.475  3.9870  0.1385 -0.4858
   14CHTO   O78 5534   5.050   3.894   2.427  0.2253 -0.2388  0.6021
   14CHTO  H200 5535   5.009   3.838   2.490  2.2349 -3.9320 -1.1883
   14CHTO  C111 5536   5.239   3.981   2.565  0.1327  0.0512  0.9284
   14CHTO  H215 5537   5.224   4.083   2.527 -0.5392 -0.8955 -1.4071
   14CHTO   N19 5538   5.159   3.977   2.689 -0.0898  0.1023 -0.1562
   14CHTO  H207 5539   5.211   3.917   2.762 -0.5671  1.0298  0.9531
   14CHTO  H208 5540   5.067   3.929   2.658  0.6210 -1.4287  0.0442
   14CHTO   O74 5541   5.224   3.826   2.214  0.1644 -0.0558  0.4792
   14CHTO  C115 5542   5.204   3.896   2.051  0.1194  0.4162 -0.4108
   14CHTO  H219 5543   5.216   4.005   2.049 -0.0137  0.4272 -0.6294
   14CHTO   O76 5544   5.302   3.834   1.943  0.3462 -0.0354 -0.5914
   14CHTO  C122 5545   5.277   3.866   1.804  0.0788  0.1221 -0.3353
   14CHTO  H226 5546   5.328   3.795   1.739  0.5906  0.9122 -0.8169
   14CHTO  C126 5547   5.331   4.011   1.765 -0.2072 -0.3876  0.0946
   14CHTO   O85 5548   5.465   4.042   1.797  0.5239  0.2525 -0.2479
   14CHTO  H206 5549   5.521   3.984   1.749  0.3751  0.2091 -0.3720
   14CHTO  C121 5550   5.130   3.849   1.769  0.2978 -0.7746 -0.1930
   14CHTO  H225 5551   5.121   3.900   1.671 -0.9644 -1.4249 -0.4377
   14CHTO   O81 5552   5.099   3.713   1.771  0.1585  0.2268 -0.2834
   14CHTO  H202 5553   5.101   3.674   1.856  1.4444  2.5638  0.8098
   14CHTO  C119 5554   5.033   3.926   1.867  0.4551 -0.2823  0.4012
   14CHTO  H223 5555   5.069   4.029   1.866  2.5623 -0.9841  1.1149
   14CHTO  C117 5556   5.052   3.872   2.013 -0.1631 -0.0911  0.8769
   14CHTO  H221 5557   5.039   3.766   2.036  1.6093 -0.0951  2.0037
   14CHTO   N20 5558   4.969   3.950   2.111 -0.6069  0.5328 -0.7297
   14CHTO  H209 5559   4.920   3.876   2.173 -0.5581 -0.2355 -1.5964
   14CHTO  H210 5560   5.032   4.010   2.176 -1.1193 -0.0469  0.3189
   14CHTO   O80 5561   4.888   3.949   1.806  0.4305  0.1310  0.0463
   14CHTO  C103 5562   4.873   4.021   1.673 -0.4419  0.1161  0.2022
   14CHTO  H190 5563   4.968   4.041   1.622 -0.0814 -0.2910  0.7064
   14CHTO  C101 5564   4.779   3.954   1.567 -0.3488  0.1948 -1.0492
   14CHTO  H188 5565   4.695   3.917   1.626  0.8466 -1.8085 -0.5729
   14CHTO   O68 5566   4.850   3.834   1.499 -0.1656  0.4650  0.8366
   14CHTO  H168 5567   4.876   3.873   1.418 -2.8228  0.1091 -0.2236
   14CHTO   C99 5568   4.726   4.066   1.456  0.1645  0.2895 -0.0376
   14CHTO  H186 5569   4.808   4.100   1.390  0.2272 -0.4471 -0.3405
   14CHTO   N17 5570   4.620   4.019   1.365 -0.6616 -0.3945  0.0898
   14CHTO  H174 5571   4.654   3.958   1.283 -0.7609  0.6055 -0.7051
   14CHTO  H175 5572   4.548   4.094   1.333  0.5221  0.9119  0.4389
   14CHTO   C97 5573   4.674   4.195   1.526 -0.3235 -0.1456  0.2849
   14CHTO  H184 5574   4.584   4.171   1.585 -0.0995 -3.4349 -0.6107
   14CHTO   O64 5575   4.781   4.248   1.601  0.1323  0.5514  0.3408
   14CHTO  C104 5576   4.809   4.164   1.725  0.1767 -0.9432  0.5876
   14CHTO  H191 5577   4.715   4.143   1.776 -1.1933 -1.5353 -2.0883
   14CHTO  C108 5578   4.897   4.249   1.818 -0.3322 -0.2332 -0.0402
   14CHTO   O71 5579   4.837   4.369   1.862  0.7749 -0.0819  0.1036
   14CHTO  H171 5580   4.809   4.422   1.790 -0.5813 -0.0764  0.6236
   14CHTO   O62 5581   4.649   4.308   1.445 -0.8427  0.0699  0.0440
   14CHTO   C91 5582   4.530   4.380   1.488 -0.1890 -0.2448 -0.1682
   14CHTO  H178 5583   4.453   4.310   1.520 -0.4865 -0.7848 -1.9887
   14CHTO   C92 5584   4.459   4.450   1.367 -0.4441 -0.7177 -0.4593
   14CHTO  H179 5585   4.420   4.383   1.289  0.2735 -1.1108 -0.4782
   14CHTO   O66 5586   4.342   4.512   1.417  0.2965  0.1384  0.5980
   14CHTO  H166 5587   4.363   4.582   1.474 -0.9579  0.7948  0.2676
   14CHTO   C93 5588   4.542   4.571   1.309 -0.2110 -0.0464 -0.9696
   14CHTO  H180 5589   4.469   4.637   1.259  0.7595  1.6187 -0.2232
   14CHTO   N16 5590   4.632   4.537   1.193 -0.1981  0.3133 -0.1319
   14CHTO  H172 5591   4.714   4.476   1.228 -1.5213 -0.5577  1.5404
   14CHTO  H173 5592   4.579   4.472   1.124 -0.7822 -0.0070  0.6012
   14CHTO   C94 5593   4.614   4.651   1.432  0.8178 -0.3561  0.4668
   14CHTO  H181 5594   4.715   4.615   1.454  0.8144  0.6201  2.1270
   14CHTO   O61 5595   4.538   4.625   1.553  0.2678  0.0890  0.2762
   14CHTO   C95 5596   4.554   4.491   1.601 -0.4656 -0.3245  0.5761
   14CHTO  H182 5597   4.658   4.477   1.630  1.1474 -2.3134 -5.3549
   14CHTO  C106 5598   4.463   4.485   1.725 -0.3786 -0.1517  0.3719
   14CHTO   O69 5599   4.466   4.358   1.787  0.6759 -0.1039  0.6428
   14CHTO  H169 5600   4.429   4.296   1.727 -1.0872  1.7630 -0.2207
   14CHTO   O63 5601   4.627   4.817   1.391 -0.9501  0.2010  0.0850
   14CHTO   C96 5602   4.752   4.901   1.459  0.0648 -0.4022  0.7688
   14CHTO  H183 5603   4.752   5.001   1.416  1.9856 -1.0619 -0.9047
   14CHTO   C98 5604   4.894   4.844   1.437 -0.4952  0.4134 -0.5555
   14CHTO  H185 5605   4.897   4.736   1.456  1.5787  0.8448  1.7768
   14CHTO   O67 5606   4.918   4.863   1.298 -0.8174  0.3747 -0.2447
   14CHTO  H167 5607   5.004   4.899   1.284 -0.5112 -0.5470 -0.7623
   14CHTO  C102 5608   4.998   4.914   1.533 -0.5066  0.0316 -0.3313
   14CHTO  H189 5609   5.000   5.020   1.503  0.9581  0.3190  0.7202
   14CHTO   N18 5610   5.134   4.863   1.525 -0.4395  0.1516 -0.8384
   14CHTO  H176 5611   5.184   4.889   1.433  2.1522 -3.6392 -0.6097
   14CHTO  H177 5612   5.137   4.756   1.535 -0.2076  0.1955 -0.4166
   14CHTO  C105 5613   4.946   4.910   1.679 -0.0265 -0.2633 -1.0312
   14CHTO  H192 5614   4.944   4.808   1.716  0.7738  0.6897  1.7516
   14CHTO   O65 5615   4.820   4.971   1.697  0.7150 -0.6160 -0.3006
   14CHTO  C100 5616   4.714   4.911   1.614 -0.1279  0.3869 -0.2519
   14CHTO  H187 5617   4.710   4.806   1.646  0.2046  0.5258  0.2530
   14CHTO  C107 5618   4.581   4.979   1.638 -0.3344  0.7208 -0.0314
   14CHTO   O70 5619   4.522   4.891   1.738 -0.1987 -0.3913 -0.2041
   14CHTO  H170 5620   4.448   4.930   1.779 -0.2295 -2.9163  2.3104
   14CHTO   O57 5621   5.051   5.001   1.771  0.4616 -0.4724  0.3018
   14CHTO   C85 5622   5.083   4.954   1.903  0.3930  0.0496  0.8218
   14CHTO  H157 5623   5.100   4.847   1.877  0.6107  0.4804 -0.8551
   14CHTO   C83 5624   4.963   4.974   2.000 -0.0748 -0.2585  0.1859
   14CHTO  H155 5625   4.880   4.914   1.965  1.2734 -2.2639  0.3300
   14CHTO   O56 5626   4.923   5.110   2.008  0.0564  0.1622 -0.1754
   14CHTO  H135 5627   4.917   5.150   2.093  3.4931 -1.3543  0.8414
   14CHTO   C81 5628   5.010   4.914   2.140  0.2607 -0.1215  0.6917
   14CHTO  H153 5629   5.037   4.811   2.121 -3.4320 -1.0110 -0.1380
   14CHTO   N14 5630   4.904   4.908   2.250 -0.1464 -0.2577  0.1169
   14CHTO  H141 5631   4.832   4.986   2.237  0.5535  0.6001  1.2536
   14CHTO  H142 5632   4.931   4.903   2.354  0.8071  0.2156 -0.0958
   14CHTO   C79 5633   5.138   4.995   2.182  0.1298 -0.2657 -0.6534
   14CHTO  H151 5634   5.162   4.960   2.282 -1.8408  1.1357  0.3641
   14CHTO   O52 5635   5.253   4.972   2.089  0.4055  0.1977  0.6136
   14CHTO   C86 5636   5.216   5.028   1.962 -0.0343 -0.1253  0.3714
   14CHTO  H158 5637   5.198   5.137   1.974 -3.9340 -0.6038 -0.3352
   14CHTO   C90 5638   5.337   5.014   1.865  0.2499 -0.5289  0.5243
   14CHTO   O60 5639   5.334   5.071   1.732  0.4330  0.6121 -0.7535
   14CHTO  H138 5640   5.248   5.078   1.694  0.9751 -0.7640 -2.2639
   14CHTO   O50 5641   5.121   5.142   2.204 -0.3826  0.3469 -0.0364
   14CHTO   C73 5642   5.148   5.276   2.258 -0.1021 -0.2288 -0.3899
   14CHTO  H145 5643   5.137   5.271   2.367 -0.7231 -0.4437 -0.4613
   14CHTO   C74 5644   5.046   5.368   2.198  0.7226  0.3637 -0.7894
   14CHTO  H146 5645   4.946   5.328   2.219  0.1080  0.3879 -3.4183
   14CHTO   O54 5646   5.054   5.492   2.276 -0.4890  0.1945  0.2953
   14CHTO  H133 5647   4.981   5.550   2.262  0.6724  1.6968  0.3396
   14CHTO   C75 5648   5.060   5.395   2.043  0.3378  0.3473  0.2437
   14CHTO  H147 5649   5.064   5.299   1.991  1.8324  1.3363 -1.5243
   14CHTO   N13 5650   4.962   5.485   1.975  0.3814 -0.5235  0.1569
   14CHTO  H139 5651   4.993   5.484   1.871 -2.0976 -3.2613 -0.6424
   14CHTO  H140 5652   4.864   5.439   1.976  0.1152  0.0097 -0.8518
   14CHTO   C76 5653   5.211   5.443   2.022  0.2317 -0.1108 -0.1183
   14CHTO  H148 5654   5.221   5.541   2.070 -0.2673 -0.0209 -0.1878
   14CHTO   O49 5655   5.305   5.345   2.084  0.1322 -0.1642 -0.1624
   14CHTO   C77 5656   5.291   5.330   2.227  0.2751  0.5635 -0.5009
   14CHTO  H149 5657   5.315   5.418   2.287  1.2659 -0.8191  1.1894
   14CHTO   C88 5658   5.407   5.242   2.274 -0.1928 -0.2115 -0.5139
   14CHTO   O58 5659   5.421   5.232   2.406  0.3239 -0.1529  0.2675
   14CHTO  H136 5660   5.490   5.171   2.423  1.5865  2.1277  3.8464
   14CHTO   O51 5661   5.257   5.445   1.846 -0.2290 -0.1309  0.1316
   14CHTO   C78 5662   5.413   5.456   1.793  0.2383 -0.4557  0.0776
   14CHTO  H150 5663   5.466   5.363   1.822  0.6303 -0.3917 -0.4312
   14CHTO   C80 5664   5.475   5.577   1.864  0.0572  0.2113  0.3136
   14CHTO  H152 5665   5.405   5.664   1.868  2.9930  2.6494  0.3336
   14CHTO   O55 5666   5.501   5.540   1.999  0.5172 -0.1062 -0.5729
   14CHTO  H134 5667   5.427   5.508   2.046  2.4820  1.7176  4.0202
   14CHTO   C84 5668   5.611   5.621   1.790 -1.0606 -0.2566  0.3183
   14CHTO  H156 5669   5.687   5.552   1.828 -0.5438 -0.7984 -1.6218
   14CHTO   N15 5670   5.653   5.763   1.832  0.1046 -0.4597  0.1720
   14CHTO  H143 5671   5.760   5.765   1.825  0.1910 -0.8012  1.2854
   14CHTO  H144 5672   5.626   5.793   1.931 -2.9745 -0.1454 -0.7168
   14CHTO   C87 5673   5.591   5.611   1.637 -0.2631  0.5686  0.4770
   14CHTO  H159 5674   5.539   5.696   1.592 -2.8074 -1.0767  0.2013
   14CHTO   O53 5675   5.531   5.484   1.589 -0.3690  0.4945 -0.2184
   14CHTO   C82 5676   5.398   5.480   1.640  0.3275 -0.3767 -0.3021
   14CHTO  H154 5677   5.347   5.570   1.607  1.5041 -0.2464 -1.8027
   14CHTO   C89 5678   5.326   5.361   1.575  0.1530 -0.5121  0.6252
   14CHTO   O59 5679   5.341   5.368   1.429 -0.6902 -0.3997  0.1757
   14CHTO  H137 5680   5.392   5.302   1.386 -2.0082 -0.6580 -1.0034
   14CHTO   O45 5681   5.722   5.605   1.564  0.3976 -0.1833  0.4453
   14CHTO   C67 5682   5.824   5.508   1.581  0.3395 -0.1150  0.4993
   14CHTO  H124 5683   5.783   5.413   1.614  1.4341 -1.2902 -1.4893
   14CHTO   C65 5684   5.876   5.493   1.432  0.0497 -0.0660 -0.5977
   14CHTO  H122 5685   5.782   5.492   1.378  0.4694  0.4871 -1.3466
   14CHTO   O44 5686   5.952   5.369   1.407 -0.2448 -0.6271 -0.3508
   14CHTO  H102 5687   5.906   5.307   1.354 -2.4134 -0.3944  1.1414
   14CHTO   C63 5688   5.955   5.621   1.392 -0.2279 -0.1943 -0.1119
   14CHTO  H120 5689   5.890   5.705   1.418 -0.1614 -0.4482  0.8847
   14CHTO   N11 5690   5.977   5.637   1.247  0.4923 -0.1630 -0.4413
   14CHTO  H108 5691   6.000   5.544   1.200 -0.7324 -0.4038 -0.5880
   14CHTO  H109 5692   5.890   5.675   1.197  1.2587 -0.3099 -1.9232
   14CHTO   C61 5693   6.082   5.633   1.492 -0.5127  0.8360  0.0244
   14CHTO  H118 5694   6.127   5.728   1.460 -1.9367  1.3002 -0.6391
   14CHTO   O40 5695   6.035   5.647   1.633  0.0463  0.5489  0.4684
   14CHTO   C68 5696   5.937   5.551   1.690  0.4762  0.1275 -0.5327
   14CHTO  H125 5697   5.890   5.605   1.775  2.3143 -1.5881  1.6329
   14CHTO   C72 5698   6.000   5.433   1.755  0.6555  0.4301  0.3055
   14CHTO   O48 5699   5.916   5.338   1.821  0.0767  0.3232  0.3817
   14CHTO  H105 5700   5.866   5.302   1.750  1.0133  0.1629 -0.2141
   14CHTO   O38 5701   6.182   5.525   1.484  0.2446 -0.0078  0.4381
   14CHTO   C55 5702   6.282   5.525   1.385  0.6488  0.2659 -0.2232
   14CHTO  H112 5703   6.267   5.610   1.316  3.5093  1.9317  1.1143
   14CHTO   C56 5704   6.282   5.381   1.312  0.4998  0.0516  0.0292
   14CHTO  H113 5705   6.264   5.302   1.385 -1.2640  1.0261  0.6750
   14CHTO   O42 5706   6.164   5.365   1.228  0.2319 -0.0266 -0.2099
   14CHTO  H100 5707   6.090   5.329   1.272 -0.3145 -0.2886 -1.3215
   14CHTO   C57 5708   6.412   5.356   1.222  0.7178 -0.0617 -0.5529
   14CHTO  H114 5709   6.403   5.420   1.134 -1.4985 -1.7991 -1.6687
   14CHTO   N10 5710   6.426   5.216   1.177 -0.0721  0.1038  0.2861
   14CHTO  H106 5711   6.475   5.154   1.250 -1.9710 -0.9936  0.6679
   14CHTO  H107 5712   6.327   5.178   1.157  0.7847 -1.5994 -0.7847
   14CHTO   C58 5713   6.534   5.402   1.311  0.2193  0.4533 -0.6100
   14CHTO  H115 5714   6.551   5.325   1.389  0.2882 -2.1620 -3.1533
   14CHTO   O37 5715   6.526   5.529   1.366  0.2659 -0.1155 -0.1042
   14CHTO   C59 5716   6.417   5.554   1.455  0.0234 -0.0441 -0.3738
   14CHTO  H116 5717   6.434   5.502   1.549 -0.9127  0.0862 -0.1274
   14CHTO   C70 5718   6.421   5.703   1.489 -0.5483 -0.7048 -0.4277
   14CHTO   O46 5719   6.512   5.724   1.595  0.1156  0.7657  0.2378
   14CHTO  H103 5720   6.599   5.733   1.561  0.0979  1.3059  0.3429
   14CHTO   O39 5721   6.675   5.404   1.225 -0.0949 -0.0095 -0.8369
   14CHTO   C60 5722   6.787   5.333   1.290  0.5491  0.6146 -0.3192
   14CHTO  H117 5723   6.801   5.354   1.396 -2.9024  1.7055 -0.0193
   14CHTO   C62 5724   6.765   5.178   1.290 -0.5612  0.4111  0.2462
   14CHTO  H119 5725   6.681   5.152   1.357 -1.0574  1.5003  0.0551
   14CHTO   O43 5726   6.732   5.130   1.160  0.3718  0.1482 -0.1067
   14CHTO  H101 5727   6.667   5.063   1.166 -0.2242  1.0000  3.8045
   14CHTO   C66 5728   6.901   5.108   1.335 -0.1790 -0.2170 -0.0680
   14CHTO  H123 5729   6.929   5.142   1.435  1.1475 -0.9836 -0.1673
   14CHTO   N12 5730   6.877   4.959   1.348  0.3005 -0.5059  0.4622
   14CHTO  H110 5731   6.819   4.926   1.263 -0.2008  0.4129  0.4463
   14CHTO  H111 5732   6.963   4.896   1.366 -0.0777 -1.2366 -0.2310
   14CHTO   C69 5733   7.017   5.132   1.237 -0.9113 -0.0621  1.0378
   14CHTO  H126 5734   6.988   5.108   1.132 -1.4770 -0.9356  1.3841
   14CHTO   O41 5735   7.040   5.276   1.244 -0.0874  0.7872 -0.5704
   14CHTO   C64 5736   6.917   5.381   1.216  0.0676  0.2134 -0.7109
   14CHTO  H121 5737   6.907   5.371   1.106 -1.3163 -1.5921 -0.4564
   14CHTO   C71 5738   6.960   5.522   1.267  0.4420  0.0267  0.3260
   14CHTO   O47 5739   6.999   5.515   1.404  0.4974 -0.1652  0.2255
   14CHTO  H104 5740   7.047   5.435   1.417  2.8690  0.7922 -2.2100
   14CHTO   O34 5741   7.154   5.052   1.257  0.6255 -0.0672  0.8757
   14CHTO   C49 5742   7.274   4.999   1.209  0.3865 -0.1163  0.6744
   14CHTO   H91 5743   7.256   4.920   1.136  3.4340 -0.2318 -0.0189
   14CHTO   C47 5744   7.345   4.938   1.330 -0.5080 -0.1800  0.4931
   14CHTO   H89 5745   7.418   4.876   1.274  0.0360  0.4426  0.5132
   14CHTO   O33 5746   7.266   4.850   1.401  0.5038 -0.9266 -0.0149
   14CHTO   H70 5747   7.177   4.875   1.390  0.7785 -0.5166 -1.4315
   14CHTO   C45 5748   7.406   5.045   1.433 -0.0729 -0.6283 -1.0986
   14CHTO   H87 5749   7.338   5.057   1.518 -0.0885 -2.1797 -0.8704
   14CHTO    N8 5750   7.535   5.003   1.488 -0.7537 -0.0674  0.2028
   14CHTO   H75 5751   7.606   5.084   1.479 -0.4400 -0.0075  2.8218
   14CHTO   H76 5752   7.528   4.967   1.589 -0.6152 -0.6809 -0.0035
   14CHTO   C43 5753   7.407   5.189   1.367 -0.2524 -0.3066  0.4308
   14CHTO   H85 5754   7.301   5.216   1.368 -0.9933 -3.0053  0.7461
   14CHTO   O29 5755   7.456   5.175   1.235 -0.0168 -0.0907 -0.3353
   14CHTO   C50 5756   7.371   5.102   1.143 -0.2056  0.4197  0.6546
   14CHTO   H92 5757   7.309   5.173   1.085  1.3611  0.5190 -0.9329
   14CHTO   C54 5758   7.463   5.036   1.039 -0.0018 -0.6749 -0.2148
   14CHTO   O36 5759   7.560   4.948   1.088  0.2189 -0.3542  0.4952
   14CHTO   H72 5760   7.608   4.921   1.012 -0.2303  1.9511 -0.6514
   14CHTO   O27 5761   7.468   5.288   1.457 -0.5988 -0.3934 -0.2365
   14CHTO   C37 5762   7.442   5.407   1.531  0.1443 -0.4913  1.0247
   14CHTO   H79 5763   7.530   5.435   1.590  1.9868 -4.5427  0.4354
   14CHTO   C38 5764   7.406   5.525   1.440  0.1129  0.4482  0.7278
   14CHTO   H80 5765   7.328   5.499   1.366 -0.0806  1.1466  0.6863
   14CHTO   O31 5766   7.518   5.566   1.364 -0.7188 -0.5535  0.3712
   14CHTO   H68 5767   7.568   5.491   1.337 -1.1408 -0.8774  0.4840
   14CHTO   C39 5768   7.351   5.651   1.520 -0.0615  0.1918  0.0496
   14CHTO   H81 5769   7.436   5.692   1.575 -0.4612  0.8754  0.1652
   14CHTO    N7 5770   7.306   5.774   1.438  0.2658 -0.0137  0.1666
   14CHTO   H73 5771   7.208   5.804   1.473  0.0844  0.3858 -0.6738
   14CHTO   H74 5772   7.387   5.846   1.442 -0.7790  1.4210 -2.9707
   14CHTO   C40 5773   7.246   5.609   1.629 -0.4369  0.2949 -0.0178
   14CHTO   H82 5774   7.149   5.583   1.588  0.4036 -2.7793 -0.2074
   14CHTO   O26 5775   7.298   5.506   1.708  0.3448 -0.1227 -0.4924
   14CHTO   C41 5776   7.322   5.382   1.624  0.2901  0.4856  0.2496
   14CHTO   H83 5777   7.229   5.359   1.570  0.4007  1.7039 -0.4807
   14CHTO   C52 5778   7.350   5.270   1.731  0.8315  0.2228  0.2739
   14CHTO   O35 5779   7.258   5.251   1.818  0.1098  0.3817  0.2706
   14CHTO   H71 5780   7.266   5.325   1.875 -1.7982  1.4462 -0.8092
   14CHTO   O28 5781   7.216   5.715   1.722 -0.2887 -0.5756  0.0088
   14CHTO   C42 5782   7.101   5.715   1.816 -0.4890 -0.0065  0.3851
   14CHTO   H84 5783   7.113   5.798   1.886 -3.0563  0.4252  0.3526
   14CHTO   C44 5784   7.065   5.588   1.899  0.0523 -0.3104  0.2343
   14CHTO   H86 5785   7.049   5.501   1.834 -3.1174 -0.1588  0.7032
   14CHTO   O32 5786   7.174   5.547   1.988 -0.8845 -0.3025 -0.0805
   14CHTO   H69 5787   7.238   5.490   1.950  0.1040  1.1307 -0.5848
   14CHTO   C48 5788   6.931   5.608   1.991 -0.6034 -0.2425 -0.6598
   14CHTO   H90 5789   6.934   5.685   2.068 -2.1424 -0.8193 -0.0095
   14CHTO    N9 5790   6.892   5.487   2.073 -0.3538 -0.2276 -0.5067
   14CHTO   H77 5791   6.981   5.465   2.131  1.0155  3.4007 -1.1362
   14CHTO   H78 5792   6.856   5.408   2.009 -0.0011 -0.7638 -0.0557
   14CHTO   C51 5793   6.815   5.648   1.899  0.3794  0.0567 -0.5504
   14CHTO   H93 5794   6.793   5.562   1.836 -1.3263  0.7172 -0.8888
   14CHTO   O30 5795   6.854   5.765   1.825 -0.5046  0.3411 -0.6667
   14CHTO   C46 5796   6.966   5.749   1.735 -0.0664  0.0123 -1.3713
   14CHTO   H88 5797   6.936   5.663   1.674 -1.8913 -1.7576  1.8748
   14CHTO   C53 5798   6.972   5.878   1.647  0.2678 -0.1640 -0.6917
   14CHTO   O72 5799   6.883   5.857   1.536 -0.3207  0.1114  0.2119
   14CHTO  H199 5800   6.817   5.799   1.566  0.4889 -1.0336 -0.2033
   14CHTO   O22 5801   6.703   5.692   1.972 -0.0873  0.2038  0.3780
   14CHTO   C31 5802   6.572   5.694   1.910  0.5336  0.1860  0.2876
   14CHTO   H59 5803   6.585   5.674   1.801  2.4489  3.0942 -0.0739
   14CHTO   C29 5804   6.484   5.575   1.962  0.0735  0.4274 -0.0868
   14CHTO   H57 5805   6.494   5.578   2.072 -0.7929  2.4170 -0.0328
   14CHTO   O21 5806   6.543   5.449   1.928  1.1096 -0.4365 -0.6171
   14CHTO   H37 5807   6.622   5.427   1.973 -0.6251  0.2987  2.9852
   14CHTO   C27 5808   6.332   5.585   1.917 -0.2442 -0.2455  0.5870
   14CHTO   H55 5809   6.322   5.570   1.808  2.9397  2.3553 -0.1212
   14CHTO    N5 5810   6.248   5.487   1.990 -0.5566  0.0439  0.5212
   14CHTO   H43 5811   6.252   5.521   2.092 -1.3415  4.1254 -0.7317
   14CHTO   H44 5812   6.297   5.393   1.964  0.4490 -0.3050  3.5296
   14CHTO   C25 5813   6.277   5.731   1.939 -1.0640  0.3134  0.0705
   14CHTO   H53 5814   6.292   5.746   2.047  1.6893  0.2308 -0.2758
   14CHTO   O17 5815   6.363   5.828   1.872  0.3793 -0.6124  0.1255
   14CHTO   C32 5816   6.498   5.828   1.925 -0.4911 -0.1517 -0.1470
   14CHTO   H60 5817   6.489   5.851   2.031  2.1781 -0.1963  0.1283
   14CHTO   C36 5818   6.568   5.945   1.846 -0.0409  0.3801  0.4405
   14CHTO   O25 5819   6.699   5.979   1.895 -0.7507  0.0655 -0.0198
   14CHTO   H40 5820   6.721   6.063   1.859 -0.7710  0.0797  0.0011
   14CHTO   O15 5821   6.136   5.748   1.899  0.2323  0.2029 -0.2738
   14CHTO   C19 5822   6.033   5.839   1.938  0.3904  0.0476  0.0035
   14CHTO   H47 5823   5.939   5.797   1.898 -0.5881  0.0295  2.2211
   14CHTO   C20 5824   6.006   5.844   2.095  0.4419  0.3150 -0.0067
   14CHTO   H48 5825   6.094   5.880   2.150  0.9325 -0.3849 -0.3384
   14CHTO   O19 5826   5.977   5.709   2.133 -0.3586 -0.3732 -0.6004
   14CHTO   H35 5827   6.054   5.680   2.177  0.9063  2.9197 -0.5158
   14CHTO   C21 5828   5.890   5.933   2.130  0.2794  0.1174 -0.1944
   14CHTO   H49 5829   5.801   5.876   2.102  1.3128 -0.3291 -2.7583
   14CHTO    N4 5830   5.878   5.955   2.273 -0.0872 -0.5901 -0.1198
   14CHTO   H41 5831   5.976   5.980   2.310  0.0852 -1.5298  0.0726
   14CHTO   H42 5832   5.839   5.869   2.326  0.0497 -0.4842  0.1556
   14CHTO   C22 5833   5.902   6.071   2.057 -0.0232 -0.4502  0.1746
   14CHTO   H50 5834   5.970   6.138   2.109 -0.4008  0.9062 -1.0505
   14CHTO   O14 5835   5.940   6.072   1.919  0.0049 -0.1864  0.5042
   14CHTO   C23 5836   6.052   5.989   1.879 -0.2569 -0.1622  0.6027
   14CHTO   H51 5837   6.139   6.040   1.923 -0.1981  0.3251 -0.0721
   14CHTO   C34 5838   6.056   6.001   1.727 -0.0638  0.2063  0.5099
   14CHTO   O23 5839   6.172   5.954   1.660  0.1907  0.2270 -0.1961
   14CHTO   H38 5840   6.245   5.947   1.718 -0.9021  0.2479  1.2103
   14CHTO   O16 5841   5.776   6.138   2.053 -0.2000 -0.7085 -0.3501
   14CHTO   C24 5842   5.762   6.291   2.098  0.3788  0.1554 -0.3331
   14CHTO   H52 5843   5.731   6.356   2.016  1.0927  1.3193  0.3083
   14CHTO   C26 5844   5.897   6.359   2.145  0.1134 -0.0237  0.1227
   14CHTO   H54 5845   5.942   6.307   2.232 -2.2413 -1.3433  0.5834
   14CHTO   O20 5846   5.968   6.364   2.025 -0.5024 -0.3455  0.1289
   14CHTO   H36 5847   6.038   6.301   2.027  0.5600  0.8514  1.0520
   14CHTO   C30 5848   5.867   6.501   2.204 -0.0050 -0.3037  0.4017
   14CHTO   H58 5849   5.840   6.566   2.120  1.6692  1.1105  0.9286
   14CHTO    N6 5850   5.992   6.556   2.260 -0.7663  0.1802  0.2962
   14CHTO   H45 5851   5.981   6.568   2.367 -2.6342  0.5126  0.0708
   14CHTO   H46 5852   6.027   6.653   2.226  1.1388 -1.4314 -2.4947
   14CHTO   C33 5853   5.754   6.500   2.307  0.2933  1.3729  0.7503
   14CHTO   H61 5854   5.778   6.442   2.397  1.1626  0.5113 -0.0252
   14CHTO   O18 5855   5.640   6.436   2.244 -0.2054 -0.4765 -0.0474
   14CHTO   C28 5856   5.654   6.304   2.204 -0.1210 -0.3435 -0.0175
   14CHTO   H56 5857   5.680   6.235   2.284  2.2731 -2.2356 -2.3205
   14CHTO   C35 5858   5.519   6.270   2.146  0.4816  0.4891  0.2920
   14CHTO   O24 5859   5.428   6.221   2.249 -0.2093  0.0309  0.5196
   14CHTO   H39 5860   5.480   6.198   2.324  1.7734 -2.2389 -1.4499
   14CHTO    O9 5861   5.716   6.635   2.353  0.1134  1.0050 -0.0863
   14CHTO   C13 5862   5.656   6.742   2.234  0.3106 -0.3925  0.0515
   14CHTO   H26 5863   5.647   6.693   2.135 -0.7498  0.2047 -0.1623
   14CHTO   C11 5864   5.756   6.859   2.226 -0.1136  0.5391 -0.2450
   14CHTO   H24 5865   5.847   6.820   2.177 -0.4489  0.7457 -1.0440
   14CHTO    O8 5866   5.786   6.905   2.365 -0.1137  0.2584 -0.1623
   14CHTO    H3 5867   5.821   6.835   2.417 -1.6241 -0.1530  0.3348
   14CHTO    C9 5868   5.690   6.972   2.139 -0.6603 -0.2489 -0.6995
   14CHTO   H22 5869   5.672   6.932   2.038  0.5181 -0.0015 -1.0234
   14CHTO    N2 5870   5.784   7.084   2.107 -0.1785 -0.4697  0.4861
   14CHTO   H10 5871   5.758   7.166   2.172 -0.6823 -0.5327  0.3665
   14CHTO   H11 5872   5.890   7.062   2.102  0.4013  2.1384  0.4717
   14CHTO    C7 5873   5.555   7.020   2.213  0.1698 -0.2333 -0.3759
   14CHTO   H20 5874   5.502   7.092   2.148 -0.5835 -1.7507 -1.4678
   14CHTO    O4 5875   5.462   6.915   2.230 -0.5325  0.0410 -0.6350
   14CHTO   C14 5876   5.507   6.788   2.280  0.5656  0.8156 -0.1221
   14CHTO   H27 5877   5.435   6.719   2.232  0.5240  1.9374 -1.7090
   14CHTO   C18 5878   5.476   6.794   2.425  0.1527  0.3099  0.6192
   14CHTO   O13 5879   5.472   6.670   2.484  0.4914  0.5613  0.4498
   14CHTO    H7 5880   5.507   6.689   2.569  0.3555  1.0747  0.3936
   14CHTO    O2 5881   5.582   7.101   2.351 -0.2054 -0.4755 -0.5846
   14CHTO    C1 5882   5.477   7.205   2.375  0.1910  0.0601  0.1395
   14CHTO   H14 5883   5.376   7.182   2.337  0.0498 -0.2013  0.6855
   14CHTO    C2 5884   5.514   7.353   2.313 -0.3477  0.0878 -0.1515
   14CHTO   H15 5885   5.521   7.349   2.203  0.8046 -1.0509 -0.0465
   14CHTO    O6 5886   5.401   7.431   2.343 -0.5348  0.1270  0.7053
   14CHTO    H1 5887   5.415   7.518   2.311  2.1904 -0.7056 -0.4225
   14CHTO    C3 5888   5.646   7.420   2.380 -0.1271 -0.9326 -1.0649
   14CHTO   H16 5889   5.623   7.527   2.390  1.5610 -0.4279 -2.2196
   14CHTO    N1 5890   5.774   7.411   2.305 -0.4770  0.2045  0.8033
   14CHTO    H8 5891   5.851   7.467   2.355  0.7063  0.0786 -0.8453
   14CHTO    H9 5892   5.761   7.450   2.206 -0.5414 -1.9034 -0.0475
   14CHTO    C4 5893   5.665   7.363   2.528  0.7524 -1.0060 -0.0599
   14CHTO   H17 5894   5.715   7.267   2.519  1.4757 -0.5918 -0.4363
   14CHTO    O1 5895   5.536   7.345   2.591  0.6627 -0.2454  0.1256
   14CHTO    C5 5896   5.469   7.233   2.535 -0.2621  1.3995 -0.3671
   14CHTO   H18 5897   5.522   7.146   2.573  1.5759  1.8775 -1.7175
   14CHTO   C16 5898   5.327   7.246   2.603 -0.8673  0.7535  0.0515
   14CHTO   O11 5899   5.234   7.156   2.549  0.2867 -0.4042  0.2603
   14CHTO    H5 5900   5.192   7.201   2.479  0.9275 -0.5590 -0.2207
   14CHTO    O3 5901   5.736   7.450   2.618 -0.4462  0.2718 -0.3213
   14CHTO    C6 5902   5.815   7.384   2.720  0.1301 -0.1550 -0.4006
   14CHTO   H19 5903   5.765   7.297   2.763 -0.8090  0.4909 -0.1564
   14CHTO    C8 5904   5.955   7.348   2.665 -0.1869 -0.4970 -0.2599
   14CHTO   H21 5905   5.995   7.433   2.609  1.2634 -1.7619 -1.1892
   14CHTO    O7 5906   5.920   7.234   2.580  0.7535 -0.2591  0.0474
   14CHTO    H2 5907   5.989   7.225   2.517  2.0798  4.1126  0.7292
   14CHTO   C12 5908   6.060   7.312   2.782 -0.0997  0.3724  0.5277
   14CHTO   H25 5909   6.027   7.218   2.832 -1.8074 -0.3331 -1.8696
   14CHTO    N3 5910   6.196   7.276   2.723  0.1161  0.3367 -0.6072
   14CHTO   H12 5911   6.215   7.173   2.748 -0.6630  0.1158 -0.8914
   14CHTO   H13 5912   6.275   7.340   2.758 -0.8354  1.2269 -0.0422
   14CHTO   C15 5913   6.060   7.424   2.884  0.5475  0.9606 -1.0161
   14CHTO   H28 5914   6.101   7.520   2.852 -1.5108  1.9334 -0.8404
   14CHTO   O10 5915   6.132   7.384   3.013  0.0308 -0.0288 -0.4986
   14CHTO    H4 5916   6.222   7.391   2.989  0.4740 -1.6835  0.6062
   14CHTO    O5 5917   5.929   7.442   2.933 -0.5190  0.4560 -0.1785
   14CHTO   C10 5918   5.825   7.488   2.840  0.4881  0.6091 -0.2372
   14CHTO   H23 5919   5.844   7.587   2.798 -0.5645  1.1855  0.6076
   14CHTO   C17 5920   5.692   7.490   2.912  0.0245  0.1213  0.0734
   14CHTO   O12 5921   5.665   7.621   2.959  0.0834  0.1149 -0.3062
   14CHTO    H6 5922   5.609   7.609   3.034 -0.3613 -1.1077 -0.8079
   15CHTO  H203 5923   6.149   4.653   1.944  1.9962  1.7282 -0.0520
   15CHTO   O82 5924   6.185   4.646   1.858 -0.2522  0.3849 -0.9120
   15CHTO  C123 5925   6.229   4.510   1.838  0.3990  0.8124 -0.0288
   15CHTO  H227 5926   6.257   4.469   1.936 -1.0067 -1.3934 -0.5357
   15CHTO   O77 5927   6.118   4.439   1.794  0.1649  0.1337  0.3615
   15CHTO  C118 5928   6.131   4.303   1.741  0.1060 -0.5058 -0.4540
   15CHTO  H222 5929   6.152   4.224   1.814 -0.8595 -3.4639 -3.3043
   15CHTO  C125 5930   5.996   4.273   1.662  0.0040  0.1939 -0.1575
   15CHTO   O84 5931   5.895   4.244   1.762  0.1933  0.2408  0.3510
   15CHTO  H205 5932   5.910   4.155   1.785 -0.5296 -0.0183 -0.1766
   15CHTO  C114 5933   6.247   4.301   1.647 -0.0156 -0.0390  0.8849
   15CHTO  H218 5934   6.229   4.366   1.561  0.2221  0.8903  1.5233
   15CHTO  C116 5935   6.380   4.349   1.711 -0.0656  0.5936 -0.1960
   15CHTO  H220 5936   6.399   4.286   1.800 -2.9212  0.5441  0.4416
   15CHTO   O79 5937   6.489   4.336   1.621  0.7578 -1.0193 -0.6104
   15CHTO  H201 5938   6.487   4.260   1.566  0.6809 -1.5212  0.0896
   15CHTO  C120 5939   6.355   4.500   1.740 -0.2697 -0.7260 -0.4339
   15CHTO  H224 5940   6.341   4.538   1.637 -0.5980 -2.0984 -0.9007
   15CHTO   N21 5941   6.473   4.581   1.787  0.1545  0.1578  0.6142
   15CHTO  H211 5942   6.564   4.556   1.735  0.7522  2.7210  0.3734
   15CHTO  H212 5943   6.494   4.551   1.889  1.3987 -2.1828 -0.2932
   15CHTO   O75 5944   6.251   4.170   1.596 -0.0264  0.0971  0.3945
   15CHTO  C112 5945   6.360   4.059   1.615  0.0336  0.7590  0.2922
   15CHTO  H216 5946   6.412   4.077   1.710 -0.6585 -3.1991  1.5147
   15CHTO   O73 5947   6.452   4.065   1.502 -0.4728  0.4511 -0.8061
   15CHTO  C113 5948   6.560   3.971   1.514  0.1967  0.1740  0.4706
   15CHTO  H217 5949   6.609   3.991   1.612  1.0681  0.8491 -0.0992
   15CHTO  C124 5950   6.661   4.008   1.398  0.4272  0.1300 -0.0625
   15CHTO   O83 5951   6.590   4.012   1.271 -0.9928 -0.2889 -0.4998
   15CHTO  H204 5952   6.582   3.924   1.240 -0.9533 -0.0411 -1.2261
   15CHTO  C109 5953   6.503   3.826   1.507 -0.2622  0.2793 -0.3139
   15CHTO  H213 5954   6.465   3.821   1.404 -1.2334  1.2356 -0.0164
   15CHTO  C110 5955   6.400   3.800   1.612  0.2150  0.9453 -0.4026
   15CHTO  H214 5956   6.453   3.795   1.707 -0.6928  0.7602  0.0979
   15CHTO   O78 5957   6.348   3.663   1.591 -0.3885 -0.2740  0.0947
   15CHTO  H200 5958   6.345   3.607   1.666  1.6536  0.2375  0.5850
   15CHTO  C111 5959   6.291   3.916   1.621 -0.1389 -0.1113  0.2057
   15CHTO  H215 5960   6.223   3.913   1.534  1.9950 -0.4462 -1.5220
   15CHTO   N19 5961   6.206   3.904   1.743  0.3196  0.8154 -0.0042
   15CHTO  H207 5962   6.239   3.825   1.810  1.6091  1.3608  0.0256
   15CHTO  H208 5963   6.101   3.893   1.724  0.5833 -2.2312 -0.0037
   15CHTO   O74 5964   6.617   3.738   1.522 -0.3899  0.3667 -0.2994
   15CHTO  C115 5965   6.641   3.652   1.385  0.9289 -0.0741  0.1685
   15CHTO  H219 5966   6.552   3.652   1.323  2.2052  0.5152 -1.7088
   15CHTO   O76 5967   6.773   3.732   1.273 -0.1430  0.4706 -0.1627
   15CHTO  C122 5968   6.794   3.671   1.146  1.0208  0.1133  0.1146
   15CHTO  H226 5969   6.891   3.699   1.107  1.4925 -0.5364  0.8085
   15CHTO  C126 5970   6.685   3.733   1.044 -0.1309  0.0735 -0.0786
   15CHTO   O85 5971   6.545   3.719   1.085  0.1448 -0.2330 -0.2281
   15CHTO  H206 5972   6.511   3.633   1.102 -0.9353  0.2507  0.1036
   15CHTO  C121 5973   6.794   3.511   1.157 -0.3020  0.1654 -0.6206
   15CHTO  H225 5974   6.787   3.485   1.050  0.2530  0.4284 -0.7208
   15CHTO   O81 5975   6.922   3.471   1.193  0.2451  0.1265  0.1444
   15CHTO  H202 5976   6.994   3.522   1.161  0.6567  0.5699  1.7270
   15CHTO  C119 5977   6.689   3.442   1.249  0.4821 -0.0980  0.1972
   15CHTO  H223 5978   6.595   3.471   1.202  0.8774  1.2229  0.2223
   15CHTO  C117 5979   6.690   3.503   1.394 -0.5996  0.6202  0.3821
   15CHTO  H221 5980   6.790   3.493   1.436 -0.7598 -0.6457  0.5024
   15CHTO   N20 5981   6.610   3.429   1.488  0.7556 -0.5212  0.1620
   15CHTO  H209 5982   6.653   3.452   1.585 -1.8369 -1.9891  1.6966
   15CHTO  H210 5983   6.510   3.469   1.484  0.5511 -1.0879 -0.4995
   15CHTO   O80 5984   6.689   3.284   1.229  0.0103 -0.2262 -0.3668
   15CHTO  C103 5985   6.548   3.190   1.241  0.4782  0.2578  0.2208
   15CHTO  H190 5986   6.517   3.172   1.344  0.2480  1.4242  0.3587
   15CHTO  C101 5987   6.420   3.249   1.172  0.8010 -0.0192 -0.1836
   15CHTO  H188 5988   6.448   3.259   1.068  0.0981 -1.2858 -0.5125
   15CHTO   O68 5989   6.370   3.369   1.243  0.0584  0.2976  0.1149
   15CHTO  H168 5990   6.286   3.389   1.207  0.3371  1.5670  0.1485
   15CHTO   C99 5991   6.307   3.135   1.177 -0.1934 -0.3374 -0.0675
   15CHTO  H186 5992   6.280   3.109   1.281 -1.8064 -0.7077 -0.5666
   15CHTO   N17 5993   6.174   3.163   1.120  0.5489  0.3004  0.4174
   15CHTO  H174 5994   6.107   3.081   1.141  1.3918 -0.8476 -1.2707
   15CHTO  H175 5995   6.133   3.256   1.158  0.7898  0.6252 -0.1033
   15CHTO   C97 5996   6.361   3.002   1.105 -0.4614 -0.0416 -0.3449
   15CHTO  H184 5997   6.380   3.025   0.999  0.9738  2.9471  0.4896
   15CHTO   O64 5998   6.475   2.955   1.170  0.9346  0.0395  0.2546
   15CHTO  C104 5999   6.586   3.052   1.179 -0.5665  0.5545 -0.7063
   15CHTO  H191 6000   6.622   3.070   1.078  1.6482  1.5956  0.2404
   15CHTO  C108 6001   6.708   3.004   1.254 -0.7538  0.1058 -0.0124
   15CHTO   O71 6002   6.768   2.895   1.184  0.2296  0.1827  0.0450
   15CHTO  H171 6003   6.708   2.848   1.129 -0.6077  0.1415  0.9800
   15CHTO   O62 6004   6.268   2.891   1.121  0.0806 -0.4451 -0.7091
   15CHTO   C91 6005   6.271   2.771   1.038 -0.6800 -0.3369  0.1750
   15CHTO  H178 6006   6.351   2.784   0.965  0.3414 -0.4139  1.2732
   15CHTO   C92 6007   6.122   2.773   0.983  0.0120 -0.5018  0.1339
   15CHTO  H179 6008   6.081   2.875   0.975  3.0802  0.8108  0.2880
   15CHTO   O66 6009   6.123   2.717   0.848 -0.8933  0.2655  0.3554
   15CHTO  H166 6010   6.042   2.744   0.810 -1.2820  1.2300  1.8204
   15CHTO   C93 6011   6.023   2.697   1.073  0.0492 -0.9784  0.4429
   15CHTO  H180 6012   5.950   2.660   0.999  1.3684 -0.8161 -0.9564
   15CHTO   N16 6013   5.938   2.782   1.170  0.5623 -0.0390 -0.1279
   15CHTO  H172 6014   5.995   2.862   1.216  1.4663  0.1362 -1.5095
   15CHTO  H173 6015   5.851   2.823   1.121  1.3163  0.8925 -0.7174
   15CHTO   C94 6016   6.084   2.568   1.147  0.2415 -0.4769 -0.4778
   15CHTO  H181 6017   6.077   2.577   1.256  0.3066  0.4187 -0.5488
   15CHTO   O61 6018   6.219   2.537   1.112  0.6777 -0.0728  0.7725
   15CHTO   C95 6019   6.311   2.644   1.121 -0.6054  0.4007  0.2325
   15CHTO  H182 6020   6.317   2.681   1.223  0.0791 -0.7000  0.5910
   15CHTO  C106 6021   6.458   2.597   1.084  0.9664  0.1355  0.0678
   15CHTO   O69 6022   6.556   2.691   1.113 -0.2293 -0.4012  0.3905
   15CHTO  H169 6023   6.635   2.651   1.081 -0.9535 -1.0524 -0.6168
   15CHTO   O63 6024   5.982   2.439   1.104 -0.0564 -0.5816 -0.1374
   15CHTO   C96 6025   5.982   2.323   1.211 -0.2244 -0.2576  0.0104
   15CHTO  H183 6026   6.000   2.368   1.308  2.3814  0.3346 -0.6962
   15CHTO   C98 6027   6.080   2.205   1.176  0.4749  0.0241  0.4233
   15CHTO  H185 6028   6.066   2.185   1.069  0.8242 -1.9792  0.7480
   15CHTO   O67 6029   6.219   2.241   1.186  0.0360 -0.1046  0.5057
   15CHTO  H167 6030   6.268   2.227   1.107 -0.3056 -1.7645  0.5567
   15CHTO  C102 6031   6.054   2.075   1.269 -0.4262 -0.4471 -0.7242
   15CHTO  H189 6032   6.081   2.110   1.369 -3.8400  0.2046  0.0222
   15CHTO   N18 6033   6.138   1.960   1.237  0.4055  0.0525  0.4697
   15CHTO  H176 6034   6.125   1.879   1.307 -1.5934 -0.8328 -0.8697
   15CHTO  H177 6035   6.241   1.993   1.234  0.6865 -0.8977 -0.8925
   15CHTO  C105 6036   5.903   2.041   1.270 -0.6109  0.0586 -1.3538
   15CHTO  H192 6037   5.870   2.019   1.169  2.0955  1.6440 -2.6329
   15CHTO   O65 6038   5.833   2.159   1.311  0.2797  0.0856 -0.3163
   15CHTO  C100 6039   5.831   2.272   1.224 -0.0089 -0.4785  0.3204
   15CHTO  H187 6040   5.799   2.230   1.128 -0.9354 -0.5545  0.6649
   15CHTO  C107 6041   5.727   2.379   1.257  0.2502 -0.1401  0.0288
   15CHTO   O70 6042   5.596   2.323   1.250 -0.2198 -0.8382  0.3621
   15CHTO  H170 6043   5.579   2.271   1.326  3.2268  1.4075  2.8199
   15CHTO   O57 6044   5.877   1.908   1.372  0.0640 -0.9164 -0.4547
   15CHTO   C85 6045   5.753   1.835   1.368 -0.5053  0.6072  0.1354
   15CHTO  H157 6046   5.673   1.906   1.335 -0.9075  0.2084  0.2539
   15CHTO   C83 6047   5.711   1.795   1.513 -0.4552 -0.3687 -0.6034
   15CHTO  H155 6048   5.707   1.885   1.574 -1.7796 -0.7930 -0.0504
   15CHTO   O56 6049   5.813   1.716   1.580  0.0411 -0.3466  0.1743
   15CHTO  H135 6050   5.888   1.725   1.524 -2.3470  1.6076 -2.9071
   15CHTO   C81 6051   5.574   1.731   1.496 -0.1429 -0.3301  0.2633
   15CHTO  H153 6052   5.516   1.798   1.432  1.5443  3.9070  2.9843
   15CHTO   N14 6053   5.497   1.734   1.623 -0.1248  0.5923  0.3844
   15CHTO  H141 6054   5.401   1.778   1.602 -0.7024 -0.2839  1.1421
   15CHTO  H142 6055   5.485   1.640   1.671  0.1760 -1.0752 -2.7084
   15CHTO   C79 6056   5.582   1.589   1.418 -0.5657 -0.9281 -0.4622
   15CHTO  H151 6057   5.482   1.546   1.409 -0.4744 -1.2434 -0.0011
   15CHTO   O52 6058   5.632   1.616   1.284  0.3423 -0.3141  0.7598
   15CHTO   C86 6059   5.749   1.704   1.274 -0.0507  1.0544 -0.1966
   15CHTO  H158 6060   5.824   1.624   1.292  0.7023  1.4344 -1.5326
   15CHTO   C90 6061   5.758   1.747   1.118 -0.2745  0.0503 -0.2052
   15CHTO   O60 6062   5.764   1.625   1.042 -0.4706  0.5065  0.0379
   15CHTO  H138 6063   5.765   1.644   0.951  2.0669 -3.5236 -0.8942
   15CHTO   O50 6064   5.664   1.491   1.475 -0.1200 -0.4160 -0.0729
   15CHTO   C73 6065   5.624   1.367   1.520  0.8166  0.5889  0.0780
   15CHTO  H145 6066   5.514   1.367   1.513  0.9080 -0.6132 -1.3927
   15CHTO   C74 6067   5.687   1.335   1.668  0.3568  0.0819 -0.1665
   15CHTO  H146 6068   5.648   1.409   1.739 -0.1798 -0.9333  0.6085
   15CHTO   O54 6069   5.646   1.205   1.717 -0.5489  0.2088 -0.4230
   15CHTO  H133 6070   5.709   1.178   1.781 -1.6698 -0.3654  0.4534
   15CHTO   C75 6071   5.847   1.340   1.656 -0.1236 -0.4466 -0.0625
   15CHTO  H147 6072   5.881   1.443   1.635 -2.5879  0.5698  0.7976
   15CHTO   N13 6073   5.912   1.312   1.789 -0.3958 -0.7851 -0.4267
   15CHTO  H139 6074   5.887   1.224   1.846  1.7075  0.4457  2.5073
   15CHTO  H140 6075   6.020   1.311   1.788 -0.3786 -0.8859  0.9451
   15CHTO   C76 6076   5.899   1.242   1.541  0.2191 -0.6996 -0.2669
   15CHTO  H148 6077   5.868   1.143   1.575 -0.3352 -1.5287 -3.0949
   15CHTO   O49 6078   5.825   1.270   1.420  0.1833 -0.2587 -0.3886
   15CHTO   C77 6079   5.679   1.257   1.431  0.5744 -0.4773  0.0105
   15CHTO  H149 6080   5.630   1.165   1.463 -0.0978 -0.6221 -1.4209
   15CHTO   C88 6081   5.618   1.281   1.296 -0.2498  0.2126 -0.3419
   15CHTO   O58 6082   5.670   1.190   1.198 -0.0206 -0.7582 -0.1737
   15CHTO  H136 6083   5.734   1.236   1.146 -0.6757 -0.9863 -1.2024
   15CHTO   O51 6084   6.057   1.249   1.519 -0.4226  0.2124  0.1235
   15CHTO   C78 6085   6.107   1.170   1.392  0.4159 -0.2768 -0.7070
   15CHTO  H150 6086   6.048   1.198   1.302 -1.5472 -2.9603 -0.3242
   15CHTO   C80 6087   6.095   1.018   1.407  0.4143  0.1828  0.6000
   15CHTO  H152 6088   6.147   0.987   1.500  2.4646 -0.8595 -0.8378
   15CHTO   O55 6089   5.956   0.983   1.430 -0.7264  0.1001  0.1018
   15CHTO  H134 6090   5.895   1.020   1.368 -0.3899  1.6706  0.6756
   15CHTO   C84 6091   6.150   0.938   1.283  0.1676  0.4053 -1.4021
   15CHTO  H156 6092   6.094   0.962   1.193 -2.3324  0.0390  0.0107
   15CHTO   N15 6093   6.160   0.792   1.302 -0.0159 -0.7320  0.1346
   15CHTO  H143 6094   6.201   0.750   1.213  0.0766  0.7412 -0.5254
   15CHTO  H144 6095   6.222   0.763   1.385  0.9912 -3.7204 -1.5711
   15CHTO   C87 6096   6.286   0.991   1.242 -0.2007 -0.3506  0.4807
   15CHTO  H159 6097   6.352   0.961   1.324  2.6526  3.2575 -0.3641
   15CHTO   O53 6098   6.283   1.153   1.234  0.2783  0.1424 -0.0452
   15CHTO   C82 6099   6.248   1.222   1.357 -0.9007  0.0563 -0.0368
   15CHTO  H154 6100   6.315   1.195   1.438 -0.3110 -1.2203 -0.9192
   15CHTO   C89 6101   6.243   1.376   1.355  0.4242 -0.0599  0.4364
   15CHTO   O59 6102   6.359   1.439   1.288  0.4838  0.4440 -0.5508
   15CHTO  H137 6103   6.392   1.502   1.349  0.2918 -0.6212  0.6828
   15CHTO   O45 6104   6.347   0.940   1.098 -0.1092 -0.2132  0.3583
   15CHTO   C67 6105   6.478   0.983   1.059  0.1296 -0.0734  0.3353
   15CHTO  H124 6106   6.494   1.080   1.106 -0.0856 -0.9019  2.1317
   15CHTO   C65 6107   6.590   0.890   1.105 -0.7045  0.8806  0.3454
   15CHTO  H122 6108   6.562   0.785   1.100  1.7931  0.3175 -3.9289
   15CHTO   O44 6109   6.604   0.921   1.240 -0.5679 -0.1750 -1.0094
   15CHTO  H102 6110   6.665   0.992   1.246 -1.0702  0.0680  1.7960
   15CHTO   C63 6111   6.717   0.883   1.010 -0.1207 -0.5693  0.1398
   15CHTO  H120 6112   6.697   0.817   0.925  4.8952 -0.2981 -1.4456
   15CHTO   N11 6113   6.838   0.816   1.070  0.3407 -0.3454  0.0951
   15CHTO  H108 6114   6.836   0.710   1.057 -3.4943  0.0845 -4.0749
   15CHTO  H109 6115   6.848   0.853   1.169 -2.0040  3.1954 -0.8866
   15CHTO   C61 6116   6.742   1.027   0.944 -0.6925  0.0697 -0.4980
   15CHTO  H118 6117   6.814   1.014   0.863  0.3049  1.1042  0.2056
   15CHTO   O40 6118   6.625   1.073   0.881 -0.4349  0.0256 -0.2803
   15CHTO   C68 6119   6.490   1.009   0.910 -0.2124  0.1717 -0.2789
   15CHTO  H125 6120   6.469   0.911   0.861 -0.3986  0.1088 -0.0763
   15CHTO   C72 6121   6.384   1.106   0.857 -0.4788  0.2398  0.8942
   15CHTO   O48 6122   6.398   1.234   0.907  0.0824  0.2059 -0.1537
   15CHTO  H105 6123   6.311   1.265   0.919  0.7845  2.4737 -0.7835
   15CHTO   O38 6124   6.787   1.122   1.043 -0.1089  0.3664 -0.5595
   15CHTO   C55 6125   6.859   1.239   0.992 -0.0094  0.8495 -0.1371
   15CHTO  H112 6126   6.846   1.255   0.884  4.2494  2.0269 -0.5958
   15CHTO   C56 6127   7.012   1.215   1.026  0.0715  0.3429 -0.5529
   15CHTO  H113 6128   7.030   1.175   1.127 -3.5454  2.4424  1.0096
   15CHTO   O42 6129   7.063   1.119   0.926 -0.6194 -0.0965 -0.4124
   15CHTO  H100 6130   7.155   1.118   0.909 -0.5112 -1.3178  0.2232
   15CHTO   C57 6131   7.095   1.348   1.015  0.0855  0.1472 -0.6526
   15CHTO  H114 6132   7.112   1.370   0.909  0.2576  1.2179 -0.4096
   15CHTO   N10 6133   7.232   1.336   1.073 -0.1373 -0.1548  0.9908
   15CHTO  H106 6134   7.222   1.354   1.179 -1.6985 -1.6823  1.1219
   15CHTO  H107 6135   7.277   1.239   1.061 -1.3544 -0.5272 -0.7573
   15CHTO   C58 6136   7.026   1.475   1.076  0.0692  0.4520 -0.0555
   15CHTO  H115 6137   7.026   1.472   1.187  0.7882  2.5356  0.0171
   15CHTO   O37 6138   6.894   1.479   1.024  0.4318 -0.3832  0.0541
   15CHTO   C59 6139   6.810   1.363   1.066  0.3685  0.3239 -0.3738
   15CHTO  H116 6140   6.807   1.339   1.172 -2.1531  0.6195 -0.3457
   15CHTO   C70 6141   6.669   1.395   1.023 -0.1471  0.7878 -0.2326
   15CHTO   O46 6142   6.615   1.508   1.093 -0.3754 -0.5651  0.2178
   15CHTO  H103 6143   6.553   1.553   1.039 -0.0821 -1.6222 -1.0035
   15CHTO   O39 6144   7.120   1.614   1.017  0.0630  0.4331 -0.0255
   15CHTO   C60 6145   7.062   1.740   1.049  0.0765  0.3627  0.3010
   15CHTO  H117 6146   6.954   1.733   1.030  0.4453 -1.4922 -1.2865
   15CHTO   C62 6147   7.080   1.784   1.195  0.2966 -1.0404  0.2472
   15CHTO  H119 6148   7.010   1.721   1.253 -1.4487  2.0199  1.6119
   15CHTO   O43 6149   7.223   1.758   1.226  0.4227 -0.0040  0.5328
   15CHTO  H101 6150   7.245   1.804   1.304 -1.6304  0.2326  1.0115
   15CHTO   C66 6151   7.033   1.935   1.218 -0.0779 -0.3441  0.2623
   15CHTO  H123 6152   6.926   1.938   1.196  0.1144  0.2110 -0.6237
   15CHTO   N12 6153   7.045   1.977   1.360  0.4301  0.2576 -0.7513
   15CHTO  H110 6154   6.972   1.944   1.432  0.7815  0.5986 -0.2315
   15CHTO  H111 6155   7.138   1.940   1.401 -0.3336  0.3622  1.1539
   15CHTO   C69 6156   7.112   2.032   1.126  0.1524 -0.6605  0.9774
   15CHTO  H126 6157   7.219   2.025   1.156  0.1389 -1.6490  0.8192
   15CHTO   O41 6158   7.078   1.988   0.987  0.1220 -0.3319 -0.9803
   15CHTO   C64 6159   7.114   1.842   0.950  0.1487  0.8929 -0.2167
   15CHTO  H121 6160   7.223   1.823   0.944  0.1533  1.1575 -1.1344
   15CHTO   C71 6161   7.056   1.826   0.806 -0.0192 -0.6285  0.0133
   15CHTO   O47 6162   6.915   1.859   0.811 -0.1113  0.0842  0.0869
   15CHTO  H104 6163   6.873   1.807   0.746  1.0866 -0.5166 -0.2204
   15CHTO   O34 6164   7.030   2.192   1.141 -0.4688  0.4662 -0.6956
   15CHTO   C49 6165   6.892   2.291   1.117  0.2249  0.0761 -0.2028
   15CHTO   H91 6166   6.895   2.373   1.189 -0.4058  1.4412 -1.6892
   15CHTO   C47 6167   6.765   2.207   1.136  0.0251  0.1104 -0.8891
   15CHTO   H89 6168   6.679   2.276   1.128  0.1883  0.7583  2.2678
   15CHTO   O33 6169   6.769   2.152   1.269 -0.1480 -0.0782  0.2048
   15CHTO   H70 6170   6.680   2.139   1.293 -0.1471 -0.6090 -0.0787
   15CHTO   C45 6171   6.753   2.109   1.013  0.3542  0.1503  1.3105
   15CHTO   H87 6172   6.852   2.062   1.015 -0.3494 -1.4550 -0.1419
   15CHTO    N8 6173   6.648   2.010   1.020  0.1894 -0.7148  0.1531
   15CHTO   H75 6174   6.660   1.935   0.944 -1.7162 -1.6636  0.7418
   15CHTO   H76 6175   6.645   1.960   1.116  2.0163 -1.6488 -0.2680
   15CHTO   C43 6176   6.733   2.194   0.883 -0.0937 -0.4311  0.2568
   15CHTO   H85 6177   6.719   2.120   0.805 -1.4260  0.3294 -0.2367
   15CHTO   O29 6178   6.851   2.285   0.864  0.0642  0.7319  0.0780
   15CHTO   C50 6179   6.887   2.365   0.982 -0.0131 -0.8280 -0.1367
   15CHTO   H92 6180   6.989   2.407   0.974  0.1804 -1.2317  0.2106
   15CHTO   C54 6181   6.809   2.500   0.979  0.0518 -0.7349 -0.0047
   15CHTO   O36 6182   6.854   2.605   1.064 -0.4808 -0.5860  0.1316
   15CHTO   H72 6183   6.859   2.569   1.150  0.3436 -0.6583  0.0574
   15CHTO   O27 6184   6.612   2.273   0.874  0.7147  0.6224  0.2655
   15CHTO   C37 6185   6.504   2.280   0.779 -0.0862  0.2084  0.5432
   15CHTO   H79 6186   6.506   2.190   0.716 -0.6121  0.4527  0.1768
   15CHTO   C38 6187   6.365   2.289   0.857 -0.5914 -0.4170  0.1005
   15CHTO   H80 6188   6.378   2.359   0.941  1.2609  0.8577 -1.2300
   15CHTO   O31 6189   6.337   2.155   0.907  0.1597 -0.4563 -0.7763
   15CHTO   H68 6190   6.331   2.148   1.001 -2.4681 -0.7721 -0.9254
   15CHTO   C39 6191   6.250   2.335   0.760  0.4522 -0.7448  0.2449
   15CHTO   H81 6192   6.218   2.243   0.711 -0.9726  0.2642 -0.7663
   15CHTO    N7 6193   6.120   2.383   0.826  0.4481 -0.9868 -0.2386
   15CHTO   H73 6194   6.056   2.429   0.753 -1.7531  0.8922  2.7485
   15CHTO   H74 6195   6.067   2.304   0.877 -0.7581  0.8544  1.4468
   15CHTO   C40 6196   6.286   2.441   0.647  0.0526  0.3745  0.1902
   15CHTO   H82 6197   6.281   2.546   0.676 -1.3677 -0.0039  1.3924
   15CHTO   O26 6198   6.411   2.397   0.598  0.5011  0.1604  0.3071
   15CHTO   C41 6199   6.520   2.408   0.690  0.5236  0.0296 -0.0243
   15CHTO   H83 6200   6.509   2.496   0.755  0.4644  0.3243 -0.4364
   15CHTO   C52 6201   6.644   2.420   0.608 -0.7190  0.1006 -0.6784
   15CHTO   O35 6202   6.648   2.562   0.555  0.5712  0.1420  0.0240
   15CHTO   H71 6203   6.670   2.570   0.464 -0.6791  0.1564 -0.2795
   15CHTO   O28 6204   6.226   2.412   0.524  0.2468 -0.1258 -0.3099
   15CHTO   C42 6205   6.188   2.524   0.429 -0.0886 -0.1053 -0.2704
   15CHTO   H84 6206   6.162   2.467   0.339  0.6646  1.0571 -1.2341
   15CHTO   C44 6207   6.306   2.618   0.385 -0.2048  0.5698 -0.0418
   15CHTO   H86 6208   6.337   2.681   0.469  0.6144 -0.1061  0.1738
   15CHTO   O32 6209   6.409   2.527   0.337 -0.3336 -0.2076 -0.0942
   15CHTO   H69 6210   6.388   2.485   0.256  1.2099  0.1953 -0.7227
   15CHTO   C48 6211   6.256   2.719   0.265 -0.0444 -0.3192 -0.6312
   15CHTO   H90 6212   6.232   2.657   0.179 -1.7671  1.1554 -1.2450
   15CHTO    N9 6213   6.364   2.812   0.220  0.0871 -0.1992 -0.4006
   15CHTO   H77 6214   6.442   2.750   0.180  0.4352 -0.6076  0.8962
   15CHTO   H78 6215   6.406   2.872   0.299 -0.8838 -2.3892  1.8510
   15CHTO   C51 6216   6.124   2.789   0.308 -0.2790  0.4870  0.4554
   15CHTO   H93 6217   6.144   2.861   0.387 -2.8137 -0.0095  1.5728
   15CHTO   O30 6218   6.031   2.688   0.343 -0.3899  0.0451 -0.6134
   15CHTO   C46 6219   6.064   2.606   0.469  0.6512  0.5656  0.5409
   15CHTO   H88 6220   6.102   2.657   0.558  0.4002  0.1667  0.8808
   15CHTO   C53 6221   5.943   2.519   0.501 -0.5723 -0.2336 -0.1273
   15CHTO   O72 6222   5.827   2.583   0.555 -0.2442  0.2861 -0.3879
   15CHTO  H199 6223   5.768   2.529   0.603  0.6966  1.5783  2.3256
   15CHTO   O22 6224   6.060   2.862   0.205 -0.1429  0.5439 -0.0944
   15CHTO   C31 6225   6.009   3.005   0.230 -0.9462  0.0716 -0.2790
   15CHTO   H59 6226   5.927   3.015   0.156 -0.4757  0.9307 -0.6994
   15CHTO   C29 6227   5.944   3.034   0.370  0.2221  0.3664 -0.2193
   15CHTO   H57 6228   6.014   2.999   0.447 -0.0656 -1.0612 -0.5788
   15CHTO   O21 6229   5.822   2.951   0.378  0.0404  0.2863 -0.1468
   15CHTO   H37 6230   5.845   2.867   0.345  2.0331  0.6351  0.2974
   15CHTO   C27 6231   5.913   3.190   0.383  0.0612  0.1694 -0.4110
   15CHTO   H55 6232   5.835   3.215   0.309 -0.0876 -1.7132 -0.8929
   15CHTO    N5 6233   5.873   3.228   0.518  0.7079  0.0545  0.5551
   15CHTO   H43 6234   5.786   3.171   0.547 -0.1552  2.0729  2.0024
   15CHTO   H44 6235   5.837   3.329   0.513  0.4174 -0.0884 -0.2937
   15CHTO   C25 6236   6.039   3.273   0.349 -0.1124 -0.5374 -0.7280
   15CHTO   H53 6237   6.115   3.241   0.422 -2.5047 -2.9581  0.7732
   15CHTO   O17 6238   6.078   3.248   0.209 -0.3170 -0.3800 -0.4647
   15CHTO   C32 6239   6.123   3.109   0.186 -0.0684 -0.1546  0.1132
   15CHTO   H60 6240   6.216   3.087   0.238 -0.3334  1.2181  1.1963
   15CHTO   C36 6241   6.151   3.097   0.032 -0.6609  0.9117  0.4157
   15CHTO   O25 6242   6.176   2.974  -0.025  0.1261  0.1924  0.6325
   15CHTO   H40 6243   6.122   2.906   0.012  1.0469 -2.1538 -2.2226
   15CHTO   O15 6244   6.007   3.436   0.367  0.0669  0.4187  0.0967
   15CHTO   C19 6245   6.080   3.562   0.385 -0.4097  0.1408 -0.4434
   15CHTO   H47 6246   6.088   3.607   0.285  0.7397 -1.1518 -0.9355
   15CHTO   C20 6247   6.009   3.655   0.480  0.1978  0.1371  0.4456
   15CHTO   H48 6248   5.989   3.615   0.581 -2.1232  1.7279  0.6843
   15CHTO   O19 6249   5.874   3.678   0.428  0.2397 -0.4525 -0.1631
   15CHTO   H35 6250   5.890   3.734   0.355  4.2279  1.4676  2.0469
   15CHTO   C21 6251   6.089   3.791   0.506  0.0696  0.0765  0.0918
   15CHTO   H49 6252   6.095   3.852   0.415 -0.6670  0.4728  0.3025
   15CHTO    N4 6253   6.027   3.876   0.609 -0.7203 -0.0712  0.3186
   15CHTO   H41 6254   5.956   3.937   0.556  0.3397 -0.1900 -1.2640
   15CHTO   H42 6255   5.975   3.812   0.679 -1.4654  1.3854  1.1194
   15CHTO   C22 6256   6.232   3.759   0.552  0.1333 -0.2887  0.2262
   15CHTO   H50 6257   6.230   3.712   0.650 -0.1241  0.1716  0.4458
   15CHTO   O14 6258   6.295   3.673   0.462  0.3443  0.3531 -0.4334
   15CHTO   C23 6259   6.227   3.548   0.440  0.4396 -0.1175  0.0021
   15CHTO   H51 6260   6.230   3.490   0.533  0.9003  1.4278  0.9634
   15CHTO   C34 6261   6.316   3.461   0.348 -0.2049 -0.3853 -0.1285
   15CHTO   O23 6262   6.439   3.437   0.419 -0.2794  0.5413  0.1225
   15CHTO   H38 6263   6.435   3.406   0.507 -0.2976 -0.3138 -0.1821
   15CHTO   O16 6264   6.324   3.868   0.546 -0.3850  0.3985 -0.0656
   15CHTO   C24 6265   6.431   3.880   0.686  0.3115 -0.3888 -0.8612
   15CHTO   H52 6266   6.412   3.802   0.760  1.4531  1.4628  1.4570
   15CHTO   C26 6267   6.409   4.018   0.757 -0.2228 -0.2107 -0.5227
   15CHTO   H54 6268   6.402   4.100   0.683  0.3489  1.9120  1.6828
   15CHTO   O20 6269   6.276   4.015   0.809 -0.4217 -0.0931 -0.6778
   15CHTO   H36 6270   6.255   4.095   0.852 -2.3613 -1.3650  0.8221
   15CHTO   C30 6271   6.523   4.055   0.851  0.0877 -0.4399 -0.2660
   15CHTO   H58 6272   6.513   3.994   0.942 -1.8042  0.1677 -0.0322
   15CHTO    N6 6273   6.513   4.197   0.887  0.0199  0.5409 -0.4910
   15CHTO   H45 6274   6.457   4.204   0.978  1.3434  0.6158  0.3353
   15CHTO   H46 6275   6.609   4.248   0.889 -0.3117  1.1634 -0.1562
   15CHTO   C33 6276   6.664   4.025   0.785  0.1158  0.1248 -0.0460
   15CHTO   H61 6277   6.682   4.089   0.698  1.4951 -0.7523 -0.4289
   15CHTO   O18 6278   6.663   3.887   0.736 -0.0899  0.2552 -0.3669
   15CHTO   C28 6279   6.571   3.859   0.630 -0.2991 -0.3167  0.8231
   15CHTO   H56 6280   6.581   3.935   0.552 -0.6885 -0.7303  0.3603
   15CHTO   C35 6281   6.587   3.709   0.601  0.6997  0.2152  0.5962
   15CHTO   O24 6282   6.723   3.661   0.582 -0.4677 -0.5535  0.5115
   15CHTO   H39 6283   6.735   3.607   0.507  2.0869  1.8841 -0.9355
   15CHTO    O9 6284   6.769   4.045   0.880 -0.1816 -0.6430  0.6410
   15CHTO   C13 6285   6.917   4.115   0.823  0.6960 -0.4298 -0.7013
   15CHTO   H26 6286   6.898   4.216   0.781 -2.1735 -0.8241 -0.4594
   15CHTO   C11 6287   6.979   4.019   0.714  0.2216 -0.1911 -1.0942
   15CHTO   H24 6288   6.933   4.045   0.617 -1.7447  0.5701  0.0149
   15CHTO    O8 6289   6.936   3.885   0.738 -0.3072 -0.4339 -0.0210
   15CHTO    H3 6290   6.859   3.862   0.691 -0.0931  1.6534 -1.4438
   15CHTO    C9 6291   7.127   4.055   0.694  0.6095 -0.0632  0.3929
   15CHTO   H22 6292   7.132   4.165   0.694  0.0474 -0.0364  1.1745
   15CHTO    N2 6293   7.195   4.013   0.574 -0.5112  0.2177  0.5727
   15CHTO   H10 6294   7.275   4.076   0.538 -0.1426 -0.6042 -0.0478
   15CHTO   H11 6295   7.230   3.913   0.595 -0.9582  0.1005  0.7639
   15CHTO    C7 6296   7.200   4.004   0.825 -0.4063  0.1209  1.0085
   15CHTO   H20 6297   7.305   4.040   0.815 -0.5580  0.6081  1.1778
   15CHTO    O4 6298   7.142   4.066   0.943 -0.5401 -0.5299  0.6461
   15CHTO   C14 6299   7.014   4.126   0.957  0.2226  0.3774 -0.7311
   15CHTO   H27 6300   7.014   4.236   0.973 -1.2996  0.3567 -0.4543
   15CHTO   C18 6301   6.954   4.067   1.079  0.1503 -0.4127 -0.5684
   15CHTO   O13 6302   7.025   4.100   1.197  0.3149  0.2666  0.4801
   15CHTO    H7 6303   7.021   4.028   1.257 -0.4617  0.2419  0.4048
   15CHTO    O2 6304   7.195   3.833   0.848 -0.0393 -0.1936  0.2236
   15CHTO    C1 6305   7.320   3.782   0.891 -0.0827 -0.3141  0.6678
   15CHTO   H14 6306   7.388   3.864   0.920 -2.6814  0.9520  3.4252
   15CHTO    C2 6307   7.394   3.693   0.781 -0.2423 -0.3216  0.2810
   15CHTO   H15 6308   7.320   3.628   0.734  0.6005  0.4152 -2.1620
   15CHTO    O6 6309   7.439   3.786   0.680  0.4908  0.0287 -0.6985
   15CHTO    H1 6310   7.504   3.844   0.718 -0.1515  0.0200  0.4342
   15CHTO    C3 6311   7.520   3.604   0.840  0.0910 -0.5172  0.8407
   15CHTO   H16 6312   7.605   3.666   0.874  0.0286 -0.6933  1.3201
   15CHTO    N1 6313   7.570   3.502   0.734  0.0856 -0.4814 -0.3911
   15CHTO    H8 6314   7.502   3.421   0.715  1.3941 -1.7601  0.3457
   15CHTO    H9 6315   7.601   3.553   0.643  1.2138 -1.1729 -0.4045
   15CHTO    C4 6316   7.473   3.537   0.966  0.2145 -0.0426 -0.2856
   15CHTO   H17 6317   7.399   3.460   0.944  0.8139 -0.3785 -1.1635
   15CHTO    O1 6318   7.420   3.630   1.065  0.0047 -0.1781 -0.7262
   15CHTO    C5 6319   7.298   3.697   1.027 -0.4095 -0.9581 -0.9165
   15CHTO   H18 6320   7.224   3.619   1.011 -3.6119  1.9907 -0.8936
   15CHTO   C16 6321   7.248   3.793   1.149  0.4017  0.7640  0.2325
   15CHTO   O11 6322   7.131   3.742   1.221  0.0741 -0.0764  0.3366
   15CHTO    H5 6323   7.059   3.746   1.160  0.2789 -1.7062 -0.0487
   15CHTO    O3 6324   7.587   3.477   1.038  0.1342 -0.6329  0.1898
   15CHTO    C6 6325   7.570   3.349   1.103  0.0190  0.5160  0.2005
   15CHTO   H19 6326   7.469   3.339   1.143 -0.0338  2.6611  0.6526
   15CHTO    C8 6327   7.594   3.231   1.003 -0.6234  0.0829 -0.0760
   15CHTO   H21 6328   7.687   3.247   0.949 -1.4069  0.5837 -1.2701
   15CHTO    O7 6329   7.488   3.240   0.904  0.4260 -0.6430 -0.6501
   15CHTO    H2 6330   7.460   3.164   0.858 -0.3754 -0.9278  0.2800
   15CHTO   C12 6331   7.589   3.095   1.092 -0.7309 -1.1539 -0.8587
   15CHTO   H25 6332   7.490   3.085   1.140  0.0801  0.1204  1.1684
   15CHTO    N3 6333   7.606   2.974   1.003 -0.2444  0.0585 -0.7177
   15CHTO   H12 6334   7.560   2.884   1.042  0.3512  0.0467 -0.0112
   15CHTO   H13 6335   7.704   2.958   0.960 -0.8498 -1.2214 -1.6303
   15CHTO   C15 6336   7.693   3.093   1.211 -0.2069 -0.0739  0.6417
   15CHTO   H28 6337   7.800   3.082   1.193  0.0460  2.1337  0.6503
   15CHTO   O10 6338   7.662   2.993   1.303 -0.1743 -0.4662 -0.5523
   15CHTO    H4 6339   7.696   2.912   1.269 -2.7430 -0.8227 -2.3767
   15CHTO    O5 6340   7.663   3.210   1.289 -0.6822 -0.1266  0.0958
   15CHTO   C10 6341   7.662   3.338   1.231 -0.4648 -0.2083 -0.2118
   15CHTO   H23 6342   7.762   3.369   1.202 -0.4689 -0.8186 -0.8959
   15CHTO   C17 6343   7.612   3.436   1.333 -0.4956 -0.5423 -0.3318
   15CHTO   O12 6344   7.652   3.568   1.294 -0.0625  0.3289 -0.1482
   15CHTO    H6 6345   7.585   3.629   1.320  0.2318  1.8851 -2.8806
   16CHTO  H203 6346   5.307   3.257   0.823  0.0650  0.0517  0.4598
   16CHTO   O82 6347   5.376   3.209   0.865  0.1201 -0.1492  0.1426
   16CHTO  C123 6348   5.496   3.283   0.884  0.5772  0.8158  0.4041
   16CHTO  H227 6349   5.489   3.341   0.977 -0.1506  0.5627  0.5097
   16CHTO   O77 6350   5.597   3.179   0.910 -0.6223  0.4489 -0.6638
   16CHTO  C118 6351   5.722   3.228   0.957  0.5473 -0.1073  0.2003
   16CHTO  H222 6352   5.704   3.283   1.050  1.0320  4.2955 -2.2009
   16CHTO  C125 6353   5.813   3.103   0.983 -0.3314 -0.3107  0.1992
   16CHTO   O84 6354   5.842   3.028   0.865  0.4204  0.5483  0.1331
   16CHTO  H205 6355   5.771   3.044   0.805  0.9537  2.3413 -0.0359
   16CHTO  C114 6356   5.787   3.327   0.858 -0.1754 -0.2826 -0.0853
   16CHTO  H218 6357   5.808   3.268   0.769  0.4925  0.7068 -0.5937
   16CHTO  C116 6358   5.690   3.425   0.806 -0.8043  0.3930 -0.6655
   16CHTO  H220 6359   5.675   3.498   0.888 -0.0371 -1.0776  0.8056
   16CHTO   O79 6360   5.752   3.491   0.692 -0.0691 -0.2972 -0.4187
   16CHTO  H201 6361   5.794   3.440   0.626 -0.3170  1.4417 -1.9642
   16CHTO  C120 6362   5.543   3.365   0.762  0.1578 -0.9650  0.0794
   16CHTO  H224 6363   5.568   3.294   0.681  0.9762  1.2685 -1.6885
   16CHTO   N21 6364   5.445   3.470   0.726  0.5434  0.2079  0.1614
   16CHTO  H211 6365   5.366   3.442   0.657  1.3776  1.4954 -1.3548
   16CHTO  H212 6366   5.410   3.532   0.807  0.6367 -2.1188  2.0315
   16CHTO   O75 6367   5.905   3.375   0.918  0.0672  0.0981 -0.2765
   16CHTO  C112 6368   6.041   3.388   0.813  0.1693  0.4178 -0.1850
   16CHTO  H216 6369   6.003   3.429   0.719 -1.3684  0.4353  0.4315
   16CHTO   O73 6370   6.096   3.249   0.795  0.0863 -0.2811  0.1764
   16CHTO  C113 6371   6.206   3.239   0.703  0.1545 -0.4862 -0.0290
   16CHTO  H217 6372   6.172   3.294   0.612  1.2698  0.5304  0.1559
   16CHTO  C124 6373   6.235   3.092   0.655  0.7422 -0.0799 -0.2863
   16CHTO   O83 6374   6.243   3.002   0.762  0.6266  0.0808 -0.5265
   16CHTO  H204 6375   6.288   2.927   0.729  0.4681 -0.2272 -0.0445
   16CHTO  C109 6376   6.330   3.322   0.767 -0.0595  0.3486 -0.1932
   16CHTO  H213 6377   6.362   3.265   0.856  1.2795 -0.7135 -1.3153
   16CHTO  C110 6378   6.291   3.468   0.812  0.3610 -0.4540 -0.5914
   16CHTO  H214 6379   6.294   3.520   0.716 -0.9937  3.9272  1.6140
   16CHTO   O78 6380   6.387   3.520   0.897  0.1049  0.2104 -0.0952
   16CHTO  H200 6381   6.474   3.504   0.867 -0.8843 -0.9834 -2.4379
   16CHTO  C111 6382   6.148   3.480   0.890  0.3373 -0.2076  0.1284
   16CHTO  H215 6383   6.156   3.435   0.990  0.4119  0.8600  0.6070
   16CHTO   N19 6384   6.084   3.613   0.903  0.0274 -0.4085  0.3115
   16CHTO  H207 6385   6.048   3.626   1.004 -0.7500 -2.2791  0.2952
   16CHTO  H208 6386   6.160   3.689   0.903 -0.4113  0.0390  1.6921
   16CHTO   O74 6387   6.445   3.324   0.674 -0.0164  0.4340 -0.6062
   16CHTO  C115 6388   6.548   3.216   0.675 -0.3492  0.4962  0.0189
   16CHTO  H219 6389   6.516   3.131   0.735 -0.8893 -0.4746 -1.5933
   16CHTO   O76 6390   6.568   3.156   0.530  0.0040 -0.2332 -0.3145
   16CHTO  C122 6391   6.661   3.047   0.507 -0.0496  0.1055 -0.2712
   16CHTO  H226 6392   6.677   3.038   0.400 -0.0241  0.1606 -0.2723
   16CHTO  C126 6393   6.590   2.913   0.549 -0.2048  0.5679 -0.1256
   16CHTO   O85 6394   6.596   2.876   0.686 -0.2082 -0.3310 -0.1692
   16CHTO  H206 6395   6.593   2.957   0.734  2.4708 -1.2479  1.6574
   16CHTO  C121 6396   6.798   3.073   0.582  0.4629  0.2793 -0.2915
   16CHTO  H225 6397   6.855   2.979   0.588  0.6990  0.3778 -0.9735
   16CHTO   O81 6398   6.879   3.159   0.501 -0.3238 -0.9253 -0.0423
   16CHTO  H202 6399   6.870   3.167   0.408  2.4141 -2.1030 -0.4737
   16CHTO  C119 6400   6.785   3.141   0.727 -0.3698  0.8842  0.4419
   16CHTO  H223 6401   6.743   3.055   0.780  1.7798 -2.5368 -3.1173
   16CHTO  C117 6402   6.687   3.269   0.730 -0.3350  0.6000  0.5071
   16CHTO  H221 6403   6.706   3.352   0.662 -1.1997  1.9045  1.8370
   16CHTO   N20 6404   6.678   3.330   0.864  0.0819 -0.1454 -0.5538
   16CHTO  H209 6405   6.584   3.309   0.913  0.0726  0.3253 -0.3644
   16CHTO  H210 6406   6.731   3.422   0.883 -0.6365  0.4941 -1.6333
   16CHTO   O80 6407   6.936   3.163   0.809  0.5972 -1.0970 -0.1897
   16CHTO  C103 6408   6.988   3.049   0.912 -0.6385 -0.2107 -0.0822
   16CHTO  H190 6409   6.915   3.041   0.993  0.7340 -1.4892  1.0698
   16CHTO  C101 6410   7.022   2.913   0.850 -0.3206 -0.4061 -0.0155
   16CHTO  H188 6411   7.092   2.929   0.767  0.1459 -4.4080 -0.5111
   16CHTO   O68 6412   6.895   2.835   0.791 -0.3147 -0.0515  0.6254
   16CHTO  H168 6413   6.926   2.755   0.753  0.7639 -0.7076  2.7919
   16CHTO   C99 6414   7.093   2.819   0.957  0.2199 -0.0463 -0.3687
   16CHTO  H186 6415   7.020   2.783   1.033 -0.1877  2.3716  0.4465
   16CHTO   N17 6416   7.153   2.693   0.903 -0.0078  0.2039 -0.3994
   16CHTO  H174 6417   7.260   2.708   0.908 -0.2696  2.0229  0.3192
   16CHTO  H175 6418   7.124   2.612   0.967  0.0082  1.4696  1.2403
   16CHTO   C97 6419   7.198   2.892   1.038  0.0525 -0.3918 -0.1145
   16CHTO  H184 6420   7.284   2.905   0.971 -0.4333  2.5220 -0.2512
   16CHTO   O64 6421   7.149   3.016   1.087 -0.9198  0.1513  0.0571
   16CHTO  C104 6422   7.121   3.101   0.976  0.5594 -1.1789 -0.8461
   16CHTO  H191 6423   7.198   3.101   0.898  0.8308 -0.9688 -0.5805
   16CHTO  C108 6424   7.110   3.248   1.022 -0.1491 -0.3334  0.0595
   16CHTO   O71 6425   7.246   3.278   1.069 -0.3641  0.3472  0.4551
   16CHTO  H171 6426   7.269   3.223   1.141 -0.9590  0.2698  0.5939
   16CHTO   O62 6427   7.235   2.804   1.151 -0.0373  0.2779 -0.2343
   16CHTO   C91 6428   7.314   2.863   1.263  0.3642 -0.6066  0.6388
   16CHTO  H178 6429   7.385   2.938   1.227 -1.5664 -0.3231 -2.8537
   16CHTO   C92 6430   7.392   2.733   1.323  0.4959  0.2569 -0.4104
   16CHTO  H179 6431   7.460   2.685   1.252  0.3187  0.0872 -0.4680
   16CHTO   O66 6432   7.473   2.788   1.423 -0.3307 -0.0456 -0.3450
   16CHTO  H166 6433   7.560   2.754   1.416 -1.4972 -2.9617 -1.1527
   16CHTO   C93 6434   7.288   2.629   1.386  0.3517  0.0581 -0.5737
   16CHTO  H180 6435   7.340   2.574   1.466  0.7647 -0.7950 -1.4114
   16CHTO   N16 6436   7.249   2.523   1.290 -0.3446 -0.4893 -0.0544
   16CHTO  H172 6437   7.173   2.567   1.227 -1.8634 -0.9416  1.4234
   16CHTO  H173 6438   7.333   2.481   1.236  0.3811  1.8202 -0.7625
   16CHTO   C94 6439   7.161   2.701   1.454 -0.7256  0.1020  0.2573
   16CHTO  H181 6440   7.081   2.713   1.381  0.9327  3.6026 -1.1160
   16CHTO   O61 6441   7.199   2.835   1.485 -0.8110 -0.7808  0.1848
   16CHTO   C95 6442   7.219   2.921   1.374 -0.3892 -0.4634 -0.1107
   16CHTO  H182 6443   7.123   2.939   1.325 -0.3474  1.2150  0.4215
   16CHTO  C106 6444   7.264   3.064   1.425  0.3967 -0.4962 -0.8349
   16CHTO   O69 6445   7.278   3.164   1.327 -0.4420 -0.0934 -0.1261
   16CHTO  H169 6446   7.258   3.248   1.364  0.8705  0.6470 -1.0841
   16CHTO   O63 6447   7.119   2.617   1.596  0.4772  0.6410  0.0652
   16CHTO   C96 6448   6.968   2.591   1.616  0.6436 -0.2225 -1.0214
   16CHTO  H183 6449   6.961   2.536   1.709 -0.3570  3.0239  0.9023
   16CHTO   C98 6450   6.907   2.513   1.499 -0.2620 -0.3303 -0.0495
   16CHTO  H185 6451   6.942   2.554   1.403 -1.0397 -0.5049 -0.4149
   16CHTO   O67 6452   6.962   2.376   1.505  0.1758  0.0729 -0.0940
   16CHTO  H167 6453   6.897   2.313   1.531 -1.4460  1.5199 -0.5174
   16CHTO  C102 6454   6.747   2.508   1.515  0.1820  0.4735  0.2975
   16CHTO  H189 6455   6.733   2.445   1.604  1.8938 -0.4651 -0.0644
   16CHTO   N18 6456   6.665   2.447   1.410 -0.1143  0.5139 -0.0351
   16CHTO  H176 6457   6.662   2.343   1.439  0.2645 -0.0086 -1.8477
   16CHTO  H177 6458   6.567   2.493   1.415 -1.1806 -1.5858 -0.7422
   16CHTO  C105 6459   6.690   2.651   1.558 -0.0323 -0.1306 -0.4959
   16CHTO  H192 6460   6.714   2.721   1.478  2.5260 -1.2510 -0.7747
   16CHTO   O65 6461   6.756   2.707   1.675  0.1496 -0.6201 -0.1092
   16CHTO  C100 6462   6.896   2.735   1.649 -0.0964  0.2467 -1.1892
   16CHTO  H187 6463   6.900   2.800   1.561 -4.6480 -1.5925 -2.8524
   16CHTO  C107 6464   6.950   2.813   1.771  0.3254  0.1201  0.3276
   16CHTO   O70 6465   6.907   2.949   1.777  0.0566 -0.0205 -0.3331
   16CHTO  H170 6466   6.989   2.992   1.791 -0.1149 -0.7462  3.1243
   16CHTO   O57 6467   6.524   2.633   1.585  0.7917  0.1761  0.0611
   16CHTO   C85 6468   6.426   2.719   1.521 -0.4202 -0.6944  0.0629
   16CHTO  H157 6469   6.466   2.730   1.418 -1.8174 -1.8958 -0.6108
   16CHTO   C83 6470   6.422   2.863   1.587  0.0283 -0.8320 -0.7496
   16CHTO  H155 6471   6.524   2.901   1.580 -0.1790  0.0742  0.8821
   16CHTO   O56 6472   6.387   2.849   1.730 -0.0687  0.5054  0.0242
   16CHTO  H135 6473   6.453   2.866   1.795  0.6684 -0.5218 -0.4472
   16CHTO   C81 6474   6.334   2.953   1.500  0.4692 -0.3149 -0.3032
   16CHTO  H153 6475   6.376   2.956   1.399  1.7448  0.1332  0.2317
   16CHTO   N14 6476   6.337   3.099   1.543 -0.0524  0.0471 -0.0153
   16CHTO  H141 6477   6.254   3.157   1.509  0.7536  1.6980  0.8104
   16CHTO  H142 6478   6.430   3.150   1.525 -1.0847  1.8862 -0.2526
   16CHTO   C79 6479   6.191   2.894   1.495  0.5067 -0.4143 -0.3277
   16CHTO  H151 6480   6.138   2.946   1.415  0.5246  1.3983  0.8088
   16CHTO   O52 6481   6.181   2.754   1.459 -0.3531 -0.0944  0.0884
   16CHTO   C86 6482   6.276   2.665   1.523  0.4918  0.0762 -0.0292
   16CHTO  H158 6483   6.238   2.655   1.627  0.9302  4.2771  0.6506
   16CHTO   C90 6484   6.260   2.524   1.461  0.1782  0.0865  1.3282
   16CHTO   O60 6485   6.127   2.483   1.485  0.1760  0.3335 -0.0546
   16CHTO  H138 6486   6.108   2.402   1.441  1.7292 -0.8837  1.4669
   16CHTO   O50 6487   6.122   2.919   1.621  0.1914 -0.2589  0.5304
   16CHTO   C73 6488   5.995   2.936   1.689  0.3808  0.6746 -0.6649
   16CHTO  H145 6489   5.957   2.843   1.735  0.5161  0.1528 -1.5770
   16CHTO   C74 6490   5.887   2.982   1.584  0.4124  0.2978 -0.0565
   16CHTO  H146 6491   5.903   2.911   1.501  1.8107 -0.7892  1.1071
   16CHTO   O54 6492   5.757   2.965   1.652  0.0980 -0.0788  0.1606
   16CHTO  H133 6493   5.712   2.889   1.620  0.9877  0.1886 -1.7500
   16CHTO   C75 6494   5.914   3.121   1.540 -0.6352 -0.8781  0.3162
   16CHTO  H147 6495   6.014   3.119   1.493 -0.6123 -0.0727  0.3215
   16CHTO   N13 6496   5.823   3.176   1.443  0.0473 -0.2946 -0.4813
   16CHTO  H139 6497   5.832   3.112   1.356  0.4842 -0.4647 -0.3100
   16CHTO  H140 6498   5.720   3.185   1.475 -0.1631  0.9706 -1.4843
   16CHTO   C76 6499   5.910   3.221   1.666  0.4242 -0.2134  0.2011
   16CHTO  H148 6500   5.819   3.210   1.724  0.8521 -2.1788  0.5116
   16CHTO   O49 6501   6.021   3.175   1.752  0.3558 -0.1701  0.2250
   16CHTO   C77 6502   6.009   3.044   1.799  0.0953 -0.5748 -0.0497
   16CHTO  H149 6503   5.922   3.042   1.864  1.3424 -1.2184  1.6179
   16CHTO   C88 6504   6.131   3.020   1.895 -0.2471 -0.1387 -0.2590
   16CHTO   O58 6505   6.132   2.897   1.950  0.3044  0.4762  0.6910
   16CHTO  H136 6506   6.045   2.870   1.973  0.8328 -0.7489  1.2763
   16CHTO   O51 6507   5.930   3.389   1.636 -0.2372 -0.7318  0.4769
   16CHTO   C78 6508   5.893   3.459   1.752  0.8548  0.7721  0.1593
   16CHTO  H150 6509   5.876   3.390   1.837  0.6709 -0.1388 -0.6008
   16CHTO   C80 6510   5.762   3.535   1.729  0.6215 -0.4833 -0.5267
   16CHTO  H152 6511   5.775   3.609   1.647  1.2170  1.8285  1.5650
   16CHTO   O55 6512   5.658   3.443   1.690 -0.4204 -0.3082  0.3360
   16CHTO  H134 6513   5.590   3.491   1.647  1.1433  1.0114 -0.7476
   16CHTO   C84 6514   5.724   3.612   1.858  0.9133  0.8671 -0.2608
   16CHTO  H156 6515   5.703   3.541   1.938  0.8769 -0.6880 -1.6363
   16CHTO   N15 6516   5.591   3.677   1.843  0.3182 -0.4955  0.1995
   16CHTO  H143 6517   5.511   3.615   1.809 -0.3194 -0.2466  1.2131
   16CHTO  H144 6518   5.563   3.709   1.941 -2.3704  0.2293 -0.7555
   16CHTO   C87 6519   5.841   3.706   1.911 -0.5064  0.1941 -0.0507
   16CHTO  H159 6520   5.848   3.787   1.839 -1.4574  0.2661 -0.0600
   16CHTO   O53 6521   5.980   3.610   1.916 -0.4464 -0.5063  0.6557
   16CHTO   C82 6522   6.012   3.549   1.783  0.6093 -0.2112 -0.9983
   16CHTO  H154 6523   6.027   3.629   1.710 -0.4710 -0.8653 -1.9418
   16CHTO   C89 6524   6.151   3.473   1.794 -0.0291 -0.6593 -0.3505
   16CHTO   O59 6525   6.182   3.399   1.673  0.2244  1.0809  0.1116
   16CHTO  H137 6526   6.202   3.462   1.607 -0.2945 -1.1294 -2.2330
   16CHTO   O45 6527   5.811   3.779   2.073  0.6331 -0.3665 -1.0945
   16CHTO   C67 6528   5.932   3.849   2.121 -0.0992 -0.2944 -0.1302
   16CHTO  H124 6529   6.020   3.801   2.081  0.0519  1.3642 -1.8956
   16CHTO   C65 6530   5.921   3.992   2.052 -0.5270  0.1529  0.3492
   16CHTO  H122 6531   5.813   4.008   2.056 -0.5821 -0.4024  1.1689
   16CHTO   O44 6532   5.962   3.987   1.917  0.6833 -0.2976 -0.0699
   16CHTO  H102 6533   5.913   3.923   1.868 -1.2781  0.6612  0.5971
   16CHTO   C63 6534   5.991   4.104   2.144 -0.4641 -0.1721  0.3830
   16CHTO  H120 6535   5.921   4.129   2.224 -0.2896 -0.7235  0.7049
   16CHTO   N11 6536   6.014   4.245   2.093  0.9610  0.5563 -0.1615
   16CHTO  H108 6537   6.098   4.239   2.026  1.4173  0.0284  0.4412
   16CHTO  H109 6538   5.931   4.284   2.038  1.8459  0.0816 -1.8801
   16CHTO   C61 6539   6.119   4.056   2.211 -0.2911 -0.7176 -0.2653
   16CHTO  H118 6540   6.159   4.138   2.273 -0.2748  0.4428 -1.7868
   16CHTO   O40 6541   6.085   3.954   2.302  0.0037 -0.6128 -0.4006
   16CHTO   C68 6542   5.960   3.871   2.279 -0.0622 -0.5693  0.3688
   16CHTO  H125 6543   5.879   3.931   2.326 -1.0599 -2.6561  1.3819
   16CHTO   C72 6544   5.978   3.743   2.362 -0.2047  0.4553  0.4806
   16CHTO   O48 6545   5.850   3.676   2.380  0.9357 -0.7244  0.3968
   16CHTO  H105 6546   5.806   3.718   2.451  0.6439 -0.9393  0.3427
   16CHTO   O38 6547   6.218   4.009   2.117  0.4071 -0.3474 -0.3346
   16CHTO   C55 6548   6.367   4.011   2.128  0.8415  0.1882  0.0058
   16CHTO  H112 6549   6.398   4.031   2.232  1.6875 -1.0518  0.0019
   16CHTO   C56 6550   6.421   4.115   2.024  0.0569 -0.1614 -0.2689
   16CHTO  H113 6551   6.386   4.079   1.926 -0.1993  0.8486 -0.5533
   16CHTO   O42 6552   6.360   4.240   2.054  0.6750 -0.3080  0.0392
   16CHTO  H100 6553   6.313   4.279   1.983 -0.4542 -0.7288  0.5538
   16CHTO   C57 6554   6.580   4.107   2.029 -0.3252  0.0705 -0.7298
   16CHTO  H114 6555   6.616   4.121   2.131 -1.3894  2.3042 -0.6333
   16CHTO   N10 6556   6.661   4.210   1.952  0.1383 -0.2260 -0.0246
   16CHTO  H106 6557   6.613   4.231   1.857  1.2686  1.2970 -0.2777
   16CHTO  H107 6558   6.761   4.171   1.940  0.7302  0.9919  0.8970
   16CHTO   C58 6559   6.615   3.966   1.978  0.0618 -0.0379  0.3139
   16CHTO  H115 6560   6.585   3.952   1.872  1.5564  2.8153 -0.5281
   16CHTO   O37 6561   6.562   3.862   2.064 -0.5480 -0.0509  0.2940
   16CHTO   C59 6562   6.423   3.868   2.095  0.5973 -0.0952 -0.3168
   16CHTO  H116 6563   6.373   3.831   2.005  0.2315  1.6905 -0.8550
   16CHTO   C70 6564   6.390   3.767   2.205  0.7706 -0.1008  0.4018
   16CHTO   O46 6565   6.433   3.799   2.338  0.6082 -0.3218 -1.2895
   16CHTO  H103 6566   6.511   3.848   2.320 -0.1076  1.2310 -0.2485
   16CHTO   O39 6567   6.766   3.934   1.979  0.3990 -0.1574  0.2850
   16CHTO   C60 6568   6.805   3.842   1.881 -0.5553 -0.3912  0.0897
   16CHTO  H117 6569   6.720   3.782   1.847 -1.2753  0.1979  0.8252
   16CHTO   C62 6570   6.881   3.911   1.765  0.1865 -0.1675  0.2791
   16CHTO  H119 6571   6.805   3.971   1.708  0.2174 -2.5309 -2.3562
   16CHTO   O43 6572   6.993   3.989   1.816  0.1141  0.3878  0.3363
   16CHTO  H101 6573   7.021   4.051   1.750  0.3228 -1.1459 -1.0581
   16CHTO   C66 6574   6.941   3.813   1.654 -0.2443  0.6800  0.1759
   16CHTO  H123 6575   6.860   3.754   1.613 -0.3237  0.7335  0.2558
   16CHTO   N12 6576   6.999   3.884   1.535 -0.0889  0.0952 -0.3828
   16CHTO  H110 6577   7.045   3.818   1.463  0.6426  0.1393  0.0470
   16CHTO  H111 6578   6.921   3.949   1.497 -2.4490 -2.3807  0.0791
   16CHTO   C69 6579   7.043   3.719   1.725 -0.2196  0.0505  0.4331
   16CHTO  H126 6580   7.132   3.774   1.763 -0.5962  1.0330 -0.0739
   16CHTO   O41 6581   6.959   3.638   1.847  0.0618 -0.0487 -0.0677
   16CHTO   C64 6582   6.904   3.740   1.952  0.2551 -0.2640  0.3249
   16CHTO  H121 6583   6.984   3.803   1.995 -0.3848  1.0567 -0.4074
   16CHTO   C71 6584   6.833   3.660   2.068  0.2766  0.5489  0.2925
   16CHTO   O47 6585   6.708   3.600   2.033  0.7430  0.3153  0.2471
   16CHTO  H104 6586   6.723   3.557   1.951 -0.7748 -4.2679  2.1962
   16CHTO   O34 6587   7.106   3.608   1.619 -0.1911 -0.0599 -0.1721
   16CHTO   C49 6588   7.210   3.518   1.610  0.2928  0.2098 -0.0959
   16CHTO   H91 6589   7.291   3.557   1.549  0.9855 -2.4655 -0.9311
   16CHTO   C47 6590   7.158   3.390   1.545  0.3469  0.0104  0.0742
   16CHTO   H89 6591   7.239   3.314   1.547  0.3047 -0.1585 -2.2850
   16CHTO   O33 6592   7.114   3.415   1.410 -0.0260 -0.3766  0.5646
   16CHTO   H70 6593   7.144   3.345   1.356 -1.5381 -0.6070 -0.0134
   16CHTO   C45 6594   7.039   3.326   1.642 -0.1379 -0.0035  0.0968
   16CHTO   H87 6595   6.964   3.405   1.658 -0.4684 -0.6509  1.7783
   16CHTO    N8 6596   6.967   3.214   1.579  0.8118  0.7012  0.3062
   16CHTO   H75 6597   6.864   3.213   1.610  0.5843 -0.6743 -0.4407
   16CHTO   H76 6598   6.967   3.232   1.473 -0.0972 -2.6175 -0.3366
   16CHTO   C43 6599   7.098   3.291   1.785  0.3724 -0.3460 -0.1550
   16CHTO   H85 6600   7.010   3.270   1.845 -1.4725  0.4362 -2.5194
   16CHTO   O29 6601   7.179   3.398   1.841  0.0602 -0.2409 -0.4239
   16CHTO   C50 6602   7.264   3.472   1.751  0.1373  0.4762 -0.2549
   16CHTO   H92 6603   7.307   3.553   1.811 -0.6301  0.5853  0.1609
   16CHTO   C54 6604   7.399   3.400   1.731 -0.1615  0.2175  0.1960
   16CHTO   O36 6605   7.472   3.389   1.853  0.2452  0.3520 -0.7497
   16CHTO   H72 6606   7.422   3.424   1.925  2.2720 -2.5358  2.1936
   16CHTO   O27 6607   7.183   3.171   1.787 -0.4260 -0.3632 -0.2295
   16CHTO   C37 6608   7.247   3.105   1.901 -0.6034  0.1001 -0.0712
   16CHTO   H79 6609   7.316   3.175   1.950 -1.1408  1.7163 -1.5795
   16CHTO   C38 6610   7.128   3.069   2.005  0.2889 -0.4495  0.0773
   16CHTO   H80 6611   7.039   3.044   1.946  0.8771  0.6684 -1.3454
   16CHTO   O31 6612   7.104   3.186   2.080  0.4151  0.0607  0.5955
   16CHTO   H68 6613   7.173   3.250   2.086 -1.3626  2.2501 -1.2799
   16CHTO   C39 6614   7.163   2.950   2.103 -0.4106  0.4113  0.4311
   16CHTO   H81 6615   7.234   2.984   2.178  0.6243 -0.8006  0.0279
   16CHTO    N7 6616   7.046   2.897   2.184  0.3528 -0.3161 -0.9790
   16CHTO   H73 6617   7.004   2.813   2.131  0.9843 -3.4706  3.2717
   16CHTO   H74 6618   6.970   2.974   2.183 -0.7667 -1.4011 -0.8090
   16CHTO   C40 6619   7.241   2.837   2.022  0.2598 -0.9271 -0.0814
   16CHTO   H82 6620   7.180   2.776   1.955  0.2903  0.6604 -1.5782
   16CHTO   O26 6621   7.355   2.900   1.953  0.2593  0.2751 -0.1538
   16CHTO   C41 6622   7.314   2.981   1.846 -0.4725 -0.4795  0.0192
   16CHTO   H83 6623   7.248   2.928   1.775  0.0346  0.3154 -1.0744
   16CHTO   C52 6624   7.437   3.005   1.750  0.4993 -0.3296 -0.1214
   16CHTO   O35 6625   7.569   3.068   1.808 -0.2526  0.4135 -0.3152
   16CHTO   H71 6626   7.609   3.134   1.755  0.3806 -0.5722 -1.0844
   16CHTO   O28 6627   7.297   2.744   2.118 -0.0331  0.7881 -0.2757
   16CHTO   C42 6628   7.308   2.595   2.094  0.3314 -0.5994 -0.2826
   16CHTO   H84 6629   7.391   2.567   2.158  0.8320 -2.0112 -1.5510
   16CHTO   C44 6630   7.346   2.555   1.953 -0.1764 -0.4492  0.7854
   16CHTO   H86 6631   7.278   2.605   1.884 -0.8250  0.0303  1.7662
   16CHTO   O32 6632   7.479   2.592   1.915 -0.3446  0.2022 -0.1397
   16CHTO   H69 6633   7.497   2.683   1.904 -0.9754  0.3116 -0.2891
   16CHTO   C48 6634   7.320   2.402   1.928  1.4726 -0.0244 -0.2486
   16CHTO   H90 6635   7.400   2.357   1.986  2.6912  0.2363 -1.6934
   16CHTO    N9 6636   7.334   2.350   1.787 -0.8432  0.0002 -0.4493
   16CHTO   H77 6637   7.433   2.383   1.758 -0.8354  0.2063 -0.1954
   16CHTO   H78 6638   7.266   2.399   1.719 -1.7548  0.1920  0.5927
   16CHTO   C51 6639   7.185   2.351   1.989 -0.7136  0.1917 -0.3293
   16CHTO   H93 6640   7.096   2.389   1.939  0.6363  2.9649 -0.7659
   16CHTO   O30 6641   7.183   2.386   2.125  0.4499 -1.1919 -0.3699
   16CHTO   C46 6642   7.184   2.526   2.158 -0.3118  0.4172  0.1019
   16CHTO   H88 6643   7.094   2.579   2.126 -0.4297 -0.5638 -1.2329
   16CHTO   C53 6644   7.193   2.533   2.310  0.1369 -0.2531  0.2022
   16CHTO   O72 6645   7.205   2.664   2.362 -0.2471  0.2952  0.4589
   16CHTO  H199 6646   7.122   2.693   2.393 -0.1045  0.0818  1.0509
   16CHTO   O22 6647   7.183   2.209   1.999  0.1033  0.1617 -0.4294
   16CHTO   C31 6648   7.051   2.139   2.020 -0.1960 -0.0178 -0.1110
   16CHTO   H59 6649   7.076   2.032   2.003  2.0916  0.6361 -1.1496
   16CHTO   C29 6650   6.997   2.155   2.163 -0.1976  0.4634  0.6496
   16CHTO   H57 6651   6.975   2.260   2.187  2.0107  1.1986 -0.3918
   16CHTO   O21 6652   7.102   2.122   2.256 -0.5134  0.1123 -0.0205
   16CHTO   H37 6653   7.082   2.127   2.348  0.3933 -0.8306  0.2379
   16CHTO   C27 6654   6.873   2.065   2.182  0.3771  0.3433 -0.2568
   16CHTO   H55 6655   6.911   1.963   2.166  1.7021  0.7013  0.4853
   16CHTO    N5 6656   6.808   2.077   2.318 -0.7929 -0.1933 -0.2665
   16CHTO   H43 6657   6.879   2.070   2.400  1.0644  1.8382 -1.6484
   16CHTO   H44 6658   6.736   1.997   2.320  1.8279 -2.7032 -2.3419
   16CHTO   C25 6659   6.767   2.090   2.071 -0.3089  0.2208 -0.2365
   16CHTO   H53 6660   6.727   2.192   2.080  2.5037  1.1981  2.0700
   16CHTO   O17 6661   6.823   2.095   1.939  0.2935  0.0512  0.3414
   16CHTO   C32 6662   6.938   2.176   1.915 -0.4861 -0.2815 -0.0798
   16CHTO   H60 6663   6.913   2.282   1.921  0.0954 -0.1011 -0.7749
   16CHTO   C36 6664   6.979   2.133   1.773  0.1525  0.1123 -0.1410
   16CHTO   O25 6665   6.885   2.128   1.664 -0.0981  0.0669  0.2546
   16CHTO   H40 6666   6.846   2.042   1.658  0.2051 -0.2081  1.8284
   16CHTO   O15 6667   6.657   1.978   2.053  0.6850 -0.0387  0.5701
   16CHTO   C19 6668   6.536   1.930   2.111 -0.7121  0.2037  0.5976
   16CHTO   H47 6669   6.567   1.954   2.214  2.1918 -1.7272  0.2285
   16CHTO   C20 6670   6.403   2.011   2.069 -0.8473 -0.2820  0.3523
   16CHTO   H48 6671   6.393   2.007   1.959 -0.3109  0.9775  0.2454
   16CHTO   O19 6672   6.433   2.148   2.107  0.2214 -0.2271 -0.6503
   16CHTO   H35 6673   6.395   2.168   2.191 -0.8297  0.7684 -1.3506
   16CHTO   C21 6674   6.270   1.964   2.141  0.3570  0.6361  0.1693
   16CHTO   H49 6675   6.279   1.978   2.249 -1.5476  0.1417  0.4111
   16CHTO    N4 6676   6.156   2.052   2.102 -0.0599  0.2976  0.4994
   16CHTO   H41 6677   6.175   2.118   2.018  0.6656  0.6997  0.9771
   16CHTO   H42 6678   6.118   2.113   2.182 -2.0547 -1.6282  1.0465
   16CHTO   C22 6679   6.274   1.813   2.121  0.1347  0.1211  0.0619
   16CHTO   H50 6680   6.262   1.801   2.013 -1.3905 -0.1128  0.2430
   16CHTO   O14 6681   6.393   1.755   2.171 -0.4402 -0.5395 -0.1870
   16CHTO   C23 6682   6.510   1.781   2.096 -0.3871  0.4235  0.0353
   16CHTO   H51 6683   6.505   1.748   1.992 -1.9896 -1.4764  0.7080
   16CHTO   C34 6684   6.634   1.709   2.147  0.2363  0.2209 -0.5522
   16CHTO   O23 6685   6.627   1.577   2.192 -0.0220 -0.4401 -0.1929
   16CHTO   H38 6686   6.716   1.548   2.187 -0.0283 -0.8530  1.5781
   16CHTO   O16 6687   6.169   1.745   2.196 -0.2978  0.0168 -0.0689
   16CHTO   C24 6688   6.076   1.641   2.106 -0.3990 -0.5327 -0.1328
   16CHTO   H52 6689   6.128   1.614   2.014 -0.9355 -1.3645 -0.1986
   16CHTO   C26 6690   5.936   1.715   2.067  0.0906 -0.2123  0.2902
   16CHTO   H54 6691   5.904   1.779   2.152 -0.4758  0.0745 -0.1312
   16CHTO   O20 6692   5.969   1.815   1.965  0.4652  0.0264 -0.2417
   16CHTO   H36 6693   5.990   1.777   1.882 -1.8267  0.8121 -1.2368
   16CHTO   C30 6694   5.822   1.612   2.041  0.5901  0.1455  1.0192
   16CHTO   H58 6695   5.837   1.567   1.941 -0.9062  2.8677 -0.5085
   16CHTO    N6 6696   5.688   1.677   2.038 -0.5530 -0.5596  0.4245
   16CHTO   H45 6697   5.692   1.759   1.968 -0.8043  0.3446  1.4418
   16CHTO   H46 6698   5.613   1.607   2.004  2.1320 -0.8397 -5.4681
   16CHTO   C33 6699   5.830   1.497   2.147  0.6141 -0.4997  0.0155
   16CHTO   H61 6700   5.823   1.534   2.250 -0.0410  0.2625 -0.2985
   16CHTO   O18 6701   5.959   1.439   2.132 -0.5228 -0.2082 -0.5227
   16CHTO   C28 6702   6.066   1.514   2.183  0.0920  0.0716 -0.5770
   16CHTO   H56 6703   6.054   1.543   2.287  2.5256 -2.4762  0.4439
   16CHTO   C35 6704   6.193   1.420   2.164  0.0978  0.4236 -0.3593
   16CHTO   O24 6705   6.319   1.489   2.189 -0.0241 -0.1848 -0.3125
   16CHTO   H39 6706   6.355   1.459   2.271 -1.6250 -2.0241 -0.2745
   16CHTO    O9 6707   5.724   1.400   2.134  0.5797  0.3041  0.2358
   16CHTO   C13 6708   5.741   1.256   2.213  0.1278  0.5086 -0.3987
   16CHTO   H26 6709   5.848   1.242   2.240 -0.4629  0.6368  2.1334
   16CHTO   C11 6710   5.685   1.147   2.112  0.4199  0.4434  0.1349
   16CHTO   H24 6711   5.743   1.139   2.020  0.9809  1.1443  0.4183
   16CHTO    O8 6712   5.546   1.172   2.074  0.4266  0.0961 -0.2233
   16CHTO    H3 6713   5.490   1.201   2.144  0.1488 -0.8108 -0.0676
   16CHTO    C9 6714   5.710   1.012   2.184 -0.1651 -0.0273  0.1454
   16CHTO   H22 6715   5.814   1.016   2.218 -1.1062  0.8040  3.0712
   16CHTO    N2 6716   5.694   0.893   2.088  0.0687 -0.5847  0.1296
   16CHTO   H10 6717   5.591   0.880   2.057 -0.1634  2.7421 -0.7722
   16CHTO   H11 6718   5.732   0.797   2.119 -2.0165 -1.1692  1.0122
   16CHTO    C7 6719   5.638   0.999   2.323  0.4403 -1.0653 -0.7225
   16CHTO   H20 6720   5.717   0.963   2.393  0.4578  1.7564  0.7677
   16CHTO    O4 6721   5.584   1.128   2.369  0.2616  0.4759  0.0669
   16CHTO   C14 6722   5.669   1.245   2.355  0.5796 -0.0832  0.1826
   16CHTO   H27 6723   5.749   1.241   2.432  0.8703  1.7820  0.0021
   16CHTO   C18 6724   5.585   1.361   2.397 -0.0452  0.3609 -0.0765
   16CHTO   O13 6725   5.655   1.483   2.416 -0.5049  0.2241 -0.6107
   16CHTO    H7 6726   5.607   1.531   2.480 -3.6672 -0.4894 -2.3237
   16CHTO    O2 6727   5.507   0.889   2.307 -0.2641  0.6610 -0.4497
   16CHTO    C1 6728   5.437   0.844   2.430 -0.1489  0.5217  0.3944
   16CHTO   H14 6729   5.345   0.789   2.401  0.5391  0.3303 -1.4744
   16CHTO    C2 6730   5.395   0.959   2.526 -0.3794 -0.6347 -0.3953
   16CHTO   H15 6731   5.493   1.004   2.550  0.2819 -1.8262 -0.8042
   16CHTO    O6 6732   5.310   1.051   2.457 -0.7427  0.1238 -0.1478
   16CHTO    H1 6733   5.293   1.118   2.521 -0.1663  0.3518 -0.2336
   16CHTO    C3 6734   5.321   0.899   2.648  0.1001  0.3111  0.3949
   16CHTO   H16 6735   5.226   0.852   2.620  0.2064 -1.3745  2.7508
   16CHTO    N1 6736   5.293   1.000   2.763  0.2170 -0.1647  0.3148
   16CHTO    H8 6737   5.221   0.960   2.832  0.7662 -0.1028  0.9292
   16CHTO    H9 6738   5.264   1.092   2.715 -1.1281 -0.7963 -0.1112
   16CHTO    C4 6739   5.415   0.786   2.701 -0.2035  0.6072  0.3779
   16CHTO   H17 6740   5.503   0.834   2.745  1.8684 -1.0435 -1.7650
   16CHTO    O1 6741   5.451   0.688   2.604  0.9670  0.2760  0.5155
   16CHTO    C5 6742   5.531   0.744   2.499 -0.4851  0.0023 -0.1123
   16CHTO   H18 6743   5.608   0.808   2.543 -0.0589 -1.2900  1.0426
   16CHTO   C16 6744   5.600   0.636   2.406  0.5445  0.2580 -0.5331
   16CHTO   O11 6745   5.685   0.546   2.481  0.6727  0.0692 -0.2227
   16CHTO    H5 6746   5.726   0.485   2.423 -0.7465 -0.9586 -0.1747
   16CHTO    O3 6747   5.348   0.706   2.801  0.6609  0.4942 -0.0400
   16CHTO    C6 6748   5.410   0.675   2.932 -0.8693 -0.1050  0.6796
   16CHTO   H19 6749   5.502   0.730   2.954  0.4160 -1.4397 -1.1812
   16CHTO    C8 6750   5.313   0.705   3.049 -0.1744  0.5410 -0.3313
   16CHTO   H21 6751   5.220   0.652   3.026 -1.0399  2.2403 -0.7779
   16CHTO    O7 6752   5.289   0.843   3.046 -0.3531  0.0430  0.0691
   16CHTO    H2 6753   5.213   0.863   3.097 -1.1266 -1.3493 -0.4950
   16CHTO   C12 6754   5.367   0.646   3.183  0.7875 -0.6990 -1.2532
   16CHTO   H25 6755   5.456   0.710   3.200  0.7341  0.0358 -3.6091
   16CHTO    N3 6756   5.272   0.660   3.297 -0.8123  0.6643 -0.1937
   16CHTO   H12 6757   5.236   0.761   3.295 -1.8442  0.3053 -0.0111
   16CHTO   H13 6758   5.336   0.638   3.381 -1.6497 -2.2508 -0.2501
   16CHTO   C15 6759   5.421   0.500   3.168 -0.7853 -0.3061 -0.0444
   16CHTO   H28 6760   5.345   0.422   3.157  0.8952 -1.7780 -1.4306
   16CHTO   O10 6761   5.505   0.458   3.278  0.1256 -0.2084 -0.2830
   16CHTO    H4 6762   5.468   0.378   3.310 -1.4728  0.3244 -0.7522
   16CHTO    O5 6763   5.517   0.500   3.060  0.2222 -0.2254  0.5487
   16CHTO   C10 6764   5.452   0.519   2.930 -0.9243  0.2935 -0.1546
   16CHTO   H23 6765   5.358   0.466   2.920  0.6580 -2.7553  0.3764
   16CHTO   C17 6766   5.550   0.480   2.816 -0.5051  0.4510 -0.0168
   16CHTO   O12 6767   5.663   0.573   2.811 -0.1056 -0.1035 -0.7668
   16CHTO    H6 6768   5.721   0.549   2.741  0.7040 -0.1775 -0.0877
   17CHTO  H203 6769   5.787   4.029   0.234 -0.5405 -4.4299 -0.5736
   17CHTO   O82 6770   5.816   4.007   0.320  0.4424 -0.8145  0.1021
   17CHTO  C123 6771   5.825   4.131   0.393  0.6007 -0.2696  0.1342
   17CHTO  H227 6772   5.893   4.119   0.479  3.2749  2.1777 -1.5193
   17CHTO   O77 6773   5.902   4.223   0.306 -0.3767  0.0170  0.5789
   17CHTO  C118 6774   5.913   4.361   0.348 -0.0039  0.1576 -0.1288
   17CHTO  H222 6775   5.968   4.360   0.443  0.6964  2.4347 -0.4694
   17CHTO  C125 6776   6.004   4.442   0.235 -0.3376 -0.2746 -0.0981
   17CHTO   O84 6777   5.938   4.477   0.113  0.3925 -0.1561  0.2779
   17CHTO  H205 6778   5.877   4.410   0.088 -0.3726  0.4797  0.4237
   17CHTO  C114 6779   5.780   4.436   0.379 -0.5735 -0.3734  0.6526
   17CHTO  H218 6780   5.725   4.457   0.287 -0.6406  1.2813  1.0558
   17CHTO  C116 6781   5.696   4.344   0.465  1.2602  0.3546  0.8127
   17CHTO  H220 6782   5.734   4.359   0.569 -0.5791  1.2102  1.3844
   17CHTO   O79 6783   5.569   4.403   0.456  0.3992 -0.0388 -0.1668
   17CHTO  H201 6784   5.536   4.437   0.536 -0.5507  1.4075 -1.1403
   17CHTO  C120 6785   5.686   4.191   0.429  0.6753 -0.1238  0.2801
   17CHTO  H224 6786   5.623   4.177   0.339 -0.1791 -0.7386  0.9698
   17CHTO   N21 6787   5.623   4.113   0.540  0.1521 -0.1992 -0.1035
   17CHTO  H211 6788   5.540   4.163   0.586  0.7339 -1.6399  2.5997
   17CHTO  H212 6789   5.699   4.081   0.609 -0.0015  0.6672  0.4691
   17CHTO   O75 6790   5.819   4.564   0.431 -0.2824  0.0216  0.4187
   17CHTO  C112 6791   5.816   4.707   0.345  0.2602  0.1049 -0.3337
   17CHTO  H216 6792   5.785   4.685   0.242 -2.4443 -0.4033  0.5548
   17CHTO   O73 6793   5.950   4.758   0.349 -0.4626 -0.0008  0.1392
   17CHTO  C113 6794   5.962   4.854   0.245  0.1483 -0.5771  0.1343
   17CHTO  H217 6795   5.912   4.808   0.158  0.4344 -1.1105  0.2481
   17CHTO  C124 6796   6.114   4.862   0.220  0.2531  0.0250  0.7128
   17CHTO   O83 6797   6.165   4.736   0.181 -0.5013  0.4714  0.6730
   17CHTO  H204 6798   6.251   4.738   0.145 -0.8196 -0.4861 -0.1679
   17CHTO  C109 6799   5.901   4.983   0.293 -0.5855 -0.4183 -0.0340
   17CHTO  H213 6800   5.955   5.009   0.386 -0.6138 -0.9895  0.1412
   17CHTO  C110 6801   5.749   4.964   0.322 -0.4219  0.9317  0.2809
   17CHTO  H214 6802   5.706   4.963   0.222  0.2860  0.7213 -0.0264
   17CHTO   O78 6803   5.703   5.078   0.390 -0.2382  0.6810  0.0148
   17CHTO  H200 6804   5.753   5.152   0.364 -0.4508 -0.4666 -3.9865
   17CHTO  C111 6805   5.725   4.828   0.407  0.3501 -0.3145  0.5416
   17CHTO  H215 6806   5.752   4.852   0.510  1.9290 -1.1719  0.3402
   17CHTO   N19 6807   5.584   4.779   0.407 -0.0368 -0.3892  0.8188
   17CHTO  H207 6808   5.510   4.845   0.449 -0.0014  0.3342 -0.2439
   17CHTO  H208 6809   5.556   4.745   0.309  2.5336  0.8140 -0.3940
   17CHTO   O74 6810   5.925   5.085   0.195 -0.0402 -0.2442  0.6210
   17CHTO  C115 6811   5.956   5.250   0.272 -0.2290 -0.5625  0.1980
   17CHTO  H219 6812   5.906   5.260   0.368  0.0773 -2.3459  0.5557
   17CHTO   O76 6813   6.108   5.266   0.308 -0.2568  0.1280  0.2256
   17CHTO  C122 6814   6.195   5.318   0.204 -0.4947 -0.0053 -1.1107
   17CHTO  H226 6815   6.222   5.242   0.131  0.5109  1.1026 -1.8929
   17CHTO  C126 6816   6.325   5.367   0.268  0.5201 -0.2421  0.1881
   17CHTO   O85 6817   6.425   5.376   0.162  0.0392  0.4300  0.3096
   17CHTO  H206 6818   6.486   5.447   0.174  0.4897  0.1287 -0.2192
   17CHTO  C121 6819   6.131   5.445   0.121  0.2183  0.1305  0.3468
   17CHTO  H225 6820   6.193   5.534   0.148 -0.4664  0.7347 -0.0548
   17CHTO   O81 6821   6.147   5.418  -0.017  0.1310 -0.8463  0.2759
   17CHTO  H202 6822   6.117   5.488  -0.072 -2.4073 -0.7794  1.6675
   17CHTO  C119 6823   5.985   5.475   0.156  0.8701 -0.2079 -0.1657
   17CHTO  H223 6824   5.990   5.511   0.259 -0.3119 -1.3438  0.2946
   17CHTO  C117 6825   5.893   5.351   0.169  0.2452  0.5431  0.0863
   17CHTO  H221 6826   5.891   5.307   0.069  0.2705 -0.0862  0.3633
   17CHTO   N20 6827   5.751   5.397   0.209  0.5435  0.2452 -0.5615
   17CHTO  H209 6828   5.748   5.448   0.304 -0.2502 -2.6265  1.0321
   17CHTO  H210 6829   5.698   5.460   0.139 -0.2646  0.6158  0.3614
   17CHTO   O80 6830   5.921   5.602   0.074 -0.7634 -0.2473  0.3779
   17CHTO  C103 6831   5.984   5.721   0.079  0.0460  0.0517  0.2510
   17CHTO  H190 6832   6.072   5.714   0.142 -0.2005 -1.2820  0.4590
   17CHTO  C101 6833   6.022   5.781  -0.062  0.3957  0.4735 -0.2219
   17CHTO  H188 6834   5.934   5.783  -0.127  0.7401  1.7717 -0.6633
   17CHTO   O68 6835   6.138   5.693  -0.138  0.3840  0.3549 -0.0692
   17CHTO  H168 6836   6.225   5.718  -0.112  0.3014 -0.0226  0.5585
   17CHTO   C99 6837   6.080   5.931  -0.044  0.0753 -0.1508  0.1509
   17CHTO  H186 6838   6.179   5.923   0.006  1.8392  1.9864 -2.8029
   17CHTO   N17 6839   6.105   6.004  -0.168  0.1353 -0.7635 -0.0297
   17CHTO  H174 6840   6.180   5.946  -0.220 -0.1116 -1.1441  0.0338
   17CHTO  H175 6841   6.132   6.106  -0.147 -1.9813 -0.8786  3.5865
   17CHTO   C97 6842   5.986   6.013   0.057  0.2793 -0.6893  0.5619
   17CHTO  H184 6843   5.899   6.046  -0.002  0.4118 -1.5090 -0.0942
   17CHTO   O64 6844   5.954   5.940   0.180 -0.0161  0.0099 -0.3127
   17CHTO  C104 6845   5.881   5.821   0.156  0.8764  0.0499 -0.0064
   17CHTO  H191 6846   5.797   5.844   0.091  0.7844  0.1955  0.1625
   17CHTO  C108 6847   5.821   5.780   0.291  0.3343 -0.1416  0.5583
   17CHTO   O71 6848   5.700   5.846   0.332 -0.1147  1.0522 -0.5597
   17CHTO  H171 6849   5.726   5.916   0.389 -1.0577  1.6922 -0.8954
   17CHTO   O62 6850   6.064   6.129   0.100  0.9861  0.1841 -0.1727
   17CHTO   C91 6851   5.988   6.231   0.162 -0.5013 -0.1056  0.1668
   17CHTO  H178 6852   5.889   6.243   0.117 -0.4561  0.0311  0.1046
   17CHTO   C92 6853   6.055   6.362   0.102 -0.4123 -0.4105  0.7097
   17CHTO  H179 6854   6.048   6.365  -0.008  1.8451  0.3142  0.5691
   17CHTO   O66 6855   5.973   6.482   0.131 -0.5411 -0.2460  0.1831
   17CHTO  H166 6856   5.904   6.499   0.070  1.5656 -0.5842 -2.3662
   17CHTO   C93 6857   6.194   6.404   0.156 -0.0433 -0.7913  0.6504
   17CHTO  H180 6858   6.200   6.513   0.166  2.4723 -1.1288  3.7271
   17CHTO   N16 6859   6.316   6.359   0.077  0.7829  0.6738 -0.0357
   17CHTO  H172 6860   6.303   6.393  -0.025  3.2016  0.6146 -0.3782
   17CHTO  H173 6861   6.404   6.411   0.113  1.4647 -0.4827 -0.0230
   17CHTO   C94 6862   6.205   6.347   0.301 -0.0009 -0.2095  0.2439
   17CHTO  H181 6863   6.253   6.250   0.304 -0.1332 -0.2745  0.2619
   17CHTO   O61 6864   6.074   6.335   0.367  0.0340 -0.5980  0.5721
   17CHTO   C95 6865   5.980   6.236   0.313 -0.5626 -0.0126 -0.1443
   17CHTO  H182 6866   6.011   6.138   0.350  1.0665 -0.0307 -1.5152
   17CHTO  C106 6867   5.842   6.251   0.384  0.4292  0.0046 -0.0065
   17CHTO   O69 6868   5.742   6.153   0.334 -0.0653  0.2834  0.2634
   17CHTO  H169 6869   5.676   6.144   0.401  0.8084  1.0016  1.2486
   17CHTO   O63 6870   6.298   6.457   0.382  0.1507 -0.7334 -0.1268
   17CHTO   C96 6871   6.235   6.547   0.498  0.3677 -0.3693  0.0933
   17CHTO  H183 6872   6.210   6.480   0.580 -1.1557 -0.5899 -0.5408
   17CHTO   C98 6873   6.117   6.639   0.449  0.1595 -0.2260 -0.4519
   17CHTO  H185 6874   6.125   6.659   0.341 -0.7374 -1.2397 -0.7142
   17CHTO   O67 6875   5.986   6.581   0.472 -0.1963 -0.1020 -0.2839
   17CHTO  H167 6876   5.975   6.493   0.442 -1.0641  0.1386 -0.6646
   17CHTO  C102 6877   6.113   6.784   0.528  0.1237  0.1348  0.1752
   17CHTO  H189 6878   6.050   6.769   0.618  0.7176  1.7105  0.8710
   17CHTO   N18 6879   6.053   6.897   0.454  0.2181 -0.3820  0.3535
   17CHTO  H176 6880   6.075   6.897   0.348 -0.6960  1.1004  0.1486
   17CHTO  H177 6881   5.945   6.891   0.459  0.1970  0.0052  0.3558
   17CHTO  C105 6882   6.252   6.825   0.584 -0.7685 -0.4693 -0.0187
   17CHTO  H192 6883   6.312   6.866   0.502 -4.0196  1.2983 -1.6377
   17CHTO   O65 6884   6.323   6.725   0.643  0.4514  0.1868 -0.3829
   17CHTO  C100 6885   6.355   6.616   0.555 -0.3989 -0.1954  0.6318
   17CHTO  H187 6886   6.413   6.657   0.472 -0.1293 -2.8831 -0.5808
   17CHTO  C107 6887   6.451   6.523   0.629 -0.1760  0.2135 -0.7413
   17CHTO   O70 6888   6.428   6.482   0.763 -0.6278  0.2769 -0.2092
   17CHTO  H170 6889   6.377   6.404   0.776 -0.5731  0.3807  0.6353
   17CHTO   O57 6890   6.227   6.945   0.701  0.5265 -0.4802 -0.3270
   17CHTO   C85 6891   6.328   7.020   0.763  0.4910 -0.1202  0.5374
   17CHTO  H157 6892   6.394   7.054   0.679 -0.5283 -0.6242 -0.4740
   17CHTO   C83 6893   6.409   6.924   0.860  0.3049  0.4829 -0.3068
   17CHTO  H155 6894   6.461   6.851   0.798 -0.8420 -0.3991 -0.2302
   17CHTO   O56 6895   6.325   6.844   0.947 -0.4451  0.1973 -0.4282
   17CHTO  H135 6896   6.244   6.816   0.909 -1.3343  2.4343 -0.2632
   17CHTO   C81 6897   6.519   7.010   0.936  0.0739 -0.0542  0.4403
   17CHTO  H153 6898   6.581   7.050   0.857  0.9494  0.8629  1.5764
   17CHTO   N14 6899   6.612   6.933   1.014 -0.5456 -0.2109  0.1355
   17CHTO  H141 6900   6.711   6.959   0.983 -1.0475  2.1453  0.3915
   17CHTO  H142 6901   6.598   6.827   1.011  1.5491 -0.5594  1.6428
   17CHTO   C79 6902   6.446   7.131   1.002  0.0554  0.6680  0.0876
   17CHTO  H151 6903   6.522   7.197   1.044 -0.6110  1.6391 -0.2219
   17CHTO   O52 6904   6.376   7.219   0.904 -0.3452  0.0540  0.4521
   17CHTO   C86 6905   6.279   7.139   0.841 -0.3580 -0.2927  0.2844
   17CHTO  H158 6906   6.213   7.100   0.921  0.3836  1.5583  1.8405
   17CHTO   C90 6907   6.180   7.220   0.741  0.0960  0.1907 -0.7579
   17CHTO   O60 6908   6.094   7.317   0.798 -0.7960 -0.1347 -0.4464
   17CHTO  H138 6909   6.008   7.280   0.794 -0.2881 -1.1336 -2.3897
   17CHTO   O50 6910   6.365   7.093   1.116 -0.1367 -0.0978  0.7012
   17CHTO   C73 6911   6.343   7.116   1.257  0.2566 -0.0740 -0.3794
   17CHTO  H145 6912   6.355   7.220   1.292  1.4766 -0.3983  0.1901
   17CHTO   C74 6913   6.440   7.026   1.346 -0.0543 -0.2566  0.4549
   17CHTO  H146 6914   6.545   7.052   1.326 -0.2406  0.4310  0.3753
   17CHTO   O54 6915   6.415   7.058   1.482  0.1059  0.1477 -0.1359
   17CHTO  H133 6916   6.489   7.062   1.540 -0.4203  1.7458  0.4562
   17CHTO   C75 6917   6.418   6.871   1.324  1.1522 -0.2130  0.3019
   17CHTO  H147 6918   6.437   6.851   1.218 -0.0982  1.1245 -0.2018
   17CHTO   N13 6919   6.495   6.782   1.411 -0.0325  0.4386  0.0586
   17CHTO  H139 6920   6.602   6.793   1.396  0.0289  0.7059  0.6646
   17CHTO  H140 6921   6.468   6.678   1.418 -2.7974  1.2414  2.1607
   17CHTO   C76 6922   6.261   6.843   1.338 -0.1000  0.1592  0.0371
   17CHTO  H148 6923   6.228   6.856   1.441  1.8201 -1.3117  0.8668
   17CHTO   O49 6924   6.182   6.928   1.252 -0.5625  0.0454  0.1482
   17CHTO   C77 6925   6.200   7.061   1.292  0.1462  0.1870  0.4515
   17CHTO  H149 6926   6.168   7.086   1.393 -1.5424  0.9584 -0.2535
   17CHTO   C88 6927   6.090   7.130   1.214  1.1670 -0.3229 -0.6720
   17CHTO   O58 6928   5.938   7.073   1.259  0.4685  0.0353  0.7168
   17CHTO  H136 6929   5.882   7.097   1.188  1.3459  3.6584  1.1518
   17CHTO   O51 6930   6.228   6.715   1.284 -0.1079 -0.0327 -0.4381
   17CHTO   C78 6931   6.099   6.636   1.340  1.3120  0.3589  0.3323
   17CHTO  H150 6932   6.019   6.706   1.372 -0.7410 -1.7789 -0.0495
   17CHTO   C80 6933   6.130   6.546   1.458  0.1021 -0.1080  0.0353
   17CHTO  H152 6934   6.214   6.478   1.432  0.7064  0.4281  0.5605
   17CHTO   O55 6935   6.183   6.633   1.560 -0.4321 -0.3421  0.4379
   17CHTO  H134 6936   6.206   6.584   1.638  2.4405 -2.5582 -1.6694
   17CHTO   C84 6937   6.005   6.466   1.505  0.1603  0.2272 -0.0818
   17CHTO  H156 6938   5.933   6.541   1.540  1.9111  0.6682  2.6863
   17CHTO   N15 6939   6.037   6.374   1.614 -0.2434  0.3159 -0.7644
   17CHTO  H143 6940   6.139   6.347   1.596  0.4493  2.1089  0.4200
   17CHTO  H144 6941   5.978   6.285   1.626 -0.2167  0.1589 -1.7481
   17CHTO   C87 6942   5.942   6.392   1.381 -0.1782  0.1222 -0.0550
   17CHTO  H159 6943   6.009   6.321   1.330 -0.9484 -1.6084  1.2840
   17CHTO   O53 6944   5.914   6.491   1.289 -0.1492 -0.5361  0.3436
   17CHTO   C82 6945   6.028   6.557   1.224 -0.2397  0.4589 -0.1547
   17CHTO  H154 6946   6.100   6.492   1.175 -0.4257 -0.7458  1.1376
   17CHTO   C89 6947   5.979   6.661   1.111 -0.0160  0.4875 -0.2501
   17CHTO   O59 6948   5.855   6.616   1.048 -0.3747 -0.6586 -0.0916
   17CHTO  H137 6949   5.819   6.694   1.011 -0.0742  1.2220  3.3444
   17CHTO   O45 6950   5.792   6.314   1.417 -0.1511  0.1241  0.3943
   17CHTO   C67 6951   5.816   6.169   1.410 -0.8265 -0.4176 -0.8392
   17CHTO  H124 6952   5.922   6.145   1.419 -0.9268  0.1129  1.9696
   17CHTO   C65 6953   5.733   6.118   1.527 -0.2188 -0.2168 -0.0140
   17CHTO  H122 6954   5.760   6.181   1.612  0.3020  0.2001 -0.4887
   17CHTO   O44 6955   5.776   5.979   1.544  0.1822  0.1983 -0.3067
   17CHTO  H102 6956   5.751   5.932   1.622  5.2913 -0.7002  0.9544
   17CHTO   C63 6957   5.578   6.144   1.507  0.1056 -1.0212  0.4622
   17CHTO  H120 6958   5.565   6.250   1.482  0.2014 -1.2476 -0.5938
   17CHTO   N11 6959   5.493   6.117   1.622 -0.1849  0.1658  0.0525
   17CHTO  H108 6960   5.432   6.205   1.624  1.6155  1.4287  2.5542
   17CHTO  H109 6961   5.563   6.100   1.701 -0.3870 -2.3652 -0.2821
   17CHTO   C61 6962   5.528   6.067   1.383 -0.1099 -0.8595  0.3086
   17CHTO  H118 6963   5.435   6.123   1.366  0.8023 -0.3931 -3.5775
   17CHTO   O40 6964   5.617   6.104   1.266 -0.0237  0.0020  0.2357
   17CHTO   C68 6965   5.766   6.102   1.274  0.6090  0.0572  0.7203
   17CHTO  H125 6966   5.794   6.166   1.189 -0.0110 -0.1391  0.3604
   17CHTO   C72 6967   5.813   5.958   1.242 -0.2688  0.5160 -0.2841
   17CHTO   O48 6968   5.785   5.939   1.100  0.3866  0.2424 -0.6405
   17CHTO  H105 6969   5.810   5.852   1.074  3.7013  1.1927 -0.9363
   17CHTO   O38 6970   5.510   5.923   1.386  0.3623 -0.4370 -0.4250
   17CHTO   C55 6971   5.407   5.857   1.300  0.1256 -0.0197 -0.3344
   17CHTO  H112 6972   5.421   5.748   1.299  0.3929  0.0172 -0.8747
   17CHTO   C56 6973   5.406   5.915   1.147 -0.6185  0.3171  0.3633
   17CHTO  H113 6974   5.408   6.025   1.144  0.3242  0.3277  1.0998
   17CHTO   O42 6975   5.526   5.877   1.078  0.2879 -0.0517 -0.3273
   17CHTO  H100 6976   5.593   5.920   1.128  0.0283  1.3497 -1.1823
   17CHTO   C57 6977   5.282   5.865   1.060 -0.0297 -0.1783 -0.2238
   17CHTO  H114 6978   5.303   5.761   1.039  1.1501 -0.3424  1.6475
   17CHTO   N10 6979   5.271   5.944   0.931  0.3417 -0.0131  0.9343
   17CHTO  H106 6980   5.239   5.881   0.849 -0.0422 -1.1371  1.9359
   17CHTO  H107 6981   5.207   6.030   0.941 -1.4975 -1.1567 -0.4583
   17CHTO   C58 6982   5.155   5.872   1.147  0.3243 -0.1577 -0.8803
   17CHTO  H115 6983   5.116   5.976   1.149  1.1782  0.1355  1.8254
   17CHTO   O37 6984   5.174   5.818   1.282  0.1648  0.4110  1.1923
   17CHTO   C59 6985   5.268   5.887   1.363 -0.6444  0.1122 -0.4200
   17CHTO  H116 6986   5.242   5.993   1.367 -0.4604  0.1490 -0.1585
   17CHTO   C70 6987   5.255   5.833   1.506 -0.0836 -0.2727 -0.0415
   17CHTO   O46 6988   5.122   5.839   1.556 -0.3620 -0.6355  0.2893
   17CHTO  H103 6989   5.075   5.764   1.524 -0.0778 -0.0668 -1.5021
   17CHTO   O39 6990   5.052   5.766   1.089 -0.1362  0.4457  0.2602
   17CHTO   C60 6991   4.926   5.825   1.071 -0.0100  0.6147  0.2955
   17CHTO  H117 6992   4.911   5.920   1.124  1.2669  0.5095  0.8661
   17CHTO   C62 6993   4.899   5.853   0.921 -0.3153  0.3459  0.0657
   17CHTO  H119 6994   4.963   5.938   0.890 -0.4034  0.5343  0.4046
   17CHTO   O43 6995   4.933   5.729   0.855  0.5081 -0.1483 -0.3104
   17CHTO  H101 6996   4.855   5.678   0.846  0.2513  0.3106 -0.7022
   17CHTO   C66 6997   4.755   5.905   0.893  0.5983  0.6842  0.9134
   17CHTO  H123 6998   4.739   5.999   0.946 -0.7572  0.3245  1.1536
   17CHTO   N12 6999   4.721   5.921   0.748  0.0189 -0.5786 -0.1048
   17CHTO  H110 7000   4.759   5.842   0.685 -0.3917 -1.2703  0.5097
   17CHTO  H111 7001   4.614   5.923   0.730 -0.3369 -1.5092  1.8454
   17CHTO   C69 7002   4.656   5.807   0.960  0.8679 -0.2963  0.3182
   17CHTO  H126 7003   4.663   5.710   0.908  2.8509  0.2215 -0.4167
   17CHTO   O41 7004   4.689   5.796   1.100  0.3562  0.4102  0.3090
   17CHTO   C64 7005   4.810   5.732   1.123  0.6033  0.4350  0.3996
   17CHTO  H121 7006   4.815   5.631   1.078 -1.0299 -0.1462  1.4643
   17CHTO   C71 7007   4.828   5.712   1.277 -0.6618 -1.1472  0.3184
   17CHTO   O47 7008   4.734   5.628   1.332 -0.0406  0.1310 -0.4835
   17CHTO  H104 7009   4.674   5.682   1.380  0.5586  0.1654  0.2335
   17CHTO   O34 7010   4.502   5.866   0.944 -0.3619  1.0304  0.1764
   17CHTO   C49 7011   4.361   5.849   0.951 -0.5441  0.3588  0.4308
   17CHTO   H91 7012   4.320   5.807   0.859 -1.4500  1.2784  0.4035
   17CHTO   C47 7013   4.308   5.988   0.989 -0.6652  0.4178 -0.1221
   17CHTO   H89 7014   4.198   5.974   0.994 -0.7941  1.2385 -0.6332
   17CHTO   O33 7015   4.340   6.086   0.888 -0.3393 -0.4974  0.1237
   17CHTO   H70 7016   4.432   6.101   0.887  0.2232 -3.5142  0.4463
   17CHTO   C45 7017   4.363   6.035   1.133  0.1944 -0.2788  0.2819
   17CHTO   H87 7018   4.469   6.065   1.130  0.6468 -1.8880 -0.0494
   17CHTO    N8 7019   4.286   6.161   1.181 -0.6259  0.3315 -0.2620
   17CHTO   H75 7020   4.180   6.164   1.160 -0.9378  2.5983  1.4575
   17CHTO   H76 7021   4.307   6.171   1.286 -1.3424 -0.1042 -0.0734
   17CHTO   C43 7022   4.380   5.909   1.234  0.8795  0.1647 -0.1750
   17CHTO   H85 7023   4.487   5.889   1.233  1.3979  2.7764 -0.6299
   17CHTO   O29 7024   4.301   5.795   1.188  0.1812 -0.3248  0.1663
   17CHTO   C50 7025   4.327   5.745   1.061 -0.6898 -0.5007 -0.9240
   17CHTO   H92 7026   4.413   5.676   1.070  1.5871  2.2476 -0.9376
   17CHTO   C54 7027   4.213   5.647   1.024  0.0572 -0.5518 -0.0927
   17CHTO   O36 7028   4.224   5.527   1.101  0.7439 -0.1669  0.3840
   17CHTO   H72 7029   4.298   5.477   1.072 -0.3454 -0.6212 -1.7398
   17CHTO   O27 7030   4.357   5.948   1.370 -0.3670 -0.0869 -0.3720
   17CHTO   C37 7031   4.366   5.880   1.495  0.0972  0.2755  0.3774
   17CHTO   H79 7032   4.365   5.950   1.580  1.0275 -0.6677  1.1913
   17CHTO   C38 7033   4.227   5.794   1.513  0.0568 -0.7556 -0.9120
   17CHTO   H80 7034   4.185   5.776   1.413 -1.2583  0.7918 -0.6643
   17CHTO   O31 7035   4.139   5.885   1.585 -0.3057  0.2871  0.0978
   17CHTO   H68 7036   4.107   5.951   1.525 -5.1661 -1.1933  0.8289
   17CHTO   C39 7037   4.250   5.658   1.582 -0.1438 -0.3993 -0.4656
   17CHTO   H81 7038   4.242   5.681   1.688 -1.4924  0.6928 -0.7906
   17CHTO    N7 7039   4.144   5.561   1.542 -0.6461  0.1913 -0.0199
   17CHTO   H73 7040   4.048   5.595   1.577 -0.4656  0.4970  0.1794
   17CHTO   H74 7041   4.146   5.541   1.436 -0.5430  0.9088 -0.1551
   17CHTO   C40 7042   4.394   5.594   1.552 -0.1919 -0.4300  0.2738
   17CHTO   H82 7043   4.405   5.565   1.447  0.4525 -1.8706  0.7290
   17CHTO   O26 7044   4.490   5.696   1.594 -0.4202 -0.1972  0.1262
   17CHTO   C41 7045   4.498   5.803   1.501 -0.5330 -0.1300 -0.8493
   17CHTO   H83 7046   4.527   5.755   1.406  2.2399 -0.5906  0.2010
   17CHTO   C52 7047   4.601   5.910   1.545 -0.0199 -0.7484 -0.2015
   17CHTO   O35 7048   4.736   5.856   1.530 -0.0169 -0.7610 -1.1574
   17CHTO   H71 7049   4.797   5.924   1.509 -0.9163  0.5547  0.4283
   17CHTO   O28 7050   4.425   5.468   1.619 -0.6504 -0.0462  0.4882
   17CHTO   C42 7051   4.523   5.366   1.564  0.3430 -0.3640  0.3775
   17CHTO   H84 7052   4.484   5.275   1.609  1.6406 -1.7539 -1.2387
   17CHTO   C44 7053   4.666   5.380   1.625 -0.7320  0.0931 -0.6363
   17CHTO   H86 7054   4.695   5.485   1.636 -1.0353  0.2339 -1.1762
   17CHTO   O32 7055   4.655   5.343   1.763 -0.2334  0.0360  0.1006
   17CHTO   H69 7056   4.670   5.413   1.823  0.7019 -0.1054  0.0508
   17CHTO   C48 7057   4.782   5.294   1.553  0.9957  0.8411 -0.2542
   17CHTO   H90 7058   4.773   5.191   1.588 -1.5009  1.7890  2.0597
   17CHTO    N9 7059   4.920   5.338   1.603  0.1328  0.9361  0.2085
   17CHTO   H77 7060   4.998   5.286   1.550 -2.0207 -0.9736 -1.1752
   17CHTO   H78 7061   4.922   5.318   1.709  0.8597  0.9178  0.1935
   17CHTO   C51 7062   4.763   5.300   1.400 -0.3482 -0.5490 -0.7019
   17CHTO   H93 7063   4.781   5.400   1.359 -0.4084 -0.7916 -1.3202
   17CHTO   O30 7064   4.634   5.250   1.370 -0.2252 -0.6542  0.4114
   17CHTO   C46 7065   4.523   5.347   1.407 -0.0471  0.0754 -0.2181
   17CHTO   H88 7066   4.556   5.444   1.368  2.7344 -1.2441 -1.3347
   17CHTO   C53 7067   4.380   5.294   1.357 -0.6253  0.6220  0.2006
   17CHTO   O72 7068   4.332   5.179   1.432 -0.2197 -0.5270 -0.4151
   17CHTO  H199 7069   4.311   5.208   1.519  0.8879  1.4316 -0.7498
   17CHTO   O22 7070   4.855   5.213   1.336 -0.2244 -0.0034 -0.0699
   17CHTO   C31 7071   4.872   5.204   1.190  0.2773 -0.0150 -0.2115
   17CHTO   H59 7072   4.949   5.125   1.175  1.0737  0.5399  0.8876
   17CHTO   C29 7073   4.750   5.156   1.108 -0.3434 -0.8613 -0.1705
   17CHTO   H57 7074   4.669   5.230   1.123 -0.6518 -1.4302  1.0499
   17CHTO   O21 7075   4.707   5.028   1.163  0.0291  0.3652  0.5462
   17CHTO   H37 7076   4.753   4.957   1.123  0.6421  0.5493  0.9176
   17CHTO   C27 7077   4.771   5.145   0.950  0.3394  0.0710  0.2350
   17CHTO   H55 7078   4.838   5.061   0.928 -0.0533 -0.0864 -0.3964
   17CHTO    N5 7079   4.644   5.115   0.882  1.0271 -1.2339 -0.0860
   17CHTO   H43 7080   4.651   5.105   0.775  2.0233  1.4576 -0.3243
   17CHTO   H44 7081   4.581   5.202   0.899  2.4141  0.3517 -2.7604
   17CHTO   C25 7082   4.844   5.276   0.902 -0.8375 -0.3328 -0.1962
   17CHTO   H53 7083   4.777   5.363   0.905 -2.8021 -1.6852 -2.8628
   17CHTO   O17 7084   4.965   5.308   0.990  0.1293 -0.4918 -0.3521
   17CHTO   C32 7085   4.948   5.330   1.132 -0.5080  0.2643  1.1201
   17CHTO   H60 7086   4.879   5.414   1.142 -0.0895  1.0710 -2.0702
   17CHTO   C36 7087   5.090   5.366   1.193  0.4236 -0.2687  0.2143
   17CHTO   O25 7088   5.114   5.505   1.178 -0.1729  0.1386  0.4549
   17CHTO   H40 7089   5.093   5.559   1.251  1.5614  0.0689  1.0090
   17CHTO   O15 7090   4.902   5.250   0.759 -0.3572 -0.2373  0.2010
   17CHTO   C19 7091   4.950   5.332   0.648  0.5213 -0.0561  0.5035
   17CHTO   H47 7092   4.963   5.258   0.567 -1.5445  1.8523 -1.6582
   17CHTO   C20 7093   4.840   5.431   0.597 -1.2621 -0.1790  0.0372
   17CHTO   H48 7094   4.801   5.492   0.679 -2.9835  1.5287 -1.9937
   17CHTO   O19 7095   4.736   5.349   0.546 -0.3347 -0.2661  0.6047
   17CHTO   H35 7096   4.658   5.399   0.530  0.2213  0.2040 -0.7244
   17CHTO   C21 7097   4.889   5.532   0.485 -0.2185 -0.0027 -0.8791
   17CHTO   H49 7098   4.908   5.480   0.391  1.9873 -1.8432  0.5261
   17CHTO    N4 7099   4.779   5.632   0.460 -0.3657 -0.3236 -0.1935
   17CHTO   H41 7100   4.792   5.718   0.524  0.9855 -0.6709  0.0152
   17CHTO   H42 7101   4.769   5.661   0.356 -1.8121 -3.6769 -1.0621
   17CHTO   C22 7102   5.019   5.593   0.539  0.1124  0.2045 -0.1403
   17CHTO   H50 7103   5.000   5.646   0.633 -1.3086 -2.4813  1.1525
   17CHTO   O14 7104   5.119   5.493   0.566 -0.1738  0.8783  0.3908
   17CHTO   C23 7105   5.081   5.399   0.674 -0.2678 -0.4627  0.4662
   17CHTO   H51 7106   5.076   5.464   0.763  1.8670  0.1392  0.1760
   17CHTO   C34 7107   5.197   5.299   0.693 -0.3948 -0.2708  0.4267
   17CHTO   O23 7108   5.177   5.206   0.793  0.2346 -0.1154 -0.4008
   17CHTO   H38 7109   5.230   5.134   0.764  0.9013  1.2093 -2.6502
   17CHTO   O16 7110   5.089   5.674   0.443  0.5147 -0.4291 -0.1266
   17CHTO   C24 7111   5.150   5.805   0.512  0.3110 -0.0202  0.4554
   17CHTO   H52 7112   5.138   5.802   0.620  1.1860 -2.4550  0.5243
   17CHTO   C26 7113   5.086   5.926   0.449 -0.4729  0.1551 -0.0908
   17CHTO   H54 7114   5.108   5.928   0.340 -0.0529 -0.4692 -0.0161
   17CHTO   O20 7115   4.948   5.911   0.461  0.4210 -0.4914  0.6412
   17CHTO   H36 7116   4.908   5.860   0.393  1.6825  1.2871 -1.4880
   17CHTO   C30 7117   5.139   6.053   0.522  0.6411 -0.6810 -0.0501
   17CHTO   H58 7118   5.104   6.059   0.626  0.8415 -0.9494  0.0344
   17CHTO    N6 7119   5.066   6.175   0.463  0.0995  0.1468  0.2328
   17CHTO   H45 7120   4.961   6.183   0.483  0.6393  0.7348  3.0145
   17CHTO   H46 7121   5.116   6.263   0.501 -1.7732  1.2908  0.1330
   17CHTO   C33 7122   5.293   6.062   0.526 -0.0432 -0.3474 -0.0502
   17CHTO   H61 7123   5.332   6.074   0.424  0.3943 -1.6742 -0.0576
   17CHTO   O18 7124   5.339   5.935   0.584  0.3358 -0.0875 -0.4837
   17CHTO   C28 7125   5.304   5.824   0.496 -0.6068  0.0015  0.1439
   17CHTO   H56 7126   5.328   5.838   0.391 -0.4693  0.7914  0.2790
   17CHTO   C35 7127   5.391   5.702   0.534 -0.3076  0.2446  0.3594
   17CHTO   O24 7128   5.394   5.679   0.675  0.0500  0.4330  0.2052
   17CHTO   H39 7129   5.477   5.667   0.716  1.2392  1.1447 -1.9157
   17CHTO    O9 7130   5.344   6.173   0.602  0.1347 -0.3182  0.5958
   17CHTO   C13 7131   5.487   6.243   0.575 -0.3532  0.0393  0.1348
   17CHTO   H26 7132   5.544   6.181   0.503  1.7347  0.7803  1.1259
   17CHTO   C11 7133   5.558   6.260   0.716 -0.4797  0.0525  0.0992
   17CHTO   H24 7134   5.588   6.162   0.756  1.4982  0.5306 -0.1544
   17CHTO    O8 7135   5.471   6.321   0.817  0.0767 -0.3665  0.0312
   17CHTO    H3 7136   5.399   6.262   0.820  1.0351 -1.6487 -1.1750
   17CHTO    C9 7137   5.683   6.344   0.689  0.5719  0.2217 -0.2566
   17CHTO   H22 7138   5.738   6.292   0.609 -0.9258 -0.7008 -0.7005
   17CHTO    N2 7139   5.774   6.346   0.805 -0.1690  0.2459 -0.2973
   17CHTO   H10 7140   5.841   6.431   0.799 -0.9389  0.7638 -1.7845
   17CHTO   H11 7141   5.814   6.246   0.806  2.0137  1.0625 -1.8770
   17CHTO    C7 7142   5.648   6.483   0.631  0.0361 -0.7173 -0.5171
   17CHTO   H20 7143   5.748   6.524   0.605  0.8471 -1.3492  1.4990
   17CHTO    O4 7144   5.569   6.480   0.512 -0.1189 -0.2831  0.4211
   17CHTO   C14 7145   5.460   6.387   0.504  0.6354  0.3270 -1.1699
   17CHTO   H27 7146   5.446   6.370   0.396  0.8041  1.4918 -1.3828
   17CHTO   C18 7147   5.332   6.458   0.566 -0.4257  0.4901  0.6850
   17CHTO   O13 7148   5.253   6.521   0.473  0.0342 -0.4633 -0.6200
   17CHTO    H7 7149   5.285   6.605   0.444 -0.7623 -0.1336 -0.5678
   17CHTO    O2 7150   5.552   6.583   0.771 -0.4180 -0.3786 -0.2022
   17CHTO    C1 7151   5.541   6.729   0.754 -0.4304  0.0517 -0.0493
   17CHTO   H14 7152   5.458   6.748   0.683 -1.3024  1.4339  1.3136
   17CHTO    C2 7153   5.664   6.797   0.705 -0.1648 -0.2811  0.2207
   17CHTO   H15 7154   5.742   6.753   0.768  1.9544  1.2703 -1.2514
   17CHTO    O6 7155   5.676   6.774   0.561  0.0904 -0.0092  0.1095
   17CHTO    H1 7156   5.749   6.826   0.534  0.3986 -0.9885 -1.0138
   17CHTO    C3 7157   5.656   6.953   0.726  0.0483  0.0089 -0.0469
   17CHTO   H16 7158   5.604   6.994   0.638 -0.4953 -0.4988  0.0371
   17CHTO    N1 7159   5.791   7.009   0.727 -0.3862 -0.1070  0.0548
   17CHTO    H8 7160   5.813   7.078   0.646  0.5704 -1.1321 -0.5580
   17CHTO    H9 7161   5.867   6.933   0.734 -0.9997 -0.9050 -1.7897
   17CHTO    C4 7162   5.578   7.001   0.851  0.4707 -0.2046 -0.4319
   17CHTO   H17 7163   5.642   6.988   0.938 -0.3057 -1.9402 -0.1088
   17CHTO    O1 7164   5.460   6.924   0.862 -0.0726  0.3648 -0.3559
   17CHTO    C5 7165   5.494   6.785   0.892 -0.1609  0.0372  0.8941
   17CHTO   H18 7166   5.577   6.774   0.962  1.9498  0.7641 -1.4239
   17CHTO   C16 7167   5.367   6.703   0.938 -0.4649 -0.3122  0.9348
   17CHTO   O11 7168   5.316   6.739   1.069  0.4191  0.3312 -0.2480
   17CHTO    H5 7169   5.232   6.697   1.078 -0.3930  1.6242 -1.5967
   17CHTO    O3 7170   5.543   7.143   0.832 -0.2237  0.1783 -0.1797
   17CHTO    C6 7171   5.548   7.226   0.961 -0.1137 -0.0384 -0.0430
   17CHTO   H19 7172   5.504   7.325   0.950  2.1073  0.9725 -0.0469
   17CHTO    C8 7173   5.465   7.152   1.076  0.3206  0.5996 -0.1924
   17CHTO   H21 7174   5.505   7.052   1.093  0.6408  0.9851  1.3772
   17CHTO    O7 7175   5.323   7.144   1.034 -0.2616  0.2447  0.7131
   17CHTO    H2 7176   5.314   7.073   0.973  0.8328  0.2944  0.4882
   17CHTO   C12 7177   5.486   7.227   1.213  0.2982 -0.3443 -0.0086
   17CHTO   H25 7178   5.449   7.331   1.198 -0.7627 -0.8386 -0.8454
   17CHTO    N3 7179   5.400   7.168   1.321 -0.0459 -0.3623 -0.3558
   17CHTO   H12 7180   5.341   7.086   1.282 -0.5730 -0.7761  1.2475
   17CHTO   H13 7181   5.337   7.243   1.366  0.4966  1.6950 -2.9305
   17CHTO   C15 7182   5.639   7.249   1.244 -0.5363  0.2024 -0.1034
   17CHTO   H28 7183   5.683   7.152   1.265 -0.1182  0.0146 -1.8334
   17CHTO   O10 7184   5.659   7.346   1.360 -0.3874 -0.0137  0.3352
   17CHTO    H4 7185   5.719   7.304   1.418 -2.0688 -1.1926  1.2296
   17CHTO    O5 7186   5.699   7.325   1.134  0.4144 -0.4541  0.0906
   17CHTO   C10 7187   5.693   7.249   1.008 -0.3320  0.1846  0.0743
   17CHTO   H23 7188   5.757   7.162   1.022  0.5476  0.7773 -0.2337
   17CHTO   C17 7189   5.770   7.321   0.901  0.2781  0.0302  0.2833
   17CHTO   O12 7190   5.715   7.452   0.888 -0.8728  0.2817 -0.0814
   17CHTO    H6 7191   5.778   7.507   0.845 -0.6539 -0.4552 -0.7076
   18CHTO  H203 7192   6.879   7.773   1.928 -1.9556 -2.3849 -0.2049
   18CHTO   O82 7193   6.948   7.711   1.940  0.1893  0.0382  0.5224
   18CHTO  C123 7194   6.922   7.595   1.862  0.4454  0.2099  0.5478
   18CHTO  H227 7195   6.817   7.564   1.870  0.5839 -1.3578 -3.0264
   18CHTO   O77 7196   6.940   7.639   1.724 -0.6427  0.0479 -0.0901
   18CHTO  C118 7197   6.907   7.546   1.621 -0.6273 -0.0184  0.7695
   18CHTO  H222 7198   6.805   7.509   1.636  0.0677 -2.1310  0.4296
   18CHTO  C125 7199   6.917   7.618   1.484 -0.4826  0.0727 -0.5956
   18CHTO   O84 7200   6.827   7.728   1.488 -0.7358 -0.2015  0.6902
   18CHTO  H205 7201   6.740   7.699   1.510 -0.0590 -3.3517 -0.5313
   18CHTO  C114 7202   7.003   7.424   1.625  0.4449 -0.1152  1.0383
   18CHTO  H218 7203   7.103   7.459   1.598  0.7509 -0.1328  2.0943
   18CHTO  C116 7204   6.995   7.362   1.765 -0.3295  0.0546  0.2314
   18CHTO  H220 7205   6.895   7.318   1.780  0.2983 -1.5565 -0.2413
   18CHTO   O79 7206   7.089   7.251   1.759  0.5498  0.0629  0.2211
   18CHTO  H201 7207   7.043   7.169   1.757  1.3799 -0.4461  1.5692
   18CHTO  C120 7208   7.029   7.475   1.879 -0.4049 -0.1526  0.0776
   18CHTO  H224 7209   7.135   7.502   1.860 -0.6080  0.4398 -0.2400
   18CHTO   N21 7210   7.013   7.415   2.012  0.1053  0.4054 -0.3483
   18CHTO  H211 7211   7.072   7.471   2.083 -0.5510  0.5888  0.0562
   18CHTO  H212 7212   7.040   7.311   2.016  0.6354  0.4704 -1.9611
   18CHTO   O75 7213   6.947   7.341   1.517  0.0448 -0.7335 -0.7543
   18CHTO  C112 7214   7.034   7.246   1.417 -0.4360  0.0531 -0.0937
   18CHTO  H216 7215   7.077   7.165   1.478  0.3587  0.9392  0.5335
   18CHTO   O73 7216   7.135   7.332   1.359 -0.6334 -0.1041  0.4557
   18CHTO  C113 7217   7.214   7.253   1.269  0.6314  0.6167 -0.0684
   18CHTO  H217 7218   7.266   7.170   1.321 -0.2544 -2.7395 -4.3156
   18CHTO  C124 7219   7.332   7.347   1.232 -0.0334 -0.3646 -0.6723
   18CHTO   O83 7220   7.439   7.290   1.156 -0.1711 -0.0162  0.0518
   18CHTO  H204 7221   7.435   7.198   1.171  0.7182  0.0857  0.9650
   18CHTO  C109 7222   7.137   7.194   1.150 -0.2173  0.6727 -0.3990
   18CHTO  H213 7223   7.095   7.281   1.099 -0.2965  1.2227  0.6000
   18CHTO  C110 7224   7.040   7.091   1.210  0.0459 -0.2015 -0.7376
   18CHTO  H214 7225   7.087   7.008   1.263  0.3294  0.5964  0.2857
   18CHTO   O78 7226   6.962   7.028   1.109 -0.2373  0.2019 -0.1715
   18CHTO  H200 7227   6.906   7.088   1.064 -1.2504 -1.2890 -0.9139
   18CHTO  C111 7228   6.948   7.171   1.309  0.5798  0.4213 -0.7963
   18CHTO  H215 7229   6.895   7.246   1.249  2.4085  2.3127 -0.0853
   18CHTO   N19 7230   6.848   7.089   1.385 -0.4356 -0.7144  0.5682
   18CHTO  H207 7231   6.844   6.992   1.338 -0.0439  0.0421 -1.0562
   18CHTO  H208 7232   6.749   7.130   1.402  0.1628  0.7508  0.5960
   18CHTO   O74 7233   7.233   7.131   1.062  0.0554  0.5809 -0.3577
   18CHTO  C115 7234   7.187   7.092   0.919 -0.0445  0.2957 -0.2145
   18CHTO  H219 7235   7.148   6.990   0.909  0.0205  0.4512 -2.4813
   18CHTO   O76 7236   7.065   7.192   0.862 -0.6872  0.7144 -0.0195
   18CHTO  C122 7237   7.105   7.324   0.827 -1.1764  0.9444  0.5685
   18CHTO  H226 7238   7.137   7.369   0.921 -2.8093  1.7969  0.7349
   18CHTO  C126 7239   6.980   7.401   0.786  0.0896  0.1219 -0.2410
   18CHTO   O85 7240   7.000   7.546   0.791  0.7132  0.3883  0.4397
   18CHTO  H206 7241   7.014   7.582   0.876  2.0973 -0.8597  0.7637
   18CHTO  C121 7242   7.223   7.320   0.717 -0.2256  0.1630 -0.2808
   18CHTO  H225 7243   7.172   7.367   0.631 -1.4607  0.6750  0.7088
   18CHTO   O81 7244   7.338   7.392   0.764  0.3002  0.2292 -0.2296
   18CHTO  H202 7245   7.320   7.483   0.755 -2.1382 -0.1610  0.4198
   18CHTO  C119 7246   7.266   7.173   0.682 -0.1265 -0.4298  0.3923
   18CHTO  H223 7247   7.177   7.123   0.644  0.1976 -0.8747  0.2147
   18CHTO  C117 7248   7.311   7.109   0.819 -0.0990 -0.7504 -0.1449
   18CHTO  H221 7249   7.390   7.158   0.876 -1.5293 -0.8257  1.9915
   18CHTO   N20 7250   7.368   6.972   0.793  0.5395  0.6336 -0.3480
   18CHTO  H209 7251   7.396   6.913   0.878  0.4617  1.1842  0.0648
   18CHTO  H210 7252   7.307   6.905   0.734 -0.7876  0.1737  1.5112
   18CHTO   O80 7253   7.365   7.164   0.561  0.2437 -0.0516 -0.5552
   18CHTO  C103 7254   7.314   7.109   0.419 -0.3479 -0.3281  0.3772
   18CHTO  H190 7255   7.400   7.107   0.352  0.9100  0.6111  1.9176
   18CHTO  C101 7256   7.250   6.966   0.432  0.0608  0.8610 -0.2825
   18CHTO  H188 7257   7.165   6.962   0.499 -2.0324  1.3516 -2.7989
   18CHTO   O68 7258   7.361   6.864   0.470 -0.1541  0.3212  0.4304
   18CHTO  H168 7259   7.369   6.858   0.563 -1.5984 -4.2763  0.3794
   18CHTO   C99 7260   7.192   6.927   0.284  0.1562 -0.2274 -0.3875
   18CHTO  H186 7261   7.282   6.943   0.222  1.8162  0.0534  2.0085
   18CHTO   N17 7262   7.133   6.791   0.263  0.0992 -0.3218  0.5350
   18CHTO  H174 7263   7.196   6.711   0.300 -0.1806 -2.1012 -2.6635
   18CHTO  H175 7264   7.120   6.787   0.156 -0.0307  0.0104  0.5390
   18CHTO   C97 7265   7.093   7.033   0.233 -0.8446  0.0299 -0.2096
   18CHTO  H184 7266   6.997   7.028   0.286  0.0095  0.7180  1.4219
   18CHTO   O64 7267   7.153   7.164   0.237 -0.7166  0.1161 -0.3700
   18CHTO  C104 7268   7.205   7.214   0.365 -0.9830 -0.5105  0.4249
   18CHTO  H191 7269   7.121   7.221   0.434 -1.3482  0.0968 -0.0748
   18CHTO  C108 7270   7.261   7.355   0.364  0.7076 -0.3229  0.7596
   18CHTO   O71 7271   7.368   7.366   0.277 -0.0719  0.0360  0.4301
   18CHTO  H171 7272   7.376   7.459   0.274 -0.5381  0.1460  1.8941
   18CHTO   O62 7273   7.079   7.020   0.090 -0.1609 -0.3590 -0.6555
   18CHTO   C91 7274   6.945   7.013   0.033 -0.3941  0.3081 -0.5141
   18CHTO  H178 7275   6.875   6.979   0.109  0.6182  2.5028  1.4728
   18CHTO   C92 7276   6.955   6.899  -0.081  0.3621 -0.9320  0.0369
   18CHTO  H179 7277   7.042   6.926  -0.143  0.9546 -0.2309  1.1612
   18CHTO   O66 7278   6.982   6.765  -0.030 -0.3895  0.6589 -0.6083
   18CHTO  H166 7279   7.048   6.713  -0.071 -0.4641 -1.0732  1.3663
   18CHTO   C93 7280   6.824   6.891  -0.175 -0.3125  0.2998 -0.8282
   18CHTO  H180 7281   6.751   6.835  -0.114  2.3957 -0.8233  1.4834
   18CHTO   N16 7282   6.847   6.819  -0.303  0.4637  0.4071 -0.6047
   18CHTO  H172 7283   6.877   6.871  -0.392  0.6142 -2.3502 -2.2221
   18CHTO  H173 7284   6.894   6.722  -0.292 -3.2266 -1.3625  0.5477
   18CHTO   C94 7285   6.768   7.042  -0.199 -0.5632 -0.3693 -0.9705
   18CHTO  H181 7286   6.835   7.105  -0.258  0.1891  0.9097  1.1747
   18CHTO   O61 7287   6.754   7.107  -0.071  0.4180 -0.0738  0.2179
   18CHTO   C95 7288   6.886   7.150  -0.018  1.4669 -0.1091 -0.3341
   18CHTO  H182 7289   6.946   7.198  -0.095  0.7446 -0.4200 -1.0992
   18CHTO  C106 7290   6.859   7.247   0.096  0.1103  0.2512 -0.0846
   18CHTO   O69 7291   6.781   7.204   0.205  0.2022 -0.3898  0.8381
   18CHTO  H169 7292   6.815   7.126   0.245 -0.7319 -2.0035 -1.4240
   18CHTO   O63 7293   6.623   7.021  -0.271 -0.2081 -0.5785 -0.4991
   18CHTO   C96 7294   6.557   7.122  -0.351 -0.0346 -0.5269  0.5748
   18CHTO  H183 7295   6.467   7.072  -0.387  1.7731 -1.9915 -2.0516
   18CHTO   C98 7296   6.630   7.170  -0.478  0.0344 -0.3610 -0.5112
   18CHTO  H185 7297   6.736   7.189  -0.454  0.8400 -0.0597 -3.9559
   18CHTO   O67 7298   6.632   7.051  -0.562 -0.0408 -0.3262  0.0270
   18CHTO  H167 7299   6.680   7.067  -0.641  0.8090 -0.2759  0.5434
   18CHTO  C102 7300   6.568   7.292  -0.564  0.1835 -0.2119  0.2052
   18CHTO  H189 7301   6.480   7.252  -0.616  0.1862 -0.2975  0.2655
   18CHTO   N18 7302   6.657   7.344  -0.665  0.4042  0.1022 -0.3930
   18CHTO  H176 7303   6.593   7.375  -0.747  1.1814  0.6314 -0.8071
   18CHTO  H177 7304   6.719   7.263  -0.701 -2.5232 -2.9882  1.1990
   18CHTO  C105 7305   6.510   7.402  -0.471  0.6763 -0.0617  0.4121
   18CHTO  H192 7306   6.591   7.460  -0.426  1.3128 -0.2558 -0.4701
   18CHTO   O65 7307   6.431   7.336  -0.367 -0.2541  0.1487 -0.5673
   18CHTO  C100 7308   6.517   7.257  -0.278 -0.1454  0.4049  0.6970
   18CHTO  H187 7309   6.614   7.306  -0.260  0.9140  0.2924 -4.1443
   18CHTO  C107 7310   6.455   7.228  -0.132 -0.3762 -0.1800  0.0258
   18CHTO   O70 7311   6.442   7.357  -0.056 -0.1117 -0.6351  0.3898
   18CHTO  H170 7312   6.351   7.377  -0.051  0.3075  1.2308  1.2088
   18CHTO   O57 7313   6.421   7.492  -0.559  0.2691  1.0041  0.3290
   18CHTO   C85 7314   6.441   7.633  -0.561  0.2728  0.3486  0.0139
   18CHTO  H157 7315   6.550   7.647  -0.578  0.3741  1.2841  1.3540
   18CHTO   C83 7316   6.418   7.684  -0.414  0.2727  0.0832 -0.3438
   18CHTO  H155 7317   6.472   7.621  -0.343  0.8482  1.8385  0.7921
   18CHTO   O56 7318   6.282   7.665  -0.369  0.0613 -0.0560 -0.1656
   18CHTO  H135 7319   6.239   7.592  -0.408 -0.6625  0.8544 -1.1210
   18CHTO   C81 7320   6.460   7.835  -0.392  0.4254  0.3403  0.0864
   18CHTO  H153 7321   6.564   7.854  -0.419  0.9268  0.0027  1.7277
   18CHTO   N14 7322   6.456   7.878  -0.246  0.0684 -0.0598 -0.2275
   18CHTO  H141 7323   6.422   7.802  -0.179 -0.9696  1.4809  1.0444
   18CHTO  H142 7324   6.382   7.955  -0.242  0.5011  0.2096  3.6459
   18CHTO   C79 7325   6.377   7.924  -0.495  0.8313  0.3922 -0.1714
   18CHTO  H151 7326   6.430   8.019  -0.506  0.4247  0.7362  0.7115
   18CHTO   O52 7327   6.376   7.866  -0.635 -0.0101  0.0195 -0.5914
   18CHTO   C86 7328   6.355   7.723  -0.657  0.9502  0.5788  0.6173
   18CHTO  H158 7329   6.246   7.711  -0.645  0.9254  0.8416  0.6500
   18CHTO   C90 7330   6.384   7.683  -0.803 -0.0626  0.7577  0.2875
   18CHTO   O60 7331   6.524   7.692  -0.838  0.3715  0.3069  0.5756
   18CHTO  H138 7332   6.541   7.772  -0.883 -3.1509  0.6590 -0.2489
   18CHTO   O50 7333   6.238   7.956  -0.448 -0.3973  0.7000  0.6545
   18CHTO   C73 7334   6.138   8.045  -0.502  0.6797  0.1619  0.4888
   18CHTO  H145 7335   6.118   8.039  -0.610 -0.4197 -1.4090  0.7558
   18CHTO   C74 7336   6.171   8.194  -0.459 -0.9957  0.4988  0.0719
   18CHTO  H146 7337   6.259   8.228  -0.516 -0.9388  1.3972  0.6840
   18CHTO   O54 7338   6.061   8.286  -0.489 -0.5632  0.1178  0.1061
   18CHTO  H133 7339   6.092   8.373  -0.506 -2.0937  0.5469 -0.6526
   18CHTO   C75 7340   6.204   8.197  -0.310  0.2491 -0.5482  0.3419
   18CHTO  H147 7341   6.297   8.142  -0.291  0.3854 -0.2227  0.6049
   18CHTO   N13 7342   6.252   8.331  -0.248  0.0124  0.3053  0.4441
   18CHTO  H139 7343   6.201   8.415  -0.293 -2.8933 -0.5492  2.0253
   18CHTO  H140 7344   6.356   8.357  -0.263  0.2019 -0.4785  0.3385
   18CHTO   C76 7345   6.080   8.135  -0.224 -0.1494 -0.2778 -0.2808
   18CHTO  H148 7346   6.005   8.214  -0.226 -0.5033 -0.6313 -1.3293
   18CHTO   O49 7347   6.033   8.009  -0.277  0.1324 -0.3082  0.2729
   18CHTO   C77 7348   6.013   8.006  -0.419  0.2424 -0.2122 -0.2739
   18CHTO  H149 7349   5.928   8.067  -0.448 -0.8989 -1.3312  0.6948
   18CHTO   C88 7350   5.965   7.864  -0.441 -0.2097 -0.3525 -0.2489
   18CHTO   O58 7351   5.954   7.831  -0.599  0.2217 -0.3890 -0.5045
   18CHTO  H136 7352   5.872   7.791  -0.623  0.0867  0.0504 -0.7935
   18CHTO   O51 7353   6.125   8.110  -0.070 -0.1548  0.3138 -0.2170
   18CHTO   C78 7354   6.018   8.010   0.026  0.9960 -0.1709  0.0032
   18CHTO  H150 7355   5.988   7.916  -0.025 -0.9748  0.2515  0.3230
   18CHTO   C80 7356   5.884   8.084   0.054 -0.5642 -0.3972 -0.1043
   18CHTO  H152 7357   5.904   8.187   0.091  0.4391 -0.5844 -0.0944
   18CHTO   O55 7358   5.809   8.077  -0.066 -0.5290  0.3207  0.7227
   18CHTO  H134 7359   5.787   7.986  -0.078  2.4063 -0.3231 -0.2835
   18CHTO   C84 7360   5.809   8.004   0.167  0.6427 -0.4480  0.1499
   18CHTO  H156 7361   5.768   7.914   0.121 -0.1844  0.2046 -0.4016
   18CHTO   N15 7362   5.685   8.075   0.220 -0.6013  0.3390  0.1217
   18CHTO  H143 7363   5.677   8.176   0.185  1.4680 -0.1381 -1.8781
   18CHTO  H144 7364   5.595   8.021   0.201 -0.4476 -0.8364  2.5489
   18CHTO   C87 7365   5.897   7.967   0.291  0.3158 -0.5367  0.0540
   18CHTO  H159 7366   5.923   8.054   0.351 -1.6561 -0.5142  0.9062
   18CHTO   O53 7367   6.011   7.895   0.249 -0.4769  0.1282  0.0547
   18CHTO   C82 7368   6.097   7.964   0.151 -0.0196  0.4429  0.0124
   18CHTO  H154 7369   6.146   8.046   0.202  1.0972 -0.7804  0.9470
   18CHTO   C89 7370   6.210   7.866   0.111  0.4168  0.1504 -0.2514
   18CHTO   O59 7371   6.278   7.808   0.213  0.0167 -0.2685 -0.2498
   18CHTO  H137 7372   6.220   7.777   0.279  1.2840  0.5198  1.2797
   18CHTO   O45 7373   5.818   7.871   0.403  0.3547  0.5496 -0.0649
   18CHTO   C67 7374   5.882   7.882   0.533 -0.2232 -0.8407  0.0592
   18CHTO  H124 7375   5.961   7.957   0.524 -1.1880  0.2228  0.2728
   18CHTO   C65 7376   5.770   7.932   0.646  0.1541 -0.4229 -0.7055
   18CHTO  H122 7377   5.682   7.871   0.625 -0.0023 -0.0760 -1.0718
   18CHTO   O44 7378   5.748   8.075   0.628 -0.5234  0.8570  0.1409
   18CHTO  H102 7379   5.771   8.114   0.710  1.7576 -1.0967  0.4820
   18CHTO   C63 7380   5.798   7.875   0.791 -0.0963 -0.5936  0.2513
   18CHTO  H120 7381   5.745   7.780   0.802  0.5456 -1.1615 -1.3933
   18CHTO   N11 7382   5.727   7.953   0.899 -0.0144  0.3813 -0.9258
   18CHTO  H108 7383   5.621   7.951   0.886  0.1927  2.1107 -3.2402
   18CHTO  H109 7384   5.748   7.929   1.001 -1.6970  2.8316  0.0558
   18CHTO   C61 7385   5.948   7.850   0.809 -0.0324  0.4171  0.3257
   18CHTO  H118 7386   5.958   7.809   0.910 -0.6916 -0.0946  0.1834
   18CHTO   O40 7387   6.006   7.759   0.712  0.2478  0.3212  0.7531
   18CHTO   C68 7388   5.947   7.747   0.580 -0.4590  0.2480  0.5361
   18CHTO  H125 7389   5.869   7.668   0.588  0.2636 -0.3925  1.4381
   18CHTO   C72 7390   6.062   7.690   0.472  0.2950  0.0698  0.2179
   18CHTO   O48 7391   6.003   7.614   0.364 -0.4477  0.6661  0.3562
   18CHTO  H105 7392   5.962   7.533   0.386  1.0643 -0.5133 -1.0433
   18CHTO   O38 7393   6.017   7.975   0.798 -0.0081  0.0833 -0.4270
   18CHTO   C55 7394   6.143   7.979   0.865 -0.2586 -0.5245 -0.2330
   18CHTO  H112 7395   6.177   7.875   0.879  1.0208  0.4206  4.3446
   18CHTO   C56 7396   6.136   8.057   1.003 -0.1145  0.2957 -0.0917
   18CHTO  H113 7397   6.092   8.154   0.978 -0.0177  0.1147 -0.9871
   18CHTO   O42 7398   6.036   7.986   1.086  0.3591  0.0933  0.1832
   18CHTO  H100 7399   6.037   8.012   1.176  1.1511  0.1394  0.1723
   18CHTO   C57 7400   6.280   8.062   1.066  0.7774  0.1817 -0.0493
   18CHTO  H114 7401   6.318   7.962   1.088 -0.2888  0.0451  1.1941
   18CHTO   N10 7402   6.271   8.147   1.192  0.0316  0.2402  0.2473
   18CHTO  H106 7403   6.213   8.234   1.167 -0.4465  0.1366  1.0008
   18CHTO  H107 7404   6.370   8.178   1.220  1.1931 -1.4889 -1.7347
   18CHTO   C58 7405   6.375   8.127   0.965 -0.6471  0.1614 -0.6023
   18CHTO  H115 7406   6.339   8.231   0.954 -3.0109 -0.8520 -2.6549
   18CHTO   O37 7407   6.373   8.061   0.840 -0.3989  0.2274  0.5452
   18CHTO   C59 7408   6.249   8.054   0.773  1.0508 -0.0218  0.1706
   18CHTO  H116 7409   6.204   8.151   0.752 -3.8797 -1.4554  3.2271
   18CHTO   C70 7410   6.270   7.975   0.644  0.6736 -0.2996  0.5953
   18CHTO   O46 7411   6.326   7.847   0.650 -0.8592  0.5801  0.0408
   18CHTO  H103 7412   6.258   7.791   0.679 -2.4479  1.2983 -2.1376
   18CHTO   O39 7413   6.520   8.135   1.027  0.1309 -0.2424 -0.1157
   18CHTO   C60 7414   6.600   8.013   1.015  0.3418 -0.3045 -0.1972
   18CHTO  H117 7415   6.529   7.931   1.010 -0.7444  0.5963  0.3057
   18CHTO   C62 7416   6.691   8.008   0.886 -0.0466 -0.0088  0.0537
   18CHTO  H119 7417   6.625   8.052   0.809 -1.6756 -2.7158 -0.1565
   18CHTO   O43 7418   6.801   8.102   0.898 -0.8926  0.3731 -0.0083
   18CHTO  H101 7419   6.847   8.109   0.816  0.3115  1.8051  0.7604
   18CHTO   C66 7420   6.738   7.859   0.857 -0.0216 -0.4941 -0.0866
   18CHTO  H123 7421   6.652   7.794   0.836  0.1750 -0.5573 -0.6953
   18CHTO   N12 7422   6.818   7.853   0.734  0.1715 -0.4188 -0.1355
   18CHTO  H110 7423   6.848   7.953   0.707  0.3851 -1.0671 -2.3800
   18CHTO  H111 7424   6.764   7.806   0.654 -2.2961  0.6102  0.8543
   18CHTO   C69 7425   6.812   7.795   0.978 -0.3054 -0.3617 -0.3587
   18CHTO  H126 7426   6.923   7.805   0.970 -0.5094  0.7402 -2.1614
   18CHTO   O41 7427   6.761   7.864   1.141 -0.2273 -0.5091  0.1861
   18CHTO   C64 7428   6.681   7.995   1.149  0.1639 -0.0760  0.3874
   18CHTO  H121 7429   6.751   8.080   1.156 -1.1353  1.2268 -1.8169
   18CHTO   C71 7430   6.593   7.997   1.269 -0.1834 -0.2012  0.0781
   18CHTO   O47 7431   6.657   8.006   1.398 -0.0268  0.1030 -0.2960
   18CHTO  H104 7432   6.735   8.057   1.389 -0.4200  0.6435 -0.6921
   18CHTO   O34 7433   6.772   7.652   0.985 -0.4464  0.0464  0.3435
   18CHTO   C49 7434   6.698   7.525   1.019 -0.6022  0.1867  0.5632
   18CHTO   H91 7435   6.765   7.439   1.012 -0.1820  0.5628 -0.1715
   18CHTO   C47 7436   6.567   7.508   0.937  0.4588 -0.2595  0.1425
   18CHTO   H89 7437   6.534   7.405   0.963 -0.7141  0.6425  2.3619
   18CHTO   O33 7438   6.607   7.504   0.797 -0.6600  0.3008  0.1327
   18CHTO   H70 7439   6.616   7.587   0.754 -0.9536  0.7686  0.9560
   18CHTO   C45 7440   6.449   7.617   0.965 -0.2319 -0.3690 -0.1295
   18CHTO   H87 7441   6.485   7.711   0.921  1.7803 -0.6451  0.8768
   18CHTO    N8 7442   6.324   7.579   0.891  0.0134 -0.5651 -0.0203
   18CHTO   H75 7443   6.249   7.566   0.968  2.0842 -1.2733  1.9454
   18CHTO   H76 7444   6.294   7.665   0.833 -0.8510 -1.7134 -1.2882
   18CHTO   C43 7445   6.436   7.645   1.127 -0.0873  0.3874  0.3497
   18CHTO   H85 7446   6.390   7.744   1.130  2.8610  1.8570 -0.2192
   18CHTO   O29 7447   6.564   7.648   1.186 -0.1089  0.6688 -1.0717
   18CHTO   C50 7448   6.658   7.542   1.165 -0.3460 -0.4866 -0.0463
   18CHTO   H92 7449   6.753   7.569   1.213  0.1109  0.4505 -1.4221
   18CHTO   C54 7450   6.627   7.407   1.244  0.0851 -0.1822 -0.4362
   18CHTO   O36 7451   6.628   7.444   1.382  0.2094  0.4635 -0.3591
   18CHTO   H72 7452   6.664   7.527   1.406 -0.5234  0.0411  2.3488
   18CHTO   O27 7453   6.337   7.556   1.190  0.0746 -0.0257  0.7826
   18CHTO   C37 7454   6.251   7.605   1.296  0.2908 -0.2788 -0.0840
   18CHTO   H79 7455   6.221   7.520   1.360  1.7782  0.2511  1.3401
   18CHTO   C38 7456   6.318   7.706   1.399 -0.2177 -0.1209 -0.0574
   18CHTO   H80 7457   6.373   7.783   1.344 -2.3752  1.3667 -0.1651
   18CHTO   O31 7458   6.413   7.632   1.483  0.4207 -0.3104 -0.1928
   18CHTO   H68 7459   6.484   7.590   1.439 -2.0634 -2.3450 -2.4429
   18CHTO   C39 7460   6.224   7.798   1.489 -0.5503 -0.6086 -0.2271
   18CHTO   H81 7461   6.204   7.740   1.579  1.0608  0.3995  0.8038
   18CHTO    N7 7462   6.293   7.914   1.545  0.7777 -0.2390 -0.6893
   18CHTO   H73 7463   6.216   7.988   1.562 -0.0484 -0.6736 -2.3931
   18CHTO   H74 7464   6.360   7.892   1.626 -2.0255  1.4178  2.2251
   18CHTO   C40 7465   6.092   7.828   1.415 -0.1834 -0.7168 -0.3915
   18CHTO   H82 7466   6.094   7.911   1.345 -1.2516  0.4052  0.8768
   18CHTO   O26 7467   6.049   7.713   1.353  0.4563  0.3831  0.2762
   18CHTO   C41 7468   6.122   7.663   1.237 -0.8442  0.3775  0.1948
   18CHTO   H83 7469   6.142   7.733   1.155 -0.9133  0.4176  0.2122
   18CHTO   C52 7470   6.039   7.550   1.171 -0.6302  0.0107  0.3554
   18CHTO   O35 7471   5.923   7.604   1.080 -0.1138 -0.2858  0.3978
   18CHTO   H71 7472   5.970   7.616   0.999 -2.1501  1.3649 -0.5919
   18CHTO   O28 7473   5.990   7.866   1.502 -0.0828 -0.4003 -0.5979
   18CHTO   C42 7474   5.846   7.875   1.481  0.0341  0.6011 -0.2993
   18CHTO   H84 7475   5.811   7.940   1.561 -0.1295 -0.2579  0.3358
   18CHTO   C44 7476   5.766   7.740   1.496 -0.2770 -0.1158  0.8162
   18CHTO   H86 7477   5.800   7.678   1.413  2.6721  0.7075  1.3320
   18CHTO   O32 7478   5.810   7.687   1.620  0.6129  0.4771  0.0003
   18CHTO   H69 7479   5.771   7.603   1.631  0.0614  0.6406 -0.7309
   18CHTO   C48 7480   5.608   7.762   1.480  0.1664  0.5059 -0.5530
   18CHTO   H90 7481   5.566   7.819   1.563  0.1142  1.4423 -1.2134
   18CHTO    N9 7482   5.535   7.633   1.499 -0.0752 -0.0124  0.2719
   18CHTO   H77 7483   5.556   7.579   1.407 -2.3342  0.0582 -0.3035
   18CHTO   H78 7484   5.428   7.646   1.501 -0.5371 -3.4915  3.1741
   18CHTO   C51 7485   5.578   7.830   1.344  0.4855 -0.8740  0.4378
   18CHTO   H93 7486   5.612   7.759   1.268  1.0775 -1.0972  0.8959
   18CHTO   O30 7487   5.637   7.954   1.339 -0.0603  0.5321  0.2365
   18CHTO   C46 7488   5.803   7.940   1.347 -0.1732  0.0339  0.8636
   18CHTO   H88 7489   5.844   7.886   1.262 -0.8242 -0.5962  0.9457
   18CHTO   C53 7490   5.860   8.088   1.341 -0.6770  0.3532 -0.1452
   18CHTO   O72 7491   5.802   8.164   1.238  0.4375 -0.7403  0.4242
   18CHTO  H199 7492   5.800   8.257   1.251  0.6070 -0.4711 -1.3241
   18CHTO   O22 7493   5.440   7.849   1.318 -0.1550 -0.1445 -0.1308
   18CHTO   C31 7494   5.368   7.861   1.189 -1.0484 -0.2005  0.1800
   18CHTO   H59 7495   5.264   7.825   1.205 -0.4791 -2.1967 -0.4630
   18CHTO   C29 7496   5.355   8.004   1.139 -0.0566 -0.2462  0.3471
   18CHTO   H57 7497   5.459   8.038   1.127  0.7032 -2.2292  1.1707
   18CHTO   O21 7498   5.290   8.074   1.246  0.3527 -0.0562 -0.0315
   18CHTO   H37 7499   5.201   8.047   1.255  0.4154 -0.6087 -1.0870
   18CHTO   C27 7500   5.273   8.020   1.001 -0.0450  0.1326 -0.2488
   18CHTO   H55 7501   5.166   8.004   1.021  0.1078  0.7100  1.0309
   18CHTO    N5 7502   5.287   8.155   0.944  0.1191  0.5555  0.0598
   18CHTO   H43 7503   5.375   8.171   0.884  1.9324 -0.6815  2.3156
   18CHTO   H44 7504   5.205   8.162   0.874  0.5994  0.7175 -0.4920
   18CHTO   C25 7505   5.314   7.904   0.903 -0.3431 -0.6253 -0.1447
   18CHTO   H53 7506   5.413   7.929   0.862 -0.4185  0.9892  0.6403
   18CHTO   O17 7507   5.309   7.778   0.972 -0.5972 -0.1158 -0.4815
   18CHTO   C32 7508   5.415   7.767   1.071 -0.1676  0.0712  0.0199
   18CHTO   H60 7509   5.512   7.796   1.031 -0.8598 -2.8412 -4.0208
   18CHTO   C36 7510   5.412   7.620   1.103  0.5012 -0.7948  0.0473
   18CHTO   O25 7511   5.432   7.534   0.991  0.0681 -0.8018 -0.4370
   18CHTO   H40 7512   5.500   7.470   1.002 -0.9302 -1.7382  0.5899
   18CHTO   O15 7513   5.203   7.906   0.763 -0.3979 -0.4405  0.1002
   18CHTO   C19 7514   5.221   7.867   0.626  0.0135 -0.4150 -0.4377
   18CHTO   H47 7515   5.123   7.830   0.593  0.1050 -2.7265  1.7759
   18CHTO   C20 7516   5.268   7.979   0.532  0.6405  0.0148 -0.1390
   18CHTO   H48 7517   5.365   8.020   0.564 -0.0834  2.2416 -0.7664
   18CHTO   O19 7518   5.187   8.093   0.543 -0.3800  0.2425 -0.2892
   18CHTO   H35 7519   5.195   8.156   0.475  0.1352 -0.3951 -0.8188
   18CHTO   C21 7520   5.269   7.921   0.377 -0.4105  0.0609 -0.4352
   18CHTO   H49 7521   5.169   7.881   0.357 -0.0143  1.0584 -4.9659
   18CHTO    N4 7522   5.315   8.025   0.282 -0.3153 -0.0829 -0.2776
   18CHTO   H41 7523   5.370   7.993   0.195  0.7356 -0.1609  0.4045
   18CHTO   H42 7524   5.363   8.109   0.330  1.8233 -1.6075  0.3370
   18CHTO   C22 7525   5.380   7.810   0.375  0.4297 -0.3430  0.0613
   18CHTO   H50 7526   5.474   7.853   0.409  0.0346  0.6381 -0.0990
   18CHTO   O14 7527   5.329   7.713   0.469  0.1334 -0.0910  0.2674
   18CHTO   C23 7528   5.320   7.747   0.608 -0.7355 -0.2996  0.5040
   18CHTO   H51 7529   5.422   7.770   0.642 -0.1607 -1.1676 -0.5819
   18CHTO   C34 7530   5.277   7.627   0.685  0.1798 -0.1719  0.5128
   18CHTO   O23 7531   5.364   7.515   0.664  0.3789  0.1458 -0.4623
   18CHTO   H38 7532   5.372   7.470   0.746  0.2782  0.1223 -0.4664
   18CHTO   O16 7533   5.406   7.741   0.252  0.4500 -0.3062  0.1925
   18CHTO   C24 7534   5.551   7.717   0.225 -0.1770 -0.3891 -0.3571
   18CHTO   H52 7535   5.615   7.791   0.272  0.2729 -1.7116  1.1491
   18CHTO   C26 7536   5.564   7.725   0.069 -0.1985 -0.1033  0.3265
   18CHTO   H54 7537   5.479   7.666   0.027 -1.4318  1.8501 -0.0137
   18CHTO   O20 7538   5.547   7.867   0.029  0.2088 -0.1296  0.0111
   18CHTO   H36 7539   5.465   7.893   0.066 -1.1139 -2.0582 -1.4764
   18CHTO   C30 7540   5.704   7.673   0.012  0.1151 -0.3139 -0.6062
   18CHTO   H58 7541   5.787   7.743   0.031 -1.6265  1.0308  2.3516
   18CHTO    N6 7542   5.699   7.652  -0.133 -0.6471 -0.4406 -0.2677
   18CHTO   H45 7543   5.692   7.746  -0.185  0.1681  0.4655  1.2106
   18CHTO   H46 7544   5.613   7.590  -0.155 -1.3022  0.4121 -0.1179
   18CHTO   C33 7545   5.753   7.554   0.089 -0.3686 -0.2777 -0.3271
   18CHTO   H61 7546   5.701   7.466   0.048 -2.1185  1.3110 -1.6006
   18CHTO   O18 7547   5.729   7.556   0.228 -0.4944  0.3031  0.0343
   18CHTO   C28 7548   5.593   7.578   0.272  0.5005  0.3917 -0.7205
   18CHTO   H56 7549   5.535   7.501   0.222 -0.7373  0.3625  0.7213
   18CHTO   C35 7550   5.586   7.548   0.427 -0.2189  0.7398 -0.3043
   18CHTO   O24 7551   5.565   7.406   0.452  0.4996 -0.2400  0.0001
   18CHTO   H39 7552   5.531   7.407   0.539  1.6281  0.4026  0.4486
   18CHTO    O9 7553   5.894   7.535   0.062 -0.2400  0.2760  0.3419
   18CHTO   C13 7554   5.930   7.404   0.007  0.0515 -0.2923  0.9825
   18CHTO   H26 7555   5.871   7.391  -0.086 -0.8018  1.3341  1.2728
   18CHTO   C11 7556   5.901   7.288   0.117  0.3521  0.3551 -0.0351
   18CHTO   H24 7557   5.793   7.272   0.123  0.7625 -1.7027  3.1180
   18CHTO    O8 7558   5.952   7.324   0.254 -0.4294 -0.0699 -0.0641
   18CHTO    H3 7559   6.028   7.379   0.248 -0.4441  0.2624  2.2160
   18CHTO    C9 7560   5.980   7.160   0.070  0.2424 -0.1121  0.1264
   18CHTO   H22 7561   5.955   7.152  -0.037 -1.1298  0.1269  0.4159
   18CHTO    N2 7562   5.930   7.034   0.132  0.2141 -0.4288 -0.0142
   18CHTO   H10 7563   5.856   6.989   0.067 -0.7317 -1.6533  1.8701
   18CHTO   H11 7564   6.016   6.971   0.150 -0.9571 -1.5452  1.8967
   18CHTO    C7 7565   6.137   7.196   0.091 -0.0316 -0.3820  0.2087
   18CHTO   H20 7566   6.169   7.134   0.005 -1.1583 -0.6006 -0.0571
   18CHTO    O4 7567   6.158   7.334   0.054  0.2417 -0.1838  0.4960
   18CHTO   C14 7568   6.072   7.405  -0.046  0.1653  0.3979  0.4114
   18CHTO   H27 7569   6.079   7.334  -0.132  0.1881 -1.4997  1.9287
   18CHTO   C18 7570   6.121   7.538  -0.093  0.1618  0.5884 -0.8934
   18CHTO   O13 7571   6.037   7.586  -0.199  0.2024  0.1553  0.2393
   18CHTO    H7 7572   6.015   7.674  -0.175  3.4049  1.0168  0.2453
   18CHTO    O2 7573   6.207   7.170   0.239  0.3505  0.1590 -0.1333
   18CHTO    C1 7574   6.338   7.127   0.217  0.0801 -1.0369  0.0282
   18CHTO   H14 7575   6.384   7.185   0.135 -2.5379  1.5239  0.2857
   18CHTO    C2 7576   6.354   6.971   0.179 -0.7188 -0.6674 -0.0840
   18CHTO   H15 7577   6.292   6.911   0.247  0.8777 -3.8263 -1.3149
   18CHTO    O6 7578   6.312   6.939   0.048  0.3121 -0.5347  0.4019
   18CHTO    H1 7579   6.268   7.013   0.012  1.1703  0.0693  0.5703
   18CHTO    C3 7580   6.518   6.927   0.204  0.0897  0.7062  0.6765
   18CHTO   H16 7581   6.591   6.974   0.136  0.9338 -0.9299  0.4214
   18CHTO    N1 7582   6.541   6.775   0.172 -0.0916  0.2051 -0.2781
   18CHTO    H8 7583   6.641   6.733   0.180  0.1096  0.4800 -1.2640
   18CHTO    H9 7584   6.500   6.764   0.073 -1.1008  0.0777  0.1535
   18CHTO    C4 7585   6.555   6.972   0.347  0.2005  0.3359 -0.1204
   18CHTO   H17 7586   6.480   6.926   0.412  0.7277 -0.6934 -0.2260
   18CHTO    O1 7587   6.546   7.115   0.358  0.2421 -0.8784  0.5406
   18CHTO    C5 7588   6.403   7.157   0.360  0.3784 -0.0320 -0.0975
   18CHTO   H18 7589   6.346   7.100   0.433  0.5391 -0.0276  0.0312
   18CHTO   C16 7590   6.398   7.307   0.391  0.1616  0.4060  0.3358
   18CHTO   O11 7591   6.296   7.345   0.482  0.2380 -0.5380  0.2057
   18CHTO    H5 7592   6.300   7.303   0.566  0.7604  1.0665  1.0094
   18CHTO    O3 7593   6.694   6.947   0.378  0.1473 -0.1603  0.2106
   18CHTO    C6 7594   6.723   6.886   0.514  0.9298 -0.2399 -0.3502
   18CHTO   H19 7595   6.632   6.873   0.573  2.6807 -1.3789  2.2179
   18CHTO    C8 7596   6.799   6.749   0.501  0.2150  0.0919  0.0696
   18CHTO   H21 7597   6.893   6.770   0.449 -1.7469  1.6972 -2.9702
   18CHTO    O7 7598   6.728   6.658   0.414 -0.3659 -0.7186 -0.4493
   18CHTO    H2 7599   6.775   6.661   0.333 -0.5878 -0.2246 -0.5627
   18CHTO   C12 7600   6.826   6.684   0.638  0.2577  1.2178 -0.4071
   18CHTO   H25 7601   6.727   6.664   0.684  1.4005 -0.8467  1.2276
   18CHTO    N3 7602   6.912   6.556   0.634  0.1342  0.0120  0.5879
   18CHTO   H12 7603   6.863   6.483   0.696 -1.2166 -1.7620 -2.4446
   18CHTO   H13 7604   7.013   6.577   0.665  0.8742 -0.1889 -1.5596
   18CHTO   C15 7605   6.895   6.788   0.742  0.4183  0.3144  0.8398
   18CHTO   H28 7606   7.003   6.798   0.733  0.3562  0.3925  0.1744
   18CHTO   O10 7607   6.873   6.747   0.880  0.5546 -1.1159  0.2450
   18CHTO    H4 7608   6.791   6.703   0.892 -0.5324  0.5036 -0.9129
   18CHTO    O5 7609   6.824   6.912   0.744 -0.0875  0.2596  0.1442
   18CHTO   C10 7610   6.816   6.972   0.610 -0.2674 -0.2428 -0.0297
   18CHTO   H23 7611   6.917   6.969   0.568 -0.4552 -0.4069 -0.4752
   18CHTO   C17 7612   6.785   7.126   0.616  0.9713  0.6166  0.4573
   18CHTO   O12 7613   6.790   7.192   0.490 -0.2871  0.0749 -0.4265
   18CHTO    H6 7614   6.725   7.259   0.495 -1.7080 -1.2249 -0.9917
   19CHTO  H203 7615   6.970   8.587   1.590 -0.8063 -2.3390  2.2585
   19CHTO   O82 7616   6.882   8.614   1.609 -0.3475  0.6830  0.3973
   19CHTO  C123 7617   6.826   8.545   1.728 -0.8977  0.0206  0.2664
   19CHTO  H227 7618   6.779   8.619   1.795  1.1028  1.3449  0.2328
   19CHTO   O77 7619   6.713   8.468   1.678  0.0864  0.2456  0.6613
   19CHTO  C118 7620   6.637   8.404   1.781  0.0132 -0.7338  0.7324
   19CHTO  H222 7621   6.588   8.479   1.845  0.4910 -1.7309  2.2963
   19CHTO  C125 7622   6.514   8.325   1.718  0.8030 -0.2715 -0.0984
   19CHTO   O84 7623   6.543   8.229   1.617 -0.2963  0.3339  0.1069
   19CHTO  H205 7624   6.576   8.264   1.536 -1.9226 -0.6267 -0.9998
   19CHTO  C114 7625   6.716   8.312   1.867 -0.8211  0.7467 -0.0584
   19CHTO  H218 7626   6.756   8.232   1.805  1.1070  0.4077  1.5708
   19CHTO  C116 7627   6.851   8.371   1.916  0.3246 -0.5198 -0.1205
   19CHTO  H220 7628   6.831   8.449   1.993 -0.1860 -1.5915  0.8389
   19CHTO   O79 7629   6.926   8.265   1.977  0.3642  0.0043  0.2672
   19CHTO  H201 7630   6.870   8.199   2.012 -1.7534  1.7272  0.2184
   19CHTO  C120 7631   6.928   8.444   1.798  1.2222  0.1591 -0.0313
   19CHTO  H224 7632   6.948   8.356   1.733  0.2658  0.4169 -0.6923
   19CHTO   N21 7633   7.054   8.513   1.838 -0.1268 -0.5542  0.3621
   19CHTO  H211 7634   7.034   8.614   1.870 -0.5310 -0.9400  1.3490
   19CHTO  H212 7635   7.096   8.456   1.919 -1.3571  0.2158  1.5682
   19CHTO   O75 7636   6.631   8.263   1.971  0.7835 -0.4078 -0.2413
   19CHTO  C112 7637   6.627   8.091   2.004  0.3522 -0.3127 -0.0938
   19CHTO  H216 7638   6.712   8.065   2.069 -0.5861 -0.8176  0.9496
   19CHTO   O73 7639   6.633   8.020   1.879 -0.1563  0.2632  0.0879
   19CHTO  C113 7640   6.625   7.881   1.898  0.3696  0.0518  0.3090
   19CHTO  H217 7641   6.708   7.840   1.960  0.1364 -1.1029 -0.1246
   19CHTO  C124 7642   6.666   7.818   1.762  0.0859  0.3526  0.6634
   19CHTO   O83 7643   6.567   7.852   1.668 -0.1492 -0.3032 -0.1553
   19CHTO  H204 7644   6.483   7.820   1.695 -0.5583  0.8706  0.0295
   19CHTO  C109 7645   6.483   7.832   1.946  0.2969 -0.1508 -0.2168
   19CHTO  H213 7646   6.410   7.862   1.869 -2.2979 -3.0126  1.0155
   19CHTO  C110 7647   6.444   7.911   2.072 -0.3008 -0.3202 -0.1763
   19CHTO  H214 7648   6.499   7.862   2.152 -0.7534 -1.3092 -0.4669
   19CHTO   O78 7649   6.306   7.891   2.105  0.1750 -0.0251  0.2971
   19CHTO  H200 7650   6.258   7.953   2.054 -0.5628  1.8918  3.2106
   19CHTO  C111 7651   6.486   8.063   2.072 -0.1557 -0.4036  0.4579
   19CHTO  H215 7652   6.410   8.121   2.016 -0.5579 -2.4291 -1.1755
   19CHTO   N19 7653   6.493   8.118   2.208 -0.5820  0.2461  0.6192
   19CHTO  H207 7654   6.508   8.224   2.196  0.5797  0.0964  0.7531
   19CHTO  H208 7655   6.395   8.107   2.254 -0.4869  1.3721  1.1052
   19CHTO   O74 7656   6.477   7.684   1.966  0.3168  0.5790  0.0390
   19CHTO  C115 7657   6.409   7.596   1.848  0.5146 -0.7912  0.1221
   19CHTO  H219 7658   6.378   7.660   1.765 -1.5040  2.0430  2.9709
   19CHTO   O76 7659   6.528   7.498   1.774 -0.2007  0.1496 -0.1903
   19CHTO  C122 7660   6.564   7.375   1.837 -0.3357 -0.4217  0.7681
   19CHTO  H226 7661   6.655   7.392   1.894 -0.2672 -2.3783  1.2601
   19CHTO  C126 7662   6.612   7.276   1.724 -0.1636 -0.7917  0.3590
   19CHTO   O85 7663   6.655   7.146   1.767  0.2589 -0.7538  0.1258
   19CHTO  H206 7664   6.711   7.103   1.705  0.3156 -0.6558  0.1086
   19CHTO  C121 7665   6.445   7.309   1.911  0.3186  0.2389  0.0118
   19CHTO  H225 7666   6.455   7.201   1.887 -0.4208 -0.4251  2.4989
   19CHTO   O81 7667   6.474   7.305   2.050  0.0636  0.1327  0.2217
   19CHTO  H202 7668   6.551   7.252   2.058  0.3907  0.0675 -2.7160
   19CHTO  C119 7669   6.308   7.362   1.862  1.0013  0.7531  0.4731
   19CHTO  H223 7670   6.307   7.354   1.753 -0.7439 -1.0849  0.5797
   19CHTO  C117 7671   6.287   7.510   1.911  0.2611 -0.5619  0.1942
   19CHTO  H221 7672   6.294   7.528   2.018 -0.4048 -0.1041  0.1611
   19CHTO   N20 7673   6.165   7.573   1.867  0.5184 -0.0644  0.3443
   19CHTO  H209 7674   6.080   7.509   1.882 -0.8950  1.0203 -2.6795
   19CHTO  H210 7675   6.139   7.658   1.929 -1.1318  0.0695 -0.5186
   19CHTO   O80 7676   6.190   7.255   1.903  0.2180 -0.2547  0.0807
   19CHTO  C103 7677   6.181   7.114   1.825 -0.1679 -0.0664  0.1311
   19CHTO  H190 7678   6.256   7.109   1.746 -0.9055 -1.9687 -0.4859
   19CHTO  C101 7679   6.207   6.991   1.916  0.2457  0.3697 -0.1027
   19CHTO  H188 7680   6.150   7.008   2.008  2.1879  0.3412  1.1462
   19CHTO   O68 7681   6.371   6.982   1.949 -0.0769 -0.7148  0.8597
   19CHTO  H168 7682   6.415   7.063   1.938  1.3305 -1.5529  0.2021
   19CHTO   C99 7683   6.150   6.864   1.841  0.2411 -0.1941 -0.1472
   19CHTO  H186 7684   6.211   6.843   1.751  0.5981  0.1587  0.0109
   19CHTO   N17 7685   6.163   6.744   1.928 -0.3836 -0.0416  0.3959
   19CHTO  H174 7686   6.090   6.748   2.008  1.9726 -3.0719  2.8004
   19CHTO  H175 7687   6.264   6.745   1.965 -0.8457 -2.2617  1.7654
   19CHTO   C97 7688   6.006   6.877   1.785  0.6800 -0.3134  0.0153
   19CHTO  H184 7689   5.944   6.895   1.874  0.3083  0.1357 -0.3304
   19CHTO   O64 7690   5.995   6.988   1.697  0.2553 -0.3672 -0.5895
   19CHTO  C104 7691   6.038   7.114   1.760  0.7153 -0.3037  0.3056
   19CHTO  H191 7692   5.971   7.146   1.840  0.2970 -0.8114  0.1594
   19CHTO  C108 7693   6.029   7.223   1.655  0.1525  0.3982  0.4821
   19CHTO   O71 7694   5.914   7.239   1.576 -0.1341 -0.7274 -0.1735
   19CHTO  H171 7695   5.945   7.213   1.491  0.3376 -0.2882 -0.1431
   19CHTO   O62 7696   5.954   6.767   1.711  0.5135 -0.2065 -0.1311
   19CHTO   C91 7697   5.810   6.771   1.692 -0.1690  0.1899  0.2285
   19CHTO  H178 7698   5.776   6.870   1.722 -3.5416 -0.3613 -1.4858
   19CHTO   C92 7699   5.747   6.671   1.794 -0.0485 -0.1921  0.1747
   19CHTO  H179 7700   5.812   6.583   1.795  0.3080  0.0156 -1.8146
   19CHTO   O66 7701   5.771   6.720   1.924 -0.2576 -0.7427  0.2376
   19CHTO  H166 7702   5.846   6.683   1.966  0.0708  0.9556  1.2195
   19CHTO   C93 7703   5.587   6.645   1.773 -0.3306  0.0762 -0.4236
   19CHTO  H180 7704   5.537   6.731   1.821  1.5314  0.7767  0.3107
   19CHTO   N16 7705   5.531   6.520   1.832 -0.5061 -0.2150 -0.7108
   19CHTO  H172 7706   5.499   6.463   1.745 -1.6474  0.5906 -0.8238
   19CHTO  H173 7707   5.452   6.529   1.904 -0.7231 -1.2902 -0.7972
   19CHTO   C94 7708   5.558   6.650   1.619  0.0225  0.0449 -0.2816
   19CHTO  H181 7709   5.601   6.566   1.565  2.2753  1.6905 -1.1355
   19CHTO   O61 7710   5.613   6.764   1.554 -0.0937  0.2875 -0.1715
   19CHTO   C95 7711   5.757   6.760   1.547 -0.4640  0.7778 -0.2164
   19CHTO  H182 7712   5.782   6.666   1.500 -1.8538  0.3789 -0.1849
   19CHTO  C106 7713   5.802   6.874   1.456 -0.0998  0.3258  0.2840
   19CHTO   O69 7714   5.818   6.829   1.321  0.0389  0.8265  0.1145
   19CHTO  H169 7715   5.738   6.828   1.273  0.1182  0.6075 -0.0137
   19CHTO   O63 7716   5.386   6.663   1.601 -0.3376 -0.2491  0.0308
   19CHTO   C96 7717   5.336   6.655   1.455 -0.6018 -0.1564 -0.0641
   19CHTO  H183 7718   5.395   6.729   1.400  1.5369 -1.5871  0.2512
   19CHTO   C98 7719   5.190   6.686   1.454  0.2554 -0.2824  0.1751
   19CHTO  H185 7720   5.172   6.771   1.521  1.2091 -0.6680  0.9375
   19CHTO   O67 7721   5.156   6.727   1.327  0.4082  0.3407 -0.2343
   19CHTO  H167 7722   5.070   6.763   1.339 -0.1217 -1.2603  0.8142
   19CHTO  C102 7723   5.093   6.561   1.491 -0.6721 -0.0535 -0.2476
   19CHTO  H189 7724   4.997   6.596   1.449 -0.5022  1.1382  0.3155
   19CHTO   N18 7725   5.077   6.546   1.638 -0.8728  0.0981 -0.6286
   19CHTO  H176 7726   5.135   6.467   1.683 -0.9017 -0.3853 -1.4316
   19CHTO  H177 7727   4.974   6.520   1.658 -1.0739  0.3942 -1.2541
   19CHTO  C105 7728   5.145   6.425   1.427  0.6419 -0.4708  0.1747
   19CHTO  H192 7729   5.168   6.351   1.503 -0.8974 -2.5948 -1.3398
   19CHTO   O65 7730   5.261   6.439   1.345  0.4548  0.2369  0.0655
   19CHTO  C100 7731   5.372   6.506   1.402  0.4742 -0.0033 -0.9549
   19CHTO  H187 7732   5.410   6.444   1.485  1.2784  0.3152 -1.0765
   19CHTO  C107 7733   5.482   6.514   1.293  0.5585  0.1607  0.3159
   19CHTO   O70 7734   5.521   6.388   1.234  0.1959 -0.8147  0.1426
   19CHTO  H170 7735   5.478   6.313   1.271 -2.5694  1.0555  0.9030
   19CHTO   O57 7736   5.005   6.380   1.341  0.0045  0.1816  0.4006
   19CHTO   C85 7737   5.004   6.285   1.235  0.7006  0.6529 -0.1707
   19CHTO  H157 7738   5.058   6.192   1.264 -2.0111  0.0187  3.1375
   19CHTO   C83 7739   5.084   6.344   1.111  0.0168  0.0678  0.0977
   19CHTO  H155 7740   5.191   6.350   1.131  0.0210  0.7852 -0.1222
   19CHTO   O56 7741   5.040   6.481   1.104 -0.9386  0.0683  0.1759
   19CHTO  H135 7742   5.076   6.522   1.028 -2.8386  0.7612 -0.3943
   19CHTO   C81 7743   5.062   6.255   0.986 -0.1992  0.0588 -0.1429
   19CHTO  H153 7744   5.105   6.158   1.008 -0.6644  0.0195  0.6063
   19CHTO   N14 7745   5.134   6.297   0.865  0.1445 -0.6594  0.4695
   19CHTO  H141 7746   5.158   6.401   0.859 -2.0651 -0.0572  1.5127
   19CHTO  H142 7747   5.222   6.239   0.849 -0.3459 -0.9993 -1.0200
   19CHTO   C79 7748   4.910   6.234   0.953 -0.1997 -0.3952  0.1552
   19CHTO  H151 7749   4.902   6.171   0.864 -1.6215 -0.4645  0.3160
   19CHTO   O52 7750   4.845   6.175   1.065 -0.3772  0.0081 -0.1369
   19CHTO   C86 7751   4.854   6.251   1.183 -0.6263  0.1628 -0.1200
   19CHTO  H158 7752   4.816   6.352   1.157  1.1549  0.8227 -0.2297
   19CHTO   C90 7753   4.753   6.198   1.296  0.1219  0.2395  0.3740
   19CHTO   O60 7754   4.734   6.295   1.399  0.1326 -0.0347  0.4887
   19CHTO  H138 7755   4.656   6.271   1.445  1.6635  1.2515  3.9434
   19CHTO   O50 7756   4.843   6.359   0.917 -0.2879  0.0821  0.1627
   19CHTO   C73 7757   4.777   6.429   0.815  0.1400 -0.1342  0.2567
   19CHTO  H145 7758   4.707   6.363   0.762  1.4571 -1.0938 -0.3122
   19CHTO   C74 7759   4.861   6.502   0.709  0.3179 -0.1937 -0.0231
   19CHTO  H146 7760   4.915   6.432   0.643 -0.3226 -0.4426 -0.2835
   19CHTO   O54 7761   4.771   6.560   0.613 -0.0417  0.2799  0.1213
   19CHTO  H133 7762   4.719   6.630   0.648  1.2821  1.2505  0.2038
   19CHTO   C75 7763   4.953   6.606   0.778  0.2781  0.0609 -0.2272
   19CHTO  H147 7764   5.028   6.554   0.840 -1.3766  0.0341  1.8118
   19CHTO   N13 7765   5.047   6.676   0.681 -0.2270 -0.1793  0.0285
   19CHTO  H139 7766   5.107   6.751   0.729 -0.3008 -0.4352  0.5191
   19CHTO  H140 7767   4.987   6.722   0.604 -1.1613 -0.9537  0.2835
   19CHTO   C76 7768   4.866   6.703   0.862  0.1266 -0.3299 -0.1941
   19CHTO  H148 7769   4.822   6.770   0.787  3.7693  0.1824 -1.9856
   19CHTO   O49 7770   4.761   6.635   0.947  0.1750  0.0622 -0.3701
   19CHTO   C77 7771   4.681   6.535   0.889 -0.7748 -0.5075  0.2151
   19CHTO  H149 7772   4.616   6.582   0.815 -1.2256 -0.8771  0.3708
   19CHTO   C88 7773   4.585   6.468   0.994 -0.2826 -0.4458 -0.4148
   19CHTO   O58 7774   4.472   6.407   0.926 -0.0260  0.4164 -0.4533
   19CHTO  H136 7775   4.394   6.437   0.968 -1.6102 -2.9501 -0.8585
   19CHTO   O51 7776   4.960   6.779   0.956 -0.0940  0.7982 -0.4223
   19CHTO   C78 7777   4.928   6.938   0.977  0.7469  0.4397  0.3001
   19CHTO  H150 7778   4.824   6.947   0.937  1.1657  0.2428 -0.8702
   19CHTO   C80 7779   5.016   7.030   0.890  0.4049  0.0652  0.3244
   19CHTO  H152 7780   5.124   7.012   0.908  1.2876  3.1688 -1.5163
   19CHTO   O55 7781   4.993   6.996   0.751 -0.5230  0.3007  0.4138
   19CHTO  H134 7782   5.047   7.049   0.696  2.6864 -0.0389  3.0235
   19CHTO   C84 7783   4.985   7.181   0.924  0.4424  0.9169 -0.2530
   19CHTO  H156 7784   4.889   7.213   0.882 -0.9392  0.3886  2.3583
   19CHTO   N15 7785   5.083   7.267   0.855 -0.1960  1.0093 -0.0512
   19CHTO  H143 7786   5.115   7.352   0.911 -0.0879  1.2478 -0.4687
   19CHTO  H144 7787   5.173   7.213   0.837 -0.1510 -0.2021  3.5624
   19CHTO   C87 7788   4.977   7.211   1.078 -0.2295  0.0336 -0.0690
   19CHTO  H159 7789   5.077   7.206   1.119 -0.3611 -0.1495  0.2339
   19CHTO   O53 7790   4.896   7.115   1.135 -0.2753 -0.4262  0.4130
   19CHTO   C82 7791   4.940   6.982   1.122  0.2268 -0.5648 -0.3114
   19CHTO  H154 7792   5.045   6.966   1.146  0.3335  1.1256  0.4465
   19CHTO   C89 7793   4.859   6.905   1.225 -0.3164 -0.2046 -0.1412
   19CHTO   O59 7794   4.884   6.765   1.212  0.6849  0.0356  0.2194
   19CHTO  H137 7795   4.884   6.731   1.300  0.5633 -1.3979 -0.3081
   19CHTO   O45 7796   4.917   7.354   1.108 -0.2099  0.1805  0.0999
   19CHTO   C67 7797   4.923   7.401   1.243  0.0794 -0.3939 -0.0867
   19CHTO  H124 7798   4.937   7.314   1.307 -1.4861  0.1876  1.0570
   19CHTO   C65 7799   5.049   7.497   1.262  0.2151 -0.7895  0.3134
   19CHTO  H122 7800   5.066   7.552   1.170  0.1863 -0.3091  0.5909
   19CHTO   O44 7801   5.162   7.405   1.292  0.0119  0.0847 -0.0856
   19CHTO  H102 7802   5.237   7.461   1.292 -0.4192  0.6794 -0.5288
   19CHTO   C63 7803   5.019   7.611   1.373  0.0285  0.8896 -0.0738
   19CHTO  H120 7804   4.960   7.690   1.327  1.2006 -0.1584 -3.5261
   19CHTO   N11 7805   5.139   7.688   1.432 -0.5512 -0.3473  0.5184
   19CHTO  H108 7806   5.100   7.761   1.499 -2.2557 -2.4595  1.8981
   19CHTO  H109 7807   5.188   7.622   1.501 -2.3709 -0.2985  1.8690
   19CHTO   C61 7808   4.927   7.553   1.486  0.0395  0.6817 -0.7888
   19CHTO  H118 7809   4.919   7.635   1.558  0.2927 -2.3318  2.8326
   19CHTO   O40 7810   4.794   7.514   1.443 -0.2811  0.1633 -0.2995
   19CHTO   C68 7811   4.787   7.473   1.301 -0.3345  0.1453  0.1944
   19CHTO  H125 7812   4.773   7.570   1.247  1.6165  0.4007  0.0817
   19CHTO   C72 7813   4.669   7.389   1.272  0.5635 -0.2212  0.7801
   19CHTO   O48 7814   4.547   7.458   1.283 -0.2176 -0.1710  0.8541
   19CHTO  H105 7815   4.544   7.524   1.350 -0.1910  2.6004 -1.7619
   19CHTO   O38 7816   4.989   7.438   1.547  0.2897  0.4710 -0.4808
   19CHTO   C55 7817   4.917   7.343   1.624  0.3020  0.0805 -0.3959
   19CHTO  H112 7818   4.822   7.320   1.572  0.2401 -0.8933  0.1388
   19CHTO   C56 7819   4.894   7.400   1.771  0.2809 -0.4469  0.2760
   19CHTO  H113 7820   4.991   7.436   1.810  0.1520  0.5064 -0.2773
   19CHTO   O42 7821   4.799   7.512   1.759  0.0109  0.2893  0.3558
   19CHTO  H100 7822   4.839   7.590   1.726 -2.2000 -0.0711 -3.4184
   19CHTO   C57 7823   4.823   7.298   1.859  0.5464  0.1141 -0.7209
   19CHTO  H114 7824   4.721   7.293   1.821  0.5570 -0.6251 -0.6421
   19CHTO   N10 7825   4.818   7.343   1.997  0.0367 -0.2785 -0.1544
   19CHTO  H106 7826   4.761   7.273   2.056  3.4000 -1.5989  1.6713
   19CHTO  H107 7827   4.776   7.442   1.999 -0.2260 -0.3703 -0.9126
   19CHTO   C58 7828   4.888   7.159   1.848 -0.4040 -0.6664  0.7152
   19CHTO  H115 7829   4.982   7.155   1.907 -0.3534 -1.8416  0.5768
   19CHTO   O37 7830   4.925   7.117   1.712 -0.4103 -0.1087 -0.3120
   19CHTO   C59 7831   5.003   7.215   1.636  0.0567  0.5718 -0.7163
   19CHTO  H116 7832   5.104   7.240   1.668 -0.7657  1.3137  1.3611
   19CHTO   C70 7833   5.027   7.160   1.493 -0.0638  0.0705 -0.4117
   19CHTO   O46 7834   5.071   7.024   1.495  0.1159 -0.5614  0.2281
   19CHTO  H103 7835   5.163   7.037   1.511  0.1013  3.2862 -2.1437
   19CHTO   O39 7836   4.775   7.047   1.902 -0.0583 -0.3974 -0.2705
   19CHTO   C60 7837   4.683   7.003   1.802  0.1656  0.6604 -0.5391
   19CHTO  H117 7838   4.676   7.068   1.715  1.3027 -0.2919 -1.3485
   19CHTO   C62 7839   4.717   6.861   1.751  0.3379 -0.7431 -0.4743
   19CHTO  H119 7840   4.818   6.867   1.707  0.4742  1.0195  0.0270
   19CHTO   O43 7841   4.725   6.770   1.863  0.4320  0.0021 -0.1999
   19CHTO  H101 7842   4.650   6.779   1.917 -0.6418  3.0610 -2.0814
   19CHTO   C66 7843   4.622   6.822   1.634 -0.6357 -0.0320  0.5182
   19CHTO  H123 7844   4.631   6.903   1.562  0.9517 -0.0178  0.7236
   19CHTO   N12 7845   4.661   6.693   1.567  0.3217 -0.7477 -0.1240
   19CHTO  H110 7846   4.659   6.613   1.639  1.3060  1.0195  1.9533
   19CHTO  H111 7847   4.596   6.667   1.485  0.9862  1.5942 -1.4273
   19CHTO   C69 7848   4.477   6.827   1.681 -0.3077  0.4385 -0.1074
   19CHTO  H126 7849   4.454   6.749   1.757  1.0572 -0.2774 -0.4010
   19CHTO   O41 7850   4.445   6.985   1.755  0.7248 -0.1471 -0.6062
   19CHTO   C64 7851   4.542   7.004   1.874 -0.0283 -0.0909  0.0214
   19CHTO  H121 7852   4.524   6.920   1.944  0.0238 -1.5754 -1.7238
   19CHTO   C71 7853   4.502   7.131   1.937 -0.9238  0.1889 -0.6899
   19CHTO   O47 7854   4.544   7.128   2.072  0.4673 -0.1911 -0.3014
   19CHTO  H104 7855   4.636   7.137   2.084  0.3663  0.3562  0.1098
   19CHTO   O34 7856   4.391   6.801   1.585 -0.2550  0.4080  0.6523
   19CHTO   C49 7857   4.307   6.902   1.478  0.3504  0.6374  0.2519
   19CHTO   H91 7858   4.228   6.949   1.537 -1.3154 -1.0794 -0.5723
   19CHTO   C47 7859   4.251   6.822   1.368  0.3257  0.0816 -0.5074
   19CHTO   H89 7860   4.197   6.893   1.303  2.7982  0.7702 -1.8689
   19CHTO   O33 7861   4.159   6.724   1.424 -0.1308  0.2858 -0.4047
   19CHTO   H70 7862   4.101   6.691   1.359 -0.0658 -0.2593 -0.1892
   19CHTO   C45 7863   4.377   6.752   1.296  0.2725 -0.4474 -0.5468
   19CHTO   H87 7864   4.434   6.696   1.372  2.0605  1.3947 -0.4745
   19CHTO    N8 7865   4.327   6.655   1.193  0.2473 -0.0893  0.1020
   19CHTO   H75 7866   4.252   6.707   1.135 -1.5718 -0.9879  1.5761
   19CHTO   H76 7867   4.415   6.639   1.133  0.2133 -0.0605  0.0458
   19CHTO   C43 7868   4.475   6.866   1.237 -0.1422  0.2464  0.0678
   19CHTO   H85 7869   4.562   6.808   1.206 -0.5917 -0.8737  0.8404
   19CHTO   O29 7870   4.508   6.959   1.336 -0.2971 -0.0972 -0.2021
   19CHTO   C50 7871   4.409   7.008   1.420 -0.0558  0.4550 -0.1268
   19CHTO   H92 7872   4.460   7.048   1.509  0.2846 -0.6870  0.1896
   19CHTO   C54 7873   4.327   7.135   1.363 -0.2268  0.0567 -0.3589
   19CHTO   O36 7874   4.208   7.173   1.430  0.0184 -0.2073 -0.5895
   19CHTO   H72 7875   4.227   7.201   1.518 -1.1116 -0.5830 -0.2192
   19CHTO   O27 7876   4.421   6.937   1.127 -0.4673 -0.0217  0.4949
   19CHTO   C37 7877   4.430   7.013   1.002  0.0192  0.5042 -0.1888
   19CHTO   H79 7878   4.327   7.042   0.976  0.2053 -0.7764 -2.5041
   19CHTO   C38 7879   4.511   7.148   1.012 -0.4792  0.0527  0.2471
   19CHTO   H80 7880   4.606   7.127   1.063  1.6297  2.6673 -2.3679
   19CHTO   O31 7881   4.425   7.246   1.079  0.2488  0.2112 -0.1283
   19CHTO   H68 7882   4.469   7.329   1.072  2.0364 -0.9123 -3.3780
   19CHTO   C39 7883   4.547   7.218   0.872  0.3679  0.8514 -0.2985
   19CHTO   H81 7884   4.453   7.242   0.823 -0.6917 -0.2575  1.1240
   19CHTO    N7 7885   4.618   7.345   0.884  0.1947  0.0660 -0.9254
   19CHTO   H73 7886   4.704   7.330   0.821  1.7661 -0.0526  1.1700
   19CHTO   H74 7887   4.623   7.383   0.985  2.1188 -0.8811 -0.6490
   19CHTO   C40 7888   4.613   7.109   0.776  0.3223 -0.4654 -0.8317
   19CHTO   H82 7889   4.709   7.085   0.822  0.2831 -1.0911 -1.0731
   19CHTO   O26 7890   4.529   6.995   0.770 -0.4937  0.8403  0.0262
   19CHTO   C41 7891   4.484   6.921   0.890  0.0024  0.4412 -0.1076
   19CHTO   H83 7892   4.569   6.868   0.937 -0.4850 -0.7966 -0.6008
   19CHTO   C52 7893   4.378   6.819   0.845  0.2136 -0.0096  0.4538
   19CHTO   O35 7894   4.234   6.871   0.836 -0.3415  0.0676  0.5531
   19CHTO   H71 7895   4.211   6.940   0.895  0.5856  0.5058  0.4162
   19CHTO   O28 7896   4.625   7.157   0.637 -0.1730  0.7636  0.6453
   19CHTO   C42 7897   4.758   7.190   0.573  0.7048  0.3782 -0.5308
   19CHTO   H84 7898   4.829   7.191   0.655  0.2529  0.5341 -0.1403
   19CHTO   C44 7899   4.771   7.326   0.505 -0.2540 -0.6402  0.6681
   19CHTO   H86 7900   4.725   7.310   0.408  0.1532 -2.8777  0.8132
   19CHTO   O32 7901   4.703   7.428   0.579 -0.0761 -0.7440  0.3274
   19CHTO   H69 7902   4.721   7.432   0.670 -1.6975  0.6390  0.6233
   19CHTO   C48 7903   4.929   7.360   0.490  0.6738  0.0346 -0.2920
   19CHTO   H90 7904   4.986   7.366   0.583  0.0473  1.7179  0.0015
   19CHTO    N9 7905   4.943   7.494   0.419  0.1646  0.2047 -0.4148
   19CHTO   H77 7906   4.858   7.540   0.371 -0.3861 -1.7760 -1.3577
   19CHTO   H78 7907   5.009   7.572   0.455 -2.4198  1.9684  0.6576
   19CHTO   C51 7908   4.999   7.243   0.409  0.3116 -0.0211 -0.8297
   19CHTO   H93 7909   4.967   7.261   0.307 -1.7945  1.3725  0.0433
   19CHTO   O30 7910   4.960   7.114   0.462  0.3292  0.2863 -0.5695
   19CHTO   C46 7911   4.814   7.083   0.475 -0.2674  0.3195  0.4160
   19CHTO   H88 7912   4.770   7.092   0.376 -1.8096 -2.1816  0.8371
   19CHTO   C53 7913   4.804   6.929   0.513  0.5931 -0.5936  0.3373
   19CHTO   O72 7914   4.863   6.848   0.410 -0.2620  0.2839  0.0520
   19CHTO  H199 7915   4.791   6.805   0.367 -0.9610  2.4253 -1.0139
   19CHTO   O22 7916   5.143   7.259   0.420  1.0474  0.1900  0.3589
   19CHTO   C31 7917   5.230   7.183   0.336  0.3155 -0.2799  0.1020
   19CHTO   H59 7918   5.172   7.093   0.306  1.6646 -2.6963  4.2148
   19CHTO   C29 7919   5.291   7.253   0.216  0.0063 -0.1952  0.2882
   19CHTO   H57 7920   5.350   7.337   0.257 -0.1719 -0.7553  1.7312
   19CHTO   O21 7921   5.186   7.316   0.136 -0.5775 -0.1012 -0.3039
   19CHTO   H37 7922   5.111   7.263   0.117 -0.4779 -0.5945  0.6361
   19CHTO   C27 7923   5.384   7.150   0.137  0.9067  0.3795 -0.1654
   19CHTO   H55 7924   5.322   7.068   0.099  1.2924 -0.3936  0.8702
   19CHTO    N5 7925   5.454   7.211   0.019 -0.6570 -0.0559  0.1065
   19CHTO   H43 7926   5.509   7.130  -0.026  1.9288  1.5952  0.2480
   19CHTO   H44 7927   5.392   7.267  -0.049 -0.5450 -0.0372  0.0215
   19CHTO   C25 7928   5.492   7.091   0.234  0.0493  0.3364 -0.7093
   19CHTO   H53 7929   5.558   7.173   0.266  0.2537 -1.1087  2.7700
   19CHTO   O17 7930   5.427   7.039   0.352  0.7325 -0.3309  0.0466
   19CHTO   C32 7931   5.345   7.125   0.425 -0.0679 -0.2664  0.2870
   19CHTO   H60 7932   5.406   7.210   0.453  1.1143 -1.5172  1.5834
   19CHTO   C36 7933   5.301   7.060   0.556  0.5381 -0.2997 -0.0585
   19CHTO   O25 7934   5.200   6.959   0.539 -0.0481  0.1878  0.1094
   19CHTO   H40 7935   5.120   6.971   0.586 -0.2956  2.2220 -0.7627
   19CHTO   O15 7936   5.581   6.984   0.165  0.2523 -0.0146  0.1669
   19CHTO   C19 7937   5.575   6.861   0.082 -0.5639 -0.2941 -0.2760
   19CHTO   H47 7938   5.475   6.866   0.037  0.1121 -1.0775 -1.8914
   19CHTO   C20 7939   5.673   6.849  -0.040 -0.3400  0.4798 -0.0228
   19CHTO   H48 7940   5.778   6.855  -0.006 -1.0923 -2.2492  2.9847
   19CHTO   O19 7941   5.637   6.959  -0.124  0.5619 -0.7740 -0.2872
   19CHTO   H35 7942   5.679   7.032  -0.081 -4.0127  0.5109  2.5065
   19CHTO   C21 7943   5.661   6.710  -0.119 -0.1356  0.2382  0.3333
   19CHTO   H49 7944   5.575   6.721  -0.185 -0.5718  0.6345  0.9610
   19CHTO    N4 7945   5.782   6.684  -0.195 -0.0594  0.2459  0.1726
   19CHTO   H41 7946   5.798   6.584  -0.232  0.0803  0.3930 -0.1672
   19CHTO   H42 7947   5.817   6.759  -0.264 -1.0639 -0.2568 -0.8882
   19CHTO   C22 7948   5.630   6.596  -0.018 -0.0525 -0.2380  0.5263
   19CHTO   H50 7949   5.723   6.569   0.031 -0.4238  0.8950  1.8979
   19CHTO   O14 7950   5.538   6.621   0.086 -0.0988 -0.3238  0.2753
   19CHTO   C23 7951   5.585   6.729   0.167  0.5161 -0.4316  0.3224
   19CHTO   H51 7952   5.685   6.716   0.211  0.5079  0.0819  0.4956
   19CHTO   C34 7953   5.495   6.727   0.295 -0.5980  0.0053  0.4938
   19CHTO   O23 7954   5.357   6.742   0.250  0.2454 -0.1875 -0.7374
   19CHTO   H38 7955   5.294   6.739   0.320  0.5439 -2.2894 -0.5278
   19CHTO   O16 7956   5.576   6.491  -0.104  0.1101  0.1187  0.5909
   19CHTO   C24 7957   5.606   6.320  -0.086  0.3789  0.4772 -0.7226
   19CHTO   H52 7958   5.686   6.299  -0.015  0.1229  0.1232 -0.5380
   19CHTO   C26 7959   5.662   6.255  -0.212 -0.7528 -0.2041  0.4083
   19CHTO   H54 7960   5.604   6.293  -0.299  0.6721  0.7713 -0.1359
   19CHTO   O20 7961   5.799   6.320  -0.238  0.4391 -0.4138  0.3419
   19CHTO   H36 7962   5.785   6.405  -0.274 -0.9340 -0.7706 -0.0113
   19CHTO   C30 7963   5.669   6.097  -0.194  0.4091  0.3549 -0.1938
   19CHTO   H58 7964   5.740   6.083  -0.111  0.6662  0.3710 -0.4084
   19CHTO    N6 7965   5.722   6.022  -0.308 -0.0153 -0.2545 -0.0508
   19CHTO   H45 7966   5.645   5.993  -0.378 -0.7869 -0.3198  0.8125
   19CHTO   H46 7967   5.796   6.084  -0.358  2.2829 -2.3675  0.6159
   19CHTO   C33 7968   5.539   6.041  -0.139  0.4132 -0.1337  0.3518
   19CHTO   H61 7969   5.459   6.051  -0.214  1.2522  0.2793 -0.4853
   19CHTO   O18 7970   5.500   6.111  -0.018 -0.3710  0.1138 -0.2035
   19CHTO   C28 7971   5.477   6.252  -0.041  0.3708  0.0018 -0.1557
   19CHTO   H56 7972   5.399   6.266  -0.116  0.9087  0.3333 -0.6646
   19CHTO   C35 7973   5.432   6.310   0.095 -0.3110  1.0524 -0.6029
   19CHTO   O24 7974   5.525   6.273   0.201 -0.0566 -0.5709  0.0879
   19CHTO   H39 7975   5.557   6.185   0.189  0.3992 -0.2819 -0.8622
   19CHTO    O9 7976   5.556   5.894  -0.117  0.3579  0.4450  0.0503
   19CHTO   C13 7977   5.424   5.810  -0.120 -0.5492  0.0061 -0.4047
   19CHTO   H26 7978   5.373   5.836  -0.216 -0.7953 -1.0716 -0.5727
   19CHTO   C11 7979   5.330   5.844   0.000 -0.1375  0.7467 -0.0376
   19CHTO   H24 7980   5.298   5.948  -0.015 -1.7693  0.1242 -0.9964
   19CHTO    O8 7981   5.401   5.832   0.124  0.5019  0.4068 -0.2964
   19CHTO    H3 7982   5.348   5.848   0.200 -0.5381  0.5593 -1.0343
   19CHTO    C9 7983   5.208   5.745  -0.019  0.3154  0.3203  0.2116
   19CHTO   H22 7984   5.174   5.758  -0.123  1.3571  0.1528 -0.1647
   19CHTO    N2 7985   5.095   5.781   0.069 -0.6103 -0.2569 -0.6174
   19CHTO   H10 7986   5.113   5.755   0.173 -2.0615 -2.7670 -0.9599
   19CHTO   H11 7987   5.004   5.736   0.032 -1.6217 -0.7664  2.2730
   19CHTO    C7 7988   5.255   5.591  -0.007 -0.2534 -0.9990 -0.2189
   19CHTO   H20 7989   5.204   5.534  -0.087 -0.5398  0.0216 -0.7814
   19CHTO    O4 7990   5.398   5.577  -0.013  0.0842  0.7300 -0.3085
   19CHTO   C14 7991   5.458   5.650  -0.117  0.1846 -0.1034 -0.5229
   19CHTO   H27 7992   5.430   5.596  -0.210  0.2901  0.5933 -0.9619
   19CHTO   C18 7993   5.611   5.625  -0.088  0.2246  0.3764  0.3351
   19CHTO   O13 7994   5.711   5.651  -0.184  0.2177  0.5184 -0.5347
   19CHTO    H7 7995   5.725   5.565  -0.218 -1.8363  0.1743 -0.5318
   19CHTO    O2 7996   5.212   5.526   0.138  0.0992  0.4237  0.0674
   19CHTO    C1 7997   5.144   5.399   0.147 -0.1437 -0.3875  0.7062
   19CHTO   H14 7998   5.197   5.340   0.069  1.1706 -1.2301  2.2134
   19CHTO    C2 7999   4.987   5.411   0.115 -0.0603  0.3665 -0.0721
   19CHTO   H15 8000   4.950   5.490   0.183 -0.0685  0.4745 -0.2033
   19CHTO    O6 8001   4.969   5.462  -0.020 -0.6174  0.2195 -0.0567
   19CHTO    H1 8002   4.908   5.534  -0.023 -0.3598  0.6028  2.7686
   19CHTO    C3 8003   4.911   5.270   0.140 -0.2430  0.2969 -0.0323
   19CHTO   H16 8004   4.941   5.191   0.069  1.4442  1.2130 -0.3823
   19CHTO    N1 8005   4.765   5.285   0.119 -0.6387  0.0400  0.0252
   19CHTO    H8 8006   4.726   5.366   0.179 -0.1192  0.7965 -0.6539
   19CHTO    H9 8007   4.738   5.296   0.015 -0.1929 -1.2962 -0.2454
   19CHTO    C4 8008   4.940   5.204   0.279 -0.3943  0.0146  0.6124
   19CHTO   H17 8009   4.887   5.253   0.361 -1.4983 -0.0712 -0.0434
   19CHTO    O1 8010   5.080   5.206   0.305 -0.6111 -0.2016  0.5624
   19CHTO    C5 8011   5.155   5.332   0.286  0.1048  0.9409 -0.2101
   19CHTO   H18 8012   5.114   5.402   0.359  0.2519  0.8413 -0.0299
   19CHTO   C16 8013   5.305   5.303   0.329 -0.9213  0.0381 -0.3847
   19CHTO   O11 8014   5.383   5.429   0.321 -0.4365 -0.0464 -0.2436
   19CHTO    H5 8015   5.336   5.508   0.340 -0.1800 -0.1117  0.6807
   19CHTO    O3 8016   4.911   5.061   0.290 -0.1857  0.1775  0.7888
   19CHTO    C6 8017   4.851   5.006   0.419  0.3236 -0.3457 -0.4003
   19CHTO   H19 8018   4.826   5.087   0.488 -1.0854 -0.3584 -0.8696
   19CHTO    C8 8019   4.709   4.943   0.384 -0.5611 -0.6090 -0.0363
   19CHTO   H21 8020   4.721   4.857   0.318  2.6979 -2.8594  3.2941
   19CHTO    O7 8021   4.630   5.049   0.336  0.2018  0.4887 -0.6046
   19CHTO    H2 8022   4.679   5.080   0.262 -1.2968 -0.0396 -1.8435
   19CHTO   C12 8023   4.648   4.881   0.516 -0.3877  0.2834 -0.8713
   19CHTO   H25 8024   4.637   4.971   0.581 -0.0685 -0.9776  0.9513
   19CHTO    N3 8025   4.519   4.819   0.501 -0.3965  0.3574  0.1734
   19CHTO   H12 8026   4.457   4.885   0.442 -0.8394 -0.0706  0.1648
   19CHTO   H13 8027   4.470   4.810   0.596  0.3384 -0.4965  0.4721
   19CHTO   C15 8028   4.765   4.788   0.582  0.1310 -0.5354  0.4890
   19CHTO   H28 8029   4.780   4.699   0.521 -0.4664 -0.6853  0.5514
   19CHTO   O10 8030   4.717   4.736   0.720 -0.1940  0.3841 -0.6721
   19CHTO    H4 8031   4.636   4.690   0.717 -0.0936 -0.1891  3.1142
   19CHTO    O5 8032   4.883   4.864   0.601  0.1447 -0.4704  0.1383
   19CHTO   C10 8033   4.948   4.907   0.485  0.1940  0.1362  0.3518
   19CHTO   H23 8034   4.960   4.819   0.422 -0.5505 -0.3224  0.8545
   19CHTO   C17 8035   5.080   4.975   0.513 -0.2377  0.3640 -0.4169
   19CHTO   O12 8036   5.184   4.881   0.501 -0.2003 -0.1978 -0.2610
   19CHTO    H6 8037   5.171   4.810   0.562  0.0897 -0.9362 -1.0611
   20CHTO  H203 8038   5.492   0.391   1.562  1.0874  2.1784  0.7621
   20CHTO   O82 8039   5.404   0.415   1.581  0.4590  0.1088  0.5804
   20CHTO  C123 8040   5.400   0.534   1.668 -0.1755 -0.0430  0.1148
   20CHTO  H227 8041   5.452   0.510   1.762  1.6278 -0.2492 -0.9203
   20CHTO   O77 8042   5.479   0.646   1.599  0.3544 -0.2179  0.2466
   20CHTO  C118 8043   5.465   0.777   1.652  0.2374  0.8449  0.0894
   20CHTO  H222 8044   5.487   0.796   1.758  1.4153 -0.0643  0.0307
   20CHTO  C125 8045   5.563   0.876   1.568 -0.2149  0.7249 -0.7328
   20CHTO   O84 8046   5.694   0.882   1.625 -0.3563 -0.1814  0.7624
   20CHTO  H205 8047   5.756   0.842   1.566 -1.6953 -0.5325 -0.4239
   20CHTO  C114 8048   5.319   0.816   1.631 -0.0512  0.6651  0.1472
   20CHTO  H218 8049   5.290   0.796   1.528 -0.5393 -1.6927  0.7050
   20CHTO  C116 8050   5.224   0.726   1.717  0.1625 -0.2013  0.0468
   20CHTO  H220 8051   5.240   0.756   1.822 -1.8222  2.1262 -0.2572
   20CHTO   O79 8052   5.088   0.776   1.691  0.7628 -0.1067  0.5523
   20CHTO  H201 8053   5.019   0.744   1.745  0.6523  0.1140  0.5434
   20CHTO  C120 8054   5.245   0.573   1.692  0.3581 -0.0028 -0.5751
   20CHTO  H224 8055   5.199   0.556   1.593  0.0884  0.4971 -0.5338
   20CHTO   N21 8056   5.177   0.482   1.791 -0.6586 -0.0376  0.2820
   20CHTO  H211 8057   5.174   0.533   1.886  0.0878 -2.3528  1.5948
   20CHTO  H212 8058   5.235   0.391   1.800 -1.2757 -0.5760 -1.1095
   20CHTO   O75 8059   5.307   0.957   1.649 -0.0631  0.0355 -0.0140
   20CHTO  C112 8060   5.206   1.043   1.553  0.5696 -0.7224 -0.0898
   20CHTO  H216 8061   5.108   0.996   1.567  1.5104 -3.1103 -1.2263
   20CHTO   O73 8062   5.259   1.031   1.418  0.1186  0.1737 -0.3097
   20CHTO  C113 8063   5.184   1.103   1.318 -0.2409 -0.0502  0.5245
   20CHTO  H217 8064   5.082   1.059   1.322  0.4872 -2.0205 -1.5175
   20CHTO  C124 8065   5.253   1.062   1.185  0.0177  0.1930  0.6507
   20CHTO   O83 8066   5.178   1.070   1.063  0.1989 -0.4049 -0.1831
   20CHTO  H204 8067   5.123   0.994   1.056 -0.4193  0.1134 -0.9636
   20CHTO  C109 8068   5.197   1.254   1.350 -0.2949 -0.0156 -0.0291
   20CHTO  H213 8069   5.304   1.278   1.359 -0.5860  2.0326 -1.4945
   20CHTO  C110 8070   5.137   1.280   1.492 -0.1783 -0.0251 -0.0026
   20CHTO  H214 8071   5.028   1.266   1.492  0.0054 -1.7547 -2.6032
   20CHTO   O78 8072   5.144   1.424   1.510 -1.0514 -0.2587  0.0832
   20CHTO  H200 8073   5.061   1.462   1.488 -1.3490  0.7848  2.8411
   20CHTO  C111 8074   5.215   1.195   1.598 -0.1116 -0.0419 -0.2515
   20CHTO  H215 8075   5.316   1.237   1.599 -0.3685  0.5849 -0.3569
   20CHTO   N19 8076   5.167   1.207   1.737  0.0470 -0.1279  0.0330
   20CHTO  H207 8077   5.064   1.177   1.751 -0.0607  0.2203 -0.0084
   20CHTO  H208 8078   5.185   1.306   1.775  0.7842 -0.0088 -0.6150
   20CHTO   O74 8079   5.131   1.345   1.254 -0.7341 -0.3539 -0.5333
   20CHTO  C115 8080   5.249   1.426   1.141 -0.0517  0.1166  0.2112
   20CHTO  H219 8081   5.353   1.401   1.163 -0.6204 -3.2334 -0.6718
   20CHTO   O76 8082   5.229   1.383   0.999  0.6106  0.7449  0.1914
   20CHTO  C122 8083   5.308   1.443   0.897  0.0264 -0.4390  0.1509
   20CHTO  H226 8084   5.279   1.405   0.800  1.9992 -0.2397 -0.5315
   20CHTO  C126 8085   5.471   1.404   0.915  0.4151  0.3860 -0.0097
   20CHTO   O85 8086   5.483   1.262   0.935  0.1157  0.0629  0.4550
   20CHTO  H206 8087   5.526   1.245   1.016 -1.7462  0.6533  1.5974
   20CHTO  C121 8088   5.305   1.601   0.903  0.4136  0.3918 -0.7706
   20CHTO  H225 8089   5.389   1.647   0.847  1.0888  0.5500  0.3572
   20CHTO   O81 8090   5.177   1.635   0.837 -0.0868  0.1749  0.0318
   20CHTO  H202 8091   5.192   1.709   0.783 -1.0999 -0.6009 -1.3366
   20CHTO  C119 8092   5.298   1.661   1.041 -0.3603  0.1658  0.0835
   20CHTO  H223 8093   5.403   1.668   1.070 -0.8203 -1.8813  2.3550
   20CHTO  C117 8094   5.216   1.580   1.146 -0.1810  0.3162  0.4486
   20CHTO  H221 8095   5.107   1.586   1.140 -0.2477 -1.3279 -0.5731
   20CHTO   N20 8096   5.248   1.628   1.280  0.1672  0.5677 -0.5521
   20CHTO  H209 8097   5.208   1.726   1.304  1.5452  0.4494  2.3853
   20CHTO  H210 8098   5.207   1.561   1.353  2.6857 -0.3752  0.0279
   20CHTO   O80 8099   5.248   1.830   1.033 -0.1256  0.1374  0.0366
   20CHTO  C103 8100   5.347   1.941   0.963 -0.6280  0.5259  0.0596
   20CHTO  H190 8101   5.312   2.039   0.994 -0.4845  1.8592 -3.6659
   20CHTO  C101 8102   5.500   1.931   0.975 -0.0684  0.2239 -0.1498
   20CHTO  H188 8103   5.549   1.837   0.949  0.0290  0.3411 -0.3999
   20CHTO   O68 8104   5.526   1.968   1.136 -0.1709  0.0743  0.0592
   20CHTO  H168 8105   5.619   1.981   1.135 -0.3227  1.1713 -2.8564
   20CHTO   C99 8106   5.565   2.044   0.891 -0.5235  0.6153  0.0176
   20CHTO  H186 8107   5.523   2.140   0.927  0.4456  0.8735  0.4948
   20CHTO   N17 8108   5.714   2.062   0.902  0.5882  0.2236 -0.4179
   20CHTO  H174 8109   5.745   2.155   0.857 -1.2241  3.0343  3.8248
   20CHTO  H175 8110   5.759   2.058   1.001 -1.0675 -1.1873  0.3172
   20CHTO   C97 8111   5.519   2.033   0.747 -0.0007 -0.0002  0.5487
   20CHTO  H184 8112   5.572   1.949   0.698  0.6272 -0.9254  2.7769
   20CHTO   O64 8113   5.378   2.022   0.736  0.2188  0.3371  0.4338
   20CHTO  C104 8114   5.308   1.927   0.815  0.5195 -0.4975  0.2774
   20CHTO  H191 8115   5.324   1.827   0.774  0.5044 -2.0328  3.8183
   20CHTO  C108 8116   5.153   1.953   0.807  0.2550 -0.0204 -0.1914
   20CHTO   O71 8117   5.100   1.923   0.673 -0.3590  0.0689 -0.4180
   20CHTO  H171 8118   5.009   1.947   0.669  0.3026  2.8927  0.3982
   20CHTO   O62 8119   5.540   2.158   0.672 -0.0274  0.5182 -0.5808
   20CHTO   C91 8120   5.547   2.151   0.533 -0.0061 -0.0443  0.5240
   20CHTO  H178 8121   5.471   2.083   0.494 -1.2793  0.4487  2.0864
   20CHTO   C92 8122   5.679   2.113   0.466  0.7799 -0.7175  0.5936
   20CHTO  H179 8123   5.756   2.182   0.503 -0.7887  1.5358 -0.2449
   20CHTO   O66 8124   5.730   1.989   0.505 -0.1970  0.3853  0.0937
   20CHTO  H166 8125   5.820   1.978   0.481 -0.6828 -2.5075 -0.6593
   20CHTO   C93 8126   5.663   2.124   0.308 -0.1414  0.1307 -0.6116
   20CHTO  H180 8127   5.583   2.056   0.276  0.8877 -0.8927 -1.0405
   20CHTO   N16 8128   5.778   2.096   0.221 -0.2657 -0.1471  0.0409
   20CHTO  H172 8129   5.863   2.143   0.267 -0.1009 -0.4975  0.0947
   20CHTO  H173 8130   5.778   1.988   0.216 -0.6126 -0.1465  0.0354
   20CHTO   C94 8131   5.620   2.268   0.265 -0.0537 -0.8463 -0.0774
   20CHTO  H181 8132   5.691   2.343   0.301 -1.8342  0.3762  0.9779
   20CHTO   O61 8133   5.495   2.291   0.332 -0.7158  0.0178  0.3255
   20CHTO   C95 8134   5.512   2.292   0.471  0.4637 -0.8296  0.5715
   20CHTO  H182 8135   5.588   2.363   0.503  0.2320  0.6689 -2.0990
   20CHTO  C106 8136   5.375   2.357   0.536  0.6764  0.1560  0.0401
   20CHTO   O69 8137   5.384   2.496   0.539 -0.7545  0.3228  0.1831
   20CHTO  H169 8138   5.302   2.529   0.573  0.1444  2.8248  0.0385
   20CHTO   O63 8139   5.592   2.298   0.099  0.8112 -0.3269  0.3623
   20CHTO   C96 8140   5.486   2.220   0.023  0.6894 -0.9866 -0.2859
   20CHTO  H183 8141   5.452   2.151   0.101  1.7643 -1.7793 -0.4912
   20CHTO   C98 8142   5.546   2.134  -0.097  0.1222 -0.8990 -0.4740
   20CHTO  H185 8143   5.633   2.072  -0.071 -1.0978 -2.2497  0.4441
   20CHTO   O67 8144   5.441   2.049  -0.142  0.2738  0.2143 -0.8834
   20CHTO  H167 8145   5.482   1.980  -0.190 -0.3323 -1.0204  0.3644
   20CHTO  C102 8146   5.583   2.231  -0.217 -0.7422  1.1540 -0.6593
   20CHTO  H189 8147   5.586   2.164  -0.304  1.2459  2.3791 -1.5630
   20CHTO   N18 8148   5.727   2.280  -0.213 -0.6071 -0.2879  0.1470
   20CHTO  H176 8149   5.796   2.210  -0.170 -1.4528 -1.2380 -0.0109
   20CHTO  H177 8150   5.744   2.376  -0.167  1.1057 -1.2974  1.6656
   20CHTO  C105 8151   5.485   2.350  -0.236 -0.3357 -0.4716  0.0560
   20CHTO  H192 8152   5.533   2.438  -0.193 -0.5456 -1.3672  2.1941
   20CHTO   O65 8153   5.357   2.338  -0.168  0.0176  0.6710 -0.8517
   20CHTO  C100 8154   5.377   2.321  -0.025  0.0381 -0.0458  0.4236
   20CHTO  H187 8155   5.421   2.419   0.002  1.8994 -1.0197  0.9925
   20CHTO  C107 8156   5.247   2.305   0.055 -0.0708  0.1201  0.1943
   20CHTO   O70 8157   5.159   2.416   0.039  0.5709 -0.9609  0.4407
   20CHTO  H170 8158   5.207   2.489   0.074  1.2187 -0.2044 -1.9376
   20CHTO   O57 8159   5.465   2.358  -0.402 -0.5205 -0.4306  0.3416
   20CHTO   C85 8160   5.406   2.477  -0.462  0.4787  0.3267 -0.9213
   20CHTO  H157 8161   5.349   2.523  -0.378 -0.4228 -3.3357  0.6134
   20CHTO   C83 8162   5.295   2.443  -0.565  0.4082 -0.3775 -0.3539
   20CHTO  H155 8163   5.215   2.387  -0.516 -0.2493 -1.1475 -2.2443
   20CHTO   O56 8164   5.349   2.353  -0.665 -0.3646  0.1754 -0.1343
   20CHTO  H135 8165   5.282   2.320  -0.722 -0.0523 -0.0464 -0.3725
   20CHTO   C81 8166   5.237   2.577  -0.611  0.2318  0.0340 -0.0922
   20CHTO  H153 8167   5.197   2.626  -0.522  0.1536  1.6949 -1.0146
   20CHTO   N14 8168   5.120   2.551  -0.694  0.5200 -0.7246  0.1263
   20CHTO  H141 8169   5.068   2.638  -0.729  0.8034 -0.9941 -0.9974
   20CHTO  H142 8170   5.140   2.493  -0.782 -2.5840  0.5503 -1.5122
   20CHTO   C79 8171   5.343   2.675  -0.672  0.0894 -1.1171 -0.0307
   20CHTO  H151 8172   5.298   2.774  -0.672 -0.7428 -1.4891 -0.0812
   20CHTO   O52 8173   5.461   2.694  -0.588 -0.6400 -0.1730  0.1585
   20CHTO   C86 8174   5.509   2.570  -0.529 -0.5253 -0.4126  0.1439
   20CHTO  H158 8175   5.559   2.519  -0.614 -0.8107  0.8651 -0.8085
   20CHTO   C90 8176   5.625   2.605  -0.434  0.4322  0.1759  0.9987
   20CHTO   O60 8177   5.724   2.683  -0.498  0.6035 -0.1986 -0.2718
   20CHTO  H138 8178   5.774   2.620  -0.547 -0.2941 -1.5902  0.5613
   20CHTO   O50 8179   5.380   2.641  -0.808  0.4547 -0.3245  0.2435
   20CHTO   C73 8180   5.481   2.666  -0.903 -0.1459 -0.9032  0.1382
   20CHTO  H145 8181   5.580   2.643  -0.859  0.3730 -0.3084 -0.7130
   20CHTO   C74 8182   5.484   2.817  -0.934 -0.1890  0.7900 -0.2480
   20CHTO  H146 8183   5.503   2.873  -0.842 -0.8435 -0.1199  0.4500
   20CHTO   O54 8184   5.597   2.851  -1.022 -0.2994  0.7296  0.0248
   20CHTO  H133 8185   5.592   2.805  -1.104 -0.7660 -0.3243  0.6359
   20CHTO   C75 8186   5.351   2.857  -1.003 -0.6627 -0.7086  0.5187
   20CHTO  H147 8187   5.268   2.839  -0.933 -0.1965 -0.3534  1.1711
   20CHTO   N13 8188   5.342   2.999  -1.044 -0.0996 -0.4163 -0.1972
   20CHTO  H139 8189   5.309   3.061  -0.962  2.3117  0.0573  0.4453
   20CHTO  H140 8190   5.272   3.004  -1.126 -0.5199 -2.1912  0.0222
   20CHTO   C76 8191   5.315   2.765  -1.123  0.3184 -0.1798  0.0033
   20CHTO  H148 8192   5.377   2.790  -1.209  2.3895 -1.4948  1.0414
   20CHTO   O49 8193   5.338   2.620  -1.095  0.2444  0.0675 -0.4141
   20CHTO   C77 8194   5.456   2.581  -1.026 -0.3443  0.1916  0.1475
   20CHTO  H149 8195   5.539   2.589  -1.095 -1.2281  0.8972 -0.8594
   20CHTO   C88 8196   5.451   2.428  -0.994 -0.0916  0.1057 -0.2540
   20CHTO   O58 8197   5.413   2.350  -1.118  0.6724 -0.0397 -0.1146
   20CHTO  H136 8198   5.486   2.300  -1.149 -0.0773 -1.2970  0.1447
   20CHTO   O51 8199   5.147   2.793  -1.160 -0.3718 -0.4793  0.0530
   20CHTO   C78 8200   5.032   2.693  -1.087 -0.3793  0.0260 -0.0911
   20CHTO  H150 8201   5.072   2.644  -0.995  0.1808  0.4463 -0.1086
   20CHTO   C80 8202   5.000   2.581  -1.187 -0.1707 -0.3970 -0.4224
   20CHTO  H152 8203   4.969   2.624  -1.285 -0.5843 -1.6657 -0.8635
   20CHTO   O55 8204   5.121   2.500  -1.212  0.3643 -0.1279 -0.0079
   20CHTO  H134 8205   5.196   2.549  -1.241 -0.0512  0.0208 -0.8309
   20CHTO   C84 8206   4.889   2.482  -1.143 -0.4736  0.4221 -0.2732
   20CHTO  H156 8207   4.933   2.435  -1.055 -0.8521 -0.7921 -0.7090
   20CHTO   N15 8208   4.860   2.375  -1.245 -0.1265 -0.1842 -0.7400
   20CHTO  H143 8209   4.845   2.281  -1.198  1.3107  0.2436  0.6054
   20CHTO  H144 8210   4.770   2.400  -1.297  0.6947 -0.6341 -2.4423
   20CHTO   C87 8211   4.772   2.558  -1.093 -0.3420  0.1952 -0.4558
   20CHTO  H159 8212   4.712   2.608  -1.169  0.9470  1.9597 -0.3401
   20CHTO   O53 8213   4.818   2.682  -0.983  0.1340  0.3621 -0.4861
   20CHTO   C82 8214   4.906   2.772  -1.039  0.2798 -0.0951  0.0104
   20CHTO  H154 8215   4.845   2.812  -1.119  1.3202 -1.7211 -1.6275
   20CHTO   C89 8216   4.943   2.886  -0.944  0.2121 -0.8767 -0.1670
   20CHTO   O59 8217   4.857   2.998  -0.947 -0.1548  0.2054 -0.1751
   20CHTO  H137 8218   4.848   3.032  -0.860 -1.1517 -3.2820  1.1537
   20CHTO   O45 8219   4.655   2.446  -1.008  0.0902 -0.3258 -0.2569
   20CHTO   C67 8220   4.598   2.483  -0.883  0.3999  0.3388  0.0898
   20CHTO  H124 8221   4.677   2.516  -0.815  1.3963  0.4437 -1.1103
   20CHTO   C65 8222   4.495   2.604  -0.902  0.0212  0.9328  0.0953
   20CHTO  H122 8223   4.479   2.615  -1.009  0.5203 -0.9195 -0.1886
   20CHTO   O44 8224   4.555   2.725  -0.842  0.0950  0.3533  0.3289
   20CHTO  H102 8225   4.633   2.748  -0.890  1.7362 -1.5312  2.0143
   20CHTO   C63 8226   4.354   2.566  -0.838 -0.4165 -0.0029 -0.0784
   20CHTO  H120 8227   4.307   2.491  -0.901 -2.0710  0.4894  0.5195
   20CHTO   N11 8228   4.250   2.676  -0.837 -0.4384 -0.2734 -0.5399
   20CHTO  H108 8229   4.286   2.772  -0.868  1.2526 -0.5774  0.3962
   20CHTO  H109 8230   4.219   2.691  -0.736 -2.5884  2.7017 -1.5735
   20CHTO   C61 8231   4.380   2.508  -0.690  0.8149  0.3153  0.0298
   20CHTO  H118 8232   4.285   2.468  -0.651  0.4836  0.0464 -1.0093
   20CHTO   O40 8233   4.468   2.393  -0.684  0.1938 -0.2844  0.0873
   20CHTO   C68 8234   4.531   2.359  -0.811 -0.1379 -0.0170  0.8393
   20CHTO  H125 8235   4.451   2.318  -0.876  0.7337 -0.3850 -0.0137
   20CHTO   C72 8236   4.642   2.245  -0.785  0.1541  0.0302  0.1362
   20CHTO   O48 8237   4.738   2.276  -0.679  0.2274 -0.5003 -0.5508
   20CHTO  H105 8238   4.807   2.213  -0.675  1.3671  0.7502  0.3165
   20CHTO   O38 8239   4.438   2.604  -0.601 -0.7165 -0.2456  0.0177
   20CHTO   C55 8240   4.412   2.574  -0.460 -0.8213 -0.5261 -0.2862
   20CHTO  H112 8241   4.396   2.467  -0.443  3.3153 -1.0202  1.0379
   20CHTO   C56 8242   4.283   2.667  -0.409  0.3041 -0.0343 -0.7170
   20CHTO  H113 8243   4.295   2.771  -0.443 -2.1788  0.1359 -1.1870
   20CHTO   O42 8244   4.165   2.633  -0.483  0.2707  0.1086 -0.2488
   20CHTO  H100 8245   4.173   2.555  -0.535 -0.0994 -0.1938  0.1417
   20CHTO   C57 8246   4.258   2.656  -0.255 -0.0658 -0.3488  0.0419
   20CHTO  H114 8247   4.222   2.555  -0.236 -2.3133  0.4030 -0.0800
   20CHTO   N10 8248   4.153   2.746  -0.197  0.1950 -0.7569  0.4193
   20CHTO  H106 8249   4.124   2.720  -0.096 -1.2278 -1.6893 -0.2105
   20CHTO  H107 8250   4.068   2.752  -0.264  1.3028 -0.3905 -0.9768
   20CHTO   C58 8251   4.394   2.676  -0.180  0.3980 -0.0315 -0.7175
   20CHTO  H115 8252   4.432   2.779  -0.196 -1.3760  0.6107 -0.7986
   20CHTO   O37 8253   4.502   2.592  -0.234  0.4108  0.0854 -0.3278
   20CHTO   C59 8254   4.527   2.619  -0.372  0.1632 -0.3029  0.0788
   20CHTO  H116 8255   4.558   2.723  -0.374  0.3137 -0.3552 -0.5898
   20CHTO   C70 8256   4.658   2.537  -0.397  0.5741 -0.3547 -0.4880
   20CHTO   O46 8257   4.714   2.542  -0.526  0.1787 -0.0713  0.3200
   20CHTO  H103 8258   4.738   2.630  -0.547 -0.1460 -0.0374  0.0805
   20CHTO   O39 8259   4.377   2.648  -0.012 -0.2732  0.0322 -0.2922
   20CHTO   C60 8260   4.460   2.547   0.055  0.0562  0.1070  0.0890
   20CHTO  H117 8261   4.457   2.458  -0.009  1.8314 -0.7507  1.1487
   20CHTO   C62 8262   4.601   2.615   0.084 -0.2191  0.2341  0.0815
   20CHTO  H119 8263   4.644   2.628  -0.018  2.7609  0.1840  1.2760
   20CHTO   O43 8264   4.599   2.735   0.154 -0.1901  0.4114  0.1405
   20CHTO  H101 8265   4.615   2.714   0.244  2.8210 -2.0070 -0.8971
   20CHTO   C66 8266   4.690   2.500   0.164  0.8281 -0.1548  0.4766
   20CHTO  H123 8267   4.683   2.407   0.108 -0.9312 -0.1960  0.7474
   20CHTO   N12 8268   4.834   2.525   0.168  0.2745  0.2367  0.3471
   20CHTO  H110 8269   4.862   2.528   0.064  0.5007 -1.1232  0.3602
   20CHTO  H111 8270   4.860   2.618   0.216  1.7080 -0.3191  0.6671
   20CHTO   C69 8271   4.628   2.477   0.302 -0.7890 -0.2479  0.2737
   20CHTO  H126 8272   4.633   2.564   0.371  0.3697 -0.5547  0.5748
   20CHTO   O41 8273   4.474   2.429   0.280 -0.5682 -0.1310  0.7800
   20CHTO   C64 8274   4.391   2.511   0.191 -0.1766  0.5151  0.2469
   20CHTO  H121 8275   4.363   2.608   0.236 -1.2275  0.8095 -1.0068
   20CHTO   C71 8276   4.254   2.435   0.167  0.0283  0.4825 -0.4593
   20CHTO   O47 8277   4.265   2.312   0.090 -1.0729 -0.4461 -0.2193
   20CHTO  H104 8278   4.190   2.306   0.034 -2.8663 -0.1103  2.0278
   20CHTO   O34 8279   4.716   2.347   0.378  0.5220  0.0563 -0.1285
   20CHTO   C49 8280   4.755   2.250   0.478 -0.3883 -0.0106  0.0917
   20CHTO   H91 8281   4.713   2.278   0.575  3.4458 -1.6239  2.2969
   20CHTO   C47 8282   4.905   2.257   0.511  0.3680  0.0909 -0.2467
   20CHTO   H89 8283   4.934   2.185   0.591  0.5530 -0.8560 -1.1641
   20CHTO   O33 8284   4.953   2.387   0.559 -0.3603  0.0273 -0.6870
   20CHTO   H70 8285   5.043   2.391   0.585  0.0954 -0.6181 -2.1461
   20CHTO   C45 8286   4.981   2.217   0.375  0.1787  0.4028  0.1263
   20CHTO   H87 8287   5.004   2.308   0.317 -1.9678  0.9298  0.0696
   20CHTO    N8 8288   5.110   2.143   0.403 -0.0636 -0.2256  0.8669
   20CHTO   H75 8289   5.172   2.187   0.480  0.3077 -2.1602  1.6877
   20CHTO   H76 8290   5.163   2.149   0.310 -1.0056  0.0227  0.3412
   20CHTO   C43 8291   4.889   2.133   0.272 -0.5255  0.4515 -0.5064
   20CHTO   H85 8292   4.832   2.213   0.226 -0.5139 -0.1253 -1.5214
   20CHTO   O29 8293   4.804   2.040   0.346 -0.2321  0.5069 -0.6093
   20CHTO   C50 8294   4.712   2.102   0.439 -0.0617 -0.4401  0.3831
   20CHTO   H92 8295   4.612   2.113   0.396 -1.7786 -1.2785  4.0322
   20CHTO   C54 8296   4.678   2.009   0.554  0.1010 -0.2442  0.0419
   20CHTO   O36 8297   4.795   1.949   0.604  0.1792  0.8016 -0.1574
   20CHTO   H72 8298   4.782   1.879   0.664 -1.1086  1.2651  0.1099
   20CHTO   O27 8299   4.950   2.065   0.160  0.2621 -0.0317 -0.1470
   20CHTO   C37 8300   4.930   2.020   0.026 -0.2457  0.4416 -0.5182
   20CHTO   H79 8301   4.836   1.963   0.019  1.2037 -1.9137 -1.0803
   20CHTO   C38 8302   4.911   2.138  -0.065  0.0040 -0.1646 -0.1853
   20CHTO   H80 8303   4.989   2.210  -0.037  0.4656 -1.2196  1.2459
   20CHTO   O31 8304   4.778   2.191  -0.032  0.4474 -0.6890 -0.6323
   20CHTO   H68 8305   4.767   2.279  -0.062  0.3960 -1.4313 -2.8699
   20CHTO   C39 8306   4.922   2.091  -0.218 -0.0097  0.1286  0.1565
   20CHTO   H81 8307   4.833   2.031  -0.235 -0.6952  0.7825  1.3438
   20CHTO    N7 8308   4.922   2.206  -0.317 -0.3077 -1.2151 -0.1374
   20CHTO   H73 8309   4.843   2.277  -0.298 -0.6775 -0.6805 -3.4431
   20CHTO   H74 8310   4.892   2.169  -0.414  0.2451 -0.0445 -0.7612
   20CHTO   C40 8311   5.036   1.991  -0.245  0.4590  0.4304  0.0348
   20CHTO   H82 8312   5.128   2.049  -0.252 -0.5568  1.8244 -2.3819
   20CHTO   O26 8313   5.043   1.886  -0.152 -0.1033  0.7874 -0.5801
   20CHTO   C41 8314   5.047   1.934  -0.010  0.4270  0.2316  0.8445
   20CHTO   H83 8315   5.139   1.996  -0.003  0.6152 -0.0213  0.6122
   20CHTO   C52 8316   5.057   1.817   0.082  0.8095 -0.0869 -0.0681
   20CHTO   O35 8317   5.170   1.710   0.062  0.3821  0.4821  0.4344
   20CHTO   H71 8318   5.133   1.629   0.032  4.2506 -1.2857  0.0552
   20CHTO   O28 8319   5.023   1.921  -0.366 -0.3145  0.7781 -0.1180
   20CHTO   C42 8320   5.115   1.830  -0.425  0.0896  0.0230 -0.9205
   20CHTO   H84 8321   5.079   1.808  -0.525  1.3843 -2.8696 -0.7973
   20CHTO   C44 8322   5.137   1.688  -0.360 -0.7371  0.2864 -0.1104
   20CHTO   H86 8323   5.181   1.700  -0.261  1.6181  1.6802 -1.2754
   20CHTO   O32 8324   5.007   1.631  -0.340  0.3350  0.7464 -0.0626
   20CHTO   H69 8325   5.017   1.584  -0.260  2.4126 -0.3242 -0.9231
   20CHTO   C48 8326   5.231   1.599  -0.446 -0.2438 -0.6168  0.1411
   20CHTO   H90 8327   5.191   1.581  -0.545 -1.7605  2.0883  0.2201
   20CHTO    N9 8328   5.260   1.460  -0.398 -0.1498  0.1700  0.6528
   20CHTO   H77 8329   5.307   1.468  -0.301 -1.9460 -0.9280  1.6390
   20CHTO   H78 8330   5.323   1.407  -0.468 -2.4683 -0.7790 -0.7549
   20CHTO   C51 8331   5.366   1.678  -0.465  0.2965 -0.2623  0.7292
   20CHTO   H93 8332   5.411   1.690  -0.367 -1.2596 -0.3335  1.4620
   20CHTO   O30 8333   5.350   1.799  -0.534 -0.2443  0.2336 -0.3436
   20CHTO   C46 8334   5.259   1.887  -0.441 -0.3135 -0.6486  0.0357
   20CHTO   H88 8335   5.299   1.894  -0.340  0.6413 -2.8841 -0.1678
   20CHTO   C53 8336   5.258   2.025  -0.517  0.3139  0.9511 -0.0797
   20CHTO   O72 8337   5.390   2.073  -0.512 -0.2115  0.5582  0.0428
   20CHTO  H199 8338   5.379   2.157  -0.469 -1.4069  1.0794 -1.2332
   20CHTO   O22 8339   5.462   1.610  -0.551 -0.8465  0.3975  0.0319
   20CHTO   C31 8340   5.614   1.629  -0.535 -0.5170  0.3330  0.8754
   20CHTO   H59 8341   5.667   1.575  -0.616 -1.2459  1.0683 -0.1139
   20CHTO   C29 8342   5.652   1.781  -0.560  0.3955  0.6192 -0.0060
   20CHTO   H57 8343   5.598   1.844  -0.488  0.0741 -0.1810  0.4651
   20CHTO   O21 8344   5.614   1.818  -0.693  0.4540 -0.3281  0.4322
   20CHTO   H37 8345   5.631   1.909  -0.705  0.1269 -0.2237  0.7427
   20CHTO   C27 8346   5.806   1.814  -0.542  0.2039 -0.1253 -0.0659
   20CHTO   H55 8347   5.853   1.764  -0.628 -0.6325 -0.0369 -0.5717
   20CHTO    N5 8348   5.838   1.961  -0.550  0.1143 -0.0570  0.3293
   20CHTO   H43 8349   5.833   1.998  -0.652  1.4106  0.1767  0.3322
   20CHTO   H44 8350   5.758   2.007  -0.494  0.8631  1.1452  0.4438
   20CHTO   C25 8351   5.852   1.740  -0.413  0.8683  0.4464 -0.4752
   20CHTO   H53 8352   5.801   1.788  -0.327  0.5598 -1.2550  0.3099
   20CHTO   O17 8353   5.815   1.598  -0.413 -0.4021 -0.0180  0.2534
   20CHTO   C32 8354   5.673   1.580  -0.403  0.4981 -0.1366 -0.4034
   20CHTO   H60 8355   5.641   1.647  -0.323 -1.8429  1.8909 -2.9566
   20CHTO   C36 8356   5.645   1.432  -0.351  0.5304 -0.2234 -0.5647
   20CHTO   O25 8357   5.682   1.392  -0.221  0.2611  0.2779  0.1021
   20CHTO   H40 8358   5.775   1.386  -0.216  0.4024 -0.3107 -2.7775
   20CHTO   O15 8359   5.982   1.753  -0.404 -0.4186  0.2781 -0.0746
   20CHTO   C19 8360   6.129   1.764  -0.419 -0.2955 -0.0257 -0.0174
   20CHTO   H47 8361   6.137   1.791  -0.525 -3.0385 -2.1895 -0.8330
   20CHTO   C20 8362   6.187   1.879  -0.323 -0.4419 -0.1406 -1.0010
   20CHTO   H48 8363   6.162   1.857  -0.218 -0.6356 -2.4605 -1.5054
   20CHTO   O19 8364   6.123   2.008  -0.352  0.0559  0.6541  0.5127
   20CHTO   H35 8365   6.177   2.081  -0.374 -0.0652  0.5759 -0.0394
   20CHTO   C21 8366   6.340   1.884  -0.342 -0.1983 -0.0094  0.1034
   20CHTO   H49 8367   6.353   1.925  -0.442 -5.1144 -0.1162 -0.7039
   20CHTO    N4 8368   6.407   1.981  -0.249 -0.0104 -0.4716  0.0847
   20CHTO   H41 8369   6.514   1.980  -0.265 -0.2659 -1.5109 -1.7833
   20CHTO   H42 8370   6.370   2.078  -0.277  0.4637 -0.3117 -0.0021
   20CHTO   C22 8371   6.404   1.746  -0.319  0.1785  0.6128  0.2942
   20CHTO   H50 8372   6.379   1.714  -0.217  2.4107 -2.8165 -0.1342
   20CHTO   O14 8373   6.346   1.651  -0.407 -0.3881  0.2007 -0.1031
   20CHTO   C23 8374   6.207   1.629  -0.394 -0.1284 -0.2309 -0.5568
   20CHTO   H51 8375   6.194   1.595  -0.290  0.3933 -0.3032 -0.5127
   20CHTO   C34 8376   6.183   1.520  -0.496  0.4686  0.4993  0.3555
   20CHTO   O23 8377   6.051   1.477  -0.526 -0.3099  0.2859 -0.9248
   20CHTO   H38 8378   6.045   1.431  -0.607  0.1811  0.1801 -0.9021
   20CHTO   O16 8379   6.546   1.747  -0.341  0.1263 -0.4324 -0.1558
   20CHTO   C24 8380   6.624   1.600  -0.280 -0.2787 -0.0208  0.3030
   20CHTO   H52 8381   6.551   1.526  -0.250 -2.0399  1.3002 -0.6512
   20CHTO   C26 8382   6.715   1.637  -0.158 -0.0457  0.5171 -1.1669
   20CHTO   H54 8383   6.760   1.733  -0.189 -1.5814  1.2451 -1.2071
   20CHTO   O20 8384   6.636   1.672  -0.038  0.6349 -0.0187  0.6218
   20CHTO   H36 8385   6.687   1.704   0.033  1.0141 -0.0722  0.3717
   20CHTO   C30 8386   6.820   1.525  -0.119 -0.4653 -0.6117  0.5700
   20CHTO   H58 8387   6.799   1.494  -0.016 -0.9004 -1.6538  0.1739
   20CHTO    N6 8388   6.959   1.573  -0.118 -0.6238  0.2933 -0.3973
   20CHTO   H45 8389   7.034   1.513  -0.167  0.7525  1.7772 -0.1893
   20CHTO   H46 8390   6.971   1.673  -0.158 -0.0025  0.5817  0.4892
   20CHTO   C33 8391   6.800   1.394  -0.201 -0.5098 -0.3141 -0.3333
   20CHTO   H61 8392   6.890   1.331  -0.200  1.3316  2.1977 -1.7110
   20CHTO   O18 8393   6.774   1.420  -0.342  0.0336  0.5270 -0.4540
   20CHTO   C28 8394   6.710   1.536  -0.394 -0.1550 -0.6149  0.1491
   20CHTO   H56 8395   6.783   1.610  -0.427  0.7538 -0.5710  2.2062
   20CHTO   C35 8396   6.623   1.512  -0.513 -0.1626  0.1250 -0.4019
   20CHTO   O24 8397   6.706   1.483  -0.630 -0.0525 -0.1887  0.3553
   20CHTO   H39 8398   6.703   1.392  -0.653 -3.9922  0.0018 -0.3097
   20CHTO    O9 8399   6.690   1.325  -0.140  0.3516  0.2247 -0.2868
   20CHTO   C13 8400   6.704   1.171  -0.111  0.4666  0.3961 -0.1503
   20CHTO   H26 8401   6.808   1.147  -0.081  1.3015  0.0942 -3.0449
   20CHTO   C11 8402   6.656   1.086  -0.238 -0.6242 -0.6843 -0.2426
   20CHTO   H24 8403   6.741   1.100  -0.305  1.1122  1.2324  2.2576
   20CHTO    O8 8404   6.537   1.147  -0.282  0.8030 -0.0354 -0.3300
   20CHTO    H3 8405   6.550   1.221  -0.339 -1.9300  1.0086  0.3134
   20CHTO    C9 8406   6.626   0.940  -0.196 -0.5302  0.0174  0.4518
   20CHTO   H22 8407   6.719   0.905  -0.151 -0.2128  0.5794  0.2374
   20CHTO    N2 8408   6.610   0.850  -0.310  0.0763 -0.2005 -0.4773
   20CHTO   H10 8409   6.610   0.744  -0.292 -1.5780  0.0592  1.2800
   20CHTO   H11 8410   6.660   0.889  -0.398  1.8333 -0.9650  0.1815
   20CHTO    C7 8411   6.506   0.941  -0.095 -0.6467  0.0051 -0.2325
   20CHTO   H20 8412   6.532   0.855  -0.030 -0.7089  0.4568  0.3866
   20CHTO    O4 8413   6.502   1.050  -0.005 -0.9766  0.4423  0.1370
   20CHTO   C14 8414   6.626   1.124   0.022 -0.1449 -0.0644 -0.2122
   20CHTO   H27 8415   6.700   1.060   0.075  0.6056 -0.4843 -1.7458
   20CHTO   C18 8416   6.601   1.249   0.119  0.0149  0.1570  0.4835
   20CHTO   O13 8417   6.724   1.311   0.153  0.4033  0.3135  0.0140
   20CHTO    H7 8418   6.741   1.289   0.243 -0.3904  0.7976  0.2870
   20CHTO    O2 8419   6.343   0.916  -0.173 -0.5458 -0.3172 -0.1727
   20CHTO    C1 8420   6.232   0.944  -0.088  0.1425 -0.1232 -0.0483
   20CHTO   H14 8421   6.265   1.002   0.000 -1.6551  0.5023  0.2256
   20CHTO    C2 8422   6.149   0.822  -0.036  0.5646  0.0093  0.1926
   20CHTO   H15 8423   6.123   0.751  -0.115 -2.6118  0.3199  0.8984
   20CHTO    O6 8424   6.238   0.753   0.048 -0.2760  1.0587 -0.0433
   20CHTO    H1 8425   6.302   0.712  -0.007 -1.9822  0.6641 -1.8235
   20CHTO    C3 8426   6.011   0.861   0.038 -0.2394  0.2719 -0.6914
   20CHTO   H16 8427   6.043   0.903   0.134  1.6318 -2.0916 -0.2529
   20CHTO    N1 8428   5.922   0.749   0.074  0.5170  0.4957 -0.5469
   20CHTO    H8 8429   5.839   0.746   0.006  0.1137  1.0808 -0.0857
   20CHTO    H9 8430   5.880   0.773   0.171 -1.2890  1.0555 -1.4459
   20CHTO    C4 8431   5.931   0.976  -0.037  1.0319 -0.3604 -0.9399
   20CHTO   H17 8432   5.889   0.933  -0.128  0.4016 -0.6854 -0.5040
   20CHTO    O1 8433   6.027   1.076  -0.062 -0.1430  0.0668  0.5586
   20CHTO    C5 8434   6.131   1.041  -0.157 -0.5898  0.1715 -0.0680
   20CHTO   H18 8435   6.083   0.991  -0.241 -0.4303  1.9901 -1.2805
   20CHTO   C16 8436   6.205   1.163  -0.218 -0.3343  0.3810 -0.0820
   20CHTO   O11 8437   6.116   1.246  -0.300  1.0027 -0.0569 -0.3225
   20CHTO    H5 8438   6.151   1.312  -0.356  0.9206  0.7489  0.5529
   20CHTO    O3 8439   5.834   1.038   0.040 -0.0801  0.2460 -0.1381
   20CHTO    C6 8440   5.727   1.116  -0.025 -0.2961  0.5488  0.5707
   20CHTO   H19 8441   5.767   1.165  -0.114 -1.6034  0.6093  0.0096
   20CHTO    C8 8442   5.596   1.037  -0.063 -0.9293  0.2931  1.1962
   20CHTO   H21 8443   5.570   0.979   0.025  0.3188  0.2408  1.5291
   20CHTO    O7 8444   5.643   0.950  -0.170 -0.7457  0.3138 -0.2013
   20CHTO    H2 8445   5.583   0.882  -0.195 -0.0467 -0.4137  0.0886
   20CHTO   C12 8446   5.473   1.127  -0.101 -0.1805 -0.2526  0.4962
   20CHTO   H25 8447   5.495   1.166  -0.202 -0.5325  1.5486  1.1046
   20CHTO    N3 8448   5.348   1.038  -0.110 -0.1554  0.2139  0.1869
   20CHTO   H12 8449   5.322   0.983  -0.200  0.5145  0.0401  0.0986
   20CHTO   H13 8450   5.352   0.969  -0.027 -1.9392 -0.1908 -0.0325
   20CHTO   C15 8451   5.462   1.252  -0.002  0.2763  0.1573 -0.2171
   20CHTO   H28 8452   5.409   1.234   0.091  2.8072  0.0411  1.2485
   20CHTO   O10 8453   5.401   1.356  -0.058  0.3779  0.7264 -0.3007
   20CHTO    H4 8454   5.385   1.429  -0.001  0.6744  1.5322 -1.2399
   20CHTO    O5 8455   5.593   1.310   0.026  0.1008  0.1335 -0.3967
   20CHTO   C10 8456   5.696   1.225   0.075 -0.5458 -0.1112  0.1987
   20CHTO   H23 8457   5.676   1.178   0.172 -0.2732  0.0280  0.3222
   20CHTO   C17 8458   5.814   1.320   0.101  0.2944 -0.7347 -0.4133
   20CHTO   O12 8459   5.801   1.402   0.221  0.0276 -0.0018  0.2003
   20CHTO    H6 8460   5.842   1.346   0.284  0.2052  1.0064  0.9833
   21GLOH   H03 8461   9.391   3.676   2.670  0.4739 -1.7531  1.7400
   21GLOH    O1 8462   9.416   3.738   2.740  0.0244 -0.1320  0.4964
   21GLOH    C1 8463   9.472   3.682   2.856  0.9989  0.3446  0.3556
   21GLOH   H02 8464   9.567   3.635   2.831 -0.5427 -2.0973 -1.2863
   21GLOH   H08 8465   9.411   3.603   2.900  1.5215  0.6001  1.5363
   21GLOH    C2 8466   9.486   3.779   2.971  0.3962 -0.5324 -0.0828
   21GLOH   H04 8467   9.504   3.732   3.070  0.1721  2.9424  1.6646
   21GLOH    O2 8468   9.604   3.858   2.961 -0.6032 -0.3228  0.2689
   21GLOH   H05 8469   9.576   3.945   2.996 -3.9092 -0.5317 -1.5413
   21GLOH    C3 8470   9.354   3.861   2.995 -0.0079 -0.0692  0.3486
   21GLOH   H06 8471   9.352   3.928   2.910  2.6812  0.7291  0.8772
   21GLOH   H07 8472   9.374   3.935   3.072  2.6067  0.6247 -0.9797
   21GLOH    O3 8473   9.232   3.793   3.005  0.1428  0.3057 -0.1818
   21GLOH   H01 8474   9.162   3.849   2.966  1.7878  1.7410 -1.1447
   22GLOH   H03 8475   2.340   3.621   3.050  2.3110 -1.0157  1.1310
   22GLOH    O1 8476   2.380   3.710   3.043 -0.4873  0.2049  0.0641
   22GLOH    C1 8477   2.313   3.790   3.144 -0.6191  0.1979  0.5320
   22GLOH   H02 8478   2.220   3.832   3.106 -1.1020 -0.1105  1.3634
   22GLOH   H08 8479   2.377   3.878   3.151  0.2345 -0.3536 -0.2146
   22GLOH    C2 8480   2.286   3.721   3.274  0.4007  0.3496  0.0847
   22GLOH   H04 8481   2.381   3.702   3.327  0.2278 -2.0715 -0.4047
   22GLOH    O2 8482   2.196   3.795   3.366  0.1093 -0.8576 -0.2078
   22GLOH   H05 8483   2.239   3.882   3.378 -1.7019  0.1209 -0.6336
   22GLOH    C3 8484   2.215   3.583   3.254  0.2964  0.0637 -0.1439
   22GLOH   H06 8485   2.115   3.591   3.210 -0.1227 -0.2366  0.7432
   22GLOH   H07 8486   2.201   3.525   3.345  1.1386 -1.1242 -0.7551
   22GLOH    O3 8487   2.281   3.497   3.159 -0.1111  0.0586 -0.4547
   22GLOH   H01 8488   2.271   3.408   3.197  0.3379 -0.8608 -2.4694
   23GLOH   H03 8489   8.636   5.112   2.914 -0.7080 -0.5834 -0.5788
   23GLOH    O1 8490   8.669   5.154   2.832  0.4346  0.0282  0.1820
   23GLOH    C1 8491   8.648   5.289   2.863  0.0811  0.1365  0.5807
   23GLOH   H02 8492   8.623   5.307   2.968  1.5063  0.8362  0.8076
   23GLOH   H08 8493   8.561   5.316   2.803 -0.4312  0.3187  1.3941
   23GLOH    C2 8494   8.757   5.393   2.815  0.1586 -0.6089  0.8837
   23GLOH   H04 8495   8.753   5.408   2.707  0.5707 -2.0213  0.6623
   23GLOH    O2 8496   8.731   5.514   2.883  0.4179  0.2416  0.2090
   23GLOH   H05 8497   8.773   5.502   2.969  0.9062 -0.7917 -0.1668
   23GLOH    C3 8498   8.899   5.343   2.840 -0.1201 -0.3671 -0.5948
   23GLOH   H06 8499   8.911   5.316   2.945  0.8967 -0.7361 -0.7959
   23GLOH   H07 8500   8.967   5.425   2.817  0.1379 -0.5474 -0.4792
   23GLOH    O3 8501   8.941   5.230   2.759  0.2667 -0.6678  0.0769
   23GLOH   H01 8502   8.933   5.250   2.664  0.5259 -0.5791  0.0746
   24GLOH   H03 8503   3.458   1.451   0.457 -2.0469  1.1323 -1.2525
   24GLOH    O1 8504   3.476   1.417   0.368  0.5258  0.5172 -0.5614
   24GLOH    C1 8505   3.581   1.329   0.386 -0.0638  0.5904 -0.4212
   24GLOH   H02 8506   3.579   1.270   0.478  1.6436  0.2355 -0.5872
   24GLOH   H08 8507   3.675   1.384   0.392 -1.0129  2.1306  0.4476
   24GLOH    C2 8508   3.593   1.231   0.269 -0.2239  0.5481  0.4344
   24GLOH   H04 8509   3.589   1.285   0.173  0.3280  0.1709  0.1948
   24GLOH    O2 8510   3.719   1.153   0.284  0.0531  0.1324 -0.4895
   24GLOH   H05 8511   3.718   1.070   0.233 -0.0260 -0.0549 -0.1856
   24GLOH    C3 8512   3.471   1.142   0.285  0.4130 -1.0646  0.2936
   24GLOH   H06 8513   3.463   1.086   0.378 -3.1403  0.2627  0.8884
   24GLOH   H07 8514   3.473   1.073   0.201  2.3919 -1.8793  0.9922
   24GLOH    O3 8515   3.344   1.225   0.274 -0.3386 -0.3261  0.2752
   24GLOH   H01 8516   3.371   1.311   0.311  0.8386 -1.2477  1.6313
   25GLOH   H03 8517   2.219   2.175   0.395  0.4547  0.3550 -2.3584
   25GLOH    O1 8518   2.279   2.105   0.363  0.4181 -0.6840 -0.2805
   25GLOH    C1 8519   2.239   1.979   0.415  0.2037  0.5263  0.1599
   25GLOH   H02 8520   2.209   1.993   0.519 -0.9218 -0.5384  0.0025
   25GLOH   H08 8521   2.321   1.908   0.415  1.6899  2.2179 -1.4923
   25GLOH    C2 8522   2.110   1.922   0.350  0.0454  0.1325  0.2366
   25GLOH   H04 8523   2.087   1.820   0.383  0.6170  1.2856  4.4724
   25GLOH    O2 8524   1.991   2.011   0.366 -0.2413  0.0206 -0.5666
   25GLOH   H05 8525   1.929   1.970   0.429  0.0278 -0.7862 -0.8094
   25GLOH    C3 8526   2.143   1.906   0.200 -0.2942  0.0494  1.0772
   25GLOH   H06 8527   2.190   2.000   0.172  2.4909 -0.9713  2.1470
   25GLOH   H07 8528   2.056   1.902   0.135  0.9111 -1.5648 -0.4987
   25GLOH    O3 8529   2.241   1.797   0.167  0.1785 -0.0120 -0.4148
   25GLOH   H01 8530   2.197   1.713   0.192  0.6480 -0.0293  0.3521
   26GLOH   H03 8531   8.850   6.891  -0.137 -0.0893  0.9074  0.0128
   26GLOH    O1 8532   8.854   6.932  -0.049  0.5871  0.2549  0.2944
   26GLOH    C1 8533   8.781   7.055  -0.061  0.2168  0.0953  0.4084
   26GLOH   H02 8534   8.794   7.087  -0.164 -0.3579  0.0877  0.3285
   26GLOH   H08 8535   8.830   7.122   0.010 -1.5706 -1.1368  2.9254
   26GLOH    C2 8536   8.627   7.044  -0.031 -0.7060 -0.0596  0.5689
   26GLOH   H04 8537   8.582   7.141  -0.057 -0.4727 -0.5569 -1.7347
   26GLOH    O2 8538   8.567   6.940  -0.112 -0.6620 -0.2520 -0.4394
   26GLOH   H05 8539   8.575   6.948  -0.208 -2.2868 -1.6136 -0.7114
   26GLOH    C3 8540   8.614   7.006   0.123  0.0080 -0.3991  0.5260
   26GLOH   H06 8541   8.649   6.906   0.151  0.3254  0.2641  2.6438
   26GLOH   H07 8542   8.510   7.000   0.157 -0.5802  0.4346 -1.0751
   26GLOH    O3 8543   8.682   7.101   0.207  0.1880  0.5473  0.2601
   26GLOH   H01 8544   8.623   7.112   0.283  0.9464  2.6028  0.5713
   27GLOH   H03 8545   8.305   8.984   2.358 -0.4493 -1.3558 -0.1051
   27GLOH    O1 8546   8.385   8.939   2.391  0.0542 -0.6200 -0.3132
   27GLOH    C1 8547   8.381   8.923   2.534 -0.5050  0.0191  0.0749
   27GLOH   H02 8548   8.473   8.875   2.567  0.2782  1.1266 -0.4475
   27GLOH   H08 8549   8.302   8.853   2.560 -0.5011  0.0016  0.0379
   27GLOH    C2 8550   8.354   9.050   2.620 -0.4780  1.0087 -0.2886
   27GLOH   H04 8551   8.420   9.131   2.587  1.1200  0.2889  1.0704
   27GLOH    O2 8552   8.216   9.092   2.599  0.8115  0.1407  0.2635
   27GLOH   H05 8553   8.216   9.094   2.502  2.1004  1.8756  0.2592
   27GLOH    C3 8554   8.391   9.015   2.767 -0.4900  0.2227  0.1200
   27GLOH   H06 8555   8.314   8.945   2.802 -0.9771  1.2067  1.0495
   27GLOH   H07 8556   8.383   9.106   2.825  3.5270  0.2618  0.7177
   27GLOH    O3 8557   8.523   8.960   2.780 -0.0379  0.2581 -0.0810
   27GLOH   H01 8558   8.578   9.038   2.804  2.0675 -0.3474 -2.7015
   28GLOH   H03 8559   8.585   4.084   1.852  0.8023 -0.6028 -0.8553
   28GLOH    O1 8560   8.681   4.074   1.861  0.7454 -0.0579  0.5008
   28GLOH    C1 8561   8.732   4.211   1.857 -0.9965  0.1768 -0.2234
   28GLOH   H02 8562   8.762   4.221   1.961  0.3615  0.5399 -0.6438
   28GLOH   H08 8563   8.649   4.281   1.844 -1.7657 -0.2118  2.2293
   28GLOH    C2 8564   8.851   4.238   1.766 -0.2316  0.4406  0.4280
   28GLOH   H04 8565   8.922   4.158   1.789 -2.6781 -1.4746  1.4835
   28GLOH    O2 8566   8.800   4.212   1.627 -0.0311  0.0764 -0.1926
   28GLOH   H05 8567   8.798   4.116   1.616  0.3261 -0.1269  1.4342
   28GLOH    C3 8568   8.891   4.380   1.798 -0.4057  0.4888 -0.3660
   28GLOH   H06 8569   8.819   4.449   1.754  0.2920  1.0252 -0.6971
   28GLOH   H07 8570   8.980   4.399   1.738  0.2697 -0.0362  0.4639
   28GLOH    O3 8571   8.934   4.403   1.931  0.0599 -0.6660 -0.0651
   28GLOH   H01 8572   8.956   4.497   1.944 -1.1383 -0.3113 -0.5003
   29GLOH   H03 8573   1.946   5.333   3.330  0.9834 -0.2946 -0.5304
   29GLOH    O1 8574   2.017   5.349   3.396 -0.0023 -0.0774  0.4856
   29GLOH    C1 8575   2.108   5.432   3.327 -0.3571 -0.0136  0.0651
   29GLOH   H02 8576   2.149   5.499   3.403  2.6548 -1.2036 -0.4550
   29GLOH   H08 8577   2.057   5.480   3.243 -1.3775 -1.9653 -0.4501
   29GLOH    C2 8578   2.231   5.364   3.274  0.6916  0.1301  0.0397
   29GLOH   H04 8579   2.271   5.450   3.219  1.0435  0.4543  0.7827
   29GLOH    O2 8580   2.320   5.308   3.377 -0.1388  0.4226  0.6675
   29GLOH   H05 8581   2.386   5.375   3.400  0.8848 -0.7502  1.1305
   29GLOH    C3 8582   2.187   5.265   3.169 -0.3031  0.1790 -0.3110
   29GLOH   H06 8583   2.125   5.186   3.213 -0.1743 -0.6451 -1.5686
   29GLOH   H07 8584   2.274   5.217   3.126  0.4180  0.7879  0.4676
   29GLOH    O3 8585   2.112   5.321   3.059 -0.3834 -0.0360 -0.1481
   29GLOH   H01 8586   2.173   5.336   2.984 -1.3792  2.9148 -0.4044
   30GLOH   H03 8587   5.162   0.463   2.399 -0.9995  0.1169 -2.4317
   30GLOH    O1 8588   5.200   0.378   2.371  0.3654 -0.0454 -0.1902
   30GLOH    C1 8589   5.326   0.380   2.312  0.1091 -0.4924  0.6357
   30GLOH   H02 8590   5.378   0.285   2.324 -0.0721 -0.5642  0.8575
   30GLOH   H08 8591   5.389   0.451   2.365 -2.0907  0.3616  2.2042
   30GLOH    C2 8592   5.327   0.420   2.162  0.3098  0.4837  0.6307
   30GLOH   H04 8593   5.259   0.358   2.102  1.0694  1.4554 -1.2622
   30GLOH    O2 8594   5.274   0.547   2.132 -0.2687 -0.8396  0.1884
   30GLOH   H05 8595   5.178   0.532   2.122 -0.5833  0.6401  0.7791
   30GLOH    C3 8596   5.466   0.401   2.101 -0.8139  0.2821 -0.4491
   30GLOH   H06 8597   5.547   0.443   2.161 -1.7019  0.8202  0.3882
   30GLOH   H07 8598   5.473   0.440   2.000 -1.0533  1.0520 -0.1723
   30GLOH    O3 8599   5.488   0.264   2.102  0.1568  0.1235  0.3343
   30GLOH   H01 8600   5.523   0.236   2.189  1.6193  0.2962 -0.2041
   31GLOH   H03 8601   3.848   6.273  -0.102  0.9831 -0.7418  2.4363
   31GLOH    O1 8602   3.778   6.307  -0.042 -0.9570 -0.0386 -0.1171
   31GLOH    C1 8603   3.825   6.308   0.098  0.2328  0.4044  0.4439
   31GLOH   H02 8604   3.808   6.411   0.131 -0.8240  0.4262 -0.1500
   31GLOH   H08 8605   3.933   6.292   0.106  0.0834  0.1627  2.3168
   31GLOH    C2 8606   3.758   6.226   0.211 -0.6171  0.2574 -0.0109
   31GLOH   H04 8607   3.822   6.240   0.300 -0.0162 -0.0054 -0.4037
   31GLOH    O2 8608   3.618   6.257   0.246 -0.2015  0.0710 -0.1399
   31GLOH   H05 8609   3.557   6.266   0.171 -0.8109 -1.3411  0.1727
   31GLOH    C3 8610   3.774   6.081   0.173 -0.0976 -0.3458 -0.0162
   31GLOH   H06 8611   3.718   6.058   0.083  1.2756  0.5350 -1.1209
   31GLOH   H07 8612   3.730   6.020   0.252  0.7788  0.6427  1.2499
   31GLOH    O3 8613   3.916   6.056   0.160 -0.0247  0.4832 -0.2210
   31GLOH   H01 8614   3.936   6.035   0.066 -0.8508 -2.9355  0.2750
   32GLOH   H03 8615   2.268   2.023   1.281  1.3730  2.2358  0.4305
   32GLOH    O1 8616   2.237   2.053   1.193 -0.2615  0.3219  0.3131
   32GLOH    C1 8617   2.175   1.945   1.121  0.1069 -0.4438 -0.4668
   32GLOH   H02 8618   2.087   1.975   1.064 -0.1667 -0.0880  0.1371
   32GLOH   H08 8619   2.144   1.869   1.192 -1.6811 -0.4306 -1.2085
   32GLOH    C2 8620   2.268   1.887   1.020 -0.5146  0.1463 -0.6752
   32GLOH   H04 8621   2.360   1.851   1.067 -0.1239  1.1300 -0.6582
   32GLOH    O2 8622   2.201   1.776   0.956  0.2360  0.6143 -0.3498
   32GLOH   H05 8623   2.227   1.774   0.862 -0.4736  2.5838 -0.6050
   32GLOH    C3 8624   2.303   1.993   0.912  0.3712  0.3537 -0.2513
   32GLOH   H06 8625   2.342   2.085   0.956 -1.3171  0.0784  1.9044
   32GLOH   H07 8626   2.206   2.024   0.875  1.3237  4.7930  0.6918
   32GLOH    O3 8627   2.395   1.941   0.811 -0.3529 -0.3079 -0.1980
   32GLOH   H01 8628   2.429   2.013   0.755 -2.7351  0.5012 -0.6809
   33GLOH   H03 8629   1.515   5.294   2.177 -2.5903  0.9346  0.6983
   33GLOH    O1 8630   1.488   5.238   2.102 -0.5273  0.6772  0.1392
   33GLOH    C1 8631   1.571   5.260   1.982 -0.4101  0.4772 -0.3823
   33GLOH   H02 8632   1.675   5.231   1.993 -0.4697  0.4751  0.1509
   33GLOH   H08 8633   1.579   5.367   1.963 -0.3867  0.5864  0.2470
   33GLOH    C2 8634   1.507   5.195   1.854  0.5117  0.1829 -0.2802
   33GLOH   H04 8635   1.584   5.198   1.775  1.4977 -0.2320  0.6510
   33GLOH    O2 8636   1.468   5.056   1.875  0.2219 -0.1543 -0.3502
   33GLOH   H05 8637   1.381   5.048   1.918  0.5425 -1.2058  0.1292
   33GLOH    C3 8638   1.385   5.271   1.807 -0.4602 -0.3565 -0.6250
   33GLOH   H06 8639   1.425   5.368   1.777 -1.2682  0.4581  0.8928
   33GLOH   H07 8640   1.307   5.280   1.882  1.7419  2.4421  1.4340
   33GLOH    O3 8641   1.325   5.208   1.693  0.0461 -0.3717  0.4186
   33GLOH   H01 8642   1.335   5.112   1.695  0.2368 -0.3465  0.7022
   34GLOH   H03 8643   4.833   1.811   1.582  0.2123  1.4448  2.5915
   34GLOH    O1 8644   4.882   1.735   1.618 -0.3396 -0.2074 -0.0358
   34GLOH    C1 8645   4.888   1.762   1.760 -0.5740  0.2945 -0.5785
   34GLOH   H02 8646   4.924   1.672   1.810  2.1329  1.6325  0.0381
   34GLOH   H08 8647   4.791   1.784   1.804 -0.2974 -1.9217  1.2496
   34GLOH    C2 8648   4.986   1.872   1.796  0.6421  0.0151 -0.3224
   34GLOH   H04 8649   4.964   1.971   1.753  1.3423  0.2574 -0.1298
   34GLOH    O2 8650   4.981   1.886   1.936  0.0126  0.2441 -0.1075
   34GLOH   H05 8651   4.987   1.980   1.960  0.3982  0.0744  0.4906
   34GLOH    C3 8652   5.127   1.826   1.757 -0.7945  0.2721 -0.8603
   34GLOH   H06 8653   5.149   1.732   1.809 -2.9717 -0.3612 -1.0424
   34GLOH   H07 8654   5.190   1.907   1.794 -1.1503 -0.0400  0.4530
   34GLOH    O3 8655   5.141   1.807   1.612  0.1616 -0.9362  0.5029
   34GLOH   H01 8656   5.070   1.746   1.585 -2.2464  1.8891  0.1102
   35GLOH   H03 8657   9.598   1.095   3.326  0.2766  0.4219 -0.5712
   35GLOH    O1 8658   9.656   1.049   3.263 -0.1222 -0.2074 -0.4863
   35GLOH    C1 8659   9.593   1.038   3.134  0.2282 -0.2264 -0.5347
   35GLOH   H02 8660   9.665   0.993   3.066  0.3623 -2.1792  0.8491
   35GLOH   H08 8661   9.562   1.138   3.102 -0.1883  0.9216  3.2630
   35GLOH    C2 8662   9.478   0.946   3.136 -0.5735 -0.5781 -0.7088
   35GLOH   H04 8663   9.419   0.984   3.221  2.7424 -0.4609  1.6355
   35GLOH    O2 8664   9.403   0.956   3.010  0.5332 -0.0677 -0.3773
   35GLOH   H05 8665   9.460   0.938   2.934 -1.7927 -2.0404 -1.7551
   35GLOH    C3 8666   9.524   0.801   3.155  0.6341  0.2356 -0.0050
   35GLOH   H06 8667   9.555   0.781   3.258 -1.1571  0.7408  0.6445
   35GLOH   H07 8668   9.612   0.784   3.093  0.5817  2.7385 -0.8148
   35GLOH    O3 8669   9.430   0.701   3.121 -0.0018  0.4336 -0.2714
   35GLOH   H01 8670   9.479   0.625   3.086 -0.6071  0.1246 -0.4488
   36GLOH   H03 8671   0.785   8.403   1.487 -1.6655 -1.1354 -1.4541
   36GLOH    O1 8672   0.781   8.489   1.442 -0.0294 -0.1551  0.1561
   36GLOH    C1 8673   0.874   8.578   1.507 -0.5798 -0.1208  0.3730
   36GLOH   H02 8674   0.842   8.677   1.472 -2.6790 -0.9476 -0.0952
   36GLOH   H08 8675   0.977   8.561   1.475 -1.4665  0.1142 -2.7523
   36GLOH    C2 8676   0.859   8.568   1.656 -0.8896 -0.3200  0.2869
   36GLOH   H04 8677   0.876   8.463   1.684 -0.2710  0.3502  2.5450
   36GLOH    O2 8678   0.952   8.661   1.719 -0.0400  0.6091  0.2995
   36GLOH   H05 8679   1.038   8.624   1.695  0.5687  1.0917  1.7412
   36GLOH    C3 8680   0.711   8.590   1.691 -0.7230 -0.1440 -0.3934
   36GLOH   H06 8681   0.658   8.504   1.650 -0.6718 -0.2911 -0.1573
   36GLOH   H07 8682   0.670   8.675   1.637  0.7161 -1.0728 -3.0466
   36GLOH    O3 8683   0.690   8.611   1.830 -0.3845 -0.4359  0.0722
   36GLOH   H01 8684   0.593   8.600   1.838 -0.6818  1.1411 -1.2574
   37GLOH   H03 8685   4.796   8.252   2.319 -1.3509  0.8661 -2.2049
   37GLOH    O1 8686   4.783   8.172   2.265 -0.7975 -0.3433 -0.5872
   37GLOH    C1 8687   4.799   8.060   2.353  0.2431 -0.1133  0.9779
   37GLOH   H02 8688   4.903   8.053   2.382  0.1261  1.4734  1.8499
   37GLOH   H08 8689   4.771   7.962   2.314  0.1393  0.1728  0.3269
   37GLOH    C2 8690   4.717   8.069   2.486  0.4123 -0.1999  0.5953
   37GLOH   H04 8691   4.748   8.145   2.560 -0.4246 -0.9037  1.6966
   37GLOH    O2 8692   4.577   8.100   2.463 -0.5261  0.0228 -0.2412
   37GLOH   H05 8693   4.580   8.176   2.403 -1.7913 -0.6035 -1.0953
   37GLOH    C3 8694   4.728   7.938   2.561  0.2604 -0.7943 -0.1406
   37GLOH   H06 8695   4.705   7.859   2.489  0.8657 -0.7405 -0.4031
   37GLOH   H07 8696   4.652   7.925   2.637  0.6658 -0.3088  0.3492
   37GLOH    O3 8697   4.864   7.909   2.614  0.6379 -0.4245 -0.2319
   37GLOH   H01 8698   4.905   7.980   2.667 -0.5477 -0.3750  0.6374
   38GLOH   H03 8699   8.319   4.747   2.780 -0.7674  0.5122  0.7788
   38GLOH    O1 8700   8.412   4.737   2.806 -0.4927 -0.1931 -0.4092
   38GLOH    C1 8701   8.496   4.814   2.719 -0.5122 -0.4876  0.6009
   38GLOH   H02 8702   8.596   4.815   2.763 -0.5441 -0.9323  0.6838
   38GLOH   H08 8703   8.459   4.916   2.710 -0.5789 -0.4886  0.8537
   38GLOH    C2 8704   8.518   4.750   2.575  0.5340 -0.4374 -0.3993
   38GLOH   H04 8705   8.437   4.783   2.508 -0.1848 -1.4805 -0.0492
   38GLOH    O2 8706   8.642   4.784   2.517 -0.2704  0.0574  0.2164
   38GLOH   H05 8707   8.623   4.821   2.429 -0.8360 -0.3205  0.1720
   38GLOH    C3 8708   8.518   4.596   2.592 -0.0015 -0.3786 -0.5444
   38GLOH   H06 8709   8.559   4.584   2.692  0.0593 -0.0746 -0.5328
   38GLOH   H07 8710   8.598   4.551   2.533 -0.9280  0.0338 -2.1356
   38GLOH    O3 8711   8.383   4.538   2.578  0.6380 -0.5031 -0.2769
   38GLOH   H01 8712   8.393   4.442   2.565 -0.7704 -0.9429  1.6149
   39GLOH   H03 8713   0.943   6.284   2.548  0.5779 -0.4887 -1.5240
   39GLOH    O1 8714   0.853   6.315   2.528  0.3476 -0.1337  0.0325
   39GLOH    C1 8715   0.805   6.257   2.410  0.2251 -0.2289  0.4882
   39GLOH   H02 8716   0.697   6.249   2.407  0.0574  1.9253 -0.5737
   39GLOH   H08 8717   0.845   6.156   2.400  0.5277  0.0780 -1.6657
   39GLOH    C2 8718   0.863   6.341   2.286 -0.0362  0.2066 -0.1489
   39GLOH   H04 8719   0.971   6.343   2.308 -0.1378  0.5624  0.3080
   39GLOH    O2 8720   0.844   6.277   2.154 -0.2028 -0.1994 -0.4690
   39GLOH   H05 8721   0.902   6.301   2.080 -0.1581 -0.8401 -0.6482
   39GLOH    C3 8722   0.796   6.487   2.285 -0.3135  0.4630  0.2468
   39GLOH   H06 8723   0.821   6.534   2.380 -0.8003 -1.5579  1.3976
   39GLOH   H07 8724   0.689   6.471   2.299 -0.1821  0.3110  1.0570
   39GLOH    O3 8725   0.827   6.570   2.171  0.1486  0.1231  0.2362
   39GLOH   H01 8726   0.923   6.588   2.174  0.4758 -1.1543 -1.9106
   40GLOH   H03 8727   1.306   7.913   1.077  0.0256 -0.2458  0.9878
   40GLOH    O1 8728   1.352   7.961   1.148 -0.0274  0.1885  0.7262
   40GLOH    C1 8729   1.438   8.065   1.098 -0.4308 -0.2789 -0.5491
   40GLOH   H02 8730   1.529   8.032   1.046 -0.1364  1.1018 -0.9322
   40GLOH   H08 8731   1.480   8.122   1.181 -0.1710  0.4702 -1.1847
   40GLOH    C2 8732   1.364   8.162   1.000 -0.5604 -0.8593  0.5766
   40GLOH   H04 8733   1.450   8.208   0.950 -0.7202 -0.1944  0.9113
   40GLOH    O2 8734   1.289   8.088   0.905 -0.4669 -0.2162  0.1884
   40GLOH   H05 8735   1.200   8.078   0.942 -1.1714  0.3669 -1.2912
   40GLOH    C3 8736   1.285   8.275   1.068 -0.2069 -0.2767 -0.1189
   40GLOH   H06 8737   1.235   8.230   1.154 -1.5332  0.8783 -0.2624
   40GLOH   H07 8738   1.212   8.307   0.994  0.4210  0.1067 -0.5743
   40GLOH    O3 8739   1.367   8.387   1.118 -0.1461  0.4126 -0.0790
   40GLOH   H01 8740   1.422   8.411   1.042 -0.2579  1.2981  0.1080
   41GLOH   H03 8741   4.670   9.360   2.429 -0.7049 -2.2196  0.0923
   41GLOH    O1 8742   4.650   9.353   2.524  0.3784 -0.2096  0.5045
   41GLOH    C1 8743   4.686   9.483   2.580 -0.5865  0.1692  0.2082
   41GLOH   H02 8744   4.627   9.551   2.518 -1.8126 -1.0213  0.0447
   41GLOH   H08 8745   4.788   9.508   2.550  0.1658 -1.3055  1.4814
   41GLOH    C2 8746   4.653   9.495   2.729 -0.0803  0.4517 -0.4570
   41GLOH   H04 8747   4.714   9.421   2.782  1.4561  0.9755 -1.4658
   41GLOH    O2 8748   4.688   9.621   2.794  0.1528 -0.0130 -0.4356
   41GLOH   H05 8749   4.631   9.632   2.873  0.1495  0.4746 -0.5009
   41GLOH    C3 8750   4.500   9.470   2.746 -0.0122 -0.6306 -0.0447
   41GLOH   H06 8751   4.456   9.568   2.730  1.1636  0.0199  0.6711
   41GLOH   H07 8752   4.483   9.447   2.851  3.8955 -2.7593  0.2198
   41GLOH    O3 8753   4.442   9.368   2.658 -0.3600  0.0401 -0.3490
   41GLOH   H01 8754   4.518   9.334   2.608  0.6297  0.0590  1.1207
   42GLOH   H03 8755   3.759   3.715   1.811 -0.9772  0.6708 -0.3300
   42GLOH    O1 8756   3.694   3.777   1.773 -0.8326  0.6490 -0.6160
   42GLOH    C1 8757   3.652   3.711   1.653  0.0496  0.6407  0.3511
   42GLOH   H02 8758   3.665   3.603   1.658  0.0177  0.7011  2.3538
   42GLOH   H08 8759   3.698   3.758   1.566 -0.5804 -1.2631 -1.0452
   42GLOH    C2 8760   3.505   3.740   1.639  0.0693  0.4008  0.0811
   42GLOH   H04 8761   3.489   3.847   1.622 -1.6054 -0.2252 -2.6012
   42GLOH    O2 8762   3.457   3.679   1.516 -0.6941  0.2306 -0.2958
   42GLOH   H05 8763   3.360   3.673   1.511 -0.6853  0.7143 -1.1899
   42GLOH    C3 8764   3.421   3.699   1.761 -0.3885  1.0265  0.2266
   42GLOH   H06 8765   3.314   3.710   1.744 -0.3939  1.7138  0.6896
   42GLOH   H07 8766   3.439   3.767   1.844  0.0885 -0.6941  1.5503
   42GLOH    O3 8767   3.452   3.561   1.810 -0.1023  0.1852  0.0705
   42GLOH   H01 8768   3.406   3.543   1.894  0.6961 -2.3672 -0.0020
   43GLOH   H03 8769   3.359   9.106   2.511  0.6786  0.0773  0.8448
   43GLOH    O1 8770   3.436   9.046   2.512  0.8459  0.2877  0.5548
   43GLOH    C1 8771   3.387   8.906   2.522 -0.6088  0.5338 -0.5997
   43GLOH   H02 8772   3.279   8.902   2.509 -0.5463  2.1350 -1.6377
   43GLOH   H08 8773   3.401   8.876   2.626 -2.7439  0.0845 -0.4224
   43GLOH    C2 8774   3.438   8.793   2.432  0.0068 -0.7186 -1.3432
   43GLOH   H04 8775   3.545   8.772   2.446  0.4732  1.5992 -1.2859
   43GLOH    O2 8776   3.363   8.678   2.461  0.1771 -0.1696  0.1515
   43GLOH   H05 8777   3.271   8.704   2.443 -0.0442  0.6941  2.4217
   43GLOH    C3 8778   3.429   8.821   2.281 -0.3627  0.9211  0.3342
   43GLOH   H06 8779   3.324   8.804   2.259 -0.1927 -1.1517  0.9591
   43GLOH   H07 8780   3.477   8.750   2.214 -1.2251 -0.8478  1.5398
   43GLOH    O3 8781   3.477   8.956   2.253 -0.3085 -0.1379  0.3750
   43GLOH   H01 8782   3.541   8.954   2.179 -0.0906  3.4306  0.4025
   44GLOH   H03 8783   4.802   3.454   1.450  2.1476 -1.4229  1.5976
   44GLOH    O1 8784   4.854   3.528   1.412 -0.4467 -0.2843  0.1773
   44GLOH    C1 8785   4.795   3.547   1.283 -0.3309 -0.2257 -0.2577
   44GLOH   H02 8786   4.854   3.482   1.217  0.8631  0.3788  0.2020
   44GLOH   H08 8787   4.812   3.649   1.248 -0.6565 -0.6923 -1.8304
   44GLOH    C2 8788   4.642   3.523   1.280 -0.1376 -0.4697  0.1331
   44GLOH   H04 8789   4.593   3.585   1.356 -2.4955 -2.6090  0.3946
   44GLOH    O2 8790   4.579   3.561   1.158  0.5212 -0.4605 -0.5486
   44GLOH   H05 8791   4.606   3.499   1.089  2.2519 -1.0505  0.6080
   44GLOH    C3 8792   4.606   3.377   1.321 -0.1029 -0.4518  0.3083
   44GLOH   H06 8793   4.658   3.313   1.250  1.1951  1.0227 -0.0978
   44GLOH   H07 8794   4.497   3.372   1.309 -0.2521 -1.0826  1.7163
   44GLOH    O3 8795   4.650   3.361   1.456  0.1854 -0.0163 -0.8704
   44GLOH   H01 8796   4.655   3.269   1.487 -0.5517  0.8103  1.8164
   45GLOH   H03 8797   0.784   2.692   2.410  0.0200  0.1785  1.4499
   45GLOH    O1 8798   0.721   2.619   2.396  0.0359  0.3550  0.4416
   45GLOH    C1 8799   0.715   2.547   2.517 -0.1858  0.0994  0.0176
   45GLOH   H02 8800   0.782   2.461   2.527  1.6635  1.6121  0.9944
   45GLOH   H08 8801   0.618   2.499   2.531 -0.2638  0.0570 -0.6659
   45GLOH    C2 8802   0.737   2.640   2.641  0.2058  1.3596  0.3205
   45GLOH   H04 8803   0.660   2.718   2.644  1.0230  2.4078 -3.4257
   45GLOH    O2 8804   0.719   2.554   2.761 -0.1803 -0.0999  0.2403
   45GLOH   H05 8805   0.798   2.506   2.793 -0.5678 -0.0954  1.2125
   45GLOH    C3 8806   0.875   2.711   2.639  0.2660 -0.3356  0.4626
   45GLOH   H06 8807   0.956   2.638   2.647 -0.4030 -0.9522  1.8344
   45GLOH   H07 8808   0.886   2.774   2.727  1.1583  1.2082 -0.7133
   45GLOH    O3 8809   0.878   2.795   2.526 -0.5839 -0.3337 -0.0082
   45GLOH   H01 8810   0.835   2.880   2.547  2.3239  0.9815  0.9420
   46GLOH   H03 8811   3.913   8.844   0.808  0.7461 -1.1819  1.2660
   46GLOH    O1 8812   3.918   8.785   0.731  0.4606  0.0936  0.2406
   46GLOH    C1 8813   4.034   8.824   0.655 -0.0084 -0.6796 -0.1318
   46GLOH   H02 8814   4.111   8.868   0.719 -0.2198 -1.0596  0.3906
   46GLOH   H08 8815   4.001   8.902   0.587 -2.0966  1.2802  2.9652
   46GLOH    C2 8816   4.090   8.710   0.567 -0.1338  0.4892  0.1059
   46GLOH   H04 8817   4.013   8.697   0.489  0.5031 -1.8469 -0.1518
   46GLOH    O2 8818   4.213   8.756   0.499  0.3143 -0.9503  0.0888
   46GLOH   H05 8819   4.183   8.809   0.423  1.7232 -0.7180 -0.3184
   46GLOH    C3 8820   4.111   8.580   0.643 -0.2821 -0.5891  0.6668
   46GLOH   H06 8821   4.127   8.501   0.569  0.7360  0.1607  0.0699
   46GLOH   H07 8822   4.018   8.554   0.695 -0.0359  1.0515  1.9606
   46GLOH    O3 8823   4.218   8.582   0.741  0.5170  0.0442 -0.8901
   46GLOH   H01 8824   4.205   8.499   0.791  0.5735 -0.6103 -1.9287
   47GLOH   H03 8825   4.696   4.252   0.807 -1.3242  1.0842  1.8956
   47GLOH    O1 8826   4.729   4.184   0.868  0.1060 -0.8244 -0.9063
   47GLOH    C1 8827   4.672   4.200   0.997  0.4760 -0.7560 -0.5893
   47GLOH   H02 8828   4.701   4.293   1.046  3.2301 -1.7878 -0.1960
   47GLOH   H08 8829   4.691   4.112   1.059 -1.0091  0.0494  1.0753
   47GLOH    C2 8830   4.519   4.215   0.999  0.1495  0.5850 -0.0405
   47GLOH   H04 8831   4.503   4.237   1.105  1.7368 -0.3247  0.4006
   47GLOH    O2 8832   4.462   4.325   0.924 -0.4246  0.4624  0.4835
   47GLOH   H05 8833   4.477   4.308   0.830  1.3015  3.3478  0.1682
   47GLOH    C3 8834   4.454   4.078   0.975 -0.1327  0.5994  0.0071
   47GLOH   H06 8835   4.498   4.054   0.877  0.9545  0.3212  0.5513
   47GLOH   H07 8836   4.349   4.077   0.948  0.7507 -1.0367 -3.9150
   47GLOH    O3 8837   4.485   3.970   1.060 -0.1514 -0.1271  0.5546
   47GLOH   H01 8838   4.414   3.968   1.127 -1.0916  2.8478 -0.2794
   48GLOH   H03 8839   2.459   6.472   0.182  0.9890  1.4529  0.1236
   48GLOH    O1 8840   2.376   6.511   0.150  0.1466 -0.2147  0.2308
   48GLOH    C1 8841   2.412   6.631   0.085 -0.3642 -0.0867 -0.0966
   48GLOH   H02 8842   2.493   6.606   0.016 -1.7229  1.5864 -2.3741
   48GLOH   H08 8843   2.443   6.710   0.154  0.8851 -1.5053  1.0047
   48GLOH    C2 8844   2.286   6.681   0.008 -0.1541  0.4012  0.0542
   48GLOH   H04 8845   2.272   6.612  -0.076  1.9245  0.1994 -0.1480
   48GLOH    O2 8846   2.171   6.670   0.096 -0.2943 -0.1151 -0.2919
   48GLOH   H05 8847   2.192   6.632   0.182 -0.6112  0.1182 -0.1097
   48GLOH    C3 8848   2.310   6.832  -0.028 -0.0264  0.6272 -0.7786
   48GLOH   H06 8849   2.316   6.887   0.066 -0.3815  0.7913 -0.8500
   48GLOH   H07 8850   2.221   6.857  -0.087 -0.8292 -0.9877 -0.2791
   48GLOH    O3 8851   2.438   6.845  -0.100  0.4057  0.1510 -0.4183
   48GLOH   H01 8852   2.421   6.827  -0.194  0.8581 -0.4324 -0.3915
   49GLOH   H03 8853   3.518   5.864   0.730  1.7489 -0.6166  0.4749
   49GLOH    O1 8854   3.526   5.935   0.796 -0.6340  0.2968 -0.1378
   49GLOH    C1 8855   3.453   6.049   0.734 -0.3999  0.6636  0.2020
   49GLOH   H02 8856   3.345   6.034   0.739 -0.1296 -1.1570  0.7824
   49GLOH   H08 8857   3.481   6.045   0.629  2.0013 -3.6031  0.8692
   49GLOH    C2 8858   3.492   6.191   0.789  0.2479 -0.7571 -0.0797
   49GLOH   H04 8859   3.601   6.206   0.798  0.2907 -1.0293 -0.1429
   49GLOH    O2 8860   3.436   6.293   0.701 -0.1236  0.4943  0.5231
   49GLOH   H05 8861   3.444   6.380   0.743 -1.1080  0.8117  0.0825
   49GLOH    C3 8862   3.437   6.204   0.934  0.0261 -0.6784  0.4782
   49GLOH   H06 8863   3.328   6.202   0.933  0.0445 -1.1247 -0.5996
   49GLOH   H07 8864   3.469   6.295   0.986 -2.4439  0.3707  0.2359
   49GLOH    O3 8865   3.487   6.102   1.014 -0.3624  0.2154 -0.1605
   49GLOH   H01 8866   3.537   6.042   0.956 -4.0598 -2.3089 -0.9143
   50GLOH   H03 8867   0.264   3.397   1.258  0.1189 -0.7572 -0.6740
   50GLOH    O1 8868   0.338   3.401   1.321  0.0474 -0.0749 -0.6214
   50GLOH    C1 8869   0.342   3.265   1.375  0.0600 -0.0479 -0.0869
   50GLOH   H02 8870   0.426   3.255   1.444  0.5544  1.4313 -0.4402
   50GLOH   H08 8871   0.358   3.196   1.292  1.2075  1.0887 -0.8490
   50GLOH    C2 8872   0.224   3.210   1.454 -0.6523 -0.1717  0.0801
   50GLOH   H04 8873   0.132   3.224   1.396 -0.4276 -0.2635 -0.2958
   50GLOH    O2 8874   0.262   3.074   1.475 -0.4080  0.2911 -0.1754
   50GLOH   H05 8875   0.307   3.067   1.561 -1.0635 -3.5989 -0.0262
   50GLOH    C3 8876   0.217   3.283   1.589 -0.6413 -0.9583 -0.7649
   50GLOH   H06 8877   0.140   3.245   1.657 -1.6179  0.5057 -1.0200
   50GLOH   H07 8878   0.183   3.386   1.574 -1.9949 -1.3345 -0.3299
   50GLOH    O3 8879   0.330   3.280   1.671 -0.2044  0.3689 -0.3250
   50GLOH   H01 8880   0.321   3.212   1.740  2.8434 -1.3659 -1.5326
   51GLOH   H03 8881   0.924   7.658   1.267 -1.9472 -4.3449  0.0955
   51GLOH    O1 8882   0.836   7.699   1.257 -0.1393 -0.4062 -0.6904
   51GLOH    C1 8883   0.796   7.763   1.384  0.4617 -0.1216  0.3092
   51GLOH   H02 8884   0.712   7.830   1.369  1.3143  1.5832  2.7252
   51GLOH   H08 8885   0.875   7.828   1.421 -0.8938  1.7263  0.0231
   51GLOH    C2 8886   0.765   7.657   1.497  0.4787 -0.0619  0.4455
   51GLOH   H04 8887   0.704   7.575   1.456 -0.3953  0.1505  1.2878
   51GLOH    O2 8888   0.877   7.597   1.556 -0.2472  0.8681 -0.0194
   51GLOH   H05 8889   0.953   7.658   1.564 -0.5533  1.1530  0.7243
   51GLOH    C3 8890   0.689   7.734   1.608 -0.5378 -0.3190 -0.0781
   51GLOH   H06 8891   0.657   7.660   1.681 -0.1221  0.7432  1.1951
   51GLOH   H07 8892   0.598   7.784   1.574  0.7904  0.4603 -2.6255
   51GLOH    O3 8893   0.770   7.833   1.679  0.3532  0.4078 -0.4309
   51GLOH   H01 8894   0.841   7.783   1.723  0.9193  0.5358 -1.1853
   52GLOH   H03 8895   6.668   8.704   2.172  0.2232  0.8585 -0.2258
   52GLOH    O1 8896   6.715   8.721   2.256  0.3443 -0.3330 -0.0428
   52GLOH    C1 8897   6.636   8.708   2.375  0.0669  0.4611  0.1241
   52GLOH   H02 8898   6.692   8.686   2.465 -1.1263 -0.9364  0.5438
   52GLOH   H08 8899   6.570   8.623   2.358 -1.1560  1.5621 -0.7311
   52GLOH    C2 8900   6.542   8.827   2.408 -0.1612 -0.0346  0.5701
   52GLOH   H04 8901   6.497   8.806   2.506 -0.0766  0.4914  0.7216
   52GLOH    O2 8902   6.618   8.949   2.422 -0.1004 -0.2102  0.3012
   52GLOH   H05 8903   6.686   8.926   2.488  2.0344  0.4267 -1.6243
   52GLOH    C3 8904   6.426   8.839   2.312  0.1271 -0.8629  0.2049
   52GLOH   H06 8905   6.462   8.845   2.210 -2.6524 -0.6583 -0.8022
   52GLOH   H07 8906   6.388   8.937   2.343  0.5482 -0.8800  0.7852
   52GLOH    O3 8907   6.323   8.737   2.314  0.2526  0.6991 -0.0276
   52GLOH   H01 8908   6.344   8.674   2.242 -0.3325  1.4418 -0.8495
   53GLOH   H03 8909   7.461   0.276   1.816 -0.0007  0.1088 -1.1827
   53GLOH    O1 8910   7.465   0.345   1.885  0.4228 -0.6360 -0.4487
   53GLOH    C1 8911   7.431   0.282   2.010  0.9156  0.0281  0.0246
   53GLOH   H02 8912   7.428   0.350   2.095 -0.0656 -1.1409  0.9333
   53GLOH   H08 8913   7.506   0.206   2.034 -1.7913 -1.9211  2.6545
   53GLOH    C2 8914   7.288   0.214   2.021  0.1994 -0.0101 -0.1326
   53GLOH   H04 8915   7.269   0.152   1.932  1.4179  0.5798 -0.8158
   53GLOH    O2 8916   7.289   0.124   2.134 -0.3303 -0.2953 -0.3079
   53GLOH   H05 8917   7.339   0.045   2.107 -0.1140  0.4394 -2.1795
   53GLOH    C3 8918   7.177   0.316   2.040  0.2778 -0.4855  0.4663
   53GLOH   H06 8919   7.190   0.380   1.952  0.1473 -1.3941 -0.2181
   53GLOH   H07 8920   7.200   0.374   2.129 -2.4696 -1.2347  1.7325
   53GLOH    O3 8921   7.042   0.276   2.040  0.0865  0.3098  0.2234
   53GLOH   H01 8922   7.022   0.220   2.117 -0.4124 -0.5786 -0.5432
   54GLOH   H03 8923   3.250   7.064   3.496  0.2866 -1.2078  0.2107
   54GLOH    O1 8924   3.266   7.014   3.414 -0.1680  0.0164 -0.6345
   54GLOH    C1 8925   3.244   6.872   3.436  0.1170 -0.2913 -0.4494
   54GLOH   H02 8926   3.275   6.849   3.538 -1.5465 -0.6536 -0.0075
   54GLOH   H08 8927   3.297   6.804   3.370  1.1921 -0.0864  0.1916
   54GLOH    C2 8928   3.093   6.843   3.421 -0.4253 -0.2387 -0.3060
   54GLOH   H04 8929   3.089   6.734   3.432  2.5213 -0.3446  0.1999
   54GLOH    O2 8930   3.023   6.901   3.538 -0.1615 -0.0115 -0.1074
   54GLOH   H05 8931   3.028   6.853   3.622  0.8967 -1.3218 -0.9077
   54GLOH    C3 8932   3.028   6.875   3.289  0.2294 -0.3359  0.2385
   54GLOH   H06 8933   3.057   6.977   3.264 -3.7828  1.5003  2.5506
   54GLOH   H07 8934   2.919   6.877   3.294  0.2455 -0.3578  0.5994
   54GLOH    O3 8935   3.070   6.787   3.182  0.3173 -0.3031  0.0216
   54GLOH   H01 8936   3.165   6.805   3.170  0.4711 -1.8794 -1.3317
   55GLOH   H03 8937   4.697   0.263   1.081  0.7739 -0.3683  3.2091
   55GLOH    O1 8938   4.678   0.168   1.070  0.0454  0.1080 -0.2605
   55GLOH    C1 8939   4.549   0.149   1.015 -0.3300 -0.5510  0.2038
   55GLOH   H02 8940   4.525   0.227   0.943 -3.7405 -0.6926  1.1010
   55GLOH   H08 8941   4.471   0.152   1.091 -0.8359 -3.2798 -0.1719
   55GLOH    C2 8942   4.532   0.016   0.949 -0.1122  0.0851 -0.2870
   55GLOH   H04 8943   4.601   0.020   0.864  2.0146  1.5718  1.4423
   55GLOH    O2 8944   4.566  -0.091   1.043  0.4486 -0.0920  0.3505
   55GLOH   H05 8945   4.490  -0.109   1.099  1.8932  0.0699  2.4104
   55GLOH    C3 8946   4.393  -0.017   0.892  0.1429  0.2376  0.1009
   55GLOH   H06 8947   4.394  -0.122   0.860  0.7942  0.2128  0.1749
   55GLOH   H07 8948   4.392   0.028   0.793 -0.2234  0.5233  0.2373
   55GLOH    O3 8949   4.274   0.021   0.958 -0.2307 -0.1818 -0.1057
   55GLOH   H01 8950   4.278  -0.001   1.053 -1.8656  1.2134  0.3104
   56GLOH   H03 8951   8.357   4.597   0.400 -0.6922 -0.7228 -2.2506
   56GLOH    O1 8952   8.445   4.563   0.377  0.4357  0.6392 -0.0599
   56GLOH    C1 8953   8.445   4.415   0.391 -0.5835 -0.0998 -1.0350
   56GLOH   H02 8954   8.427   4.363   0.297  0.7898  0.4422 -1.6186
   56GLOH   H08 8955   8.370   4.387   0.464 -0.7866  1.8480 -0.4645
   56GLOH    C2 8956   8.584   4.380   0.448  0.4633  0.6921 -0.6252
   56GLOH   H04 8957   8.660   4.435   0.391 -0.9164  0.4497 -2.7468
   56GLOH    O2 8958   8.592   4.423   0.587  0.7868 -0.2691  0.7201
   56GLOH   H05 8959   8.626   4.515   0.587 -1.0557  0.4854  3.9479
   56GLOH    C3 8960   8.603   4.232   0.443 -0.2881  0.4347  0.1798
   56GLOH   H06 8961   8.522   4.177   0.490 -0.9521 -0.8435 -2.3591
   56GLOH   H07 8962   8.685   4.207   0.511 -1.2121  0.4977  1.3372
   56GLOH    O3 8963   8.601   4.195   0.303  0.2068 -0.0867 -0.1938
   56GLOH   H01 8964   8.604   4.097   0.300  1.1942 -0.1313  1.8726
   57GLOH   H03 8965   9.199   1.926   2.535  0.5574  1.0418 -0.9329
   57GLOH    O1 8966   9.283   1.876   2.536  0.0599  0.2010  0.2756
   57GLOH    C1 8967   9.256   1.759   2.453  0.2813  0.3341 -0.3557
   57GLOH   H02 8968   9.226   1.794   2.354 -0.5577 -1.9414 -0.9479
   57GLOH   H08 8969   9.177   1.698   2.495  2.5769 -1.6500  1.2337
   57GLOH    C2 8970   9.362   1.647   2.436 -0.1954  0.3941  0.3553
   57GLOH   H04 8971   9.452   1.693   2.392 -0.1951  0.4013  0.3639
   57GLOH    O2 8972   9.398   1.561   2.554 -0.4010  0.0089  0.3199
   57GLOH   H05 8973   9.478   1.602   2.592 -1.7309  1.9031  1.1566
   57GLOH    C3 8974   9.317   1.546   2.332  0.0687 -0.1530 -0.7514
   57GLOH   H06 8975   9.225   1.494   2.358 -0.2635 -0.1791 -1.9581
   57GLOH   H07 8976   9.387   1.462   2.328  0.6815  0.3072  0.2399
   57GLOH    O3 8977   9.302   1.601   2.205  0.3369 -0.0645  0.2056
   57GLOH   H01 8978   9.206   1.619   2.197  0.1867 -1.0061 -0.3066
   58GLOH   H03 8979   9.615   9.718   2.161 -1.7088  1.2827  1.1017
   58GLOH    O1 8980   9.584   9.762   2.080  0.3935  0.0952 -0.4185
   58GLOH    C1 8981   9.611   9.904   2.085 -0.4047  0.5732 -0.0237
   58GLOH   H02 8982   9.630   9.922   1.979  1.7944  1.2515  0.4561
   58GLOH   H08 8983   9.703   9.921   2.141 -0.3740 -0.3216  0.2053
   58GLOH    C2 8984   9.485   9.989   2.114  0.7325 -0.1773 -0.0092
   58GLOH   H04 8985   9.427   9.933   2.188  0.5329  0.4114  0.2839
   58GLOH    O2 8986   9.522  10.117   2.173 -0.1927 -0.2370  0.0271
   58GLOH   H05 8987   9.604  10.150   2.134 -1.0587  0.7653 -1.0060
   58GLOH    C3 8988   9.383   9.994   2.001  0.0898 -0.6168  0.0339
   58GLOH   H06 8989   9.431  10.044   1.917  2.5182 -1.3981  0.9221
   58GLOH   H07 8990   9.297  10.050   2.037 -0.4291 -1.9161  0.8338
   58GLOH    O3 8991   9.335   9.859   1.966  0.2626  0.3468 -0.2699
   58GLOH   H01 8992   9.400   9.792   1.995  0.0593 -0.8651 -2.5054
   59GLOH   H03 8993   5.610   9.747   2.525  1.2705 -1.2548  1.0227
   59GLOH    O1 8994   5.676   9.776   2.459 -0.1883 -0.5170 -0.1515
   59GLOH    C1 8995   5.625   9.878   2.367 -0.3673 -0.4907  0.2100
   59GLOH   H02 8996   5.558   9.945   2.422 -0.3583  0.8888 -1.4223
   59GLOH   H08 8997   5.566   9.828   2.290  1.0054 -1.3882 -0.2842
   59GLOH    C2 8998   5.741   9.951   2.294 -0.0216  0.8422 -0.9153
   59GLOH   H04 8999   5.804   9.993   2.373  0.3778 -1.8739  0.2787
   59GLOH    O2 9000   5.829   9.874   2.209 -0.1227  0.5030  0.0904
   59GLOH   H05 9001   5.925   9.882   2.221 -0.2511 -0.2511  1.6696
   59GLOH    C3 9002   5.677  10.075   2.217 -0.2852 -0.1971  0.6168
   59GLOH   H06 9003   5.605  10.037   2.145 -1.1938  1.8565  0.4165
   59GLOH   H07 9004   5.749  10.142   2.172 -2.0878  2.4888  1.5944
   59GLOH    O3 9005   5.605  10.159   2.310 -0.1177 -0.3662 -0.3339
   59GLOH   H01 9006   5.641  10.138   2.398 -1.3439  0.3552  0.3436
   60GLOH   H03 9007   9.407   1.011   1.314 -2.2683  0.7631 -0.9516
   60GLOH    O1 9008   9.412   0.923   1.273 -0.2841  0.2047  0.4295
   60GLOH    C1 9009   9.541   0.866   1.317  0.2174 -0.3272 -0.1821
   60GLOH   H02 9010   9.548   0.860   1.425  0.6962  0.5376 -0.1570
   60GLOH   H08 9011   9.627   0.924   1.284 -0.6466  0.3599 -1.2732
   60GLOH    C2 9012   9.554   0.724   1.275 -0.0901  0.4721  0.3982
   60GLOH   H04 9013   9.533   0.721   1.167  1.7932  0.7718 -0.0044
   60GLOH    O2 9014   9.691   0.688   1.310 -0.0652 -0.1069  0.3869
   60GLOH   H05 9015   9.716   0.606   1.264  0.7007  0.3269  0.0265
   60GLOH    C3 9016   9.450   0.636   1.352 -0.2761  0.0971 -1.1996
   60GLOH   H06 9017   9.365   0.691   1.392  0.9307  0.5117  0.8635
   60GLOH   H07 9018   9.502   0.591   1.437 -1.0286  2.3488  0.5133
   60GLOH    O3 9019   9.409   0.533   1.265  0.3442  0.1865  0.1781
   60GLOH   H01 9020   9.342   0.478   1.310  0.2050 -0.5810 -0.9481
   61GLOH   H03 9021   0.890   1.133   1.742  0.1059 -1.5383  0.0893
   61GLOH    O1 9022   0.922   1.168   1.827 -0.0331  0.0697 -0.5040
   61GLOH    C1 9023   0.882   1.309   1.841 -0.5398 -0.1838 -0.4571
   61GLOH   H02 9024   0.919   1.379   1.766  2.1492 -1.0531  0.0059
   61GLOH   H08 9025   0.922   1.348   1.935 -0.8226 -1.0850  0.0391
   61GLOH    C2 9026   0.733   1.321   1.865 -0.1876 -0.4350 -0.6926
   61GLOH   H04 9027   0.682   1.260   1.789 -2.5609  1.4806 -0.6997
   61GLOH    O2 9028   0.693   1.273   1.992  0.0401  0.2929 -0.0407
   61GLOH   H05 9029   0.711   1.342   2.058 -1.7588  1.5533 -0.8295
   61GLOH    C3 9030   0.688   1.466   1.840 -0.2160  0.3538  0.0042
   61GLOH   H06 9031   0.738   1.536   1.907  1.2727  0.9739 -1.6902
   61GLOH   H07 9032   0.579   1.469   1.848 -0.2821 -0.0883 -0.6749
   61GLOH    O3 9033   0.726   1.515   1.714 -0.2399  0.9435  0.1717
   61GLOH   H01 9034   0.816   1.553   1.723 -0.2630  0.9304  0.4614
   62GLOH   H03 9035   4.045   0.736   0.164  0.4702 -0.4749  2.1043
   62GLOH    O1 9036   4.047   0.656   0.109  0.1366  0.5558  0.5487
   62GLOH    C1 9037   3.952   0.560   0.165  0.2869  0.1573  0.8076
   62GLOH   H02 9038   3.864   0.560   0.101  0.2822 -2.7767  0.7283
   62GLOH   H08 9039   3.923   0.582   0.267 -1.3002 -1.3943  0.7105
   62GLOH    C2 9040   3.999   0.412   0.161 -0.0280 -0.5271  0.2412
   62GLOH   H04 9041   4.076   0.405   0.240 -1.5967  2.1723  2.0807
   62GLOH    O2 9042   3.890   0.332   0.207 -0.4058 -0.4041  0.6466
   62GLOH   H05 9043   3.807   0.338   0.157  0.7113 -2.4859 -1.5306
   62GLOH    C3 9044   4.051   0.366   0.027 -0.2470  0.4270  0.2601
   62GLOH   H06 9045   3.963   0.388  -0.035 -1.0656  0.4371  1.4137
   62GLOH   H07 9046   4.073   0.260   0.037  2.0531  0.8744  0.1981
   62GLOH    O3 9047   4.159   0.457  -0.018  0.0306  0.1629 -0.0610
   62GLOH   H01 9048   4.124   0.547  -0.011  0.3845  0.4082 -1.3505
   63GLOH   H03 9049   8.147   5.865   2.647  0.1233  0.3808  0.4105
   63GLOH    O1 9050   8.180   5.894   2.559  0.1112  0.1539  0.3311
   63GLOH    C1 9051   8.265   6.012   2.556 -0.2819 -0.4007 -0.0448
   63GLOH   H02 9052   8.298   6.040   2.656 -0.7104 -0.0023 -0.0088
   63GLOH   H08 9053   8.201   6.100   2.547  1.0894  0.6876  0.6618
   63GLOH    C2 9054   8.378   6.006   2.453 -0.1309  0.2574 -0.2967
   63GLOH   H04 9055   8.331   6.041   2.359 -1.2093 -0.0837  0.1087
   63GLOH    O2 9056   8.485   6.092   2.503 -0.1633 -0.7064 -0.3650
   63GLOH   H05 9057   8.512   6.061   2.592 -0.5601  0.4346  0.1563
   63GLOH    C3 9058   8.428   5.861   2.428  1.1519  0.6379 -0.3210
   63GLOH   H06 9059   8.445   5.812   2.524  0.5004  0.8642 -0.0885
   63GLOH   H07 9060   8.527   5.864   2.381  0.4497 -1.0190 -1.9837
   63GLOH    O3 9061   8.325   5.779   2.358 -0.1246 -0.4221  0.2744
   63GLOH   H01 9062   8.246   5.795   2.413 -0.5214 -3.2427  0.5574
   64GLOH   H03 9063   8.225   9.608   1.253  1.0084 -0.5614 -1.3165
   64GLOH    O1 9064   8.134   9.592   1.222  0.4174  0.3776 -0.0629
   64GLOH    C1 9065   8.069   9.484   1.292 -0.7819  0.8054 -0.3303
   64GLOH   H02 9066   8.127   9.392   1.292 -2.3031 -0.1920  0.4646
   64GLOH   H08 9067   7.971   9.454   1.253 -0.3855 -1.7567  0.5308
   64GLOH    C2 9068   8.050   9.518   1.441  0.7251  0.1418  0.3579
   64GLOH   H04 9069   7.984   9.442   1.484 -0.3889  1.3181  0.7450
   64GLOH    O2 9070   8.177   9.497   1.509  0.1583 -0.1173  0.2004
   64GLOH   H05 9071   8.165   9.521   1.602 -0.3465  0.8883 -0.1142
   64GLOH    C3 9072   8.003   9.661   1.468  0.8719 -0.1702  0.2129
   64GLOH   H06 9073   8.086   9.725   1.437 -0.9324  1.4072 -1.4684
   64GLOH   H07 9074   7.986   9.683   1.573  1.6924  1.5479  0.0014
   64GLOH    O3 9075   7.883   9.694   1.400  0.1132  0.2867 -0.2223
   64GLOH   H01 9076   7.893   9.787   1.371 -0.2379  0.5533  0.5125
   65GLOH   H03 9077   9.839   9.191   1.790  1.6757  0.0533  0.5122
   65GLOH    O1 9078   9.808   9.188   1.883  0.0759 -0.0991 -0.0069
   65GLOH    C1 9079   9.911   9.257   1.959 -0.0175 -0.0514  0.5369
   65GLOH   H02 9080  10.011   9.244   1.916  0.3542  2.4187  0.5826
   65GLOH   H08 9081   9.905   9.213   2.058 -2.8722  1.4698  1.0802
   65GLOH    C2 9082   9.874   9.407   1.973  0.5205  0.3356 -0.0280
   65GLOH   H04 9083   9.954   9.444   2.039  1.0951 -2.4655  0.9010
   65GLOH    O2 9084   9.865   9.472   1.850  0.1421  0.4204  0.1809
   65GLOH   H05 9085   9.958   9.468   1.822  0.2056 -0.8551  0.5588
   65GLOH    C3 9086   9.734   9.413   2.031 -0.0985  0.8726  0.6105
   65GLOH   H06 9087   9.659   9.380   1.959  2.4109 -0.8015 -1.3162
   65GLOH   H07 9088   9.717   9.521   2.038 -0.0352  0.9676 -0.6193
   65GLOH    O3 9089   9.717   9.348   2.156 -0.3963 -0.1654 -0.7095
   65GLOH   H01 9090   9.623   9.345   2.180 -0.6666  3.0707 -1.1330
   66GLOH   H03 9091   6.377   8.492   2.217  2.3491 -1.6195 -0.0384
   66GLOH    O1 9092   6.395   8.546   2.138  0.6920  0.4390  0.9617
   66GLOH    C1 9093   6.324   8.480   2.034 -0.0658  0.7651  0.2857
   66GLOH   H02 9094   6.235   8.428   2.069  0.4317  0.1749  0.6588
   66GLOH   H08 9095   6.376   8.403   1.978  0.9179  0.2792  1.8437
   66GLOH    C2 9096   6.268   8.573   1.923 -0.9134  0.2964 -0.0424
   66GLOH   H04 9097   6.356   8.615   1.871 -0.5267  0.2169  0.5409
   66GLOH    O2 9098   6.188   8.486   1.838  0.1107 -0.2343 -0.1461
   66GLOH   H05 9099   6.179   8.533   1.754 -0.0518  0.5093  0.2785
   66GLOH    C3 9100   6.185   8.679   1.998 -0.0402 -0.2172 -0.1060
   66GLOH   H06 9101   6.146   8.628   2.086  1.0904 -4.2071 -1.7950
   66GLOH   H07 9102   6.109   8.707   1.925  1.4838  0.4764 -1.4637
   66GLOH    O3 9103   6.272   8.785   2.043 -0.1885  0.2395  0.6141
   66GLOH   H01 9104   6.224   8.822   2.120 -3.0797 -0.6751 -0.6612
   67GLOH   H03 9105   4.715   8.563   0.246 -1.6882  0.0909 -1.4394
   67GLOH    O1 9106   4.651   8.586   0.317  0.0523  0.2354  0.1282
   67GLOH    C1 9107   4.706   8.677   0.413  0.0362  0.3220  0.8464
   67GLOH   H02 9108   4.658   8.660   0.509  1.5707  0.9303  1.7398
   67GLOH   H08 9109   4.688   8.780   0.382 -0.9515 -0.1839 -0.3261
   67GLOH    C2 9110   4.858   8.661   0.436 -0.4330 -0.8704  0.2078
   67GLOH   H04 9111   4.877   8.731   0.519  1.5703 -1.0755 -0.0506
   67GLOH    O2 9112   4.892   8.528   0.476  0.0576 -0.4216 -0.1561
   67GLOH   H05 9113   4.957   8.545   0.547  0.5567  0.5527 -0.8392
   67GLOH    C3 9114   4.950   8.704   0.318 -0.3201 -1.5034 -0.8649
   67GLOH   H06 9115   4.908   8.636   0.243 -2.0108 -0.9686 -0.4166
   67GLOH   H07 9116   5.051   8.667   0.333 -0.2305 -1.0016 -0.2250
   67GLOH    O3 9117   4.952   8.849   0.286 -0.3719  0.0848  0.2678
   67GLOH   H01 9118   4.879   8.868   0.224  0.8561  0.6225 -1.0371
   68GLOH   H03 9119   2.007   6.791   1.361 -0.8557 -0.0810  1.0966
   68GLOH    O1 9120   1.937   6.845   1.320 -0.1101  0.3678  0.4077
   68GLOH    C1 9121   2.008   6.944   1.241  0.7343  0.1416 -0.3822
   68GLOH   H02 9122   2.098   6.983   1.288 -0.0192  4.8267 -2.4725
   68GLOH   H08 9123   1.943   7.031   1.236 -0.8316 -0.9882  0.0517
   68GLOH    C2 9124   2.029   6.908   1.090  0.5317 -0.5254 -0.6392
   68GLOH   H04 9125   2.083   6.813   1.100 -0.6457 -1.1536 -0.2386
   68GLOH    O2 9126   1.906   6.892   1.022 -0.1073 -0.0826 -0.1568
   68GLOH   H05 9127   1.921   6.844   0.940 -0.3946  2.4599 -1.7544
   68GLOH    C3 9128   2.117   7.010   1.016 -0.7267  0.2520  0.2475
   68GLOH   H06 9129   2.066   7.105   1.034  0.6788  1.5387 -2.2919
   68GLOH   H07 9130   2.117   6.992   0.908 -0.1764  1.5444  0.0225
   68GLOH    O3 9131   2.248   7.019   1.078 -0.9325  0.0092 -0.1349
   68GLOH   H01 9132   2.244   7.077   1.156  1.4426 -0.7428  0.5801
   69GLOH   H03 9133   2.553   5.728   1.069  0.3194 -0.0329  0.0980
   69GLOH    O1 9134   2.595   5.650   1.028 -0.0674 -0.2247  0.0696
   69GLOH    C1 9135   2.686   5.581   1.116  0.0582  0.6851 -0.1099
   69GLOH   H02 9136   2.706   5.487   1.063 -1.7278  0.0902  0.2462
   69GLOH   H08 9137   2.640   5.547   1.209  2.0386 -1.7993  0.0263
   69GLOH    C2 9138   2.834   5.638   1.144  0.6935  0.5783 -0.0764
   69GLOH   H04 9139   2.864   5.676   1.045  0.5121  1.5877  0.2461
   69GLOH    O2 9140   2.837   5.758   1.230 -0.0396  0.6322 -0.4023
   69GLOH   H05 9141   2.923   5.794   1.258 -1.1576  2.3379  0.9158
   69GLOH    C3 9142   2.942   5.538   1.200  0.1397 -0.9500 -0.4738
   69GLOH   H06 9143   2.905   5.497   1.293 -2.0392  1.3148 -0.2799
   69GLOH   H07 9144   3.037   5.590   1.212 -1.5471  1.9917  0.6077
   69GLOH    O3 9145   2.969   5.447   1.091 -0.0154  0.3551 -0.0283
   69GLOH   H01 9146   2.910   5.372   1.111  1.6832 -0.8563  0.6481
   70GLOH   H03 9147   4.749   4.516   3.344  0.2125 -0.3229 -0.3685
   70GLOH    O1 9148   4.684   4.588   3.335 -0.4089 -0.7780  0.4092
   70GLOH    C1 9149   4.598   4.546   3.230 -0.5080  0.0947  1.1662
   70GLOH   H02 9150   4.642   4.548   3.131 -0.4102  1.6536  1.2259
   70GLOH   H08 9151   4.512   4.613   3.229 -1.0731 -0.5923  2.1630
   70GLOH    C2 9152   4.543   4.404   3.248 -0.8585  0.1857  0.4999
   70GLOH   H04 9153   4.497   4.392   3.347  0.1693 -0.4451  0.9067
   70GLOH    O2 9154   4.446   4.368   3.149  0.8498  0.3315  0.3916
   70GLOH   H05 9155   4.486   4.375   3.061  0.8631  2.6343  0.5402
   70GLOH    C3 9156   4.667   4.306   3.234  0.4300  0.0579  0.1828
   70GLOH   H06 9157   4.712   4.339   3.140  0.1946  2.3798  0.8625
   70GLOH   H07 9158   4.644   4.201   3.218  2.0601 -0.4813  1.2671
   70GLOH    O3 9159   4.758   4.329   3.344  0.0066  0.4333  0.1739
   70GLOH   H01 9160   4.782   4.251   3.396  0.1991  0.5797  0.3067
   71GLOH   H03 9161   7.496   0.788   2.261  1.1210  0.7932  1.8257
   71GLOH    O1 9162   7.417   0.746   2.299  0.1712  0.1078 -0.8100
   71GLOH    C1 9163   7.413   0.600   2.292 -0.2589 -0.0220  0.6170
   71GLOH   H02 9164   7.429   0.558   2.193  1.2220 -0.5313  1.0652
   71GLOH   H08 9165   7.312   0.571   2.321 -1.6138  2.8583 -1.0059
   71GLOH    C2 9166   7.512   0.539   2.391  0.2546 -0.0753 -0.0035
   71GLOH   H04 9167   7.466   0.517   2.489 -0.9543 -0.9722 -0.7453
   71GLOH    O2 9168   7.563   0.411   2.338  0.1808  0.1622  0.3568
   71GLOH   H05 9169   7.639   0.386   2.392  0.7195  0.2583 -0.3564
   71GLOH    C3 9170   7.626   0.630   2.423  0.2096  0.5262 -0.6486
   71GLOH   H06 9171   7.583   0.711   2.482 -2.1683 -0.5421 -0.8966
   71GLOH   H07 9172   7.659   0.676   2.329  2.1114 -1.0490 -0.7829
   71GLOH    O3 9173   7.719   0.562   2.509 -0.2615 -0.7911  0.2961
   71GLOH   H01 9174   7.801   0.609   2.486 -1.1143 -0.2996 -1.8550
   72GLOH   H03 9175   2.914   9.019   0.473  1.0868  1.5483  0.6295
   72GLOH    O1 9176   2.941   9.018   0.380 -1.1184 -0.3889 -0.0455
   72GLOH    C1 9177   2.881   8.915   0.303  0.2071  0.0298 -0.3651
   72GLOH   H02 9178   2.928   8.914   0.205 -0.5950  1.0316 -0.7634
   72GLOH   H08 9179   2.774   8.934   0.289  0.1910  1.1144  1.0893
   72GLOH    C2 9180   2.890   8.783   0.383 -0.5502  0.8218  0.1374
   72GLOH   H04 9181   2.855   8.792   0.487  0.5864  1.6938  0.4650
   72GLOH    O2 9182   2.806   8.687   0.319 -0.4167 -0.0424 -0.3766
   72GLOH   H05 9183   2.784   8.618   0.384  1.3070 -2.1254 -1.9354
   72GLOH    C3 9184   3.035   8.727   0.395  0.1116  1.0764 -0.2021
   72GLOH   H06 9185   3.061   8.686   0.297  0.1328  2.2777 -0.7107
   72GLOH   H07 9186   3.029   8.648   0.470  1.7949  1.2082  0.0763
   72GLOH    O3 9187   3.134   8.815   0.444 -0.1339 -0.0055  0.0215
   72GLOH   H01 9188   3.163   8.881   0.378  0.3507  1.1057  1.3211
   73GLOH   H03 9189  -0.094   8.764   1.802 -0.6036 -1.0257 -0.5228
   73GLOH    O1 9190  -0.066   8.693   1.863 -0.3614 -0.3397  0.1628
   73GLOH    C1 9191   0.074   8.665   1.831 -0.3876  0.7909 -0.1601
   73GLOH   H02 9192   0.074   8.580   1.763 -1.8138  1.2256 -0.7313
   73GLOH   H08 9193   0.124   8.638   1.924 -0.5972  0.6778 -0.0810
   73GLOH    C2 9194   0.145   8.779   1.752  0.5177  0.3202 -0.3095
   73GLOH   H04 9195   0.157   8.861   1.824  1.0837 -0.0611  0.0353
   73GLOH    O2 9196   0.283   8.739   1.710 -0.2769 -0.3660 -0.1081
   73GLOH   H05 9197   0.337   8.820   1.705 -0.0898 -0.5029 -0.3324
   73GLOH    C3 9198   0.056   8.837   1.638 -0.6692 -0.3484  0.2208
   73GLOH   H06 9199   0.037   8.760   1.563 -1.7786  0.5444 -0.4376
   73GLOH   H07 9200   0.110   8.918   1.589  0.6953 -1.6752 -0.4837
   73GLOH    O3 9201  -0.070   8.888   1.697  0.8539  0.8906  0.0466
   73GLOH   H01 9202  -0.110   8.949   1.632 -1.3165 -0.3507  0.1385
   74GLOH   H03 9203   2.570   5.633   1.901 -0.5976  1.2995  0.5873
   74GLOH    O1 9204   2.508   5.595   1.966 -0.7917  0.1466 -0.2536
   74GLOH    C1 9205   2.491   5.455   1.961  0.0182  0.2406  0.6787
   74GLOH   H02 9206   2.590   5.414   1.976 -0.4487 -0.7901  0.9564
   74GLOH   H08 9207   2.457   5.411   1.867 -0.9164 -0.1377  1.1842
   74GLOH    C2 9208   2.396   5.402   2.078  0.5506 -0.6944  0.0707
   74GLOH   H04 9209   2.437   5.454   2.166 -1.0913  0.9181 -0.0729
   74GLOH    O2 9210   2.258   5.443   2.067  0.0600  0.5837 -0.2400
   74GLOH   H05 9211   2.258   5.502   1.990  0.3211  1.9857  0.8103
   74GLOH    C3 9212   2.400   5.254   2.092  0.6796  0.8799  0.5272
   74GLOH   H06 9213   2.359   5.223   1.996  2.8686  0.2726 -0.2458
   74GLOH   H07 9214   2.334   5.218   2.171  2.0157 -0.8478  0.8906
   74GLOH    O3 9215   2.534   5.200   2.096  0.2521  0.7369  0.3199
   74GLOH   H01 9216   2.516   5.104   2.094  1.0391  0.5875 -2.8772
   75GLOH   H03 9217   4.889   1.974   1.044  0.2481 -0.7180 -1.7569
   75GLOH    O1 9218   4.816   1.912   1.028 -0.8532  0.2561 -0.5356
   75GLOH    C1 9219   4.873   1.798   0.960  0.2165  0.2314  0.3339
   75GLOH   H02 9220   4.948   1.751   1.023  2.6429  1.8206 -1.2825
   75GLOH   H08 9221   4.929   1.836   0.874 -1.6325  1.1154 -0.5041
   75GLOH    C2 9222   4.776   1.684   0.908 -0.8886 -0.5098 -0.0357
   75GLOH   H04 9223   4.699   1.669   0.985  0.0076  0.2181  1.0233
   75GLOH    O2 9224   4.692   1.719   0.793  0.0079  0.1442 -0.6670
   75GLOH   H05 9225   4.639   1.797   0.819  1.0943  0.6369  0.1131
   75GLOH    C3 9226   4.856   1.551   0.893 -0.3304  0.8095 -0.2748
   75GLOH   H06 9227   4.941   1.559   0.825  1.9114  1.4453  2.4772
   75GLOH   H07 9228   4.786   1.475   0.860  1.9529 -0.6780 -1.8465
   75GLOH    O3 9229   4.916   1.509   1.022  0.8099  0.4126 -0.1034
   75GLOH   H01 9230   4.927   1.414   1.035 -1.3865 -0.1515 -2.0414
   76GLOH   H03 9231   8.926   9.843   0.977 -1.5968 -0.6422  0.0761
   76GLOH    O1 9232   8.905   9.788   0.900  0.4044 -0.3118 -0.7400
   76GLOH    C1 9233   8.922   9.869   0.783  0.4425 -0.7449  0.1837
   76GLOH   H02 9234   8.965   9.968   0.803 -1.6662  0.4686 -1.1354
   76GLOH   H08 9235   8.831   9.890   0.728  0.1957  1.7997  1.4536
   76GLOH    C2 9236   9.014   9.796   0.686  0.2382  0.0627 -0.1163
   76GLOH   H04 9237   9.106   9.776   0.743 -0.9369 -0.7185  1.5548
   76GLOH    O2 9238   8.963   9.668   0.645  0.4946  0.1746  0.3573
   76GLOH   H05 9239   9.041   9.610   0.638 -0.5125 -1.2806  0.9081
   76GLOH    C3 9240   9.056   9.871   0.561  0.0975 -0.7785  0.2697
   76GLOH   H06 9241   8.977   9.881   0.487 -1.1831 -0.6344  1.6324
   76GLOH   H07 9242   9.126   9.810   0.504  0.2814  0.9863 -1.4391
   76GLOH    O3 9243   9.127   9.992   0.594 -0.0340  0.1368 -0.1166
   76GLOH   H01 9244   9.183   9.977   0.672  0.2968 -1.4139 -0.6487
   77GLOH   H03 9245   7.958   8.200   3.358 -1.4618  0.0908  0.7876
   77GLOH    O1 9246   7.975   8.104   3.362  0.0422  0.2771 -0.2418
   77GLOH    C1 9247   8.051   8.078   3.481  0.4116 -0.3124  0.5789
   77GLOH   H02 9248   8.000   8.002   3.540  1.3733 -1.6010 -0.2197
   77GLOH   H08 9249   8.041   8.165   3.545 -0.4609 -0.1364  0.2042
   77GLOH    C2 9250   8.204   8.040   3.460 -0.0291  0.7790  0.0496
   77GLOH   H04 9251   8.267   8.115   3.410  0.3286  1.1528  1.0536
   77GLOH    O2 9252   8.274   8.004   3.582 -0.7312 -0.3992 -0.7906
   77GLOH   H05 9253   8.367   7.986   3.559 -0.0136  2.4411 -0.2351
   77GLOH    C3 9254   8.208   7.927   3.359  0.2910 -0.0316 -0.2281
   77GLOH   H06 9255   8.180   7.836   3.413 -0.4819  1.7046  2.3718
   77GLOH   H07 9256   8.311   7.911   3.327  1.0966  2.4702  0.9709
   77GLOH    O3 9257   8.123   7.948   3.243  0.6566 -0.0215  0.5178
   77GLOH   H01 9258   8.049   8.003   3.276 -0.9510 -0.3716 -2.3834
   78GLOH   H03 9259   9.877   0.847   3.112  0.7579  2.2015  1.5181
   78GLOH    O1 9260   9.850   0.807   3.197 -0.0856  0.0237  0.2556
   78GLOH    C1 9261   9.932   0.865   3.293 -0.6863 -0.0938 -0.3964
   78GLOH   H02 9262   9.894   0.966   3.308 -1.0364 -0.3607  0.5488
   78GLOH   H08 9263  10.038   0.872   3.267 -0.5766 -0.3481 -0.0277
   78GLOH    C2 9264   9.918   0.797   3.432  0.8283 -0.6285 -0.5898
   78GLOH   H04 9265   9.957   0.694   3.425 -0.5850 -1.3679  1.9538
   78GLOH    O2 9266   9.994   0.866   3.526 -0.6561  0.0425 -0.3284
   78GLOH   H05 9267  10.089   0.858   3.505 -0.2327  3.2797 -0.0193
   78GLOH    C3 9268   9.776   0.792   3.486  0.0455  0.6524  0.5041
   78GLOH   H06 9269   9.796   0.766   3.590  1.9549  3.8711  1.0234
   78GLOH   H07 9270   9.730   0.707   3.435  0.6998  0.1803  0.6833
   78GLOH    O3 9271   9.702   0.914   3.479 -0.4589 -0.4727 -0.0813
   78GLOH   H01 9272   9.696   0.929   3.383 -0.2871 -2.8540 -0.4769
   79GLOH   H03 9273   1.534  -0.112   0.010 -1.6508  4.0503  0.1191
   79GLOH    O1 9274   1.623  -0.086   0.040 -0.2148 -0.0994 -0.1846
   79GLOH    C1 9275   1.614   0.008   0.150 -0.5805  0.4404 -0.2449
   79GLOH   H02 9276   1.718   0.038   0.160 -0.8430  0.9931  0.8801
   79GLOH   H08 9277   1.588  -0.033   0.247  1.1870  2.5514  1.1706
   79GLOH    C2 9278   1.533   0.134   0.116 -0.6814  0.5425 -0.8242
   79GLOH   H04 9279   1.574   0.173   0.022  3.1583 -2.4134 -0.5195
   79GLOH    O2 9280   1.398   0.103   0.093  0.1635 -0.7811 -0.0011
   79GLOH   H05 9281   1.366   0.058   0.173 -0.6569  0.1752  0.2301
   79GLOH    C3 9282   1.549   0.242   0.222  0.2794  0.3024 -0.8823
   79GLOH   H06 9283   1.496   0.204   0.309 -2.2393  0.1254 -2.4479
   79GLOH   H07 9284   1.492   0.321   0.174 -0.6878  0.9313  1.2519
   79GLOH    O3 9285   1.687   0.271   0.241  0.1287 -0.1114 -0.1804
   79GLOH   H01 9286   1.726   0.297   0.155  0.2786 -1.3926 -0.5188
   80GLOH   H03 9287   5.388   8.854   3.101 -1.2464  0.5906 -2.5945
   80GLOH    O1 9288   5.294   8.852   3.127 -0.5560  0.3271 -0.0074
   80GLOH    C1 9289   5.210   8.873   3.006 -0.4747  0.3630 -0.0692
   80GLOH   H02 9290   5.237   8.969   2.964 -1.7981  0.6341 -0.3086
   80GLOH   H08 9291   5.106   8.883   3.036 -0.4829  0.4644 -0.1311
   80GLOH    C2 9292   5.233   8.764   2.901 -0.2574 -0.3195 -0.8463
   80GLOH   H04 9293   5.338   8.763   2.868  1.2788 -0.6068  3.7096
   80GLOH    O2 9294   5.194   8.639   2.959  0.1305 -0.2976  0.0844
   80GLOH   H05 9295   5.223   8.643   3.052  2.4229  0.3361 -0.6166
   80GLOH    C3 9296   5.145   8.791   2.778  0.0594 -0.3674 -0.1696
   80GLOH   H06 9297   5.042   8.774   2.810  0.3640 -0.7369  0.6167
   80GLOH   H07 9298   5.166   8.713   2.705 -0.4988 -0.6308 -0.0527
   80GLOH    O3 9299   5.166   8.926   2.729 -0.3269 -0.4007 -0.1081
   80GLOH   H01 9300   5.097   8.944   2.662 -3.8986 -1.5300  3.1224
   81GLOH   H03 9301   4.694   4.035  -0.007 -0.5729  0.9203 -1.0424
   81GLOH    O1 9302   4.770   4.094   0.010  0.2110 -0.4918  0.4121
   81GLOH    C1 9303   4.865   4.025   0.079  0.0395  0.5944  0.0794
   81GLOH   H02 9304   4.945   3.993   0.013 -1.9031 -2.4725 -0.8810
   81GLOH   H08 9305   4.828   3.935   0.128  2.2141  1.4513  3.5306
   81GLOH    C2 9306   4.918   4.103   0.201 -0.0184  0.3540  0.6503
   81GLOH   H04 9307   4.980   4.188   0.171 -0.2354 -0.2751 -1.6683
   81GLOH    O2 9308   4.800   4.145   0.274 -0.3568 -0.0606 -0.2017
   81GLOH   H05 9309   4.738   4.177   0.207 -3.2241 -0.5396  2.0994
   81GLOH    C3 9310   5.019   4.015   0.274  0.1124  0.2256 -0.2638
   81GLOH   H06 9311   4.951   3.937   0.307  0.7406 -1.2302 -2.2986
   81GLOH   H07 9312   5.056   4.069   0.361  0.5308  0.1068 -0.3676
   81GLOH    O3 9313   5.127   3.957   0.195  0.7119  0.1113  0.2405
   81GLOH   H01 9314   5.100   3.873   0.153  0.4573  1.2366 -1.9435
   82GLOH   H03 9315   8.971   7.212   1.706  0.6877 -0.0629 -0.9909
   82GLOH    O1 9316   8.947   7.118   1.708  0.0738  0.1160  0.1975
   82GLOH    C1 9317   8.912   7.081   1.846 -0.1925 -0.5288 -0.3592
   82GLOH   H02 9318   8.807   7.096   1.873  0.2208 -0.7635  1.4268
   82GLOH   H08 9319   8.975   7.127   1.921  1.0711 -1.7220 -0.6670
   82GLOH    C2 9320   8.944   6.931   1.845 -0.4241 -0.3014  0.3493
   82GLOH   H04 9321   9.042   6.923   1.797 -1.5621 -3.1217 -1.5795
   82GLOH    O2 9322   8.954   6.893   1.983  0.4321 -0.5251  0.6238
   82GLOH   H05 9323   8.941   6.797   1.995 -0.3211 -0.3083  1.6442
   82GLOH    C3 9324   8.839   6.853   1.759 -0.5073  0.8917  0.2179
   82GLOH   H06 9325   8.835   6.894   1.658  0.3902  1.2212  0.3093
   82GLOH   H07 9326   8.744   6.873   1.808 -1.1899  2.0823 -1.5339
   82GLOH    O3 9327   8.870   6.714   1.753 -0.0507 -0.1125  0.4317
   82GLOH   H01 9328   8.963   6.696   1.729 -0.3905  0.6346 -1.5542
   83GLOH   H03 9329   1.883   0.539   3.143 -2.9709 -0.7950  2.8385
   83GLOH    O1 9330   1.821   0.530   3.068  0.4289  0.0392 -0.1938
   83GLOH    C1 9331   1.813   0.658   3.004 -0.5120 -0.0474  0.0000
   83GLOH   H02 9332   1.800   0.738   3.078  1.8446  0.5230 -0.1533
   83GLOH   H08 9333   1.731   0.659   2.932 -1.3188 -1.5913  0.8556
   83GLOH    C2 9334   1.938   0.701   2.921  0.0590  0.0248  0.9760
   83GLOH   H04 9335   1.976   0.619   2.860  3.0992  0.6731  1.9004
   83GLOH    O2 9336   1.920   0.825   2.840  0.2974 -0.1107  0.0865
   83GLOH   H05 9337   1.915   0.797   2.747  1.0000  1.3437 -0.4039
   83GLOH    C3 9338   2.066   0.718   3.001  0.1364  0.6002 -0.1552
   83GLOH   H06 9339   2.095   0.627   3.052 -1.6949 -0.5006 -1.0114
   83GLOH   H07 9340   2.043   0.794   3.077  0.2445 -0.3719  0.8590
   83GLOH    O3 9341   2.170   0.770   2.917 -0.1709  0.0687 -0.1066
   83GLOH   H01 9342   2.132   0.847   2.871 -0.3269 -0.2019 -0.4325
   84GLOH   H03 9343   8.412   2.933   1.895  0.2544  0.6366  0.5479
   84GLOH    O1 9344   8.384   2.969   1.809  0.0050 -0.9009 -0.0387
   84GLOH    C1 9345   8.391   3.113   1.834 -0.1494 -0.4674 -0.0182
   84GLOH   H02 9346   8.492   3.143   1.859 -0.6269  0.2496  1.0953
   84GLOH   H08 9347   8.338   3.133   1.927  0.9547  0.2997  0.4489
   84GLOH    C2 9348   8.328   3.194   1.725 -0.4771 -0.1350  0.1413
   84GLOH   H04 9349   8.221   3.170   1.719 -0.5595 -0.5308  2.6592
   84GLOH    O2 9350   8.347   3.338   1.742  0.0491  0.6427 -0.6309
   84GLOH   H05 9351   8.441   3.354   1.724 -0.0044  0.9764 -0.6209
   84GLOH    C3 9352   8.377   3.152   1.589 -0.5885 -0.2101  0.4692
   84GLOH   H06 9353   8.480   3.187   1.595 -0.6322 -0.0839  0.4762
   84GLOH   H07 9354   8.330   3.202   1.505 -1.1839  0.1349  1.0124
   84GLOH    O3 9355   8.370   3.011   1.571  0.0319 -0.3001 -0.0286
   84GLOH   H01 9356   8.376   2.974   1.661 -0.6224 -3.0116 -1.0452
   85GLOH   H03 9357   0.778   7.041   2.055 -2.6576  1.9429  0.8345
   85GLOH    O1 9358   0.774   6.989   2.137  0.1926 -0.4699 -0.4437
   85GLOH    C1 9359   0.822   7.076   2.239 -0.7532 -0.1499  0.2903
   85GLOH   H02 9360   0.914   7.037   2.281 -0.0503  0.7320 -0.4227
   85GLOH   H08 9361   0.745   7.082   2.316  1.3916  0.1086  2.4517
   85GLOH    C2 9362   0.862   7.218   2.188 -0.4176 -0.3659  0.1363
   85GLOH   H04 9363   0.946   7.224   2.117 -2.6625  0.7482 -2.5054
   85GLOH    O2 9364   0.749   7.284   2.125 -0.4366 -0.5014 -0.0184
   85GLOH   H05 9365   0.661   7.246   2.144 -2.5504  3.4755 -1.0951
   85GLOH    C3 9366   0.906   7.303   2.313  0.7508  0.4099  0.8779
   85GLOH   H06 9367   0.820   7.324   2.377 -0.6701 -0.0175 -0.8413
   85GLOH   H07 9368   0.927   7.400   2.267  2.1942 -0.9273 -1.3892
   85GLOH    O3 9369   1.026   7.257   2.373 -0.4065 -0.4443  0.5598
   85GLOH   H01 9370   1.024   7.290   2.464  0.7001  1.3800 -0.0533
   86GLOH   H03 9371   8.556   3.119   2.628 -1.5588  2.1004 -0.1185
   86GLOH    O1 9372   8.477   3.061   2.632  0.2764 -0.4612  0.3352
   86GLOH    C1 9373   8.377   3.116   2.725 -0.1481 -0.1759  0.2094
   86GLOH   H02 9374   8.282   3.113   2.671 -0.5243 -0.7973  0.9001
   86GLOH   H08 9375   8.403   3.221   2.740 -0.5823 -0.1343  0.6712
   86GLOH    C2 9376   8.362   3.058   2.868  0.0966  0.3769  0.8354
   86GLOH   H04 9377   8.466   3.043   2.900  0.3854 -0.0392 -0.2568
   86GLOH    O2 9378   8.300   3.159   2.946 -0.0709 -0.5468 -0.1894
   86GLOH   H05 9379   8.240   3.113   3.007  1.6952 -1.1823  1.1111
   86GLOH    C3 9380   8.269   2.936   2.847 -0.4410 -0.1911  0.1921
   86GLOH   H06 9381   8.184   2.970   2.789  1.8229  1.4232 -2.3082
   86GLOH   H07 9382   8.232   2.896   2.942 -1.0826  0.9835  0.4384
   86GLOH    O3 9383   8.342   2.827   2.781  0.1161  0.7436  0.2526
   86GLOH   H01 9384   8.304   2.741   2.806  0.7425  0.8875  1.7530
   87GLOH   H03 9385   9.224   8.419   0.250  0.1305  0.6834 -1.2220
   87GLOH    O1 9386   9.131   8.420   0.278  0.5470 -0.3529  0.3121
   87GLOH    C1 9387   9.071   8.287   0.264  0.5902  0.0042 -0.0357
   87GLOH   H02 9388   8.972   8.284   0.309  0.0942 -0.3020 -1.1274
   87GLOH   H08 9389   9.138   8.220   0.320  1.5703 -0.8334 -2.1612
   87GLOH    C2 9390   9.058   8.253   0.119  0.1928  0.0989 -0.1487
   87GLOH   H04 9391   9.151   8.278   0.066 -1.1114  1.0144 -2.0776
   87GLOH    O2 9392   9.038   8.109   0.111 -1.0327  0.3198  0.2310
   87GLOH   H05 9393   9.081   8.078   0.030 -0.0538  1.3556  0.3502
   87GLOH    C3 9394   8.953   8.345   0.055  0.0218  0.1709  0.1305
   87GLOH   H06 9395   8.992   8.447   0.050  0.2598  0.1751  1.7357
   87GLOH   H07 9396   8.862   8.348   0.115  0.4714 -0.5502  0.8620
   87GLOH    O3 9397   8.915   8.301  -0.073  0.0618  0.0693 -0.1723
   87GLOH   H01 9398   8.875   8.213  -0.065  0.3474 -0.0465  0.0026
   88GLOH   H03 9399   3.974   2.843   0.049  0.9030  0.4771  0.3372
   88GLOH    O1 9400   3.962   2.939   0.045  0.1705  0.3690 -0.1967
   88GLOH    C1 9401   3.888   2.970   0.169 -0.4626  0.1201 -0.6718
   88GLOH   H02 9402   3.939   2.932   0.257 -1.2619  0.1729 -0.1848
   88GLOH   H08 9403   3.789   2.924   0.169 -0.5425  0.2939  0.8307
   88GLOH    C2 9404   3.870   3.121   0.173 -0.2400  0.3147  0.0110
   88GLOH   H04 9405   3.816   3.139   0.079 -0.9131  3.1412  0.9079
   88GLOH    O2 9406   3.800   3.161   0.295 -0.3512 -0.1655  0.7138
   88GLOH   H05 9407   3.781   3.256   0.305  1.0539  0.2305 -0.2134
   88GLOH    C3 9408   4.006   3.183   0.158 -0.1515  0.0126  0.2620
   88GLOH   H06 9409   3.996   3.288   0.184 -0.5096 -0.1517  0.7929
   88GLOH   H07 9410   4.045   3.162   0.059 -0.5230  1.4275 -0.1929
   88GLOH    O3 9411   4.102   3.124   0.257 -0.0537 -0.0002  0.4025
   88GLOH   H01 9412   4.084   3.149   0.350 -4.4640 -0.8875 -0.0662
   89GLOH   H03 9413   5.089   9.227   1.936 -0.7281 -2.0917  0.9852
   89GLOH    O1 9414   5.013   9.276   1.970 -0.0871 -0.0873 -0.3882
   89GLOH    C1 9415   5.051   9.413   1.981  0.6600 -0.1162 -0.1048
   89GLOH   H02 9416   5.094   9.436   2.078  0.7880 -1.0120  0.0628
   89GLOH   H08 9417   4.962   9.474   1.988  0.5054 -0.3576  0.0195
   89GLOH    C2 9418   5.149   9.463   1.874  0.7239 -0.1162  0.1600
   89GLOH   H04 9419   5.109   9.450   1.773  1.2344 -2.2272  0.2122
   89GLOH    O2 9420   5.187   9.599   1.883 -0.4976  0.5847  0.8441
   89GLOH   H05 9421   5.178   9.632   1.974  0.4175  0.5194  0.9589
   89GLOH    C3 9422   5.268   9.373   1.893 -0.0582  0.0693 -0.1186
   89GLOH   H06 9423   5.309   9.364   1.993 -0.9269 -0.8737  0.1585
   89GLOH   H07 9424   5.352   9.412   1.835 -1.2660 -0.6429 -2.3855
   89GLOH    O3 9425   5.239   9.241   1.845 -0.5458 -0.3339 -0.3883
   89GLOH   H01 9426   5.324   9.193   1.841 -0.8440 -1.0587  1.6105
   90GLOH   H03 9427   3.671   5.114   3.329 -2.6519  0.2719  0.3497
   90GLOH    O1 9428   3.704   5.206   3.338 -0.4614 -0.4782  0.3637
   90GLOH    C1 9429   3.596   5.294   3.314  0.5881 -0.3593 -0.2139
   90GLOH   H02 9430   3.511   5.244   3.360 -0.0108  0.7947 -0.0372
   90GLOH   H08 9431   3.565   5.295   3.209  2.2580  0.7916 -0.7231
   90GLOH    C2 9432   3.604   5.431   3.379 -0.3788 -0.4894 -0.0983
   90GLOH   H04 9433   3.674   5.491   3.318  1.0291  0.6401  2.5723
   90GLOH    O2 9434   3.475   5.486   3.382  0.1805 -0.0849  0.2921
   90GLOH   H05 9435   3.472   5.583   3.391 -0.6535 -0.1448  0.6790
   90GLOH    C3 9436   3.666   5.433   3.522  0.0557  0.3708 -0.3338
   90GLOH   H06 9437   3.594   5.396   3.594  0.0204  0.3992 -0.3550
   90GLOH   H07 9438   3.691   5.536   3.549 -1.7592  0.9505 -0.7912
   90GLOH    O3 9439   3.781   5.353   3.533 -0.6359 -0.2329  0.1834
   90GLOH   H01 9440   3.759   5.276   3.478  1.3657 -0.5704 -0.2004
   91GLOH   H03 9441   7.907   2.060   3.095  0.9410  1.5205  0.1229
   91GLOH    O1 9442   7.941   2.051   3.186 -0.2036 -0.6211  0.3747
   91GLOH    C1 9443   7.823   2.017   3.255  0.4071  0.3213 -0.3792
   91GLOH   H02 9444   7.844   2.010   3.362 -0.3922 -1.0319 -0.2954
   91GLOH   H08 9445   7.791   1.917   3.226 -0.2916  0.4810 -0.1575
   91GLOH    C2 9446   7.704   2.109   3.220 -0.0488  0.1389 -0.3243
   91GLOH   H04 9447   7.751   2.200   3.180  2.0071 -0.9433 -0.4250
   91GLOH    O2 9448   7.619   2.043   3.115  0.2034  0.5337  0.4953
   91GLOH   H05 9449   7.574   2.111   3.061  1.4045  2.1266  1.4497
   91GLOH    C3 9450   7.626   2.143   3.345  0.9458  0.2192  0.2519
   91GLOH   H06 9451   7.595   2.053   3.397 -0.5222  1.7132  2.0231
   91GLOH   H07 9452   7.529   2.190   3.328  0.1403 -1.1407  1.0009
   91GLOH    O3 9453   7.706   2.224   3.428 -0.4395  0.2091  0.5213
   91GLOH   H01 9454   7.748   2.303   3.389  0.2520 -0.9317 -1.0909
   92GLOH   H03 9455   4.587   0.709   0.729  2.2826  2.0698 -0.6861
   92GLOH    O1 9456   4.585   0.654   0.648 -0.1039  0.3850  0.4566
   92GLOH    C1 9457   4.530   0.518   0.649 -0.0238  0.4564 -0.1766
   92GLOH   H02 9458   4.525   0.484   0.545  0.9245 -1.0621  0.2503
   92GLOH   H08 9459   4.428   0.515   0.687  0.4756 -2.0100  1.0461
   92GLOH    C2 9460   4.619   0.417   0.726  0.0558  0.4738  1.4120
   92GLOH   H04 9461   4.589   0.447   0.828 -0.2183  2.2108  0.8398
   92GLOH    O2 9462   4.587   0.284   0.695  0.1096  0.1764 -0.2644
   92GLOH   H05 9463   4.666   0.228   0.703  0.6348  0.7522 -1.2730
   92GLOH    C3 9464   4.771   0.437   0.697 -0.5224  0.5739  0.1501
   92GLOH   H06 9465   4.788   0.545   0.701 -1.1288  0.6446  0.8106
   92GLOH   H07 9466   4.787   0.410   0.593  0.5571 -1.5468  0.8433
   92GLOH    O3 9467   4.861   0.373   0.792  0.0176  0.2570  0.2305
   92GLOH   H01 9468   4.860   0.281   0.759 -0.4005  0.5216 -0.4825
   93GLOH   H03 9469   5.619   9.738   2.904  0.1802 -1.7475 -0.2337
   93GLOH    O1 9470   5.523   9.744   2.917  0.2764  0.0934 -0.3088
   93GLOH    C1 9471   5.497   9.871   2.981  0.4345 -0.1017 -0.5628
   93GLOH   H02 9472   5.588   9.915   3.022 -0.4079  0.4040  0.8054
   93GLOH   H08 9473   5.428   9.851   3.063  0.8520  1.2284  0.1196
   93GLOH    C2 9474   5.439   9.976   2.884 -0.1466 -0.4427 -0.5007
   93GLOH   H04 9475   5.344   9.931   2.851 -0.1146 -2.2637  1.7568
   93GLOH    O2 9476   5.417  10.104   2.956  0.1057  0.0896  0.0880
   93GLOH   H05 9477   5.503  10.149   2.953 -0.1406  0.6986  1.7342
   93GLOH    C3 9478   5.531  10.000   2.761 -0.1783  0.3599  0.2847
   93GLOH   H06 9479   5.539   9.902   2.713 -0.0386 -0.4158  1.8799
   93GLOH   H07 9480   5.637  10.011   2.786  0.5433 -2.5296 -1.2552
   93GLOH    O3 9481   5.489  10.109   2.677 -0.3990 -0.4784  0.1910
   93GLOH   H01 9482   5.394  10.104   2.654 -0.1572 -2.1388 -0.5347
   94GLOH   H03 9483   4.567   4.653   0.010  2.1007  3.2973  2.0235
   94GLOH    O1 9484   4.483   4.695   0.038 -0.2012  0.2369  0.0812
   94GLOH    C1 9485   4.502   4.834   0.020  0.5343 -0.0165  0.5754
   94GLOH   H02 9486   4.497   4.853  -0.087 -0.0074  0.5683  0.7041
   94GLOH   H08 9487   4.599   4.872   0.053  1.1693 -0.2787 -0.9087
   94GLOH    C2 9488   4.399   4.918   0.100 -0.2843 -0.4314  0.2558
   94GLOH   H04 9489   4.423   4.909   0.207 -0.2749 -0.0866  0.2842
   94GLOH    O2 9490   4.422   5.050   0.059  0.2663 -0.1069  0.1964
   94GLOH   H05 9491   4.400   5.112   0.131  0.0880  0.8050 -0.6223
   94GLOH    C3 9492   4.250   4.878   0.077 -0.3594  0.3448 -0.3321
   94GLOH   H06 9493   4.220   4.907  -0.024  0.9214  1.1764 -0.4805
   94GLOH   H07 9494   4.197   4.943   0.146  0.6108  0.3903  0.3762
   94GLOH    O3 9495   4.218   4.745   0.098  0.3337  0.2616 -0.1890
   94GLOH   H01 9496   4.304   4.700   0.109  1.2230  2.0887  0.5780
   95GLOH   H03 9497   4.638   8.274   0.646  0.4474  0.3820  1.1904
   95GLOH    O1 9498   4.608   8.252   0.736 -0.0743 -0.2984  0.8531
   95GLOH    C1 9499   4.705   8.279   0.835 -0.5885 -1.1999  0.1721
   95GLOH   H02 9500   4.771   8.358   0.797 -0.2547 -0.0196  3.0594
   95GLOH   H08 9501   4.774   8.199   0.861  0.4768 -0.2894  0.2122
   95GLOH    C2 9502   4.626   8.327   0.955 -0.4120 -0.1407  0.4306
   95GLOH   H04 9503   4.554   8.250   0.984 -3.3838  2.0767 -0.7781
   95GLOH    O2 9504   4.713   8.356   1.065 -0.4651 -0.4896 -0.5677
   95GLOH   H05 9505   4.702   8.449   1.093  0.1687 -1.0086  1.4496
   95GLOH    C3 9506   4.545   8.448   0.906  0.5703 -0.2675 -0.5364
   95GLOH   H06 9507   4.466   8.417   0.838  0.0568 -1.6030  0.6386
   95GLOH   H07 9508   4.602   8.516   0.842  0.4046  1.0345  0.6813
   95GLOH    O3 9509   4.501   8.539   1.011 -0.2072  0.5183 -0.6056
   95GLOH   H01 9510   4.424   8.494   1.051  0.4168  1.3620  1.6740
   96GLOH   H03 9511   4.385   5.040   3.360 -2.0398  1.0664  1.0648
   96GLOH    O1 9512   4.347   5.049   3.271  0.3149 -0.2902 -0.1219
   96GLOH    C1 9513   4.232   5.139   3.292  0.5825  0.4539  0.1952
   96GLOH   H02 9514   4.271   5.240   3.277  1.7791 -0.1814 -1.1211
   96GLOH   H08 9515   4.198   5.133   3.395  1.0277 -0.1839  0.3075
   96GLOH    C2 9516   4.113   5.108   3.204  0.6844  0.1101 -0.1574
   96GLOH   H04 9517   4.077   5.004   3.215 -0.6690  0.4484 -1.2136
   96GLOH    O2 9518   4.002   5.200   3.219  0.5478 -0.2751  0.0371
   96GLOH   H05 9519   3.928   5.168   3.165  0.6608 -3.1105  1.4654
   96GLOH    C3 9520   4.155   5.111   3.060  0.3663 -0.3851  0.0747
   96GLOH   H06 9521   4.187   5.212   3.031  1.4808 -0.2620  1.6433
   96GLOH   H07 9522   4.066   5.092   3.001  1.6189 -0.0015 -2.0219
   96GLOH    O3 9523   4.263   5.021   3.034 -0.5968 -0.5286 -0.1956
   96GLOH   H01 9524   4.328   5.035   3.105 -0.8436 -2.3780  0.4503
   97GLOH   H03 9525   3.963   3.657   0.231 -3.3569 -2.5827 -1.9103
   97GLOH    O1 9526   4.034   3.644   0.165 -0.6887  0.0041  0.3145
   97GLOH    C1 9527   4.120   3.533   0.217 -0.3982  0.0078 -0.2140
   97GLOH   H02 9528   4.175   3.489   0.134 -0.3801 -0.4064  0.0154
   97GLOH   H08 9529   4.049   3.460   0.258 -0.9872  0.7508  0.0978
   97GLOH    C2 9530   4.212   3.574   0.331 -0.2324 -0.1963 -0.0478
   97GLOH   H04 9531   4.148   3.618   0.408 -0.5901  0.1424 -0.5313
   97GLOH    O2 9532   4.276   3.462   0.383 -0.6893 -0.6278 -0.0869
   97GLOH   H05 9533   4.209   3.405   0.426 -2.2963  1.5524  0.4117
   97GLOH    C3 9534   4.320   3.666   0.273 -0.8751 -0.7705  0.0290
   97GLOH   H06 9535   4.388   3.613   0.206 -0.4654 -0.3020  0.0700
   97GLOH   H07 9536   4.375   3.702   0.360 -0.1328  0.1314 -0.8043
   97GLOH    O3 9537   4.261   3.782   0.205  0.0994  0.5101 -0.3149
   97GLOH   H01 9538   4.190   3.747   0.149 -0.2546  0.5357  0.1204
   98GLOH   H03 9539   6.697   9.344   2.706  0.2085 -0.2789 -0.1035
   98GLOH    O1 9540   6.603   9.361   2.688  0.2083  0.0575  0.1994
   98GLOH    C1 9541   6.531   9.244   2.657  0.4743 -0.6516  0.4329
   98GLOH   H02 9542   6.452   9.220   2.728 -0.7764 -1.0495 -1.0893
   98GLOH   H08 9543   6.603   9.165   2.635 -1.3115 -2.0886 -0.2953
   98GLOH    C2 9544   6.450   9.261   2.525 -0.3826  0.0953  0.0988
   98GLOH   H04 9545   6.408   9.363   2.523 -0.5508  0.0240 -0.0506
   98GLOH    O2 9546   6.516   9.240   2.395  0.2117 -0.3474 -0.1697
   98GLOH   H05 9547   6.607   9.273   2.393  0.6431 -1.5917 -2.0577
   98GLOH    C3 9548   6.339   9.154   2.520 -0.4554  0.0732 -0.4428
   98GLOH   H06 9549   6.392   9.060   2.539 -1.9723 -0.6460  0.3391
   98GLOH   H07 9550   6.284   9.150   2.426  0.1481  0.7743 -0.8344
   98GLOH    O3 9551   6.242   9.174   2.626 -0.5022  0.0300  0.0455
   98GLOH   H01 9552   6.183   9.098   2.642  0.3144 -0.2535  1.8481
   99GLOH   H03 9553   8.308   2.437   1.792  1.0264  0.0697 -1.5559
   99GLOH    O1 9554   8.311   2.535   1.791 -0.2203  0.1366 -0.1426
   99GLOH    C1 9555   8.255   2.574   1.919  0.2936  0.2944  0.8763
   99GLOH   H02 9556   8.165   2.517   1.941 -0.2839  0.5797 -0.6712
   99GLOH   H08 9557   8.226   2.679   1.912  1.9776  0.9307  3.0760
   99GLOH    C2 9558   8.351   2.556   2.035  0.0903  0.5751  0.0988
   99GLOH   H04 9559   8.292   2.564   2.128  1.3536  1.4586  0.8546
   99GLOH    O2 9560   8.406   2.418   2.043 -0.0375 -0.0848 -0.0956
   99GLOH   H05 9561   8.380   2.383   2.130  1.6470  1.3228  1.0104
   99GLOH    C3 9562   8.465   2.660   2.043 -0.1313  0.2950 -0.0437
   99GLOH   H06 9563   8.530   2.653   1.956  0.6036  0.4358  0.4940
   99GLOH   H07 9564   8.521   2.635   2.133 -0.2607 -0.9622 -0.3053
   99GLOH    O3 9565   8.405   2.790   2.049 -0.1081 -0.3565 -0.6226
   99GLOH   H01 9566   8.343   2.790   2.123  1.2741 -0.9361  0.5629
  100GLOH   H03 9567   7.922   7.704   0.034 -0.0214  0.4645  0.3409
  100GLOH    O1 9568   8.002   7.691   0.088  0.2548  0.1859 -0.1301
  100GLOH    C1 9569   8.041   7.558   0.090  0.1965  0.0058 -0.1246
  100GLOH   H02 9570   8.148   7.549   0.069  0.3718 -0.8140  1.0807
  100GLOH   H08 9571   7.985   7.498   0.019  1.1983 -1.1681  0.0630
  100GLOH    C2 9572   8.012   7.484   0.223 -0.2702 -0.5730 -0.8065
  100GLOH   H04 9573   7.903   7.488   0.240 -0.4230 -1.0093 -1.6374
  100GLOH    O2 9574   8.066   7.357   0.227  0.7105 -1.0514  0.4386
  100GLOH   H05 9575   8.012   7.312   0.160 -1.7163  0.6942  1.1425
  100GLOH    C3 9576   8.082   7.557   0.339 -0.7503 -0.0281 -0.2459
  100GLOH   H06 9577   8.190   7.546   0.323 -1.0494 -0.8611 -1.6965
  100GLOH   H07 9578   8.059   7.503   0.431  0.4462  0.4910  0.3679
  100GLOH    O3 9579   8.030   7.693   0.340  0.1908  0.1844  0.3337
  100GLOH   H01 9580   8.006   7.701   0.245  0.8410 -1.5214  0.0216
  101GLOH   H03 9581   1.851   4.235   0.563  0.6121  0.9030  0.1809
  101GLOH    O1 9582   1.864   4.231   0.466 -0.3349  0.9443  0.0522
  101GLOH    C1 9583   1.902   4.108   0.410 -1.0349 -0.2786 -0.1172
  101GLOH   H02 9584   1.814   4.062   0.365 -2.2180 -0.8893  2.6829
  101GLOH   H08 9585   1.948   4.036   0.478  0.3436  0.6524 -0.0498
  101GLOH    C2 9586   2.014   4.145   0.313 -0.2210 -0.3565 -0.3262
  101GLOH   H04 9587   2.048   4.048   0.277 -1.4118 -1.5928  1.7419
  101GLOH    O2 9588   1.961   4.238   0.213 -0.0357  0.1221 -0.1684
  101GLOH   H05 9589   1.932   4.320   0.256 -2.0406 -0.5465 -0.2039
  101GLOH    C3 9590   2.132   4.209   0.392 -0.0298  0.2639 -0.1565
  101GLOH   H06 9591   2.092   4.296   0.443  0.3984  0.2740  0.1698
  101GLOH   H07 9592   2.208   4.239   0.320  0.8005 -2.1536 -0.3668
  101GLOH    O3 9593   2.191   4.110   0.473 -0.0453 -0.2565 -0.0547
  101GLOH   H01 9594   2.208   4.135   0.566  0.3821 -0.5123 -0.0616
  102GLOH   H03 9595   1.426   4.145   0.748  1.5314  3.8472 -0.3937
  102GLOH    O1 9596   1.511   4.096   0.750 -0.5742 -0.0109 -0.8483
  102GLOH    C1 9597   1.544   4.071   0.888  0.4238  0.0448  0.5373
  102GLOH   H02 9598   1.498   4.152   0.943 -1.8800  0.0746 -1.3655
  102GLOH   H08 9599   1.652   4.080   0.901  0.4056  0.0636  0.6760
  102GLOH    C2 9600   1.503   3.934   0.941 -0.8655 -0.0533  0.0967
  102GLOH   H04 9601   1.401   3.912   0.908 -0.9343 -1.9109  1.4649
  102GLOH    O2 9602   1.597   3.842   0.886 -0.2642  0.3435 -0.0999
  102GLOH   H05 9603   1.571   3.828   0.794 -0.3072  0.1381 -0.0553
  102GLOH    C3 9604   1.512   3.951   1.094  0.2996  0.0068  0.1197
  102GLOH   H06 9605   1.600   4.010   1.120 -0.8280  1.9330 -0.3720
  102GLOH   H07 9606   1.521   3.852   1.139  2.6260  0.1543  0.0163
  102GLOH    O3 9607   1.394   4.018   1.148 -0.2228 -0.1432  0.0191
  102GLOH   H01 9608   1.402   4.028   1.244 -2.9206 -1.1148  0.3905
  103GLOH   H03 9609   2.137   4.577   0.396  1.9285 -0.3475  1.5446
  103GLOH    O1 9610   2.078   4.579   0.473  0.3688  0.0425  0.3798
  103GLOH    C1 9611   2.157   4.544   0.590 -0.1577 -0.6059  0.3819
  103GLOH   H02 9612   2.188   4.636   0.639 -1.5459 -1.5818  3.1996
  103GLOH   H08 9613   2.253   4.498   0.569 -0.6000 -1.9372  1.2028
  103GLOH    C2 9614   2.082   4.455   0.691 -0.0833  0.0269 -0.0893
  103GLOH   H04 9615   2.072   4.353   0.652  1.2401  0.8002 -2.5588
  103GLOH    O2 9616   2.155   4.454   0.818 -0.0198  0.6713 -0.2256
  103GLOH   H05 9617   2.146   4.367   0.861  1.8136  0.9032  0.6583
  103GLOH    C3 9618   1.947   4.512   0.720  0.3034 -0.1082 -0.0187
  103GLOH   H06 9619   1.902   4.521   0.621  0.1963 -0.6296 -0.0197
  103GLOH   H07 9620   1.956   4.614   0.757  1.1698  0.4243 -1.6457
  103GLOH    O3 9621   1.865   4.432   0.812  0.5363 -0.8686  0.0530
  103GLOH   H01 9622   1.776   4.471   0.812  0.1918 -1.6400 -1.0337
  104GLOH   H03 9623   9.251   4.953   1.072 -1.4059  2.5203  0.1494
  104GLOH    O1 9624   9.180   4.918   1.130 -0.3354 -0.2259 -0.1572
  104GLOH    C1 9625   9.222   4.790   1.184  0.2570  0.8028 -0.2246
  104GLOH   H02 9626   9.161   4.755   1.267 -0.7458  0.4951 -1.0836
  104GLOH   H08 9627   9.324   4.804   1.220  0.4638 -1.3355  0.0340
  104GLOH    C2 9628   9.240   4.682   1.076  0.2767 -0.6905 -0.0826
  104GLOH   H04 9629   9.344   4.686   1.041  0.2965  1.5459  0.1124
  104GLOH    O2 9630   9.223   4.556   1.153  0.2768 -0.6082 -0.2430
  104GLOH   H05 9631   9.130   4.549   1.182 -0.3510 -0.0529 -2.0323
  104GLOH    C3 9632   9.144   4.700   0.958  0.7398 -0.2724 -0.0010
  104GLOH   H06 9633   9.112   4.611   0.903 -0.8321  0.9567 -1.0922
  104GLOH   H07 9634   9.184   4.771   0.886 -0.6667  0.9101  0.3790
  104GLOH    O3 9635   9.017   4.749   0.999  0.0095  0.0604  0.3128
  104GLOH   H01 9636   9.025   4.821   1.065  0.9808 -1.2063  1.6271
  105GLOH   H03 9637   9.555   1.721   3.506 -0.5418  0.0929  0.0279
  105GLOH    O1 9638   9.584   1.691   3.418 -0.6306 -0.1889  0.0922
  105GLOH    C1 9639   9.616   1.548   3.422 -0.0240 -1.2117  0.4674
  105GLOH   H02 9640   9.531   1.495   3.465 -0.9033 -0.9439 -0.9191
  105GLOH   H08 9641   9.705   1.534   3.484  0.1794  0.0175  0.4674
  105GLOH    C2 9642   9.655   1.482   3.285 -0.6033  0.1290  0.0348
  105GLOH   H04 9643   9.736   1.541   3.240  0.5521 -1.1290  0.4041
  105GLOH    O2 9644   9.696   1.349   3.306 -0.3638 -0.1723  0.1329
  105GLOH   H05 9645   9.621   1.302   3.348  1.3495 -1.0227  2.3959
  105GLOH    C3 9646   9.546   1.479   3.181 -0.3062 -0.7616 -0.6465
  105GLOH   H06 9647   9.474   1.405   3.215 -1.8654  0.2108 -1.7570
  105GLOH   H07 9648   9.582   1.446   3.083  0.4586 -0.2492 -0.5399
  105GLOH    O3 9649   9.487   1.611   3.168  0.2339  0.5265 -0.3854
  105GLOH   H01 9650   9.403   1.601   3.119  1.2013 -2.3589 -1.5797
  106GLOH   H03 9651   0.882   2.766   1.349 -0.3349 -1.2812 -0.0636
  106GLOH    O1 9652   0.790   2.776   1.382 -0.1614  0.6017 -0.1274
  106GLOH    C1 9653   0.725   2.647   1.371 -0.1877  0.0774  0.2933
  106GLOH   H02 9654   0.785   2.573   1.424  1.1864  0.3577 -0.8282
  106GLOH   H08 9655   0.729   2.625   1.264  1.6149  0.2605  0.2972
  106GLOH    C2 9656   0.582   2.645   1.420  0.2697  0.1974 -0.1968
  106GLOH   H04 9657   0.526   2.727   1.374  0.8220  0.7605  0.1200
  106GLOH    O2 9658   0.516   2.518   1.388  0.3899  0.6331 -0.2292
  106GLOH   H05 9659   0.432   2.515   1.437 -1.2019 -1.7907 -2.9780
  106GLOH    C3 9660   0.583   2.657   1.574  1.4013 -0.7482 -0.2393
  106GLOH   H06 9661   0.634   2.748   1.605  2.2873 -0.9909 -0.9719
  106GLOH   H07 9662   0.642   2.573   1.613 -0.5005 -0.9828  2.2849
  106GLOH    O3 9663   0.462   2.662   1.649  0.2921 -0.0882 -0.1617
  106GLOH   H01 9664   0.404   2.613   1.588  1.3388 -0.8030 -0.5926
  107GLOH   H03 9665   9.153   8.228   2.085  1.7400  0.8210 -0.8881
  107GLOH    O1 9666   9.188   8.212   2.175 -0.4830  1.2201  0.0638
  107GLOH    C1 9667   9.227   8.330   2.245  0.1764  0.0661 -0.4863
  107GLOH   H02 9668   9.141   8.397   2.250  0.7693  0.7956  0.1619
  107GLOH   H08 9669   9.302   8.383   2.187  0.0587  1.9237  1.0157
  107GLOH    C2 9670   9.274   8.307   2.388  0.1748  1.2313 -0.2644
  107GLOH   H04 9671   9.355   8.233   2.399  0.0928  1.2812  0.7578
  107GLOH    O2 9672   9.329   8.434   2.426  0.1352  0.6998  0.8615
  107GLOH   H05 9673   9.392   8.417   2.498 -0.0317  0.4941  0.9584
  107GLOH    C3 9674   9.156   8.265   2.478 -0.2200 -0.3105  0.1930
  107GLOH   H06 9675   9.072   8.333   2.462  0.1698  0.0320 -0.4151
  107GLOH   H07 9676   9.203   8.288   2.573 -0.4842 -0.2421  0.3073
  107GLOH    O3 9677   9.114   8.127   2.476 -0.0942 -0.0691 -0.1508
  107GLOH   H01 9678   9.173   8.073   2.532 -1.0955 -2.0583 -0.9524
  108GLOH   H03 9679   4.974   9.687   0.736  0.8319 -1.1189 -0.0170
  108GLOH    O1 9680   4.989   9.658   0.644  0.1951 -0.3551 -0.3675
  108GLOH    C1 9681   4.949   9.520   0.624  0.2077  0.0858  0.4418
  108GLOH   H02 9682   4.876   9.493   0.700  0.4073  1.2716  1.0620
  108GLOH   H08 9683   5.033   9.453   0.637 -1.0296 -1.7120 -0.6307
  108GLOH    C2 9684   4.905   9.488   0.474  0.1428 -0.1513 -1.1897
  108GLOH   H04 9685   4.989   9.522   0.412  0.7243  0.6580  0.0127
  108GLOH    O2 9686   4.872   9.351   0.445  0.2511  0.1519  0.8368
  108GLOH   H05 9687   4.845   9.338   0.352 -1.9077 -0.0658  1.4507
  108GLOH    C3 9688   4.783   9.571   0.437 -0.2020 -0.7783  0.0126
  108GLOH   H06 9689   4.764   9.551   0.332  1.0618  2.7511 -0.9879
  108GLOH   H07 9690   4.811   9.675   0.454  0.1827 -0.7632 -0.7048
  108GLOH    O3 9691   4.672   9.538   0.519 -0.2724  0.4851 -0.0444
  108GLOH   H01 9692   4.656   9.609   0.584  0.0897  1.0207 -0.5414
  109GLOH   H03 9693   3.530   2.630   3.203 -2.9930 -1.3586  0.8426
  109GLOH    O1 9694   3.524   2.670   3.291 -0.5806 -0.0386  0.4353
  109GLOH    C1 9695   3.643   2.725   3.334 -0.0042 -0.4670 -0.2218
  109GLOH   H02 9696   3.719   2.648   3.346 -0.0186 -0.1426  2.0679
  109GLOH   H08 9697   3.632   2.763   3.435  0.5052  0.8778 -0.6574
  109GLOH    C2 9698   3.697   2.842   3.247  0.2059  0.0271 -0.4697
  109GLOH   H04 9699   3.789   2.868   3.300 -1.0882 -0.5610  2.1665
  109GLOH    O2 9700   3.732   2.810   3.112 -0.1143  0.7545  0.0403
  109GLOH   H05 9701   3.753   2.715   3.116  0.1330  0.8421  0.9434
  109GLOH    C3 9702   3.614   2.973   3.258 -0.3984  0.3893  0.2068
  109GLOH   H06 9703   3.666   3.046   3.196  1.3137 -0.5307  0.5439
  109GLOH   H07 9704   3.623   3.005   3.362 -0.1245  0.2162  0.2366
  109GLOH    O3 9705   3.471   2.962   3.233  0.1701  0.1797  0.2776
  109GLOH   H01 9706   3.422   2.976   3.316  1.5763  0.2359  1.1099
  110GLOH   H03 9707   8.850   2.668   1.243  0.2576 -0.7375  1.9680
  110GLOH    O1 9708   8.807   2.750   1.275 -0.3354 -0.2564  0.0103
  110GLOH    C1 9709   8.795   2.760   1.417 -0.2570  0.9245  0.8889
  110GLOH   H02 9710   8.880   2.809   1.464  0.8723  0.3782 -0.5671
  110GLOH   H08 9711   8.782   2.662   1.464  0.1717 -0.1070 -1.1028
  110GLOH    C2 9712   8.680   2.848   1.464 -0.2161 -0.1969  0.5222
  110GLOH   H04 9713   8.588   2.809   1.419 -0.7252  1.4066  0.1215
  110GLOH    O2 9714   8.657   2.866   1.603 -0.5525 -0.0521 -0.4337
  110GLOH   H05 9715   8.604   2.789   1.628  2.5815 -2.2211 -0.2237
  110GLOH    C3 9716   8.694   2.986   1.394 -0.3158  0.5315  0.4806
  110GLOH   H06 9717   8.711   2.970   1.287 -1.8001  1.1321  0.1446
  110GLOH   H07 9718   8.788   3.029   1.428 -0.2554  1.3816 -0.7235
  110GLOH    O3 9719   8.583   3.076   1.412  0.0546 -0.0977 -0.2083
  110GLOH   H01 9720   8.498   3.035   1.436  0.5425  1.5796  4.9508
  111GLOH   H03 9721   4.444   3.364   2.508  1.4273  0.6381  3.5271
  111GLOH    O1 9722   4.507   3.296   2.479  0.1143  0.6351  0.3867
  111GLOH    C1 9723   4.518   3.185   2.573 -0.8805  0.2976 -0.0217
  111GLOH   H02 9724   4.541   3.220   2.673 -1.4648 -0.4512  0.3812
  111GLOH   H08 9725   4.600   3.122   2.538 -0.1681  2.4798 -2.4616
  111GLOH    C2 9726   4.397   3.096   2.601 -0.0985  0.6423  0.4435
  111GLOH   H04 9727   4.433   3.020   2.671  1.9704  0.6664 -0.5497
  111GLOH    O2 9728   4.287   3.169   2.661 -0.1579 -0.0159 -0.0805
  111GLOH   H05 9729   4.297   3.263   2.639  0.0804  0.0181  0.1672
  111GLOH    C3 9730   4.352   3.016   2.477 -0.5656 -0.3575  0.9139
  111GLOH   H06 9731   4.324   3.091   2.403  0.5316 -1.0337 -0.2098
  111GLOH   H07 9732   4.266   2.953   2.500 -0.0663 -0.2327  3.3186
  111GLOH    O3 9733   4.468   2.944   2.430  0.7633  0.3080 -0.5178
  111GLOH   H01 9734   4.445   2.873   2.367 -3.6666  1.1215  0.0150
  112GLOH   H03 9735   2.718   5.388   1.730 -0.2124 -0.7914 -0.3493
  112GLOH    O1 9736   2.659   5.445   1.677  0.3492 -0.4802 -0.6529
  112GLOH    C1 9737   2.675   5.412   1.542  0.2144 -0.2460  0.5399
  112GLOH   H02 9738   2.770   5.364   1.521  0.4676 -0.3371  1.8361
  112GLOH   H08 9739   2.678   5.505   1.486 -1.5703 -0.1671  0.5303
  112GLOH    C2 9740   2.567   5.319   1.483  0.1889  0.2925  0.3651
  112GLOH   H04 9741   2.481   5.387   1.489  2.1369  2.8982 -0.7191
  112GLOH    O2 9742   2.605   5.284   1.346 -0.0410  0.1149 -0.1343
  112GLOH   H05 9743   2.547   5.220   1.301  3.4848 -2.2469 -1.5524
  112GLOH    C3 9744   2.535   5.194   1.567 -0.0022  0.0992  0.1519
  112GLOH   H06 9745   2.492   5.216   1.664 -2.7064  1.0925 -1.2329
  112GLOH   H07 9746   2.624   5.134   1.587  0.7600  1.6898  1.6386
  112GLOH    O3 9747   2.444   5.104   1.498 -0.1557 -0.3969 -0.2891
  112GLOH   H01 9748   2.407   5.041   1.563 -1.4897 -0.0488 -0.6988
  113GLOH   H03 9749   1.019   0.813   0.163 -0.9429  0.4277 -0.0854
  113GLOH    O1 9750   1.077   0.888   0.142  0.3529 -0.4987  0.1155
  113GLOH    C1 9751   1.076   0.924   0.004 -0.9708 -0.3821 -0.0111
  113GLOH   H02 9752   1.099   0.837  -0.058 -1.4459 -0.6030  0.1200
  113GLOH   H08 9753   1.156   0.995  -0.014  0.5727 -1.1123  3.5524
  113GLOH    C2 9754   0.942   0.980  -0.038  0.4634 -0.1994 -0.1171
  113GLOH   H04 9755   0.956   1.030  -0.135 -1.3926 -0.9516 -0.8026
  113GLOH    O2 9756   0.847   0.873  -0.053  0.0802 -0.5079  0.1339
  113GLOH   H05 9757   0.899   0.797  -0.084 -1.1274  0.2002 -3.9106
  113GLOH    C3 9758   0.894   1.086   0.066  0.0624  0.0376 -0.7746
  113GLOH   H06 9759   0.875   1.051   0.168 -0.2340 -0.0975 -0.8761
  113GLOH   H07 9760   0.796   1.119   0.032  0.6207 -0.0406 -2.4804
  113GLOH    O3 9761   0.995   1.191   0.065 -0.1863  0.5768 -0.5319
  113GLOH   H01 9762   1.029   1.199  -0.026  1.2596  2.2244  0.1368
  114GLOH   H03 9763   8.078   9.082   2.320  0.5701 -0.8827 -0.0007
  114GLOH    O1 9764   8.175   9.082   2.324  0.5591  0.0397  0.3858
  114GLOH    C1 9765   8.222   9.111   2.195 -0.1789 -0.0819  0.3116
  114GLOH   H02 9766   8.140   9.096   2.126 -0.7843 -1.3305  1.2857
  114GLOH   H08 9767   8.297   9.034   2.177 -0.0770 -0.2262  1.2985
  114GLOH    C2 9768   8.287   9.251   2.174  0.0732  0.7518  0.1238
  114GLOH   H04 9769   8.292   9.266   2.065 -2.3288  1.9316  0.1344
  114GLOH    O2 9770   8.208   9.363   2.225  0.5182 -0.2445 -0.1102
  114GLOH   H05 9771   8.118   9.329   2.223  0.1571  0.7216 -0.5931
  114GLOH    C3 9772   8.430   9.249   2.227  0.7989 -0.4541 -0.1310
  114GLOH   H06 9773   8.420   9.200   2.324 -1.9959 -2.1950 -1.2237
  114GLOH   H07 9774   8.453   9.354   2.246 -4.4751  0.7454  0.3619
  114GLOH    O3 9775   8.520   9.178   2.138 -0.1629 -0.9385  0.4334
  114GLOH   H01 9776   8.611   9.214   2.142 -0.1402 -1.0256  0.8265
  115GLOH   H03 9777   9.146  -0.023   2.580 -0.3647 -1.4750 -0.1107
  115GLOH    O1 9778   9.202  -0.031   2.659  0.2998 -0.2224 -0.4379
  115GLOH    C1 9779   9.176   0.090   2.725  0.2070 -0.4065 -0.1249
  115GLOH   H02 9780   9.090   0.083   2.792 -1.3034 -2.1859 -2.1908
  115GLOH   H08 9781   9.148   0.164   2.649 -0.2137  1.5035  1.8340
  115GLOH    C2 9782   9.291   0.138   2.813 -0.3018 -0.0500 -0.3338
  115GLOH   H04 9783   9.382   0.142   2.752  0.7089  1.2822  1.2096
  115GLOH    O2 9784   9.263   0.270   2.847 -0.0057  0.2661 -0.1752
  115GLOH   H05 9785   9.254   0.325   2.768 -1.4224 -0.2861 -0.3938
  115GLOH    C3 9786   9.305   0.041   2.935  0.4493  0.7452 -0.2084
  115GLOH   H06 9787   9.339  -0.054   2.894 -1.4032  0.2493 -0.6745
  115GLOH   H07 9788   9.209   0.017   2.981  1.8051  0.5365  2.5786
  115GLOH    O3 9789   9.401   0.092   3.031  0.2761  0.2974 -0.1231
  115GLOH   H01 9790   9.493   0.069   3.007  0.4454  0.7612  0.0737
  116GLOH   H03 9791   9.054   6.465   0.322  0.3521 -0.1173  0.4348
  116GLOH    O1 9792   9.057   6.508   0.409  0.8650 -0.2335  0.4731
  116GLOH    C1 9793   9.016   6.649   0.406 -0.4602 -0.4016 -0.5049
  116GLOH   H02 9794   9.090   6.713   0.356  0.4794 -1.3288 -0.3158
  116GLOH   H08 9795   8.991   6.691   0.503 -1.6632 -0.8610 -0.6055
  116GLOH    C2 9796   8.884   6.674   0.332 -0.1878  0.2032  0.0925
  116GLOH   H04 9797   8.852   6.778   0.348  2.8318  1.2831 -0.6886
  116GLOH    O2 9798   8.899   6.654   0.193  0.6215  0.8184 -0.0549
  116GLOH   H05 9799   8.940   6.567   0.176 -1.4201 -0.1377 -0.2817
  116GLOH    C3 9800   8.770   6.578   0.377 -0.0527  0.1526 -0.5101
  116GLOH   H06 9801   8.790   6.474   0.354  0.8192  0.0732  0.5974
  116GLOH   H07 9802   8.677   6.606   0.327 -0.1668  0.8209  0.0767
  116GLOH    O3 9803   8.746   6.592   0.519 -0.1616 -0.0975  0.0775
  116GLOH   H01 9804   8.668   6.542   0.550  0.3406 -0.6850  0.4158
  117GLOH   H03 9805   7.603   1.876   3.145  0.2465 -0.1289 -0.3422
  117GLOH    O1 9806   7.617   1.780   3.155 -0.0073 -0.1126  0.1737
  117GLOH    C1 9807   7.680   1.736   3.036 -0.3711  0.5645  0.3307
  117GLOH   H02 9808   7.781   1.775   3.028 -0.2088  0.2190  0.6827
  117GLOH   H08 9809   7.626   1.778   2.951 -1.7194  0.4370  1.1109
  117GLOH    C2 9810   7.679   1.581   3.023 -0.2582 -0.6168  0.4167
  117GLOH   H04 9811   7.576   1.548   3.042 -0.7914 -0.5743 -2.2294
  117GLOH    O2 9812   7.721   1.541   2.889  0.9552  0.2952 -0.5987
  117GLOH   H05 9813   7.751   1.448   2.893  0.1754  0.0978  1.8064
  117GLOH    C3 9814   7.755   1.503   3.133 -0.1855  0.2494 -0.4381
  117GLOH   H06 9815   7.723   1.542   3.230 -0.6526  0.5481 -0.7126
  117GLOH   H07 9816   7.863   1.514   3.125 -0.0370 -1.3452 -0.7662
  117GLOH    O3 9817   7.729   1.360   3.121 -0.4345  0.0603 -0.5818
  117GLOH   H01 9818   7.663   1.336   3.189  0.6217  0.4151  0.5894
  118GLOH   H03 9819   3.919   7.552   1.812  0.4439  0.2895  0.7610
  118GLOH    O1 9820   3.997   7.494   1.802  0.3134  0.2877 -0.2974
  118GLOH    C1 9821   4.074   7.508   1.930  0.3539 -0.4261  0.3881
  118GLOH   H02 9822   4.016   7.469   2.014  0.4470  0.5519  0.9152
  118GLOH   H08 9823   4.079   7.616   1.945 -2.9513 -0.1232 -0.3869
  118GLOH    C2 9824   4.210   7.434   1.935 -0.1141 -0.2294 -0.0979
  118GLOH   H04 9825   4.182   7.328   1.921 -0.9622 -0.3081  2.0765
  118GLOH    O2 9826   4.298   7.469   1.824  0.1870 -0.1939 -0.1494
  118GLOH   H05 9827   4.320   7.386   1.780 -0.3092 -0.0117 -0.7458
  118GLOH    C3 9828   4.279   7.449   2.064  0.4102 -0.0775  0.4763
  118GLOH   H06 9829   4.377   7.407   2.040 -0.4351 -1.5492 -0.4967
  118GLOH   H07 9830   4.229   7.385   2.137  0.3006  0.1268  0.5812
  118GLOH    O3 9831   4.292   7.586   2.099 -0.5969  0.0873  0.0127
  118GLOH   H01 9832   4.321   7.603   2.191 -0.3365  1.1997 -0.2673
  119GLOH   H03 9833   8.482   6.715   2.166  1.6960  3.1381  3.1632
  119GLOH    O1 9834   8.409   6.700   2.229 -0.1652  0.3270  0.5068
  119GLOH    C1 9835   8.374   6.554   2.227 -0.2385 -0.6853 -1.0539
  119GLOH   H02 9836   8.335   6.531   2.326  2.3003  0.0983  0.1867
  119GLOH   H08 9837   8.462   6.492   2.212  0.1525 -0.0451 -1.4513
  119GLOH    C2 9838   8.282   6.517   2.112 -0.1051  0.7453 -0.4756
  119GLOH   H04 9839   8.323   6.551   2.016  0.6377 -1.0115 -0.8022
  119GLOH    O2 9840   8.270   6.371   2.107 -0.0274  0.1325 -0.1318
  119GLOH   H05 9841   8.245   6.347   2.017 -0.2356  0.2050 -0.0930
  119GLOH    C3 9842   8.143   6.579   2.147  0.0760  0.4859 -0.6942
  119GLOH   H06 9843   8.109   6.533   2.239 -0.9681  1.3217 -0.6452
  119GLOH   H07 9844   8.076   6.556   2.064 -0.8691  0.6279  0.0242
  119GLOH    O3 9845   8.141   6.721   2.168  0.4731 -0.1474 -0.1201
  119GLOH   H01 9846   8.209   6.760   2.110  0.6110 -0.6160 -0.2713
  120GLOH   H03 9847   9.539   1.657   0.888 -0.0657 -1.0051  2.2761
  120GLOH    O1 9848   9.458   1.603   0.897 -0.6315 -0.5015  0.4453
  120GLOH    C1 9849   9.458   1.573   1.038  0.4346 -0.6379 -0.2321
  120GLOH   H02 9850   9.371   1.613   1.090  2.0638  1.0675  1.2385
  120GLOH   H08 9851   9.543   1.615   1.093  1.1754 -0.5924 -1.3945
  120GLOH    C2 9852   9.453   1.425   1.061  0.0912  0.0227  0.9730
  120GLOH   H04 9853   9.533   1.373   1.007 -0.5842  0.0250 -0.0410
  120GLOH    O2 9854   9.455   1.391   1.206  0.1954 -0.1719  0.4892
  120GLOH   H05 9855   9.516   1.453   1.251  1.5386 -1.4068  0.4098
  120GLOH    C3 9856   9.337   1.361   0.986  0.0037 -0.0749 -0.2707
  120GLOH   H06 9857   9.241   1.386   1.031 -0.1001 -2.1724  0.6929
  120GLOH   H07 9858   9.342   1.253   0.997 -0.7325  0.0200  1.1385
  120GLOH    O3 9859   9.325   1.397   0.851  0.5309 -0.6923  0.5898
  120GLOH   H01 9860   9.375   1.479   0.833 -1.0787  0.1754 -0.0075
  121ACOH    H4 9861   7.442   0.777   1.374 -1.2280  1.6427  1.7462
  121ACOH    O2 9862   7.373   0.788   1.306  0.3044 -0.0071 -0.1183
  121ACOH    C2 9863   7.395   0.687   1.215 -0.2011  0.1478  0.9317
  121ACOH    O1 9864   7.460   0.586   1.232 -0.5324 -0.1697  0.2652
  121ACOH    C1 9865   7.314   0.712   1.090  0.1124  1.2546  0.5969
  121ACOH    H1 9866   7.213   0.740   1.119  0.4370  2.0931  0.9224
  121ACOH    H2 9867   7.303   0.615   1.040 -0.2652  2.1738 -1.1258
  121ACOH    H3 9868   7.360   0.784   1.023  1.2510 -1.2880 -1.4760
  122ACOH    H4 9869   4.868   7.936   1.858  0.9749  2.4208  1.7801
  122ACOH    O2 9870   4.792   7.979   1.816  0.4956 -0.0484  0.0285
  122ACOH    C2 9871   4.815   7.971   1.681 -0.1296 -0.5299  0.1217
  122ACOH    O1 9872   4.891   7.897   1.621  0.6108  0.3610 -0.1001
  122ACOH    C1 9873   4.740   8.078   1.612 -0.5038  0.2555 -0.1430
  122ACOH    H1 9874   4.723   8.168   1.670  1.0614  0.8439 -0.5691
  122ACOH    H2 9875   4.645   8.032   1.584 -1.6497  1.4689  1.7022
  122ACOH    H3 9876   4.796   8.103   1.521  1.6947  0.0801  1.1206
  123ACOH    H4 9877   4.947   3.386   1.899 -2.9763 -0.3976  2.2524
  123ACOH    O2 9878   4.917   3.478   1.899  0.3411  0.7863 -0.4125
  123ACOH    C2 9879   4.818   3.471   1.811  0.8383  0.3843 -0.5258
  123ACOH    O1 9880   4.770   3.374   1.762  0.0018  0.9677  0.1015
  123ACOH    C1 9881   4.747   3.603   1.807  0.1878  0.1897 -0.7599
  123ACOH    H1 9882   4.759   3.665   1.896  2.7916 -2.0712  0.5338
  123ACOH    H2 9883   4.643   3.594   1.775 -0.5371 -2.2161  2.0769
  123ACOH    H3 9884   4.792   3.660   1.725  0.5753 -1.1227 -1.4749
  124ACOH    H4 9885   6.803   9.888   1.651  0.8135 -2.2572  0.0739
  124ACOH    O2 9886   6.723   9.858   1.603 -0.1784  1.1295 -0.5138
  124ACOH    C2 9887   6.635   9.831   1.702  0.3602  0.1038 -0.2818
  124ACOH    O1 9888   6.659   9.864   1.820 -0.1442  0.4431  0.1264
  124ACOH    C1 9889   6.497   9.798   1.665  0.4009 -0.3236  0.3246
  124ACOH    H1 9890   6.441   9.734   1.733 -1.6306 -0.2018 -1.1786
  124ACOH    H2 9891   6.492   9.751   1.566 -1.3762  0.7492 -0.1186
  124ACOH    H3 9892   6.438   9.889   1.658 -0.1061 -0.8172 -3.1171
  125ACOH    H4 9893   9.836   3.327   2.301 -0.3524 -0.5274  0.2393
  125ACOH    O2 9894   9.790   3.311   2.217 -0.2680 -0.5385  0.1959
  125ACOH    C2 9895   9.801   3.426   2.150  0.4761  0.3761  0.3333
  125ACOH    O1 9896   9.868   3.526   2.183  0.1010  0.4411 -0.5690
  125ACOH    C1 9897   9.685   3.429   2.057  0.0971 -0.1444 -0.2966
  125ACOH    H1 9898   9.600   3.468   2.112  1.8972  0.3338  2.2425
  125ACOH    H2 9899   9.656   3.328   2.030  0.0403 -0.8724  2.4108
  125ACOH    H3 9900   9.703   3.493   1.970  0.4734 -0.1063 -0.1921
  128ACOH    H4 9901   8.623   4.334   0.989  0.5732 -0.3191 -0.3921
  128ACOH    O2 9902   8.564   4.349   1.065  0.7802  0.2201 -0.3412
  128ACOH    C2 9903   8.509   4.469   1.044 -0.5630 -1.0489 -0.1425
  128ACOH    O1 9904   8.551   4.560   0.970 -0.4479 -0.6579 -0.3788
  128ACOH    C1 9905   8.410   4.499   1.148 -0.9752 -0.1385  0.1832
  128ACOH    H1 9906   8.333   4.423   1.141  0.2030 -1.4372  0.8951
  128ACOH    H2 9907   8.373   4.601   1.139 -0.5228 -0.0442 -0.6613
  128ACOH    H3 9908   8.450   4.494   1.250 -0.3510 -0.3491 -0.0664
  129ACOH    H4 9909   5.625   0.155   2.603  0.2888 -0.3624 -0.3816
  129ACOH    O2 9910   5.701   0.166   2.543  0.7736  0.1395  0.3000
  129ACOH    C2 9911   5.785   0.270   2.571 -0.3646 -0.2130 -0.4443
  129ACOH    O1 9912   5.797   0.318   2.683  0.0517 -0.7713 -0.5224
  129ACOH    C1 9913   5.894   0.293   2.472 -0.3944  0.0571 -0.7949
  129ACOH    H1 9914   5.985   0.246   2.510  0.1612  0.5287 -1.5176
  129ACOH    H2 9915   5.913   0.399   2.452  0.7067 -0.2965 -1.7191
  129ACOH    H3 9916   5.867   0.250   2.375 -2.4006  1.0057 -0.6776
  130ACOH    H4 9917   4.110   5.128   1.228  0.6790  0.7930  0.5290
  130ACOH    O2 9918   4.141   5.038   1.208 -0.2069  0.4895  0.4891
  130ACOH    C2 9919   4.228   5.051   1.098  0.2986  0.6677  0.2508
  130ACOH    O1 9920   4.245   5.142   1.019  0.6409 -0.1700 -0.0910
  130ACOH    C1 9921   4.284   4.915   1.065 -0.6397 -0.2462  0.1336
  130ACOH    H1 9922   4.393   4.910   1.066 -0.5468  0.9789  3.0679
  130ACOH    H2 9923   4.237   4.874   0.976 -1.6395  0.3192  0.3933
  130ACOH    H3 9924   4.254   4.846   1.144 -0.3025  0.9880  1.3664
  131ACOH    H4 9925   8.170   6.949   1.596  2.7267  4.4060  2.5752
  131ACOH    O2 9926   8.118   6.947   1.678 -0.4785  0.1126  0.5995
  131ACOH    C2 9927   8.038   6.851   1.688  0.9842 -0.3743  0.5367
  131ACOH    O1 9928   8.009   6.762   1.608 -0.4699 -0.3398  0.4170
  131ACOH    C1 9929   7.970   6.852   1.824 -0.0486 -0.2968  0.5687
  131ACOH    H1 9930   7.950   6.754   1.868 -2.7038  0.3549  0.8535
  131ACOH    H2 9931   7.880   6.909   1.801 -0.3738 -1.2890 -0.6545
  131ACOH    H3 9932   8.030   6.909   1.896 -1.9052 -0.4023  2.2610
  133ACOH    H4 9933   4.185   5.486   2.017  1.3108  0.6346  3.5979
  133ACOH    O2 9934   4.237   5.561   1.983  0.0996 -0.1381 -0.2931
  133ACOH    C2 9935   4.355   5.501   1.957  0.5798 -0.3721  0.1701
  133ACOH    O1 9936   4.385   5.382   1.955 -0.8806  0.2632 -0.1626
  133ACOH    C1 9937   4.459   5.603   1.929  0.3133  0.3136 -0.1741
  133ACOH    H1 9938   4.501   5.654   2.015  1.8360 -1.1038 -0.0635
  133ACOH    H2 9939   4.405   5.678   1.872 -0.8604  0.9865  1.7536
  133ACOH    H3 9940   4.541   5.568   1.866 -0.0188 -0.9846  0.0894
  134ACOH    H4 9941   9.469   4.977   3.338 -1.3006 -0.4391 -1.0463
  134ACOH    O2 9942   9.492   4.890   3.301 -0.2248 -0.7496  0.3137
  134ACOH    C2 9943   9.516   4.803   3.403  0.5750  0.4952 -0.0157
  134ACOH    O1 9944   9.462   4.804   3.511 -0.4292  0.2832 -0.1806
  134ACOH    C1 9945   9.600   4.688   3.358 -0.3518  0.6722  0.2542
  134ACOH    H1 9946   9.533   4.602   3.360 -1.1389  1.2504 -0.7327
  134ACOH    H2 9947   9.689   4.680   3.420 -0.2366 -1.1371 -0.1303
  134ACOH    H3 9948   9.629   4.706   3.254 -0.4013  0.1253  0.1448
  135ACOH    H4 9949   3.108   8.624   2.367 -0.4808 -0.5701  1.2608
  135ACOH    O2 9950   3.113   8.718   2.394 -0.0849 -0.3507  0.4231
  135ACOH    C2 9951   2.996   8.777   2.375  0.1399 -0.2036  0.4355
  135ACOH    O1 9952   2.902   8.714   2.337  0.5116  0.0830  0.6031
  135ACOH    C1 9953   2.985   8.910   2.437  0.0081  0.0008 -0.3284
  135ACOH    H1 9954   3.032   8.982   2.369  1.6701 -0.8539 -0.1037
  135ACOH    H2 9955   3.037   8.921   2.532  0.1208 -0.3729 -0.3473
  135ACOH    H3 9956   2.882   8.946   2.434  0.4236  1.1109 -2.1959
  136ACOH    H4 9957   3.083   8.471   2.576  0.0572 -0.3367  1.5174
  136ACOH    O2 9958   2.999   8.510   2.607 -0.2183  0.1488  0.2073
  136ACOH    C2 9959   3.028   8.631   2.661  0.6558  0.9656  0.5161
  136ACOH    O1 9960   3.136   8.668   2.700  0.2790 -0.5510  0.0768
  136ACOH    C1 9961   2.907   8.709   2.708  0.1296 -0.0544  0.4932
  136ACOH    H1 9962   2.827   8.641   2.737  1.7009 -2.8972 -1.5795
  136ACOH    H2 9963   2.857   8.762   2.627 -0.5014  0.0717  0.9603
  136ACOH    H3 9964   2.914   8.774   2.795  0.1653  0.2175  0.2862
  137ACOH    H4 9965   7.569   9.204   0.325 -0.3150  2.0281 -2.1462
  137ACOH    O2 9966   7.510   9.136   0.288  0.0593 -0.1324  1.0686
  137ACOH    C2 9967   7.568   9.020   0.315  1.0125  0.0736  0.1309
  137ACOH    O1 9968   7.675   8.987   0.367 -0.4016 -0.0217  0.1072
  137ACOH    C1 9969   7.490   8.914   0.241  0.2307  0.4630  0.2954
  137ACOH    H1 9970   7.473   8.945   0.138 -0.4651  1.3723  0.6739
  137ACOH    H2 9971   7.398   8.898   0.297 -0.8800  0.0322 -1.6195
  137ACOH    H3 9972   7.546   8.821   0.241  1.0902  0.9689 -0.5803
  138ACOH    H4 9973   8.468   3.903   2.039 -0.7586  0.8307 -0.0150
  138ACOH    O2 9974   8.406   3.850   1.985  0.1309  0.0391 -0.2936
  138ACOH    C2 9975   8.363   3.927   1.884  0.6058  0.1644  0.9758
  138ACOH    O1 9976   8.404   4.033   1.843  0.1805  1.0180 -0.2965
  138ACOH    C1 9977   8.245   3.863   1.818 -0.6962 -1.1742 -0.1930
  138ACOH    H1 9978   8.272   3.835   1.716 -1.1568  0.6109 -0.8154
  138ACOH    H2 9979   8.167   3.936   1.797 -0.2478 -0.9027 -0.9627
  138ACOH    H3 9980   8.194   3.782   1.870 -2.4235  1.0795  1.7211
  139ACOH    H4 9981   7.384   0.695   0.010  1.0859 -0.1390 -0.0555
  139ACOH    O2 9982   7.392   0.741   0.095 -0.7793  0.1580 -0.0347
  139ACOH    C2 9983   7.344   0.653   0.186  0.8764 -0.1566  0.0408
  139ACOH    O1 9984   7.317   0.535   0.181 -0.3879 -0.1318 -0.1583
  139ACOH    C1 9985   7.336   0.733   0.310 -0.3944 -0.3163 -0.7997
  139ACOH    H1 9986   7.368   0.835   0.290 -0.0167 -0.4025 -0.6338
  139ACOH    H2 9987   7.395   0.691   0.392 -0.0248 -0.9598 -1.3902
  139ACOH    H3 9988   7.232   0.736   0.345  0.3130  0.6411  1.3358
  140ACOH    H4 9989   4.274   4.086   1.524  0.0571 -1.2959 -1.2503
  140ACOH    O2 9990   4.334   4.032   1.578  0.2080 -0.0686 -0.1738
  140ACOH    C2 9991   4.299   4.015   1.707 -0.6357  0.0788 -0.1870
  140ACOH    O1 9992   4.207   4.071   1.759 -0.2228  0.0681  0.3434
  140ACOH    C1 9993   4.396   3.934   1.783  0.2859  0.4302  0.2441
  140ACOH    H1 9994   4.402   3.837   1.734  0.6954 -0.2999  1.7129
  140ACOH    H2 9995   4.365   3.915   1.886 -0.6812  0.0318 -0.1134
  140ACOH    H3 9996   4.493   3.983   1.784  0.7923 -0.5689  0.9796
  141ACOH    H4 9997   0.938   8.227   2.831 -1.2154 -0.4480  1.4662
  141ACOH    O2 9998   0.884   8.217   2.752  0.0448  0.2358  0.4960
  141ACOH    C2 9999   0.890   8.332   2.687  0.0814 -0.0639  0.0370
  141ACOH    O110000   0.945   8.438   2.719 -0.3311  0.1128 -0.1544
  141ACOH    C110001   0.826   8.331   2.551 -0.3234 -0.2032 -0.4146
  141ACOH    H110002   0.773   8.426   2.541 -0.5473 -0.0026  2.3021
  141ACOH    H210003   0.745   8.260   2.537 -0.4195 -0.1194 -0.2926
  141ACOH    H310004   0.903   8.326   2.474  0.2452  0.9653  0.0457
  142ACOH    H410005   4.277   7.607   1.718  1.1971 -2.1962 -1.2374
  142ACOH    O210006   4.285   7.674   1.648  0.1008  0.0572  0.6790
  142ACOH    C210007   4.414   7.707   1.642  0.5008 -0.5840 -0.4508
  142ACOH    O110008   4.493   7.671   1.726  0.2987 -0.1308 -0.0799
  142ACOH    C110009   4.435   7.796   1.530 -0.2416  0.3061  0.5018
  142ACOH    H110010   4.398   7.753   1.436 -0.4491  3.3131 -0.8706
  142ACOH    H210011   4.541   7.819   1.517 -0.5667  1.2083 -0.7329
  142ACOH    H310012   4.384   7.892   1.534 -0.4518  0.3140 -1.5370
  143ACOH    H410013   8.037   7.252   0.376 -2.1118 -0.1147  0.6241
  143ACOH    O210014   8.025   7.192   0.451 -0.1705 -0.0082  1.0320
  143ACOH    C210015   8.130   7.199   0.531 -0.2299 -0.1308  0.1196
  143ACOH    O110016   8.229   7.270   0.524 -0.5158 -0.3515  0.0023
  143ACOH    C110017   8.125   7.107   0.640 -0.0660  0.7767 -0.1647
  143ACOH    H110018   8.044   7.137   0.706 -2.7802 -0.4448 -2.8209
  143ACOH    H210019   8.217   7.118   0.698 -0.3402 -0.5013  0.5453
  143ACOH    H310020   8.106   7.002   0.614 -0.4670  0.4129  1.5508
  144ACOH    H410021   2.867   4.097   1.555 -1.1163 -0.0622 -1.7524
  144ACOH    O210022   2.944   4.040   1.542 -0.4982  0.2391  0.5042
  144ACOH    C210023   3.052   4.119   1.525 -0.1919 -0.2132  0.0818
  144ACOH    O110024   3.057   4.241   1.531  0.2909  0.0394  0.1276
  144ACOH    C110025   3.156   4.027   1.479  0.6356  0.4094  0.5826
  144ACOH    H110026   3.131   3.981   1.383 -1.7230  2.1420  0.3301
  144ACOH    H210027   3.166   3.950   1.556 -0.2405 -0.3590 -0.0524
  144ACOH    H310028   3.247   4.085   1.470  0.5642  0.6322  1.2768
  145ACOH    H410029   8.293   4.282   3.349 -1.4015  0.0082  0.2019
  145ACOH    O210030   8.291   4.368   3.305 -0.2591 -0.2055 -0.2923
  145ACOH    C210031   8.257   4.456   3.406 -1.0029 -0.3120  0.6278
  145ACOH    O110032   8.178   4.433   3.490  0.4707  0.8935  0.4880
  145ACOH    C110033   8.301   4.588   3.362  0.7095 -0.0905  0.2664
  145ACOH    H110034   8.248   4.622   3.273 -0.5512 -0.5884  0.8209
  145ACOH    H210035   8.406   4.584   3.333  0.9837  0.8700  1.0714
  145ACOH    H310036   8.284   4.671   3.431  1.4063 -1.0169  1.5784
  146ACOH    H410037   6.452   9.556   2.072  0.0113 -2.7719  0.2602
  146ACOH    O210038   6.396   9.538   1.994 -0.4770 -0.2467 -0.0129
  146ACOH    C210039   6.272   9.573   2.027 -0.2648 -0.5239  0.4808
  146ACOH    O110040   6.244   9.635   2.134  0.1686  0.3410  0.3245
  146ACOH    C110041   6.174   9.533   1.921 -0.2002 -0.4752 -0.0032
  146ACOH    H110042   6.142   9.621   1.865  1.3564 -0.9582 -1.7151
  146ACOH    H210043   6.087   9.489   1.969 -0.3772  1.4535  1.5594
  146ACOH    H310044   6.220   9.468   1.847 -1.1670 -1.8100  0.5498
  147ACOH    H410045   1.554   0.425   1.644 -0.3565  1.1449  1.1446
  147ACOH    O210046   1.639   0.462   1.615 -0.1600 -0.1695 -0.0327
  147ACOH    C210047   1.651   0.427   1.487 -0.7588  0.5941 -0.2989
  147ACOH    O110048   1.576   0.377   1.408  0.6339 -0.2638  0.0799
  147ACOH    C110049   1.773   0.479   1.436  0.2815  0.5591  0.1332
  147ACOH    H110050   1.822   0.412   1.365 -0.6887  0.7381 -0.7021
  147ACOH    H210051   1.838   0.479   1.524 -0.7605  0.4445  0.9113
  147ACOH    H310052   1.756   0.577   1.392 -1.1497  0.1947 -0.1424
  148ACOH    H410053   7.322   1.110   1.407  0.2106 -0.5692  0.0790
  148ACOH    O210054   7.229   1.137   1.397  0.3349 -0.2690 -0.2647
  148ACOH    C210055   7.210   1.207   1.507  0.0698 -0.2021 -0.0018
  148ACOH    O110056   7.292   1.269   1.574  0.0240 -0.3830 -0.4131
  148ACOH    C110057   7.067   1.229   1.552  0.2429  0.4361  0.0551
  148ACOH    H110058   7.019   1.249   1.456  1.4885  0.0986 -0.6535
  148ACOH    H210059   7.054   1.316   1.615 -3.2501  0.0501 -0.0137
  148ACOH    H310060   7.017   1.148   1.606 -1.0152  1.1512 -0.0059
  149ACOH    H410061   9.337   7.520   0.955 -0.5823 -1.7496 -0.0881
  149ACOH    O210062   9.336   7.533   0.859  0.0033  0.2691  0.1629
  149ACOH    C210063   9.332   7.410   0.798 -0.1877 -0.2778 -0.2995
  149ACOH    O110064   9.391   7.314   0.851  0.5574  0.2621  0.5294
  149ACOH    C110065   9.294   7.407   0.657 -0.2044 -0.1011  0.2181
  149ACOH    H110066   9.288   7.303   0.625 -2.3984  0.1522 -0.2966
  149ACOH    H210067   9.363   7.466   0.596 -1.5543  0.3042 -0.9540
  149ACOH    H310068   9.190   7.437   0.642 -0.5330 -0.7578  1.1500
  150ACOH    H410069   3.631   6.841   0.094 -1.8941  0.9420 -1.0647
  150ACOH    O210070   3.599   6.829   0.185 -0.2387  0.5138 -0.5138
  150ACOH    C210071   3.540   6.712   0.195 -1.0475  0.6268 -0.3403
  150ACOH    O110072   3.503   6.641   0.100 -0.3538 -0.2486  0.0151
  150ACOH    C110073   3.499   6.693   0.337  0.0813  0.0048  0.0083
  150ACOH    H110074   3.588   6.676   0.398 -0.0451 -1.1169 -0.1100
  150ACOH    H210075   3.425   6.615   0.356 -2.8776  2.2795 -1.8073
  150ACOH    H310076   3.454   6.787   0.366 -2.2183 -0.8037 -0.8052
  151ACOH    H410077   5.057   9.796   0.543 -3.4540  0.0290 -0.7654
  151ACOH    O210078   5.080   9.860   0.473 -0.4361 -0.7027 -0.5296
  151ACOH    C210079   4.966   9.936   0.455 -0.7023 -0.1909  0.5898
  151ACOH    O110080   4.863   9.938   0.519  0.4043  0.0324  0.3291
  151ACOH    C110081   5.013  10.035   0.359 -0.5569 -0.1596  0.3037
  151ACOH    H110082   4.930  10.101   0.330  0.3069  1.8701  2.2196
  151ACOH    H210083   5.038   9.971   0.275  3.0753  0.3013  0.9741
  151ACOH    H310084   5.100  10.080   0.407 -0.1432  3.4824 -3.5600
  152ACOH    H410085   5.228   2.172   1.729  0.8191 -0.9847  0.0400
  152ACOH    O210086   5.217   2.203   1.820 -0.2849 -0.7849 -0.1573
  152ACOH    C210087   5.261   2.331   1.833  0.1245  0.6577 -1.2314
  152ACOH    O110088   5.312   2.403   1.751  0.6185  0.0531  0.0569
  152ACOH    C110089   5.222   2.382   1.967 -0.3602 -0.0211 -0.3329
  152ACOH    H110090   5.244   2.299   2.035  1.0145  0.2513 -0.4247
  152ACOH    H210091   5.115   2.399   1.962 -0.4498 -0.9414 -1.9056
  152ACOH    H310092   5.271   2.471   2.006 -0.4644 -0.5691  1.0879
  153ACOH    H410093   5.246   8.852   3.288  0.4808 -2.0535 -0.3035
  153ACOH    O210094   5.220   8.807   3.370 -0.2724  0.4596  0.8837
  153ACOH    C210095   5.165   8.687   3.344  0.4730  0.0279 -0.0718
  153ACOH    O110096   5.147   8.633   3.237 -0.2811  0.3691 -0.0357
  153ACOH    C110097   5.113   8.618   3.469  0.2422 -0.1221 -0.2450
  153ACOH    H110098   5.007   8.640   3.481  0.1240 -0.3373 -0.8720
  153ACOH    H210099   5.158   8.656   3.560  1.2294 -0.9377 -0.3867
  153ACOH    H310100   5.125   8.509   3.475  1.1207  0.1025  2.6805
  154ACOH    H410101   6.991   1.580   0.510 -1.2189 -0.3982  0.0982
  154ACOH    O210102   6.914   1.598   0.454 -0.6310 -0.3621 -0.7098
  154ACOH    C210103   6.951   1.678   0.351  0.1293 -0.5150 -0.9239
  154ACOH    O110104   7.058   1.731   0.344 -0.0511 -0.3562  0.6286
  154ACOH    C110105   6.850   1.666   0.245  0.7016  0.0646 -0.0849
  154ACOH    H110106   6.865   1.578   0.183  1.6587 -0.0023  0.2335
  154ACOH    H210107   6.849   1.757   0.184 -1.8228 -1.3679 -2.3019
  154ACOH    H310108   6.754   1.654   0.296  0.8228  0.1311  0.1585
  155ACOH    H410109   4.485   7.622   0.447 -0.0160 -0.3753  1.8363
  155ACOH    O210110   4.563   7.626   0.389 -0.6374 -0.5855  0.9783
  155ACOH    C210111   4.586   7.756   0.356 -0.6049  0.6293  0.0032
  155ACOH    O110112   4.531   7.856   0.402 -0.1407 -0.0064  0.3305
  155ACOH    C110113   4.690   7.768   0.245 -0.1187  0.3256 -0.4868
  155ACOH    H110114   4.632   7.821   0.170 -1.0246 -1.1326 -0.8556
  155ACOH    H210115   4.743   7.682   0.204  0.5027  0.3773  0.1891
  155ACOH    H310116   4.765   7.834   0.288 -0.3665  0.5600 -0.4174
  156ACOH    H410117   5.201   3.452   1.387 -0.8059  0.3348 -0.6258
  156ACOH    O210118   5.241   3.426   1.302 -0.4337  0.1060 -0.3832
  156ACOH    C210119   5.157   3.337   1.246  0.4271  0.2192  0.1030
  156ACOH    O110120   5.064   3.280   1.294  0.2630 -0.4311 -0.1970
  156ACOH    C110121   5.215   3.294   1.116  0.0133 -0.0723  1.0861
  156ACOH    H110122   5.188   3.356   1.030  1.2192 -1.1378 -0.0854
  156ACOH    H210123   5.188   3.195   1.079 -1.0066  0.5542  0.1264
  156ACOH    H310124   5.324   3.295   1.126  0.0941 -0.7006  0.3235
  157ACOH    H410125   7.990   6.755   2.166  0.5576 -1.7501 -1.1309
  157ACOH    O210126   7.905   6.770   2.122  0.1212  0.8090  0.4862
  157ACOH    C210127   7.847   6.891   2.157  0.2193  0.0017  0.5791
  157ACOH    O110128   7.904   6.978   2.220 -0.1655  0.4145 -0.7809
  157ACOH    C110129   7.718   6.912   2.082  0.1909 -0.3921 -0.5437
  157ACOH    H110130   7.730   7.002   2.021 -1.8733  1.4011  1.5998
  157ACOH    H210131   7.635   6.910   2.152  0.4869 -1.0334 -0.2028
  157ACOH    H310132   7.710   6.828   2.013 -0.8180 -1.0338  0.3455
  159ACOH    H410133   8.013   3.434   1.604 -0.6554 -0.5391 -0.2150
  159ACOH    O210134   7.951   3.424   1.678 -0.3530  0.2223  0.1387
  159ACOH    C210135   7.896   3.305   1.658  0.0646  0.3115  0.0275
  159ACOH    O110136   7.922   3.224   1.575  0.3304  0.3099 -0.2571
  159ACOH    C110137   7.806   3.269   1.773 -0.2212 -0.0751  0.0827
  159ACOH    H110138   7.856   3.297   1.866  0.4538 -0.0419 -0.2884
  159ACOH    H210139   7.784   3.163   1.774 -0.1594 -0.0848  0.6849
  159ACOH    H310140   7.711   3.322   1.765  0.1622  0.3635 -1.8446
  160ACOH    H410141   5.381   0.220   1.994  1.1770 -0.3669 -0.4117
  160ACOH    O210142   5.327   0.206   1.914  0.1488  0.3967  0.1326
  160ACOH    C210143   5.253   0.100   1.943  0.0675 -0.5422 -0.4410
  160ACOH    O110144   5.272   0.008   2.018  0.0197  0.3524  0.0407
  160ACOH    C110145   5.127   0.110   1.865  0.0410 -0.0609  0.0406
  160ACOH    H110146   5.102   0.213   1.840 -0.1911  0.1945  1.3108
  160ACOH    H210147   5.044   0.068   1.921  0.4890 -1.7050 -0.4762
  160ACOH    H310148   5.145   0.056   1.772 -1.9534  0.5825 -0.7425
  161ACOH    H410149   4.992   0.768   1.424 -0.5338 -2.1644  2.1517
  161ACOH    O210150   5.066   0.708   1.403  0.5571 -0.2153  0.1549
  161ACOH    C210151   5.003   0.595   1.363  0.0416 -0.3500  0.5480
  161ACOH    O110152   4.886   0.570   1.382 -0.1021 -0.6426  0.2480
  161ACOH    C110153   5.096   0.494   1.307  0.4409  0.2107 -0.3116
  161ACOH    H110154   5.174   0.467   1.378  0.8445  0.7355 -0.5556
  161ACOH    H210155   5.132   0.521   1.208  0.4014  1.2592 -0.0473
  161ACOH    H310156   5.036   0.403   1.307  0.6892  0.0464 -0.1391
  162ACOH    H410157   6.223   8.492   2.731 -1.1171  1.1010 -0.2105
  162ACOH    O210158   6.296   8.470   2.792 -1.1232  0.6715 -0.3619
  162ACOH    C210159   6.396   8.431   2.715  0.0835  0.0696 -0.4421
  162ACOH    O110160   6.385   8.400   2.595  1.1078 -0.2069 -0.5067
  162ACOH    C110161   6.512   8.374   2.793  0.0288 -0.4594  0.5241
  162ACOH    H110162   6.480   8.304   2.870 -0.3396 -0.6012  0.2459
  162ACOH    H210163   6.556   8.458   2.846 -1.4174 -0.5733  1.9444
  162ACOH    H310164   6.585   8.330   2.725 -1.7538  1.2747 -2.6432
  163ACOH    H410165   5.023   9.787   2.666 -2.3444  0.5517  0.3980
  163ACOH    O210166   5.050   9.860   2.607 -0.3818 -0.5030 -0.0504
  163ACOH    C210167   5.106   9.800   2.495 -0.1363 -0.1912 -0.3479
  163ACOH    O110168   5.069   9.698   2.443 -0.2131 -0.1243 -0.0738
  163ACOH    C110169   5.176   9.891   2.402  0.1480  0.6998 -0.2864
  163ACOH    H110170   5.139   9.872   2.301 -1.5846  1.0794  0.2592
  163ACOH    H210171   5.284   9.880   2.409  0.1998  1.5055  0.2327
  163ACOH    H310172   5.166   9.996   2.428 -0.6701  0.2988  1.1103
  164ACOH    H410173   0.677   5.018   1.607  0.1677  2.2695 -0.1755
  164ACOH    O210174   0.586   5.020   1.641  0.1086 -0.1916 -0.0976
  164ACOH    C210175   0.548   5.144   1.612  1.0666  0.1697  0.9247
  164ACOH    O110176   0.616   5.241   1.583 -0.2802 -0.0355 -0.3277
  164ACOH    C110177   0.401   5.152   1.615 -1.5089 -0.1966  1.1340
  164ACOH    H110178   0.371   5.257   1.608  0.6621  0.4498  1.2289
  164ACOH    H210179   0.349   5.106   1.699  1.9164 -1.6044  2.5768
  164ACOH    H310180   0.366   5.105   1.523 -0.8041  1.1361  0.1587
  165ACOH    H410181   7.959   2.127   2.010  1.3701  0.2957  2.5052
  165ACOH    O210182   7.936   2.220   1.997  0.0484 -0.2673  0.5776
  165ACOH    C210183   7.889   2.265   2.111 -0.1190 -0.1768 -0.6690
  165ACOH    O110184   7.858   2.207   2.211 -0.5336 -0.0994 -0.4002
  165ACOH    C110185   7.871   2.412   2.099  0.3230 -1.1045 -0.0240
  165ACOH    H110186   7.958   2.470   2.130 -0.9329  1.5384 -1.3053
  165ACOH    H210187   7.779   2.440   2.150 -0.1387 -0.6505 -1.0888
  165ACOH    H310188   7.850   2.431   1.994  0.2090 -0.7697  0.0604
  166ACOH    H410189   2.330   6.885   1.001  0.9684  2.8102 -1.0213
  166ACOH    O210190   2.403   6.839   0.956  0.5050 -0.0387  0.9997
  166ACOH    C210191   2.360   6.736   0.884  0.3112  0.7679 -0.8323
  166ACOH    O110192   2.246   6.723   0.842 -0.2218 -0.8845  0.0238
  166ACOH    C110193   2.473   6.679   0.799 -0.0035 -0.1593  0.4456
  166ACOH    H110194   2.550   6.642   0.867 -0.3989  0.5199  1.2750
  166ACOH    H210195   2.516   6.762   0.743 -1.8423  0.2251 -0.4327
  166ACOH    H310196   2.445   6.593   0.739  0.2061  0.5597 -0.6931
  167ACOH    H410197   4.577   3.502   0.307 -0.0932  0.9077  2.7618
  167ACOH    O210198   4.635   3.578   0.292 -0.0785  0.3817 -0.2972
  167ACOH    C210199   4.659   3.640   0.407 -0.3212  0.2938  0.2009
  167ACOH    O110200   4.621   3.602   0.517  0.6535 -0.3049  0.1830
  167ACOH    C110201   4.745   3.762   0.368  0.0937 -0.1858 -0.1304
  167ACOH    H110202   4.826   3.741   0.298 -0.3116 -1.7767 -0.1289
  167ACOH    H210203   4.788   3.803   0.459  1.7520 -1.8192 -0.1604
  167ACOH    H310204   4.674   3.834   0.326 -1.1076 -1.9478 -1.1465
  168ACOH    H410205   3.588   6.336   1.914 -0.7098 -1.5380 -2.1535
  168ACOH    O210206   3.632   6.260   1.957 -0.3626 -0.3680 -0.4121
  168ACOH    C210207   3.553   6.155   1.942 -0.4020  0.9796  0.4778
  168ACOH    O110208   3.455   6.132   1.870 -0.1502  0.6727 -0.2820
  168ACOH    C110209   3.594   6.056   2.046  0.1761  0.4030 -0.4002
  168ACOH    H110210   3.560   6.098   2.140  2.1513 -2.2647  1.5871
  168ACOH    H210211   3.703   6.052   2.054  0.1747 -1.0546 -0.9871
  168ACOH    H310212   3.550   5.958   2.024 -0.5146  1.2461 -2.9675
  169ACOH    H410213   6.318   8.820   1.707  1.0869  2.4792 -0.4655
  169ACOH    O210214   6.238   8.865   1.677 -0.3346  0.4726  0.2255
  169ACOH    C210215   6.160   8.775   1.620 -0.7726  0.2248  0.6497
  169ACOH    O110216   6.189   8.656   1.610  0.2413 -0.2402 -0.5907
  169ACOH    C110217   6.032   8.835   1.572 -0.6282 -0.6728 -0.3079
  169ACOH    H110218   5.965   8.752   1.550  0.4949 -1.6539 -0.1291
  169ACOH    H210219   6.052   8.894   1.482 -1.1064 -0.6405 -0.3929
  169ACOH    H310220   5.990   8.897   1.650 -0.5425 -0.4070 -0.4707
  170ACOH    H410221   6.804   9.889   1.169  0.3088  0.7715  0.7313
  170ACOH    O210222   6.779   9.933   1.086  0.2058 -0.2124  0.2329
  170ACOH    C210223   6.648   9.947   1.066  0.9903 -0.4850 -0.4894
  170ACOH    O110224   6.552   9.911   1.137 -0.0100 -0.2553  0.3190
  170ACOH    C110225   6.626  10.022   0.938  0.2219  0.4459 -0.2562
  170ACOH    H110226   6.524  10.059   0.925  0.1070  0.4494  0.6165
  170ACOH    H210227   6.638   9.954   0.854 -1.8779 -1.5332  0.9765
  170ACOH    H310228   6.702  10.100   0.938 -0.1075  0.7655 -0.7247
  171ACOH    H410229   7.522   8.945   0.930  0.6855 -2.0803  2.9799
  171ACOH    O210230   7.427   8.938   0.950 -0.1047  0.1614  0.3694
  171ACOH    C210231   7.386   9.037   0.865  0.1184  0.4544  0.1778
  171ACOH    O110232   7.438   9.076   0.765  0.3163 -0.0397  0.0603
  171ACOH    C110233   7.255   9.086   0.914 -0.2067  0.4840 -0.0564
  171ACOH    H110234   7.182   9.071   0.835 -0.2228 -0.6320  0.1723
  171ACOH    H210235   7.268   9.194   0.927 -0.1688  0.3865  0.7265
  171ACOH    H310236   7.230   9.038   1.008  2.6141  0.9754  1.0161
  172ACOH    H410237   7.597   8.026   2.294  1.7297 -2.0990 -2.1398
  172ACOH    O210238   7.559   7.937   2.307 -0.5023 -0.8387  0.4885
  172ACOH    C210239   7.474   7.941   2.414 -1.1512 -0.8985 -0.0260
  172ACOH    O110240   7.467   8.029   2.499  0.5313  0.5362 -0.3273
  172ACOH    C110241   7.409   7.810   2.439 -0.2588 -0.3104  1.0020
  172ACOH    H110242   7.432   7.748   2.353  0.5106  0.5035  0.6095
  172ACOH    H210243   7.302   7.832   2.436 -0.4262 -1.2399 -0.2566
  172ACOH    H310244   7.444   7.766   2.532 -0.9687  1.9311  2.3646
  173ACOH    H410245   7.855   8.629   1.383 -0.1819 -0.8927  1.0509
  173ACOH    O210246   7.758   8.636   1.380 -0.0720  0.3998 -0.0318
  173ACOH    C210247   7.738   8.757   1.320 -0.0367  0.4082 -1.5214
  173ACOH    O110248   7.824   8.830   1.276  0.3532  0.6212  0.1916
  173ACOH    C110249   7.592   8.774   1.288 -0.3248  0.0955  0.1829
  173ACOH    H110250   7.543   8.804   1.381  1.5330  0.5445  1.0452
  173ACOH    H210251   7.550   8.678   1.256  2.0516 -1.5820  1.9143
  173ACOH    H310252   7.574   8.852   1.214 -2.8258 -0.5011  0.1191
  174ACOH    H410253   8.234   4.598   2.527 -1.9025  0.2704  2.0929
  174ACOH    O210254   8.166   4.648   2.479 -0.7704 -0.0419  0.1137
  174ACOH    C210255   8.136   4.759   2.551 -0.3534 -0.5387  0.0741
  174ACOH    O110256   8.201   4.796   2.651  0.2613 -0.0310  0.3299
  174ACOH    C110257   8.012   4.824   2.512 -0.1262  0.3014 -0.4358
  174ACOH    H110258   8.016   4.859   2.409  2.0304 -1.0278 -0.8445
  174ACOH    H210259   7.984   4.907   2.576  0.2875  0.8262 -0.9268
  174ACOH    H310260   7.928   4.754   2.512 -0.7150  1.0026  0.1909
  175ACOH    H410261   6.072   7.703   2.478 -0.7125 -0.2644  2.2752
  175ACOH    O210262   6.097   7.610   2.490  0.0177 -0.4265 -0.2565
  175ACOH    C210263   6.095   7.570   2.366  0.7875 -0.2323  0.8121
  175ACOH    O110264   6.066   7.633   2.265 -1.2336 -0.2859 -0.3691
  175ACOH    C110265   6.174   7.445   2.365  0.0189 -0.3562 -0.0091
  175ACOH    H110266   6.186   7.412   2.261 -0.7687 -1.2490  0.1755
  175ACOH    H210267   6.134   7.371   2.434  0.5113 -1.2218 -0.6357
  175ACOH    H310268   6.271   7.481   2.398 -0.1206  0.1769 -0.1869
  176ACOH    H410269   7.711   5.811   0.392  0.0489  0.2834  0.9373
  176ACOH    O210270   7.763   5.893   0.396 -0.0178  0.3867 -0.0809
  176ACOH    C210271   7.842   5.912   0.294  0.6531 -0.6232  0.6543
  176ACOH    O110272   7.875   5.843   0.194  0.2300 -0.9447 -0.5785
  176ACOH    C110273   7.912   6.041   0.322 -0.2271 -0.8941  0.2999
  176ACOH    H110274   7.836   6.118   0.314 -0.9675 -1.6098  0.3887
  176ACOH    H210275   7.985   6.058   0.243 -1.1554  0.3697 -0.3022
  176ACOH    H310276   7.963   6.037   0.419  0.5322  4.3205  0.2632
  177ACOH    H410277   8.640   4.931   1.053  1.0669  1.2110  0.5313
  177ACOH    O210278   8.594   4.924   1.138 -0.1516  0.5841 -0.1679
  177ACOH    C210279   8.655   4.834   1.215  0.4936  0.0486  0.0331
  177ACOH    O110280   8.745   4.756   1.182  0.3062 -0.5455  0.5743
  177ACOH    C110281   8.605   4.811   1.350  0.3603 -0.5832  0.6972
  177ACOH    H110282   8.572   4.709   1.370 -1.0740 -0.3161 -0.1954
  177ACOH    H210283   8.508   4.861   1.357 -1.3733 -4.1344  4.2652
  177ACOH    H310284   8.667   4.852   1.429 -1.6279 -0.1621  2.0692
  178ACOH    H410285   3.987   5.609   2.448  0.0554 -2.4777 -0.2565
  178ACOH    O210286   4.055   5.647   2.391 -0.2329 -0.0290  0.9608
  178ACOH    C210287   4.170   5.587   2.412 -0.2743 -0.4146  0.1427
  178ACOH    O110288   4.196   5.496   2.488  0.0725 -0.5406 -0.2458
  178ACOH    C110289   4.276   5.663   2.343  0.0193 -0.3899 -0.6055
  178ACOH    H110290   4.279   5.765   2.379  0.5214  0.3011 -2.5347
  178ACOH    H210291   4.254   5.673   2.237  2.5018  2.0540 -0.9492
  178ACOH    H310292   4.368   5.604   2.348  0.2986  0.0279 -0.8579
  179ACOH    H410293   8.771   5.050   1.480 -0.3065 -0.7880 -0.3913
  179ACOH    O210294   8.693   5.105   1.498  0.3868  0.1268 -0.1200
  179ACOH    C210295   8.636   5.061   1.614 -0.9656 -0.9278  0.4933
  179ACOH    O110296   8.644   4.943   1.652 -0.0659 -0.6230  0.2594
  179ACOH    C110297   8.518   5.146   1.632  0.3639  0.2920  0.0526
  179ACOH    H110298   8.474   5.125   1.730  1.2585 -0.5031  0.2939
  179ACOH    H210299   8.448   5.121   1.553  0.5566  0.7187 -0.2567
  179ACOH    H310300   8.540   5.252   1.628 -0.4004  0.5593  2.1761
  181ACOH    H410301   0.606   5.695   2.219  1.0033 -1.4139 -1.0244
  181ACOH    O210302   0.690   5.718   2.264  0.0940  0.0995 -0.0162
  181ACOH    C210303   0.753   5.808   2.186  0.2167  0.0462  0.4037
  181ACOH    O110304   0.731   5.824   2.062  0.0416 -0.0383 -1.1817
  181ACOH    C110305   0.863   5.885   2.250 -0.4880 -0.2995  0.3607
  181ACOH    H110306   0.857   5.991   2.223 -1.4373 -0.5169 -0.2824
  181ACOH    H210307   0.953   5.834   2.216  2.6626  4.9336  0.2271
  181ACOH    H310308   0.860   5.877   2.359 -2.1485  2.7746  0.5931
  183ACOH    H410309   9.304   9.971   2.456  1.7951 -1.8318 -2.0084
  183ACOH    O210310   9.375  10.037   2.467 -0.2323  0.0920 -0.0681
  183ACOH    C210311   9.487   9.966   2.488  0.5312 -0.1820  0.4281
  183ACOH    O110312   9.491   9.860   2.548 -0.1665  0.1100 -0.2785
  183ACOH    C110313   9.604  10.055   2.473 -0.4819 -0.0608 -0.0460
  183ACOH    H110314   9.657  10.064   2.568  2.1400 -0.1724 -1.4366
  183ACOH    H210315   9.576  10.153   2.435  2.6150  1.1537  0.5934
  183ACOH    H310316   9.669  10.003   2.403 -0.8700 -1.6177  0.7245
  184ACOH    H410317   4.839   8.675   0.911  0.1358 -0.4351 -1.3891
  184ACOH    O210318   4.875   8.594   0.950 -0.4287 -0.0707 -0.0945
  184ACOH    C210319   4.964   8.543   0.856  0.3070 -0.2057 -0.2028
  184ACOH    O110320   5.003   8.588   0.750  0.2329  0.5032  0.2608
  184ACOH    C110321   5.011   8.411   0.907  0.1449 -1.0890  0.4382
  184ACOH    H110322   4.999   8.343   0.823  0.5347 -0.8669  0.2002
  184ACOH    H210323   4.956   8.380   0.996 -0.6884 -1.7632 -0.3119
  184ACOH    H310324   5.119   8.416   0.924  0.1355  1.5886 -0.0709
  185ACOH    H410325   7.383   4.213   0.278 -0.8397 -1.9630 -0.9097
  185ACOH    O210326   7.403   4.163   0.359 -0.1123 -0.5320 -0.1987
  185ACOH    C210327   7.534   4.135   0.360 -0.9749 -0.1983 -0.9275
  185ACOH    O110328   7.623   4.147   0.277  0.2165  0.2056 -0.8880
  185ACOH    C110329   7.556   4.063   0.487 -0.6542  0.8059  0.0389
  185ACOH    H110330   7.498   4.118   0.561  0.9089 -0.6588  2.4359
  185ACOH    H210331   7.663   4.064   0.509 -0.0494  0.3729 -2.7026
  185ACOH    H310332   7.516   3.962   0.483  1.1230 -0.0078  1.9778
  186ACOH    H410333   5.217   7.622   2.286 -0.2437  1.6847  2.6975
  186ACOH    O210334   5.283   7.675   2.238 -0.0822 -0.8056  0.0650
  186ACOH    C210335   5.363   7.729   2.331  0.1226 -0.4895  1.1056
  186ACOH    O110336   5.329   7.745   2.445  0.4053 -0.1003  0.2427
  186ACOH    C110337   5.497   7.779   2.289  0.3494 -0.7757 -0.5950
  186ACOH    H110338   5.505   7.750   2.184 -2.7583 -0.2032 -1.0456
  186ACOH    H210339   5.581   7.732   2.340  0.7715  0.5677 -0.0316
  186ACOH    H310340   5.495   7.885   2.311 -1.7572 -1.0290  0.5541
  189ACOH    H410341   5.317   0.692   2.118  0.9431  0.3074  0.7110
  189ACOH    O210342   5.360   0.775   2.092 -0.0585  0.6179  0.0209
  189ACOH    C210343   5.254   0.853   2.055 -0.8180  0.9296  0.5574
  189ACOH    O110344   5.136   0.826   2.047 -0.6472 -0.2668 -0.2251
  189ACOH    C110345   5.298   0.982   1.993 -0.3784 -0.3654  0.3728
  189ACOH    H110346   5.388   0.973   1.932  0.4522 -1.4358  1.7200
  189ACOH    H210347   5.321   1.046   2.078  0.3237  1.0408 -0.8599
  189ACOH    H310348   5.211   1.021   1.940 -1.8719 -3.4881  0.4097
  190ACOH    H410349   8.258   5.925   1.678 -0.7912  1.9844 -2.9916
  190ACOH    O210350   8.167   5.894   1.693  0.1698  0.0068 -0.8529
  190ACOH    C210351   8.095   5.931   1.589 -0.1705 -1.1620 -0.1674
  190ACOH    O110352   8.129   6.017   1.516  0.0648 -0.2184 -0.4628
  190ACOH    C110353   7.959   5.868   1.589 -0.1365  0.2501  0.2044
  190ACOH    H110354   7.894   5.872   1.677 -0.2412  1.3915  0.0821
  190ACOH    H210355   7.970   5.764   1.556  1.2127  0.4693 -0.0466
  190ACOH    H310356   7.898   5.917   1.513 -1.0015 -0.8859  0.1397
  192ACOH    H410357   7.122   9.904   0.584  0.7342  0.1860 -0.2573
  192ACOH    O210358   7.026   9.916   0.574  0.7000  0.1238 -0.0188
  192ACOH    C210359   6.979   9.802   0.524  0.5541 -0.1168  0.5799
  192ACOH    O110360   7.032   9.697   0.540  0.2090  0.6585  0.3216
  192ACOH    C110361   6.846   9.805   0.471 -0.0003 -0.5938  0.6733
  192ACOH    H110362   6.808   9.907   0.468  1.5227 -0.0548 -2.6128
  192ACOH    H210363   6.772   9.757   0.535 -2.0294  1.0296 -0.3662
  192ACOH    H310364   6.845   9.762   0.371 -0.2780 -0.8661  0.7922
  193ACOH    H410365   8.215   6.757   0.708 -0.7084  0.9937 -0.5694
  193ACOH    O210366   8.127   6.729   0.741 -0.4300  0.3540 -0.3498
  193ACOH    C210367   8.117   6.755   0.876 -0.1700 -0.9557  0.0417
  193ACOH    O110368   8.218   6.774   0.938 -0.9151  0.0874 -0.0242
  193ACOH    C110369   7.984   6.722   0.929  0.3441  0.1937  0.6216
  193ACOH    H110370   7.953   6.800   0.999 -1.2724  0.8121 -0.7495
  193ACOH    H210371   7.970   6.626   0.978 -0.7080 -0.6883 -1.3512
  193ACOH    H310372   7.912   6.731   0.848  1.2469 -2.3681 -0.5105
  194ACOH    H410373   5.029   8.299   1.613 -2.0044 -0.2503  0.0142
  194ACOH    O210374   5.013   8.318   1.519  0.2274 -0.1545 -0.3644
  194ACOH    C210375   4.998   8.453   1.499  0.3183 -0.0043  0.4005
  194ACOH    O110376   5.018   8.541   1.581  0.1805 -0.6676  0.0173
  194ACOH    C110377   4.961   8.463   1.357 -0.5612 -0.3665  0.4370
  194ACOH    H110378   5.027   8.400   1.296  0.6647  0.7177  0.6115
  194ACOH    H210379   4.979   8.564   1.321  0.6323 -0.7773 -0.1695
  194ACOH    H310380   4.859   8.425   1.356 -0.9838  0.7468 -0.1548
  195ACOH    H410381   3.937   1.428   0.465  1.1358 -2.6531 -1.1628
  195ACOH    O210382   3.896   1.447   0.379 -0.2556  0.1929  0.0595
  195ACOH    C210383   3.995   1.428   0.289  0.6073 -0.3474  0.0968
  195ACOH    O110384   4.084   1.345   0.303 -0.7823  0.0370  0.0509
  195ACOH    C110385   3.951   1.467   0.158 -0.4733 -1.0001  0.6933
  195ACOH    H110386   4.032   1.517   0.106 -0.9558  0.1069  1.0021
  195ACOH    H210387   3.870   1.540   0.157  0.7264  0.3579 -1.5387
  195ACOH    H310388   3.914   1.383   0.098  0.8063 -1.1411  0.0836
  196ACOH    H410389   2.046   1.624   1.157 -1.1062  1.3422  1.0172
  196ACOH    O210390   2.090   1.617   1.243  0.3640 -0.0312  0.1908
  196ACOH    C210391   2.029   1.694   1.337 -0.5577 -0.2309 -0.6395
  196ACOH    O110392   1.924   1.754   1.325  0.0580  0.2104  0.4694
  196ACOH    C110393   2.110   1.691   1.466  0.6537 -0.0471 -0.2619
  196ACOH    H110394   2.125   1.587   1.497 -0.2292  0.2237  1.1297
  196ACOH    H210395   2.069   1.755   1.544  0.5137  0.5899 -0.8530
  196ACOH    H310396   2.212   1.719   1.440  0.5017 -0.1418 -0.9525
  197ACOH    H410397   8.234   4.326   0.951 -2.2429 -1.3340 -1.0947
  197ACOH    O210398   8.192   4.413   0.946 -0.2649 -0.2456  0.6914
  197ACOH    C210399   8.093   4.409   0.849 -0.1745  0.4945 -0.2798
  197ACOH    O110400   8.091   4.325   0.767 -0.3083  0.5926 -0.1994
  197ACOH    C110401   8.031   4.540   0.823 -0.0398  0.2097  0.1982
  197ACOH    H110402   8.078   4.609   0.894 -0.8639  2.1355 -1.0954
  197ACOH    H210403   7.922   4.540   0.823 -0.0492 -0.0395 -1.5071
  197ACOH    H310404   8.065   4.569   0.724  1.4716 -0.4278  0.5180
  198ACOH    H410405   7.988   5.946   1.258  1.7630 -1.3920 -0.3084
  198ACOH    O210406   7.916   5.881   1.263  0.1204  0.3947 -0.1905
  198ACOH    C210407   7.962   5.755   1.282 -0.0249 -0.1110  0.1892
  198ACOH    O110408   8.078   5.719   1.262 -0.2674 -0.2029 -0.6655
  198ACOH    C110409   7.850   5.663   1.303  0.6215  0.2529  0.2419
  198ACOH    H110410   7.806   5.643   1.205  0.6129  1.0339  0.0786
  198ACOH    H210411   7.769   5.695   1.369 -2.3873 -2.1506 -2.0945
  198ACOH    H310412   7.887   5.566   1.336 -0.0547  0.6841  2.3727
  199ACOH    H410413   1.041   0.836   0.762 -0.2483  0.0725 -2.6063
  199ACOH    O210414   0.950   0.866   0.773  0.1200  0.2512  0.3478
  199ACOH    C210415   0.962   0.991   0.830  0.4516  1.0442 -0.1550
  199ACOH    O110416   1.063   1.058   0.849  0.1250  0.3535 -0.2627
  199ACOH    C110417   0.828   1.025   0.891 -0.7368 -0.1764  0.0858
  199ACOH    H110418   0.762   1.045   0.807  0.4800 -0.2531 -0.9011
  199ACOH    H210419   0.831   1.118   0.948 -2.2840  1.2387 -2.0896
  199ACOH    H310420   0.796   0.933   0.939  1.0886 -0.5024  0.7092
  201ACOH    H410421   7.207   1.665   2.220 -0.2474  0.0871 -0.2472
  201ACOH    O210422   7.166   1.596   2.166  0.1530  0.0760 -0.5408
  201ACOH    C210423   7.249   1.573   2.061  0.1922 -0.2671  0.7719
  201ACOH    O110424   7.342   1.648   2.044  0.1966  0.4613 -1.1963
  201ACOH    C110425   7.210   1.466   1.970  0.2777 -1.0488 -0.0808
  201ACOH    H110426   7.284   1.446   1.893 -1.3138 -2.1011 -1.3700
  201ACOH    H210427   7.114   1.494   1.926 -0.1995  0.1266  1.6203
  201ACOH    H310428   7.198   1.372   2.025 -5.2621  0.2776  1.3086
  203ACOH    H410429   8.147   3.479   0.677 -1.0470  2.6893 -0.1923
  203ACOH    O210430   8.078   3.454   0.741 -0.2817 -0.3897 -0.5107
  203ACOH    C210431   8.012   3.568   0.777  0.7855 -0.5540  0.0496
  203ACOH    O110432   8.044   3.682   0.745 -0.0619 -0.6226  0.2465
  203ACOH    C110433   7.910   3.523   0.878 -0.1325  0.2412 -0.3170
  203ACOH    H110434   7.856   3.610   0.917  0.3452  0.0927  0.6879
  203ACOH    H210435   7.963   3.483   0.965  0.9289 -0.1802 -1.1609
  203ACOH    H310436   7.840   3.451   0.836 -2.3987  0.3815  2.9958
  204ACOH    H410437   5.696   8.686   1.628  1.9821  1.8233 -1.3513
  204ACOH    O210438   5.732   8.610   1.580 -0.8886 -0.4415 -0.0647
  204ACOH    C210439   5.801   8.523   1.655 -0.0314 -0.7000  0.2468
  204ACOH    O110440   5.815   8.535   1.779 -0.3798 -1.0146  0.6038
  204ACOH    C110441   5.843   8.411   1.569 -0.3673  0.1706 -0.1376
  204ACOH    H110442   5.899   8.444   1.481  2.4900  0.3006  1.6730
  204ACOH    H210443   5.763   8.343   1.543 -0.6016  0.9301 -1.4858
  204ACOH    H310444   5.918   8.354   1.624  1.5938  1.0685 -1.8055
  206ACOH    H410445   8.544   6.147   2.374 -1.9508  2.2997  1.3683
  206ACOH    O210446   8.544   6.193   2.288 -0.3913 -0.1562 -0.0019
  206ACOH    C210447   8.658   6.146   2.228  0.6654  0.2560  0.5748
  206ACOH    O110448   8.742   6.077   2.275 -0.5842 -0.5377 -0.0374
  206ACOH    C110449   8.673   6.205   2.089 -0.2658  0.1943 -0.3241
  206ACOH    H110450   8.573   6.229   2.053 -1.3565 -1.4521  1.5104
  206ACOH    H210451   8.706   6.123   2.025 -2.4501  0.6563 -2.1023
  206ACOH    H310452   8.736   6.294   2.081  0.7152 -0.5300 -0.8755
  207ACOH    H410453   7.384   2.242   0.718 -0.9265  0.2503 -0.9670
  207ACOH    O210454   7.386   2.325   0.769  0.1966 -0.4915  0.2211
  207ACOH    C210455   7.463   2.292   0.879  0.9830 -0.2558 -0.4811
  207ACOH    O110456   7.458   2.187   0.946 -0.4195 -0.3381 -0.3821
  207ACOH    C110457   7.556   2.398   0.920  0.5369  0.2137  0.0027
  207ACOH    H110458   7.528   2.440   1.017 -2.0803  0.3707 -0.7898
  207ACOH    H210459   7.558   2.471   0.839 -0.7913 -0.7374 -0.9178
  207ACOH    H310460   7.652   2.346   0.923  0.5511  0.2968  1.2917
  208ACOH    H410461   6.958   0.398   1.985 -2.0957 -1.4626  0.0039
  208ACOH    O210462   6.915   0.475   1.943 -0.9965 -0.7863  0.0973
  208ACOH    C210463   6.790   0.422   1.910 -0.4811 -0.7218 -0.1984
  208ACOH    O110464   6.745   0.333   1.979  0.3777 -0.1199 -0.8437
  208ACOH    C110465   6.707   0.520   1.837 -0.6121  0.0081  0.0994
  208ACOH    H110466   6.765   0.550   1.751 -0.5620  2.0152  0.8124
  208ACOH    H210467   6.700   0.606   1.903  0.5907 -0.9202  1.4775
  208ACOH    H310468   6.607   0.483   1.812 -1.4199  1.6116  0.9170
  209ACOH    H410469   7.588   3.062   0.070  0.2520 -0.3883 -1.0838
  209ACOH    O210470   7.495   3.035   0.076  0.1822  0.0708  0.0362
  209ACOH    C210471   7.505   2.927   0.155 -0.0127  0.5976  0.6089
  209ACOH    O110472   7.575   2.828   0.134 -0.2529  0.2818  0.0338
  209ACOH    C110473   7.387   2.919   0.242  1.0572 -0.1344  0.3761
  209ACOH    H110474   7.386   2.821   0.289 -2.7609 -1.0471 -1.3966
  209ACOH    H210475   7.301   2.939   0.178 -0.4355  1.2130  2.7471
  209ACOH    H310476   7.376   2.999   0.315  0.2980 -0.5721  0.7502
  210ACOH    H410477   5.443   7.963   2.653  0.7907 -0.3780  0.0351
  210ACOH    O210478   5.520   8.018   2.634  0.4124  0.1213 -0.0579
  210ACOH    C210479   5.634   7.959   2.665 -1.0107 -0.6575 -0.0087
  210ACOH    O110480   5.737   8.020   2.673 -0.1058 -0.1764  0.1907
  210ACOH    C110481   5.635   7.814   2.676  0.3706  0.1027  0.3503
  210ACOH    H110482   5.541   7.771   2.709  1.1467 -1.3607  0.7060
  210ACOH    H210483   5.716   7.780   2.741  2.0324  0.5810 -1.4224
  210ACOH    H310484   5.653   7.762   2.582 -0.1888  2.6823 -1.2559
  211ACOH    H410485   7.037   0.812   0.679 -0.1119  0.7679 -0.6943
  211ACOH    O210486   6.964   0.775   0.627 -0.3873 -0.0746  0.2800
  211ACOH    C210487   7.006   0.657   0.571 -0.2905  0.3569 -0.1503
  211ACOH    O110488   7.113   0.606   0.597 -0.7012  0.2754  0.2334
  211ACOH    C110489   6.903   0.602   0.486  0.6431 -0.1654 -0.3634
  211ACOH    H110490   6.944   0.520   0.428  1.0687  0.4817 -0.9786
  211ACOH    H210491   6.867   0.676   0.415  0.5693 -0.0587 -0.2164
  211ACOH    H310492   6.823   0.559   0.546  2.1606 -3.4870 -0.6128
  213ACOH    H410493   3.358   1.374   2.708 -0.7491 -0.7860  0.3464
  213ACOH    O210494   3.324   1.459   2.674  0.2397 -0.3621  0.3942
  213ACOH    C210495   3.379   1.479   2.554 -0.2364 -0.2948  0.3263
  213ACOH    O110496   3.455   1.414   2.488  0.2384  0.0033 -0.2016
  213ACOH    C110497   3.336   1.612   2.507  0.0363 -0.2121 -0.3864
  213ACOH    H110498   3.391   1.692   2.558  0.2873 -0.9645  0.5540
  213ACOH    H210499   3.229   1.625   2.521 -0.0004 -0.0688 -0.8097
  213ACOH    H310500   3.355   1.635   2.402  1.2368 -0.5208 -0.2524
  215ACOH    H410501   8.214   5.205   2.628 -0.5432  0.9520 -0.5029
  215ACOH    O210502   8.180   5.269   2.693 -0.4586 -0.2807  0.7752
  215ACOH    C210503   8.268   5.372   2.703  0.4066  0.0267  0.2345
  215ACOH    O110504   8.339   5.412   2.609  0.0451 -0.2816 -0.6788
  215ACOH    C110505   8.235   5.452   2.825 -0.5371  0.3011 -0.5533
  215ACOH    H110506   8.247   5.386   2.911  1.1462  3.4927  1.7692
  215ACOH    H210507   8.133   5.488   2.833  0.0558  1.4284  2.6722
  215ACOH    H310508   8.305   5.536   2.828 -0.4015  0.1398  0.7134
  216ACOH    H410509   4.956   0.502   0.859  0.7188 -1.2794  2.5302
  216ACOH    O210510   5.016   0.567   0.900  1.1232 -0.0692  0.0913
  216ACOH    C210511   4.942   0.646   0.974 -0.7328 -0.0861 -0.0135
  216ACOH    O110512   4.827   0.636   0.996  1.2318  0.3386 -0.1911
  216ACOH    C110513   5.025   0.740   1.058  0.3067  0.2942  0.1609
  216ACOH    H110514   5.047   0.828   0.997  4.7632  0.5604  1.9406
  216ACOH    H210515   5.113   0.696   1.104 -0.9320 -0.4529  1.8420
  216ACOH    H310516   4.968   0.789   1.138 -2.0285 -0.6071 -0.9033
  218ACOH    H410517   4.578   3.812   2.051 -0.4732  0.1089 -0.9091
  218ACOH    O210518   4.618   3.899   2.035  0.0069 -0.0224 -0.4453
  218ACOH    C210519   4.572   3.988   2.131 -0.2850  0.5222  0.4645
  218ACOH    O110520   4.507   3.959   2.232  0.1422 -0.5284  0.3658
  218ACOH    C110521   4.594   4.122   2.080  0.4958 -0.9511  0.3586
  218ACOH    H110522   4.565   4.130   1.976 -0.5870 -2.5837  0.5154
  218ACOH    H210523   4.701   4.143   2.086  0.4264  0.9100 -3.7089
  218ACOH    H310524   4.531   4.195   2.130  0.6895 -0.0587 -0.6822
  219ACOH    H410525   6.157   8.333   1.861 -2.3596  0.0415  0.5238
  219ACOH    O210526   6.139   8.244   1.827 -0.3310 -0.1683 -0.0945
  219ACOH    C210527   6.135   8.166   1.934 -0.2649  0.7691 -0.5221
  219ACOH    O110528   6.117   8.202   2.048 -0.2345 -0.3334  0.3805
  219ACOH    C110529   6.102   8.029   1.886  0.5352  0.4443 -0.3368
  219ACOH    H110530   6.073   7.958   1.964 -1.3701 -0.0813 -1.5113
  219ACOH    H210531   6.187   7.981   1.838  1.5242 -0.8271  2.5506
  219ACOH    H310532   6.021   8.045   1.815 -0.4825 -2.5022  0.0988
  220ACOH    H410533   6.001   7.790   2.223 -0.6333  0.3544  2.3516
  220ACOH    O210534   5.963   7.875   2.194 -0.3465 -0.4162 -0.5122
  220ACOH    C210535   5.869   7.906   2.284 -0.0806 -0.5958 -0.6869
  220ACOH    O110536   5.835   7.847   2.386  0.0258 -0.0796 -0.6919
  220ACOH    C110537   5.820   8.044   2.245 -0.6143 -0.3878 -0.0027
  220ACOH    H110538   5.905   8.108   2.224 -1.5438  0.7064 -0.4620
  220ACOH    H210539   5.764   8.088   2.327  0.9938  0.4982  0.6439
  220ACOH    H310540   5.763   8.047   2.152 -1.3079  0.3446  0.4413
  221ACOH    H410541   4.750   7.501   2.356 -1.0335  0.4368  0.6741
  221ACOH    O210542   4.814   7.458   2.414 -0.5297  0.2132 -0.0345
  221ACOH    C210543   4.787   7.513   2.533  0.9515  0.5112 -0.5915
  221ACOH    O110544   4.694   7.588   2.543 -0.6551 -0.2932  0.2968
  221ACOH    C110545   4.866   7.458   2.641 -0.1244  0.0828  0.5899
  221ACOH    H110546   4.917   7.544   2.685  3.5952 -1.2169 -0.9250
  221ACOH    H210547   4.938   7.383   2.606 -0.0516  1.6150 -2.7036
  221ACOH    H310548   4.796   7.415   2.713  1.6790 -2.0616  1.1338
  222ACOH    H410549   0.965   5.216   2.136  0.5521  0.6727 -4.4246
  222ACOH    O210550   0.922   5.302   2.149 -0.4624 -0.4615  0.9156
  222ACOH    C210551   1.020   5.397   2.139 -0.0330  0.4004 -0.0944
  222ACOH    O110552   1.135   5.374   2.103  0.1582  0.1079  0.2609
  222ACOH    C110553   0.982   5.535   2.182 -0.3990  0.0008 -0.0611
  222ACOH    H110554   0.876   5.530   2.207 -0.3821  1.2668  0.2839
  222ACOH    H210555   1.013   5.604   2.104  3.3200 -1.1764  0.2648
  222ACOH    H310556   1.028   5.568   2.275  4.7765 -0.0088 -2.4835
  223ACOH    H410557   1.189   3.018   1.172 -1.7508 -0.0421  1.7408
  223ACOH    O210558   1.116   2.971   1.127 -0.4954  0.2995 -0.7222
  223ACOH    C210559   1.035   3.062   1.092 -1.2547  0.2780  0.0126
  223ACOH    O110560   1.015   3.167   1.151 -0.4618 -0.0850 -0.1700
  223ACOH    C110561   0.928   3.008   1.005 -0.1823  0.0432  0.3882
  223ACOH    H110562   0.963   2.990   0.903  1.6579 -0.3282  1.0714
  223ACOH    H210563   0.836   3.067   1.008 -0.4828 -0.3377 -0.8807
  223ACOH    H310564   0.914   2.905   1.037 -2.6699 -0.2595 -1.4893
  225ACOH    H410565   4.609   7.172   0.216  0.2263  3.3000  1.1994
  225ACOH    O210566   4.695   7.185   0.173  0.3541  0.5313  0.5436
  225ACOH    C210567   4.682   7.279   0.084  0.2454 -0.3502 -0.1392
  225ACOH    O110568   4.576   7.325   0.037 -0.3292  0.0252 -0.1737
  225ACOH    C110569   4.819   7.330   0.051 -0.0729 -0.1119 -0.5747
  225ACOH    H110570   4.829   7.343  -0.057  2.1570  0.2059 -0.3518
  225ACOH    H210571   4.890   7.257   0.088  0.1300  0.4822  0.2083
  225ACOH    H310572   4.817   7.426   0.103 -2.8855  0.3998 -1.5142
  226ACOH    H410573   0.815   8.770   0.658 -2.6825  1.2702 -1.1439
  226ACOH    O210574   0.843   8.765   0.565  0.5408 -0.2294 -0.1606
  226ACOH    C210575   0.822   8.633   0.541 -0.0261  0.1090 -0.2505
  226ACOH    O110576   0.787   8.544   0.620 -0.3440 -0.7567  0.8315
  226ACOH    C110577   0.803   8.617   0.394 -0.1243  0.2159  0.0692
  226ACOH    H110578   0.726   8.686   0.360  0.9394  1.1217 -0.5492
  226ACOH    H210579   0.777   8.512   0.378 -1.1273  0.5374 -0.4287
  226ACOH    H310580   0.901   8.636   0.349  0.9342 -0.0169  2.2420
  227ACOH    H410581   4.712   3.993   2.517 -1.0678  2.3323  0.6525
  227ACOH    O210582   4.800   4.030   2.535  0.2120 -0.2171 -0.0310
  227ACOH    C210583   4.801   4.156   2.497 -0.2554 -0.9777  0.1294
  227ACOH    O110584   4.704   4.224   2.461 -0.3090 -0.3657  0.3651
  227ACOH    C110585   4.935   4.208   2.506  0.5521  1.1218  0.2179
  227ACOH    H110586   4.956   4.209   2.613 -2.2587  1.2221  0.8141
  227ACOH    H210587   4.942   4.305   2.457  0.6036  1.1740  0.3287
  227ACOH    H310588   4.988   4.132   2.449 -0.1791 -0.0947  1.1291
  228ACOH    H410589   0.268  10.009   0.394 -0.1019 -1.4797  0.2798
  228ACOH    O210590   0.193   9.981   0.339 -0.1937 -0.2025 -0.2730
  228ACOH    C210591   0.221   9.869   0.279  0.2547 -0.6056  1.3718
  228ACOH    O110592   0.283   9.776   0.322  0.5598  0.0341  0.4046
  228ACOH    C110593   0.150   9.872   0.149  0.8733  0.1911 -0.5595
  228ACOH    H110594   0.112   9.973   0.139  0.8478  0.2486  0.0964
  228ACOH    H210595   0.066   9.805   0.169  1.6522  0.0542  2.6474
  228ACOH    H310596   0.206   9.834   0.064  0.1318 -1.8529 -0.1591
  229ACOH    H410597   5.220   1.885   1.479  1.9060 -0.5554  1.1030
  229ACOH    O210598   5.265   1.942   1.414  0.0775  0.0073  0.2888
  229ACOH    C210599   5.327   2.039   1.485 -0.1415 -0.0393  0.2962
  229ACOH    O110600   5.273   2.088   1.583  0.8065 -0.1797 -0.1826
  229ACOH    C110601   5.406   2.121   1.390 -0.4278  0.5246 -0.5904
  229ACOH    H110602   5.512   2.100   1.380 -0.0643  1.4838  1.1722
  229ACOH    H210603   5.400   2.225   1.425  0.7031 -0.0194  1.2603
  229ACOH    H310604   5.366   2.119   1.288 -2.1207  3.9437 -0.0848
  230ACOH    H410605   1.314   3.145   0.912  0.2194 -0.9827  0.6056
  230ACOH    O210606   1.240   3.108   0.860  0.2713 -0.5439  0.2105
  230ACOH    C210607   1.212   3.185   0.753 -0.0576 -0.3886 -0.1887
  230ACOH    O110608   1.101   3.182   0.702  0.5388  0.3005 -0.1221
  230ACOH    C110609   1.301   3.301   0.741  0.5797 -0.1340  0.8943
  230ACOH    H110610   1.321   3.308   0.634  0.2631 -1.0696  0.7717
  230ACOH    H210611   1.394   3.288   0.796  0.5200  0.2180  1.0791
  230ACOH    H310612   1.243   3.392   0.759 -0.6957 -0.5992 -0.7408
  231ACOH    H410613   4.554   2.540   0.668 -1.4988 -1.2900  1.3980
  231ACOH    O210614   4.468   2.580   0.646 -0.4740 -0.0724 -0.4666
  231ACOH    C210615   4.398   2.477   0.598 -0.0233  0.2545  0.2412
  231ACOH    O110616   4.425   2.361   0.602  0.3363 -0.2962  0.1050
  231ACOH    C110617   4.266   2.528   0.541 -0.2844 -0.6653  0.4762
  231ACOH    H110618   4.240   2.477   0.447 -0.9914 -0.4688  0.5628
  231ACOH    H210619   4.284   2.632   0.516 -2.9498 -0.2059  0.2647
  231ACOH    H310620   4.186   2.522   0.615 -3.0513  1.4965 -2.1656
  232ACOH    H410621   4.758   2.680   1.949 -0.0376 -0.5413  0.1948
  232ACOH    O210622   4.828   2.743   1.923 -0.6034 -0.0347 -0.0914
  232ACOH    C210623   4.940   2.680   1.878  0.2668  0.7218  0.9810
  232ACOH    O110624   4.947   2.562   1.842 -0.0775  0.3755 -0.2842
  232ACOH    C110625   5.064   2.765   1.864 -0.3126  1.0714  0.3600
  232ACOH    H110626   5.053   2.867   1.903  2.9438  1.3883  0.6006
  232ACOH    H210627   5.076   2.783   1.757  0.4686  0.4196  0.3371
  232ACOH    H310628   5.154   2.723   1.909 -1.7852 -0.5323  1.8880
  233ACOH    H410629   5.906   8.059   2.653 -0.8913  0.9466 -0.4642
  233ACOH    O210630   5.988   8.111   2.644 -0.3463  0.2561  0.3618
  233ACOH    C210631   6.091   8.040   2.585 -0.5518 -0.1395 -0.0743
  233ACOH    O110632   6.098   7.922   2.585  0.5943  0.6075 -0.4722
  233ACOH    C110633   6.215   8.124   2.579 -0.0586 -0.2117 -0.5121
  233ACOH    H110634   6.220   8.197   2.660  3.4317 -0.4796 -0.3997
  233ACOH    H210635   6.219   8.183   2.487  1.8048 -0.2253 -0.4682
  233ACOH    H310636   6.309   8.068   2.576 -0.5961 -1.0605 -1.6601
  234ACOH    H410637   4.903   3.139   1.949  1.0419 -1.3581  0.3804
  234ACOH    O210638   4.974   3.191   1.991 -0.4542  0.7468  0.3637
  234ACOH    C210639   4.981   3.153   2.118  0.1495  0.0646  0.8646
  234ACOH    O110640   4.895   3.096   2.180 -0.0674  0.6456  0.4263
  234ACOH    C110641   5.101   3.203   2.182 -0.7811 -0.7679 -0.4224
  234ACOH    H110642   5.189   3.154   2.141 -1.7218 -2.7871 -0.1209
  234ACOH    H210643   5.090   3.188   2.290  1.4283  0.1543 -0.0487
  234ACOH    H310644   5.103   3.308   2.156 -0.7846 -0.9101 -0.9982
  235ACOH    H410645   6.982   8.544   2.221  0.6561  0.4057  0.3793
  235ACOH    O210646   6.932   8.461   2.232  0.2745  0.5342 -0.3687
  235ACOH    C210647   6.860   8.467   2.347  0.0735  1.0289 -0.2352
  235ACOH    O110648   6.891   8.528   2.450  0.1326 -0.0395  0.1169
  235ACOH    C110649   6.751   8.367   2.339  0.3580 -0.3932  1.0974
  235ACOH    H110650   6.754   8.307   2.430 -1.6082  0.7364  1.9438
  235ACOH    H210651   6.758   8.308   2.248  0.7412  1.0759  0.1543
  235ACOH    H310652   6.654   8.417   2.332  0.6031 -0.2790 -2.4334
  237ACOH    H410653   4.341   5.270   0.959  1.0827 -1.4937  0.9457
  237ACOH    O210654   4.409   5.338   0.950 -0.4392 -0.0448  0.2260
  237ACOH    C210655   4.399   5.377   0.824 -0.7981 -0.5182  0.5115
  237ACOH    O110656   4.338   5.329   0.732 -0.2774 -0.1257 -0.2177
  237ACOH    C110657   4.479   5.501   0.796  0.0766 -0.5179 -0.6791
  237ACOH    H110658   4.559   5.505   0.869  0.6954 -2.2289 -1.2519
  237ACOH    H210659   4.412   5.586   0.813 -0.6096 -1.1288 -0.3140
  237ACOH    H310660   4.525   5.492   0.698  3.0300  3.4837  0.2034
  238ACOH    H410661   7.776   2.328   1.543 -1.8403  1.4954  1.3105
  238ACOH    O210662   7.749   2.368   1.459 -0.3565  0.0456  0.0968
  238ACOH    C210663   7.665   2.275   1.403  0.2964  0.5176 -0.5445
  238ACOH    O110664   7.586   2.208   1.470 -0.7224  0.3305  0.2198
  238ACOH    C110665   7.660   2.274   1.255  0.0276  0.0790 -0.8429
  238ACOH    H110666   7.738   2.215   1.207 -0.8504 -0.7661 -1.2498
  238ACOH    H210667   7.678   2.375   1.217  0.1765  0.8860  1.3335
  238ACOH    H310668   7.566   2.244   1.209  0.0258 -0.7763 -0.2887
  239ACOH    H410669   2.942   8.140   1.421  0.9445  1.2099 -0.5197
  239ACOH    O210670   2.944   8.142   1.324 -0.1522  0.2160 -0.5678
  239ACOH    C210671   2.959   8.015   1.275 -0.1270  0.4119 -0.0585
  239ACOH    O110672   2.994   7.918   1.339  0.0742 -0.6975 -0.3052
  239ACOH    C110673   2.931   8.021   1.125 -0.1038 -0.1807  0.6894
  239ACOH    H110674   2.936   7.916   1.095  0.9084  0.5911 -2.0573
  239ACOH    H210675   3.013   8.065   1.069  0.9478  0.2122  2.5279
  239ACOH    H310676   2.832   8.059   1.097  1.4885  2.5494 -1.5537
  240ACOH    H410677   4.961   7.925   3.419 -1.1162 -0.7276  1.5264
  240ACOH    O210678   5.039   7.876   3.450 -0.0779 -0.0136  0.0754
  240ACOH    C210679   5.023   7.753   3.413  0.4219  1.0497  0.3077
  240ACOH    O110680   4.938   7.703   3.341  0.1041  0.1761 -0.1136
  240ACOH    C110681   5.129   7.662   3.456  0.2682 -0.2096  0.4941
  240ACOH    H110682   5.121   7.648   3.564 -0.8537  0.2581  0.4846
  240ACOH    H210683   5.228   7.695   3.426  0.3794 -0.8711  0.1276
  240ACOH    H310684   5.116   7.562   3.416  1.9059 -0.3724  0.3425
  244ACOH    H410685   6.641   0.110   2.489  1.8987  3.6465  1.3078
  244ACOH    O210686   6.576   0.155   2.432 -0.1549 -0.2001  0.4242
  244ACOH    C210687   6.634   0.266   2.385 -0.2960 -0.0800  0.1625
  244ACOH    O110688   6.747   0.292   2.411  0.3855 -0.2970  0.3760
  244ACOH    C110689   6.542   0.349   2.305 -0.0320 -0.2040 -0.0318
  244ACOH    H110690   6.460   0.295   2.258 -1.7080  2.4140 -0.2170
  244ACOH    H210691   6.607   0.408   2.239 -1.8029 -1.1704 -2.7311
  244ACOH    H310692   6.485   0.405   2.379 -0.5573 -1.7806  0.7744
  245ACOH    H410693   4.335   0.712   0.980 -0.2965  2.2503 -0.2100
  245ACOH    O210694   4.402   0.729   1.048 -0.1305  0.5231  0.0963
  245ACOH    C210695   4.500   0.804   0.987 -0.3021 -0.2050  0.0153
  245ACOH    O110696   4.529   0.808   0.869 -0.2094 -0.0021 -0.5366
  245ACOH    C110697   4.596   0.861   1.077 -0.8211  0.4664 -0.5546
  245ACOH    H110698   4.594   0.793   1.162  0.5185 -0.6427 -1.3841
  245ACOH    H210699   4.568   0.963   1.104 -0.3472  0.9739 -1.9212
  245ACOH    H310700   4.695   0.860   1.031 -1.7626  0.1847 -2.6454
  246ACOH    H410701   5.879   9.178   1.735  3.0132  2.8080 -0.3637
  246ACOH    O210702   5.862   9.171   1.639 -0.0664 -0.2078  0.3315
  246ACOH    C210703   5.760   9.082   1.625 -0.0877  0.5147 -0.8709
  246ACOH    O110704   5.671   9.071   1.711  0.3968 -0.3251  0.2917
  246ACOH    C110705   5.762   9.048   1.479 -0.3578 -0.2195 -0.0804
  246ACOH    H110706   5.859   9.064   1.432  1.0422 -3.1227  1.7249
  246ACOH    H210707   5.692   9.111   1.423 -0.4768 -0.3918 -0.1244
  246ACOH    H310708   5.730   8.946   1.459 -1.4612 -0.0375  0.7235
  247ACOH    H410709   4.375   4.387   0.177  0.0652  0.1817  0.0967
  247ACOH    O210710   4.437   4.446   0.224 -0.0159  0.5509 -0.2549
  247ACOH    C210711   4.556   4.391   0.207  0.3858 -0.0082 -0.4804
  247ACOH    O110712   4.584   4.278   0.159  0.2110  0.2798 -0.5294
  247ACOH    C110713   4.654   4.481   0.286 -0.6658  0.5152 -0.7172
  247ACOH    H110714   4.659   4.586   0.257  2.5435  0.6451  0.0447
  247ACOH    H210715   4.755   4.439   0.290 -0.7108  0.5508  1.1985
  247ACOH    H310716   4.616   4.485   0.388  0.2047  1.1381 -0.4026
  248ACOH    H410717   5.520   3.045   1.224  0.9673 -0.6250  1.1146
  248ACOH    O210718   5.486   3.118   1.277  0.4136 -0.1554  0.1222
  248ACOH    C210719   5.456   3.072   1.406 -0.4992 -0.3767  1.0073
  248ACOH    O110720   5.448   2.960   1.448  0.3810  0.2350  0.2352
  248ACOH    C110721   5.383   3.171   1.487 -0.9128  0.1665  0.4821
  248ACOH    H110722   5.416   3.267   1.449  0.4629 -0.5581 -0.1785
  248ACOH    H210723   5.417   3.167   1.590  1.2967  0.8825 -0.1956
  248ACOH    H310724   5.275   3.165   1.471 -0.9215 -0.1926  0.6664
  252ACOH    H410725   6.535   9.715   1.169  0.8413  0.1740  0.4893
  252ACOH    O210726   6.522   9.621   1.147 -0.5789  0.4168  0.2056
  252ACOH    C210727   6.535   9.565   1.273 -0.6957  0.4600  0.1236
  252ACOH    O110728   6.607   9.618   1.360 -0.2798  0.0256 -0.1925
  252ACOH    C110729   6.521   9.416   1.260  0.5281  0.6737  0.2011
  252ACOH    H110730   6.498   9.387   1.158 -0.4711 -1.1428  0.9352
  252ACOH    H210731   6.437   9.384   1.322  0.5210 -1.4505 -0.8649
  252ACOH    H310732   6.614   9.365   1.285 -0.3728 -1.7670 -1.3089
  253ACOH    H410733   7.527   3.205   0.534 -0.0935  1.4895 -1.8765
  253ACOH    O210734   7.435   3.181   0.555  0.8787 -0.7163 -0.0140
  253ACOH    C210735   7.430   3.044   0.572 -0.6706  0.5127  0.1591
  253ACOH    O110736   7.528   2.977   0.543  0.1581 -0.0666 -0.5247
  253ACOH    C110737   7.301   3.003   0.637 -0.6842  0.3899 -0.2933
  253ACOH    H110738   7.281   3.072   0.718  1.3725  0.3699  0.2719
  253ACOH    H210739   7.314   2.903   0.679  0.9905 -0.5565 -2.9198
  253ACOH    H310740   7.216   3.013   0.570 -0.0687 -2.8219 -1.6383
  254ACOH    H410741   4.685   2.953   0.338 -1.4930 -1.3291 -4.1154
  254ACOH    O210742   4.759   2.890   0.332 -0.2618 -0.4534  0.3917
  254ACOH    C210743   4.834   2.878   0.441  0.1143  0.0004  0.1228
  254ACOH    O110744   4.824   2.957   0.530  0.2601  0.7088  0.2847
  254ACOH    C110745   4.940   2.780   0.415  0.0251  0.3515  0.4445
  254ACOH    H110746   5.021   2.789   0.487  1.0112 -1.6500 -0.3679
  254ACOH    H210747   4.982   2.800   0.316 -1.9987 -2.2751 -1.0078
  254ACOH    H310748   4.901   2.678   0.421  0.2995  0.2262  0.1173
  255ACOH    H410749   4.032   7.416   1.685  3.7294  0.0654  1.4896
  255ACOH    O210750   4.073   7.383   1.603  0.3427 -0.3031 -0.1524
  255ACOH    C210751   4.048   7.474   1.504 -1.2097  0.4588  0.5786
  255ACOH    O110752   3.961   7.561   1.500 -0.0747  0.6870  0.5390
  255ACOH    C110753   4.147   7.468   1.384 -0.1275 -0.1283  0.3662
  255ACOH    H110754   4.241   7.424   1.416  0.4889 -1.4124 -3.0315
  255ACOH    H210755   4.151   7.562   1.330 -0.7939  0.0647  0.6411
  255ACOH    H310756   4.103   7.397   1.314 -0.5556  0.6336 -0.1391
  256ACOH    H410757   7.555   2.298   2.127 -0.9843 -0.1527 -0.0829
  256ACOH    O210758   7.546   2.349   2.209  0.4886 -0.5739  0.3525
  256ACOH    C210759   7.522   2.267   2.306 -0.0507 -0.0869 -0.6593
  256ACOH    O110760   7.526   2.147   2.304  0.3878  0.3439  0.6171
  256ACOH    C110761   7.500   2.335   2.434  0.0723 -0.3970  0.1535
  256ACOH    H110762   7.585   2.395   2.466 -0.6502 -0.0839  1.4989
  256ACOH    H210763   7.480   2.264   2.514 -0.5629 -0.9807 -0.5141
  256ACOH    H310764   7.416   2.402   2.416 -0.3765 -1.7246 -3.0237
  257ACOH    H410765   2.156   2.325   1.461  3.3745 -0.9348 -0.0635
  257ACOH    O210766   2.147   2.267   1.539  0.3030  0.4697  0.6662
  257ACOH    C210767   2.042   2.183   1.515 -0.1234 -0.9251 -0.5101
  257ACOH    O110768   1.981   2.187   1.412 -0.0822  0.1044  0.1033
  257ACOH    C110769   2.045   2.066   1.603 -0.1176  0.3978 -0.1072
  257ACOH    H110770   1.978   2.078   1.688 -0.8493  0.0899 -0.6383
  257ACOH    H210771   2.143   2.056   1.650 -0.2994 -2.9794 -0.3201
  257ACOH    H310772   2.028   1.978   1.541  0.0128  0.6688 -0.5229
  258ACOH    H410773   5.460   2.672   1.209 -2.7354 -0.6842 -0.4909
  258ACOH    O210774   5.482   2.662   1.114  0.3113  0.6985  0.0049
  258ACOH    C210775   5.514   2.785   1.068  0.0536 -0.2801 -0.2187
  258ACOH    O110776   5.535   2.883   1.138 -0.3050  0.0857 -0.0381
  258ACOH    C110777   5.558   2.788   0.925 -0.1785 -0.1691  0.3000
  258ACOH    H110778   5.468   2.807   0.867  0.3914 -1.5561 -1.0562
  258ACOH    H210779   5.600   2.690   0.905  0.1024 -0.0292  0.1950
  258ACOH    H310780   5.635   2.862   0.904  1.5687 -2.1516 -0.4471
  259ACOH    H410781   6.680   0.221   2.880  1.5968  0.4442  0.2023
  259ACOH    O210782   6.683   0.318   2.875 -0.1751  0.5051 -0.2174
  259ACOH    C210783   6.579   0.374   2.808  0.0461  0.1708 -0.4277
  259ACOH    O110784   6.490   0.314   2.753 -1.2481 -0.1762 -0.4780
  259ACOH    C110785   6.601   0.524   2.807  0.3095  0.6849  0.0633
  259ACOH    H110786   6.523   0.571   2.747  0.7645 -1.1412 -1.9997
  259ACOH    H210787   6.697   0.556   2.768  0.0859 -0.8702 -1.8075
  259ACOH    H310788   6.591   0.573   2.905  0.0664  1.5129 -0.3703
  260ACOH    H410789   4.720   9.128   1.490  0.7457  0.3399  0.3202
  260ACOH    O210790   4.711   9.037   1.458  0.2497  0.5314 -0.0891
  260ACOH    C210791   4.801   8.958   1.520  0.0247  0.4598  0.0943
  260ACOH    O110792   4.859   8.986   1.623 -0.2191  0.2361  0.7190
  260ACOH    C110793   4.803   8.819   1.467 -0.1607 -0.2992  0.3196
  260ACOH    H110794   4.724   8.753   1.502  0.0213  0.1215  1.5466
  260ACOH    H210795   4.899   8.771   1.486 -0.3582  0.0584  2.3787
  260ACOH    H310796   4.793   8.819   1.358 -0.3982  3.1760  0.2903
  261ACOH    H410797   7.907   4.569   0.276 -1.1774 -0.1942  1.5450
  261ACOH    O210798   7.837   4.620   0.231  0.1138  0.0638 -0.2600
  261ACOH    C210799   7.891   4.733   0.170  0.0007  0.3450  0.3469
  261ACOH    O110800   8.003   4.780   0.186  0.5203 -0.0634 -0.0771
  261ACOH    C110801   7.784   4.807   0.096 -0.4377  0.6665  0.7786
  261ACOH    H110802   7.756   4.735   0.019  1.4779 -0.4832  1.1131
  261ACOH    H210803   7.827   4.898   0.053 -0.2882  0.4878  0.5456
  261ACOH    H310804   7.692   4.836   0.146 -2.0423  0.3653 -1.8778
  262ACOH    H410805   6.628   0.220   1.949 -0.4903  0.7492  0.8488
  262ACOH    O210806   6.552   0.161   1.934 -0.0697  0.3220  0.3562
  262ACOH    C210807   6.546   0.066   2.031 -0.3236 -0.6335 -0.6905
  262ACOH    O110808   6.634   0.054   2.110 -0.0816 -0.1013  0.3314
  262ACOH    C110809   6.420  -0.006   2.041  0.4747 -0.3013  0.0711
  262ACOH    H110810   6.377  -0.009   1.941  0.3144 -0.1334  0.1338
  262ACOH    H210811   6.346   0.047   2.101 -0.2075 -1.4340  0.2497
  262ACOH    H310812   6.432  -0.107   2.081  2.1262 -0.5782 -1.0619
  263ACOH    H410813   3.605   6.836   2.050  0.2224 -0.9273 -0.8309
  263ACOH    O210814   3.686   6.815   2.099  0.2889 -0.1334 -0.5815
  263ACOH    C210815   3.677   6.685   2.114  0.2436  1.2379  0.3071
  263ACOH    O110816   3.603   6.605   2.052 -0.0156 -0.0037 -0.3234
  263ACOH    C110817   3.788   6.635   2.193 -0.0946  0.0601  0.5152
  263ACOH    H110818   3.759   6.540   2.238  0.1231 -0.3083 -0.1152
  263ACOH    H210819   3.812   6.709   2.270  0.3393  1.7910 -1.2226
  263ACOH    H310820   3.876   6.615   2.131  1.4841  1.1722  2.3157
  264ACOH    H410821   3.803   5.794   2.090 -0.6704 -1.6015 -1.2959
  264ACOH    O210822   3.795   5.814   1.996  0.4406 -0.0864 -1.0848
  264ACOH    C210823   3.867   5.727   1.921 -0.6791 -0.2776 -0.1102
  264ACOH    O110824   3.931   5.635   1.957  0.7635 -0.1210  0.0289
  264ACOH    C110825   3.862   5.752   1.779 -0.1341 -0.1411  0.2526
  264ACOH    H110826   3.958   5.731   1.733 -0.5203 -0.2824 -0.5080
  264ACOH    H210827   3.839   5.853   1.746  0.9721  0.1558  0.4056
  264ACOH    H310828   3.798   5.682   1.724 -0.2133 -0.8138  1.1828
  265ACOH    H410829   7.434   1.373   0.292  0.3304  0.6029 -3.5451
  265ACOH    O210830   7.384   1.455   0.306  0.2206  0.1194 -0.8062
  265ACOH    C210831   7.371   1.515   0.188 -0.8545  0.0454  0.4674
  265ACOH    O110832   7.406   1.467   0.082  0.3934 -0.9466 -0.3185
  265ACOH    C110833   7.323   1.659   0.198  0.5149 -0.1931 -0.8877
  265ACOH    H110834   7.304   1.690   0.301 -1.2059 -0.0242 -1.2321
  265ACOH    H210835   7.228   1.665   0.145  1.3699  0.9459 -2.3341
  265ACOH    H310836   7.393   1.729   0.153  0.3942 -1.2287 -2.7271
  266ACOH    H410837   8.054   5.949   0.631  1.5311 -2.1165  0.8191
  266ACOH    O210838   7.979   5.925   0.689  0.1784  0.4877  0.2463
  266ACOH    C210839   8.034   5.943   0.817  0.0517 -0.1543  0.2062
  266ACOH    O110840   8.148   5.969   0.853  0.0203  0.2563  0.1010
  266ACOH    C110841   7.950   5.877   0.920 -0.3112 -0.2599  0.7507
  266ACOH    H110842   7.928   5.950   0.998 -0.5591 -0.0398  0.4761
  266ACOH    H210843   8.009   5.796   0.963 -0.4590 -1.4456 -1.2261
  266ACOH    H310844   7.858   5.842   0.875 -0.1882  2.2827 -1.6230
  267ACOH    H410845   5.397   2.512   1.075  1.2081 -0.6454  1.0972
  267ACOH    O210846   5.357   2.426   1.054  0.1386 -0.0415  0.6041
  267ACOH    C210847   5.292   2.447   0.942  0.2508  0.0311 -0.2093
  267ACOH    O110848   5.245   2.552   0.904  0.1349  0.4947 -0.2093
  267ACOH    C110849   5.238   2.324   0.887  0.3845  0.5848 -0.7502
  267ACOH    H110850   5.237   2.328   0.778 -1.8564  0.0250 -0.7628
  267ACOH    H210851   5.132   2.310   0.908  0.6030 -1.3210 -0.7769
  267ACOH    H310852   5.306   2.240   0.908  0.0287  0.0034 -1.8674
  268ACOH    H410853   7.369   0.826   2.431 -5.8015  0.3788  0.2891
  268ACOH    O210854   7.379   0.887   2.506 -0.2933 -0.1159  0.1738
  268ACOH    C210855   7.358   0.824   2.622  0.3806 -0.5169 -0.4646
  268ACOH    O110856   7.320   0.709   2.628  0.3565 -0.1815 -0.5481
  268ACOH    C110857   7.354   0.913   2.743  0.2008 -0.2023 -0.5003
  268ACOH    H110858   7.284   0.996   2.749  0.6777  0.1653  0.0362
  268ACOH    H210859   7.453   0.957   2.759  1.6873 -3.2668 -0.9637
  268ACOH    H310860   7.329   0.849   2.828 -2.4970  1.2569 -0.1561
  270ACOH    H410861   4.680   7.691   1.038 -1.6310  0.7576 -2.8393
  270ACOH    O210862   4.767   7.672   1.000 -0.3091  0.3974  0.2310
  270ACOH    C210863   4.768   7.700   0.867  0.3436 -0.2262  0.1789
  270ACOH    O110864   4.667   7.727   0.803 -0.4319  0.2736 -0.1655
  270ACOH    C110865   4.896   7.703   0.801  0.9834  0.3063  0.0168
  270ACOH    H110866   4.943   7.799   0.824 -0.5244  1.4276 -1.5591
  270ACOH    H210867   4.898   7.690   0.693  0.0222 -1.9189  0.2514
  270ACOH    H310868   4.951   7.622   0.850  1.7456  0.3798 -0.7155
  271ACOH    H410869   7.713   5.525   0.215  0.3518  1.0830 -0.3651
  271ACOH    O210870   7.619   5.514   0.193  0.4645  0.1217 -0.3610
  271ACOH    C210871   7.551   5.604   0.271 -0.0474  0.6465 -0.0369
  271ACOH    O110872   7.593   5.681   0.356 -0.1993  0.4920  0.1122
  271ACOH    C110873   7.403   5.571   0.251 -0.0645  0.1193  0.1312
  271ACOH    H110874   7.390   5.592   0.144  1.1955 -0.0766 -0.0704
  271ACOH    H210875   7.343   5.640   0.310  0.2536 -0.7438  1.4839
  271ACOH    H310876   7.371   5.471   0.280  0.7618  0.1947  1.3456
  272ACOH    H410877   5.097   1.458   1.975 -0.3598 -0.6452 -1.2121
  272ACOH    O210878   5.184   1.497   1.996 -0.6816 -0.5906  0.0386
  272ACOH    C210879   5.226   1.456   2.119 -0.6254  0.5471  0.1150
  272ACOH    O110880   5.184   1.356   2.179  0.1681  0.4529  0.4800
  272ACOH    C110881   5.352   1.520   2.156  0.0986  0.1486  0.0730
  272ACOH    H110882   5.365   1.610   2.095 -0.3941  1.3617  1.7292
  272ACOH    H210883   5.438   1.453   2.146  0.4227  0.8009 -1.6646
  272ACOH    H310884   5.352   1.563   2.256  2.6143  0.1139  0.1310
  273ACOH    H410885   1.322   3.570   0.391 -0.2342 -1.3769  0.6654
  273ACOH    O210886   1.233   3.595   0.421  0.0527  0.7609 -0.1494
  273ACOH    C210887   1.157   3.484   0.412 -0.2776  0.1705  0.0954
  273ACOH    O110888   1.187   3.376   0.381  0.3118  0.9090 -0.1418
  273ACOH    C110889   1.018   3.517   0.449  0.4542 -0.2626  0.0474
  273ACOH    H110890   1.020   3.538   0.556 -1.5232  0.6435 -0.0604
  273ACOH    H210891   0.950   3.437   0.421 -0.7446  0.2703  1.3615
  273ACOH    H310892   0.997   3.608   0.393  1.3363 -0.5697 -0.7901
  274ACOH    H410893   7.464   4.510   0.033  0.8670 -0.5585  0.2585
  274ACOH    O210894   7.371   4.502   0.007  1.0128  0.3259 -0.5637
  274ACOH    C210895   7.320   4.393   0.071 -0.2223 -0.3381 -0.0949
  274ACOH    O110896   7.387   4.306   0.119  0.0203 -0.5656 -0.5894
  274ACOH    C110897   7.178   4.367   0.049 -0.2756  0.6683  0.7433
  274ACOH    H110898   7.164   4.350  -0.058  1.5300  3.7543 -0.0306
  274ACOH    H210899   7.118   4.453   0.081 -0.4110  0.4833  0.9880
  274ACOH    H310900   7.151   4.284   0.114 -0.8718  1.6162  1.7179
  275ACOH    H410901   4.874   3.615   0.655 -1.7923  2.6981 -0.0939
  275ACOH    O210902   4.910   3.607   0.565 -0.3620  0.3589  0.6461
  275ACOH    C210903   4.941   3.480   0.531 -0.3673 -0.3204  0.1757
  275ACOH    O110904   4.921   3.385   0.600  0.4432 -0.3894 -0.2802
  275ACOH    C110905   4.982   3.464   0.389  0.2279 -0.8620  0.0017
  275ACOH    H110906   5.012   3.561   0.350  0.6250 -1.2191 -0.5746
  275ACOH    H210907   4.902   3.421   0.329 -0.1506  1.6993 -1.4157
  275ACOH    H310908   5.070   3.401   0.390  1.4055  0.7440  2.5865
  276ACOH    H410909   8.205   6.242   2.192 -0.7726  1.2654 -0.2212
  276ACOH    O210910   8.160   6.167   2.235  0.1097  0.8429 -0.0127
  276ACOH    C210911   8.073   6.218   2.313  0.1215  0.0377 -0.5068
  276ACOH    O110912   8.090   6.312   2.387  0.3190 -0.0063 -0.3126
  276ACOH    C110913   7.963   6.124   2.335  0.0040  0.4006 -0.1975
  276ACOH    H110914   7.882   6.157   2.400 -1.3016 -0.4136 -1.3874
  276ACOH    H210915   7.993   6.026   2.372  1.3016  0.8711  0.0201
  276ACOH    H310916   7.919   6.116   2.236 -2.3281 -1.0271  0.8984
  277ACOH    H410917   3.332   9.293   0.368 -0.5690 -1.7173  0.9037
  277ACOH    O210918   3.274   9.358   0.410  0.4067  0.0536 -0.4107
  277ACOH    C210919   3.349   9.469   0.428  0.1742 -0.1768  0.2557
  277ACOH    O110920   3.461   9.500   0.400  0.2208  0.8134 -0.1054
  277ACOH    C110921   3.264   9.563   0.507  0.4340 -0.3294 -0.3393
  277ACOH    H110922   3.191   9.613   0.443  1.9250  1.2139 -0.8694
  277ACOH    H210923   3.319   9.641   0.559 -1.8226 -0.6535  2.6592
  277ACOH    H310924   3.211   9.512   0.588 -0.7275  1.5923  0.1480
  278ACOH    H410925   8.213   7.765   1.224 -0.0962 -2.2052 -0.4976
  278ACOH    O210926   8.117   7.771   1.238  0.0282 -0.1482 -0.3881
  278ACOH    C210927   8.068   7.769   1.117 -0.0608 -0.1127 -0.1189
  278ACOH    O110928   8.125   7.739   1.013 -1.0703  0.2629  0.1051
  278ACOH    C110929   7.919   7.761   1.127  0.2597  0.0746  0.5841
  278ACOH    H110930   7.880   7.692   1.202  0.1629 -0.7913 -0.2489
  278ACOH    H210931   7.878   7.722   1.034  0.6337 -1.3994  1.0246
  278ACOH    H310932   7.876   7.858   1.151 -3.5371 -1.4324  0.1916
  279ACOH    H410933   4.772   3.719   1.027  0.4234  0.4359  0.6032
  279ACOH    O210934   4.823   3.636   1.028 -0.2750 -0.0038  0.0963
  279ACOH    C210935   4.884   3.618   0.911  0.7174 -0.5960 -0.2172
  279ACOH    O110936   4.852   3.676   0.813 -0.5455 -0.5925  0.1544
  279ACOH    C110937   4.981   3.503   0.920 -1.0139  0.0154  0.0287
  279ACOH    H110938   4.951   3.432   0.996  0.2558 -0.5100  0.0464
  279ACOH    H210939   5.081   3.535   0.948 -0.1971 -2.1251 -0.3431
  279ACOH    H310940   4.987   3.444   0.828 -1.5764  0.0804 -0.0520
  280ACOH    H410941   3.439   6.132   1.173  0.5361  0.4937  0.2447
  280ACOH    O210942   3.410   6.133   1.266  0.2604  0.0565  0.1647
  280ACOH    C210943   3.404   6.259   1.296  0.4662  0.5119  0.9843
  280ACOH    O110944   3.395   6.350   1.217 -0.3165  0.5181  0.4329
  280ACOH    C110945   3.374   6.280   1.444  0.3810  0.0226 -0.5417
  280ACOH    H110946   3.293   6.352   1.439  0.0400 -0.2352  1.2429
  280ACOH    H210947   3.456   6.324   1.499  0.2431 -1.6493  1.0483
  280ACOH    H310948   3.351   6.186   1.495  1.3257  0.2313  0.2702
  281ACOH    H410949   3.375   5.462   1.145  1.2799 -0.6269  1.9857
  281ACOH    O210950   3.451   5.522   1.140  0.7321 -0.0808 -0.3886
  281ACOH    C210951   3.405   5.641   1.103  0.5270 -0.6268  0.3246
  281ACOH    O110952   3.300   5.667   1.050  0.2216  0.5527  0.0729
  281ACOH    C110953   3.515   5.747   1.108  0.2169  0.5899 -0.1701
  281ACOH    H110954   3.614   5.704   1.127 -1.3480 -3.0638  0.0797
  281ACOH    H210955   3.480   5.818   1.183  0.7413  0.6672  0.0069
  281ACOH    H310956   3.527   5.802   1.014  0.1168 -0.5342 -0.8538
  282ACOH    H410957   5.335   3.911   0.186  0.0931 -0.3487 -0.1944
  282ACOH    O210958   5.393   3.867   0.250  0.0754 -0.1347 -0.0298
  282ACOH    C210959   5.388   3.732   0.227  0.1584  0.4737 -0.2461
  282ACOH    O110960   5.303   3.673   0.163 -0.3039 -0.1903 -0.4338
  282ACOH    C110961   5.491   3.667   0.314  0.7427 -0.2787 -0.5083
  282ACOH    H110962   5.453   3.681   0.415 -3.6820  2.2800 -2.4003
  282ACOH    H210963   5.583   3.725   0.309  1.4737 -1.2214  1.4543
  282ACOH    H310964   5.508   3.562   0.290  1.9015 -0.1086 -0.4263
  283ACOH    H410965   4.748   8.212   1.147 -0.3654  0.0875  0.0792
  283ACOH    O210966   4.760   8.137   1.208 -0.0050 -0.0507 -0.1588
  283ACOH    C210967   4.812   8.027   1.147  0.2851  0.0286  0.1530
  283ACOH    O110968   4.870   8.023   1.041  0.4219 -0.8108 -0.4518
  283ACOH    C110969   4.809   7.909   1.236  0.8330  0.6416  0.2412
  283ACOH    H110970   4.910   7.890   1.272  0.2497  1.4133  2.3549
  283ACOH    H210971   4.771   7.819   1.187 -0.4517  0.6031  1.2794
  283ACOH    H310972   4.744   7.928   1.322  1.0030  0.8271  0.3270
  284ACOH    H410973   4.495   0.231   0.577  3.3237 -1.7359 -1.0079
  284ACOH    O210974   4.454   0.209   0.492  0.0321  0.7196 -0.1712
  284ACOH    C210975   4.349   0.295   0.475 -0.2033  0.0145  0.3058
  284ACOH    O110976   4.284   0.343   0.567 -0.0108  0.4071 -0.2180
  284ACOH    C110977   4.311   0.306   0.331  0.0241 -0.7702  0.0959
  284ACOH    H110978   4.238   0.235   0.291 -1.2510  0.8873 -0.5488
  284ACOH    H210979   4.399   0.281   0.271  0.1281 -1.6267  0.5909
  284ACOH    H310980   4.282   0.406   0.301  2.7825 -0.0091 -0.1818
  285ACOH    H410981   4.508   0.512   2.756 -1.9872 -0.8242 -1.3612
  285ACOH    O210982   4.522   0.588   2.697  0.0246  0.0636  0.1870
  285ACOH    C210983   4.655   0.620   2.696 -0.2653 -0.3896 -0.5703
  285ACOH    O110984   4.738   0.572   2.770  0.2437  0.2972 -0.4586
  285ACOH    C110985   4.689   0.714   2.593  0.2074 -0.9085 -0.5569
  285ACOH    H110986   4.796   0.735   2.600 -0.6036  3.1396  1.5948
  285ACOH    H210987   4.635   0.808   2.608  1.8269 -0.3829  2.4749
  285ACOH    H310988   4.657   0.678   2.495  0.2742 -2.0719 -0.1616
  287ACOH    H410989   4.103   5.064   1.992 -0.3042 -0.0922 -0.4403
  287ACOH    O210990   4.080   5.133   1.927 -0.1161  0.1993 -0.1953
  287ACOH    C210991   4.173   5.139   1.829 -0.1054  0.2336 -0.1643
  287ACOH    O110992   4.258   5.055   1.829 -0.2053 -0.7263  0.3423
  287ACOH    C110993   4.164   5.251   1.725 -0.1853  0.2599 -0.4273
  287ACOH    H110994   4.143   5.199   1.632  0.7109 -0.8654 -0.0036
  287ACOH    H210995   4.253   5.313   1.716 -0.2960  0.5024  0.1359
  287ACOH    H310996   4.074   5.310   1.742 -0.3845 -0.0942 -0.2601
  289SOL     OW10997   3.780   5.101   0.986  0.0865  0.6571 -0.1685
  289SOL    HW110998   3.847   5.040   0.944 -0.2293  0.9947 -1.1874
  289SOL    HW210999   3.822   5.190   1.002  0.5946  0.1498  1.4642
  291SOL     OW11000   2.856   5.807   0.183 -0.4805  0.6965  0.0118
  291SOL    HW111001   2.955   5.803   0.197 -0.6768  0.2836  1.3886
  291SOL    HW211002   2.825   5.902   0.187  0.0176  0.9301 -1.6143
  292SOL     OW11003   4.578   9.661   1.598  0.7195  0.1482 -0.0319
  292SOL    HW111004   4.539   9.627   1.684  1.8145 -0.9539  0.0472
  292SOL    HW211005   4.676   9.643   1.597  0.4801 -1.1424 -2.1060
  293SOL     OW11006   0.395   1.981   1.906 -1.4629  0.8419  0.1055
  293SOL    HW111007   0.445   1.902   1.872 -2.4193  0.1124  0.3901
  293SOL    HW211008   0.401   2.056   1.840  0.1228  0.8209  0.1991
  294SOL     OW11009   4.454   0.817   1.446  0.2653  0.3370  0.2801
  294SOL    HW111010   4.400   0.859   1.374  1.6425 -0.2601 -1.1266
  294SOL    HW211011   4.429   0.857   1.534 -0.1565  2.3511 -0.7387
  295SOL     OW11012   1.089   5.106   1.547  0.7876  0.1179  0.6179
  295SOL    HW111013   1.167   5.068   1.596  0.3761  0.5227  1.6046
  295SOL    HW211014   1.120   5.152   1.464  1.4706 -0.7406  0.3989
  296SOL     OW11015   2.518   3.184   0.798  0.2324  0.8004 -0.7852
  296SOL    HW111016   2.422   3.171   0.824  0.3152  0.7844 -0.4784
  296SOL    HW211017   2.556   3.261   0.849  0.9158 -0.3872  0.5600
  299SOL     OW11018   8.921   8.589   1.076 -0.6149  0.4802  0.4656
  299SOL    HW111019   8.875   8.530   1.010 -0.0411 -1.0831  1.4442
  299SOL    HW211020   9.002   8.630   1.034 -0.7266  0.1627 -0.0558
  300SOL     OW11021   0.349   7.277   1.533  0.7000  0.0988  0.1005
  300SOL    HW111022   0.384   7.339   1.604  0.1941  2.8172 -1.9153
  300SOL    HW211023   0.252   7.296   1.518  1.0546  0.3241 -2.0475
  301SOL     OW11024   2.503   9.755   1.646 -0.2184  0.4156  0.1452
  301SOL    HW111025   2.555   9.683   1.692  0.5947  0.9986  0.1575
  301SOL    HW211026   2.479   9.826   1.713  2.6162  2.2172 -0.6309
  302SOL     OW11027   2.293   3.167   0.380  0.1674  0.3661 -0.0829
  302SOL    HW111028   2.334   3.162   0.289 -0.0315 -1.0353 -0.1063
  302SOL    HW211029   2.212   3.107   0.383  0.5705 -0.1211  1.2156
  303SOL     OW11030   2.543   1.435   1.898  0.0816  0.1250 -0.3291
  303SOL    HW111031   2.580   1.453   1.807 -1.0626 -1.6890 -1.1894
  303SOL    HW211032   2.612   1.386   1.952  0.6735  0.9861 -0.2999
  304SOL     OW11033   1.254   5.920   0.272  0.2035  0.0768 -0.0837
  304SOL    HW111034   1.275   5.924   0.175 -2.0221  1.2998 -0.5474
  304SOL    HW211035   1.261   6.011   0.312  0.8066 -0.3686  0.8602
  305SOL     OW11036   4.112   4.594   2.561 -0.3305 -0.5010  0.2167
  305SOL    HW111037   4.188   4.588   2.496  0.2309  0.8277  0.7085
  305SOL    HW211038   4.032   4.548   2.525 -0.7226  2.1151 -2.4482
  306SOL     OW11039   9.101   0.012   2.421 -0.0245 -0.4400 -0.0122
  306SOL    HW111040   9.058   0.100   2.398  0.4048 -0.4750 -1.0122
  306SOL    HW211041   9.109  -0.043   2.338 -0.7311 -1.6275  0.7006
  307SOL     OW11042   0.365   6.377   0.713  0.4296 -0.3392  0.2367
  307SOL    HW111043   0.457   6.363   0.676  0.6880 -1.9690  1.4288
  307SOL    HW211044   0.370   6.436   0.793  0.5970 -1.3249  0.9631
  309SOL     OW11045   2.342   8.440   0.392  0.0824  0.4467  0.1033
  309SOL    HW111046   2.256   8.489   0.379 -0.3672 -0.8324 -1.9955
  309SOL    HW211047   2.387   8.426   0.303  1.8132 -0.0489  1.0248
  310SOL     OW11048   8.940   3.305   1.023 -0.3434 -0.2800 -0.2652
  310SOL    HW111049   8.993   3.221   1.012  0.8422  0.3995  0.1469
  310SOL    HW211050   8.998   3.384   1.002 -1.6139  0.4096 -1.2074
  311SOL     OW11051   3.730   5.980   2.427 -0.0463 -0.4109 -0.1632
  311SOL    HW111052   3.776   5.932   2.353  0.4068  0.4400 -0.4371
  311SOL    HW211053   3.716   5.917   2.504  0.9070 -0.8715 -0.3601
  312SOL     OW11054   0.683   0.424   2.356 -0.0846 -0.3526 -0.3728
  312SOL    HW111055   0.586   0.420   2.328  0.2538  0.8295 -1.7474
  312SOL    HW211056   0.739   0.380   2.285  0.2826 -2.2127  1.0344
  313SOL     OW11057   1.251   1.590   0.131 -0.1396  0.1733 -0.3711
  313SOL    HW111058   1.209   1.661   0.187  0.2792  0.7142 -0.7377
  313SOL    HW211059   1.328   1.629   0.080  1.4049 -1.0298  0.9878
  314SOL     OW11060   7.646   0.994   1.174 -0.0367 -0.1838 -0.3644
  314SOL    HW111061   7.617   1.019   1.081  0.6936 -0.1817 -0.5943
  314SOL    HW211062   7.661   0.895   1.179 -0.6625 -0.2652 -0.0837
  315SOL     OW11063   0.734   3.912   1.805  0.3267 -0.4579 -0.3966
  315SOL    HW111064   0.683   3.934   1.722 -0.8244 -0.4946  0.2986
  315SOL    HW211065   0.795   3.988   1.828  0.9038 -0.5877 -1.4596
  316SOL     OW11066   5.278   9.476   2.216 -0.1563  0.1588  0.0826
  316SOL    HW111067   5.370   9.440   2.227 -1.0914 -2.3850  0.0880
  316SOL    HW211068   5.227   9.464   2.301 -0.4133  1.8065  0.1723
  317SOL     OW11069   5.092   8.914   2.485  0.5357 -0.1974 -0.2863
  317SOL    HW111070   5.119   8.858   2.406  0.8660 -0.9013  0.3222
  317SOL    HW211071   5.013   8.971   2.460 -1.7902 -3.1478 -0.0315
  318SOL     OW11072   0.287   5.541   0.653  0.3555 -0.7681  0.1007
  318SOL    HW111073   0.198   5.583   0.633  0.3288 -1.2545 -0.8167
  318SOL    HW211074   0.276   5.442   0.660  0.5270 -0.6946  1.6882
  319SOL     OW11075   9.803   2.516   1.941 -0.9081 -0.0929 -0.0387
  319SOL    HW111076   9.799   2.416   1.929 -0.1580 -0.2058  0.6200
  319SOL    HW211077   9.789   2.539   2.037 -1.9826  0.5009 -0.3319
  322SOL     OW11078   9.952   1.233   2.028 -0.1343 -0.6962 -0.2795
  322SOL    HW111079   9.901   1.306   2.072  1.9282  0.4025  0.3642
  322SOL    HW211080  10.049   1.258   2.024  0.7742 -3.8095  0.8779
  323SOL     OW11081   8.127   3.527   1.489 -0.1835 -0.1556  0.4572
  323SOL    HW111082   8.223   3.531   1.515 -0.1453 -1.9329  0.6750
  323SOL    HW211083   8.110   3.591   1.414  1.1166  0.3068  0.5406
  324SOL     OW11084   3.310   8.413   1.306 -0.2673  0.5955  0.2627
  324SOL    HW111085   3.297   8.355   1.386 -2.9178  0.8921  0.0936
  324SOL    HW211086   3.343   8.358   1.229  0.5288 -0.0347  1.0516
  325SOL     OW11087   2.151   5.101   0.059  0.1189  0.1666 -0.5313
  325SOL    HW111088   2.069   5.098   0.117  0.5696  0.8266  0.1545
  325SOL    HW211089   2.151   5.187   0.008  0.2871  0.0838 -0.6687
  326SOL     OW11090   8.141   2.176   0.197  0.1428 -0.0942  0.0633
  326SOL    HW111091   8.064   2.241   0.199 -0.0719 -0.3275 -0.5048
  326SOL    HW211092   8.213   2.208   0.258 -0.5578 -0.0598  0.8928
  329SOL     OW11093   1.556   4.474   1.198 -0.1515  0.6041 -0.3255
  329SOL    HW111094   1.562   4.412   1.277 -0.3246 -1.2985 -1.7759
  329SOL    HW211095   1.473   4.455   1.147  0.0397  1.7226 -1.0581
  331SOL     OW11096   9.304   5.406   2.148  0.5194  0.2062 -0.3653
  331SOL    HW111097   9.264   5.423   2.058  1.2747 -0.4160 -0.8236
  331SOL    HW211098   9.231   5.401   2.217  0.0544  2.2347 -0.6776
  332SOL     OW11099   1.520   4.391   0.588  0.1453 -0.1373  0.3382
  332SOL    HW111100   1.428   4.369   0.622 -0.4419 -0.2073 -1.2760
  332SOL    HW211101   1.541   4.333   0.510  3.3951 -3.3533  3.3758
  333SOL     OW11102   3.347   8.139   0.621 -0.2337 -0.3479 -0.0694
  333SOL    HW111103   3.326   8.143   0.523  2.7868  1.8603 -0.7075
  333SOL    HW211104   3.397   8.055   0.642  0.6837  0.0160 -0.7795
  334SOL     OW11105   0.877   8.683   2.016  0.0922  0.6151 -0.2274
  334SOL    HW111106   0.970   8.652   1.993 -0.0815 -0.0747 -0.0109
  334SOL    HW211107   0.815   8.660   1.941 -0.5006 -1.7571  0.9472
  335SOL     OW11108   0.228   7.765   0.113  0.2044 -0.3876 -0.1208
  335SOL    HW111109   0.315   7.738   0.072 -0.1417 -1.3847 -0.2228
  335SOL    HW211110   0.174   7.683   0.133 -0.2025  0.1617  1.0683
  336SOL     OW11111   2.970   6.874   2.050 -0.0904 -0.6463  0.3080
  336SOL    HW111112   2.897   6.883   2.118 -0.7362  0.6503 -0.5530
  336SOL    HW211113   2.966   6.783   2.009 -0.3292 -1.0803  1.2633
  337SOL     OW11114   3.308   1.970   2.320  0.7195 -0.0645  0.0631
  337SOL    HW111115   3.379   1.957   2.390 -1.2041  1.9466  2.4774
  337SOL    HW211116   3.238   1.900   2.330 -0.4757  1.2923  1.3656
  338SOL     OW11117   9.856   4.939   0.314 -0.2975 -0.2061 -0.4603
  338SOL    HW111118   9.881   4.914   0.221 -0.1209 -1.2218 -0.1406
  338SOL    HW211119   9.906   4.882   0.379  0.2512  1.1034  0.2781
  340SOL     OW11120   0.978   5.629   0.532  0.2057 -0.0952  0.6087
  340SOL    HW111121   0.976   5.721   0.493 -1.3047 -0.1041  0.6218
  340SOL    HW211122   1.071   5.606   0.560  0.7741  1.0314 -0.3311
  341SOL     OW11123   7.722   2.172   0.240  0.2164 -0.6007  0.0908
  341SOL    HW111124   7.732   2.073   0.248 -1.1872 -0.7410  0.2480
  341SOL    HW211125   7.692   2.195   0.147  2.6282 -0.1324 -0.6035
  342SOL     OW11126   3.794   4.239   1.437 -0.6921 -0.1994  0.2265
  342SOL    HW111127   3.860   4.281   1.375 -0.8881  0.8781  0.7249
  342SOL    HW211128   3.719   4.303   1.454 -0.7080 -0.5280  1.4600
  343SOL     OW11129   9.882   2.481   0.770  0.0670  0.1084 -0.3762
  343SOL    HW111130   9.822   2.559   0.783 -2.2965 -1.9701  1.6750
  343SOL    HW211131   9.977   2.512   0.767 -0.9106  3.1597 -0.8761
  344SOL     OW11132   2.564   8.508   1.951 -0.0717  0.1438 -0.3249
  344SOL    HW111133   2.623   8.487   1.873  0.3414  2.5809 -0.7234
  344SOL    HW211134   2.617   8.503   2.035  0.6401  1.8611 -0.6395
  345SOL     OW11135   1.332   2.404   0.362 -0.1655 -0.6517  0.4346
  345SOL    HW111136   1.300   2.469   0.292  0.3711 -0.1988  0.6037
  345SOL    HW211137   1.284   2.317   0.351 -0.8345 -0.2552  0.1477
  346SOL     OW11138   3.404   8.387   0.865 -0.0410  0.5257  0.0486
  346SOL    HW111139   3.334   8.399   0.795 -0.1644  1.8240  0.3771
  346SOL    HW211140   3.362   8.397   0.956  0.3130 -0.0770  0.2834
  348SOL     OW11141   1.060   9.922   1.447  0.2340 -0.5231 -0.5885
  348SOL    HW111142   1.023   9.949   1.536  0.6932 -2.2244  0.1283
  348SOL    HW211143   1.048   9.997   1.382  1.5120  1.4024  1.3665
  351SOL     OW11144   5.135   8.006   2.275 -0.2572  0.2013 -0.0486
  351SOL    HW111145   5.167   7.964   2.190  2.0152 -0.2921  1.0199
  351SOL    HW211146   5.177   8.096   2.285  1.2091 -0.6484  1.6036
  352SOL     OW11147   9.054   0.589   2.408  0.0950  0.1186 -0.3693
  352SOL    HW111148   9.017   0.681   2.408 -0.5943 -0.1550 -1.0003
  352SOL    HW211149   9.032   0.543   2.322  0.8936 -0.4520 -0.2863
  353SOL     OW11150   1.374   6.230   0.415  0.0645 -0.6870 -0.1889
  353SOL    HW111151   1.350   6.272   0.327 -0.0492 -1.0259 -0.3197
  353SOL    HW211152   1.385   6.302   0.484  0.7144 -0.3801 -0.6137
  354SOL     OW11153   0.570   7.695   1.011 -0.1960 -0.3341  0.0283
  354SOL    HW111154   0.489   7.754   1.003 -0.8634 -1.5085 -2.4629
  354SOL    HW211155   0.647   7.737   0.963 -0.4909 -1.1362 -1.1757
  355SOL     OW11156   0.392   9.149   0.231  0.3455 -0.3818  0.2541
  355SOL    HW111157   0.324   9.079   0.207 -1.5808  0.9255  1.8149
  355SOL    HW211158   0.353   9.240   0.215  0.9486  0.4183  3.1488
  357SOL     OW11159   3.203   5.343   2.126 -0.2563  0.5400 -0.0918
  357SOL    HW111160   3.216   5.388   2.037 -0.9704 -1.1530 -1.0756
  357SOL    HW211161   3.293   5.326   2.167  0.1147  0.6673 -0.8314
  358SOL     OW11162   9.018   0.210   1.900  0.6554  0.2677  0.0770
  358SOL    HW111163   9.048   0.305   1.899 -0.6198  0.6738 -1.2124
  358SOL    HW211164   8.928   0.204   1.944  1.0565 -0.4468  0.8108
  359SOL     OW11165   8.494   5.219   0.457 -0.1982  0.1339 -0.2893
  359SOL    HW111166   8.396   5.210   0.437 -0.0623  0.0548 -0.9308
  359SOL    HW211167   8.546   5.208   0.373  0.3134  1.0686 -0.0984
  360SOL     OW11168   3.473   4.477   2.654 -0.1487  0.2366 -0.1700
  360SOL    HW111169   3.508   4.550   2.712 -0.3634  1.2584 -1.2940
  360SOL    HW211170   3.479   4.390   2.702 -0.0523  1.0161  1.2574
  361SOL     OW11171   4.970   7.856   1.986 -0.0474 -0.4773 -0.3364
  361SOL    HW111172   4.922   7.809   2.060  0.8737 -1.9194 -0.6306
  361SOL    HW211173   5.017   7.788   1.929  1.5317  0.8430 -0.6228
  362SOL     OW11174   2.421   4.171   2.311 -0.1258  0.1004  0.3437
  362SOL    HW111175   2.407   4.233   2.234  2.0521 -0.0812 -0.2303
  362SOL    HW211176   2.402   4.077   2.282  0.5847  0.0452  0.0592
  363SOL     OW11177   9.835   5.767   0.843 -0.5175  0.2901 -0.6177
  363SOL    HW111178   9.893   5.762   0.924 -1.0681  1.3648 -0.1502
  363SOL    HW211179   9.800   5.860   0.833 -3.4759 -0.6881  0.0461
  364SOL     OW11180   1.259   9.527   2.630 -0.2106  0.2554  0.4275
  364SOL    HW111181   1.356   9.529   2.609 -0.2489 -1.2381  0.0753
  364SOL    HW211182   1.208   9.498   2.549 -1.2011  3.4519 -0.1712
  365SOL     OW11183   9.729   3.123   0.873  0.1119  0.1955  0.3403
  365SOL    HW111184   9.734   3.222   0.859  2.5669  0.0695  0.0697
  365SOL    HW211185   9.634   3.096   0.888 -0.6635  2.5023 -0.2137
  366SOL     OW11186   9.674   6.237   1.544  0.1469  0.3131  0.5483
  366SOL    HW111187   9.742   6.165   1.559  0.1714  0.0634 -0.7420
  366SOL    HW211188   9.604   6.204   1.481  0.5747  1.6898 -0.6637
  367SOL     OW11189   8.793   2.388   2.346  0.1171 -0.5715  0.7144
  367SOL    HW111190   8.722   2.379   2.415  1.1149 -1.9082  1.5905
  367SOL    HW211191   8.859   2.457   2.376  0.7586 -1.4290  1.2844
  368SOL     OW11192   0.076   4.067   2.253 -0.0516 -0.5250 -0.1285
  368SOL    HW111193   0.174   4.079   2.235  0.0947  2.0924  2.2214
  368SOL    HW211194   0.045   4.134   2.321 -3.4752 -1.3506 -0.7641
  369SOL     OW11195   8.183   8.995   0.915 -0.5790 -0.4033 -0.1424
  369SOL    HW111196   8.116   8.949   0.974  0.0960 -1.4361 -0.1809
  369SOL    HW211197   8.275   8.963   0.938 -0.2598 -0.3812 -1.3692
  371SOL     OW11198   5.942   8.478   2.356 -0.4108  0.3122  0.0776
  371SOL    HW111199   5.908   8.564   2.317 -0.0579  0.7420  0.7077
  371SOL    HW211200   5.866   8.414   2.368 -0.3716 -0.2757 -2.3981
  373SOL     OW11201   3.325   9.339   0.088  0.2849  0.1820  0.1514
  373SOL    HW111202   3.290   9.431   0.107 -1.6975 -0.8494  1.7286
  373SOL    HW211203   3.379   9.307   0.166 -0.1109 -0.4827  0.1598
  374SOL     OW11204   9.410   6.766   2.169  0.1567 -0.0096  0.2220
  374SOL    HW111205   9.415   6.725   2.078 -0.4328  0.0237  0.1685
  374SOL    HW211206   9.447   6.702   2.236  2.3575  0.7282 -0.2650
  375SOL     OW11207   9.894   2.408   2.445 -0.2700 -0.1601 -0.0810
  375SOL    HW111208   9.908   2.350   2.526 -0.6527 -1.9584 -1.2864
  375SOL    HW211209   9.870   2.500   2.475 -1.7388 -1.1225  1.8611
  376SOL     OW11210   2.467   0.902   2.402 -0.0918 -0.5528  0.3648
  376SOL    HW111211   2.468   0.802   2.407 -0.3351 -0.5297  0.9040
  376SOL    HW211212   2.394   0.938   2.460 -0.1544 -0.0717 -0.0104
  377SOL     OW11213   2.347   8.206   1.372  0.0183 -0.2325 -0.1222
  377SOL    HW111214   2.409   8.135   1.406 -1.1996 -0.9463  0.6555
  377SOL    HW211215   2.286   8.166   1.303 -2.2200 -0.5351  1.9977
  378SOL     OW11216   2.327   0.513   0.559  0.2426  0.1476 -0.1859
  378SOL    HW111217   2.417   0.522   0.601 -0.2013 -1.7589  1.2249
  378SOL    HW211218   2.260   0.565   0.612 -0.0800 -1.1623  0.6925
  379SOL     OW11219   9.211   8.082   0.684  0.2565 -0.2059  0.1538
  379SOL    HW111220   9.126   8.075   0.736 -0.0129  2.3575  0.1106
  379SOL    HW211221   9.273   8.146   0.729  1.0181  0.1461 -1.3634
  382SOL     OW11222   3.186   2.871   1.442 -0.1643  0.0886  0.5201
  382SOL    HW111223   3.282   2.899   1.446 -0.1406  0.2402 -0.8604
  382SOL    HW211224   3.181   2.773   1.423 -0.2669  0.5607 -2.1087
  383SOL     OW11225   1.966   3.738   1.933 -0.0424  0.2405  0.6658
  383SOL    HW111226   2.041   3.698   1.880  0.5138  1.9523  0.1197
  383SOL    HW211227   1.888   3.675   1.934  0.2617 -0.2113 -1.4232
  384SOL     OW11228   3.091   1.386   0.311 -0.1973  0.1251 -0.3906
  384SOL    HW111229   3.149   1.317   0.266 -0.2542  0.8259 -1.5437
  384SOL    HW211230   3.148   1.463   0.339 -0.0153 -0.6790  1.5300
  385SOL     OW11231   4.631   2.300   1.053 -0.7014 -0.5124  0.5192
  385SOL    HW111232   4.551   2.281   0.995  0.0546  0.8493 -1.0021
  385SOL    HW211233   4.704   2.235   1.031 -1.1485 -1.3425  1.4521
  386SOL     OW11234   8.937   6.902   0.982 -0.1012 -0.4947  0.3162
  386SOL    HW111235   8.909   6.991   0.945  1.7310 -0.9050 -2.1791
  386SOL    HW211236   9.033   6.905   1.007  0.2110 -2.0122 -0.6382
  387SOL     OW11237   8.850   9.769   1.766  0.3842  0.2834 -0.2104
  387SOL    HW111238   8.948   9.777   1.744 -0.0002  1.5065 -1.4946
  387SOL    HW211239   8.826   9.837   1.835  0.1104  0.9600 -0.9801
  388SOL     OW11240   9.037   4.003   1.505  0.0458 -0.4215 -0.2121
  388SOL    HW111241   9.095   3.944   1.561  0.1013  1.1922  1.4743
  388SOL    HW211242   8.941   3.985   1.525  0.0637  0.0838  0.3374
  389SOL     OW11243   7.536   1.168   2.225  0.4043 -0.3806  0.0558
  389SOL    HW111244   7.632   1.166   2.252 -0.0074  1.5876  1.7538
  389SOL    HW211245   7.478   1.151   2.305 -0.7055 -0.4292 -0.7424
  390SOL     OW11246   3.312   4.852   0.814  0.2830 -0.3142  0.5000
  390SOL    HW111247   3.247   4.926   0.800  0.4331 -0.0253  1.3311
  390SOL    HW211248   3.262   4.767   0.832  0.0961 -0.5670 -1.1109
  391SOL     OW11249   7.750   1.479   2.325 -0.1295 -0.4667  0.1647
  391SOL    HW111250   7.723   1.479   2.229 -0.8123  2.1781  0.3239
  391SOL    HW211251   7.671   1.457   2.383 -0.1338 -0.3305  0.2114
  392SOL     OW11252   1.752   6.178   0.994  0.0487  0.0036  0.1265
  392SOL    HW111253   1.684   6.243   1.028 -0.2225 -0.2306  0.0336
  392SOL    HW211254   1.772   6.198   0.898 -0.6892 -0.5912 -0.1611
  394SOL     OW11255   9.135   8.258   1.934 -0.2376  0.2500  0.0756
  394SOL    HW111256   9.170   8.319   1.863 -0.1720 -0.3711 -0.4346
  394SOL    HW211257   9.041   8.232   1.912 -0.3034  0.2565  0.3488
  396SOL     OW11258   3.520   7.130   1.037 -0.0252  0.5535  0.0564
  396SOL    HW111259   3.609   7.167   1.061 -0.0021  0.5587 -0.0384
  396SOL    HW211260   3.520   7.031   1.050  1.0278  0.0996 -3.0834
  397SOL     OW11261   9.565   7.244   2.091 -0.2995 -0.0907  0.3664
  397SOL    HW111262   9.516   7.232   2.005  1.0094 -0.2209 -0.3725
  397SOL    HW211263   9.573   7.342   2.112  0.5475 -0.0042 -0.3461
  398SOL     OW11264   4.424   2.796   2.220 -0.3691  0.2817  0.0157
  398SOL    HW111265   4.358   2.725   2.195  1.3829 -1.1624 -0.5653
  398SOL    HW211266   4.423   2.869   2.152 -0.2027 -0.5348 -0.8713
  399SOL     OW11267   9.839   4.343   0.907  0.9647  0.4857  0.1432
  399SOL    HW111268   9.810   4.434   0.935  1.0308 -0.0908  2.1356
  399SOL    HW211269   9.939   4.339   0.903  1.0094  0.1523  1.3333
  400SOL     OW11270   9.365   7.365   1.375  0.7890  0.0446 -0.0006
  400SOL    HW111271   9.324   7.274   1.364  0.8660 -0.0010  0.0795
  400SOL    HW211272   9.388   7.379   1.471 -0.7120  0.7947  0.2480
  401SOL     OW11273   1.511   6.506   0.242  0.0975  0.2888 -0.1041
  401SOL    HW111274   1.442   6.516   0.314  0.9336  0.1396  0.7360
  401SOL    HW211275   1.532   6.408   0.231 -2.0791  0.0507 -2.5372
  402SOL     OW11276   3.248   2.614   0.880  0.7109 -0.1285  0.1970
  402SOL    HW111277   3.264   2.671   0.961 -0.3945  0.1959  0.1912
  402SOL    HW211278   3.208   2.527   0.908  4.4363 -1.8601  0.4384
  403SOL     OW11279   2.919   4.969   2.411 -0.7595  0.5457 -0.0420
  403SOL    HW111280   2.873   4.901   2.354 -0.3429 -0.3170  0.6416
  403SOL    HW211281   3.010   4.987   2.373 -0.3455 -0.2880  0.5265
  404SOL     OW11282   1.869   2.573   1.939  0.2641  0.1242  0.4168
  404SOL    HW111283   1.926   2.560   2.020  0.0655  1.2265  0.7521
  404SOL    HW211284   1.887   2.663   1.900 -0.7062  0.1886  0.0955
  406SOL     OW11285   3.855   1.870   2.438  0.2810  0.0755 -0.4704
  406SOL    HW111286   3.920   1.863   2.362 -0.4404 -0.8549 -1.0122
  406SOL    HW211287   3.870   1.956   2.487  1.6118  0.0748 -0.8714
  407SOL     OW11288   9.004   4.973   0.073 -0.3169 -0.0688  0.1814
  407SOL    HW111289   9.024   4.933  -0.017 -0.0778  0.6713 -0.0943
  407SOL    HW211290   9.041   5.065   0.077  0.0496 -0.2569  1.1935
  408SOL     OW11291   2.868   3.093   0.292 -0.3500  0.9754  0.1480
  408SOL    HW111292   2.782   3.062   0.332 -0.8480  0.0852 -1.5491
  408SOL    HW211293   2.864   3.191   0.274 -1.7355  0.6330 -1.5931
  409SOL     OW11294   0.417   1.058   2.261 -0.4067 -0.0552 -0.2274
  409SOL    HW111295   0.423   1.059   2.161  0.7560 -1.7925 -0.1957
  409SOL    HW211296   0.469   1.135   2.298 -1.1156  0.7869 -0.9646
  410SOL     OW11297   9.523   9.553   0.643 -0.2092 -0.2321 -0.0443
  410SOL    HW111298   9.599   9.604   0.601 -0.6720 -0.7445 -1.5254
  410SOL    HW211299   9.505   9.470   0.590 -1.9834  0.0209  0.1277
  411SOL     OW11300   0.948   0.027   1.709  0.1167 -0.3314 -0.0030
  411SOL    HW111301   0.995   0.096   1.763  0.0207 -0.1974 -0.0888
  411SOL    HW211302   0.849   0.037   1.721  0.0707  0.1569 -0.7646
  413SOL     OW11303   9.538   4.151   0.664  0.0877 -0.6068  0.2839
  413SOL    HW111304   9.549   4.109   0.754  0.9552  1.1347  0.9998
  413SOL    HW211305   9.539   4.250   0.672  0.2037 -0.4174 -1.6567
  414SOL     OW11306   4.546   1.112   2.602 -0.2479 -0.7490 -0.0836
  414SOL    HW111307   4.624   1.080   2.656  0.6687  1.5456  0.0332
  414SOL    HW211308   4.505   1.192   2.648 -2.1781 -1.4381 -0.5553
  415SOL     OW11309   2.681   9.835   1.958  0.4974 -0.0135 -0.9170
  415SOL    HW111310   2.719   9.846   1.866 -0.5295  0.2607 -1.3086
  415SOL    HW211311   2.694   9.741   1.989  2.2906  0.2824 -0.6896
  416SOL     OW11312   2.121   6.385   2.272  0.4016 -0.1406 -0.3094
  416SOL    HW111313   2.104   6.420   2.180  0.2169 -1.2744 -0.7169
  416SOL    HW211314   2.216   6.403   2.298  0.5223 -0.0364 -0.8263
  417SOL     OW11315   7.831   1.272   0.392  0.2194  0.2274 -0.2036
  417SOL    HW111316   7.785   1.199   0.443 -0.0978  0.0365 -0.7657
  417SOL    HW211317   7.770   1.351   0.385 -0.8258 -0.7817 -2.7566
  419SOL     OW11318   2.166   6.576   2.031  1.1596 -0.5983 -0.3023
  419SOL    HW111319   2.207   6.613   2.114 -0.5846 -2.5318  1.5062
  419SOL    HW211320   2.216   6.495   2.002  3.0501  1.2696 -2.4127
  421SOL     OW11321   9.551   1.168   0.025  0.1512 -0.3504 -0.1226
  421SOL    HW111322   9.455   1.141   0.012  0.2148  0.0981 -1.6575
  421SOL    HW211323   9.573   1.167   0.122 -0.6717 -2.9800  0.0730
  422SOL     OW11324   3.579   3.821   2.084 -0.2541  0.0221 -0.1064
  422SOL    HW111325   3.626   3.849   2.000 -0.2373 -1.0893 -0.4691
  422SOL    HW211326   3.587   3.722   2.096 -3.6959 -0.4216 -0.9076
  424SOL     OW11327   3.647   8.311   1.835 -0.0567 -0.2085  0.2278
  424SOL    HW111328   3.693   8.389   1.879 -1.3636 -0.1506  1.5205
  424SOL    HW211329   3.549   8.331   1.825  0.0649 -0.5713 -1.9632
  425SOL     OW11330   8.764   5.617   1.683  0.2193 -0.5438  0.5409
  425SOL    HW111331   8.732   5.669   1.762 -0.1092  0.5518 -0.3022
  425SOL    HW211332   8.756   5.519   1.702 -1.2609 -0.2910  1.3033
  426SOL     OW11333   9.029   3.992   2.206  0.0219 -0.1049 -0.1821
  426SOL    HW111334   9.070   3.954   2.288  1.0927  0.4500 -0.4534
  426SOL    HW211335   9.035   3.926   2.131 -0.7264 -0.5115  0.1120
  427SOL     OW11336   1.844   2.094   2.428  0.2344  0.1754  0.1534
  427SOL    HW111337   1.845   2.038   2.511  0.5412 -0.1094 -0.0379
  427SOL    HW211338   1.916   2.062   2.366 -0.1992  0.1763 -0.3596
  428SOL     OW11339   1.152   8.021   1.388 -0.3872 -0.1462  0.0653
  428SOL    HW111340   1.217   8.073   1.444 -0.6969  0.4902 -0.1667
  428SOL    HW211341   1.202   7.972   1.317 -0.0384 -0.6005  0.6186
  429SOL     OW11342   8.597   7.822   0.843 -0.1825  1.1299  0.3780
  429SOL    HW111343   8.610   7.730   0.807  0.4275  1.3955 -0.0993
  429SOL    HW211344   8.504   7.853   0.826 -0.6336  0.2909  1.2716
  430SOL     OW11345   1.050   9.049   1.610  0.6948 -0.1153 -0.2463
  430SOL    HW111346   1.119   9.074   1.677  0.1459 -0.2522  0.3827
  430SOL    HW211347   0.991   8.977   1.649  0.5635 -0.4138 -0.9910
  431SOL     OW11348   9.455   4.087   0.417 -0.1227  0.1175 -0.1778
  431SOL    HW111349   9.496   4.097   0.508  1.9928 -2.2660 -0.8436
  431SOL    HW211350   9.364   4.047   0.427  0.5350 -1.1671  0.8235
  432SOL     OW11351   9.071   1.988   1.427 -0.6060 -0.4689  0.5418
  432SOL    HW111352   9.170   1.975   1.425 -0.6126 -0.6077  1.0734
  432SOL    HW211353   9.027   1.904   1.456 -0.8674 -0.3310  0.5467
  433SOL     OW11354   1.703   6.185   0.725  0.0055 -0.1872  0.4565
  433SOL    HW111355   1.614   6.177   0.770  0.9855  2.1566  2.9355
  433SOL    HW211356   1.690   6.201   0.627 -2.2770 -0.1614  0.7441
  434SOL     OW11357   3.153   8.676   1.229  0.0882 -0.0458  0.3709
  434SOL    HW111358   3.200   8.588   1.219  0.4658  0.2461 -0.5118
  434SOL    HW211359   3.172   8.733   1.149  0.0114  0.9231  1.0340
  435SOL     OW11360   3.746   0.892   0.248 -0.1184  0.0947  0.3236
  435SOL    HW111361   3.724   0.842   0.164  0.0265 -0.6253  0.7164
  435SOL    HW211362   3.844   0.886   0.266 -0.1940  0.0103  0.7031
  436SOL     OW11363   3.527   3.896   0.275 -0.1599  0.4840  0.2453
  436SOL    HW111364   3.438   3.943   0.281 -0.8323 -0.5441 -1.4359
  436SOL    HW211365   3.530   3.822   0.342 -1.3807 -0.7695 -1.0541
  437SOL     OW11366   8.426   9.691   1.711  0.5438  0.1921  0.2159
  437SOL    HW111367   8.511   9.659   1.668  0.4957  1.2235 -0.6704
  437SOL    HW211368   8.448   9.747   1.790  0.6448 -1.0168  1.0708
  438SOL     OW11369   0.161   1.876   1.857  0.2269 -0.2940  0.2789
  438SOL    HW111370   0.156   1.858   1.758 -0.7027 -0.7761  0.4078
  438SOL    HW211371   0.249   1.918   1.879  1.0171 -1.5217 -0.5376
  439SOL     OW11372   2.277   6.258   1.250  0.8862  0.7452 -0.1291
  439SOL    HW111373   2.180   6.244   1.267  0.4578 -0.1630 -3.1423
  439SOL    HW211374   2.330   6.200   1.313 -0.4703  1.4725  1.7268
  440SOL     OW11375   1.739   5.628   2.600 -0.3628 -0.1221 -0.2791
  440SOL    HW111376   1.776   5.573   2.675 -2.7470 -0.6134  0.5833
  440SOL    HW211377   1.771   5.592   2.512  0.8832 -0.7337  0.4232
  441SOL     OW11378   3.676   8.432   2.422  0.1570  0.0654 -0.4819
  441SOL    HW111379   3.604   8.456   2.487 -0.0047  0.6874 -0.8871
  441SOL    HW211380   3.693   8.333   2.427  1.1846  0.3144  1.5505
  443SOL     OW11381   1.615   9.027   2.311 -0.1700 -0.2479  0.0853
  443SOL    HW111382   1.697   9.081   2.334  0.6601 -1.9153  1.1102
  443SOL    HW211383   1.612   9.012   2.212  0.5887  0.0942  0.0052
  444SOL     OW11384   2.550   1.832   1.858  0.1026 -0.3365 -0.4550
  444SOL    HW111385   2.596   1.776   1.790 -1.3255  0.6630 -2.2983
  444SOL    HW211386   2.539   1.780   1.943  0.6526 -2.0979 -1.4450
  445SOL     OW11387   4.108   1.770   0.172 -0.3474 -0.0731  0.1567
  445SOL    HW111388   4.105   1.730   0.263 -2.3305  0.3782  0.3164
  445SOL    HW211389   4.201   1.765   0.136  0.2638 -1.0659  1.8322
  446SOL     OW11390   8.897   6.350   1.083  0.1669  0.2537 -0.0316
  446SOL    HW111391   8.918   6.448   1.091 -0.9968  0.2906  3.0641
  446SOL    HW211392   8.979   6.296   1.103  0.3640  0.5519 -0.0298
  447SOL     OW11393   9.897   5.337   2.396  0.6804 -0.4127 -0.9086
  447SOL    HW111394   9.866   5.355   2.303  0.3706  0.0615 -0.7135
  447SOL    HW211395   9.825   5.289   2.447 -0.0181  1.3365 -0.2366
  448SOL     OW11396   3.743   7.675   1.387  0.1583  0.5315  0.0489
  448SOL    HW111397   3.827   7.651   1.436 -0.6424  2.4101  2.4397
  448SOL    HW211398   3.665   7.630   1.431 -0.4054  1.1265 -0.3406
  449SOL     OW11399   2.196   7.048   0.283  0.4403 -0.1768  0.0310
  449SOL    HW111400   2.292   7.035   0.307  0.1923 -0.6865  0.7402
  449SOL    HW211401   2.146   7.083   0.362  0.0133 -0.0255 -0.3029
  450SOL     OW11402   9.060   8.313   1.653  0.4792  0.5680 -0.6516
  450SOL    HW111403   9.127   8.386   1.641  0.8676  0.4018  0.4720
  450SOL    HW211404   8.978   8.350   1.695 -0.2771  0.8390 -2.3398
  451SOL     OW11405   2.885   1.221   1.525 -0.3509  0.1054 -0.1281
  451SOL    HW111406   2.834   1.137   1.505  0.8801 -0.9355  0.9908
  451SOL    HW211407   2.910   1.265   1.439 -2.4317  0.2219 -0.7006
  453SOL     OW11408   3.179   5.052   2.325 -0.2395  0.3249 -0.2039
  453SOL    HW111409   3.195   4.953   2.324  0.0654  0.3692  0.4070
  453SOL    HW211410   3.253   5.097   2.374  0.5893  1.0342 -2.0552
  454SOL     OW11411   0.241   7.169   1.147  0.7608  0.0692  0.3400
  454SOL    HW111412   0.243   7.255   1.196 -1.2600 -0.9782  2.3557
  454SOL    HW211413   0.150   7.154   1.109  1.6958 -0.1649 -1.9464
  455SOL     OW11414   8.876   0.598   0.417  0.2424  0.0327 -0.3098
  455SOL    HW111415   8.934   0.565   0.342  0.3929 -0.7432  0.1465
  455SOL    HW211416   8.923   0.587   0.504 -0.2007  0.3061 -0.0323
  456SOL     OW11417   8.265   6.351   1.836  0.0832 -0.0598 -0.8339
  456SOL    HW111418   8.355   6.395   1.834  1.3411 -2.6317 -2.5044
  456SOL    HW211419   8.208   6.388   1.762  0.7222 -0.4082 -1.5025
  457SOL     OW11420   9.272   1.760   0.176 -0.1347 -0.0112  0.4355
  457SOL    HW111421   9.264   1.767   0.077 -0.5278 -0.4688  0.4359
  457SOL    HW211422   9.366   1.784   0.203 -0.3884  1.4325  0.0864
  458SOL     OW11423   2.228   8.159   1.630 -0.4091  0.0736 -0.0126
  458SOL    HW111424   2.244   8.197   1.539  1.0933  1.3953  0.7834
  458SOL    HW211425   2.130   8.144   1.644 -0.6434 -0.1336 -1.8289
  459SOL     OW11426   4.465   8.902   2.343  0.0410  0.1617 -0.2580
  459SOL    HW111427   4.486   8.818   2.393  2.1532 -0.6428 -2.4248
  459SOL    HW211428   4.536   8.970   2.360  0.7517 -0.1009 -2.0912
  460SOL     OW11429   7.804   1.136   2.182 -0.1382  0.0149 -0.0845
  460SOL    HW111430   7.874   1.207   2.172  0.1648 -0.2967 -0.1791
  460SOL    HW211431   7.795   1.112   2.279  0.4757 -0.5397 -0.1658
  461SOL     OW11432   1.288   0.929   0.546 -0.3028  0.1515 -0.4918
  461SOL    HW111433   1.255   0.963   0.458 -2.2904  2.2821  1.0382
  461SOL    HW211434   1.358   0.991   0.581 -2.2624  1.4604  1.2051
  462SOL     OW11435   0.703   7.960   2.517 -0.2466  0.2074 -0.2177
  462SOL    HW111436   0.761   7.893   2.471 -1.4424 -0.8592 -0.1949
  462SOL    HW211437   0.699   8.044   2.462  1.5354  0.3994 -0.0727
  465SOL     OW11438   8.322   2.885   1.140 -0.4346  0.5410 -0.0732
  465SOL    HW111439   8.396   2.818   1.139 -2.1878 -1.4530 -0.5458
  465SOL    HW211440   8.354   2.970   1.099  1.4185 -0.4640 -0.7862
  466SOL     OW11441   9.270   5.677   2.361 -0.9018 -0.1666  0.0904
  466SOL    HW111442   9.352   5.624   2.385 -1.6100 -1.1132  0.4702
  466SOL    HW211443   9.211   5.685   2.442 -0.7527  1.3079  0.0666
  467SOL     OW11444   9.949   6.258   0.462  0.0767 -0.3073  0.7380
  467SOL    HW111445  10.048   6.275   0.468  0.0054  2.0055 -2.9391
  467SOL    HW211446   9.934   6.170   0.417  0.5386  0.5323 -1.1308
  468SOL     OW11447   8.756   5.516   0.891 -0.1795 -0.3213 -0.0687
  468SOL    HW111448   8.763   5.562   0.979  0.8371 -0.6222  0.0093
  468SOL    HW211449   8.710   5.576   0.825  2.8601  1.6077 -0.5236
  469SOL     OW11450   0.425   7.175   2.049 -0.1867  0.1140 -0.2790
  469SOL    HW111451   0.344   7.178   1.991  1.0090  1.1458 -1.9266
  469SOL    HW211452   0.475   7.090   2.032 -0.2242  0.0814 -0.2260
  470SOL     OW11453   0.558   4.869   1.393 -0.0802  0.3998  0.5208
  470SOL    HW111454   0.629   4.805   1.363 -0.8835  0.0398 -0.6124
  470SOL    HW211455   0.520   4.838   1.480 -1.7764 -1.6919 -0.9413
  471SOL     OW11456   4.495   8.517   2.200  0.5104 -0.8399  0.1831
  471SOL    HW111457   4.424   8.546   2.136  0.0065 -0.8421  0.7374
  471SOL    HW211458   4.517   8.421   2.185  2.7047 -0.0196 -2.1562
  472SOL     OW11459   0.308   9.151   1.628  0.2034 -0.0946  0.5063
  472SOL    HW111460   0.349   9.240   1.650 -0.2182  1.0534 -3.0846
  472SOL    HW211461   0.210   9.161   1.614 -0.5557 -1.9048  3.8551
  473SOL     OW11462   8.559   8.094   1.814 -0.9280 -0.1821  0.1218
  473SOL    HW111463   8.628   8.024   1.792  1.5283  1.6273  1.8019
  473SOL    HW211464   8.552   8.159   1.738  0.6177  0.6954  0.7180
  474SOL     OW11465   2.458   2.250   1.416  0.2543  0.4331 -0.0227
  474SOL    HW111466   2.398   2.170   1.423  2.8917 -1.6321 -0.3394
  474SOL    HW211467   2.459   2.282   1.321  0.3168 -0.0263 -0.1767
  475SOL     OW11468   3.346   1.585   1.732 -0.3676  0.0787 -0.4231
  475SOL    HW111469   3.315   1.680   1.739 -0.1551  0.1521 -0.4858
  475SOL    HW211470   3.317   1.547   1.644  0.2806  0.3509 -0.7579
  477SOL     OW11471   7.752   0.273   0.763  0.5895 -0.1235 -0.3131
  477SOL    HW111472   7.780   0.214   0.688  0.1712  1.0798 -1.4347
  477SOL    HW211473   7.831   0.323   0.799  0.7472 -0.5106 -0.1280
  478SOL     OW11474   6.938   9.114   2.482  0.1631  0.0716 -0.3597
  478SOL    HW111475   6.908   9.061   2.403 -1.3804  0.0528  0.2376
  478SOL    HW211476   6.992   9.056   2.543 -0.1370 -0.3720 -0.5181
  480SOL     OW11477   1.494   8.783   1.024  0.0114  0.2674 -0.3191
  480SOL    HW111478   1.403   8.815   1.049  0.3629  1.5922 -0.7077
  480SOL    HW211479   1.563   8.843   1.064  0.6340  0.9955 -2.4029
  481SOL     OW11480   5.244   0.160   2.606  0.3817 -0.1976 -0.6693
  481SOL    HW111481   5.166   0.155   2.669  1.8604  1.5931  1.3560
  481SOL    HW211482   5.240   0.245   2.555  1.1949  0.0838 -0.2796
  482SOL     OW11483   2.804   3.829   1.273 -0.5712  0.6516  0.0232
  482SOL    HW111484   2.865   3.811   1.196 -1.2704 -0.6021 -0.2540
  482SOL    HW211485   2.850   3.806   1.359 -0.4570  0.2191 -0.1518
  483SOL     OW11486   3.828   3.069   1.624  0.2785 -0.2493  0.4353
  483SOL    HW111487   3.854   3.133   1.552  0.4665 -1.0259 -0.1968
  483SOL    HW211488   3.901   3.002   1.637  0.8072  0.6381  2.2477
  484SOL     OW11489   7.436   0.864   0.579  0.3353  0.0898  0.1173
  484SOL    HW111490   7.433   0.784   0.638  1.4182 -0.1584 -0.1684
  484SOL    HW211491   7.526   0.872   0.537  0.4522  1.8251  0.6592
  486SOL     OW11492   2.186   4.560   2.110 -0.8054 -0.4982 -0.0026
  486SOL    HW111493   2.142   4.507   2.037  0.6145  1.4532 -2.3775
  486SOL    HW211494   2.124   4.633   2.140 -0.7906 -0.3281 -0.3844
  487SOL     OW11495   8.941   6.603   1.125 -0.0194 -0.4714  0.1078
  487SOL    HW111496   8.958   6.625   1.221 -0.7942 -0.9720  0.3619
  487SOL    HW211497   8.893   6.680   1.082  0.3818 -0.2215  0.0951
  488SOL     OW11498   4.977   2.685   0.827  0.3534  0.9056  0.0456
  488SOL    HW111499   5.011   2.776   0.851  1.3763 -0.1164  2.6052
  488SOL    HW211500   5.053   2.621   0.824 -0.7545 -0.5116  1.4349
  489SOL     OW11501   4.158   3.692   1.575  0.4765  0.0085 -0.2639
  489SOL    HW111502   4.232   3.722   1.515 -0.0957  1.9816 -0.0198
  489SOL    HW211503   4.092   3.767   1.587 -1.2960 -1.5549 -0.0771
  490SOL     OW11504   4.930   9.836   2.035 -0.6226  0.0963  0.1162
  490SOL    HW111505   4.912   9.927   2.072 -0.6305  0.5399 -0.9792
  490SOL    HW211506   5.009   9.796   2.083 -0.0438  1.0466 -0.0424
  491SOL     OW11507   8.527   5.494   0.186  0.3365 -0.0377 -0.8494
  491SOL    HW111508   8.598   5.542   0.238  0.3060 -1.8805  0.9414
  491SOL    HW211509   8.561   5.405   0.158 -1.2587 -0.9554  0.0443
  492SOL     OW11510   1.700   0.929   2.141 -0.6493 -0.5261 -0.6353
  492SOL    HW111511   1.764   0.875   2.086 -0.6555 -0.5656 -0.6034
  492SOL    HW211512   1.613   0.879   2.149 -0.5548 -0.6431 -0.3583
  493SOL     OW11513   8.440   5.182   2.361 -0.4225 -0.3127 -0.0039
  493SOL    HW111514   8.518   5.189   2.423  1.7591 -0.1940 -2.6831
  493SOL    HW211515   8.386   5.267   2.365  0.4557  0.2098  0.7505
  494SOL     OW11516   4.337   5.251   2.395 -0.0081 -0.1023  0.0418
  494SOL    HW111517   4.264   5.294   2.343  0.4090  0.5893  0.0100
  494SOL    HW211518   4.353   5.303   2.479  0.2100 -0.4483  0.2175
  495SOL     OW11519   0.618   9.068   1.074 -0.0830  0.1075  0.0471
  495SOL    HW111520   0.665   9.120   1.003  0.2306 -1.0917 -0.6381
  495SOL    HW211521   0.525   9.102   1.085  0.2917  1.1586 -0.0191
  497SOL     OW11522   2.517   4.498   1.996  0.0034 -0.1217  0.2068
  497SOL    HW111523   2.445   4.447   2.044  0.1575 -0.4594  0.0797
  497SOL    HW211524   2.605   4.481   2.040 -0.1533  1.1619  1.0395
  499SOL     OW11525   3.305   9.429   2.593 -0.0618 -0.5811  0.3663
  499SOL    HW111526   3.384   9.470   2.637  0.1875 -0.1716 -0.4464
  499SOL    HW211527   3.239   9.500   2.568  0.9030 -0.5084 -2.0974
  500SOL     OW11528   9.406   8.671   2.637  0.2419  0.5975 -0.0987
  500SOL    HW111529   9.404   8.738   2.562  0.3210  0.8505  0.1241
  500SOL    HW211530   9.376   8.715   2.722 -0.2262  0.2123 -0.0591
  501SOL     OW11531   0.250   7.541   1.097  0.1441  0.4743 -0.0650
  501SOL    HW111532   0.258   7.639   1.116  1.7901  0.7318 -1.8826
  501SOL    HW211533   0.305   7.490   1.162 -0.6861  0.7467  0.8638
  502SOL     OW11534   9.931   4.055   0.354 -0.3526 -0.2801 -0.1707
  502SOL    HW111535   9.848   4.000   0.346  0.0831 -1.0687  0.6693
  502SOL    HW211536   9.907   4.145   0.391 -0.7614 -0.6837  0.5510
  503SOL     OW11537   9.685   2.190   2.558 -0.0854 -0.2512  0.2600
  503SOL    HW111538   9.665   2.220   2.652 -1.2042 -1.0444  0.2896
  503SOL    HW211539   9.638   2.250   2.493 -0.0341 -0.2390  0.2347
  504SOL     OW11540   2.725   5.413   0.275 -0.2635 -0.3778 -0.2438
  504SOL    HW111541   2.744   5.496   0.327 -0.7876  0.1197 -0.8353
  504SOL    HW211542   2.664   5.353   0.328 -1.0304  0.2571 -0.4049
  505SOL     OW11543   7.679   8.535   2.287  0.5387 -0.2510 -0.4514
  505SOL    HW111544   7.706   8.629   2.309 -0.0992 -0.5551  1.8230
  505SOL    HW211545   7.625   8.535   2.203 -0.7600  1.6588  0.3314
  506SOL     OW11546   9.055   6.009   2.614  0.0480 -0.3004  0.5945
  506SOL    HW111547   9.000   6.082   2.655 -0.7140 -0.8340  0.5297
  506SOL    HW211548   9.135   6.049   2.568 -1.3234  0.6540 -1.0184
  507SOL     OW11549   2.808   3.577   1.659 -0.0179 -0.4699 -0.5412
  507SOL    HW111550   2.728   3.632   1.683  0.4758 -0.1521  0.4012
  507SOL    HW211551   2.790   3.528   1.574 -0.5113  1.0541 -1.3458
  508SOL     OW11552   8.548   9.829   1.187  0.8067 -0.3399  0.7435
  508SOL    HW111553   8.548   9.929   1.187  0.1071 -0.3172 -1.5109
  508SOL    HW211554   8.590   9.795   1.103  0.6453 -1.9422  1.2917
  509SOL     OW11555   9.648   4.846   2.305  0.1855  0.5697  0.5147
  509SOL    HW111556   9.607   4.782   2.241 -1.6104 -1.2655  3.3436
  509SOL    HW211557   9.726   4.803   2.351 -0.7793  0.4996  2.1431
  510SOL     OW11558   4.039   8.742   1.938 -0.3819 -0.1524 -0.0964
  510SOL    HW111559   4.008   8.832   1.965  1.2214  0.5301 -0.4470
  510SOL    HW211560   4.000   8.673   1.999 -1.6947  0.7641  0.1014
  511SOL     OW11561   1.810   3.602   2.400 -0.9893  0.1441 -0.1721
  511SOL    HW111562   1.894   3.612   2.347 -0.7391  0.9381  0.3611
  511SOL    HW211563   1.745   3.546   2.350 -0.1771 -0.3810 -0.6329
  512SOL     OW11564   9.301   8.164   1.125  0.1241  0.1510  0.4045
  512SOL    HW111565   9.218   8.202   1.084  0.6953  1.1796  0.1787
  512SOL    HW211566   9.288   8.157   1.224 -0.1547  0.5216  0.3981
  514SOL     OW11567   3.596   4.878   2.690  0.1611 -0.3638 -0.7067
  514SOL    HW111568   3.681   4.896   2.739 -1.4548  3.2933  0.8918
  514SOL    HW211569   3.530   4.835   2.752 -0.1910 -0.4164 -1.1129
  515SOL     OW11570   0.726   9.033   2.069 -0.7457 -0.0206 -0.0896
  515SOL    HW111571   0.811   9.085   2.061 -1.2054  0.7197 -0.1907
  515SOL    HW211572   0.733   8.970   2.147 -0.9921  1.7310  1.3821
  516SOL     OW11573   2.381   0.968   1.218  0.1886 -0.5818  0.5715
  516SOL    HW111574   2.350   0.940   1.127  0.6137 -0.0212  0.2524
  516SOL    HW211575   2.339   0.909   1.287  0.5651 -1.5877 -0.0483
  520SOL     OW11576   8.960   6.488   0.688  0.6123  0.4341 -0.5522
  520SOL    HW111577   8.939   6.514   0.594  0.8274 -0.3550 -0.8273
  520SOL    HW211578   9.000   6.396   0.689  1.3065  0.7362  0.2440
  521SOL     OW11579   0.891   5.538   1.421 -0.5497 -0.0154  0.0043
  521SOL    HW111580   0.911   5.508   1.514  0.7241  2.9457  0.7541
  521SOL    HW211581   0.867   5.459   1.365 -0.0277 -2.0202  2.4973
  522SOL     OW11582   1.205   2.506   1.757  0.0887  0.0092 -0.2833
  522SOL    HW111583   1.150   2.510   1.673  1.8763 -1.7422 -1.5762
  522SOL    HW211584   1.145   2.515   1.836 -1.7653  0.5838 -1.7137
  523SOL     OW11585   1.156   4.623   1.238 -0.5571  0.2113 -0.0732
  523SOL    HW111586   1.089   4.696   1.221 -0.3384  0.1820 -1.1055
  523SOL    HW211587   1.177   4.618   1.336 -1.2254  0.9622  0.1063
  524SOL     OW11588   0.017   0.311   0.474 -0.0715 -0.0747 -0.5559
  524SOL    HW111589  -0.011   0.236   0.534  2.4531 -0.5389  0.1337
  524SOL    HW211590  -0.006   0.398   0.516  1.5054 -0.4032  1.0503
  526SOL     OW11591   3.751   9.302   2.287 -0.0301 -0.5773 -0.2792
  526SOL    HW111592   3.671   9.358   2.268  0.4765 -0.3924 -1.9165
  526SOL    HW211593   3.734   9.246   2.368 -1.3029  0.4374  0.1637
  527SOL     OW11594   2.293   4.588   0.307 -0.2104  0.4951 -0.1470
  527SOL    HW111595   2.292   4.570   0.209 -1.6197  3.2400 -0.6761
  527SOL    HW211596   2.387   4.603   0.337  0.0960  0.9512 -1.3301
  528SOL     OW11597   8.433   5.751   1.405  0.3657  0.1327  0.3464
  528SOL    HW111598   8.484   5.834   1.381  0.7676 -0.8717 -2.4530
  528SOL    HW211599   8.342   5.754   1.364  0.3467 -0.7826  0.3080
  531SOL     OW11600   1.713   1.558   1.132  0.1680 -0.5340  0.0374
  531SOL    HW111601   1.812   1.544   1.137  0.1240 -1.1119 -0.5766
  531SOL    HW211602   1.684   1.619   1.205  0.7974 -1.3383  0.9714
  532SOL     OW11603   2.642   2.679   2.561  0.3262 -0.3640 -0.0987
  532SOL    HW111604   2.712   2.646   2.625  0.3995 -1.3970 -0.6921
  532SOL    HW211605   2.686   2.712   2.477  0.1030 -1.2169 -0.5591
  533SOL     OW11606   8.485   2.506   0.463  0.3702  0.0391 -0.0031
  533SOL    HW111607   8.495   2.587   0.406  0.7767  0.2140  0.3169
  533SOL    HW211608   8.565   2.447   0.451  0.3453 -0.0379  0.2007
  535SOL     OW11609   8.678   9.613   1.608  0.2023  0.3236 -0.4088
  535SOL    HW111610   8.690   9.513   1.610 -0.0616  0.2734 -1.0929
  535SOL    HW211611   8.750   9.656   1.664  0.2437 -0.2532 -0.0090
  536SOL     OW11612   8.750   3.484   1.470  0.2726 -0.7220  0.3487
  536SOL    HW111613   8.818   3.530   1.414 -0.9203 -0.3600 -0.8143
  536SOL    HW211614   8.728   3.395   1.430 -0.6887 -0.3997  0.1238
  537SOL     OW11615   9.583   0.383   1.681 -0.3726 -0.1550  0.0397
  537SOL    HW111616   9.648   0.437   1.627  0.0242  0.2964  0.9576
  537SOL    HW211617   9.520   0.444   1.729  1.4928 -0.3328  2.8978
  538SOL     OW11618   8.767   6.138   1.721 -0.4146  0.7320 -0.4714
  538SOL    HW111619   8.704   6.083   1.777  1.0068  0.3642  0.7901
  538SOL    HW211620   8.716   6.214   1.679 -1.7919  0.1776  0.1623
  539SOL     OW11621   9.405   3.535   1.329 -0.1986  0.0804 -0.0851
  539SOL    HW111622   9.379   3.601   1.259  0.6353 -0.0327 -0.5073
  539SOL    HW211623   9.480   3.572   1.384 -0.5184 -0.0313  0.4325
  540SOL     OW11624   8.538   8.330   1.973 -0.2380 -0.1348 -0.0434
  540SOL    HW111625   8.501   8.316   2.065 -2.6656  1.8808 -0.6513
  540SOL    HW211626   8.530   8.245   1.920  2.0557 -1.5975  1.8463
  541SOL     OW11627   1.157   6.871   2.187  0.1517 -0.1806  0.1384
  541SOL    HW111628   1.252   6.838   2.181 -0.5010 -2.0563 -0.3843
  541SOL    HW211629   1.119   6.847   2.276 -0.2262 -0.5952 -0.1279
  542SOL     OW11630   1.503   0.028   0.551  0.1631  0.3557  0.0952
  542SOL    HW111631   1.563  -0.014   0.483 -0.7258 -0.1405 -0.3895
  542SOL    HW211632   1.556   0.089   0.610  1.3895 -1.1493  0.5634
  543SOL     OW11633   2.318   8.723   1.073 -0.6935 -0.9415  0.0113
  543SOL    HW111634   2.306   8.716   1.172 -0.7591 -0.4210  0.0431
  543SOL    HW211635   2.308   8.633   1.032 -1.6552 -1.0083  0.3755
  544SOL     OW11636   9.731   8.413   1.224 -0.5533  0.3565  0.4492
  544SOL    HW111637   9.709   8.506   1.195  1.6472  1.3579  1.9276
  544SOL    HW211638   9.805   8.377   1.167 -1.8028 -0.7402 -0.5178
  545SOL     OW11639   1.221   2.224   1.914  0.5143  0.0678 -0.6702
  545SOL    HW111640   1.201   2.319   1.888 -0.5495  1.2876  4.1857
  545SOL    HW211641   1.307   2.221   1.965 -0.0104 -1.4013  0.1656
  547SOL     OW11642   2.938   8.605   0.099  0.0847 -0.1168  0.6066
  547SOL    HW111643   2.950   8.515   0.141  0.2540 -0.5619 -0.3939
  547SOL    HW211644   2.904   8.669   0.168 -0.0143 -0.9383  1.3303
  548SOL     OW11645   8.053   8.641   1.270 -0.0032 -0.3695  0.1796
  548SOL    HW111646   8.030   8.726   1.222  1.3671  0.0937  0.3379
  548SOL    HW211647   8.046   8.656   1.369  0.7043 -0.3160  0.2187
  549SOL     OW11648   2.777   2.796   1.387  0.4490 -1.0414 -0.0571
  549SOL    HW111649   2.817   2.831   1.472  2.1795 -1.3599 -0.7311
  549SOL    HW211650   2.689   2.752   1.408  0.9616 -1.3215  1.5896
  550SOL     OW11651   2.458   0.077   1.390 -0.1081 -0.1027  0.9866
  550SOL    HW111652   2.390   0.005   1.372 -1.6541  1.5626  0.0586
  550SOL    HW211653   2.432   0.128   1.472  0.9910 -0.5773  1.6426
  552SOL     OW11654   0.894   9.210   0.111  1.0275  0.0467  0.1562
  552SOL    HW111655   0.982   9.247   0.141  0.4118  1.2484  0.5050
  552SOL    HW211656   0.828   9.215   0.186  0.7829 -1.3001  0.0518
  554SOL     OW11657   1.226   5.068   2.024 -0.5548 -0.2082 -0.0123
  554SOL    HW111658   1.277   5.138   2.074 -0.9200 -0.2896  0.4805
  554SOL    HW211659   1.222   4.984   2.080  1.0449 -1.0693 -1.1530
  555SOL     OW11660   2.185   1.156   2.041  0.3235  0.1114 -0.2212
  555SOL    HW111661   2.239   1.097   2.101 -0.0591 -0.6606 -0.6332
  555SOL    HW211662   2.126   1.100   1.983 -0.7403  0.9316  0.0522
  557SOL     OW11663   0.099   8.382   1.348  0.5578 -0.0172  0.0318
  557SOL    HW111664   0.197   8.368   1.364  0.5378 -0.8187 -0.5316
  557SOL    HW211665   0.079   8.367   1.252 -0.3782 -1.3727  0.4248
  558SOL     OW11666   4.320   8.240   0.508 -0.0972  0.0482  0.1902
  558SOL    HW111667   4.337   8.326   0.557  0.7990  0.1697 -0.3292
  558SOL    HW211668   4.226   8.210   0.527 -0.6030  1.4138 -0.0432
  559SOL     OW11669   3.277   2.233   1.767 -0.1222 -0.4395 -0.5601
  559SOL    HW111670   3.195   2.289   1.781 -0.2205 -0.6120 -0.4531
  559SOL    HW211671   3.275   2.193   1.675 -1.0028 -1.8492  0.0594
  560SOL     OW11672   3.674   4.874   0.433  0.0110  0.6795 -0.3919
  560SOL    HW111673   3.664   4.973   0.438 -1.7062  0.5080 -0.0770
  560SOL    HW211674   3.588   4.833   0.401  0.4977 -0.7556  0.0832
  561SOL     OW11675   8.668   3.236   1.038  0.1469  0.4135  0.7818
  561SOL    HW111676   8.622   3.300   0.976 -1.1724 -1.4377 -0.1912
  561SOL    HW211677   8.767   3.239   1.021 -0.1977 -0.0959 -1.4947
  563SOL     OW11678   1.039   9.716   2.638  0.4787 -0.1192  0.2712
  563SOL    HW111679   1.067   9.637   2.693  1.0645  0.2522  0.5080
  563SOL    HW211680   0.940   9.712   2.623  0.4643 -0.7587  0.5030
  564SOL     OW11681   0.367   4.044   2.177 -0.2672 -0.0786 -0.3215
  564SOL    HW111682   0.415   3.996   2.250 -1.1071 -0.7753 -0.2150
  564SOL    HW211683   0.405   4.015   2.088 -0.5092 -0.6438 -0.2414
  565SOL     OW11684   0.178   4.042   1.886 -0.2963 -0.0117 -0.2028
  565SOL    HW111685   0.083   4.065   1.907 -0.5350 -1.3077  0.1694
  565SOL    HW211686   0.203   3.958   1.934  0.8011 -0.1023 -0.9270
  566SOL     OW11687   4.269   9.953   1.586 -0.5853  0.5873  0.2909
  566SOL    HW111688   4.219   9.942   1.500 -1.0428 -1.3211  0.8000
  566SOL    HW211689   4.348  10.013   1.570  0.5839 -1.4651 -1.9876
  567SOL     OW11690   8.802   1.553   0.696 -0.7415 -0.5970 -0.0712
  567SOL    HW111691   8.754   1.607   0.765 -2.1763 -1.1193 -0.6236
  567SOL    HW211692   8.893   1.529   0.728 -0.8186  0.5049  0.9752
  568SOL     OW11693   2.600   5.155   0.027  0.2471 -0.4387  0.4790
  568SOL    HW111694   2.553   5.145  -0.060  1.3324 -2.1813  0.0489
  568SOL    HW211695   2.533   5.150   0.102 -0.3255 -2.8195 -0.1198
  570SOL     OW11696   3.455   5.056   1.809 -0.5617 -0.3200 -0.4770
  570SOL    HW111697   3.362   5.086   1.788 -0.7699 -0.2820  0.4697
  570SOL    HW211698   3.469   4.963   1.775 -0.9963 -0.3765 -0.5028
  571SOL     OW11699   0.583   4.430   0.416 -0.0157 -0.7135  0.3143
  571SOL    HW111700   0.539   4.340   0.413 -1.4853  0.0376 -1.7897
  571SOL    HW211701   0.677   4.423   0.382 -0.0273 -1.4920  0.4305
  573SOL     OW11702   9.010   5.124   0.929  0.1979  0.2653 -0.1502
  573SOL    HW111703   9.016   5.052   0.859  0.2072  1.0360 -0.9554
  573SOL    HW211704   8.953   5.093   1.005  3.7597 -2.3196  1.6157
  574SOL     OW11705   8.448   7.779   0.324  0.0725 -0.5073 -0.0323
  574SOL    HW111706   8.474   7.823   0.238 -2.2863 -0.5502 -0.8162
  574SOL    HW211707   8.356   7.808   0.350  0.6560 -0.6992  2.3601
  576SOL     OW11708   5.948   8.907   2.056 -0.2218  0.0905  0.2705
  576SOL    HW111709   5.999   8.887   2.140  0.3570  1.1892  0.1909
  576SOL    HW211710   5.993   8.982   2.007 -1.5371  0.6217 -0.1412
  577SOL     OW11711   7.813   9.680   1.079 -0.0238  0.0147  0.3161
  577SOL    HW111712   7.730   9.643   1.122 -0.3064 -0.8329 -0.9587
  577SOL    HW211713   7.893   9.648   1.129 -0.4371  0.6172  1.3936
  578SOL     OW11714   0.325   1.390   0.245  0.1594 -0.2153 -0.2115
  578SOL    HW111715   0.382   1.374   0.325 -0.5485 -0.6371  0.2142
  578SOL    HW211716   0.302   1.487   0.239  1.2994  0.0279 -0.6429
  579SOL     OW11717   0.381   6.283   2.592 -1.1861  0.1309  0.1028
  579SOL    HW111718   0.382   6.336   2.507  2.4181 -1.4647 -0.9607
  579SOL    HW211719   0.311   6.213   2.586 -2.6270  1.5957 -0.5225
  580SOL     OW11720   2.917   4.871   0.660 -0.0324 -0.5493 -0.3445
  580SOL    HW111721   2.944   4.776   0.645 -1.5337 -0.9623 -0.5485
  580SOL    HW211722   2.859   4.902   0.584 -0.8597  0.0070  0.4894
  583SOL     OW11723   4.272   1.270   1.460 -0.2372  0.0702 -0.0151
  583SOL    HW111724   4.236   1.188   1.416 -0.9066 -0.0673  0.7886
  583SOL    HW211725   4.197   1.333   1.481  0.0114 -0.0714  1.3528
  584SOL     OW11726   1.031   1.205   0.522  0.4402 -0.4255 -0.3245
  584SOL    HW111727   1.058   1.192   0.618 -2.3947 -0.2371  0.5390
  584SOL    HW211728   1.023   1.117   0.477 -0.9393 -0.6863  0.4092
  585SOL     OW11729   0.075   2.427   2.122  0.4480  0.2547  0.5168
  585SOL    HW111730  -0.001   2.364   2.133  0.5129 -0.3495 -2.3742
  585SOL    HW211731   0.051   2.515   2.164 -1.3955 -0.2671  0.6049
  586SOL     OW11732   3.068   9.949   1.732 -0.0325  0.7957  0.4168
  586SOL    HW111733   2.977   9.987   1.714 -0.2996 -0.0257  0.0330
  586SOL    HW211734   3.134   9.991   1.670 -0.2816  0.8221  0.1679
  587SOL     OW11735   3.743   5.246   0.721  0.0438  0.3875  1.1603
  587SOL    HW111736   3.842   5.261   0.722  0.1139 -0.0818  1.0971
  587SOL    HW211737   3.717   5.190   0.800  0.0511 -0.9276  0.2408
  588SOL     OW11738   0.021   1.401   2.283  0.7693  0.2647 -0.2018
  588SOL    HW111739   0.073   1.320   2.311 -1.0935 -0.5596  0.9310
  588SOL    HW211740   0.018   1.466   2.359 -2.5935 -1.1065  0.8955
  589SOL     OW11741   0.711   6.395   1.121 -0.3286 -0.1618 -0.2412
  589SOL    HW111742   0.612   6.404   1.113 -0.5376 -2.1308  0.0216
  589SOL    HW211743   0.736   6.373   1.215  0.2257 -1.3461 -0.6599
  590SOL     OW11744   1.150   0.656   2.152  0.7566 -1.0812  0.0571
  590SOL    HW111745   1.222   0.624   2.090 -1.5576  0.2446 -3.4646
  590SOL    HW211746   1.156   0.755   2.161  1.0569 -1.2603  2.0084
  591SOL     OW11747   9.381   1.612   1.903 -0.0718  0.3867 -0.3524
  591SOL    HW111748   9.459   1.570   1.949 -1.4333 -0.4766  1.1961
  591SOL    HW211749   9.371   1.707   1.933 -0.4613  0.0712  0.5261
  592SOL     OW11750   3.535   3.789   0.760  0.3965 -0.1539 -0.4919
  592SOL    HW111751   3.570   3.810   0.852  0.6237  0.3879 -0.7019
  592SOL    HW211752   3.539   3.690   0.745  0.4360 -0.2369  0.0536
  593SOL     OW11753   2.939   7.866   0.408  0.6783 -0.3614  0.1267
  593SOL    HW111754   2.959   7.877   0.506  0.7908 -0.5328  0.1236
  593SOL    HW211755   2.879   7.787   0.395  1.7304 -1.1430 -0.0612
  594SOL     OW11756   8.835   1.738   2.362  0.2828 -0.2520 -0.0032
  594SOL    HW111757   8.747   1.692   2.359  1.1031 -1.7936 -1.3036
  594SOL    HW211758   8.868   1.742   2.457 -0.2729 -1.4291  0.2440
  595SOL     OW11759   3.033   8.842   1.803 -0.1501 -0.2290 -0.1734
  595SOL    HW111760   3.077   8.931   1.794 -2.0789  0.6354 -1.4743
  595SOL    HW211761   3.033   8.815   1.899  0.3274  1.2399  0.2629
  596SOL     OW11762   0.722   5.811   2.602 -0.1219 -0.3318 -0.6196
  596SOL    HW111763   0.627   5.803   2.632 -0.1142  1.1996 -0.1698
  596SOL    HW211764   0.769   5.879   2.658  0.9971 -0.4405 -1.4209
  598SOL     OW11765   0.403   0.085   0.478 -0.2933 -0.0081 -0.2487
  598SOL    HW111766   0.441   0.131   0.399  0.2971 -2.1283 -1.2442
  598SOL    HW211767   0.466   0.013   0.508 -0.6156  0.6129  2.0022
  600SOL     OW11768   4.532   2.550   0.999  0.5755  0.0426  0.6155
  600SOL    HW111769   4.565   2.466   1.043 -1.9149 -1.9386 -1.1776
  600SOL    HW211770   4.434   2.558   1.011  0.0484  0.2019 -3.2599
  601SOL     OW11771   4.281   2.884   1.411  0.4838 -0.0876 -0.0198
  601SOL    HW111772   4.247   2.920   1.324  0.7740 -0.0244 -0.1090
  601SOL    HW211773   4.205   2.846   1.464 -0.1284  2.2391  0.8304
  604SOL     OW11774   1.526   9.627   0.139 -0.0959  0.3243  1.0090
  604SOL    HW111775   1.616   9.669   0.128 -0.2681  0.9207  1.8055
  604SOL    HW211776   1.456   9.686   0.099 -0.1842  0.0896  0.8179
  607SOL     OW11777   8.765   4.379   2.148 -0.2289  0.3109  0.4615
  607SOL    HW111778   8.809   4.359   2.236  0.8011 -0.0855 -0.1263
  607SOL    HW211779   8.835   4.381   2.077 -1.2547 -1.0130 -0.6057
  608SOL     OW11780   2.323   8.281   0.866  0.2772 -0.3909  0.1833
  608SOL    HW111781   2.261   8.203   0.857  0.5028 -0.4350 -1.2094
  608SOL    HW211782   2.324   8.332   0.780  2.1676 -0.3983  0.1788
  609SOL     OW11783   1.063   7.384   2.608  0.1441 -0.5672  0.2626
  609SOL    HW111784   1.032   7.425   2.694 -4.0131 -1.2927 -0.7688
  609SOL    HW211785   1.092   7.456   2.546  0.9074  0.1359  1.4065
  610SOL     OW11786   8.202   1.525   0.275  0.2463 -0.1722  0.2189
  610SOL    HW111787   8.115   1.510   0.323  0.8666 -0.3925  1.3009
  610SOL    HW211788   8.208   1.620   0.246  0.8987  0.6061  2.7566
  611SOL     OW11789   7.749   0.170   1.298  0.3023 -0.3794 -0.2502
  611SOL    HW111790   7.800   0.256   1.301 -2.4824  1.3181  0.0101
  611SOL    HW211791   7.700   0.163   1.211 -1.7346 -0.3541  0.8843
  612SOL     OW11792   1.297   0.587   0.093  0.0675  0.6341  0.1560
  612SOL    HW111793   1.198   0.574   0.094  0.1698 -0.1151  1.5673
  612SOL    HW211794   1.327   0.621   0.183  1.3490 -1.1869  0.4554
  613SOL     OW11795   8.885   5.968   1.044  0.0266  0.2316 -0.1355
  613SOL    HW111796   8.914   5.998   0.953 -0.1194 -0.2662 -0.3494
  613SOL    HW211797   8.786   5.959   1.046  0.1775 -1.6699 -0.5257
  615SOL     OW11798   0.922   8.042   1.733  0.2263 -0.1384  0.2595
  615SOL    HW111799   0.864   7.960   1.729 -0.3505  0.2902 -0.0957
  615SOL    HW211800   1.018   8.015   1.718  0.2302 -0.9510  1.6141
  616SOL     OW11801   0.993   2.080   0.464 -0.2112 -0.2781 -0.5862
  616SOL    HW111802   0.919   2.012   0.469 -1.4636  1.1843  1.5966
  616SOL    HW211803   1.033   2.092   0.554  2.0370 -0.2847 -1.5630
  617SOL     OW11804   9.614   6.674   1.022  0.1130  0.7833 -0.0002
  617SOL    HW111805   9.707   6.645   1.048  0.0554  0.4636 -0.1446
  617SOL    HW211806   9.612   6.692   0.924 -0.6257 -1.8364 -0.5146
  618SOL     OW11807   1.360   8.906   2.057  0.1069 -0.4163 -0.6546
  618SOL    HW111808   1.388   9.000   2.042 -2.5186  0.6442  0.7891
  618SOL    HW211809   1.285   8.903   2.123 -0.6790 -3.3985 -1.5768
  619SOL     OW11810   8.642   7.107   1.448 -0.3420  0.3816  0.2134
  619SOL    HW111811   8.615   7.036   1.513  0.5557 -0.0303  0.1426
  619SOL    HW211812   8.636   7.072   1.355  2.8298 -0.5831  0.2936
  620SOL     OW11813   7.472  -0.005   2.541  1.1742  1.1568  0.1710
  620SOL    HW111814   7.454   0.042   2.627  1.0942  1.0667  0.2047
  620SOL    HW211815   7.460   0.059   2.465 -1.6707  0.5237  0.0298
  621SOL     OW11816   2.821   8.584   1.388  0.0968 -0.3898  0.6390
  621SOL    HW111817   2.770   8.600   1.304 -0.7741  0.0833  1.2576
  621SOL    HW211818   2.760   8.589   1.466  0.9667 -0.4779  1.3371
  622SOL     OW11819   8.697   1.847   0.639  0.0809  0.0372 -0.2500
  622SOL    HW111820   8.647   1.793   0.571 -0.4886  0.6680 -0.3305
  622SOL    HW211821   8.789   1.809   0.650 -0.1300 -0.6223 -0.7064
  624SOL     OW11822   1.972   2.703   0.304  0.2298  0.2703 -0.4173
  624SOL    HW111823   2.052   2.678   0.358 -0.5172 -1.0151  0.1312
  624SOL    HW211824   1.924   2.620   0.276  0.2283  0.9498 -2.4883
  629SOL     OW11825   2.657   3.384   0.483  0.0527  0.7134 -0.1734
  629SOL    HW111826   2.731   3.358   0.421 -0.1354 -0.2813  0.0057
  629SOL    HW211827   2.599   3.304   0.501  0.4722  0.8421  1.7914
  630SOL     OW11828   1.601   2.990   0.567  0.1318 -0.1745 -0.5991
  630SOL    HW111829   1.530   2.941   0.516 -0.0168 -0.3438 -0.2351
  630SOL    HW211830   1.690   2.951   0.547  0.2417  0.7184 -1.8696
  631SOL     OW11831   9.255   5.898   1.509 -0.5139  0.2136  0.0561
  631SOL    HW111832   9.354   5.912   1.498 -0.6264  1.0409  0.0963
  631SOL    HW211833   9.227   5.819   1.454  0.2387 -0.2793  0.3704
  632SOL     OW11834   1.307   9.170   0.841 -0.0238 -0.2048  0.1673
  632SOL    HW111835   1.378   9.102   0.857  0.0755  0.0948  1.0705
  632SOL    HW211836   1.239   9.134   0.777  0.8144 -0.5824 -0.5175
  633SOL     OW11837   2.459   0.006   2.075  0.1240 -0.1712 -0.3065
  633SOL    HW111838   2.523  -0.067   2.049 -0.0019 -0.7732  1.0435
  633SOL    HW211839   2.463   0.021   2.173 -2.2455 -0.6288 -0.1023
  634SOL     OW11840   3.218   3.397   1.610  0.0093 -0.5045 -0.1207
  634SOL    HW111841   3.306   3.445   1.604 -0.6121  0.6701  0.0194
  634SOL    HW211842   3.145   3.463   1.629 -0.8925 -1.4861 -0.1207
  635SOL     OW11843   3.826   9.317   1.346  0.4562 -0.0291 -0.1743
  635SOL    HW111844   3.777   9.242   1.392  2.3933 -0.8251  0.6703
  635SOL    HW211845   3.768   9.397   1.342 -1.4038 -1.3579 -0.4130
  636SOL     OW11846   2.092   0.427   0.029 -0.6160 -0.2581  0.3257
  636SOL    HW111847   2.110   0.479   0.112 -0.2571  0.5863 -0.2743
  636SOL    HW211848   2.161   0.355   0.020 -0.6150 -0.3081  0.7205
  637SOL     OW11849   2.256   3.167   0.857  0.1252  0.0001  0.9031
  637SOL    HW111850   2.202   3.250   0.869 -0.5155  0.1235 -2.3191
  637SOL    HW211851   2.194   3.090   0.841  0.7965 -0.4886  0.6292
  638SOL     OW11852   4.023   2.183   0.248  0.2350 -0.0356  0.1150
  638SOL    HW111853   3.954   2.251   0.225  0.2481  0.4037  1.3731
  638SOL    HW211854   4.072   2.156   0.164  2.6033  4.0362  0.0377
  639SOL     OW11855   3.716   6.989   0.369  0.0457 -0.6157  0.2261
  639SOL    HW111856   3.787   7.056   0.345  0.1929 -0.7974  0.1472
  639SOL    HW211857   3.672   6.956   0.286 -0.0322 -0.6098  0.2654
  641SOL     OW11858   9.534   3.486   1.606  0.2709 -0.6284  0.1677
  641SOL    HW111859   9.464   3.421   1.634 -0.6138  0.7933  1.3540
  641SOL    HW211860   9.622   3.439   1.594 -0.6141 -2.2187 -0.1834
  642SOL     OW11861   1.414   3.065   0.092  0.2033  0.1815  0.7564
  642SOL    HW111862   1.509   3.089   0.070  0.2474 -0.9182 -0.2565
  642SOL    HW211863   1.376   3.134   0.154  1.6058  0.7211  1.0270
  646SOL     OW11864   2.829   1.273   0.812  0.4424 -0.4709 -0.0900
  646SOL    HW111865   2.847   1.215   0.892 -1.6904 -2.4531 -0.9845
  646SOL    HW211866   2.735   1.306   0.815  0.2739 -0.7323 -1.8704
  648SOL     OW11867   2.060   9.908   1.155 -0.4491  0.2085 -0.1586
  648SOL    HW111868   2.123   9.838   1.120 -0.5559 -0.2553  0.5789
  648SOL    HW211869   1.976   9.864   1.186 -0.1163  0.5524  1.2589
  649SOL     OW11870   7.040   9.341   2.350  0.8533  0.3390 -0.0626
  649SOL    HW111871   7.078   9.404   2.417  0.1370  0.2084  0.4708
  649SOL    HW211872   6.977   9.278   2.395  2.1709 -1.3029 -0.4252
  651SOL     OW11873   6.857   9.284   1.943  0.2713 -0.0142 -0.2283
  651SOL    HW111874   6.949   9.318   1.960 -0.0065 -0.4012  2.3236
  651SOL    HW211875   6.848   9.191   1.980 -1.0324 -0.1457 -0.8162
  653SOL     OW11876   4.251   3.246   0.706 -0.2360 -0.0257 -0.4163
  653SOL    HW111877   4.338   3.214   0.744 -0.0257  0.9950 -0.0110
  653SOL    HW211878   4.175   3.195   0.746  0.0835  0.0731  0.3237
  654SOL     OW11879   8.501   4.766   2.261 -0.2424 -0.6242 -0.0237
  654SOL    HW111880   8.570   4.733   2.197  0.8388 -1.2130  1.4208
  654SOL    HW211881   8.430   4.696   2.272  0.6921 -1.4250  1.0473
  655SOL     OW11882   9.891   4.566   0.272  1.1100  0.0245 -0.1329
  655SOL    HW111883   9.957   4.500   0.307  1.2842  0.0602 -0.3897
  655SOL    HW211884   9.939   4.635   0.217  0.9095  0.2632 -0.0104
  656SOL     OW11885   9.056   0.053   0.274  0.1457  0.0742 -0.0941
  656SOL    HW111886   9.077   0.092   0.364  1.0411 -1.6665  0.4727
  656SOL    HW211887   9.109  -0.031   0.261 -2.6019 -1.6023 -0.8044
  657SOL     OW11888   1.546   2.579   2.385 -0.2004  0.2637  0.0329
  657SOL    HW111889   1.556   2.526   2.301 -0.8899  0.3216 -0.0885
  657SOL    HW211890   1.632   2.625   2.406  0.4542 -1.0416  0.2298
  659SOL     OW11891   1.246   0.174   1.464 -0.1686 -0.4322  0.8014
  659SOL    HW111892   1.319   0.113   1.494 -0.8364 -1.3449  0.6213
  659SOL    HW211893   1.189   0.126   1.396 -0.6236  0.4406  0.5623
  660SOL     OW11894   2.836   7.394   0.665  0.4446  0.5309  0.2445
  660SOL    HW111895   2.875   7.474   0.711  0.2296  1.2784 -0.8629
  660SOL    HW211896   2.739   7.385   0.690  0.6182  0.2518  0.8436
  661SOL     OW11897   4.645   9.095   0.901  0.1790  0.0958  0.4229
  661SOL    HW111898   4.619   9.185   0.936 -1.2535 -0.2479  0.2759
  661SOL    HW211899   4.666   9.102   0.803 -0.4621  0.1734  0.2887
  662SOL     OW11900   2.524   1.948   2.656 -0.2169 -0.4776 -0.2700
  662SOL    HW111901   2.445   1.887   2.661 -0.6883  0.1262 -0.4350
  662SOL    HW211902   2.608   1.893   2.662 -0.6303 -1.2120 -1.1568
  663SOL     OW11903   8.893   4.553   2.608  0.4931 -0.5116 -0.1103
  663SOL    HW111904   8.937   4.480   2.556 -0.9966 -1.0517 -0.6321
  663SOL    HW211905   8.842   4.513   2.685  0.7284  0.0841  0.3557
  664SOL     OW11906   0.915   4.833   0.223 -0.5529  0.0462 -0.4902
  664SOL    HW111907   0.912   4.762   0.153 -1.6709 -1.4401  1.0219
  664SOL    HW211908   0.913   4.923   0.179 -0.0695 -0.8447 -2.3926
  665SOL     OW11909   8.917   8.816   2.381  0.5273  0.0344 -0.4326
  665SOL    HW111910   8.944   8.729   2.338  0.9661  0.1869 -0.4613
  665SOL    HW211911   8.819   8.831   2.366  0.4143 -0.5280 -0.3044
  666SOL     OW11912   2.454   6.479   1.166  0.1084 -0.4422  0.6109
  666SOL    HW111913   2.403   6.393   1.164 -3.7152  1.7238 -0.8023
  666SOL    HW211914   2.532   6.473   1.103 -0.9365 -2.4062 -0.5444
  667SOL     OW11915   0.684   3.973   0.458 -0.3900  0.1714 -0.5701
  667SOL    HW111916   0.763   3.937   0.408  0.1322  2.0369 -1.1214
  667SOL    HW211917   0.601   3.960   0.403 -0.3168 -0.7739 -0.4724
  668SOL     OW11918   8.542   2.403   0.918  0.2039  0.3185  0.0877
  668SOL    HW111919   8.566   2.344   0.995  1.1393 -0.7330 -0.9928
  668SOL    HW211920   8.566   2.498   0.940  3.4060 -0.3773 -0.0914
  670SOL     OW11921   9.205   1.294   1.531  0.4716 -0.3114 -0.9280
  670SOL    HW111922   9.135   1.364   1.515  0.7754 -0.4090 -2.8561
  670SOL    HW211923   9.277   1.331   1.590 -0.5696  0.2024  0.0310
  671SOL     OW11924   0.949   9.618   2.003 -0.9093  1.3584  0.1915
  671SOL    HW111925   0.982   9.616   2.098  2.4517 -1.5476 -0.9271
  671SOL    HW211926   0.869   9.560   1.995  1.2541 -1.8346  0.5381
  672SOL     OW11927   3.533   9.425   2.431 -0.1883  0.5984 -0.2810
  672SOL    HW111928   3.536   9.503   2.369 -0.7513  1.5920  0.9056
  672SOL    HW211929   3.439   9.414   2.466 -0.5228 -1.7095 -1.7993
  673SOL     OW11930   3.126   6.839   1.388  0.0956  0.3347 -0.4894
  673SOL    HW111931   3.036   6.876   1.364 -0.1560  0.4269  0.5534
  673SOL    HW211932   3.117   6.744   1.417  0.2887  0.4175 -0.1459
  674SOL     OW11933   2.003   4.782   1.627 -0.0845  0.6316 -0.5351
  674SOL    HW111934   1.982   4.868   1.581  1.4899  0.4137 -1.7243
  674SOL    HW211935   2.097   4.755   1.606  0.7271  0.5311  2.8505
  675SOL     OW11936   7.965   0.387   0.879  0.6328  0.4700  0.1967
  675SOL    HW111937   8.039   0.328   0.912  0.9014  0.2319 -0.8029
  675SOL    HW211938   7.986   0.417   0.786 -0.5302  0.3919 -0.0958
  677SOL     OW11939   1.086   2.027   2.014 -0.0719 -0.0040  0.2308
  677SOL    HW111940   1.126   2.116   1.992  2.0088 -0.0926  3.3237
  677SOL    HW211941   1.157   1.956   2.005 -0.2889 -0.5967  2.8059
  678SOL     OW11942   3.705   8.160   2.501  0.6863 -0.2830  0.3969
  678SOL    HW111943   3.644   8.131   2.427  0.3820 -0.6110  0.7682
  678SOL    HW211944   3.793   8.114   2.491  1.3471  1.2060 -0.9037
  679SOL     OW11945   0.587   0.614   0.370  0.3498 -0.1866  0.1879
  679SOL    HW111946   0.609   0.627   0.273 -0.1385 -3.7653 -0.4390
  679SOL    HW211947   0.488   0.619   0.382  0.3102 -1.1654  0.2702
  681SOL     OW11948   4.622   9.942   1.513  0.1502  0.2211 -0.1256
  681SOL    HW111949   4.553   9.871   1.526 -0.0624  0.4461 -0.0386
  681SOL    HW211950   4.704   9.918   1.564  0.5092 -0.5595 -1.0345
  684SOL     OW11951   8.005   0.265   1.904  0.2508  0.1254  0.3359
  684SOL    HW111952   8.019   0.360   1.933 -2.1722  0.6067  0.0290
  684SOL    HW211953   7.941   0.263   1.827  1.6659 -1.6345 -0.8241
  687SOL     OW11954   3.239   6.589   1.741 -0.0389  0.4462  0.2617
  687SOL    HW111955   3.195   6.572   1.652  1.9169  0.2872 -0.7042
  687SOL    HW211956   3.234   6.686   1.762 -1.7954  0.2777  0.6830
  688SOL     OW11957   2.455   4.886   2.307  0.2095 -0.0887 -0.1924
  688SOL    HW111958   2.497   4.909   2.395  1.1158 -1.0381 -0.3588
  688SOL    HW211959   2.363   4.924   2.303  0.0051 -0.3816  1.3295
  689SOL     OW11960   4.980   1.179   2.365  0.2415 -0.3960  0.2281
  689SOL    HW111961   4.974   1.112   2.291 -1.2739 -0.3962  0.3319
  689SOL    HW211962   5.037   1.256   2.337  1.1933 -1.2747 -0.2500
  690SOL     OW11963   2.629   7.032   1.637  0.0643  0.5555  0.1080
  690SOL    HW111964   2.631   7.130   1.620 -0.9074  0.3983 -0.9146
  690SOL    HW211965   2.723   6.999   1.650  0.3939  1.6204  0.5217
  691SOL     OW11966   3.024   9.635   1.729  0.7960  0.2321 -0.2601
  691SOL    HW111967   3.020   9.735   1.734  1.8697  0.2556  0.2914
  691SOL    HW211968   3.095   9.608   1.664  0.1033 -0.1730 -0.8509
  692SOL     OW11969   2.900   2.889   1.923  0.0935  0.1519  0.2024
  692SOL    HW111970   2.833   2.885   1.849 -0.4238 -1.3769  0.7425
  692SOL    HW211971   2.915   2.984   1.949  0.0285  0.6863 -1.6331
  693SOL     OW11972   3.697   2.048   0.214  0.6339 -0.2691 -0.1103
  693SOL    HW111973   3.721   2.145   0.223  0.0332 -0.0492 -0.8325
  693SOL    HW211974   3.715   2.018   0.120 -0.8664 -0.3873 -0.3718
  696SOL     OW11975   1.644   0.880   0.736  0.7338 -0.1589 -0.0480
  696SOL    HW111976   1.726   0.918   0.778  0.8992  1.1327 -1.5390
  696SOL    HW211977   1.666   0.844   0.646 -0.6397  1.6133 -1.1209
  697SOL     OW11978   8.380   1.582   0.481  0.6147  0.5323 -0.0340
  697SOL    HW111979   8.313   1.547   0.415  0.4020 -0.1888  0.5609
  697SOL    HW211980   8.461   1.525   0.479  0.9484  1.0088 -0.2662
  698SOL     OW11981   0.568   9.746   1.513  0.3427 -0.4889  0.1180
  698SOL    HW111982   0.645   9.702   1.466  2.0783  2.2448  0.3179
  698SOL    HW211983   0.526   9.814   1.453 -1.1920 -1.1201  0.4470
  701SOL     OW11984   3.832   3.408   1.323 -0.3525  0.2027 -0.1848
  701SOL    HW111985   3.847   3.504   1.301 -0.4334  0.0792 -0.7678
  701SOL    HW211986   3.784   3.401   1.411 -0.3738  0.6913 -0.1592
  703SOL     OW11987   3.355   9.222   1.674  0.3211 -0.2055  0.5839
  703SOL    HW111988   3.417   9.157   1.718  0.4253 -0.2626  0.3499
  703SOL    HW211989   3.350   9.203   1.576  2.4638  1.8283  0.0290
  704SOL     OW11990   3.723   1.380   0.687 -0.1055 -0.5753  0.4378
  704SOL    HW111991   3.656   1.329   0.740  1.1809 -3.1616 -0.3443
  704SOL    HW211992   3.758   1.322   0.613  2.2470  1.0556  0.2312
  705SOL     OW11993   1.213   6.865   0.368 -1.1230 -0.2673 -0.2728
  705SOL    HW111994   1.188   6.864   0.465 -1.1751 -0.7774 -0.2913
  705SOL    HW211995   1.211   6.959   0.334 -2.7851 -0.2806 -0.2277
  706SOL     OW11996   8.255   8.363   0.031 -0.0197  0.0098 -0.8455
  706SOL    HW111997   8.260   8.407  -0.059  0.0938 -1.0912 -1.3870
  706SOL    HW211998   8.167   8.318   0.042 -0.8760  1.9476  0.4662
  707SOL     OW11999   1.458   4.967   0.394 -0.1598  0.2514 -0.2768
  707SOL    HW112000   1.551   4.979   0.428 -0.8847 -0.8970  2.2464
  707SOL    HW212001   1.442   4.870   0.374 -1.1903  0.2584  0.4683
  708SOL     OW12002   0.404   6.217   0.979  0.2146 -0.1950  0.0599
  708SOL    HW112003   0.366   6.229   0.887 -2.4147 -1.9887  0.8400
  708SOL    HW212004   0.445   6.303   1.010 -1.9119  1.4286 -1.4517
  709SOL     OW12005   4.180   2.749   0.786 -0.4429  0.1329  0.3562
  709SOL    HW112006   4.263   2.748   0.730 -0.2002 -1.5005  0.7180
  709SOL    HW212007   4.100   2.760   0.728 -0.0415  0.6855 -0.0955
  710SOL     OW12008  10.004   0.891   0.358 -0.1151  0.0880  0.0656
  710SOL    HW112009   9.907   0.898   0.380 -0.1173 -0.1030  0.1175
  710SOL    HW212010  10.015   0.875   0.260 -0.2113 -1.5539  0.3016
  711SOL     OW12011   2.859   1.948   0.124 -0.1027 -0.3304 -0.1390
  711SOL    HW112012   2.946   1.902   0.141 -1.0357 -1.8574  0.6163
  711SOL    HW212013   2.827   1.926   0.032  0.3928  0.3879 -0.4884
  712SOL     OW12014   9.420   0.309   2.582 -0.0590 -0.1791  0.0039
  712SOL    HW112015   9.405   0.248   2.504 -1.1182 -0.8691  0.7245
  712SOL    HW212016   9.496   0.274   2.637 -1.6986 -1.7951  1.3045
  713SOL     OW12017   9.111   1.029   1.574 -0.2097 -0.0661 -0.5187
  713SOL    HW112018   9.187   0.964   1.580 -1.0733 -1.3199 -2.6023
  713SOL    HW212019   9.147   1.121   1.563  1.0253 -0.3516  0.9970
  715SOL     OW12020   3.077   2.245   2.045  0.5337 -0.1539 -0.4875
  715SOL    HW112021   3.143   2.253   2.121 -2.2176  1.4688  1.8551
  715SOL    HW212022   2.984   2.250   2.082 -0.9089 -1.4608 -3.8159
  716SOL     OW12023   2.369   6.442   2.607  0.6503 -0.0351 -0.0628
  716SOL    HW112024   2.307   6.407   2.677 -0.4393  0.1239 -0.9358
  716SOL    HW212025   2.422   6.519   2.644  0.0637  0.0619  0.5783
  717SOL     OW12026   3.937   4.897   1.258  0.3921 -0.3457  0.2995
  717SOL    HW112027   3.949   4.830   1.185  0.9649  0.2359 -0.1535
  717SOL    HW212028   4.014   4.961   1.257 -0.0258  0.1760  0.8736
  718SOL     OW12029   2.737   4.481   2.589 -0.2990  0.2833  0.2230
  718SOL    HW112030   2.660   4.486   2.525  0.0396 -0.9160 -0.2821
  718SOL    HW212031   2.741   4.389   2.629  0.8468  0.3622  0.2928
  719SOL     OW12032   4.746   1.228   2.030  0.4906 -0.1596 -0.3064
  719SOL    HW112033   4.697   1.162   1.972  1.1696 -0.7053 -0.2624
  719SOL    HW212034   4.719   1.215   2.125  0.6448 -0.3835 -0.2950
  720SOL     OW12035   0.685   9.229   0.834  0.0747 -0.6817  0.5421
  720SOL    HW112036   0.755   9.246   0.765  0.7729 -1.6647  0.9996
  720SOL    HW212037   0.647   9.316   0.866  0.1732 -0.2007 -0.6370
  721SOL     OW12038   9.408   8.839   0.713 -0.1819  0.1387  0.5408
  721SOL    HW112039   9.426   8.868   0.620 -1.3636  2.8724  1.1249
  721SOL    HW212040   9.313   8.810   0.722  0.0574 -0.6082  0.8118
  724SOL     OW12041   8.816   2.485   1.610  0.3096 -0.0867  0.3849
  724SOL    HW112042   8.908   2.525   1.606 -0.2033  1.1704  0.7636
  724SOL    HW212043   8.820   2.398   1.658  0.7063  1.8448  4.1084
  726SOL     OW12044   4.511   8.122   1.305 -0.1987 -0.1387  0.2658
  726SOL    HW112045   4.488   8.186   1.378  0.3456 -0.2926  0.5703
  726SOL    HW212046   4.600   8.145   1.266 -0.3188 -0.2825 -0.0991
  727SOL     OW12047   8.016   1.919   0.162  0.2156  0.1215 -0.0278
  727SOL    HW112048   7.934   1.905   0.216  0.8226 -0.2474  0.8079
  727SOL    HW212049   8.031   2.017   0.148 -0.1162  0.2012  0.1974
  728SOL     OW12050   1.799   4.661   2.460 -0.0212 -0.2361 -0.4819
  728SOL    HW112051   1.875   4.669   2.525  1.1948 -3.8219 -1.3101
  728SOL    HW212052   1.712   4.656   2.510  0.3756  2.5529  0.5453
  730SOL     OW12053   8.301   9.952   2.660  0.7894  0.1675  0.2462
  730SOL    HW112054   8.217   9.924   2.614  0.2085  1.1122  0.7092
  730SOL    HW212055   8.380   9.932   2.601  0.2607 -0.9104 -0.1028
  731SOL     OW12056   4.663   9.295   1.506  0.6208  0.4319 -0.4625
  731SOL    HW112057   4.701   9.364   1.568 -1.2252  0.0935  1.0752
  731SOL    HW212058   4.591   9.336   1.451  0.8650  0.2036 -0.9593
  732SOL     OW12059   4.399   9.320   2.208 -0.4241  0.1855 -0.4066
  732SOL    HW112060   4.372   9.366   2.123 -0.8691 -0.2149 -0.4848
  732SOL    HW212061   4.496   9.334   2.223 -0.5987  1.3973 -0.2798
  733SOL     OW12062   1.466   8.867   1.681 -0.2717  0.3158 -0.2984
  733SOL    HW112063   1.399   8.837   1.750  0.8011 -1.3027  0.0658
  733SOL    HW212064   1.506   8.787   1.637  0.3516  1.3130 -1.5726
  734SOL     OW12065   0.308   3.131   2.488  0.5955  0.2477  0.4547
  734SOL    HW112066   0.348   3.146   2.579 -1.4002 -0.3695  1.4695
  734SOL    HW212067   0.350   3.050   2.446 -0.4053 -1.1312  2.0276
  735SOL     OW12068   3.245   3.080   0.674  0.3305  0.3644  0.0190
  735SOL    HW112069   3.245   3.123   0.764  0.1564  0.1023  0.1458
  735SOL    HW212070   3.154   3.043   0.655  0.9600 -1.6070  0.7153
  736SOL     OW12071   8.677   4.637   2.079  0.3278 -0.3122  0.4968
  736SOL    HW112072   8.700   4.548   2.120  2.5737 -0.8372 -1.8207
  736SOL    HW212073   8.740   4.707   2.113  0.4074 -0.1924  0.1087
  738SOL     OW12074   4.869   0.079   2.113  0.3848 -0.2533 -0.0489
  738SOL    HW112075   4.843   0.131   2.032 -0.2081 -1.6108 -0.7432
  738SOL    HW212076   4.922   0.137   2.174  0.0088  1.0653 -0.9615
  739SOL     OW12077   9.252   5.829   2.141 -0.7366  0.1385 -0.1917
  739SOL    HW112078   9.185   5.792   2.075 -2.1640  0.4768  1.0385
  739SOL    HW212079   9.263   5.765   2.216 -1.5851  1.2174  0.8687
  740SOL     OW12080   8.836   0.013   2.693  0.1084  0.0257 -0.6727
  740SOL    HW112081   8.776   0.046   2.766 -0.2206  1.3515 -1.5197
  740SOL    HW212082   8.826   0.072   2.613  1.1790 -0.8443 -1.4611
  741SOL     OW12083   8.869   6.682   2.340 -0.3734  0.3965  0.1600
  741SOL    HW112084   8.842   6.761   2.396  1.4780 -0.0994  1.8019
  741SOL    HW212085   8.813   6.603   2.366 -1.5499  0.8980 -0.7953
  742SOL     OW12086   3.336   9.117   0.582  0.5504 -0.1035 -0.4178
  742SOL    HW112087   3.415   9.168   0.618  0.0240  0.5150 -0.1209
  742SOL    HW212088   3.350   9.099   0.485  1.3497 -0.5556 -0.2213
  743SOL     OW12089   9.734   2.146   0.112  0.1760 -0.7884 -0.3767
  743SOL    HW112090   9.725   2.238   0.072 -0.1432 -0.0561  1.3266
  743SOL    HW212091   9.710   2.078   0.044  0.7584  0.3733 -1.7879
  745SOL     OW12092   9.818   5.608   0.414 -0.1939  0.7183  1.1229
  745SOL    HW112093   9.782   5.549   0.342 -1.3038 -0.5115  2.6732
  745SOL    HW212094   9.770   5.590   0.500  1.8624  1.3958  2.4476
  747SOL     OW12095   5.049   3.012   1.233 -0.2945 -0.0281  0.4612
  747SOL    HW112096   5.027   3.102   1.270 -0.4426 -0.4143  1.3298
  747SOL    HW212097   5.108   2.962   1.297 -1.4087 -1.1041  0.6701
  748SOL     OW12098   1.168   0.930   2.163  0.0609  0.1533  0.5614
  748SOL    HW112099   1.196   0.958   2.254  1.1369  0.1390  0.2414
  748SOL    HW212100   1.074   0.961   2.145  0.4326  1.5534  1.0609
  749SOL     OW12101   2.970   8.354   0.176 -0.3346 -0.0280  0.6781
  749SOL    HW112102   2.956   8.290   0.251  1.8818 -1.7916 -0.3708
  749SOL    HW212103   2.906   8.334   0.102 -0.8047  0.1064  1.0415
  753SOL     OW12104   8.293   2.833   1.410 -0.2649  0.2463 -0.0528
  753SOL    HW112105   8.333   2.907   1.464 -0.8323  0.6789 -0.2166
  753SOL    HW212106   8.308   2.850   1.312  0.7493 -0.5270 -0.0376
  754SOL     OW12107   4.289   3.503   0.852  0.4188 -0.4744 -0.1137
  754SOL    HW112108   4.381   3.539   0.870  0.0413  0.6430 -0.3824
  754SOL    HW212109   4.296   3.426   0.789  1.1439 -0.1218 -0.4803
  756SOL     OW12110   9.036   5.820   0.244  0.7349  0.6062  0.2893
  756SOL    HW112111   9.132   5.845   0.237  0.7015  1.5428  2.8359
  756SOL    HW212112   9.026   5.744   0.309 -0.1980  0.2558 -0.2535
  757SOL     OW12113   1.253   1.793   0.360  0.0953  0.1379 -0.2440
  757SOL    HW112114   1.352   1.790   0.345  0.2587  0.3327  0.7757
  757SOL    HW212115   1.234   1.824   0.453 -0.9112 -0.7672 -0.1441
  758SOL     OW12116   2.390   9.741   1.414  0.2259 -0.2402  0.0086
  758SOL    HW112117   2.310   9.801   1.406 -0.0195 -0.5223  0.2909
  758SOL    HW212118   2.430   9.750   1.505 -1.4898 -2.5419  1.0649
  761SOL     OW12119   0.665   3.651   1.890  0.1391 -0.1999  0.6128
  761SOL    HW112120   0.682   3.736   1.841 -0.9027 -0.6770 -0.6067
  761SOL    HW212121   0.682   3.574   1.829  0.6838 -0.8649  1.5893
  763SOL     OW12122   3.763   8.394   1.372  0.1222 -0.5153  0.0509
  763SOL    HW112123   3.711   8.435   1.447  0.8953  1.1885 -0.3174
  763SOL    HW212124   3.785   8.299   1.395 -2.4781 -1.0393  0.5283
  764SOL     OW12125   8.101   5.369   0.821  0.4083  0.2314 -0.1811
  764SOL    HW112126   8.155   5.374   0.906 -2.9606 -0.1320  2.0890
  764SOL    HW212127   8.092   5.461   0.782  1.6009  0.4781  0.1205
  765SOL     OW12128   3.303   0.833   0.466  0.6148  0.0055 -0.0803
  765SOL    HW112129   3.291   0.868   0.559 -0.3506  1.5131 -0.7672
  765SOL    HW212130   3.397   0.799   0.456  1.0184  0.7165  1.1443
  766SOL     OW12131   3.230   6.382   2.000 -0.2846 -0.2971 -0.0334
  766SOL    HW112132   3.310   6.352   1.949  1.6290  0.7669  2.2229
  766SOL    HW212133   3.238   6.479   2.021 -1.7734 -0.3647  0.9421
  767SOL     OW12134   0.616   0.055   1.729 -0.6054 -0.0291  0.5098
  767SOL    HW112135   0.612   0.093   1.821  1.7155 -1.0465  1.0747
  767SOL    HW212136   0.599  -0.044   1.733 -0.4175 -0.0905 -0.1400
  768SOL     OW12137   2.262   2.820   0.272  0.4741  0.0638  0.4161
  768SOL    HW112138   2.296   2.911   0.251 -0.4440  0.3631  0.2297
  768SOL    HW212139   2.202   2.824   0.352  0.0003 -0.2806  0.0843
  769SOL     OW12140   1.638   2.184   1.126 -0.1785  0.3356 -0.7109
  769SOL    HW112141   1.548   2.184   1.170 -1.5643 -2.9972 -3.3193
  769SOL    HW212142   1.702   2.129   1.180  0.1317  2.0495  0.7241
  770SOL     OW12143   0.107   7.145   2.446 -0.1421  0.0528  0.6539
  770SOL    HW112144   0.173   7.219   2.461  1.3000 -1.1561  0.4417
  770SOL    HW212145   0.022   7.166   2.493  0.6372  1.3425  1.5117
  771SOL     OW12146   3.665   4.520   1.702 -0.3227 -0.3155  0.6240
  771SOL    HW112147   3.590   4.490   1.761  0.0451  0.5872  1.5806
  771SOL    HW212148   3.638   4.512   1.607 -1.5944 -0.1197  0.9595
  772SOL     OW12149   5.701   8.354   2.408  0.2283  0.1663 -0.0312
  772SOL    HW112150   5.675   8.446   2.438  2.0224  1.1709 -1.4775
  772SOL    HW212151   5.634   8.321   2.342  1.2036  1.7313 -1.8554
  773SOL     OW12152   0.609   2.196   1.570 -0.1801  0.0000 -0.1362
  773SOL    HW112153   0.627   2.109   1.523 -0.5628  0.4822 -1.1903
  773SOL    HW212154   0.659   2.269   1.524 -0.3382  0.4368  0.3916
  774SOL     OW12155   9.834   7.218   2.517 -0.2317  0.1284 -0.4043
  774SOL    HW112156   9.802   7.273   2.595  0.6797 -0.5611  0.4681
  774SOL    HW212157   9.858   7.278   2.441  2.5682  1.0867  1.1873
  775SOL     OW12158   1.505   1.090   0.621 -0.5348  0.2826  0.3778
  775SOL    HW112159   1.548   1.010   0.663 -0.0764  0.0200 -0.5801
  775SOL    HW212160   1.505   1.165   0.687  0.0964 -0.1480  0.8812
  776SOL     OW12161   8.389   0.690   1.249 -0.1142  0.2847  0.2010
  776SOL    HW112162   8.375   0.767   1.311 -0.7613  0.8488 -0.6523
  776SOL    HW212163   8.301   0.653   1.220  0.1647 -1.4963  1.4605
  777SOL     OW12164   2.959   1.218   1.180 -0.1414  0.0116 -0.7476
  777SOL    HW112165   2.902   1.300   1.170 -1.1568 -0.3575  1.7146
  777SOL    HW212166   3.055   1.243   1.167 -0.4200  1.6385  0.1622
  779SOL     OW12167   2.716   8.634   1.151  0.0899  0.4308  0.0215
  779SOL    HW112168   2.650   8.595   1.088  1.2536 -1.5980  0.0229
  779SOL    HW212169   2.806   8.637   1.107  0.8601 -0.7689  1.4733
  780SOL     OW12170   0.141   6.478   0.590  0.7857 -0.1576 -0.1927
  780SOL    HW112171   0.203   6.445   0.661 -0.1076 -0.5969  0.3982
  780SOL    HW212172   0.194   6.515   0.514  1.8219 -2.0177 -0.4203
  781SOL     OW12173   3.889   5.101   1.584 -0.8746  0.4638 -0.0970
  781SOL    HW112174   3.865   5.157   1.505  1.3621  1.8688  0.1704
  781SOL    HW212175   3.828   5.124   1.660 -0.8450  1.5822 -0.3952
  784SOL     OW12176   0.318   3.586   1.506  0.0326 -0.2528  0.6466
  784SOL    HW112177   0.359   3.509   1.457 -0.6521 -0.0269 -0.2976
  784SOL    HW212178   0.272   3.646   1.440  0.9971  1.2326  1.3089
  785SOL     OW12179   1.078   3.279   1.407 -0.0419  0.3989 -0.2080
  785SOL    HW112180   1.047   3.373   1.421  0.3298  0.8217 -2.0788
  785SOL    HW212181   1.054   3.249   1.314 -0.7189 -1.5796  0.5676
  786SOL     OW12182   8.735   5.780   1.924  0.2382  0.4779  0.4338
  786SOL    HW112183   8.690   5.731   2.000 -0.8370 -0.3834 -0.7287
  786SOL    HW212184   8.683   5.863   1.904  0.5352  0.7168  0.6547
  787SOL     OW12185   0.403   7.333   0.160  0.7363 -0.0488  0.2091
  787SOL    HW112186   0.317   7.335   0.109 -0.9870 -1.9551  2.8916
  787SOL    HW212187   0.413   7.419   0.211  0.1898  0.0277  0.1937
  789SOL     OW12188   2.999   4.241   0.905 -0.4485 -0.1340  0.3786
  789SOL    HW112189   2.919   4.294   0.932  0.3903  0.0688  2.5582
  789SOL    HW212190   2.990   4.214   0.809 -2.9899  0.0946  0.5124
  791SOL     OW12191   4.433   8.819   0.637 -0.3334 -0.7364 -0.0894
  791SOL    HW112192   4.416   8.799   0.734  0.8146 -0.4452  0.1731
  791SOL    HW212193   4.355   8.787   0.583 -0.8995 -1.0721  0.9084
  792SOL     OW12194   7.719   1.965   0.583 -0.0148  0.4375  0.4340
  792SOL    HW112195   7.674   2.036   0.528 -3.7768 -1.3040  1.0567
  792SOL    HW212196   7.724   1.995   0.678  0.8619  0.9682  0.2181
  793SOL     OW12197   1.798   6.137   1.577 -0.2903 -0.5589  0.5901
  793SOL    HW112198   1.834   6.140   1.484 -0.8208  0.5783  0.4171
  793SOL    HW212199   1.746   6.220   1.596 -2.2902 -1.8751  1.0600
  795SOL     OW12200   0.331   4.962   1.255 -0.3841  0.2006  0.0613
  795SOL    HW112201   0.409   4.905   1.281 -0.4725  0.3408  0.6514
  795SOL    HW212202   0.345   4.996   1.162 -0.5815 -1.1872 -0.4828
  797SOL     OW12203   9.881   6.005   0.322 -0.2174 -0.1891  0.3684
  797SOL    HW112204   9.844   5.959   0.403  0.7452 -0.3367  0.7372
  797SOL    HW212205   9.806   6.040   0.266 -1.0085 -3.0674 -0.4372
  799SOL     OW12206   2.823   5.252   1.194 -0.8602 -0.0482 -0.0079
  799SOL    HW112207   2.841   5.155   1.179  0.4670  0.1959 -0.0180
  799SOL    HW212208   2.736   5.263   1.242 -1.7201 -1.1693 -1.2821
  800SOL     OW12209   1.538   8.964   1.221 -0.4567 -0.1164  0.3729
  800SOL    HW112210   1.629   8.991   1.190 -1.4622  2.1464 -0.7231
  800SOL    HW212211   1.519   9.004   1.310 -0.9983  0.8385 -0.1545
  801SOL     OW12212   9.674   2.061   1.159 -0.6130  0.2632 -0.0026
  801SOL    HW112213   9.580   2.093   1.149 -1.0103 -0.6593  0.7035
  801SOL    HW212214   9.690   2.033   1.254  0.1151 -0.3659 -0.3060
  802SOL     OW12215   0.346   1.209   1.323 -0.5705  0.1339 -0.1972
  802SOL    HW112216   0.420   1.152   1.285  0.4234  1.4346 -0.2357
  802SOL    HW212217   0.264   1.197   1.267  0.3518  0.6150 -1.6717
  803SOL     OW12218   1.489   0.287   2.604  0.2342  0.1544  1.0328
  803SOL    HW112219   1.488   0.279   2.703  2.6738 -0.7314  1.0156
  803SOL    HW212220   1.406   0.334   2.573 -0.7994 -0.0598  3.4253
  804SOL     OW12221   1.883   2.321   2.107 -0.4975 -0.4060 -0.1008
  804SOL    HW112222   1.968   2.273   2.127  1.1503  1.4893 -2.2378
  804SOL    HW212223   1.836   2.275   2.032 -1.1791 -1.2378  0.8306
  805SOL     OW12224   7.953   3.063   0.576  0.1841 -0.0264 -0.9907
  805SOL    HW112225   7.974   3.112   0.661 -1.0884  0.3442 -0.8684
  805SOL    HW212226   7.995   3.110   0.499  1.6055 -0.5390 -0.5377
  806SOL     OW12227   0.227   0.250   2.606 -0.6320 -0.2595 -0.0211
  806SOL    HW112228   0.240   0.151   2.617  1.7446  0.1561  1.2956
  806SOL    HW212229   0.146   0.279   2.657 -2.0590 -1.6837 -1.4144
  807SOL     OW12230   4.957   8.587   2.484  0.1749 -0.2983  0.8533
  807SOL    HW112231   5.026   8.616   2.418  0.4616 -0.3840  1.1118
  807SOL    HW212232   5.002   8.541   2.561 -0.3779 -2.6283 -0.1749
  809SOL     OW12233   8.411   9.092   1.902 -0.0105 -0.9346  0.5944
  809SOL    HW112234   8.467   9.066   1.822 -1.0459 -2.2874  0.2811
  809SOL    HW212235   8.471   9.119   1.977  1.0478 -1.5669 -0.0073
  810SOL     OW12236   9.994   2.380   1.340  0.1787 -0.2252  0.2737
  810SOL    HW112237  10.066   2.381   1.271 -1.3338 -0.7699 -1.3676
  810SOL    HW212238   9.954   2.471   1.349 -0.1966 -0.3382 -0.2106
  811SOL     OW12239   9.900   0.819   2.390 -1.0334  0.4025  0.4339
  811SOL    HW112240   9.829   0.794   2.456 -0.4029  0.1225  1.0182
  811SOL    HW212241   9.901   0.752   2.316 -1.1918  0.2453  0.5715
  812SOL     OW12242   1.240   6.802   1.839  0.1775 -0.3892  0.1000
  812SOL    HW112243   1.295   6.726   1.875  1.6941  0.8785  0.4834
  812SOL    HW212244   1.297   6.883   1.829 -1.4650  0.7477 -0.2100
  813SOL     OW12245   9.356   3.946   1.394 -0.1751 -0.5901  0.3267
  813SOL    HW112246   9.427   4.004   1.355 -0.0546 -0.5786  0.5569
  813SOL    HW212247   9.330   3.983   1.484  0.0386 -1.0022  0.5591
  814SOL     OW12248   1.506   1.284   0.814  0.0140  0.7230 -0.1888
  814SOL    HW112249   1.549   1.294   0.903 -0.8321  1.5632  0.1327
  814SOL    HW212250   1.475   1.373   0.781 -1.1199  0.1987 -0.5879
  817SOL     OW12251   4.363   1.881   1.015 -0.0873 -0.1669  0.1098
  817SOL    HW112252   4.383   1.784   1.031 -0.1839 -0.0870  0.7322
  817SOL    HW212253   4.433   1.919   0.955  2.0900  0.2565  2.7938
  818SOL     OW12254   1.416   5.593   0.844  0.1562  0.2493 -0.1078
  818SOL    HW112255   1.486   5.655   0.808  1.1068 -0.2626  0.8166
  818SOL    HW212256   1.373   5.634   0.924  1.4598 -0.6512  1.0931
  819SOL     OW12257   3.164   8.856   0.950  0.3598 -0.7417 -0.4444
  819SOL    HW112258   3.153   8.946   0.993 -0.6277 -1.5436  1.0335
  819SOL    HW212259   3.173   8.868   0.851 -0.0167  0.9722 -0.3054
  820SOL     OW12260   1.089   6.225   2.567 -0.1886 -0.2485  0.4392
  820SOL    HW112261   1.180   6.226   2.607 -0.2927  2.2100  0.6936
  820SOL    HW212262   1.095   6.202   2.470  1.1484  3.4715 -0.4497
  824SOL     OW12263   9.838   4.070   1.100  0.0299  0.1615  0.1312
  824SOL    HW112264   9.907   4.008   1.062  0.7032  1.3120 -0.5575
  824SOL    HW212265   9.882   4.157   1.123 -1.2252  0.9573 -0.4495
  826SOL     OW12266   1.661   5.640   0.476 -0.6460 -0.5696  0.5054
  826SOL    HW112267   1.631   5.547   0.496 -1.5604 -0.5674 -0.7958
  826SOL    HW212268   1.748   5.658   0.523 -0.4921 -2.0517  0.8120
  827SOL     OW12269   8.496   2.704   0.170 -0.2560 -0.2137  0.7193
  827SOL    HW112270   8.572   2.761   0.139  0.0142  0.2718  2.2442
  827SOL    HW212271   8.515   2.608   0.149 -1.5300  0.3533 -3.5454
  828SOL     OW12272   2.831   3.884   2.591 -0.0482  0.2953 -0.5676
  828SOL    HW112273   2.765   3.923   2.656 -1.2040  2.7251 -3.1087
  828SOL    HW212274   2.862   3.795   2.624 -2.3485  0.4564  2.1527
  829SOL     OW12275   9.550   8.424   2.621 -0.1362 -0.1277 -0.5477
  829SOL    HW112276   9.504   8.511   2.636  0.3180  0.1412 -0.7318
  829SOL    HW212277   9.610   8.430   2.541  2.8902  0.6106  1.6642
  830SOL     OW12278   2.019   4.783   2.147 -0.0977  0.5369 -0.7076
  830SOL    HW112279   1.984   4.823   2.062 -1.0524  0.5066 -0.3278
  830SOL    HW212280   2.090   4.842   2.185 -2.2385  2.4462  0.4295
  831SOL     OW12281   0.878   1.481   1.441 -0.2882  0.1770 -0.0655
  831SOL    HW112282   0.836   1.458   1.529  0.0127  2.3438  0.6530
  831SOL    HW212283   0.810   1.470   1.368 -0.7169 -1.0024  0.5013
  832SOL     OW12284   1.058   6.093   2.025  0.0629 -0.0336  0.2866
  832SOL    HW112285   1.156   6.080   2.037  0.3315 -0.3544 -2.1077
  832SOL    HW212286   1.041   6.172   1.966 -1.1723  0.8684  1.8180
  833SOL     OW12287   2.408   6.017   2.447 -0.5299 -0.4915  0.1117
  833SOL    HW112288   2.432   5.924   2.477  0.3540  0.4168  2.2845
  833SOL    HW212289   2.316   6.039   2.480  0.3458  0.4142  2.0575
  834SOL     OW12290   4.059   0.022   0.015  0.0183  0.2718  0.3992
  834SOL    HW112291   4.091  -0.020  -0.070  0.0677 -1.0165  1.0356
  834SOL    HW212292   3.962  -0.000   0.029 -0.1279  0.9126  0.4176
  835SOL     OW12293   1.043   8.359   0.138 -0.1121 -0.3140 -0.6049
  835SOL    HW112294   1.068   8.262   0.142 -0.6223 -0.4277  0.1446
  835SOL    HW212295   1.050   8.398   0.230 -0.9211  0.0901 -0.7099
  836SOL     OW12296   1.550   4.369   1.474 -0.5234  0.3423 -0.2433
  836SOL    HW112297   1.624   4.332   1.530 -1.2633 -1.2106 -0.2812
  836SOL    HW212298   1.523   4.459   1.510  0.9361  0.6321  0.1552
  839SOL     OW12299   8.273   8.000   0.421  0.6026 -0.6043 -0.3727
  839SOL    HW112300   8.265   8.006   0.321  2.3741 -1.0056 -0.5659
  839SOL    HW212301   8.339   8.068   0.453  0.5747 -0.9569  0.4502
  841SOL     OW12302   8.162   0.994   1.708 -0.1600  0.5792  0.2535
  841SOL    HW112303   8.121   1.053   1.639 -2.1308  0.3629  1.1854
  841SOL    HW212304   8.175   1.045   1.793  2.0549  0.7894 -0.1725
  842SOL     OW12305   3.696   4.195   2.189 -0.0710 -0.1817  0.2904
  842SOL    HW112306   3.740   4.254   2.257  1.0091 -0.3159 -0.2881
  842SOL    HW212307   3.651   4.119   2.237  0.6447 -0.2515  0.8630
  844SOL     OW12308   0.654   3.288   1.820 -0.3961 -0.4617  0.4314
  844SOL    HW112309   0.752   3.288   1.799 -0.2816 -1.2116  0.9537
  844SOL    HW212310   0.608   3.357   1.763  0.6457  0.9068  1.2056
  845SOL     OW12311   1.448   2.937   2.613  0.1600 -0.1818  0.0698
  845SOL    HW112312   1.494   3.024   2.592  1.7106 -1.5383 -2.4020
  845SOL    HW212313   1.351   2.945   2.591  0.7500  0.1699 -2.5801
  846SOL     OW12314   8.311   5.849   1.125 -0.1591  0.4878 -0.0921
  846SOL    HW112315   8.388   5.789   1.100  0.1352  1.0589 -0.5881
  846SOL    HW212316   8.232   5.794   1.150 -1.1661 -0.2008 -4.3470
  847SOL     OW12317   0.228   4.504   1.991  0.6462  0.8305 -0.6613
  847SOL    HW112318   0.164   4.509   2.068 -0.5055  0.6325 -1.6017
  847SOL    HW212319   0.242   4.595   1.953  2.8039  1.2438  1.0602
  848SOL     OW12320   3.460   9.489   1.032  0.1340  0.7079  0.1032
  848SOL    HW112321   3.461   9.532   0.941  1.5047  4.6811  1.9021
  848SOL    HW212322   3.366   9.475   1.060 -0.3206  0.4449 -1.4657
  849SOL     OW12323   3.584   4.893   1.065 -0.5703 -0.4148 -0.4854
  849SOL    HW112324   3.548   4.816   1.012 -1.3865  0.8975 -1.8686
  849SOL    HW212325   3.635   4.954   1.004  2.0456 -1.0354  1.0300
  850SOL     OW12326   8.213   5.177   0.659  0.2405 -0.7204  0.2459
  850SOL    HW112327   8.175   5.245   0.722  0.1556 -0.6269  0.0940
  850SOL    HW212328   8.295   5.137   0.700 -0.3833 -1.3916  0.8520
  851SOL     OW12329   2.247   0.280   1.302  0.6343  0.5039  0.4492
  851SOL    HW112330   2.303   0.196   1.301 -0.0163  0.0600  0.7402
  851SOL    HW212331   2.281   0.344   1.234  0.3520 -0.5233 -0.6714
  852SOL     OW12332   0.874   1.955   2.180  0.0568  0.1990  0.2248
  852SOL    HW112333   0.941   1.993   2.116 -0.9056  1.4919 -0.0408
  852SOL    HW212334   0.871   2.012   2.262 -0.2864 -0.2028  0.4929
  854SOL     OW12335   9.294   9.120   0.645  0.3814 -0.3284  0.0052
  854SOL    HW112336   9.287   9.031   0.601 -0.0919  0.1542 -0.9152
  854SOL    HW212337   9.288   9.109   0.744  0.0013 -1.2913 -0.1180
  855SOL     OW12338   8.950   0.557   0.704  0.6877  0.1901 -0.2307
  855SOL    HW112339   8.871   0.619   0.699  0.0064 -0.8010 -2.0207
  855SOL    HW212340   8.922   0.465   0.679  2.3290 -0.2600 -0.4632
  856SOL     OW12341   9.247   0.905   0.260  0.4299  0.1711  0.2958
  856SOL    HW112342   9.227   0.807   0.267 -1.5783  0.3914 -1.7969
  856SOL    HW212343   9.200   0.954   0.334 -0.9891 -0.1556 -0.3616
  857SOL     OW12344   3.176   5.832   2.436 -0.4889 -0.4964  0.0089
  857SOL    HW112345   3.153   5.781   2.353 -1.7362 -0.1373  0.1221
  857SOL    HW212346   3.219   5.918   2.411 -2.6585  0.5193 -0.3618
  859SOL     OW12347   9.872   5.854   2.314 -0.4590 -0.3016 -0.0837
  859SOL    HW112348   9.904   5.948   2.326 -1.2160  0.2069 -1.8825
  859SOL    HW212349   9.862   5.810   2.403  2.0763  0.5838  0.6784
  860SOL     OW12350   8.588   3.608   0.906  0.2106 -0.2950 -0.5520
  860SOL    HW112351   8.574   3.511   0.887 -0.7568 -0.1490 -0.6071
  860SOL    HW212352   8.599   3.621   1.005 -0.0584 -0.4149 -0.5045
  862SOL     OW12353   7.634   0.060   0.137 -0.3974 -0.2055 -0.2637
  862SOL    HW112354   7.681   0.086   0.222 -1.2984  0.7591 -0.0439
  862SOL    HW212355   7.622   0.141   0.080 -1.9254 -0.4054 -0.2401
  863SOL     OW12356   4.898   1.691   2.107  0.7149 -0.0111  0.7633
  863SOL    HW112357   4.909   1.597   2.074  0.8310  0.2909 -0.0585
  863SOL    HW212358   4.933   1.755   2.039  0.2173  0.6535  1.1249
  864SOL     OW12359   7.304   8.730   1.763  0.2986 -0.0211  0.1825
  864SOL    HW112360   7.301   8.645   1.710 -0.4927  0.7495 -1.0580
  864SOL    HW212361   7.396   8.769   1.760  0.2099  0.1313 -0.8455
  865SOL     OW12362   9.308   9.910   1.085 -0.7026 -0.1303  0.0472
  865SOL    HW112363   9.364   9.991   1.102 -1.0420  0.3058 -0.9130
  865SOL    HW212364   9.359   9.828   1.113  1.2428  0.0888 -2.6110
  866SOL     OW12365   9.853   4.985   3.439  0.4015 -0.4150 -0.5750
  866SOL    HW112366   9.880   4.966   3.345  3.0373 -1.2627  0.3195
  866SOL    HW212367   9.912   5.056   3.477 -1.2590  0.6148  0.1718
  868SOL     OW12368   2.980   3.968   1.941 -0.2738  0.1637  0.2925
  868SOL    HW112369   3.000   4.048   1.884 -1.3109 -0.8320 -1.4964
  868SOL    HW212370   3.058   3.906   1.940 -1.0727 -0.8431 -1.7705
  869SOL     OW12371   3.771   5.051   0.126 -0.5595  0.2433  0.6364
  869SOL    HW112372   3.847   5.064   0.062  1.8764  0.0244  3.4298
  869SOL    HW212373   3.714   4.976   0.094 -0.7269  1.6030 -2.4947
  870SOL     OW12374   1.364   0.564   1.224  0.0307 -0.2845  0.5052
  870SOL    HW112375   1.432   0.628   1.189  0.5787 -1.5223 -0.7371
  870SOL    HW212376   1.339   0.499   1.153 -2.6955  0.3170  0.8483
  872SOL     OW12377   3.335   9.793   2.607 -0.4272 -0.0665  0.4741
  872SOL    HW112378   3.431   9.798   2.635 -0.5938 -2.2954  1.5392
  872SOL    HW212379   3.278   9.837   2.676 -0.2779  0.2004  0.4295
  873SOL     OW12380   8.693   5.738   2.667  0.0902  0.2692  0.4906
  873SOL    HW112381   8.783   5.727   2.626 -0.6613 -1.5695 -0.7569
  873SOL    HW212382   8.688   5.683   2.751 -0.1815 -0.4101  0.0319
  874SOL     OW12383   2.683   6.467   1.014  0.1162  0.3169  0.4253
  874SOL    HW112384   2.751   6.516   1.069  1.4265  0.3074 -1.1153
  874SOL    HW212385   2.725   6.384   0.976 -1.3597 -0.7216  1.0257
  876SOL     OW12386   0.926   0.069   2.475 -0.1125  0.2280  0.1360
  876SOL    HW112387   0.987   0.029   2.542 -0.3465 -0.0846  0.1662
  876SOL    HW212388   0.835   0.027   2.483  0.1572 -0.6053 -1.1069
  877SOL     OW12389   8.675   2.896   0.093 -0.2925 -0.2266  0.1357
  877SOL    HW112390   8.755   2.925   0.041 -0.1265 -2.1903 -0.7478
  877SOL    HW212391   8.607   2.969   0.093  0.2388  0.2966 -1.7301
  878SOL     OW12392   3.059   6.042   0.852  0.2131  0.2490  0.0828
  878SOL    HW112393   3.083   5.963   0.795 -0.4135  0.4094 -0.4076
  878SOL    HW212394   3.092   6.125   0.808  1.4290  0.2217  0.9061
  879SOL     OW12395   7.881   0.057   1.635 -0.5535  0.0789 -0.4774
  879SOL    HW112396   7.841   0.148   1.633 -2.8517 -0.8680  0.3202
  879SOL    HW212397   7.959   0.053   1.572  0.0262  2.7525 -0.0092
  880SOL     OW12398   5.509   9.032   2.348  0.3029  0.0155  0.3660
  880SOL    HW112399   5.548   8.992   2.265 -0.4696 -0.2937  0.1500
  880SOL    HW212400   5.515   9.132   2.342  1.1162 -0.0325  0.3632
  881SOL     OW12401   8.645   5.576   2.385  0.1904 -0.0303  0.5989
  881SOL    HW112402   8.628   5.659   2.439 -0.9596 -0.3188  0.6958
  881SOL    HW212403   8.644   5.497   2.446 -2.6844 -0.5375  0.0002
  882SOL     OW12404   9.344   5.356   0.402 -0.0157 -0.3020  0.0856
  882SOL    HW112405   9.417   5.394   0.458  0.3121 -1.5527  0.5295
  882SOL    HW212406   9.256   5.369   0.448  0.2570 -1.3774  0.9457
  883SOL     OW12407   9.761   9.107   2.642  0.2390  0.6122  0.1927
  883SOL    HW112408   9.801   9.135   2.729 -2.8647  0.9381  1.5748
  883SOL    HW212409   9.703   9.181   2.607  1.6597  0.5902 -2.3153
  884SOL     OW12410   0.956   3.580   2.545 -0.4283  0.1918  0.1950
  884SOL    HW112411   0.878   3.546   2.493  0.8481 -3.2069  0.3352
  884SOL    HW212412   0.934   3.579   2.643 -0.9443  1.3761  0.1021
  885SOL     OW12413   8.248   3.576   1.097 -0.0001 -0.3135 -0.5380
  885SOL    HW112414   8.273   3.621   1.182 -0.3291 -0.4080 -0.3952
  885SOL    HW212415   8.246   3.644   1.023 -0.9969 -0.0081 -0.2287
  886SOL     OW12416   0.712   4.821   1.102  0.1761 -0.1508  0.3295
  886SOL    HW112417   0.745   4.769   1.181  1.7786 -0.5381 -0.5611
  886SOL    HW212418   0.613   4.811   1.094  0.1672 -1.1562  1.5258
  887SOL     OW12419   8.493   6.390   0.252  0.4884 -0.0827 -0.2035
  887SOL    HW112420   8.460   6.483   0.265 -1.3595 -0.7914  0.3900
  887SOL    HW212421   8.556   6.387   0.174 -0.8627  1.3451 -1.3853
  888SOL     OW12422   7.759   1.589   0.400 -0.2384 -0.1125  0.0885
  888SOL    HW112423   7.673   1.633   0.427 -0.9304  0.4715 -2.9411
  888SOL    HW212424   7.818   1.581   0.480 -2.8834 -0.0421  2.1368
  889SOL     OW12425   2.416   3.195   2.177  0.3798  0.3802 -0.1720
  889SOL    HW112426   2.337   3.151   2.220 -0.1230  0.6099 -0.8459
  889SOL    HW212427   2.397   3.209   2.080  0.8371  1.3979 -0.1170
  890SOL     OW12428   1.975   8.004   1.970 -1.0138 -0.2149 -0.0750
  890SOL    HW112429   2.072   7.981   1.972 -0.8957  0.0809 -2.1774
  890SOL    HW212430   1.957   8.078   2.036  0.7273  1.7726 -1.7688
  891SOL     OW12431   9.549   1.650   2.144  0.3256 -0.2886  0.2647
  891SOL    HW112432   9.463   1.604   2.167  0.0713  0.0930  0.0674
  891SOL    HW212433   9.575   1.711   2.218 -0.7381  1.2999 -0.6389
  892SOL     OW12434   0.439   6.372   1.969  0.2453 -0.2422 -0.0885
  892SOL    HW112435   0.537   6.388   1.966  0.2755 -0.4291 -0.1254
  892SOL    HW212436   0.393   6.449   2.014  0.2856  0.4001 -1.1372
  893SOL     OW12437   7.874   1.652   2.684  0.0287  0.2329  0.1339
  893SOL    HW112438   7.938   1.700   2.743 -0.6429  1.3902 -0.0743
  893SOL    HW212439   7.806   1.605   2.740  0.8820 -0.7621  0.3457
  894SOL     OW12440   3.547   1.274   1.651 -0.2474 -0.0522  0.5065
  894SOL    HW112441   3.566   1.370   1.670 -0.9509 -0.0029  0.9940
  894SOL    HW212442   3.603   1.243   1.574  0.4800  0.5571  0.7888
  895SOL     OW12443   3.737   7.492   0.032 -0.7070  0.6601  0.2135
  895SOL    HW112444   3.798   7.467  -0.042 -2.3082 -0.6989 -0.6831
  895SOL    HW212445   3.727   7.592   0.035 -0.2586  0.7452 -1.0866
  896SOL     OW12446   2.785   6.883   2.256  0.4977 -0.2442 -0.2983
  896SOL    HW112447   2.691   6.848   2.258 -0.5817  2.5265 -1.3872
  896SOL    HW212448   2.827   6.868   2.346 -1.1238 -1.0948  0.3471
  897SOL     OW12449   6.454  -0.003   2.702 -0.6042 -0.2444 -0.0053
  897SOL    HW112450   6.475   0.095   2.700 -2.0229  0.0573 -0.8750
  897SOL    HW212451   6.401  -0.028   2.621 -1.0790 -1.5477  0.6818
  898SOL     OW12452   8.760   0.768   0.705  0.0794 -0.0404 -0.1704
  898SOL    HW112453   8.705   0.770   0.788  1.2701 -2.6498  0.7691
  898SOL    HW212454   8.817   0.850   0.700 -0.0694  0.1854  1.5783
  899SOL     OW12455   9.703   6.043   0.080  0.6095 -0.0222  0.1824
  899SOL    HW112456   9.704   6.084  -0.011 -0.9764 -0.7486 -0.1971
  899SOL    HW212457   9.757   5.959   0.079  1.1325  0.3178  0.0771
  900SOL     OW12458   1.825   6.356   2.247  0.0355 -0.6889  0.1583
  900SOL    HW112459   1.762   6.397   2.314  0.1384  0.3392 -0.3674
  900SOL    HW212460   1.916   6.350   2.287 -0.0861 -0.8637  0.4129
  901SOL     OW12461   9.102   0.654   1.277 -0.2374 -0.2188 -0.0317
  901SOL    HW112462   9.136   0.692   1.191  0.3480  0.1620  0.3600
  901SOL    HW212463   9.090   0.555   1.267  2.5847 -0.6538  0.2738
  902SOL     OW12464   8.701   6.222   1.248  0.6563  0.2584 -0.4040
  902SOL    HW112465   8.766   6.270   1.189  0.7130  1.5794  0.7077
  902SOL    HW212466   8.751   6.161   1.310  1.0767  2.8264  1.8923
  903SOL     OW12467   8.833   0.884   0.353 -0.1608  0.2174 -0.0333
  903SOL    HW112468   8.921   0.919   0.384 -0.0583  2.3431 -2.4760
  903SOL    HW212469   8.826   0.786   0.373  1.0870  0.8339  3.7352
  904SOL     OW12470   9.930   3.886   2.123  0.5582 -0.0556  0.8829
  904SOL    HW112471   9.998   3.837   2.069  0.9642  0.1780  1.1795
  904SOL    HW212472   9.971   3.970   2.160 -0.6998  1.6023 -1.3427
  905SOL     OW12473   1.998   5.654   0.517 -0.2429 -0.1224 -0.4452
  905SOL    HW112474   2.027   5.593   0.592 -0.2678 -0.3054 -0.5847
  905SOL    HW212475   1.951   5.601   0.447 -2.0669  0.3825  0.3878
  906SOL     OW12476   2.312   3.260   1.123 -0.2543 -0.3997 -0.7060
  906SOL    HW112477   2.223   3.294   1.154 -1.2938 -0.3553 -3.5735
  906SOL    HW212478   2.302   3.222   1.031  2.7287 -0.3250 -1.0831
  907SOL     OW12479   3.551   4.884   1.501  0.0652 -0.4501  0.2542
  907SOL    HW112480   3.641   4.928   1.496 -0.1553  0.1768  1.6846
  907SOL    HW212481   3.549   4.820   1.577 -0.7067 -0.4556  0.2355
  908SOL     OW12482   4.363   2.141   1.576  0.1268  0.2801  0.4246
  908SOL    HW112483   4.337   2.049   1.549  1.4351  0.3301 -1.1386
  908SOL    HW212484   4.292   2.181   1.634 -1.4005 -0.9723 -0.5419
  911SOL     OW12485   2.274   4.736   1.580 -0.3917  0.7966 -0.2656
  911SOL    HW112486   2.334   4.784   1.516  1.5112 -0.3987  0.5937
  911SOL    HW212487   2.286   4.638   1.572  0.2175  0.6178  2.1971
  912SOL     OW12488   9.594   4.475   2.598  0.1617  0.2515  0.2693
  912SOL    HW112489   9.551   4.561   2.571  0.9943  0.6253  0.1202
  912SOL    HW212490   9.536   4.428   2.665  0.7223  1.9565  1.9902
  913SOL     OW12491   1.491   1.509   1.887 -0.4718 -0.2662 -0.2569
  913SOL    HW112492   1.579   1.464   1.872 -0.6644 -0.4080 -0.9875
  913SOL    HW212493   1.480   1.529   1.984  0.7604  0.5780 -0.2894
  914SOL     OW12494   2.632   1.033   2.566 -0.2873  0.3539  0.0363
  914SOL    HW112495   2.597   1.001   2.478 -2.6131  1.1481  0.6300
  914SOL    HW212496   2.558   1.030   2.634  1.8059 -1.6266  2.3550
  915SOL     OW12497   0.841   4.367   1.028 -0.4718 -0.1799  0.5719
  915SOL    HW112498   0.855   4.461   0.995 -0.1095 -0.6203 -0.5588
  915SOL    HW212499   0.857   4.303   0.953 -1.9366 -1.0897  1.0071
  916SOL     OW12500   0.794   5.140   2.382 -0.1570 -0.4703  0.3202
  916SOL    HW112501   0.851   5.107   2.306 -1.3962 -0.2076 -0.7433
  916SOL    HW212502   0.836   5.115   2.469  1.9740  0.3826 -0.4448
  917SOL     OW12503   8.176   1.374   2.652  0.1403  0.1768 -0.3406
  917SOL    HW112504   8.162   1.365   2.751 -1.4841  0.0661 -0.5557
  917SOL    HW212505   8.103   1.431   2.614  0.0297 -0.8183 -1.6543
  918SOL     OW12506   0.993   0.112   1.276 -0.4203 -0.3371  0.3976
  918SOL    HW112507   1.004   0.112   1.177 -0.3647  0.8973  0.3909
  918SOL    HW212508   0.972   0.205   1.307  0.2075 -0.5848  1.6102
  919SOL     OW12509   3.205   9.403   2.091  0.9971 -0.2223  0.1973
  919SOL    HW112510   3.226   9.483   2.147 -2.8854 -1.1044  3.1024
  919SOL    HW212511   3.240   9.321   2.137  0.0141 -0.7140  0.0745
  920SOL     OW12512   2.585   4.722   1.683  0.0230 -0.7806  0.3611
  920SOL    HW112513   2.560   4.752   1.591 -1.9911 -0.4076  1.0009
  920SOL    HW212514   2.605   4.624   1.682 -0.4787 -0.8771 -0.3801
  921SOL     OW12515   1.326   8.716   1.862  0.0722  0.0622  0.6114
  921SOL    HW112516   1.404   8.654   1.859  0.7419  0.8938  0.7102
  921SOL    HW212517   1.335   8.776   1.942  0.0061  1.0350 -0.1077
  922SOL     OW12518   4.174   0.898   0.683  0.1368  0.0233  0.1446
  922SOL    HW112519   4.264   0.917   0.644  1.1720  0.1963  2.5425
  922SOL    HW212520   4.106   0.958   0.641  1.3780  0.8790 -0.6754
  923SOL     OW12521   1.350   2.813   0.728  0.1498  0.0953 -0.0214
  923SOL    HW112522   1.372   2.903   0.767  0.5134 -0.7250  1.6956
  923SOL    HW212523   1.393   2.805   0.637 -0.6104  1.9773 -0.5790
  924SOL     OW12524   7.091   9.990   2.554  0.2113  0.6423  0.1849
  924SOL    HW112525   7.083  10.088   2.539  0.1307  0.7579  0.9504
  924SOL    HW212526   7.114   9.944   2.468  0.8792  1.4019 -0.0399
  925SOL     OW12527   1.600   0.547   2.286  0.0124  0.1920  0.2500
  925SOL    HW112528   1.664   0.552   2.210 -1.3352 -0.6525 -0.9599
  925SOL    HW212529   1.524   0.486   2.262 -1.3456  1.3254  1.5853
  926SOL     OW12530   9.526   1.211   0.774  0.6499 -0.3316  0.1302
  926SOL    HW112531   9.559   1.169   0.859  0.9548  0.5008  0.4279
  926SOL    HW212532   9.472   1.292   0.796 -1.9996 -1.8999 -0.3265
  927SOL     OW12533   4.007   5.297   0.744 -0.0268 -0.1724  0.4974
  927SOL    HW112534   3.971   5.367   0.682 -0.8697 -0.2298  0.9201
  927SOL    HW212535   4.106   5.307   0.751 -0.0606  0.5440  0.0214
  929SOL     OW12536   2.614   7.320   1.628 -0.0704  0.9225 -0.7620
  929SOL    HW112537   2.550   7.351   1.698  2.2307 -1.0842  2.3884
  929SOL    HW212538   2.675   7.395   1.603  0.6912  1.0349  1.3107
  930SOL     OW12539   1.703   9.471   1.030  0.4505  0.7169 -0.1903
  930SOL    HW112540   1.669   9.475   0.936  0.9907 -0.1801 -0.4261
  930SOL    HW212541   1.791   9.517   1.036 -1.6294  4.7973  0.8263
  932SOL     OW12542   0.261   0.846   0.058  0.2886 -0.6874 -0.2553
  932SOL    HW112543   0.341   0.856   0.117  0.0792 -1.3301  0.1544
  932SOL    HW212544   0.290   0.821  -0.034  0.5759 -0.6238 -0.1816
  935SOL     OW12545   2.877   2.255   1.378  0.1721 -0.7723 -0.4837
  935SOL    HW112546   2.879   2.354   1.361 -0.2459 -0.8393 -0.9602
  935SOL    HW212547   2.794   2.232   1.428 -0.1971 -1.0047 -1.1985
  937SOL     OW12548   3.204   7.276   2.184  0.3075 -0.3560  0.1156
  937SOL    HW112549   3.112   7.242   2.199  0.2505 -0.0348  0.5007
  937SOL    HW212550   3.202   7.348   2.114 -0.0475  1.1421  1.6436
  938SOL     OW12551   3.455   5.781   1.801  0.7276  0.7420  0.0959
  938SOL    HW112552   3.423   5.745   1.888  0.3372  0.3203 -0.2145
  938SOL    HW212553   3.550   5.753   1.786  0.6436  0.4165  0.1709
  939SOL     OW12554   4.721   2.570   0.785  0.1259  0.2100  0.2027
  939SOL    HW112555   4.665   2.578   0.867  1.7033 -0.0827  1.3314
  939SOL    HW212556   4.808   2.618   0.799 -0.6890  2.5754 -2.3367
  941SOL     OW12557   9.288   3.189   0.670  0.6861  0.3275  0.2852
  941SOL    HW112558   9.298   3.116   0.739 -2.1040 -0.7485 -0.3665
  941SOL    HW212559   9.297   3.149   0.579 -0.5778  0.8467 -0.0674
  942SOL     OW12560   9.168   7.693   1.035 -0.7129 -0.2233 -0.0683
  942SOL    HW112561   9.112   7.775   1.043 -0.2781  0.2286 -1.5420
  942SOL    HW212562   9.187   7.656   1.126 -0.9597  1.2761  0.5939
  943SOL     OW12563   1.459   1.894   1.594 -0.0019  0.3783 -0.3181
  943SOL    HW112564   1.475   1.798   1.619  0.1398  0.2506 -0.9008
  943SOL    HW212565   1.540   1.948   1.614  0.8618 -0.1085 -2.4606
  945SOL     OW12566   3.399   5.118   2.471 -0.5696  0.1996  0.0196
  945SOL    HW112567   3.420   5.130   2.568 -0.6869  1.5373 -0.1156
  945SOL    HW212568   3.480   5.142   2.417 -1.0834  1.2420 -0.2958
  947SOL     OW12569   3.287   9.143   2.232  0.0381 -0.1922 -0.0730
  947SOL    HW112570   3.362   9.078   2.239  0.2476  0.1275  0.6702
  947SOL    HW212571   3.263   9.176   2.323  1.4590  2.5145 -0.6407
  949SOL     OW12572   2.901   5.827   1.732 -0.0241 -0.1527 -0.5497
  949SOL    HW112573   2.971   5.766   1.768 -1.3374 -0.7199  1.0838
  949SOL    HW212574   2.923   5.922   1.756 -0.8386 -0.5146  1.7239
  950SOL     OW12575   8.681   9.775   2.114  0.2671 -0.1274 -0.3747
  950SOL    HW112576   8.737   9.703   2.153  0.4676  0.0576 -0.3211
  950SOL    HW212577   8.642   9.744   2.027 -0.4812 -0.6777  0.1519
  952SOL     OW12578   8.231   1.525   0.750  0.2114 -0.3538 -0.5900
  952SOL    HW112579   8.248   1.575   0.665 -0.7385  1.6984  0.3774
  952SOL    HW212580   8.253   1.584   0.828  1.4011 -2.3260  0.6079
  954SOL     OW12581   0.315   8.522   1.564  0.5705  0.1134  0.0572
  954SOL    HW112582   0.285   8.607   1.606  0.0953 -0.3721  0.7077
  954SOL    HW212583   0.401   8.537   1.514  0.4179  0.9927  0.0660
  957SOL     OW12584   8.495   7.745   2.149  0.2089  0.2792 -0.2473
  957SOL    HW112585   8.430   7.680   2.190 -0.3850  0.7207 -0.4806
  957SOL    HW212586   8.578   7.748   2.204  0.1342 -0.4747 -0.0788
  958SOL     OW12587   2.197   0.770   0.031 -0.4444  0.0469 -0.6387
  958SOL    HW112588   2.219   0.723  -0.054  0.3601  1.4133 -1.1926
  958SOL    HW212589   2.223   0.866   0.025 -0.1935  0.1261  1.2254
  959SOL     OW12590   8.791   9.525   1.877 -0.0081  0.5437 -0.4017
  959SOL    HW112591   8.691   9.526   1.874 -0.1959  0.6788  3.6575
  959SOL    HW212592   8.826   9.616   1.852 -0.8357  0.3981 -2.1838
  960SOL     OW12593   7.852   0.713   1.896  0.2360  0.2051 -0.1454
  960SOL    HW112594   7.808   0.624   1.887 -0.1198  0.6024 -2.5833
  960SOL    HW212595   7.870   0.732   1.993 -0.6808 -2.0138  0.4767
  963SOL     OW12596   2.669   0.526   0.514 -0.4421 -0.3613  0.3673
  963SOL    HW112597   2.767   0.545   0.516 -0.1120 -2.0427  1.6892
  963SOL    HW212598   2.628   0.551   0.602 -0.8881 -1.1788  0.3992
  964SOL     OW12599   0.173   6.767   1.340 -0.7514 -0.3735 -0.3155
  964SOL    HW112600   0.258   6.784   1.289 -0.9728 -1.1940 -0.9862
  964SOL    HW212601   0.105   6.727   1.278 -1.1492 -1.0411  0.5407
  966SOL     OW12602   9.888   1.586   1.880 -0.1074  0.3092  0.0776
  966SOL    HW112603   9.939   1.543   1.805 -1.0023  1.1249 -1.0082
  966SOL    HW212604   9.952   1.633   1.941  0.4214  1.4745 -1.3612
  967SOL     OW12605   2.528   4.131   2.026 -0.0074 -0.3981 -0.1101
  967SOL    HW112606   2.573   4.060   1.973  0.7253  0.8387 -1.1803
  967SOL    HW212607   2.584   4.154   2.105  0.3688 -0.1226 -0.4572
  968SOL     OW12608   0.046   5.605   0.517  0.3518  0.0034 -0.2328
  968SOL    HW112609  -0.033   5.610   0.456  1.1014  0.2588 -1.1893
  968SOL    HW212610   0.037   5.525   0.577  0.0973 -0.8198 -1.3576
  969SOL     OW12611   9.031   7.431   1.963  0.2904  0.2050  0.1306
  969SOL    HW112612   9.117   7.480   1.952  0.2254  0.6360  1.3995
  969SOL    HW212613   9.020   7.405   2.059 -0.5138 -0.7380 -0.2099
  970SOL     OW12614   2.242   4.311   1.161 -0.1849 -0.2391 -0.1683
  970SOL    HW112615   2.214   4.372   1.235 -0.1509 -1.3834  0.8092
  970SOL    HW212616   2.339   4.326   1.141  0.0226 -0.5185  0.6133
  971SOL     OW12617   4.346   9.863   1.191 -0.8087 -0.0314 -0.2665
  971SOL    HW112618   4.350   9.770   1.228 -0.7778  0.0959  0.0526
  971SOL    HW212619   4.264   9.909   1.226 -0.0565  0.5538  0.7401
  973SOL     OW12620   7.989   1.500   2.492 -0.2776 -0.0245 -0.1423
  973SOL    HW112621   7.937   1.569   2.542  0.2431  0.8278 -0.7569
  973SOL    HW212622   7.935   1.465   2.416 -0.2176  0.3569 -0.3626
  974SOL     OW12623   2.506   3.774   0.832 -0.1047 -0.1464  0.3110
  974SOL    HW112624   2.530   3.805   0.924 -0.6060 -0.6809  0.6278
  974SOL    HW212625   2.458   3.687   0.838  2.5146 -1.7087 -0.6625
  976SOL     OW12626   0.962   9.140   1.999  0.5272 -0.2251  0.4958
  976SOL    HW112627   1.013   9.054   2.003 -0.6538 -0.9687  0.1515
  976SOL    HW212628   1.002   9.200   1.930  1.9717 -0.0890  1.4514
  977SOL     OW12629   3.680   7.584   1.153  0.2129 -0.1795  0.3531
  977SOL    HW112630   3.742   7.611   1.080  0.5855 -0.4262  0.5765
  977SOL    HW212631   3.706   7.631   1.238  0.2297 -0.4517  0.4987
  979SOL     OW12632   2.369   1.486   0.155 -0.0836  0.1208 -0.1880
  979SOL    HW112633   2.408   1.545   0.225  0.6072 -0.0507 -0.4296
  979SOL    HW212634   2.269   1.483   0.165 -0.0447  0.6749  0.3290
  980SOL     OW12635   9.694   1.224   0.562 -0.0244 -0.2011 -0.8223
  980SOL    HW112636   9.755   1.299   0.586  1.6433 -0.8400 -2.9597
  980SOL    HW212637   9.643   1.195   0.644  2.3074  0.4977  0.9238
  981SOL     OW12638   2.123   7.706   1.288 -0.3019 -0.5796  0.1739
  981SOL    HW112639   2.121   7.685   1.190  0.1924 -1.5780  0.3711
  981SOL    HW212640   2.168   7.631   1.337  0.8531  0.6274  0.9854
  982SOL     OW12641   2.578   3.441   0.878  0.0736  0.1171  0.3220
  982SOL    HW112642   2.539   3.504   0.945  0.6882  1.9511 -0.9899
  982SOL    HW212643   2.530   3.452   0.791 -1.9624 -3.5383  0.8605
  985SOL     OW12644   7.915   7.052   2.503 -0.0942 -0.2201 -0.2601
  985SOL    HW112645   8.007   7.012   2.502  0.2230  0.4469  0.4840
  985SOL    HW212646   7.880   7.059   2.410  1.1774  0.7601 -0.6886
  986SOL     OW12647   9.762   4.566   1.056 -0.1654  0.3099  0.0093
  986SOL    HW112648   9.807   4.507   1.124 -1.3620 -0.0338  0.5060
  986SOL    HW212649   9.765   4.661   1.086 -0.3590  0.2055  0.3497
  988SOL     OW12650   2.945   4.204   0.326 -0.7583  0.4974 -0.3650
  988SOL    HW112651   2.962   4.127   0.265 -0.1842  0.2189  0.1438
  988SOL    HW212652   2.869   4.182   0.387  0.2957 -0.1966  0.6950
  989SOL     OW12653   8.208   8.253   1.796 -0.3172 -0.3433  0.0523
  989SOL    HW112654   8.161   8.280   1.712 -0.1378 -0.6050 -0.1307
  989SOL    HW212655   8.193   8.323   1.866 -1.1289 -0.5090  0.0500
  990SOL     OW12656   0.243   3.432   0.285  0.5701 -0.3488 -0.7018
  990SOL    HW112657   0.327   3.486   0.277  0.0418  0.9950  1.9605
  990SOL    HW212658   0.187   3.444   0.203  2.1053  0.2789 -1.6680
  991SOL     OW12659   2.288   6.004   1.877 -0.6559  0.1269 -0.2559
  991SOL    HW112660   2.287   5.931   1.809  1.0697 -0.6766  0.5475
  991SOL    HW212661   2.219   6.073   1.853 -0.6963 -0.5925 -2.3092
  992SOL     OW12662   3.269   8.927   0.247 -0.4869  0.0527  0.2132
  992SOL    HW112663   3.359   8.883   0.241 -0.0595  0.9059  0.3141
  992SOL    HW212664   3.210   8.890   0.175  0.3166  0.3186 -0.6060
  994SOL     OW12665   1.023   6.145   0.026  0.2248  0.0138  0.4825
  994SOL    HW112666   1.034   6.177  -0.069 -2.6525  0.1634  0.1389
  994SOL    HW212667   1.004   6.223   0.085  1.8138 -0.1073  1.1766
  996SOL     OW12668   8.641   8.929   2.410 -0.1918 -0.1010 -0.1492
  996SOL    HW112669   8.690   9.004   2.455  0.4275  1.1628 -2.8408
  996SOL    HW212670   8.543   8.939   2.427  0.0019  0.5507  0.6392
  997SOL     OW12671   8.325   2.082   0.704  0.3454  0.3351 -0.1266
  997SOL    HW112672   8.393   2.153   0.688  1.5211 -0.3789  1.6203
  997SOL    HW212673   8.302   2.078   0.801 -0.1938 -1.2432 -0.2963
  998SOL     OW12674   8.274   7.917   2.686  0.2285 -0.4927 -0.3405
  998SOL    HW112675   8.226   7.894   2.601 -0.3993 -0.9901  0.1514
  998SOL    HW212676   8.361   7.868   2.689 -0.0898 -1.0613 -0.3454
  999SOL     OW12677   8.685   8.200   1.092  0.9298 -0.4504  0.6184
  999SOL    HW112678   8.721   8.246   1.173 -0.3267 -0.3875  1.1625
  999SOL    HW212679   8.607   8.143   1.119 -0.7182  1.0526 -0.8083
 1001SOL     OW12680   3.934   2.305   2.371  0.5216 -0.1726  0.2855
 1001SOL    HW112681   4.015   2.294   2.314 -0.6332  1.0744 -1.6435
 1001SOL    HW212682   3.897   2.398   2.360 -0.1193 -0.1252  2.5445
 1004SOL     OW12683   0.032   3.016   1.256 -0.3105  0.1588  0.8412
 1004SOL    HW112684   0.100   3.056   1.194  2.0952 -0.1250  3.1591
 1004SOL    HW212685  -0.043   3.080   1.270 -0.5827  0.4744 -1.8041
 1006SOL     OW12686   4.040   5.432   0.484  0.0522  0.4462  0.7940
 1006SOL    HW112687   4.127   5.481   0.491 -0.2005  0.9914  0.1681
 1006SOL    HW212688   3.992   5.461   0.401  0.4505 -1.7643 -0.2514
 1007SOL     OW12689   4.100   2.003   0.025  0.2061  0.1511  0.0322
 1007SOL    HW112690   4.078   1.917   0.070 -0.8679  0.7355  0.6276
 1007SOL    HW212691   4.164   1.986  -0.050  0.5159 -1.0720  0.5706
 1008SOL     OW12692   8.981   4.712   2.381  0.1192 -0.4112  0.0145
 1008SOL    HW112693   8.931   4.754   2.305 -0.3933  2.2060  1.7424
 1008SOL    HW212694   8.916   4.664   2.440  0.3077 -1.0344 -0.2754
 1009SOL     OW12695   0.460   6.020   2.330  0.2141  0.3630 -0.1851
 1009SOL    HW112696   0.498   6.099   2.281  1.6799  0.3196  0.8371
 1009SOL    HW212697   0.520   5.997   2.407 -1.3506 -0.3794  0.8460
 1010SOL     OW12698   0.551   8.776   2.680 -0.1795 -0.2428  0.2616
 1010SOL    HW112699   0.492   8.701   2.710  1.7770 -1.7237  0.5118
 1010SOL    HW212700   0.574   8.833   2.759 -0.4680 -0.2462  0.3489
 1011SOL     OW12701   9.483   3.196   2.613  0.7292 -0.3783  0.5646
 1011SOL    HW112702   9.553   3.125   2.629 -0.3030 -1.0070  2.4284
 1011SOL    HW212703   9.519   3.284   2.643  1.3963 -0.3842 -0.1907
 1012SOL     OW12704   9.394   0.074   0.087  0.3072 -0.2729 -0.2263
 1012SOL    HW112705   9.343   0.107   0.007  1.4347 -2.0478 -1.7089
 1012SOL    HW212706   9.413   0.151   0.149  1.0596  1.4665 -2.5680
 1013SOL     OW12707   3.400   4.584   0.548  0.7036 -0.8398 -0.3988
 1013SOL    HW112708   3.428   4.658   0.488  0.0802  0.7030  1.1798
 1013SOL    HW212709   3.308   4.554   0.523  0.1338  0.3298  0.2676
 1014SOL     OW12710   4.288   0.007   1.903 -0.3522  0.9052 -0.0755
 1014SOL    HW112711   4.207   0.017   1.845 -0.7139 -0.9741  0.0868
 1014SOL    HW212712   4.370   0.006   1.846 -0.6629 -0.3073 -0.5099
 1015SOL     OW12713   9.235   8.955   1.012  0.0317  0.0182 -0.0565
 1015SOL    HW112714   9.258   9.034   0.956  0.8909  0.5896  1.0928
 1015SOL    HW212715   9.216   8.984   1.106 -0.0285 -1.0904  0.2902
 1016SOL     OW12716   7.528   9.825   0.104 -0.1677 -0.1887 -0.2893
 1016SOL    HW112717   7.581   9.906   0.125  1.9104 -2.0123  1.8174
 1016SOL    HW212718   7.465   9.844   0.029 -0.5458  3.6629  0.9217
 1017SOL     OW12719   1.127   5.497   0.879  0.0296  0.2777 -0.6200
 1017SOL    HW112720   1.182   5.498   0.794 -1.2691 -0.2229 -1.4772
 1017SOL    HW212721   1.084   5.585   0.891 -0.5418  0.0506 -0.9851
 1018SOL     OW12722   2.525   2.104   1.820  0.2236 -0.2143  0.0733
 1018SOL    HW112723   2.536   2.007   1.840  1.8491  0.3675  2.1417
 1018SOL    HW212724   2.566   2.158   1.893  0.5096  2.0310 -1.6908
 1019SOL     OW12725   3.234   3.646   0.706 -0.1697 -0.0550 -0.1331
 1019SOL    HW112726   3.306   3.600   0.653  0.8523  1.3062  0.0520
 1019SOL    HW212727   3.221   3.738   0.671  0.6389  0.9292  2.0803
 1021SOL     OW12728   9.372   1.442   1.700 -0.1504 -0.2982  0.9864
 1021SOL    HW112729   9.366   1.497   1.783  2.9409  1.8563 -0.1464
 1021SOL    HW212730   9.439   1.369   1.714 -0.2593 -0.4637  0.6327
 1022SOL     OW12731   7.853   2.175   2.504 -0.1620  0.2285  0.2410
 1022SOL    HW112732   7.874   2.078   2.514  1.4913  0.7020  1.5674
 1022SOL    HW212733   7.837   2.196   2.407 -0.8574 -1.4153 -0.0116
 1023SOL     OW12734   0.741   0.028   1.486 -0.8791  0.1429 -0.5813
 1023SOL    HW112735   0.826   0.079   1.474 -0.2648 -0.7458 -0.0745
 1023SOL    HW212736   0.711   0.037   1.581  1.0408 -3.1772  0.3968
 1024SOL     OW12737   1.126   9.383   0.238 -0.1583  0.2307 -0.0411
 1024SOL    HW112738   1.074   9.465   0.261  0.4293  0.6863 -0.2982
 1024SOL    HW212739   1.142   9.328   0.320 -1.0372  0.0919  0.0352
 1027SOL     OW12740   3.299   8.076   0.067  0.0728 -0.0169 -0.4916
 1027SOL    HW112741   3.299   8.167   0.108  1.3870 -0.2934  0.1523
 1027SOL    HW212742   3.234   8.017   0.115 -1.0512  0.6779 -1.1470
 1028SOL     OW12743   1.684   4.074   1.854 -0.2493 -0.0020 -0.1469
 1028SOL    HW112744   1.746   4.058   1.932 -1.7239  0.6881  1.1886
 1028SOL    HW212745   1.604   4.126   1.885 -0.6325  0.6982 -2.2364
 1030SOL     OW12746   8.463   8.537   0.720  0.5025  0.7959  1.2887
 1030SOL    HW112747   8.488   8.440   0.717 -1.3164  0.3358  0.7468
 1030SOL    HW212748   8.392   8.551   0.789 -1.6611  1.1541 -0.9326
 1033SOL     OW12749   0.592   5.260   0.691 -0.4143 -0.4362  0.2949
 1033SOL    HW112750   0.674   5.318   0.685 -1.1188  0.4796 -0.7962
 1033SOL    HW212751   0.556   5.244   0.599 -1.8922 -0.2043  0.8218
 1034SOL     OW12752   9.261   9.552   2.561 -0.3244  0.1584  0.6609
 1034SOL    HW112753   9.310   9.601   2.490  0.7138  0.1604  1.3761
 1034SOL    HW212754   9.222   9.617   2.626  0.0008  0.0900  0.9240
 1035SOL     OW12755   3.004   4.476   1.694 -0.1657  0.2075  0.2959
 1035SOL    HW112756   2.941   4.511   1.625  1.3247  0.1151 -1.1229
 1035SOL    HW212757   3.046   4.392   1.661  1.1302  0.5739  1.0020
 1036SOL     OW12758   9.791   8.282   1.665  0.8375 -0.3473  0.1697
 1036SOL    HW112759   9.831   8.342   1.596  2.0743 -0.4528  0.7836
 1036SOL    HW212760   9.741   8.208   1.621 -0.8394  1.2013 -0.6067
 1038SOL     OW12761   3.940   2.655   0.094 -0.1149  0.5356  0.4500
 1038SOL    HW112762   3.874   2.613   0.156 -0.5972  0.1894 -0.2925
 1038SOL    HW212763   3.959   2.593   0.019  1.5300  0.3863  0.9833
 1039SOL     OW12764   7.843   0.336   2.091  0.3970 -0.7307  0.0873
 1039SOL    HW112765   7.769   0.380   2.040  0.1251  0.0968  1.1854
 1039SOL    HW212766   7.888   0.269   2.032 -2.1293 -2.2736 -0.1679
 1040SOL     OW12767   3.217   1.595   0.099  0.2725 -0.4772  0.0929
 1040SOL    HW112768   3.245   1.609   0.194  2.1285 -0.0426 -0.4863
 1040SOL    HW212769   3.288   1.632   0.038  0.0980 -2.6352 -1.4685
 1042SOL     OW12770   8.627   1.031   0.477  0.0632  0.0317 -0.2606
 1042SOL    HW112771   8.544   0.983   0.448 -0.1935 -0.2811  0.9601
 1042SOL    HW212772   8.707   0.975   0.457 -0.2859 -1.3285  1.9049
 1043SOL     OW12773   2.480   3.089   1.678  0.3769 -0.1775 -0.1258
 1043SOL    HW112774   2.561   3.051   1.723 -0.8877 -3.6845 -0.7192
 1043SOL    HW212775   2.478   3.061   1.582 -1.1509  0.5345 -0.3149
 1044SOL     OW12776   9.706   8.425   2.354  0.1862 -0.2540  0.4961
 1044SOL    HW112777   9.769   8.503   2.350  0.1958  0.0118  3.9753
 1044SOL    HW212778   9.755   8.344   2.386 -0.5680 -0.8026  0.2694
 1045SOL     OW12779   3.167   8.921   0.697 -0.5797  0.1702  0.0878
 1045SOL    HW112780   3.133   8.860   0.625 -0.6213  0.6707 -0.3182
 1045SOL    HW212781   3.206   9.003   0.655  0.1692  0.0769  0.6002
 1046SOL     OW12782   2.677   0.353   1.769 -0.1694 -0.2466 -0.2118
 1046SOL    HW112783   2.719   0.405   1.695 -0.7369  1.5650  0.7249
 1046SOL    HW212784   2.625   0.414   1.828  1.5787 -1.3737  2.6281
 1047SOL     OW12785   2.637   8.882   2.531 -0.0609  0.0369  0.4469
 1047SOL    HW112786   2.630   8.960   2.468  1.2067 -0.1004  0.1217
 1047SOL    HW212787   2.627   8.915   2.625  0.0468  0.5318  0.2889
 1050SOL     OW12788   7.423   0.288   1.171 -0.2029 -0.2813  0.2015
 1050SOL    HW112789   7.426   0.388   1.172 -1.8557 -0.2220 -0.4167
 1050SOL    HW212790   7.487   0.254   1.102 -0.0446  0.3751  0.0168
 1051SOL     OW12791   2.155   8.202   0.094  0.1390 -0.1835 -0.0316
 1051SOL    HW112792   2.097   8.139   0.148  1.3577 -1.5947 -0.3314
 1051SOL    HW212793   2.136   8.296   0.121 -1.4821 -0.6958  0.6840
 1052SOL     OW12794   3.471   1.556   1.991  0.5229  0.8549 -0.1314
 1052SOL    HW112795   3.477   1.565   1.891 -1.3723 -0.5390 -0.4064
 1052SOL    HW212796   3.389   1.604   2.023 -1.1382 -2.1160  0.2231
 1054SOL     OW12797   3.283   7.557   0.833 -0.3323  0.0369 -0.3106
 1054SOL    HW112798   3.357   7.620   0.860  0.7498 -1.0567 -0.6779
 1054SOL    HW212799   3.298   7.469   0.877 -1.7539 -0.0223  0.0573
 1055SOL     OW12800   3.693   1.233   2.602  0.2596  0.0271  0.3235
 1055SOL    HW112801   3.685   1.279   2.513 -0.8317 -0.9118 -0.0785
 1055SOL    HW212802   3.649   1.143   2.597  1.4972 -0.6566  1.3877
 1056SOL     OW12803   3.165   5.903   1.546 -0.0759  0.2993  0.6934
 1056SOL    HW112804   3.159   5.884   1.644 -0.9394 -0.4751  0.4944
 1056SOL    HW212805   3.251   5.865   1.511  1.2202  2.3753  1.5301
 1057SOL     OW12806   9.181   5.177   0.041  0.1998  0.4502 -0.4906
 1057SOL    HW112807   9.192   5.268   0.080  0.9729  1.0018 -1.9417
 1057SOL    HW212808   9.267   5.148  -0.001  0.4206 -1.5932  1.2429
 1058SOL     OW12809   9.466   0.911   0.977 -0.1110 -0.5749 -0.7973
 1058SOL    HW112810   9.405   0.894   1.054 -0.7645  0.9554 -0.9713
 1058SOL    HW212811   9.438   0.854   0.899 -2.4438  1.4144 -1.4607
 1060SOL     OW12812   8.160   2.545   0.159  0.3248  0.2092 -0.5532
 1060SOL    HW112813   8.183   2.515   0.252 -3.2738  2.0972  1.0636
 1060SOL    HW212814   8.091   2.484   0.120 -0.8946  1.5315 -0.5032
 1061SOL     OW12815   4.699   9.676   1.330  0.5076 -0.2284  0.5383
 1061SOL    HW112816   4.791   9.659   1.364  0.0979  0.7175  2.1938
 1061SOL    HW212817   4.641   9.708   1.406 -0.9731 -0.0734 -0.6359
 1062SOL     OW12818   8.229   6.470   0.673  0.8486 -0.5168  0.0147
 1062SOL    HW112819   8.147   6.526   0.683  1.1572 -0.2733  1.3408
 1062SOL    HW212820   8.245   6.450   0.577 -1.0663 -1.0091 -0.2263
 1063SOL     OW12821   9.976   2.515   0.408  0.0763  0.0524 -0.3297
 1063SOL    HW112822  10.045   2.463   0.358 -0.9689 -0.8911 -0.7926
 1063SOL    HW212823   9.916   2.452   0.457 -1.0399  0.8397 -0.6834
 1064SOL     OW12824   9.741   0.870   0.429  0.1419  0.2275 -0.9807
 1064SOL    HW112825   9.739   0.904   0.523 -0.9620 -2.4384  0.0422
 1064SOL    HW212826   9.653   0.889   0.385 -1.0877 -2.5308  0.1312
 1065SOL     OW12827   4.577   1.058   1.887 -0.1212  0.2376  0.3151
 1065SOL    HW112828   4.494   1.022   1.929  0.1110  1.1949  1.6489
 1065SOL    HW212829   4.558   1.147   1.846  0.4406  0.9218  1.4871
 1066SOL     OW12830   2.913   5.107   1.702  0.0803 -0.1628 -0.8086
 1066SOL    HW112831   2.850   5.049   1.753  3.1336 -0.6050  2.6888
 1066SOL    HW212832   2.932   5.065   1.613 -0.7854 -2.4818  0.0641
 1067SOL     OW12833   0.963   1.651   1.763  0.1536 -0.3465 -0.1449
 1067SOL    HW112834   1.054   1.618   1.789  1.0711  1.5408 -0.8548
 1067SOL    HW212835   0.961   1.751   1.768 -0.5269 -0.0525 -4.2859
 1068SOL     OW12836   2.189   7.393   2.261 -0.5897  0.8088  0.3348
 1068SOL    HW112837   2.110   7.394   2.200  0.6259  1.1307 -1.2772
 1068SOL    HW212838   2.235   7.482   2.257  1.8931 -0.5099 -1.4870
 1071SOL     OW12839   6.789   8.871   2.604 -0.5007  0.4090  0.1941
 1071SOL    HW112840   6.838   8.784   2.595 -0.0318  0.6625  0.3029
 1071SOL    HW212841   6.849   8.939   2.647 -0.5763  1.0238 -0.6515
 1072SOL     OW12842   7.781   1.000   0.775 -0.2119 -0.0597  0.7897
 1072SOL    HW112843   7.782   0.900   0.784 -0.3314 -0.2247 -0.8304
 1072SOL    HW212844   7.875   1.034   0.771 -0.1354 -0.4850 -2.1603
 1073SOL     OW12845   4.948   9.110   2.288  0.7429  0.3381  0.2101
 1073SOL    HW112846   4.907   9.169   2.218  2.8889  1.7275  0.0682
 1073SOL    HW212847   5.021   9.055   2.247  0.9011 -0.0578  1.0184
 1074SOL     OW12848   1.420   2.030   2.657  0.1308 -0.1749 -0.2749
 1074SOL    HW112849   1.384   1.938   2.651  1.6036 -0.7348 -0.7190
 1074SOL    HW212850   1.473   2.040   2.742 -1.1447  0.6757  0.4408
 1076SOL     OW12851   9.682   5.447   0.212 -0.0218 -0.0198  0.6216
 1076SOL    HW112852   9.619   5.370   0.205  0.7981 -0.5051 -1.7871
 1076SOL    HW212853   9.642   5.528   0.169  0.2958  0.1395  0.6224
 1077SOL     OW12854   2.787   8.404   0.809 -0.1908 -0.3924  0.1524
 1077SOL    HW112855   2.825   8.320   0.770 -0.1870  0.2262 -1.1892
 1077SOL    HW212856   2.856   8.446   0.869  0.4931 -0.3478 -0.6624
 1078SOL     OW12857   0.850   9.417   2.661  0.1189 -0.1390 -0.2575
 1078SOL    HW112858   0.847   9.398   2.563 -0.3354 -1.7207  0.0533
 1078SOL    HW212859   0.790   9.353   2.709  0.5774  0.4268  1.0891
 1079SOL     OW12860   7.606   0.997   1.650 -0.0770  1.0648  0.2683
 1079SOL    HW112861   7.657   0.918   1.616  0.2236  1.0528  0.7385
 1079SOL    HW212862   7.650   1.031   1.733 -0.6262  1.2786  0.4719
 1080SOL     OW12863   9.530   9.220   1.711 -0.3533 -0.0361 -0.0175
 1080SOL    HW112864   9.497   9.236   1.804  2.0836 -0.2409  0.9450
 1080SOL    HW212865   9.492   9.289   1.650  1.8561  3.2214  2.1091
 1082SOL     OW12866   3.908   2.420   1.212 -0.0541  0.0917  0.1805
 1082SOL    HW112867   3.930   2.378   1.124 -4.5695 -0.3921 -0.8275
 1082SOL    HW212868   3.871   2.512   1.197 -0.5533  0.1395  1.5968
 1083SOL     OW12869   3.027   7.212   1.620 -0.3744 -0.4211 -0.5445
 1083SOL    HW112870   3.010   7.244   1.527  0.3439  0.1809 -0.4726
 1083SOL    HW212871   2.987   7.121   1.632 -1.6971  0.0790 -1.0133
 1084SOL     OW12872   1.021   9.929   0.356 -0.0419 -0.3734  0.6561
 1084SOL    HW112873   1.119   9.933   0.337 -0.2676 -2.1949 -1.0492
 1084SOL    HW212874   0.980  10.020   0.343  1.1963  0.1238  0.2089
 1085SOL     OW12875   0.333   8.608   2.684  0.3096  0.5020 -0.2322
 1085SOL    HW112876   0.308   8.669   2.609 -2.0702  0.4220  0.4371
 1085SOL    HW212877   0.288   8.519   2.672  0.1649  0.3781  1.1011
 1087SOL     OW12878   8.315   6.732   2.483 -0.4478  0.3004 -0.5930
 1087SOL    HW112879   8.345   6.744   2.388 -0.6025  2.8837 -0.3639
 1087SOL    HW212880   8.245   6.800   2.504 -1.6501 -1.3798  0.8733
 1088SOL     OW12881   9.460   2.724   1.904 -0.3072  0.2667  0.3122
 1088SOL    HW112882   9.395   2.786   1.863 -1.5243 -0.6871  0.7677
 1088SOL    HW212883   9.415   2.669   1.974  0.9985 -0.3423  0.7045
 1090SOL     OW12884   3.161   4.502   0.447 -0.4118 -0.1861 -0.4291
 1090SOL    HW112885   3.138   4.470   0.355 -1.1575 -2.8704  0.6228
 1090SOL    HW212886   3.077   4.528   0.495 -0.3909 -1.7213  0.4881
 1091SOL     OW12887   3.786   0.385   0.963 -0.5417 -0.0896  0.1092
 1091SOL    HW112888   3.866   0.335   0.930  1.6473  2.4003  1.4313
 1091SOL    HW212889   3.748   0.340   1.043 -0.4075 -1.2096 -0.4522
 1093SOL     OW12890   6.979   9.820   1.949 -0.3184  0.5262  0.1061
 1093SOL    HW112891   6.939   9.754   1.885 -2.6806  0.1118  1.9294
 1093SOL    HW212892   6.976   9.911   1.909 -1.4535  0.2182 -0.5360
 1094SOL     OW12893   9.805   0.433   0.014  0.3912  0.2633 -0.2101
 1094SOL    HW112894   9.709   0.408   0.007  0.5862 -0.5484 -0.0049
 1094SOL    HW212895   9.833   0.434   0.110  0.2461  1.8246 -0.1659
 1095SOL     OW12896   8.754   3.696   1.965 -0.0972 -0.1875  1.0634
 1095SOL    HW112897   8.821   3.768   1.946 -0.3593 -0.0498  0.6699
 1095SOL    HW212898   8.741   3.689   2.064  0.5108 -0.2237  1.1393
 1097SOL     OW12899   2.054   8.977   1.590 -0.7421 -0.2968  0.3417
 1097SOL    HW112900   2.034   8.991   1.493  1.6380  0.1294 -0.1160
 1097SOL    HW212901   2.093   9.060   1.629 -2.0905 -0.3161  1.8147
 1098SOL     OW12902   9.500   6.120   1.367  0.4715  0.3644 -0.3446
 1098SOL    HW112903   9.506   6.036   1.421 -1.4784  0.5849  0.2577
 1098SOL    HW212904   9.529   6.102   1.273 -0.9408 -1.2588 -0.4887
 1100SOL     OW12905   8.551   8.367   1.670  0.8756 -0.1943  0.3960
 1100SOL    HW112906   8.469   8.416   1.697  0.4796 -0.8867  0.4625
 1100SOL    HW212907   8.556   8.363   1.570 -0.0927 -1.6701  0.3972
 1101SOL     OW12908   1.187   4.692   1.550 -0.4954 -0.3664  0.2229
 1101SOL    HW112909   1.154   4.650   1.634  0.6440  0.7430  1.2646
 1101SOL    HW212910   1.281   4.663   1.533 -0.6505 -0.4219 -0.5641
 1102SOL     OW12911   5.406   2.687   1.365 -0.1033  0.0856  0.0424
 1102SOL    HW112912   5.343   2.636   1.423 -2.0052 -1.1581 -3.0056
 1102SOL    HW212913   5.396   2.785   1.383  0.7311 -0.3404  3.1107
 1103SOL     OW12914   9.609   6.059   0.457  0.3279  0.3216 -0.4694
 1103SOL    HW112915   9.522   6.024   0.494  0.9369 -0.3952  0.3067
 1103SOL    HW212916   9.595   6.152   0.423 -1.2000 -0.4669 -2.0961
 1104SOL     OW12917   3.642   9.996   0.972  0.4250 -0.2868  0.6456
 1104SOL    HW112918   3.699  10.019   0.893  0.5066 -3.8580 -0.4133
 1104SOL    HW212919   3.684   9.921   1.023 -2.4216 -1.8584  0.8013
 1105SOL     OW12920   3.579   9.059   0.970  0.6210  0.1083  0.1778
 1105SOL    HW112921   3.522   9.043   1.050 -1.0318  2.3202 -0.4833
 1105SOL    HW212922   3.651   9.124   0.993  1.4624 -0.9114  0.4222
 1106SOL     OW12923   4.303   5.198   0.253 -0.1292  0.4532  0.6979
 1106SOL    HW112924   4.269   5.134   0.321 -0.5695  1.9432  1.9184
 1106SOL    HW212925   4.227   5.235   0.200 -0.0536  1.1956  1.1020
 1107SOL     OW12926   0.121   3.389   1.170 -0.0231 -0.5338 -0.4749
 1107SOL    HW112927   0.102   3.297   1.137 -2.9339  0.0110 -0.4950
 1107SOL    HW212928   0.047   3.418   1.231  1.2232  1.5296  0.1095
 1108SOL     OW12929   1.817   1.619   0.498 -0.1309  0.1807  0.3204
 1108SOL    HW112930   1.756   1.545   0.526 -0.2069  0.1657  0.1153
 1108SOL    HW212931   1.904   1.581   0.467 -1.1983 -0.0256 -2.5454
 1109SOL     OW12932   0.711   0.011   0.687 -0.1515 -0.1572 -0.2935
 1109SOL    HW112933   0.803  -0.010   0.718 -0.5318 -0.8995  0.3521
 1109SOL    HW212934   0.700  -0.019   0.593  0.0280 -0.7432 -0.1256
 1110SOL     OW12935   9.959   8.647   2.313 -0.6923  0.6094 -0.1158
 1110SOL    HW112936  10.043   8.597   2.295  0.1387  2.8448 -2.6457
 1110SOL    HW212937   9.974   8.713   2.387 -0.2093  0.9770 -0.5375
 1112SOL     OW12938   7.405   9.443   0.358 -0.4291  0.3448  0.0070
 1112SOL    HW112939   7.485   9.500   0.336  0.0202 -0.7847 -1.3549
 1112SOL    HW212940   7.413   9.411   0.453  0.4752  0.6574  0.0465
 1113SOL     OW12941   1.967   9.446   2.664 -0.2405  0.3794  0.2092
 1113SOL    HW112942   2.065   9.433   2.648  0.4005  2.1322  2.4319
 1113SOL    HW212943   1.939   9.392   2.744 -0.7243  1.1505  0.5667
 1114SOL     OW12944   3.164   5.862   0.655 -0.1854 -0.1698  0.3689
 1114SOL    HW112945   3.195   5.916   0.577  0.7880  1.0623  1.5818
 1114SOL    HW212946   3.198   5.768   0.647 -0.5023 -0.1842 -0.9144
 1115SOL     OW12947   0.723   6.512   2.652  0.2966 -0.8056 -0.2581
 1115SOL    HW112948   0.747   6.439   2.588 -1.1860  0.4418 -2.2745
 1115SOL    HW212949   0.639   6.486   2.701  0.0362 -0.6493 -0.6258
 1116SOL     OW12950   2.726   2.468   0.574 -0.4496  0.6456  0.2040
 1116SOL    HW112951   2.706   2.451   0.477 -1.1467 -0.8806  0.6067
 1116SOL    HW212952   2.647   2.443   0.629  0.8104 -0.8050  1.3869
 1117SOL     OW12953   2.493   4.431   1.732 -0.0560  0.2997 -0.2753
 1117SOL    HW112954   2.475   4.333   1.732  0.4923  0.1978  0.2041
 1117SOL    HW212955   2.500   4.463   1.827 -0.5156  0.8544 -0.4231
 1118SOL     OW12956   0.132   4.283   0.887  0.1190 -0.5055 -0.2249
 1118SOL    HW112957   0.203   4.350   0.866 -0.2025  0.3191  1.2519
 1118SOL    HW212958   0.126   4.216   0.813 -0.2538  1.6753 -2.2276
 1119SOL     OW12959   1.856   9.149   0.453 -0.6289  0.1759 -0.5357
 1119SOL    HW112960   1.854   9.206   0.535  0.7673 -1.5716  0.7449
 1119SOL    HW212961   1.763   9.127   0.425 -1.0979 -0.1547  1.2506
 1120SOL     OW12962   3.368   6.669   2.607 -0.4337  0.0096 -0.1854
 1120SOL    HW112963   3.283   6.617   2.605  0.3414 -1.2964  0.2428
 1120SOL    HW212964   3.350   6.763   2.580 -2.2182  0.0331  1.0121
 1121SOL     OW12965   2.789   7.445   2.144 -0.1983  0.3255 -0.1297
 1121SOL    HW112966   2.745   7.470   2.231 -2.0245 -0.5006 -0.7993
 1121SOL    HW212967   2.810   7.347   2.144  1.2367  0.6123 -0.0225
 1122SOL     OW12968   2.883   4.832   1.955  0.1440  0.1644 -0.9081
 1122SOL    HW112969   2.941   4.892   2.010  1.6187 -0.0929 -2.1238
 1122SOL    HW212970   2.805   4.883   1.919 -1.0023  0.2572  1.6326
 1123SOL     OW12971   4.496   1.278   1.769 -0.4125  0.1076 -0.0321
 1123SOL    HW112972   4.565   1.345   1.743  0.7394 -0.3419  1.7747
 1123SOL    HW212973   4.411   1.296   1.719 -0.1377  2.9000  0.4611
 1124SOL     OW12974   1.665   7.566   0.154  0.8816  0.0062  0.4398
 1124SOL    HW112975   1.722   7.500   0.202  0.5133 -1.4737 -1.1189
 1124SOL    HW212976   1.694   7.571   0.058 -1.4297 -0.5814 -0.3100
 1125SOL     OW12977   0.943   4.094   1.865  0.4836  0.8092  0.1290
 1125SOL    HW112978   1.010   4.120   1.934  1.4635 -1.2077 -0.0146
 1125SOL    HW212979   0.976   4.121   1.775  0.6008  0.8080  0.1717
 1126SOL     OW12980   5.064   2.378   1.135 -0.2927  0.0694  0.5279
 1126SOL    HW112981   4.983   2.431   1.159 -0.2642 -0.0583  0.9109
 1126SOL    HW212982   5.144   2.438   1.137 -0.3556  0.1594  0.3117
 1127SOL     OW12983   2.541   3.843   2.557 -0.3045 -0.3897 -0.4886
 1127SOL    HW112984   2.593   3.774   2.507 -4.1201 -2.6994 -1.4549
 1127SOL    HW212985   2.500   3.802   2.638 -1.8122  0.9767 -0.5281
 1128SOL     OW12986   0.642   0.336   1.355  0.4354  0.4291  0.1587
 1128SOL    HW112987   0.592   0.260   1.397  1.2323 -0.4418 -0.4716
 1128SOL    HW212988   0.578   0.410   1.334 -0.5348 -0.5270 -0.2889
 1130SOL     OW12989   4.191   4.211   1.442  0.2484  0.4499 -0.0035
 1130SOL    HW112990   4.118   4.234   1.507  0.4646  0.0209  0.3894
 1130SOL    HW212991   4.186   4.274   1.365 -1.3563 -0.3995 -0.6179
 1131SOL     OW12992   3.946   8.046   1.869 -0.3898  0.2852  0.0319
 1131SOL    HW112993   3.954   8.128   1.812 -1.2681  0.3483 -0.0006
 1131SOL    HW212994   4.037   8.017   1.899 -0.1203  1.6378  0.5575
 1132SOL     OW12995   2.709   3.108   1.358  0.1924 -0.1661  0.0526
 1132SOL    HW112996   2.759   3.167   1.422  0.3276 -0.0997 -0.1148
 1132SOL    HW212997   2.772   3.042   1.316 -0.0501 -0.7510  0.6021
 1133SOL     OW12998   1.169   4.554   0.358  0.0992  0.4121 -0.3657
 1133SOL    HW112999   1.205   4.527   0.269 -1.0564  0.7218 -0.9403
 1133SOL    HW213000   1.157   4.654   0.360 -1.4471  0.2501 -0.4820
 1136SOL     OW13001   0.099   5.551   1.692 -0.5326  0.1254  0.4755
 1136SOL    HW113002   0.086   5.646   1.718  0.6346  0.7762 -1.1902
 1136SOL    HW213003   0.181   5.514   1.737 -0.6962  0.0719  0.7266
 1137SOL     OW13004   0.441   4.211   0.438  0.0330  0.6832 -0.4020
 1137SOL    HW113005   0.434   4.136   0.371 -0.5040 -1.0688  1.5490
 1137SOL    HW213006   0.360   4.269   0.431 -0.5580 -0.1412 -0.5314
 1138SOL     OW13007   8.939   2.566   1.168 -0.2071  0.2879  0.2393
 1138SOL    HW113008   8.980   2.489   1.217  0.4797  0.9662  0.7307
 1138SOL    HW213009   8.953   2.554   1.070  2.4693  1.2551  0.4797
 1139SOL     OW13010   3.145   7.506   2.022 -0.2361 -0.1030  0.4112
 1139SOL    HW113011   3.205   7.548   1.954 -0.7223  2.2934  1.4020
 1139SOL    HW213012   3.062   7.473   1.978 -0.1629  0.6436 -0.2963
 1142SOL     OW13013   8.616   9.436   2.446 -0.4389  0.0242  0.4368
 1142SOL    HW113014   8.661   9.467   2.530  0.7702  2.8558 -1.1739
 1142SOL    HW213015   8.531   9.487   2.433  0.2464  0.8628 -0.9010
 1144SOL     OW13016   8.643   4.291   0.821 -0.1704 -0.1677  0.3467
 1144SOL    HW113017   8.712   4.220   0.803 -0.8369 -1.0027  1.0836
 1144SOL    HW213018   8.636   4.351   0.740  2.7061  1.0424  0.9189
 1145SOL     OW13019   9.133   2.282   1.523 -0.0976  0.1686  0.1106
 1145SOL    HW113020   9.111   2.313   1.431 -1.6627 -0.8968  0.0986
 1145SOL    HW213021   9.054   2.234   1.562  1.2026 -1.0775  1.2793
 1146SOL     OW13022   9.514   2.003   2.231 -0.3067  0.2734 -0.0199
 1146SOL    HW113023   9.548   1.996   2.325  0.2897  0.0818 -0.2514
 1146SOL    HW213024   9.415   1.988   2.231 -0.3235  0.3646  0.5903
 1147SOL     OW13025   0.680   7.057   2.643 -0.0522  0.1282  0.0165
 1147SOL    HW113026   0.774   7.070   2.675  0.3686  0.3985 -1.2690
 1147SOL    HW213027   0.659   6.959   2.640  0.6933 -0.0132 -1.0425
 1149SOL     OW13028   3.198   8.191   0.378  0.0626 -0.5787  0.0964
 1149SOL    HW113029   3.099   8.178   0.378 -0.2087  1.2442  0.6797
 1149SOL    HW213030   3.226   8.239   0.295 -0.1314  2.5287  1.7271
 1150SOL     OW13031   3.520   8.828   0.234 -0.0180  0.3807  0.0369
 1150SOL    HW113032   3.577   8.905   0.262 -1.2608  0.6201  2.0023
 1150SOL    HW213033   3.577   8.758   0.190  1.4926  1.3522  0.4246
 1151SOL     OW13034   9.268   0.450   0.659  0.4139 -0.1663 -0.7217
 1151SOL    HW113035   9.254   0.359   0.620  0.8035 -0.2252 -0.7234
 1151SOL    HW213036   9.184   0.504   0.649  0.3885 -0.3165 -1.2742
 1152SOL     OW13037   3.723   2.129   0.609 -0.4531 -0.5112  0.2697
 1152SOL    HW113038   3.801   2.098   0.555  1.5160  3.1587  0.8327
 1152SOL    HW213039   3.640   2.126   0.554  0.1376 -3.8031 -0.5588
 1153SOL     OW13040   9.731   0.917   1.649 -0.3908  0.8545 -0.3402
 1153SOL    HW113041   9.710   0.868   1.734 -3.3891 -0.4519 -1.7604
 1153SOL    HW213042   9.742   1.015   1.669 -1.2236  0.5880  1.5353
 1154SOL     OW13043   9.322   9.703   1.317  0.3738  0.1366 -0.2153
 1154SOL    HW113044   9.240   9.730   1.267 -1.4560 -0.4238  2.3522
 1154SOL    HW213045   9.325   9.751   1.405  3.1068  0.5533 -0.4990
 1155SOL     OW13046   8.163   1.275   0.845 -0.0133  0.0420  0.2654
 1155SOL    HW113047   8.153   1.212   0.768 -1.3698  0.1684  0.3341
 1155SOL    HW213048   8.182   1.367   0.810  1.8588 -0.3665  0.1635
 1156SOL     OW13049   8.677   0.034   0.604 -0.0894  0.0206 -0.3198
 1156SOL    HW113050   8.708   0.105   0.540 -1.8656 -0.0663 -1.3128
 1156SOL    HW213051   8.656  -0.049   0.553  0.3788 -0.6949  0.6446
 1158SOL     OW13052   2.771   4.119   2.465 -0.0115 -0.4765 -0.2472
 1158SOL    HW113053   2.730   4.177   2.535  0.7968  0.1484 -0.2860
 1158SOL    HW213054   2.800   4.033   2.506  0.2125 -0.2221  0.1270
 1161SOL     OW13055   8.535   7.302   1.950 -0.5019  0.2032  0.1079
 1161SOL    HW113056   8.600   7.350   2.009  1.1376 -2.0215  0.1293
 1161SOL    HW213057   8.584   7.245   1.885 -2.4102 -2.1272  0.6403
 1163SOL     OW13058   3.851   1.341   1.246 -0.6175  0.0196 -0.2791
 1163SOL    HW113059   3.822   1.306   1.335 -0.5620  0.9374  0.1093
 1163SOL    HW213060   3.888   1.266   1.192  0.2903 -0.3785  0.8576
 1164SOL     OW13061   1.606   2.272   0.417  0.2962  0.1802 -0.4436
 1164SOL    HW113062   1.578   2.232   0.329 -1.3424  1.2414 -0.4248
 1164SOL    HW213063   1.530   2.324   0.456  1.5164  1.0281  0.8650
 1167SOL     OW13064   9.599   5.310   1.329  0.0284  0.0758  0.1785
 1167SOL    HW113065   9.667   5.372   1.289  0.8268  0.7819  2.5282
 1167SOL    HW213066   9.643   5.225   1.356 -0.2690  0.0424  0.5635
 1168SOL     OW13067   3.955   9.055   0.130 -0.3001 -0.3834 -0.4632
 1168SOL    HW113068   3.983   9.069   0.225 -0.1863  2.8662 -0.9173
 1168SOL    HW213069   4.025   9.000   0.083  1.2701  0.7449  0.5048
 1170SOL     OW13070   0.452   1.146   1.996  0.0537  0.3869  0.3095
 1170SOL    HW113071   0.389   1.185   1.929 -0.0759  2.8891  1.8176
 1170SOL    HW213072   0.540   1.195   1.991 -0.2555  1.2293  2.5256
 1171SOL     OW13073   0.314   5.759   0.146 -0.0526 -0.4991 -0.4602
 1171SOL    HW113074   0.304   5.729   0.241 -0.1271 -0.2705 -0.3979
 1171SOL    HW213075   0.402   5.727   0.111 -0.4772 -1.4941 -0.6436
 1172SOL     OW13076   0.394   4.268   2.378  0.0420  0.2822  0.0018
 1172SOL    HW113077   0.478   4.323   2.379  0.4143 -0.2561 -1.3484
 1172SOL    HW213078   0.383   4.225   2.289 -1.4925  0.0545  0.2871
 1173SOL     OW13079   2.699   8.563   0.564 -0.2253  0.2295  0.2729
 1173SOL    HW113080   2.633   8.634   0.587 -1.1412 -0.7984  0.9057
 1173SOL    HW213081   2.735   8.522   0.648  0.7295  0.3392 -0.0763
 1174SOL     OW13082   2.647   0.285   0.332  0.4120  0.1592 -0.0970
 1174SOL    HW113083   2.645   0.348   0.410  0.3334  0.5575 -0.4158
 1174SOL    HW213084   2.555   0.253   0.312  0.4884 -0.2503  0.2237
 1175SOL     OW13085   2.047   0.874   2.370 -0.8174 -0.1148  0.3657
 1175SOL    HW113086   2.018   0.943   2.303  0.1373 -0.2598 -0.1999
 1175SOL    HW213087   2.079   0.792   2.322 -2.5158 -1.2166  1.0322
 1176SOL     OW13088   2.986   2.172   0.146  0.0612  0.1411 -0.0711
 1176SOL    HW113089   3.000   2.185   0.244  1.3437 -0.9195 -0.0954
 1176SOL    HW213090   2.952   2.080   0.129 -0.5115  0.4452 -0.6035
 1177SOL     OW13091   2.577   8.657   0.143 -0.3115 -0.1834  0.2740
 1177SOL    HW113092   2.663   8.695   0.176  1.4916 -0.5788 -3.6446
 1177SOL    HW213093   2.576   8.558   0.157 -0.7149 -0.0196  1.4692
 1181SOL     OW13094   2.466   7.041   0.662 -0.1388  0.3510  0.2520
 1181SOL    HW113095   2.484   7.131   0.622 -0.0590  0.3796  0.3513
 1181SOL    HW213096   2.512   7.035   0.751  0.4303 -0.0464 -0.0659
 1182SOL     OW13097   2.292   7.168   1.768 -0.0130  0.2763 -0.5470
 1182SOL    HW113098   2.228   7.188   1.694 -1.5124 -0.9274  0.3973
 1182SOL    HW213099   2.313   7.070   1.769 -1.1308  0.0358  1.4888
 1183SOL     OW13100   9.964   5.158   0.596 -0.4086  0.7900 -0.2561
 1183SOL    HW113101   9.931   5.064   0.597 -0.5768  0.8427 -0.5975
 1183SOL    HW213102   9.921   5.207   0.520 -0.5306  1.2141  0.0852
 1184SOL     OW13103   3.869   9.887   1.567  0.5784 -0.3610 -0.1715
 1184SOL    HW113104   3.800   9.914   1.500 -0.9904 -1.6621  0.8916
 1184SOL    HW213105   3.838   9.806   1.617  2.6122 -0.6162  0.7411
 1185SOL     OW13106   9.397   5.608   1.085 -0.4034  0.3452 -0.9821
 1185SOL    HW113107   9.328   5.575   1.020 -0.0642  0.8605 -1.6161
 1185SOL    HW213108   9.366   5.591   1.178 -1.3522  0.4909 -1.2591
 1187SOL     OW13109   9.782   5.992   1.539 -0.2180 -0.3734  0.1143
 1187SOL    HW113110   9.816   5.950   1.455 -3.0635  0.3130 -1.4222
 1187SOL    HW213111   9.833   5.956   1.617  1.0065 -2.6184 -1.6652
 1188SOL     OW13112   8.543   4.867   0.765  0.3683 -0.1011  0.0676
 1188SOL    HW113113   8.608   4.842   0.837  0.3150  0.3781  0.2855
 1188SOL    HW213114   8.557   4.963   0.740 -0.1550 -0.0384  0.0100
 1189SOL     OW13115   1.215   1.556   1.915  0.4287  0.4107  0.1271
 1189SOL    HW113116   1.241   1.652   1.899 -1.0203  0.9010  0.6373
 1189SOL    HW213117   1.290   1.496   1.887  0.7253  1.6012 -1.7206
 1190SOL     OW13118   4.007   0.282   2.164  0.2340 -0.1940  0.6737
 1190SOL    HW113119   4.073   0.313   2.096  0.3587  0.1341  0.9442
 1190SOL    HW213120   4.030   0.189   2.193  0.6169 -0.0515  0.8217
 1191SOL     OW13121   9.492   2.354   0.123  0.1666 -0.1654 -0.2103
 1191SOL    HW113122   9.494   2.376   0.221  0.1633  0.0422 -0.2557
 1191SOL    HW213123   9.482   2.256   0.111  1.7557 -0.3700  0.0186
 1192SOL     OW13124   0.570   1.267   2.334  0.3541 -0.2621  0.0236
 1192SOL    HW113125   0.540   1.339   2.396  1.0048 -0.1861  0.2517
 1192SOL    HW213126   0.647   1.300   2.278  0.5465 -0.7199  0.0108
 1193SOL     OW13127   2.165   5.206   1.471  0.2372 -0.4921  0.8005
 1193SOL    HW113128   2.223   5.194   1.390  0.4681  0.7676  0.7791
 1193SOL    HW213129   2.213   5.169   1.551  0.5192 -0.6434  0.5641
 1195SOL     OW13130   3.763   0.970   1.314  0.6259 -0.4980  0.6116
 1195SOL    HW113131   3.850   0.922   1.322  0.4161 -1.2775 -1.5579
 1195SOL    HW213132   3.688   0.905   1.323  0.3020 -0.2422 -0.2388
 1196SOL     OW13133   9.064   0.539   1.875 -0.3592  0.3934  0.0646
 1196SOL    HW113134   9.079   0.518   1.971 -1.3897 -0.7262 -0.0015
 1196SOL    HW213135   9.068   0.638   1.861  1.2117  0.4634  0.9942
 1197SOL     OW13136   8.464   5.456   0.776  0.1403  0.2451 -0.0183
 1197SOL    HW113137   8.492   5.425   0.867  0.7755  0.5787 -0.0948
 1197SOL    HW213138   8.492   5.551   0.763 -0.1215  0.2612 -0.4908
 1198SOL     OW13139   9.019   2.838   1.980  0.1782 -0.4647 -0.1547
 1198SOL    HW113140   8.932   2.797   1.950  1.6636 -2.8082 -1.3955
 1198SOL    HW213141   9.025   2.932   1.945 -1.0105 -0.9387 -1.6961
 1199SOL     OW13142   3.559   9.763   0.574 -0.1942 -0.0892 -0.1921
 1199SOL    HW113143   3.532   9.745   0.480  1.9799  1.9370 -1.2560
 1199SOL    HW213144   3.646   9.716   0.593 -1.3320 -1.6546  1.2780
 1200SOL     OW13145   3.858   2.950   0.944  0.4790 -0.1141  0.0898
 1200SOL    HW113146   3.802   3.019   0.897  0.2996  0.2293  0.8003
 1200SOL    HW213147   3.857   2.865   0.891 -0.0222  0.1535 -0.3408
 1202SOL     OW13148   0.801   0.418   1.828 -0.1766  0.1918  0.2134
 1202SOL    HW113149   0.826   0.459   1.741  0.1950  0.5819  0.5048
 1202SOL    HW213150   0.881   0.414   1.888 -0.4737  0.1036  0.6084
 1203SOL     OW13151   9.796   0.143   1.382  0.5774 -0.3849  0.4245
 1203SOL    HW113152   9.847   0.129   1.297 -1.0738 -0.4485 -0.5745
 1203SOL    HW213153   9.826   0.228   1.426 -0.9296  1.4697 -1.9984
 1204SOL     OW13154   4.342   1.522   0.163 -0.0755 -0.0485 -0.0920
 1204SOL    HW113155   4.360   1.599   0.224 -0.1542  0.4601 -0.7051
 1204SOL    HW213156   4.326   1.439   0.217  0.5324  0.2519  0.5549
 1205SOL     OW13157   1.559   6.663   1.426 -0.0281 -0.3878  0.1831
 1205SOL    HW113158   1.627   6.655   1.354 -0.6697  1.8690 -0.7201
 1205SOL    HW213159   1.598   6.712   1.504  0.0512 -1.0359  0.5518
 1206SOL     OW13160   0.339   0.470   0.141  0.3510 -0.0672 -0.5476
 1206SOL    HW113161   0.262   0.461   0.077 -0.4182  1.0046  0.2017
 1206SOL    HW213162   0.311   0.527   0.218  0.5580 -3.1572  1.9043
 1207SOL     OW13163   8.288   7.003   1.120 -0.3242 -0.0957 -0.2423
 1207SOL    HW113164   8.220   7.074   1.104 -0.2261  0.0012 -0.2352
 1207SOL    HW213165   8.274   6.927   1.056 -1.0229 -0.5022  0.3912
 1209SOL     OW13166   8.696   7.223   1.052  0.6613 -0.1091 -0.4740
 1209SOL    HW113167   8.670   7.317   1.075 -1.6742 -0.9161  0.3575
 1209SOL    HW213168   8.698   7.212   0.953 -0.2552  0.5066 -0.5633
 1210SOL     OW13169   2.042   3.963   1.073  0.4158 -0.2623  0.6637
 1210SOL    HW113170   1.982   3.904   1.020  0.7087 -0.0494  0.0873
 1210SOL    HW213171   1.992   4.001   1.151  0.1385 -1.0157  0.8574
 1211SOL     OW13172   2.116   4.925   2.563  0.1182 -0.7664 -0.9921
 1211SOL    HW113173   2.105   4.829   2.590 -0.4456 -0.0526  1.3778
 1211SOL    HW213174   2.063   4.983   2.624 -0.6453  0.9761 -3.2337
 1212SOL     OW13175   2.410   7.611   2.602  0.2057 -0.3698  0.2127
 1212SOL    HW113176   2.494   7.566   2.632  1.9419  2.4574 -0.2572
 1212SOL    HW213177   2.337   7.590   2.667  0.6580 -4.5034 -0.4312
 1213SOL     OW13178   9.298   8.990   0.050 -0.5754  0.1362 -0.4977
 1213SOL    HW113179   9.308   8.974  -0.049 -0.5463  0.4523 -0.5486
 1213SOL    HW213180   9.269   8.906   0.095  0.3008 -0.2536 -0.6468
 1215SOL     OW13181   7.493   9.339   1.022  0.3888 -0.3617  0.0169
 1215SOL    HW113182   7.496   9.294   1.112 -0.9462 -0.2906  0.1062
 1215SOL    HW213183   7.570   9.306   0.966 -0.4797 -2.6913  0.1203
 1216SOL     OW13184   1.136   9.923   2.234 -0.5325  0.2583 -0.7042
 1216SOL    HW113185   1.131  10.022   2.246  1.6178  0.5237 -1.8360
 1216SOL    HW213186   1.162   9.880   2.321 -0.9447  0.7224 -0.3453
 1217SOL     OW13187   9.590   0.256   0.264  0.4193  0.3017  0.3675
 1217SOL    HW113188   9.538   0.316   0.203 -3.0651 -0.3198  2.5755
 1217SOL    HW213189   9.657   0.309   0.315  1.5627  1.2511 -2.0422
 1218SOL     OW13190   0.523   0.534   1.854 -0.1343  0.1866 -0.2640
 1218SOL    HW113191   0.611   0.491   1.833 -1.0507 -0.6474 -2.5295
 1218SOL    HW213192   0.539   0.628   1.883  1.6446 -0.5689  1.2924
 1219SOL     OW13193   0.880   0.653   2.587  0.5260 -0.2506  0.2674
 1219SOL    HW113194   0.837   0.706   2.514  0.5201 -0.3482  0.1997
 1219SOL    HW213195   0.899   0.712   2.665 -1.3418 -0.5599  0.9766
 1220SOL     OW13196   7.769   9.152   1.811 -0.3042  0.4294 -0.1235
 1220SOL    HW113197   7.748   9.250   1.818 -1.7746  0.3708 -2.9670
 1220SOL    HW213198   7.848   9.139   1.751  0.1015 -0.1231  0.5278
 1221SOL     OW13199   1.288   7.810   0.948 -0.3219 -0.5010 -0.6484
 1221SOL    HW113200   1.204   7.760   0.926 -1.1029  0.0461  0.9819
 1221SOL    HW213201   1.328   7.848   0.865 -0.9852 -1.8568 -1.6023
 1222SOL     OW13202   2.266   0.418   2.238 -0.1687 -0.1212  0.1252
 1222SOL    HW113203   2.365   0.405   2.244 -0.0849  0.3503 -0.2360
 1222SOL    HW213204   2.223   0.388   2.323  0.2527 -0.6319  0.1603
 1223SOL     OW13205   0.753   3.017   2.590 -0.1143  0.4635  0.4732
 1223SOL    HW113206   0.715   3.103   2.554  0.2672  0.9399  1.2064
 1223SOL    HW213207   0.742   3.014   2.689 -1.4041 -0.9796  0.3055
 1224SOL     OW13208   2.736   2.816   0.754  0.2228  0.3531  0.2355
 1224SOL    HW113209   2.703   2.888   0.815  0.7327  0.2405  0.6490
 1224SOL    HW213210   2.807   2.763   0.800 -0.6761 -0.8932  0.1902
 1227SOL     OW13211   3.113   2.452   2.342 -0.4150 -0.4273  0.2342
 1227SOL    HW113212   3.117   2.522   2.271  0.5867  1.1230  1.7658
 1227SOL    HW213213   3.182   2.382   2.325 -0.8889 -0.6307 -0.8733
 1228SOL     OW13214   8.711   1.537   1.616 -0.1050  0.2128  0.1113
 1228SOL    HW113215   8.645   1.607   1.589 -1.4512 -0.9880  0.2536
 1228SOL    HW213216   8.797   1.581   1.641 -0.2535  1.6737 -1.8087
 1229SOL     OW13217   1.984   0.157   2.364  0.1826  0.6418  0.0514
 1229SOL    HW113218   2.035   0.237   2.398 -0.8693  1.1250  0.5371
 1229SOL    HW213219   2.048   0.088   2.331  1.1195  1.6018 -0.1748
 1230SOL     OW13220   4.067   9.863   1.748  0.3769  0.2657 -0.1941
 1230SOL    HW113221   4.149   9.886   1.695 -0.0166 -0.1730 -0.9998
 1230SOL    HW213222   3.986   9.874   1.691  0.0072 -1.0243  0.0675
 1231SOL     OW13223   1.362   1.068   1.014  0.1112 -0.0880 -0.5113
 1231SOL    HW113224   1.395   1.157   0.984  0.7069 -0.1722 -0.1093
 1231SOL    HW213225   1.263   1.062   0.999  0.1374  0.4928 -0.8960
 1233SOL     OW13226   9.800   5.287   0.412  0.4939 -0.4198 -0.2109
 1233SOL    HW113227   9.744   5.240   0.344 -0.8192 -0.0779  0.6142
 1233SOL    HW213228   9.846   5.365   0.369 -0.8077  0.1483 -0.5703
 1234SOL     OW13229   4.254   2.692   1.657  0.1413 -0.1184  0.3546
 1234SOL    HW113230   4.331   2.665   1.599 -0.9492 -2.0335 -0.2520
 1234SOL    HW213231   4.288   2.722   1.747  1.6868  0.7989 -0.5093
 1235SOL     OW13232   0.205   3.109   1.075  0.2279 -0.0732 -0.4600
 1235SOL    HW113233   0.195   3.162   0.991  0.5245  0.6515 -0.0465
 1235SOL    HW213234   0.284   3.047   1.067  0.7211  0.5500 -0.4273
 1236SOL     OW13235   9.579   9.287   2.546 -0.3288  0.1569 -0.4442
 1236SOL    HW113236   9.541   9.249   2.463  0.4640  0.0795 -0.7786
 1236SOL    HW213237   9.507   9.334   2.598 -0.5804  1.3200 -1.8050
 1239SOL     OW13238   7.752   8.110   2.655  0.4593 -0.1509  0.2633
 1239SOL    HW113239   7.670   8.070   2.613  2.5256 -0.9270 -3.2376
 1239SOL    HW213240   7.810   8.037   2.691  0.3608  0.2953  1.3451
 1240SOL     OW13241   0.896   4.563   1.905 -0.3105  0.4662 -0.1531
 1240SOL    HW113242   0.903   4.494   1.977  0.8174  0.2305 -0.4806
 1240SOL    HW213243   0.825   4.537   1.840 -0.6260  0.1601  0.3135
 1243SOL     OW13244   9.211   0.296   0.934 -0.0530  0.0675  0.2058
 1243SOL    HW113245   9.292   0.241   0.919 -0.1716 -0.2905  0.8481
 1243SOL    HW213246   9.202   0.363   0.861 -1.1990 -2.2915 -1.8841
 1246SOL     OW13247   0.226   3.362   1.974  0.2014  0.1531  0.2231
 1246SOL    HW113248   0.224   3.421   1.893  2.3266  0.1790  0.1579
 1246SOL    HW213249   0.321   3.348   2.003 -0.5058 -0.2373  2.4435
 1247SOL     OW13250   9.174   3.066   1.288 -0.0542 -0.2320  0.3751
 1247SOL    HW113251   9.118   3.134   1.335  0.1264  0.7582 -0.7971
 1247SOL    HW213252   9.240   3.113   1.230  0.2820 -1.4171 -0.2031
 1248SOL     OW13253   9.481   4.541   1.274  0.8855 -0.2283 -0.2912
 1248SOL    HW113254   9.547   4.614   1.291  2.3437 -1.3820 -0.8734
 1248SOL    HW213255   9.390   4.581   1.258  0.8194  1.2277  3.2992
 1249SOL     OW13256   4.082   0.913   2.028  1.0509  0.2587 -0.4184
 1249SOL    HW113257   4.180   0.895   2.028  1.2893  1.3124  2.7676
 1249SOL    HW213258   4.033   0.834   2.065  0.6651 -0.2461 -1.9543
 1251SOL     OW13259   8.337   6.883   0.023 -0.0991  0.0943  0.0445
 1251SOL    HW113260   8.422   6.894  -0.029  0.3708 -1.8176  0.3578
 1251SOL    HW213261   8.275   6.823  -0.027 -0.6937  0.3219  0.4970
 1252SOL     OW13262   1.764   3.164   0.373  0.4075 -0.2027 -0.1879
 1252SOL    HW113263   1.765   3.260   0.347  1.1931 -0.0381  0.4174
 1252SOL    HW213264   1.673   3.138   0.406 -0.1866 -0.0391 -1.6980
 1253SOL     OW13265   8.626   0.463   0.418  0.1487 -0.5874  0.0377
 1253SOL    HW113266   8.578   0.458   0.506 -0.6037  1.6366 -0.2134
 1253SOL    HW213267   8.709   0.517   0.429  1.0688 -1.9296 -0.2066
 1254SOL     OW13268   0.772   7.138   0.100  0.8715 -0.1359  0.1201
 1254SOL    HW113269   0.770   7.238   0.094  1.0274 -0.0708  1.0423
 1254SOL    HW213270   0.679   7.103   0.100  0.8024  0.0450  0.2187
 1255SOL     OW13271   8.849   0.450   1.697  0.1795 -0.1307  0.1017
 1255SOL    HW113272   8.908   0.486   1.769  0.9122 -0.6100 -0.2521
 1255SOL    HW213273   8.870   0.496   1.610 -0.2571 -0.0055  0.0599
 1257SOL     OW13274   8.781   4.726   1.818 -0.2310  0.2399  0.7297
 1257SOL    HW113275   8.721   4.798   1.783  0.7181  1.0749  0.7780
 1257SOL    HW213276   8.731   4.670   1.884 -1.1992  0.3868  0.1379
 1258SOL     OW13277   1.688   2.863   0.267 -0.3871  0.2439  0.7360
 1258SOL    HW113278   1.753   2.862   0.191 -0.9758  2.7007  0.1328
 1258SOL    HW213279   1.738   2.871   0.354  0.1802  0.2835  0.4066
 1260SOL     OW13280   0.914   3.734   1.397 -0.4143  0.0856 -0.0280
 1260SOL    HW113281   0.982   3.696   1.459  1.6527  0.9544 -1.7108
 1260SOL    HW213282   0.911   3.833   1.408 -1.2762  0.0776 -0.1277
 1261SOL     OW13283   0.105   4.289   0.246  0.0345 -0.6223 -0.1818
 1261SOL    HW113284   0.023   4.232   0.252 -0.3736  0.1655  2.1745
 1261SOL    HW213285   0.147   4.298   0.336  2.2982 -0.3800 -1.2290
 1265SOL     OW13286   4.460   8.129   0.273 -0.3173 -0.3385  0.3820
 1265SOL    HW113287   4.419   8.184   0.346 -2.4610 -1.0284 -0.2789
 1265SOL    HW213288   4.503   8.048   0.314  0.0707  0.1952  1.0480
 1266SOL     OW13289   1.276   4.393   1.988 -0.2849 -0.6927  0.2099
 1266SOL    HW113290   1.284   4.445   2.073 -1.7224  0.3534 -0.2601
 1266SOL    HW213291   1.227   4.308   2.006  0.0423 -0.8094  0.5578
 1267SOL     OW13292   3.484   7.890   0.682 -0.0831  0.0888 -0.3636
 1267SOL    HW113293   3.579   7.857   0.674 -0.9191 -1.7909 -3.4130
 1267SOL    HW213294   3.433   7.828   0.742 -0.1093 -0.6065 -1.0962
 1268SOL     OW13295   0.606   4.165   1.325  0.3882 -0.1273  0.1296
 1268SOL    HW113296   0.642   4.100   1.258 -1.2960 -0.8336 -0.0930
 1268SOL    HW213297   0.657   4.156   1.411 -0.0963 -2.0128  0.2305
 1269SOL     OW13298   2.479   0.531   1.340  0.6141 -0.3465  0.5937
 1269SOL    HW113299   2.504   0.592   1.265 -3.1964 -0.6316 -1.0233
 1269SOL    HW213300   2.532   0.446   1.333  0.1030 -0.5004 -1.9883
 1271SOL     OW13301   3.614   9.107   1.387  0.0064 -0.0938 -0.8188
 1271SOL    HW113302   3.628   9.015   1.422 -0.3477  1.0276  2.3703
 1271SOL    HW213303   3.520   9.136   1.405  1.0021  2.0794  1.1584
 1272SOL     OW13304   3.358   5.706   2.053 -0.2277  0.0588  0.3993
 1272SOL    HW113305   3.408   5.624   2.081 -0.0773  0.1552  0.4140
 1272SOL    HW213306   3.363   5.775   2.125 -1.6206 -0.4644  1.0236
 1276SOL     OW13307   1.163   8.086   0.030 -0.2668  0.1624 -0.3696
 1276SOL    HW113308   1.138   8.066  -0.065 -2.0821 -0.7290  0.2776
 1276SOL    HW213309   1.093   8.051   0.091  0.5334  1.3770  1.2818
 1279SOL     OW13310   9.595   3.761   1.403  0.3110 -0.0607 -0.3173
 1279SOL    HW113311   9.536   3.841   1.414 -2.0650 -1.6316 -1.3386
 1279SOL    HW213312   9.643   3.766   1.315  0.6671  0.5422 -0.0912
 1280SOL     OW13313   3.449   7.736   1.185  0.1210  0.3008  0.2847
 1280SOL    HW113314   3.517   7.665   1.196  0.9167  0.9202 -0.6136
 1280SOL    HW213315   3.455   7.800   1.262  1.0294  0.7501 -0.1567
 1281SOL     OW13316   8.066   1.604   1.830 -0.2025 -0.3923  0.1999
 1281SOL    HW113317   7.991   1.668   1.815 -1.2121 -1.6192 -0.0360
 1281SOL    HW213318   8.040   1.538   1.900  1.4777  0.4720  1.6839
 1282SOL     OW13319   8.636   5.965   0.731 -0.3870 -0.2505 -0.2080
 1282SOL    HW113320   8.687   6.048   0.712 -2.4755  1.5212  1.5864
 1282SOL    HW213321   8.541   5.989   0.754 -0.6771 -2.9924  1.7104
 1283SOL     OW13322   1.750   8.071   0.811  0.2923  0.8240  0.0485
 1283SOL    HW113323   1.731   8.120   0.895 -0.8448 -0.2271  0.4221
 1283SOL    HW213324   1.699   7.985   0.810  0.7643  0.5388 -1.4368
 1284SOL     OW13325   2.854   6.692   1.103 -0.3034  0.0687  0.0238
 1284SOL    HW113326   2.943   6.738   1.108  0.4791 -1.4828  0.6437
 1284SOL    HW213327   2.782   6.756   1.130  0.5630  1.5069 -1.0143
 1285SOL     OW13328   4.331   1.393   2.124  0.5720 -0.2471  0.1993
 1285SOL    HW113329   4.381   1.479   2.119  2.7334 -1.4963 -0.6234
 1285SOL    HW213330   4.373   1.327   2.062 -0.4774 -2.1873  1.5093
 1286SOL     OW13331   2.303   5.350   2.472  0.4526  0.0037  0.0213
 1286SOL    HW113332   2.251   5.275   2.512  0.8536 -2.1222 -3.1877
 1286SOL    HW213333   2.401   5.334   2.485  0.5178  0.3676 -0.0032
 1287SOL     OW13334   8.077   3.275   1.337 -0.1320 -0.1930 -0.5773
 1287SOL    HW113335   8.034   3.240   1.421  2.5182 -1.1864  0.4473
 1287SOL    HW213336   8.117   3.364   1.355 -1.0284  0.3577 -1.2864
 1291SOL     OW13337   2.802   0.741   1.468  0.0008 -0.0032 -0.0785
 1291SOL    HW113338   2.874   0.672   1.477 -0.5597 -0.6536 -0.4375
 1291SOL    HW213339   2.715   0.702   1.500 -0.3002  0.5768 -0.1761
 1292SOL     OW13340   8.312   3.059   2.433  0.2799 -0.1786  0.5254
 1292SOL    HW113341   8.309   3.127   2.361 -1.2284 -0.9001 -0.1086
 1292SOL    HW213342   8.380   3.086   2.502  0.3186  1.4990 -0.1540
 1296SOL     OW13343   9.966   7.582   1.055 -0.2012 -0.1655 -0.2565
 1296SOL    HW113344  10.062   7.551   1.052 -0.2836 -0.5201  0.5902
 1296SOL    HW213345   9.945   7.616   1.147 -1.3788 -1.6788  0.0504
 1297SOL     OW13346   2.813   6.963   0.388  0.0596  0.0540 -0.1741
 1297SOL    HW113347   2.755   6.888   0.358  0.0170  0.2779 -0.6530
 1297SOL    HW213348   2.782   7.048   0.347  0.9194  0.1228 -0.6979
 1298SOL     OW13349   9.884   9.471   0.246 -0.6089  0.4508 -0.2217
 1298SOL    HW113350   9.910   9.484   0.150 -0.2475 -0.7158 -0.2887
 1298SOL    HW213351   9.791   9.435   0.249 -0.6883  0.6645 -0.1247
 1299SOL     OW13352   7.997   9.740   2.176 -0.4014  0.2168 -0.5515
 1299SOL    HW113353   7.921   9.769   2.235 -0.5032  0.9131 -1.0130
 1299SOL    HW213354   7.970   9.659   2.124 -0.0776 -0.8020  0.8417
 1300SOL     OW13355   1.787   7.961   0.549  0.1289  0.5850 -0.1025
 1300SOL    HW113356   1.783   7.963   0.649  1.7197 -2.2623  0.0771
 1300SOL    HW213357   1.793   8.054   0.514  2.6541  1.5254  2.6215
 1302SOL     OW13358   3.791   3.508   2.325  0.0698  0.6869 -0.1326
 1302SOL    HW113359   3.773   3.481   2.420 -0.4954  3.1199  0.4943
 1302SOL    HW213360   3.887   3.491   2.303 -0.1604 -1.3897  0.3329
 1303SOL     OW13361   9.383   9.452   1.180  0.2288 -0.7060  0.3222
 1303SOL    HW113362   9.418   9.486   1.093 -0.6852 -2.8376 -0.9257
 1303SOL    HW213363   9.318   9.518   1.218  3.1369  1.8070  1.1161
 1304SOL     OW13364   9.918   5.789   1.377 -0.3811 -0.0795 -0.0277
 1304SOL    HW113365   9.998   5.846   1.394  1.0903 -1.7282 -1.3212
 1304SOL    HW213366   9.917   5.760   1.281 -1.3828 -1.8365  0.4836
 1305SOL     OW13367   8.795   4.960   0.492  0.4925 -0.0195  0.3604
 1305SOL    HW113368   8.875   5.004   0.452 -0.3524  0.4248 -0.9133
 1305SOL    HW213369   8.754   5.021   0.561  0.3311  0.4616 -0.1508
 1306SOL     OW13370   2.147   9.964   2.209 -0.0078 -0.6987 -0.0206
 1306SOL    HW113371   2.181   9.870   2.215  1.0718 -0.2654  0.8819
 1306SOL    HW213372   2.199  10.014   2.139  1.6262  0.1006  1.6893
 1307SOL     OW13373   2.303   1.421   2.033 -0.0854  0.0094 -0.5750
 1307SOL    HW113374   2.244   1.344   2.008 -0.5082  0.4777 -1.0044
 1307SOL    HW213375   2.397   1.400   2.005 -0.2485 -0.2264 -0.9485
 1308SOL     OW13376   3.630   8.515   1.116 -0.2454 -0.5472  0.3465
 1308SOL    HW113377   3.570   8.521   1.037  1.3643  0.0243 -0.8655
 1308SOL    HW213378   3.653   8.420   1.135 -1.0476 -0.7192  0.4384
 1309SOL     OW13379   2.296   3.022   1.246  0.4591  0.4193  0.2922
 1309SOL    HW113380   2.207   2.978   1.259  0.3634  0.4548 -0.2400
 1309SOL    HW213381   2.283   3.117   1.218  0.6651  0.3786  0.0581
 1310SOL     OW13382   2.407   8.093   0.044  0.3436  0.0368  0.0685
 1310SOL    HW113383   2.318   8.126   0.078 -0.2765 -0.2337 -1.2782
 1310SOL    HW213384   2.404   7.994   0.035  1.0156 -0.0384  0.6628
 1311SOL     OW13385   1.647   9.183   0.012  0.0010 -0.6010  0.2279
 1311SOL    HW113386   1.580   9.177  -0.061 -0.5661 -0.0004  0.6945
 1311SOL    HW213387   1.736   9.208  -0.026 -1.2615  4.3557  0.2288
 1312SOL     OW13388   0.978   5.870   1.867 -0.2110 -0.4866 -0.1148
 1312SOL    HW113389   1.029   5.938   1.920  0.1948 -0.1259 -0.9587
 1312SOL    HW213390   0.888   5.856   1.908 -0.5418  1.0215 -0.2973
 1313SOL     OW13391   4.710   1.170   2.315 -0.4035  0.5863  0.1789
 1313SOL    HW113392   4.649   1.200   2.388  1.9659  1.6628  1.7802
 1313SOL    HW213393   4.802   1.155   2.352  0.0882 -2.0804 -1.9541
 1314SOL     OW13394   4.486   2.457   2.148 -0.0991 -0.2829  0.5279
 1314SOL    HW113395   4.493   2.364   2.184 -0.4906  0.0177  1.4133
 1314SOL    HW213396   4.470   2.520   2.224  1.0614  0.6166  0.0216
 1315SOL     OW13397   3.860   2.903   1.920 -0.3872 -0.0040 -0.6318
 1315SOL    HW113398   3.865   2.953   2.007 -1.2822 -2.0776  0.6450
 1315SOL    HW213399   3.823   2.964   1.849  1.9277  2.2197 -0.0148
 1316SOL     OW13400   9.888   5.096   1.150 -0.0186 -0.1346  0.0711
 1316SOL    HW113401   9.859   5.178   1.100 -0.8679 -0.5730 -0.1737
 1316SOL    HW213402   9.975   5.114   1.196  0.5873  0.3945 -1.2594
 1317SOL     OW13403   9.403   2.444   0.863  0.5739 -0.3431 -0.1500
 1317SOL    HW113404   9.429   2.540   0.855  0.6894 -0.0770  2.6873
 1317SOL    HW213405   9.478   2.393   0.904 -0.3793 -1.1273  0.6644
 1318SOL     OW13406   8.492   9.360   1.667  0.2924  0.9764 -0.2501
 1318SOL    HW113407   8.507   9.270   1.709 -1.1165  0.8910  0.0714
 1318SOL    HW213408   8.504   9.353   1.568  0.6432  0.5388 -0.1802
 1319SOL     OW13409   8.896   3.676   1.628 -0.1547  0.1096  0.6336
 1319SOL    HW113410   8.990   3.646   1.648 -0.6143 -1.5577  0.4202
 1319SOL    HW213411   8.842   3.596   1.600 -0.9331  1.4873 -1.9145
 1320SOL     OW13412   8.126   0.658   0.490 -0.0164 -0.2908 -0.0789
 1320SOL    HW113413   8.127   0.665   0.391 -2.6023  1.2247 -0.0407
 1320SOL    HW213414   8.220   0.662   0.525  0.8341  0.3194 -2.3723
 1321SOL     OW13415   9.349   2.391   1.232 -0.4391  0.2164  0.2176
 1321SOL    HW113416   9.253   2.381   1.258 -0.2741  0.3275  0.8743
 1321SOL    HW213417   9.364   2.481   1.192 -0.3809  0.6329  1.1518
 1322SOL     OW13418   8.328   6.454   1.287 -0.0047 -0.2857 -0.1099
 1322SOL    HW113419   8.410   6.445   1.231  2.0609  0.7567  2.6365
 1322SOL    HW213420   8.285   6.364   1.298  0.8453 -0.8664 -1.3869
 1323SOL     OW13421   8.020   0.439   0.605  0.5498 -0.0937  0.0150
 1323SOL    HW113422   8.023   0.363   0.540 -0.3098 -0.0782 -0.0500
 1323SOL    HW213423   8.056   0.522   0.561 -0.5271  0.0463 -0.6292
 1324SOL     OW13424   4.641   9.738   0.684  0.2170  0.9139  0.6494
 1324SOL    HW113425   4.616   9.823   0.637 -1.4797 -0.6317 -1.2889
 1324SOL    HW213426   4.720   9.756   0.742  1.1801  3.3564 -1.2795
 1326SOL     OW13427   2.603   9.541   1.381  0.4201  0.1045 -0.2762
 1326SOL    HW113428   2.650   9.540   1.470  0.0112  0.1274 -0.0557
 1326SOL    HW213429   2.515   9.588   1.391  0.0080 -0.6117 -0.5012
 1327SOL     OW13430   1.751   0.364   2.543  0.6075  0.4807  0.1068
 1327SOL    HW113431   1.653   0.347   2.559  0.4918  0.9201 -0.1023
 1327SOL    HW213432   1.796   0.384   2.630  0.8300 -1.2523  0.4071
 1328SOL     OW13433   2.669   9.193   0.184 -0.0952  0.3375  0.2731
 1328SOL    HW113434   2.572   9.169   0.172 -0.4033  0.5182  2.1764
 1328SOL    HW213435   2.723   9.151   0.111 -1.5319 -0.2682 -0.4663
 1330SOL     OW13436   9.812   8.769   2.134  0.1333  0.1577  0.7619
 1330SOL    HW113437   9.873   8.717   2.193 -1.3823 -0.7724  1.5422
 1330SOL    HW213438   9.769   8.708   2.068  1.2080  1.0631 -0.8068
 1331SOL     OW13439   0.491   0.922   0.927 -0.7480 -0.6976 -0.1348
 1331SOL    HW113440   0.513   0.827   0.948  2.4885 -0.5196 -2.5125
 1331SOL    HW213441   0.420   0.925   0.857 -0.3617 -1.3549 -0.5536
 1332SOL     OW13442   2.969   4.357   1.223 -0.2949 -0.1275  0.0498
 1332SOL    HW113443   2.936   4.265   1.200  0.1323  0.1542 -1.7605
 1332SOL    HW213444   3.055   4.349   1.273  0.0178 -0.7143 -0.5688
 1333SOL     OW13445   0.829   1.038   1.265  0.0668 -0.0319 -0.2587
 1333SOL    HW113446   0.928   1.051   1.256  0.1229 -0.2275  0.0605
 1333SOL    HW213447   0.792   1.108   1.326 -0.4236  1.7387 -2.4934
 1335SOL     OW13448   7.514   1.362   1.733  0.0517  0.3003  0.1703
 1335SOL    HW113449   7.434   1.322   1.687  1.4554 -0.9459 -1.2501
 1335SOL    HW213450   7.541   1.304   1.810 -0.9000  1.1579  1.1571
 1336SOL     OW13451   1.566   4.683   2.070  0.5849 -0.7064  0.0395
 1336SOL    HW113452   1.634   4.737   2.120  1.1893 -0.5708 -0.9241
 1336SOL    HW213453   1.608   4.598   2.038 -0.0139 -1.1517  0.4379
 1337SOL     OW13454   0.644   7.069   1.705 -0.6095  0.3262 -0.4841
 1337SOL    HW113455   0.718   7.084   1.771  0.2308 -0.0775 -1.3141
 1337SOL    HW213456   0.683   7.065   1.613 -1.2876 -2.6970 -0.6920
 1338SOL     OW13457   8.407   8.094   1.485 -0.0709 -0.1604  0.1560
 1338SOL    HW113458   8.490   8.063   1.532 -1.0641 -4.1581 -0.5544
 1338SOL    HW213459   8.327   8.063   1.536 -1.1744  1.7511 -0.3690
 1341SOL     OW13460   9.395   7.291   1.882 -0.1958 -0.0728  0.2173
 1341SOL    HW113461   9.353   7.201   1.872 -0.1202 -0.2464  1.4043
 1341SOL    HW213462   9.350   7.341   1.957  0.5019  0.4378  0.3005
 1342SOL     OW13463   2.935   3.772   1.525 -0.2715 -0.3476 -0.0811
 1342SOL    HW113464   2.897   3.706   1.590  0.1350  1.3793  1.9630
 1342SOL    HW213465   2.899   3.863   1.545  1.4870  0.5583 -0.9477
 1343SOL     OW13466   9.152   2.755   0.947 -0.4247 -0.5283 -0.3752
 1343SOL    HW113467   9.084   2.681   0.943 -2.1989  0.8368  3.0750
 1343SOL    HW213468   9.110   2.838   0.984  2.6270  0.9678 -0.0750
 1344SOL     OW13469   3.944   3.869   2.396  0.3567  0.2126 -0.3520
 1344SOL    HW113470   3.848   3.887   2.374 -0.1281  0.6428  1.9880
 1344SOL    HW213471   3.996   3.953   2.383  0.4030  0.0133 -1.5031
 1346SOL     OW13472   0.440   8.558   1.839  0.6342  0.0920  0.1115
 1346SOL    HW113473   0.396   8.472   1.863  0.8404 -0.3793 -1.1754
 1346SOL    HW213474   0.378   8.613   1.784  0.0830  1.2672  1.8530
 1347SOL     OW13475   3.902   1.296   0.865 -0.4006 -0.3851  0.0455
 1347SOL    HW113476   3.976   1.355   0.898 -0.1498 -1.1605  0.8771
 1347SOL    HW213477   3.850   1.345   0.795 -1.1185  1.4070  1.7951
 1348SOL     OW13478   9.882   8.997   1.245  0.2177  0.2412 -0.4671
 1348SOL    HW113479   9.932   8.949   1.173 -0.2159  1.3122 -1.4983
 1348SOL    HW213480   9.816   9.060   1.203  0.4390  1.3739  0.8502
 1349SOL     OW13481   4.214   0.531   2.104 -0.1943  0.9633  0.4488
 1349SOL    HW113482   4.228   0.496   2.012 -1.9269  0.6209  0.2940
 1349SOL    HW213483   4.295   0.512   2.160  0.9783  1.4248 -1.0568
 1351SOL     OW13484   1.300   4.556   0.112  0.1374 -0.6837  0.3060
 1351SOL    HW113485   1.385   4.506   0.097  0.8060  0.3150  0.6754
 1351SOL    HW213486   1.290   4.626   0.041  1.3892  1.5084  2.2155
 1352SOL     OW13487   7.930   0.892   0.518  0.2272  0.0359 -0.0575
 1352SOL    HW113488   8.003   0.824   0.520  0.9849  0.8361 -0.3366
 1352SOL    HW213489   7.968   0.982   0.497 -0.8249  0.4802 -0.1101
 1353SOL     OW13490   2.527   6.557   1.882  0.2909 -0.7682 -0.2787
 1353SOL    HW113491   2.536   6.633   1.818 -0.9086 -0.1670  0.2618
 1353SOL    HW213492   2.465   6.488   1.843  0.3449 -0.8625 -0.1987
 1356SOL     OW13493   0.033   5.592   2.430  0.1218  0.2671 -0.2848
 1356SOL    HW113494  -0.031   5.655   2.474 -0.3078  0.9597 -1.8484
 1356SOL    HW213495  -0.004   5.499   2.432 -0.4585  0.5003 -0.2910
 1360SOL     OW13496   8.512   8.642   2.439 -0.3271 -0.3769  0.2319
 1360SOL    HW113497   8.560   8.730   2.437 -0.5346 -0.2796 -1.5814
 1360SOL    HW213498   8.578   8.568   2.422 -0.8923 -0.1734 -3.2320
 1361SOL     OW13499   8.003   1.833   2.235 -0.1394  0.0848 -0.6672
 1361SOL    HW113500   8.097   1.867   2.248 -0.4918  0.5134  0.8402
 1361SOL    HW213501   7.996   1.741   2.274 -0.4117  0.1422 -0.5848
 1362SOL     OW13502   2.675   8.351   0.422 -0.0309 -0.2139  0.6742
 1362SOL    HW113503   2.646   8.368   0.328  1.8199  0.6105  0.2296
 1362SOL    HW213504   2.682   8.439   0.471  1.9214 -0.3426  0.6816
 1363SOL     OW13505   8.563   7.520   0.362 -0.8461 -0.2033 -0.1359
 1363SOL    HW113506   8.511   7.604   0.345 -2.2602 -0.6344  1.7730
 1363SOL    HW213507   8.520   7.444   0.314  0.4053  0.1365 -1.8246
 1365SOL     OW13508   3.542   3.520   0.680  0.4562  0.1733 -0.0679
 1365SOL    HW113509   3.610   3.498   0.751  0.9231 -2.3110 -1.2243
 1365SOL    HW213510   3.564   3.469   0.597 -0.8629  2.0290 -1.5786
 1366SOL     OW13511   7.903   0.876   2.134  0.1902 -0.6140  0.3728
 1366SOL    HW113512   8.001   0.889   2.145  0.2124 -0.2768 -0.2569
 1366SOL    HW213513   7.860   0.963   2.110  0.0861 -1.2899 -1.9355
 1371SOL     OW13514   1.007   2.545   1.924 -0.0248  0.2925 -0.2006
 1371SOL    HW113515   0.969   2.588   2.006 -0.8855 -0.8849  0.0329
 1371SOL    HW213516   0.933   2.500   1.874  0.8014 -0.5345 -0.6781
 1373SOL     OW13517   8.429   2.213   2.487 -0.2095 -0.1015 -0.1961
 1373SOL    HW113518   8.343   2.205   2.536  0.7828 -2.8304  1.1999
 1373SOL    HW213519   8.447   2.128   2.437  1.4172  0.6442 -0.9219
 1374SOL     OW13520   3.486   7.719   0.940  0.0038 -0.0487 -0.1169
 1374SOL    HW113521   3.576   7.697   0.902 -0.6137 -1.0520 -1.0524
 1374SOL    HW213522   3.495   7.742   1.037  1.5505  2.1033 -0.7561
 1376SOL     OW13523   3.022   9.405   0.061 -0.2022 -0.0016  0.0695
 1376SOL    HW113524   3.020   9.346   0.141  0.1249  0.3738  0.3531
 1376SOL    HW213525   2.935   9.398   0.013  0.3268 -1.8178 -0.6979
 1377SOL     OW13526   9.318   0.107   1.401 -0.2641 -0.3633 -0.0971
 1377SOL    HW113527   9.347   0.087   1.495  0.2585  0.6326 -0.0352
 1377SOL    HW213528   9.284   0.201   1.397 -0.2221 -0.3818 -0.9130
 1378SOL     OW13529   1.918   3.963   1.527  0.5443 -0.3296  0.4687
 1378SOL    HW113530   1.935   3.944   1.430  0.4553 -0.2237  0.4329
 1378SOL    HW213531   1.881   3.881   1.571  1.3493 -0.6342  0.5957
 1379SOL     OW13532   3.623   3.294   2.056  0.2172 -0.0575 -0.0228
 1379SOL    HW113533   3.707   3.279   2.004  0.7769  0.9721  0.5670
 1379SOL    HW213534   3.547   3.249   2.010  0.8147  0.3145 -1.4075
 1381SOL     OW13535   4.385   2.745   1.881  0.1665  0.7619 -0.1598
 1381SOL    HW113536   4.422   2.659   1.916  0.0018  0.4829 -0.6779
 1381SOL    HW213537   4.448   2.819   1.904  1.6488  0.1274 -2.0293
 1383SOL     OW13538   2.229   1.061   2.535  0.5553  0.4212  0.2034
 1383SOL    HW113539   2.145   1.010   2.516  0.9596 -0.6856  1.3232
 1383SOL    HW213540   2.229   1.146   2.482  0.0064 -0.8700 -1.8970
 1384SOL     OW13541   9.801   3.561   0.426  0.2616  0.0898  0.3675
 1384SOL    HW113542   9.704   3.586   0.418  0.3616 -0.0202 -1.6305
 1384SOL    HW213543   9.808   3.463   0.443 -0.0159  0.4831  2.8278
 1385SOL     OW13544   2.138   9.317   2.227 -0.3390  0.0425  0.6924
 1385SOL    HW113545   2.106   9.309   2.133  1.0554 -0.4814  0.2507
 1385SOL    HW213546   2.096   9.396   2.270 -0.8334  0.3947 -0.4322
 1386SOL     OW13547   0.834   5.072   0.792 -0.2688 -0.0166  0.1922
 1386SOL    HW113548   0.859   5.073   0.888 -1.1246  1.6443  0.4097
 1386SOL    HW213549   0.890   5.137   0.741 -1.8394  1.3273  0.1170
 1387SOL     OW13550   1.401   7.810   0.602 -0.8080  0.2048  0.1502
 1387SOL    HW113551   1.309   7.773   0.588 -0.4055 -0.8678  0.2852
 1387SOL    HW213552   1.468   7.736   0.597  0.0531  0.9823  0.0406
 1388SOL     OW13553   9.152   3.465   1.418  0.3417 -0.5519  0.0106
 1388SOL    HW113554   9.152   3.466   1.518 -0.3002 -1.5847  0.0344
 1388SOL    HW213555   9.242   3.492   1.384  0.1616  1.1197  0.8363
 1389SOL     OW13556   8.021   5.420   0.460  0.0391  0.2340  0.3163
 1389SOL    HW113557   8.006   5.339   0.402 -1.2115  0.3189  0.5112
 1389SOL    HW213558   8.116   5.422   0.490  0.5640 -0.1290 -1.2709
 1390SOL     OW13559   8.232   6.614   0.010 -0.0451  0.1374 -0.2514
 1390SOL    HW113560   8.140   6.641  -0.019  0.4798  0.1493 -1.9896
 1390SOL    HW213561   8.273   6.555  -0.060  2.5588  2.9272 -1.1923
 1393SOL     OW13562   0.988   1.588   0.030  0.4286 -0.1475  0.0765
 1393SOL    HW113563   0.938   1.612   0.114  1.1341 -0.8321  0.7002
 1393SOL    HW213564   1.085   1.577   0.052  0.4956 -1.0812 -0.6920
 1394SOL     OW13565   0.321   6.340   2.324  0.2013  0.1140  0.5485
 1394SOL    HW113566   0.383   6.279   2.274 -0.3111  1.1610 -1.4236
 1394SOL    HW213567   0.229   6.335   2.283 -0.1912  1.1169  1.2882
 1395SOL     OW13568   8.612   4.098   2.371  0.4785  0.0019 -0.0034
 1395SOL    HW113569   8.606   4.020   2.433 -1.9298  0.1509 -0.0025
 1395SOL    HW213570   8.608   4.067   2.276 -0.1505  0.1011 -0.0093
 1396SOL     OW13571   4.864   2.813   1.068 -0.3711  0.3118 -0.2155
 1396SOL    HW113572   4.926   2.887   1.095  0.9521 -1.0791  0.6492
 1396SOL    HW213573   4.906   2.758   0.996 -0.6056 -0.6018  0.3243
 1397SOL     OW13574   4.823   3.585   0.084  0.2371 -0.8165  0.2986
 1397SOL    HW113575   4.790   3.643   0.010  2.4905 -0.2457 -0.2898
 1397SOL    HW213576   4.745   3.547   0.134 -1.2816  1.0978 -0.5561
 1398SOL     OW13577   8.913   6.652   2.068 -0.5239  0.2316  0.0608
 1398SOL    HW113578   8.949   6.563   2.042 -1.8321 -0.5708  0.8908
 1398SOL    HW213579   8.915   6.661   2.168 -0.4756  1.0923 -0.0141
 1399SOL     OW13580   0.588   3.717   1.076  0.3310  0.1917  0.5099
 1399SOL    HW113581   0.567   3.656   1.152  2.0419 -0.3166  0.6030
 1399SOL    HW213582   0.530   3.694   0.998 -0.6149 -0.0605  1.2803
 1400SOL     OW13583   6.662   9.264   1.521 -0.1648 -0.0701  0.1414
 1400SOL    HW113584   6.583   9.317   1.550  0.0759 -0.1371  0.9406
 1400SOL    HW213585   6.688   9.200   1.593  0.5804 -0.0839 -0.1268
 1402SOL     OW13586   9.480   9.192   1.274 -0.0955  0.0774  0.0105
 1402SOL    HW113587   9.442   9.281   1.249 -1.7305 -0.4572  0.5728
 1402SOL    HW213588   9.532   9.201   1.359 -0.8908  0.3502  0.4732
 1403SOL     OW13589   3.697   5.037   1.296 -0.0874 -0.4702 -0.3659
 1403SOL    HW113590   3.786   4.994   1.312  0.8364  1.2324 -0.8271
 1403SOL    HW213591   3.669   5.020   1.202 -1.1026 -2.4911  0.2650
 1405SOL     OW13592   2.834   9.011   0.612  0.6330  1.0365 -0.1045
 1405SOL    HW113593   2.752   9.056   0.576 -0.0626 -0.7131 -0.7674
 1405SOL    HW213594   2.813   8.967   0.699  1.0706  1.2604  0.1146
 1406SOL     OW13595   8.913   0.494   0.968 -0.3175  0.2065 -0.0144
 1406SOL    HW113596   8.832   0.454   1.011 -1.1016  1.7413  0.0134
 1406SOL    HW213597   8.905   0.486   0.869  0.3768 -1.2621  0.0390
 1407SOL     OW13598   4.337   1.281   0.825 -0.0030  0.0180  0.6838
 1407SOL    HW113599   4.252   1.296   0.775  0.4230  0.7583  0.1806
 1407SOL    HW213600   4.384   1.368   0.837  0.8087 -0.4282  0.7486
 1408SOL     OW13601   2.617   3.899   1.497 -0.1563 -0.4072 -0.3885
 1408SOL    HW113602   2.565   3.984   1.502  1.1999  0.4887 -1.4285
 1408SOL    HW213603   2.642   3.880   1.402  0.2092 -1.5843 -0.0738
 1410SOL     OW13604   3.205   0.976   1.347 -0.1758 -0.2114 -0.2600
 1410SOL    HW113605   3.277   0.999   1.413 -0.8433 -0.2813  0.4968
 1410SOL    HW213606   3.119   1.019   1.375  0.1631  2.1313 -2.6190
 1411SOL     OW13607   2.001   8.704   2.050  0.1740  0.0606  0.2752
 1411SOL    HW113608   2.006   8.717   1.950  0.6356  1.6067  0.4753
 1411SOL    HW213609   2.057   8.626   2.076  0.7359  0.1583 -0.5959
 1413SOL     OW13610   3.784   7.187   0.599  0.4717  0.1530  0.0718
 1413SOL    HW113611   3.701   7.131   0.602 -1.0442  2.3193 -0.1474
 1413SOL    HW213612   3.829   7.174   0.510  0.0457 -0.5846 -0.0440
 1414SOL     OW13613   3.506   5.514   2.651  0.3544 -0.2569 -0.0179
 1414SOL    HW113614   3.563   5.432   2.651  0.0165 -0.5045  1.2396
 1414SOL    HW213615   3.410   5.488   2.646  0.2201  0.0428  1.0192
 1415SOL     OW13616   7.616   9.603   0.261  0.2859 -0.0419  0.2898
 1415SOL    HW113617   7.686   9.632   0.326 -0.8726 -0.7933  1.8825
 1415SOL    HW213618   7.587   9.682   0.207  0.2409  0.8869  1.6519
 1416SOL     OW13619   1.832   2.853   1.188  0.0245 -0.1177  0.2643
 1416SOL    HW113620   1.745   2.809   1.208 -0.4342  1.2800  1.4506
 1416SOL    HW213621   1.817   2.949   1.165  1.2544  0.1821  0.6396
 1417SOL     OW13622   0.998   8.272   1.920  0.4056  0.0834 -0.2912
 1417SOL    HW113623   1.056   8.203   1.877  0.4909  0.6446 -1.0798
 1417SOL    HW213624   0.903   8.254   1.896  0.3648 -0.1300  0.0235
 1418SOL     OW13625   2.879   2.206   0.391  0.0403 -0.2221 -0.2191
 1418SOL    HW113626   2.843   2.114   0.405 -1.2909  0.3692  0.3699
 1418SOL    HW213627   2.804   2.268   0.371  0.9944  0.6321 -1.2073
 1419SOL     OW13628   9.466   4.702   2.160  0.4503 -0.4282  0.0859
 1419SOL    HW113629   9.461   4.799   2.136 -0.9976 -0.6030 -0.3374
 1419SOL    HW213630   9.472   4.647   2.076 -1.2314 -0.8403  0.2189
 1420SOL     OW13631   7.074   9.678   1.152 -0.0195  0.6702  0.0200
 1420SOL    HW113632   7.164   9.651   1.117  0.2977  1.0455  0.5415
 1420SOL    HW213633   7.005   9.612   1.121  0.6149 -0.2654  0.5839
 1421SOL     OW13634   0.143   7.807   0.735  0.3232 -0.1244  0.6737
 1421SOL    HW113635   0.166   7.898   0.769 -0.5754 -0.6538  2.7196
 1421SOL    HW213636   0.046   7.789   0.750  0.5440 -1.5246  0.4895
 1422SOL     OW13637   1.927   8.498   1.151  0.4469 -0.0286  0.0955
 1422SOL    HW113638   1.830   8.507   1.130  0.5261  0.1963 -0.1657
 1422SOL    HW213639   1.978   8.477   1.068  0.6108 -0.2346  0.2473
 1423SOL     OW13640   8.066   9.473   0.269  0.4224 -0.1081  0.4192
 1423SOL    HW113641   8.159   9.502   0.294  1.0587 -0.7300 -1.1414
 1423SOL    HW213642   8.021   9.545   0.218  0.9618 -0.7266 -0.9629
 1425SOL     OW13643   2.836   5.063   0.170 -0.0900  0.2410 -0.1001
 1425SOL    HW113644   2.935   5.079   0.178 -0.0923  0.7536 -1.0224
 1425SOL    HW213645   2.793   5.141   0.125 -0.9359  0.0617  0.3918
 1426SOL     OW13646   2.244   3.365   0.570 -0.0541  0.1233 -0.0652
 1426SOL    HW113647   2.180   3.358   0.647 -0.0807  1.3196  0.0351
 1426SOL    HW213648   2.254   3.275   0.527 -0.7231 -0.3729  0.7808
 1427SOL     OW13649   9.256   6.652   0.842  0.0098  0.0555  0.4395
 1427SOL    HW113650   9.210   6.563   0.835  0.1140  0.0996 -0.9113
 1427SOL    HW213651   9.330   6.646   0.910 -1.1449 -0.3744  1.6920
 1428SOL     OW13652   0.029   1.502   1.677 -0.2870  1.2124 -0.0219
 1428SOL    HW113653   0.114   1.496   1.728 -0.0597  1.7564 -0.3336
 1428SOL    HW213654   0.049   1.515   1.580 -0.6934 -1.5150 -0.5108
 1429SOL     OW13655   4.290   8.204   0.066  0.4617 -0.0912 -0.0698
 1429SOL    HW113656   4.355   8.279   0.054 -0.2057  0.6015  0.6323
 1429SOL    HW213657   4.304   8.162   0.155 -0.2429  0.2463  0.2037
 1431SOL     OW13658   0.167   0.025   0.690  0.4442  0.2076  0.4071
 1431SOL    HW113659   0.219   0.079   0.623  0.7239 -2.1036 -1.2882
 1431SOL    HW213660   0.188  -0.072   0.678 -1.4019 -0.4389  2.2244
 1432SOL     OW13661   8.533   9.813   2.507  0.3835 -0.0620  0.1403
 1432SOL    HW113662   8.466   9.746   2.475 -0.2981 -0.0093  1.4259
 1432SOL    HW213663   8.562   9.790   2.600 -2.5721  3.3831  2.0299
 1433SOL     OW13664   8.672   2.948   1.881 -0.4025  0.4889 -0.1247
 1433SOL    HW113665   8.636   2.930   1.790  4.1778  0.1847 -1.9999
 1433SOL    HW213666   8.708   2.863   1.920 -1.7711  0.7435  1.7864
 1434SOL     OW13667   3.480   3.275   1.288 -0.1780 -0.2716 -0.5536
 1434SOL    HW113668   3.391   3.305   1.251  0.2686  1.5006 -0.2109
 1434SOL    HW213669   3.547   3.273   1.214  0.3050  1.6343 -0.1727
 1435SOL     OW13670   4.847   0.566   2.329  0.1944 -0.4905  0.2090
 1435SOL    HW113671   4.798   0.491   2.372 -0.0851 -0.7307 -0.5175
 1435SOL    HW213672   4.932   0.584   2.378 -0.2257 -0.6115  0.9865
 1436SOL     OW13673   1.625   4.253   0.350  0.4400 -0.5638 -0.6040
 1436SOL    HW113674   1.717   4.286   0.372 -0.2213  0.1029  1.2764
 1436SOL    HW213675   1.581   4.316   0.286 -0.0038  1.0910  1.2701
 1438SOL     OW13676   5.851   9.333   2.076  0.2832 -0.1160 -0.3897
 1438SOL    HW113677   5.762   9.294   2.054  0.4180 -1.4392  1.2689
 1438SOL    HW213678   5.839   9.416   2.130  0.0301  0.2785 -1.0606
 1439SOL     OW13679   9.872   8.445   1.471  0.0546 -0.3092  0.3572
 1439SOL    HW113680   9.830   8.447   1.380  0.1766 -0.6655  0.2927
 1439SOL    HW213681   9.971   8.438   1.461  0.4609  3.9786  0.4429
 1441SOL     OW13682   9.077   5.297   1.478 -0.4255  0.2540 -0.0073
 1441SOL    HW113683   9.077   5.379   1.535 -0.3557 -0.7063  1.3946
 1441SOL    HW213684   9.048   5.321   1.385  1.8004  2.2652 -0.2349
 1443SOL     OW13685   1.354   0.277   1.196  0.3612 -0.0654  0.5332
 1443SOL    HW113686   1.449   0.307   1.186  1.2780 -2.3109  2.0047
 1443SOL    HW213687   1.329   0.280   1.293 -1.7836  2.4337 -0.0265
 1444SOL     OW13688   4.197   1.067   0.260  0.3153 -0.0657 -0.6953
 1444SOL    HW113689   4.130   1.140   0.268  0.8047  0.3647 -0.5415
 1444SOL    HW213690   4.274   1.098   0.204  0.0593 -0.7970 -1.4758
 1446SOL     OW13691   2.246   1.041   0.002  0.3621 -0.2410 -0.5151
 1446SOL    HW113692   2.193   1.123  -0.023  0.8804  0.0990 -0.5039
 1446SOL    HW213693   2.309   1.064   0.076  0.0548 -0.8153 -0.0764
 1447SOL     OW13694   2.017   1.171   0.394 -0.1360  0.2195 -0.2791
 1447SOL    HW113695   2.063   1.116   0.463 -1.1353  0.0398  0.2514
 1447SOL    HW213696   1.980   1.110   0.323 -1.8433  0.1343  0.6651
 1449SOL     OW13697   8.955   8.624   0.567  0.2817  0.1259  0.2894
 1449SOL    HW113698   8.887   8.554   0.591 -2.6738  2.6535 -0.3939
 1449SOL    HW213699   9.018   8.637   0.643 -2.4729  0.5346  2.5909
 1450SOL     OW13700   7.930   2.751   2.574 -0.5855 -0.3430 -0.1820
 1450SOL    HW113701   8.023   2.787   2.580 -0.0453 -1.6762 -0.4099
 1450SOL    HW213702   7.871   2.801   2.638  0.3264  0.3863  0.1018
 1451SOL     OW13703   2.160   5.810   2.326 -0.2244 -0.7384  0.3881
 1451SOL    HW113704   2.143   5.712   2.313  0.2711 -0.7841  0.0760
 1451SOL    HW213705   2.235   5.839   2.267  0.4860 -0.4324  1.4286
 1454SOL     OW13706   2.518   1.639   2.339  0.0315 -0.2227 -0.7055
 1454SOL    HW113707   2.474   1.728   2.357 -0.4368 -0.6245  0.2051
 1454SOL    HW213708   2.463   1.567   2.380  1.0495 -0.8271 -0.3857
 1455SOL     OW13709   7.190   9.814   0.162 -0.0167  0.6330 -0.3236
 1455SOL    HW113710   7.271   9.801   0.105 -0.6368  0.7068 -1.2295
 1455SOL    HW213711   7.180   9.736   0.224  0.1582  0.1229 -0.9357
 1456SOL     OW13712   4.707   2.710   1.640 -0.5476  0.7886 -0.0721
 1456SOL    HW113713   4.684   2.617   1.669  0.7521 -0.0569 -1.6439
 1456SOL    HW213714   4.638   2.774   1.674 -1.3278 -0.7114  1.2349
 1457SOL     OW13715   7.161   9.636   2.037 -0.5115  0.5936 -0.1836
 1457SOL    HW113716   7.147   9.640   2.135  0.1572  1.7918 -0.1273
 1457SOL    HW213717   7.093   9.692   1.990 -1.0712 -0.2805 -0.4440
 1461SOL     OW13718   9.567   4.087   0.966  0.9138 -0.6161  0.9027
 1461SOL    HW113719   9.514   4.169   0.985  0.2646 -1.1755  1.5465
 1461SOL    HW213720   9.662   4.102   0.992  1.2451  0.6480 -0.9713
 1462SOL     OW13721   3.528   0.430   0.864  0.5077 -0.1219  0.1632
 1462SOL    HW113722   3.626   0.422   0.880  0.7500 -1.6067 -1.8801
 1462SOL    HW213723   3.496   0.519   0.899  2.6553  0.6120  0.3558
 1463SOL     OW13724   3.360   3.800   2.236  0.0736 -0.4176 -0.2067
 1463SOL    HW113725   3.280   3.853   2.211  1.4633  1.3899 -0.9388
 1463SOL    HW213726   3.426   3.801   2.160  0.9836 -1.5163  0.5369
 1464SOL     OW13727   9.091   7.620   2.231  0.4532 -0.1515 -0.4204
 1464SOL    HW113728   9.059   7.680   2.304  0.2959 -1.3632  0.5293
 1464SOL    HW213729   9.090   7.669   2.144 -0.0072  1.0999  0.2840
 1465SOL     OW13730   0.513   3.726   0.309 -0.0079 -0.1544  0.0680
 1465SOL    HW113731   0.442   3.796   0.299 -1.6651 -1.6293  1.3310
 1465SOL    HW213732   0.513   3.692   0.403  1.2251 -1.3812 -0.3749
 1467SOL     OW13733   9.002   3.818   0.991  0.5490 -0.3314  0.8143
 1467SOL    HW113734   9.075   3.836   0.925 -0.1317 -1.4943 -0.2642
 1467SOL    HW213735   9.037   3.763   1.067  1.7141  2.2692  2.2321
 1469SOL     OW13736   2.175   0.210   1.765 -0.0642  0.2096 -0.3501
 1469SOL    HW113737   2.181   0.205   1.865  0.2049  0.9685 -0.3222
 1469SOL    HW213738   2.126   0.130   1.730  2.2796 -1.5120  0.1570
 1470SOL     OW13739   4.585   2.014   2.365  0.1262  0.0183 -1.1142
 1470SOL    HW113740   4.578   1.930   2.418  0.8423  0.6500 -0.0167
 1470SOL    HW213741   4.644   1.998   2.286  1.5339 -0.0801 -0.0521
 1471SOL     OW13742   9.797   6.301   0.944 -0.0630 -0.1797 -0.6911
 1471SOL    HW113743   9.760   6.244   1.018 -0.6322 -0.3250 -1.0861
 1471SOL    HW213744   9.872   6.356   0.979  1.7591 -2.5479 -0.7151
 1472SOL     OW13745   3.118   2.071   2.529 -0.5763  0.1363  0.2129
 1472SOL    HW113746   3.043   2.005   2.519  0.3975 -1.0292  0.3823
 1472SOL    HW213747   3.081   2.162   2.545 -1.9708 -0.2271 -0.8560
 1473SOL     OW13748   2.398   0.250   0.440  0.2914  0.0921 -0.3977
 1473SOL    HW113749   2.455   0.237   0.521 -0.8723 -1.4085  0.2006
 1473SOL    HW213750   2.355   0.340   0.443  1.3663  0.6067 -0.0765
 1474SOL     OW13751   7.531   9.151   1.479  0.0629 -0.2436 -0.2100
 1474SOL    HW113752   7.512   9.247   1.501  1.4316 -0.2752  1.2476
 1474SOL    HW213753   7.480   9.092   1.540  0.7705 -0.4032  0.2364
 1475SOL     OW13754   2.843   3.520   1.155 -0.0456 -0.2980  0.0560
 1475SOL    HW113755   2.891   3.434   1.170 -0.9136 -0.4491  2.1001
 1475SOL    HW213756   2.906   3.587   1.115  1.9852 -0.3875  2.9549
 1476SOL     OW13757   4.657   3.084   1.471  0.7626  0.2181 -0.9679
 1476SOL    HW113758   4.615   3.018   1.533  0.6278  1.3179  0.1027
 1476SOL    HW213759   4.611   3.078   1.382 -1.1789  0.8758 -0.0416
 1478SOL     OW13760   9.631   9.856   0.378  0.0130  0.3440  0.3272
 1478SOL    HW113761   9.577   9.933   0.411  0.3319  0.2796  1.0047
 1478SOL    HW213762   9.676   9.881   0.292  0.9730  1.2828  1.0969
 1479SOL     OW13763   7.653   1.146   0.576  0.1842  0.7331 -0.1501
 1479SOL    HW113764   7.641   1.229   0.632  0.8276  1.2817 -0.8092
 1479SOL    HW213765   7.699   1.076   0.631  0.3195  1.0787  0.1828
 1480SOL     OW13766   2.141   0.328   2.484 -0.1756  0.0440 -0.1940
 1480SOL    HW113767   2.083   0.399   2.522 -0.4290 -1.1837  1.8223
 1480SOL    HW213768   2.195   0.286   2.557  0.8601 -1.0184 -1.5207
 1481SOL     OW13769   3.384   4.372   1.730 -0.7404  0.2045  0.5726
 1481SOL    HW113770   3.419   4.337   1.817  0.0800 -0.0349  0.1534
 1481SOL    HW213771   3.397   4.302   1.659 -0.3927  0.8103  0.0294
 1482SOL     OW13772   3.011   2.566   1.564  0.4669  0.1495 -0.5515
 1482SOL    HW113773   3.066   2.543   1.484 -0.5811  0.0389 -1.2517
 1482SOL    HW213774   3.050   2.523   1.645  0.3118 -1.5473 -1.3544
 1484SOL     OW13775   8.969   6.153   0.453  0.6890  0.4695 -0.5929
 1484SOL    HW113776   8.916   6.078   0.492  0.0942  0.7070 -0.9343
 1484SOL    HW213777   8.908   6.214   0.404  0.9256  2.1194  1.1328
 1485SOL     OW13778   0.850   1.430   1.001 -0.1906 -0.2741  0.0735
 1485SOL    HW113779   0.945   1.406   1.021  0.0278  1.2999  0.9758
 1485SOL    HW213780   0.792   1.399   1.076 -0.5171 -1.9212 -0.8292
 1486SOL     OW13781   3.995   0.330   2.458  0.2255  0.2885 -0.3517
 1486SOL    HW113782   3.921   0.288   2.511 -0.0500  0.8908 -0.2552
 1486SOL    HW213783   3.990   0.300   2.363  1.1919 -1.4286  0.1146
 1487SOL     OW13784   4.580   3.586   2.300 -0.4996  0.2303  0.2338
 1487SOL    HW113785   4.665   3.626   2.264  0.5686 -0.1575  2.2671
 1487SOL    HW213786   4.597   3.491   2.326 -1.6558  0.0557  0.3604
 1489SOL     OW13787   1.209   6.261   0.938 -0.6066 -0.2729 -0.0338
 1489SOL    HW113788   1.129   6.228   0.889 -0.8962 -0.1133  0.3338
 1489SOL    HW213789   1.205   6.360   0.948 -0.2794 -0.2441 -0.1650
 1490SOL     OW13790   8.343   1.706   1.849  0.1086  0.3953  0.4759
 1490SOL    HW113791   8.272   1.776   1.847  0.3009  0.5692 -0.6937
 1490SOL    HW213792   8.377   1.695   1.942 -2.1211 -0.3765  1.2252
 1491SOL     OW13793   3.149   4.511   2.549  0.2322  0.4074  0.3879
 1491SOL    HW113794   3.228   4.527   2.491  1.0540  0.2303  1.4494
 1491SOL    HW213795   3.087   4.445   2.505  0.5604  0.7131 -0.5341
 1492SOL     OW13796   0.931   4.019   1.415  0.1534 -0.3563  0.1885
 1492SOL    HW113797   0.954   4.065   1.329  0.7500 -1.4136 -0.2389
 1492SOL    HW213798   0.879   4.080   1.473  0.5870  0.7135 -0.5299
 1493SOL     OW13799   3.516   8.843   0.819  0.8326 -0.1358 -0.2185
 1493SOL    HW113800   3.544   8.928   0.865  2.2621 -1.0358  0.6097
 1493SOL    HW213801   3.448   8.864   0.749 -0.4704  1.4217  1.4580
 1495SOL     OW13802   7.860   0.725   0.771 -0.1828  0.6276  0.3487
 1495SOL    HW113803   7.868   0.689   0.678 -0.5293  0.2838  0.4528
 1495SOL    HW213804   7.774   0.696   0.811 -0.6582  1.8971  0.2909
 1496SOL     OW13805   2.145   6.155   2.471  0.3449 -0.1978  1.0167
 1496SOL    HW113806   2.093   6.078   2.434 -2.5669  1.4431  1.5242
 1496SOL    HW213807   2.140   6.232   2.407  2.2078 -0.0384  1.0579
 1497SOL     OW13808   8.557   2.624   1.684 -0.4011 -0.2122 -0.6613
 1497SOL    HW113809   8.470   2.598   1.726  0.8947 -1.0578  1.6173
 1497SOL    HW213810   8.615   2.543   1.676  0.4102  0.4525 -1.5547
 1498SOL     OW13811   9.795   1.687   0.269  0.0308 -0.6050 -0.2385
 1498SOL    HW113812   9.788   1.588   0.279 -0.6157 -0.6148 -0.7298
 1498SOL    HW213813   9.826   1.709   0.176 -2.2930 -0.2840 -0.9763
 1499SOL     OW13814   9.037   7.927   1.090 -0.3856  0.3804 -0.3127
 1499SOL    HW113815   9.057   8.025   1.093 -2.6600  0.8196  1.7469
 1499SOL    HW213816   8.949   7.912   1.047 -1.0380 -0.5680  1.2920
 1500SOL     OW13817   9.286   8.479   1.080  0.0813 -0.6427 -0.1088
 1500SOL    HW113818   9.373   8.488   1.031  0.5637  0.7235  0.9518
 1500SOL    HW213819   9.303   8.480   1.179 -1.2229  0.8389  0.1154
 1501SOL     OW13820   9.369   2.674   1.121  0.1665  0.5375  0.2858
 1501SOL    HW113821   9.451   2.725   1.095  1.5512 -2.4663 -1.5561
 1501SOL    HW213822   9.298   2.690   1.053  0.9454 -0.7550 -0.8484
 1502SOL     OW13823   9.788   3.298   0.412 -0.1529 -0.5722  0.5885
 1502SOL    HW113824   9.845   3.221   0.385 -1.3583 -0.2367 -3.1430
 1502SOL    HW213825   9.694   3.282   0.384 -0.2129  2.7159 -1.2830
 1504SOL     OW13826   3.377   3.952   0.997  0.4019  0.2920  0.1365
 1504SOL    HW113827   3.403   3.969   1.092 -2.2251 -0.6210  1.0748
 1504SOL    HW213828   3.353   4.038   0.953  1.4516  0.6979  0.3321
 1505SOL     OW13829   8.629   6.724   2.058  0.4711 -0.1165  0.5879
 1505SOL    HW113830   8.709   6.668   2.038  1.2505  1.4056 -0.7319
 1505SOL    HW213831   8.658   6.805   2.110 -0.3084  0.0949  0.6897
 1506SOL     OW13832   9.183   6.395   1.514  0.1979 -0.1885  0.1337
 1506SOL    HW113833   9.221   6.469   1.458 -1.3205 -0.3063 -1.0846
 1506SOL    HW213834   9.194   6.308   1.465 -0.2640 -0.4318  0.4589
 1507SOL     OW13835   2.350   3.574   1.126 -0.1714  0.2039  0.1499
 1507SOL    HW113836   2.440   3.618   1.124  0.1771 -0.5393 -0.9105
 1507SOL    HW213837   2.351   3.499   1.192  0.3865 -0.6365 -0.8055
 1508SOL     OW13838   4.155   2.275   2.186 -0.4159 -0.1365  0.0236
 1508SOL    HW113839   4.117   2.318   2.104  0.4879  0.3258 -0.1484
 1508SOL    HW213840   4.251   2.299   2.196 -0.8834  1.0550  2.0458
 1510SOL     OW13841   9.365   5.011   0.928 -0.6022 -0.1519 -0.6259
 1510SOL    HW113842   9.447   4.955   0.945 -1.6094 -1.6083 -0.4941
 1510SOL    HW213843   9.326   4.985   0.839 -3.2183 -2.3701  1.1121
 1512SOL     OW13844   9.006   5.745   1.977  0.1334 -0.5289  0.3373
 1512SOL    HW113845   8.994   5.658   2.025  1.6592 -1.7750 -1.4583
 1512SOL    HW213846   8.922   5.770   1.930  0.3713 -2.2551 -1.0628
 1513SOL     OW13847   3.665   2.368   0.747  0.0376 -0.1109 -0.2295
 1513SOL    HW113848   3.577   2.408   0.722  0.4773  1.0918  0.1290
 1513SOL    HW213849   3.672   2.277   0.706 -1.8938 -0.7550  0.7811
 1514SOL     OW13850   8.732   5.360   1.787 -1.1573  0.3439 -0.1886
 1514SOL    HW113851   8.801   5.291   1.766  1.1474  2.3136  0.6311
 1514SOL    HW213852   8.679   5.331   1.866  0.1384 -0.2824  0.4676
 1515SOL     OW13853   3.344   0.155   2.092  0.4739 -0.0768  0.0122
 1515SOL    HW113854   3.437   0.187   2.076  1.1093 -1.8969 -0.0105
 1515SOL    HW213855   3.314   0.099   2.015 -0.5989  0.3882  0.0767
 1517SOL     OW13856   3.287   0.241   2.504 -0.4825  0.2074  0.4538
 1517SOL    HW113857   3.307   0.145   2.523  1.3827  0.9256  2.4728
 1517SOL    HW213858   3.303   0.295   2.587 -1.5897  2.2422 -0.6165
 1518SOL     OW13859   0.051   0.327   1.174 -0.0761 -0.3303 -0.0786
 1518SOL    HW113860   0.029   0.235   1.143  1.1831 -1.0794  1.2206
 1518SOL    HW213861   0.093   0.323   1.265 -2.0607  1.6783  0.9812
 1519SOL     OW13862   2.940   1.080   0.664 -0.3548  0.0310 -0.2779
 1519SOL    HW113863   3.010   1.102   0.596  0.6127 -0.0264  0.6862
 1519SOL    HW213864   2.896   1.164   0.695  1.5298  0.4037  1.4758
 1520SOL     OW13865   0.032   5.144   0.089  0.0678 -0.3878  0.1288
 1520SOL    HW113866   0.075   5.061   0.122 -2.6836 -1.3132  1.4555
 1520SOL    HW213867   0.044   5.217   0.156  0.4728 -0.3390  0.0064
 1521SOL     OW13868   4.281   9.608   1.975  0.2197  0.4636 -0.1310
 1521SOL    HW113869   4.290   9.513   1.946 -1.5468  0.2101  0.1031
 1521SOL    HW213870   4.340   9.666   1.918  0.9820 -0.7138 -0.5547
 1522SOL     OW13871   3.236   9.950   1.152 -0.3827 -0.1690 -0.3110
 1522SOL    HW113872   3.247   9.934   1.054 -0.0284  0.6108 -0.4040
 1522SOL    HW213873   3.139   9.956   1.174 -0.5199 -2.0958 -0.3193
 1524SOL     OW13874   0.033   2.897   1.721  0.0641 -0.0753  0.3973
 1524SOL    HW113875   0.069   2.822   1.778  1.6828 -0.6489 -1.3192
 1524SOL    HW213876   0.014   2.863   1.629  2.0067  1.8671 -0.7775
 1525SOL     OW13877   0.142   4.610   2.607  1.0417 -0.9456 -0.3933
 1525SOL    HW113878   0.063   4.610   2.668  0.4170 -0.7012 -1.2056
 1525SOL    HW213879   0.170   4.516   2.588 -0.4931 -1.1031 -1.9636
 1526SOL     OW13880   2.548   7.831   0.560 -0.0353 -0.2207 -0.3624
 1526SOL    HW113881   2.601   7.863   0.638 -0.1885 -0.3353 -0.2115
 1526SOL    HW213882   2.489   7.905   0.526  0.6180  0.0726 -0.8686
 1528SOL     OW13883   9.505   6.091   0.773  0.2939 -1.0908 -0.3063
 1528SOL    HW113884   9.504   6.191   0.769  0.4814 -0.9837  1.8600
 1528SOL    HW213885   9.597   6.057   0.754  0.3036 -0.8456 -0.7001
 1530SOL     OW13886   2.439   8.789   1.522  0.1516 -0.3183 -0.0187
 1530SOL    HW113887   2.422   8.718   1.454  0.2374 -1.3807  1.0675
 1530SOL    HW213888   2.465   8.747   1.609  0.9943  1.0631  0.4087
 1531SOL     OW13889   9.880   0.426   0.265  0.2640 -0.3496 -0.2898
 1531SOL    HW113890   9.942   0.375   0.326  0.5501  0.0435 -0.2520
 1531SOL    HW213891   9.845   0.506   0.313  0.5090 -0.0257 -0.6512
 1532SOL     OW13892   9.714   3.747   1.124  0.0934  0.5353  0.1702
 1532SOL    HW113893   9.671   3.807   1.058  0.8871  0.9796  0.0494
 1532SOL    HW213894   9.732   3.658   1.081 -0.3114  0.4890  0.0959
 1533SOL     OW13895   0.278   4.329   1.600 -0.0733  0.4282  0.5862
 1533SOL    HW113896   0.345   4.269   1.643  0.1241  0.9937  1.0640
 1533SOL    HW213897   0.323   4.386   1.531 -0.0855  0.6870  0.7886
 1534SOL     OW13898   3.886   0.241   0.467 -0.3074  0.3211  0.6666
 1534SOL    HW113899   3.891   0.274   0.373 -0.2327 -0.3431  0.4323
 1534SOL    HW213900   3.949   0.164   0.479 -0.6754  0.0845  1.1226
 1535SOL     OW13901   3.386   0.854   1.679  0.0890 -0.3670 -0.2555
 1535SOL    HW113902   3.380   0.861   1.778  0.8546 -1.1150 -0.1530
 1535SOL    HW213903   3.369   0.760   1.651 -0.6832 -0.0516 -0.8836
 1536SOL     OW13904   2.315   9.171   0.538  0.8472  0.1591 -0.2437
 1536SOL    HW113905   2.281   9.168   0.633  2.0659 -0.2524  0.1871
 1536SOL    HW213906   2.379   9.246   0.528 -0.8781  1.5281 -1.3089
 1537SOL     OW13907   0.728   2.357   0.235 -0.6222 -0.5364  0.0920
 1537SOL    HW113908   0.757   2.265   0.211  0.6538 -0.0877 -0.1611
 1537SOL    HW213909   0.773   2.385   0.320 -1.7271 -0.4920  0.6659
 1538SOL     OW13910   2.913   3.628   2.627 -0.0001 -0.0113 -0.5233
 1538SOL    HW113911   2.928   3.650   2.723 -0.3179 -0.4290 -0.3756
 1538SOL    HW213912   2.998   3.595   2.587  0.5701  1.7666 -0.8332
 1539SOL     OW13913   0.258   2.873   0.154  0.7426 -0.6359 -0.0822
 1539SOL    HW113914   0.358   2.862   0.150  0.7210 -1.5155  1.2629
 1539SOL    HW213915   0.235   2.970   0.158  1.5311 -0.4140 -0.8085
 1540SOL     OW13916   2.994   2.308   2.597 -0.8678 -0.5504 -0.2591
 1540SOL    HW113917   2.937   2.341   2.522 -0.5384 -0.7002 -0.5783
 1540SOL    HW213918   2.956   2.338   2.684 -0.4304  0.8982 -0.5520
 1542SOL     OW13919   1.632   2.592   0.339 -0.4663 -1.0126 -0.6068
 1542SOL    HW113920   1.645   2.689   0.320 -0.6888 -0.6239  1.0728
 1542SOL    HW213921   1.559   2.555   0.282 -0.5705 -0.1279 -1.0457
 1543SOL     OW13922   1.106   3.830   2.463  0.2935 -0.1781 -0.5067
 1543SOL    HW113923   1.178   3.844   2.532  0.5216  1.5497 -1.0751
 1543SOL    HW213924   1.068   3.738   2.474  1.3015 -0.4500  1.0058
 1544SOL     OW13925   8.895   4.278   1.212  0.1466 -0.3972  0.5918
 1544SOL    HW113926   8.804   4.304   1.245 -0.1423  2.0634 -2.0017
 1544SOL    HW213927   8.887   4.199   1.151 -0.3718  0.2340 -0.1732
 1546SOL     OW13928   7.915   1.907   2.536 -0.0880 -0.2585  0.1846
 1546SOL    HW113929   8.008   1.875   2.518  0.1402 -0.0079  0.8832
 1546SOL    HW213930   7.867   1.840   2.593 -0.4151 -0.4995 -0.3725
 1547SOL     OW13931   3.264   1.300   1.728 -0.1480 -0.1092 -0.5180
 1547SOL    HW113932   3.359   1.280   1.704 -0.6184 -3.2168  0.0518
 1547SOL    HW213933   3.240   1.392   1.695  3.1636  0.9272 -0.2367
 1548SOL     OW13934   3.616   1.263   2.107 -0.4955  0.7812  0.2801
 1548SOL    HW113935   3.666   1.191   2.156  0.5779 -0.5362 -2.6300
 1548SOL    HW213936   3.519   1.238   2.103  0.1002 -1.4574 -2.1326
 1549SOL     OW13937   4.076   5.188   2.608  0.1590  0.0163  0.4347
 1549SOL    HW113938   4.056   5.280   2.643  0.4666  0.0820  0.4331
 1549SOL    HW213939   4.066   5.187   2.509 -0.5179 -0.1221  0.4984
 1551SOL     OW13940   0.019   1.991   0.897  0.0499 -0.2268 -0.4626
 1551SOL    HW113941  -0.077   1.974   0.873  0.1952 -0.7332 -0.6935
 1551SOL    HW213942   0.024   2.021   0.992 -0.4940  1.4154 -0.9366
 1553SOL     OW13943   0.876   3.680   1.136 -0.5568  0.2041  0.3358
 1553SOL    HW113944   0.776   3.679   1.129 -0.5153 -0.9507 -0.2231
 1553SOL    HW213945   0.902   3.703   1.230 -1.3356  1.1824  0.3186
 1556SOL     OW13946   7.781   2.665   0.046 -0.0367 -0.1165  0.4892
 1556SOL    HW113947   7.822   2.630   0.130  0.0443 -0.4201  0.3224
 1556SOL    HW213948   7.688   2.698   0.065  0.4522  1.0029  0.9642
 1557SOL     OW13949   8.620   0.849   1.787 -0.8786  0.2348  0.4913
 1557SOL    HW113950   8.584   0.765   1.744  0.9993  0.4719 -1.6461
 1557SOL    HW213951   8.718   0.857   1.766 -0.7841  2.3531  1.6909
 1559SOL     OW13952   8.529   6.937   2.530 -0.1598 -0.3113  0.5600
 1559SOL    HW113953   8.476   6.854   2.515  0.7422 -0.7296 -0.3715
 1559SOL    HW213954   8.507   6.976   2.619 -0.4942 -1.6071  1.0420
 1560SOL     OW13955   3.820   1.173   0.524  0.0949 -0.1478 -0.3558
 1560SOL    HW113956   3.839   1.075   0.533  0.9569  0.0203 -0.2189
 1560SOL    HW213957   3.803   1.195   0.428  0.6579 -0.3107 -0.4966
 1562SOL     OW13958   2.785   7.615   0.425  0.7950 -0.1048  0.2966
 1562SOL    HW113959   2.854   7.552   0.461  1.2897  1.4284  2.1366
 1562SOL    HW213960   2.697   7.599   0.471  0.4661 -0.6316 -0.5102
 1563SOL     OW13961   2.647   9.618   2.672 -0.5088 -0.4017 -0.0956
 1563SOL    HW113962   2.595   9.555   2.615  0.7186 -1.6083  0.0899
 1563SOL    HW213963   2.741   9.584   2.682  0.0727  1.2815  0.2853
 1564SOL     OW13964   2.474   0.825   0.632  0.3878 -0.3206 -0.7038
 1564SOL    HW113965   2.407   0.861   0.568  0.6286  1.5858  0.0895
 1564SOL    HW213966   2.566   0.852   0.604  0.5522 -0.0889  0.0512
 1565SOL     OW13967   8.709   5.978   0.331 -0.1389  0.4383 -0.0500
 1565SOL    HW113968   8.766   5.946   0.406 -0.8505  1.5612  0.9994
 1565SOL    HW213969   8.684   6.074   0.346 -2.4083 -0.0607 -0.3946
 1566SOL     OW13970   5.296   7.899   2.675 -0.0518  0.2543  0.4140
 1566SOL    HW113971   5.279   7.826   2.608 -0.6561  0.0238  0.8195
 1566SOL    HW213972   5.218   7.960   2.678  1.2804  2.1188 -1.4167
 1567SOL     OW13973   0.750   9.665   2.640  0.3300 -0.1995 -0.1238
 1567SOL    HW113974   0.664   9.669   2.691 -0.0114 -2.7942 -0.4055
 1567SOL    HW213975   0.779   9.569   2.632  1.7335  0.4018 -2.5890
 1568SOL     OW13976   4.694   9.672   2.040 -0.4276  0.2183 -0.4608
 1568SOL    HW113977   4.651   9.667   2.131  2.0592 -0.9225  0.7172
 1568SOL    HW213978   4.773   9.734   2.044  2.4798 -3.3058 -0.5757
 1569SOL     OW13979   0.463   5.807   2.676  0.3064 -0.4992  0.1525
 1569SOL    HW113980   0.389   5.766   2.622 -0.8734 -1.4728  2.4133
 1569SOL    HW213981   0.460   5.906   2.667  0.8722 -0.6918 -2.4596
 1570SOL     OW13982   9.780   2.727   0.857 -0.2515 -0.1786  0.5251
 1570SOL    HW113983   9.770   2.792   0.782 -0.6725 -1.0214 -0.1533
 1570SOL    HW213984   9.849   2.761   0.921 -1.7542  1.8542  1.1605
 1571SOL     OW13985   9.828   4.323   0.555 -0.0374  0.2683  0.2593
 1571SOL    HW113986   9.756   4.392   0.553  0.2983  0.6246  0.3811
 1571SOL    HW213987   9.914   4.365   0.585  0.4770  0.0804 -0.9161
 1572SOL     OW13988   2.383   9.947   0.094  0.5694 -0.2336  0.1028
 1572SOL    HW113989   2.386   9.849   0.111  2.0005 -0.1477  0.4386
 1572SOL    HW213990   2.475   9.979   0.072  0.1672  1.0902  0.3266
 1575SOL     OW13991   2.071   4.457   2.467 -0.4085 -0.2184 -0.5405
 1575SOL    HW113992   1.999   4.518   2.433 -1.4772 -0.6877  0.8360
 1575SOL    HW213993   2.159   4.504   2.465 -0.9435  0.7633 -1.1508
 1576SOL     OW13994   8.326   8.737   1.145  0.2524 -0.0612  0.3868
 1576SOL    HW113995   8.269   8.748   1.227  0.0509  1.7244  0.0261
 1576SOL    HW213996   8.365   8.825   1.120 -0.2982 -0.4540 -1.9057
 1578SOL     OW13997   3.747   7.413   0.773  0.3044 -0.3438  0.4876
 1578SOL    HW113998   3.804   7.398   0.854 -1.9734 -0.4508  2.1121
 1578SOL    HW213999   3.740   7.328   0.721  0.8164 -0.5809  0.7999
 1579SOL     OW14000   2.426   1.102   0.229 -0.0695 -0.0514  0.0068
 1579SOL    HW114001   2.508   1.046   0.237 -0.2271 -0.3592 -0.5061
 1579SOL    HW214002   2.452   1.193   0.196  0.1182  0.0008  0.2937
 1580SOL     OW14003   3.854   9.536   2.381 -0.1475  0.1986 -0.0315
 1580SOL    HW114004   3.930   9.530   2.445  0.8250  1.9616 -0.9595
 1580SOL    HW214005   3.836   9.447   2.341  0.6102 -0.4817  1.1217
 1581SOL     OW14006   9.700   0.772   1.987  0.1715  0.3317  0.1725
 1581SOL    HW114007   9.658   0.717   2.060 -0.6902 -1.1628 -1.4147
 1581SOL    HW214008   9.759   0.713   1.931  2.4675  1.9049  0.8894
 1582SOL     OW14009   1.031   2.728   1.245  0.0979 -0.9106  0.3573
 1582SOL    HW114010   1.106   2.784   1.279 -1.5106  0.8639  1.0791
 1582SOL    HW214011   1.065   2.667   1.173  1.7466  1.6428 -1.1162
 1583SOL     OW14012   4.480   7.911   2.169  0.0530  0.3523 -0.4020
 1583SOL    HW114013   4.520   7.821   2.185  2.0523  1.5785  1.8556
 1583SOL    HW214014   4.536   7.961   2.103 -0.4147  0.3749 -0.7854
 1584SOL     OW14015   9.053   1.552   0.799  0.4511 -0.4538  0.5741
 1584SOL    HW114016   9.126   1.493   0.834  0.0900 -0.6874  0.9261
 1584SOL    HW214017   9.094   1.623   0.741  0.8762 -1.0886  0.0919
 1585SOL     OW14018   0.539   3.711   2.313  0.5308 -0.1163 -0.2831
 1585SOL    HW114019   0.626   3.754   2.287  0.0156  0.8671 -0.4129
 1585SOL    HW214020   0.498   3.667   2.234 -0.3000  1.5748 -0.8178
 1586SOL     OW14021   3.744   9.758   1.110 -0.1586  0.6275  0.6932
 1586SOL    HW114022   3.780   9.711   1.030  0.6591 -1.1891  2.0911
 1586SOL    HW214023   3.684   9.696   1.161 -0.1231  1.5226  1.8518
 1587SOL     OW14024   0.848   7.698   0.388 -0.4227  0.1156 -0.2325
 1587SOL    HW114025   0.858   7.617   0.446 -0.1270 -0.0584 -0.5252
 1587SOL    HW214026   0.917   7.696   0.316 -1.6846 -0.3870 -1.4460
 1590SOL     OW14027   2.271   4.001   2.021 -0.2583 -0.3503  0.1753
 1590SOL    HW114028   2.371   4.008   2.029 -0.2496 -1.1133  0.8003
 1590SOL    HW214029   2.232   4.092   2.005  0.5378 -0.0505 -0.0850
 1592SOL     OW14030   1.733   4.223   1.608  0.3252  0.1509 -0.5778
 1592SOL    HW114031   1.792   4.178   1.540  0.9086 -0.1154  0.1053
 1592SOL    HW214032   1.715   4.160   1.683  0.2067  0.6745 -0.1659
 1593SOL     OW14033   3.199   7.733   1.073  0.5647  0.2083 -0.0508
 1593SOL    HW114034   3.188   7.644   1.029  0.9960  0.4944 -0.7418
 1593SOL    HW214035   3.289   7.737   1.117  0.5378  0.2926 -0.0043
 1594SOL     OW14036   0.996   5.836   0.343  0.7037 -0.8327  0.1963
 1594SOL    HW114037   1.085   5.870   0.314 -0.0215 -0.0199 -1.0777
 1594SOL    HW214038   0.941   5.911   0.377 -0.0631 -1.1043 -0.4545
 1595SOL     OW14039   0.088   7.510   2.663 -0.0903 -0.5269  0.3549
 1595SOL    HW114040   0.048   7.440   2.721  0.5486 -1.1323  0.0665
 1595SOL    HW214041   0.146   7.467   2.593 -0.7034  0.1961 -0.6178
 1596SOL     OW14042   1.882   5.225   2.328 -0.4197 -0.2409 -0.4155
 1596SOL    HW114043   1.943   5.165   2.276 -0.7475 -0.7196 -0.2517
 1596SOL    HW214044   1.793   5.180   2.339 -0.4857  0.0348  0.1908
 1597SOL     OW14045   3.937   8.587   1.286  0.1435 -0.0011  0.0076
 1597SOL    HW114046   3.921   8.659   1.353  0.6997 -0.1466  0.2934
 1597SOL    HW214047   3.871   8.513   1.301  0.3585 -0.0959  0.4842
 1598SOL     OW14048   4.347   2.311   1.286 -0.1951 -0.3732 -0.1394
 1598SOL    HW114049   4.319   2.219   1.312 -0.8459 -0.4283 -0.9885
 1598SOL    HW214050   4.442   2.326   1.310 -0.4873 -0.7808  1.2741
 1599SOL     OW14051   1.240   9.838   2.489 -0.1744 -0.4502 -0.0648
 1599SOL    HW114052   1.186   9.765   2.533  0.7512 -0.9175  0.3045
 1599SOL    HW214053   1.303   9.877   2.556 -1.6902  1.7373  0.1715
 1600SOL     OW14054   3.286   3.236   2.710 -0.2070 -0.0050 -0.6009
 1600SOL    HW114055   3.221   3.306   2.681 -0.0659  0.1131 -0.6310
 1600SOL    HW214056   3.366   3.238   2.650 -1.2030 -1.7160 -2.0754
 1601SOL     OW14057   3.726   8.006   0.499 -0.2404 -0.4675  0.1476
 1601SOL    HW114058   3.815   8.003   0.546 -0.7453 -1.2260  1.0931
 1601SOL    HW214059   3.690   8.099   0.500  0.2943 -0.2630  0.2545
 1602SOL     OW14060   1.621   2.502   0.012  0.2358 -0.0184  0.5039
 1602SOL    HW114061   1.590   2.413   0.044 -0.6674  0.3811  0.7587
 1602SOL    HW214062   1.614   2.507  -0.088 -0.1601 -0.0633  0.5306
 1604SOL     OW14063   2.755   3.616   0.159 -0.1939 -0.1858 -0.2197
 1604SOL    HW114064   2.752   3.584   0.065 -0.4274  0.5049 -0.4532
 1604SOL    HW214065   2.705   3.703   0.166  1.3378  0.6801  0.1848
 1605SOL     OW14066   1.076   7.662   0.846 -0.8431 -0.3948 -0.4148
 1605SOL    HW114067   1.058   7.564   0.835  1.8734 -0.9295 -0.4485
 1605SOL    HW214068   0.993   7.708   0.876 -1.8211 -2.9281  0.9089
 1606SOL     OW14069   2.428   8.691   1.777 -0.2524 -0.0572 -0.2730
 1606SOL    HW114070   2.336   8.686   1.816 -0.5450  1.1107 -0.8009
 1606SOL    HW214071   2.494   8.655   1.843 -1.0834 -0.9355  0.0960
 1607SOL     OW14072   5.600   8.689   2.112  0.3787 -0.0911 -0.0552
 1607SOL    HW114073   5.563   8.695   2.019 -2.7798  0.1267  1.1526
 1607SOL    HW214074   5.650   8.603   2.122 -1.1170 -1.1472 -1.3408
 1608SOL     OW14075   0.288   2.505   1.520  0.0027 -0.6389  0.4548
 1608SOL    HW114076   0.243   2.440   1.581 -1.2754 -1.3482 -1.2066
 1608SOL    HW214077   0.221   2.570   1.484  0.6729 -0.4041 -0.4108
 1609SOL     OW14078   3.929   2.175   1.677 -0.1876 -0.0149 -0.0322
 1609SOL    HW114079   4.005   2.239   1.675 -0.0579 -0.0164  2.9984
 1609SOL    HW214080   3.849   2.219   1.719 -0.0122 -1.8701  2.3488
 1613SOL     OW14081   8.705   3.126   1.678  0.4159  0.0143 -0.1924
 1613SOL    HW114082   8.720   3.087   1.768  2.0099  0.7714 -0.1060
 1613SOL    HW214083   8.684   3.054   1.613 -1.7199 -0.4450  0.9563
 1614SOL     OW14084   0.071   3.146   2.053 -0.2537  0.3142  0.0498
 1614SOL    HW114085   0.056   3.184   2.145  0.4703 -2.1122  1.1957
 1614SOL    HW214086   0.137   3.203   2.004  0.2385  0.9723  1.4454
 1615SOL     OW14087   9.024   7.836   1.683  0.0493 -0.2270 -0.0742
 1615SOL    HW114088   9.028   7.820   1.584 -2.4297  0.1507 -0.2568
 1615SOL    HW214089   9.072   7.920   1.705 -2.9275  1.9387 -1.5280
 1617SOL     OW14090   1.423   6.250   0.122  0.1073 -0.5371  0.2723
 1617SOL    HW114091   1.367   6.324   0.085  1.6513  0.1923 -0.6309
 1617SOL    HW214092   1.420   6.172   0.059 -1.2419 -1.1459  1.0577
 1618SOL     OW14093   3.218   5.590   0.649  0.0802 -0.0867 -0.1828
 1618SOL    HW114094   3.278   5.516   0.620  0.1873  0.0185 -0.2290
 1618SOL    HW214095   3.167   5.562   0.731 -0.8137 -0.6875 -0.9363
 1622SOL     OW14096   2.236   5.866   0.751 -0.2249 -0.2280  0.5770
 1622SOL    HW114097   2.224   5.841   0.655  0.6683 -2.3215  0.9737
 1622SOL    HW214098   2.333   5.860   0.775 -0.2385  1.8501  1.2089
 1623SOL     OW14099   1.121   8.535   1.978 -0.5270 -0.2721 -0.1047
 1623SOL    HW114100   1.070   8.459   1.937 -0.6322  0.8255 -2.0461
 1623SOL    HW214101   1.168   8.587   1.907  2.0358 -0.2864  1.4838
 1624SOL     OW14102   2.623   9.358   2.145  0.1973  0.6009  0.5088
 1624SOL    HW114103   2.555   9.372   2.217  0.4820  0.2734  0.8424
 1624SOL    HW214104   2.577   9.335   2.060 -0.0794 -0.3867  0.9193
 1628SOL     OW14105   8.278   9.528   2.034 -0.3983  0.4101 -0.0612
 1628SOL    HW114106   8.197   9.528   1.976 -0.3736 -0.7844 -0.1021
 1628SOL    HW214107   8.266   9.465   2.110  0.1220  0.9339  0.4645
 1629SOL     OW14108   9.257   3.727   0.089 -0.4959  0.1952 -0.1614
 1629SOL    HW114109   9.353   3.749   0.107  0.0442 -1.1182 -1.4589
 1629SOL    HW214110   9.248   3.631   0.063 -2.1197  0.4120 -0.4617
 1630SOL     OW14111   1.649   2.596   1.371  0.6713 -0.9181 -0.4089
 1630SOL    HW114112   1.645   2.688   1.408  1.0490 -1.2871  0.5818
 1630SOL    HW214113   1.722   2.545   1.416 -0.6119 -2.2153  0.2563
 1631SOL     OW14114   1.970   7.648   1.902 -0.0371  0.0285 -0.3467
 1631SOL    HW114115   2.049   7.682   1.953  1.1361  0.1956 -2.2080
 1631SOL    HW214116   1.897   7.716   1.904 -0.8900 -0.8909  2.9570
 1632SOL     OW14117   0.581   7.273   2.516 -0.1813 -0.0115  0.1293
 1632SOL    HW114118   0.626   7.209   2.577 -0.8691 -1.3814 -0.7847
 1632SOL    HW214119   0.524   7.223   2.450 -1.6198  1.5760  0.1179
 1635SOL     OW14120   4.305   1.780   2.274 -0.0479 -0.0817 -0.5877
 1635SOL    HW114121   4.241   1.809   2.204 -1.6889  0.0967  0.9631
 1635SOL    HW214122   4.377   1.724   2.232 -1.3667 -0.5330 -2.2973
 1636SOL     OW14123   9.809   1.029   2.113  0.4042 -0.4449  0.1924
 1636SOL    HW114124   9.837   0.943   2.070  0.7963 -0.1044 -0.2349
 1636SOL    HW214125   9.881   1.097   2.101  0.2335 -0.1516  0.8156
 1638SOL     OW14126   0.691   4.557   2.608  0.2528 -0.1543 -0.7478
 1638SOL    HW114127   0.664   4.472   2.654 -0.2399  0.0018 -0.7413
 1638SOL    HW214128   0.649   4.634   2.655  0.4565  0.0712 -0.9376
 1640SOL     OW14129   8.065   2.915   1.079 -0.0876 -0.0632 -0.0951
 1640SOL    HW114130   8.160   2.891   1.100 -0.0119  1.2476  1.1063
 1640SOL    HW214131   8.004   2.873   1.146 -0.2079  0.5267  0.1689
 1641SOL     OW14132   9.137   7.598   1.631  0.0110 -0.1325  0.1472
 1641SOL    HW114133   9.234   7.603   1.657 -0.4047  1.6147  1.4799
 1641SOL    HW214134   9.091   7.681   1.661 -1.2237  0.5322 -3.4495
 1642SOL     OW14135   3.472   8.029   2.012 -0.2555 -0.2749  0.6880
 1642SOL    HW114136   3.428   7.955   2.065  1.2254 -0.0665  2.2532
 1642SOL    HW214137   3.546   7.991   1.957 -0.4581 -0.1767  0.3461
 1643SOL     OW14138  -0.002   8.290   2.424  0.7349  0.1988 -0.3363
 1643SOL    HW114139   0.068   8.362   2.417  1.7537 -0.5816  1.3019
 1643SOL    HW214140  -0.011   8.244   2.336  3.5776 -0.8176 -0.1621
 1644SOL     OW14141   8.460   1.376   0.173  0.5694 -0.1029  0.6870
 1644SOL    HW114142   8.486   1.461   0.127 -2.1087  1.0477  1.2330
 1644SOL    HW214143   8.385   1.393   0.236 -0.1484 -2.9099  0.6733
 1645SOL     OW14144   9.140   8.713   2.095 -0.2858  0.3145  0.2428
 1645SOL    HW114145   9.155   8.666   2.007 -0.0287 -2.0595  1.5143
 1645SOL    HW214146   9.217   8.695   2.156 -0.2833  2.2775  0.8374
 1647SOL     OW14147   4.619   3.034   2.206 -0.1384 -0.4267  0.2053
 1647SOL    HW114148   4.718   3.035   2.216 -0.1500  1.0795  0.3709
 1647SOL    HW214149   4.577   2.999   2.290  0.2326 -0.1996  0.4870
 1648SOL     OW14150   0.929   4.383   0.580 -0.5321 -0.8891  0.3573
 1648SOL    HW114151   1.022   4.351   0.566 -0.1676 -0.3635  1.5103
 1648SOL    HW214152   0.894   4.424   0.496  1.3612  1.6636  0.7665
 1649SOL     OW14153   9.156   6.241   1.126 -0.5324 -0.2931 -0.0153
 1649SOL    HW114154   9.162   6.193   1.213 -0.3175  0.1882  0.2360
 1649SOL    HW214155   9.207   6.190   1.056 -1.3866 -1.1041 -0.0523
 1651SOL     OW14156   4.573   8.293   0.066  0.1285 -0.6295  0.7689
 1651SOL    HW114157   4.562   8.268  -0.030 -0.5365 -0.3962  0.7804
 1651SOL    HW214158   4.549   8.216   0.124 -1.6133 -0.0830  0.7969
 1652SOL     OW14159   0.566   4.858   0.265  0.2556 -0.2820 -0.1270
 1652SOL    HW114160   0.556   4.845   0.166  1.6119 -1.8030 -0.1014
 1652SOL    HW214161   0.663   4.864   0.288  0.0465 -2.1061  1.3563
 1653SOL     OW14162   2.540   0.572   0.761  1.1871  0.1005  0.1514
 1653SOL    HW114163   2.555   0.523   0.847  2.0855 -0.1752 -0.1610
 1653SOL    HW214164   2.527   0.669   0.781  0.8530 -0.0406  0.6451
 1654SOL     OW14165   1.207   0.957   2.476  0.4406 -0.4739  0.1951
 1654SOL    HW114166   1.226   0.864   2.508  2.3255  0.0053  0.4948
 1654SOL    HW214167   1.220   1.022   2.551 -1.7180 -0.0180  0.2324
 1655SOL     OW14168   0.278   8.904   1.303  0.2487 -0.3042 -0.1061
 1655SOL    HW114169   0.377   8.898   1.305  0.2331 -0.4270  0.6193
 1655SOL    HW214170   0.239   8.816   1.279  0.3476  0.0667 -1.6460
 1656SOL     OW14171   9.893   7.408   2.329  0.4912  0.1911  0.3826
 1656SOL    HW114172   9.901   7.491   2.385 -0.0527  0.3980  0.1581
 1656SOL    HW214173   9.937   7.423   2.241 -1.2548  0.9140 -0.3932
 1659SOL     OW14174   2.501   9.357   0.603 -0.1578 -0.5269  0.2861
 1659SOL    HW114175   2.527   9.434   0.544 -1.3018 -1.0593 -0.9324
 1659SOL    HW214176   2.495   9.388   0.697  0.4347  0.6352 -0.0461
 1660SOL     OW14177   0.329   8.310   1.007  0.0573  0.3312 -0.1609
 1660SOL    HW114178   0.397   8.379   1.031  1.2364 -0.9116  0.1801
 1660SOL    HW214179   0.334   8.235   1.073  0.6626 -1.3340 -2.0677
 1662SOL     OW14180   9.014   0.477   2.170  0.0235 -0.7653  0.2947
 1662SOL    HW114181   9.104   0.517   2.153 -0.6881 -0.4852 -3.1890
 1662SOL    HW214182   9.025   0.388   2.213  1.9909 -0.8397 -0.2982
 1663SOL     OW14183   1.703   8.213   1.033 -0.3066  0.0854  0.3386
 1663SOL    HW114184   1.664   8.233   1.122  0.9091  0.0923  0.8753
 1663SOL    HW214185   1.802   8.228   1.035 -0.3101  0.4113 -1.0981
 1665SOL     OW14186   2.572   4.926   2.562  0.2138 -0.0737 -0.3981
 1665SOL    HW114187   2.541   4.850   2.620 -0.7510  0.3821 -0.3029
 1665SOL    HW214188   2.666   4.949   2.585  0.5295 -1.2795 -0.4594
 1666SOL     OW14189   9.887   4.775   0.566  0.2549  0.4672  0.7411
 1666SOL    HW114190   9.986   4.783   0.555  0.1093  0.3513 -0.6531
 1666SOL    HW214191   9.858   4.682   0.546 -0.4305  1.0685 -1.1376
 1667SOL     OW14192   0.833   4.440   0.319 -0.8136  0.4639 -0.6560
 1667SOL    HW114193   0.899   4.492   0.264  1.1204 -1.2486 -0.0597
 1667SOL    HW214194   0.795   4.366   0.264 -0.1185 -0.2359 -0.2250
 1668SOL     OW14195   8.240   0.908   1.301 -0.4718 -0.2221  0.0403
 1668SOL    HW114196   8.228   0.930   1.204 -1.3646 -3.2748 -0.6045
 1668SOL    HW214197   8.199   0.979   1.357 -2.0974  0.3965 -1.8836
 1669SOL     OW14198   0.529   5.996   1.619 -0.3640 -0.8090  0.4611
 1669SOL    HW114199   0.558   6.037   1.705 -0.3659  0.4862 -0.1456
 1669SOL    HW214200   0.610   5.968   1.567 -0.2162  1.1298 -0.4153
 1670SOL     OW14201   7.799   9.212   1.434  0.1279  0.4230 -0.1273
 1670SOL    HW114202   7.714   9.161   1.451  1.0324 -0.7843  0.8486
 1670SOL    HW214203   7.777   9.308   1.419 -1.6203 -0.2700 -2.2054
 1671SOL     OW14204   2.413   3.581   1.813  0.2614  0.1374 -0.0221
 1671SOL    HW114205   2.472   3.650   1.773  0.9739  0.0796  0.8998
 1671SOL    HW214206   2.436   3.570   1.910 -0.3137 -0.8876  0.0045
 1672SOL     OW14207   4.030   4.845   1.718 -0.0035  0.2107  0.4130
 1672SOL    HW114208   4.079   4.879   1.799  1.0517  0.3811 -0.2896
 1672SOL    HW214209   3.986   4.922   1.672  1.5932  0.5143 -0.6430
 1673SOL     OW14210   2.517   7.562   0.094 -0.5886 -0.1284 -0.3085
 1673SOL    HW114211   2.434   7.599   0.136 -0.9550 -1.2826  0.0138
 1673SOL    HW214212   2.525   7.596   0.000 -1.5531 -0.2070 -0.4200
 1674SOL     OW14213   8.680   2.379   1.393  0.0272  0.5295 -0.3208
 1674SOL    HW114214   8.592   2.423   1.380 -0.8401 -0.3111  2.3197
 1674SOL    HW214215   8.736   2.435   1.456 -0.3384 -1.0959  1.4999
 1675SOL     OW14216   9.847   6.165   1.235  0.2538 -0.0972  0.3368
 1675SOL    HW114217   9.795   6.126   1.159  0.5702  1.4883 -0.7369
 1675SOL    HW214218   9.793   6.237   1.279  1.3575  1.3150 -0.5621
 1676SOL     OW14219   9.917   3.661   0.901  0.5277 -0.2535 -0.9367
 1676SOL    HW114220   9.856   3.730   0.863  0.0502 -0.0245  0.2300
 1676SOL    HW214221   9.866   3.576   0.917  0.9460 -0.6584 -1.6774
 1678SOL     OW14222   9.582   8.845   0.024 -0.0931 -0.3886  0.1570
 1678SOL    HW114223   9.643   8.921   0.004 -1.9574  1.5877  1.7492
 1678SOL    HW214224   9.559   8.845   0.122 -0.5604 -2.6721  0.0763
 1679SOL     OW14225   0.741   8.389   1.951  0.0632 -0.3014 -0.2887
 1679SOL    HW114226   0.721   8.377   2.048 -0.1222  0.0392 -0.2847
 1679SOL    HW214227   0.741   8.486   1.928  2.0714 -0.2665 -0.2181
 1680SOL     OW14228   8.727   2.976   1.041 -0.3651 -0.5428 -0.5345
 1680SOL    HW114229   8.814   2.969   1.088 -0.9496 -1.2439  0.4602
 1680SOL    HW214230   8.685   3.065   1.060 -1.1311 -1.2658  1.2116
 1683SOL     OW14231   1.390   4.512   2.218  0.2614  0.4792  0.0060
 1683SOL    HW114232   1.443   4.573   2.159  0.0993  0.2468 -0.3821
 1683SOL    HW214233   1.452   4.461   2.278  0.7007 -1.6906 -2.2235
 1684SOL     OW14234   1.677   7.819   2.182 -0.3504  0.0712  0.0590
 1684SOL    HW114235   1.659   7.735   2.129 -1.7847  0.0301  0.5775
 1684SOL    HW214236   1.754   7.868   2.142 -1.1839 -0.1463 -1.8860
 1685SOL     OW14237   8.779   1.716   0.269  0.2118 -0.3770  0.0709
 1685SOL    HW114238   8.751   1.636   0.323  0.4636 -0.5947 -0.1153
 1685SOL    HW214239   8.788   1.796   0.328 -1.3682 -0.1677  0.0443
 1686SOL     OW14240   6.534   9.281   1.818 -0.3824 -0.4578  0.3955
 1686SOL    HW114241   6.613   9.320   1.864  0.0850 -0.2169 -0.6010
 1686SOL    HW214242   6.458   9.272   1.883 -0.2746  1.4512  0.8142
 1687SOL     OW14243   2.801   7.551   1.568 -0.0520 -0.0979 -0.4517
 1687SOL    HW114244   2.856   7.575   1.488  0.5385 -1.5392 -0.4737
 1687SOL    HW214245   2.841   7.592   1.650  0.8675 -0.8810 -0.5111
 1688SOL     OW14246   0.144   6.786   1.001 -0.0651 -0.1161 -0.2153
 1688SOL    HW114247   0.057   6.782   1.049 -0.7752  2.2582 -1.2165
 1688SOL    HW214248   0.196   6.865   1.033  0.5396  0.0290 -1.5319
 1691SOL     OW14249   2.845   4.567   1.924  0.5404 -0.2481 -0.0795
 1691SOL    HW114250   2.866   4.663   1.907  0.0036 -0.0864  0.1536
 1691SOL    HW214251   2.870   4.512   1.844 -0.7291  0.3170 -0.8734
 1692SOL     OW14252   7.707   0.798   0.427  0.1682  0.2607  0.1166
 1692SOL    HW114253   7.694   0.709   0.472 -0.3878  0.1252 -0.3140
 1692SOL    HW214254   7.789   0.841   0.463  0.6952 -0.6327 -0.0044
 1693SOL     OW14255   0.652   6.764   2.235  0.1378  0.2825  0.1632
 1693SOL    HW114256   0.671   6.841   2.175  0.4008 -0.7616 -1.1030
 1693SOL    HW214257   0.719   6.691   2.219  0.4014  0.1112  1.9397
 1694SOL     OW14258   1.418   5.354   1.203  0.2692 -0.0649  0.2654
 1694SOL    HW114259   1.434   5.297   1.283 -2.1910  0.4331  1.1399
 1694SOL    HW214260   1.347   5.313   1.146 -0.1729  1.1519 -0.0827
 1695SOL     OW14261   1.758   6.381   1.360  0.1912 -0.2690  0.5044
 1695SOL    HW114262   1.791   6.419   1.274 -0.7139  1.2360  0.7918
 1695SOL    HW214263   1.769   6.450   1.433 -0.7662 -0.8417  1.2026
 1697SOL     OW14264   1.891   8.301   0.674 -0.4634 -0.2514 -0.0393
 1697SOL    HW114265   1.880   8.289   0.576 -0.2627 -1.0803  0.0378
 1697SOL    HW214266   1.842   8.229   0.722 -0.3161 -0.0195  0.4640
 1698SOL     OW14267   0.889   2.456   0.992 -0.1136  0.0394 -0.3424
 1698SOL    HW114268   0.976   2.490   1.027 -0.0576  0.8041 -1.2183
 1698SOL    HW214269   0.837   2.415   1.067 -0.1744  2.0308  0.7174
 1699SOL     OW14270   0.303   2.152   0.440  0.6063  0.0565 -0.4769
 1699SOL    HW114271   0.250   2.147   0.524  1.2511  0.1754 -0.0550
 1699SOL    HW214272   0.280   2.236   0.391  0.2458 -0.0019 -0.4054
 1701SOL     OW14273   8.833   4.993   2.434 -0.1601 -0.1791 -0.7783
 1701SOL    HW114274   8.851   4.921   2.501 -3.3206  0.2897  0.6211
 1701SOL    HW214275   8.876   5.078   2.464  0.1911 -0.4744 -0.4310
 1702SOL     OW14276   1.656   6.237   0.477 -0.3845  0.1522 -0.5911
 1702SOL    HW114277   1.562   6.257   0.449 -0.1432  2.8759  0.4467
 1702SOL    HW214278   1.719   6.262   0.403 -0.4028 -0.8982 -0.9677
 1703SOL     OW14279   2.671   4.600   0.870  1.0581 -0.3449 -0.0182
 1703SOL    HW114280   2.608   4.590   0.794 -0.4423  0.4018  1.0866
 1703SOL    HW214281   2.717   4.513   0.887  1.4700 -0.4923 -1.8063
 1704SOL     OW14282   3.690   0.782   0.010  0.0703  0.1494 -0.3424
 1704SOL    HW114283   3.615   0.845  -0.012  0.5269  1.1465  0.8664
 1704SOL    HW214284   3.686   0.703  -0.050 -1.8006  0.3138 -0.4621
 1706SOL     OW14285   1.382   2.611   0.087  0.1101  0.2965 -0.0749
 1706SOL    HW114286   1.325   2.625   0.006 -0.0310 -2.0431 -0.4225
 1706SOL    HW214287   1.473   2.578   0.058 -0.1782 -1.2526  0.7300
 1710SOL     OW14288   2.327   9.479   1.783  0.1855 -0.3877  0.2904
 1710SOL    HW114289   2.251   9.522   1.833 -0.8380 -0.9890 -0.7216
 1710SOL    HW214290   2.333   9.382   1.809 -0.1200 -0.6137 -0.4656
 1711SOL     OW14291   0.087   4.797   1.113  1.0412  0.9112  0.3483
 1711SOL    HW114292   0.103   4.710   1.160  1.2026  0.8430  0.1665
 1711SOL    HW214293   0.144   4.868   1.154  0.2663  1.1238  1.0688
 1714SOL     OW14294   8.527   0.991   1.493 -0.2724 -0.1738  0.4737
 1714SOL    HW114295   8.596   0.920   1.479 -0.8911 -0.6863  0.0433
 1714SOL    HW214296   8.493   1.022   1.404 -1.5998 -0.8944  0.7275
 1715SOL     OW14297   8.234   9.569   0.926 -0.2534 -0.7418  0.2374
 1715SOL    HW114298   8.196   9.566   1.019  0.2069 -0.6975  0.4274
 1715SOL    HW214299   8.162   9.547   0.860 -0.5299 -0.9916  0.6186
 1716SOL     OW14300   8.655   3.988   0.007  0.1888  0.3010 -0.4757
 1716SOL    HW114301   8.630   3.968   0.102  0.1372  0.5207 -0.4414
 1716SOL    HW214302   8.587   3.948  -0.054 -1.6252  2.9409 -0.2878
 1717SOL     OW14303   0.115   2.302   1.094 -0.2391 -0.2402 -0.0443
 1717SOL    HW114304   0.075   2.357   1.022 -0.8757  1.1500  1.3345
 1717SOL    HW214305   0.047   2.238   1.130 -0.9765  1.4644  1.6527
 1719SOL     OW14306   3.981   3.966   1.026  0.1442  0.4489 -1.0145
 1719SOL    HW114307   3.909   3.988   0.960 -1.1917 -1.8051 -0.3748
 1719SOL    HW214308   4.057   3.921   0.978  0.2383  0.9978 -1.3834
 1720SOL     OW14309   8.932   3.124   2.198 -0.3941 -0.2280 -0.0785
 1720SOL    HW114310   8.878   3.205   2.178  2.5532  1.9225  0.3048
 1720SOL    HW214311   8.967   3.085   2.113 -0.3990 -0.1003 -0.1381
 1721SOL     OW14312   2.036   0.513   1.821  0.1254 -0.3287  0.3397
 1721SOL    HW114313   2.022   0.506   1.723  0.1829 -1.4806  0.4039
 1721SOL    HW214314   1.975   0.450   1.869  0.0285  0.2901  1.0486
 1722SOL     OW14315   2.295   7.602   0.256 -0.8437  0.0486 -0.1848
 1722SOL    HW114316   2.221   7.548   0.214 -0.4827 -0.1364 -0.5976
 1722SOL    HW214317   2.259   7.689   0.287 -1.1983  0.0451 -0.5727
 1723SOL     OW14318   9.968   6.764   0.058  0.1175  0.2060 -0.0070
 1723SOL    HW114319  10.003   6.733   0.146  0.6258 -0.9068 -0.5947
 1723SOL    HW214320   9.936   6.686   0.004 -3.1927  1.1616  0.4426
 1724SOL     OW14321   1.562   0.307   0.666  0.2805  0.5393 -0.3926
 1724SOL    HW114322   1.661   0.290   0.664  0.0840 -0.6065 -1.0062
 1724SOL    HW214323   1.543   0.388   0.721  1.4365 -0.0993  0.9713
 1725SOL     OW14324   8.568   8.636   1.253 -0.5004 -0.1033 -0.2026
 1725SOL    HW114325   8.573   8.574   1.331 -0.4150 -0.3615 -0.4109
 1725SOL    HW214326   8.478   8.631   1.211 -0.3681 -0.3821 -0.4582
 1726SOL     OW14327   8.454   0.448   0.663  0.1006 -0.2370 -0.1991
 1726SOL    HW114328   8.525   0.402   0.717 -0.4472  0.5674  1.2197
 1726SOL    HW214329   8.415   0.523   0.716 -0.9121  0.1563 -1.4759
 1727SOL     OW14330   4.028   4.585   1.494 -0.6144 -0.2905  0.6411
 1727SOL    HW114331   4.032   4.669   1.548 -0.6147 -0.3344  0.7084
 1727SOL    HW214332   4.048   4.507   1.552  3.0428 -0.0255 -0.1373
 1728SOL     OW14333   9.778   2.327   1.163  0.0636  0.1356  0.1309
 1728SOL    HW114334   9.779   2.228   1.151 -0.7797 -0.1156  2.0258
 1728SOL    HW214335   9.852   2.353   1.225 -0.5844  0.5548  0.7210
 1729SOL     OW14336   1.078   4.224   2.649 -0.6583  0.9593  0.3687
 1729SOL    HW114337   1.139   4.249   2.573  0.8765  0.6420  1.4817
 1729SOL    HW214338   1.017   4.150   2.620  2.4342 -1.7542  0.5570
 1730SOL     OW14339   3.470   4.242   2.435  0.3757 -0.5671 -0.3675
 1730SOL    HW114340   3.559   4.272   2.401  0.0315 -0.0574 -0.8142
 1730SOL    HW214341   3.437   4.307   2.504  0.9797 -1.4858  0.8051
 1732SOL     OW14342   2.052   0.345   1.541  0.2753  0.0027 -0.2450
 1732SOL    HW114343   2.033   0.283   1.465 -0.5194  0.9435 -0.8351
 1732SOL    HW214344   2.091   0.294   1.617 -1.5097 -1.4299 -0.2647
 1734SOL     OW14345   4.030   1.718   0.750  0.3780 -0.3973 -0.5960
 1734SOL    HW114346   3.931   1.721   0.733  0.1509  1.6916  0.8506
 1734SOL    HW214347   4.068   1.810   0.739  2.3786 -1.3830 -2.2179
 1735SOL     OW14348   9.309   0.827   1.910  0.2727  0.1396  0.6659
 1735SOL    HW114349   9.213   0.823   1.936  0.5312 -1.7633  1.4213
 1735SOL    HW214350   9.362   0.867   1.985  0.2768 -0.2836  0.8919
 1736SOL     OW14351   8.674   8.048   1.524 -0.4671 -0.5169 -0.5544
 1736SOL    HW114352   8.730   7.998   1.591  1.0866  3.0301  0.9233
 1736SOL    HW214353   8.680   8.002   1.435  3.1108 -1.4175  0.0614
 1737SOL     OW14354   1.014   3.259   2.630  0.5411  0.5315  0.4813
 1737SOL    HW114355   0.955   3.285   2.706  0.5785  3.1303 -0.3263
 1737SOL    HW214356   0.958   3.232   2.552  0.4830 -0.4629  0.8607
 1739SOL     OW14357   0.826   7.846   0.849 -0.5132  0.6155 -0.8789
 1739SOL    HW114358   0.808   7.934   0.894 -0.1716  0.1785  0.1259
 1739SOL    HW214359   0.851   7.862   0.753  2.6004  1.8295  0.0920
 1740SOL     OW14360   9.105   4.262   1.391 -0.6369  0.4043 -0.3295
 1740SOL    HW114361   9.103   4.179   1.448  1.5281 -0.0540 -0.9063
 1740SOL    HW214362   9.043   4.251   1.314 -0.0489 -0.8563 -0.6320
 1742SOL     OW14363   4.249   7.920   2.304 -0.1714  0.3379 -0.3463
 1742SOL    HW114364   4.169   7.868   2.275  0.2719 -0.7624  0.3586
 1742SOL    HW214365   4.325   7.903   2.240 -0.3418  0.9830 -0.7283
 1743SOL     OW14366   9.249   0.588   2.157 -0.3277  0.4003  0.0016
 1743SOL    HW114367   9.271   0.670   2.209 -0.4371  2.0232 -2.4057
 1743SOL    HW214368   9.326   0.566   2.096 -0.5116 -0.9870  0.2609
 1744SOL     OW14369   1.517   0.929   2.467 -0.0175 -0.0851  0.2555
 1744SOL    HW114370   1.450   0.891   2.404  1.5041  1.6648 -2.4846
 1744SOL    HW214371   1.606   0.888   2.451  0.3975  0.3817  1.2933
 1745SOL     OW14372   3.888   4.438   0.928  0.3440  0.2451 -0.4749
 1745SOL    HW114373   3.955   4.374   0.964  0.1123  0.5053  0.4163
 1745SOL    HW214374   3.919   4.472   0.839  1.4722  0.5138  0.0201
 1746SOL     OW14375   2.980   4.325   2.400  0.1326  0.3795 -0.3645
 1746SOL    HW114376   3.028   4.278   2.326  1.7370 -0.8045  1.3898
 1746SOL    HW214377   2.896   4.276   2.422  0.6873 -0.4249 -0.0297
 1748SOL     OW14378   3.254   7.100   1.133  0.0096 -0.2360 -0.0174
 1748SOL    HW114379   3.353   7.102   1.115  0.2345 -0.3897  1.1179
 1748SOL    HW214380   3.238   7.125   1.229 -1.2136  1.7582 -0.7261
 1750SOL     OW14381   9.826   9.658   1.351 -0.1587 -0.0528 -0.0665
 1750SOL    HW114382   9.754   9.727   1.359  0.6498  0.9996 -1.5605
 1750SOL    HW214383   9.911   9.696   1.388 -0.0539 -0.7918  0.4525
 1751SOL     OW14384   8.261   3.470   0.533 -0.2018 -0.1985 -0.1895
 1751SOL    HW114385   8.339   3.408   0.528 -0.3948 -0.5813  1.5404
 1751SOL    HW214386   8.290   3.563   0.510  0.4793 -0.5748 -0.8561
 1752SOL     OW14387   0.655   5.042   1.966 -0.6229 -0.9067 -0.3741
 1752SOL    HW114388   0.730   4.977   1.953 -0.8410 -1.3888  0.6735
 1752SOL    HW214389   0.672   5.124   1.913  1.3763 -0.4238  0.9759
 1753SOL     OW14390   3.186   4.855   0.325 -0.6235 -0.2400  0.3893
 1753SOL    HW114391   3.112   4.788   0.313  0.4228 -1.1651 -1.1391
 1753SOL    HW214392   3.162   4.940   0.277  0.5893 -1.6134 -2.8474
 1754SOL     OW14393   9.960   0.634   2.182  0.2134 -0.2095  0.2899
 1754SOL    HW114394  10.012   0.681   2.111  0.6502  1.2684  1.5502
 1754SOL    HW214395   9.941   0.540   2.154 -0.2553  0.5738 -2.0727
 1755SOL     OW14396   2.587   1.479   2.657  0.4507  0.4105  0.1385
 1755SOL    HW114397   2.510   1.489   2.594  0.2896  0.8212  0.4026
 1755SOL    HW214398   2.638   1.564   2.662  0.9097  0.1466 -0.0155
 1757SOL     OW14399   0.716   0.784   2.003  0.2263  0.3422 -0.4224
 1757SOL    HW114400   0.759   0.853   1.945  1.5093 -0.1856 -0.1098
 1757SOL    HW214401   0.785   0.740   2.060 -0.6431 -0.8937 -0.2954
 1759SOL     OW14402   3.099   0.915   2.283 -0.0539 -0.2640 -0.4481
 1759SOL    HW114403   3.095   0.858   2.201  1.1922  1.9230 -2.1087
 1759SOL    HW214404   3.194   0.919   2.315 -0.3232 -0.0437  0.3228
 1760SOL     OW14405   8.058   1.075   2.509  0.1056 -0.0438  0.2876
 1760SOL    HW114406   8.076   1.089   2.606 -2.1257 -2.5838  1.1496
 1760SOL    HW214407   8.130   1.019   2.469 -0.3985 -1.3652  1.1907
 1761SOL     OW14408   1.360   9.028   1.511 -0.3050 -0.0423 -0.1946
 1761SOL    HW114409   1.411   8.973   1.577  0.5537 -1.0198 -1.6487
 1761SOL    HW214410   1.403   9.118   1.501 -0.7413  0.2991  0.9459
 1762SOL     OW14411   4.477   0.792   2.214  0.3188 -0.2874 -0.4154
 1762SOL    HW114412   4.439   0.701   2.231  0.8641 -0.9559 -2.5847
 1762SOL    HW214413   4.437   0.857   2.278 -0.0580 -2.0512  1.2019
 1763SOL     OW14414   9.940   1.109   1.448  0.1342 -0.1272 -0.1630
 1763SOL    HW114415   9.991   1.126   1.532  1.0037  1.8899 -1.0848
 1763SOL    HW214416   9.843   1.098   1.470  0.1035  2.1461  0.9079
 1764SOL     OW14417   2.161   5.821   1.391 -0.1166 -0.0298 -0.2389
 1764SOL    HW114418   2.151   5.853   1.486 -0.8717 -0.7780 -0.0684
 1764SOL    HW214419   2.185   5.724   1.391  3.0924  0.7191 -0.7334
 1765SOL     OW14420   7.253   0.065   1.219 -0.3340 -0.1141 -0.0795
 1765SOL    HW114421   7.211   0.023   1.138  0.3287  2.6985 -1.9620
 1765SOL    HW214422   7.278   0.160   1.198  3.6797 -0.5580  2.0697
 1766SOL     OW14423   0.820   1.612   0.504  0.0033  0.8108 -0.6290
 1766SOL    HW114424   0.909   1.574   0.480 -0.1962 -0.2971  0.3680
 1766SOL    HW214425   0.806   1.605   0.603 -1.9319 -0.6415 -0.9734
 1768SOL     OW14426   9.517   4.935   1.511  0.0133  0.2046 -0.0504
 1768SOL    HW114427   9.499   4.888   1.597 -0.7726  0.2463 -0.1884
 1768SOL    HW214428   9.573   5.016   1.529  1.0187 -0.5558  0.2361
 1769SOL     OW14429   8.739   0.426   1.176  0.4984 -0.4688 -0.1190
 1769SOL    HW114430   8.653   0.466   1.143  0.6549 -0.5224 -0.6007
 1769SOL    HW214431   8.722   0.373   1.260  0.1521 -0.0673  0.0610
 1770SOL     OW14432   0.314   3.431   2.467 -0.0040 -0.1989 -0.0146
 1770SOL    HW114433   0.215   3.426   2.451  0.0443 -1.8854  0.1618
 1770SOL    HW214434   0.349   3.340   2.490  1.5114  0.4792  0.4202
 1771SOL     OW14435   1.483   6.742   1.005  0.1441 -0.7770  0.0047
 1771SOL    HW114436   1.419   6.804   1.049  0.0843 -0.7612 -0.1046
 1771SOL    HW214437   1.468   6.649   1.039  0.1567 -0.7512  0.0820
 1772SOL     OW14438   1.990   6.976   1.707  0.5623 -0.0982 -0.0159
 1772SOL    HW114439   1.928   7.018   1.774 -0.5139 -0.8734 -0.5139
 1772SOL    HW214440   2.012   6.883   1.736  0.7374 -0.1584 -0.3393
 1773SOL     OW14441   1.427   9.856   0.771 -0.0128  0.0958  0.0068
 1773SOL    HW114442   1.489   9.790   0.812 -0.5608 -0.3130  0.1852
 1773SOL    HW214443   1.476   9.910   0.702  0.6434  0.0747  0.4550
 1776SOL     OW14444   0.131   2.107   2.230 -0.3550  0.6499 -0.5403
 1776SOL    HW114445   0.088   2.136   2.145 -0.5791 -0.2863 -0.7585
 1776SOL    HW214446   0.230   2.099   2.217 -0.5777 -1.2809 -1.2652
 1777SOL     OW14447   0.614   0.748   0.668  0.2153 -0.6207  0.5021
 1777SOL    HW114448   0.564   0.833   0.652  0.4996 -0.7493 -1.1990
 1777SOL    HW214449   0.712   0.767   0.674  0.1120 -0.5820  2.1312
 1779SOL     OW14450   1.786   9.440   1.993  0.7108 -0.3334  0.4955
 1779SOL    HW114451   1.803   9.522   2.048  0.0344  0.2793 -0.1959
 1779SOL    HW214452   1.708   9.391   2.030 -0.6539  0.8490 -0.7494
 1780SOL     OW14453   7.387   9.349   0.109  0.5078 -0.1141  0.3488
 1780SOL    HW114454   7.388   9.380   0.205 -0.9729  0.2909  0.2330
 1780SOL    HW214455   7.418   9.254   0.105  1.4181  0.1338  1.1267
 1781SOL     OW14456   4.548   2.966   1.961 -0.0289 -0.2658  0.0940
 1781SOL    HW114457   4.570   2.985   2.057  1.0925 -0.1853 -0.1758
 1781SOL    HW214458   4.524   3.052   1.915  2.3064  0.1641 -0.4175
 1782SOL     OW14459   0.877   9.285   0.483  0.6143  0.5426 -0.2611
 1782SOL    HW114460   0.783   9.274   0.516  0.8922 -0.5829  0.1797
 1782SOL    HW214461   0.888   9.240   0.395  0.9231  0.0273  0.0339
 1783SOL     OW14462   2.042   3.329   2.442 -0.2797 -0.4552  0.5370
 1783SOL    HW114463   2.126   3.379   2.462 -1.4831  1.0333  1.9682
 1783SOL    HW214464   1.990   3.378   2.371 -0.4861 -0.7515  0.4825
 1784SOL     OW14465   6.267   0.247   2.433  0.1562 -0.3536 -0.5652
 1784SOL    HW114466   6.364   0.236   2.453  0.7371  2.7189 -1.3318
 1784SOL    HW214467   6.221   0.285   2.513 -0.0046  0.0217 -0.8310
 1786SOL     OW14468   2.926   6.074   0.215  0.1608 -0.2363 -0.5605
 1786SOL    HW114469   2.962   6.075   0.308 -0.1351  1.3537 -0.4522
 1786SOL    HW214470   2.991   6.118   0.153  0.4119 -1.3978 -1.1410
 1787SOL     OW14471   3.403   4.898   0.042 -0.4138 -0.4833 -0.1429
 1787SOL    HW114472   3.377   4.974   0.102 -0.8383 -0.4550 -0.3611
 1787SOL    HW214473   3.327   4.833   0.036 -0.7979  0.0697 -1.5317
 1788SOL     OW14474   3.543   7.445   1.922  0.2454 -0.1656  0.5967
 1788SOL    HW114475   3.513   7.477   1.833  3.8507 -1.4961 -1.2136
 1788SOL    HW214476   3.517   7.349   1.933 -0.2751  0.0230  1.0083
 1789SOL     OW14477   3.980   9.176   2.203  0.4338 -0.1014 -0.1825
 1789SOL    HW114478   3.888   9.213   2.218  0.1396 -1.4333  1.5301
 1789SOL    HW214479   4.047   9.250   2.208 -0.3231  0.5142  1.1577
 1790SOL     OW14480   7.964   9.359   0.492  0.3491  0.8263  0.0080
 1790SOL    HW114481   7.937   9.263   0.500  1.6522  0.5146  0.9059
 1790SOL    HW214482   7.969   9.384   0.395 -2.3009  0.6795 -0.1885
 1791SOL     OW14483   1.899   2.504   1.502  0.4573  0.1810 -0.0536
 1791SOL    HW114484   1.887   2.443   1.579 -1.5641  0.9588  0.2579
 1791SOL    HW214485   1.991   2.492   1.464  0.3849 -2.3895  0.5430
 1792SOL     OW14486   1.587   5.776   0.732  0.7822 -0.8911  0.0188
 1792SOL    HW114487   1.591   5.804   0.636  1.7240  0.9721  0.5823
 1792SOL    HW214488   1.677   5.787   0.774 -0.2929  1.2130  1.9068
 1793SOL     OW14489   9.985   6.131   2.330 -0.2028  0.5225  1.3097
 1793SOL    HW114490  10.070   6.082   2.315 -0.0628  0.8770  0.9399
 1793SOL    HW214491  10.001   6.229   2.324 -0.8338  0.5668  0.1670
 1795SOL     OW14492   0.537   2.774   0.765  0.0228 -0.1824 -0.3823
 1795SOL    HW114493   0.601   2.731   0.829 -0.3264 -0.3772 -0.1633
 1795SOL    HW214494   0.481   2.704   0.723  0.0286 -0.0207 -0.6610
 1796SOL     OW14495   9.033   7.968   2.255 -0.0850 -0.5313  0.1524
 1796SOL    HW114496   9.074   7.941   2.168 -0.7032 -2.0497  0.3324
 1796SOL    HW214497   9.092   8.036   2.299  2.9423 -3.6228  1.0229
 1797SOL     OW14498   3.730   7.811   2.294  0.0501 -0.3112 -0.0469
 1797SOL    HW114499   3.669   7.733   2.282 -0.6556  0.3709 -0.9741
 1797SOL    HW214500   3.792   7.793   2.370 -2.6611 -0.1875  2.3047
 1798SOL     OW14501   1.472   4.336   1.800  0.1181  0.5185 -0.0152
 1798SOL    HW114502   1.402   4.387   1.850  1.5069  1.8684  0.5690
 1798SOL    HW214503   1.429   4.258   1.755 -1.6256  0.8351  1.0284
 1799SOL     OW14504   4.677   0.425   1.115 -0.1866  0.2384 -0.2364
 1799SOL    HW114505   4.727   0.497   1.067 -1.1210  0.3577 -1.0366
 1799SOL    HW214506   4.643   0.460   1.202  1.5246  0.0148  0.5489
 1800SOL     OW14507   2.393   8.469   0.666 -0.5804 -0.1186  0.0788
 1800SOL    HW114508   2.416   8.432   0.576 -2.6952  1.1436 -1.0292
 1800SOL    HW214509   2.419   8.566   0.671  0.1379 -0.3489  1.0844
 1803SOL     OW14510   0.901   6.577   0.503 -0.3255 -0.3678  0.0729
 1803SOL    HW114511   0.903   6.669   0.542  2.0029 -0.6078  0.5929
 1803SOL    HW214512   0.958   6.516   0.559 -2.5226 -2.3293  0.2322
 1804SOL     OW14513   0.388   5.516   1.024  0.6358  0.4674 -0.2248
 1804SOL    HW114514   0.475   5.481   1.058  0.7711  0.0079 -1.0319
 1804SOL    HW214515   0.400   5.609   0.991  0.3595  1.1614  1.5751
 1805SOL     OW14516   1.437   0.333   2.239 -0.0945 -0.3282 -0.4533
 1805SOL    HW114517   1.422   0.302   2.145 -2.6061 -0.3182 -0.0889
 1805SOL    HW214518   1.369   0.290   2.299  0.1852  1.2636  1.0266
 1806SOL     OW14519   9.900   3.528   1.669  0.0273  0.0405 -0.9155
 1806SOL    HW114520   9.924   3.568   1.757  1.1679 -0.3317 -1.0581
 1806SOL    HW214521   9.873   3.601   1.605  0.6943  0.4457 -0.7343
 1807SOL     OW14522   2.383   6.195   0.017  0.1541  0.3117 -0.0778
 1807SOL    HW114523   2.313   6.227   0.081  0.3526 -0.2574  0.4170
 1807SOL    HW214524   2.395   6.097   0.026  2.9889  0.7915  1.7984
 1808SOL     OW14525   0.552   1.783   1.804  0.4179  0.0364  0.6163
 1808SOL    HW114526   0.622   1.852   1.787 -0.7301  0.5069 -2.4034
 1808SOL    HW214527   0.552   1.716   1.729 -1.6456 -0.5592  1.1113
 1809SOL     OW14528   0.823   0.786   1.143  0.2883 -0.2626  0.4896
 1809SOL    HW114529   0.739   0.761   1.095  1.3075 -0.3339 -1.2917
 1809SOL    HW214530   0.813   0.878   1.182  0.3834  0.9273 -2.1875
 1810SOL     OW14531   9.374   9.295   1.941 -0.5742 -0.6048  0.1380
 1810SOL    HW114532   9.333   9.385   1.928  0.4375 -0.4662 -2.3246
 1810SOL    HW214533   9.309   9.225   1.913  0.3695 -0.4296 -2.5926
 1811SOL     OW14534   9.587   5.654   2.689 -0.4663  0.5740  0.6783
 1811SOL    HW114535   9.637   5.600   2.756 -2.5188  0.6676  2.3280
 1811SOL    HW214536   9.570   5.746   2.725 -0.1198  1.1931 -0.6650
 1812SOL     OW14537   3.122   7.728   2.254 -0.6153 -0.3006 -0.0376
 1812SOL    HW114538   3.163   7.641   2.228 -1.9965 -0.9587 -0.0388
 1812SOL    HW214539   3.084   7.720   2.346 -1.7654 -0.0660 -0.4806
 1813SOL     OW14540   2.021   5.305   0.242  0.1539  0.3914 -0.7303
 1813SOL    HW114541   1.951   5.368   0.276  0.5057  0.5297 -0.2554
 1813SOL    HW214542   2.046   5.330   0.149  0.4566  1.1061 -0.4683
 1814SOL     OW14543   0.326   2.888   1.303 -0.0080 -0.0576  0.4755
 1814SOL    HW114544   0.308   2.947   1.381  0.2084  0.6859 -0.0320
 1814SOL    HW214545   0.358   2.943   1.226  1.5327 -0.9951  0.4286
 1815SOL     OW14546   2.546   1.355   0.891 -0.0308  0.3580 -0.1481
 1815SOL    HW114547   2.517   1.323   0.800 -1.1922  2.5701 -0.5882
 1815SOL    HW214548   2.524   1.285   0.959 -1.1223 -0.4445 -1.2871
 1816SOL     OW14549   1.703   4.201   2.396  0.4100  0.0601  0.7218
 1816SOL    HW114550   1.704   4.243   2.305 -0.8918  1.1024  1.1560
 1816SOL    HW214551   1.644   4.121   2.395 -0.7610  0.9043  0.9769
 1817SOL     OW14552   4.235   1.882   1.782  0.6666  0.3661  0.1847
 1817SOL    HW114553   4.214   1.972   1.821 -1.0176  0.0239  0.1219
 1817SOL    HW214554   4.285   1.893   1.696  0.8743  1.2266  0.4118
 1818SOL     OW14555   9.453   2.195   1.075 -0.2638  0.0450 -0.3737
 1818SOL    HW114556   9.438   2.272   1.137 -0.1514 -0.1643 -0.0895
 1818SOL    HW214557   9.368   2.174   1.027 -0.2213  0.5379 -0.6690
 1819SOL     OW14558   4.821   3.564   2.179  0.0239 -0.1569 -0.1950
 1819SOL    HW114559   4.763   3.485   2.158  0.2881 -0.4897  0.3018
 1819SOL    HW214560   4.906   3.557   2.127  0.0784 -0.2406 -0.0962
 1820SOL     OW14561   0.239  10.002   2.217 -0.1554 -0.3679  0.2098
 1820SOL    HW114562   0.304   9.929   2.242 -1.5617 -1.6194  0.2806
 1820SOL    HW214563   0.158   9.995   2.276  0.6816  2.7394  1.8441
 1822SOL     OW14564   9.452   0.593   0.296  0.1132 -0.4305  0.6965
 1822SOL    HW114565   9.450   0.632   0.204 -0.9941  0.2780  1.0204
 1822SOL    HW214566   9.547   0.576   0.322  0.4826  0.1472 -0.2402
 1823SOL     OW14567   3.666   3.918   0.049 -0.0170  0.6807 -0.1801
 1823SOL    HW114568   3.602   3.993   0.031 -0.4549  0.1858 -0.7077
 1823SOL    HW214569   3.645   3.875   0.136 -0.0573  0.8761 -0.0943
 1824SOL     OW14570   4.336   4.394   0.527 -0.0750 -0.2798 -0.2858
 1824SOL    HW114571   4.293   4.461   0.466  0.2053  0.2892  0.1310
 1824SOL    HW214572   4.266   4.345   0.578 -0.2853 -0.3383 -0.6320
 1825SOL     OW14573   9.696   3.855   0.811  0.5965  0.0036  0.6384
 1825SOL    HW114574   9.762   3.909   0.759 -0.1800 -0.2835 -0.6682
 1825SOL    HW214575   9.637   3.804   0.748 -1.8745  1.4211  1.7097
 1826SOL     OW14576   9.144   3.540   2.177 -0.0978 -0.2252 -0.3322
 1826SOL    HW114577   9.064   3.540   2.237 -0.4589 -1.1244 -0.8031
 1826SOL    HW214578   9.176   3.634   2.164  1.3476 -0.1986  3.0303
 1827SOL     OW14579   0.603   0.020   1.255  0.1406 -0.0201 -0.2374
 1827SOL    HW114580   0.657   0.090   1.208 -0.5088  1.2014  0.8008
 1827SOL    HW214581   0.640   0.005   1.346  0.1391 -0.8807 -0.3742
 1830SOL     OW14582   0.845   7.874   0.587  0.1289  0.0589  0.7841
 1830SOL    HW114583   0.876   7.957   0.542 -0.5767 -0.1262 -0.0453
 1830SOL    HW214584   0.861   7.796   0.527 -1.8032 -0.0623  0.4045
 1833SOL     OW14585   2.899   8.036   2.395  0.4708  0.1104 -0.3776
 1833SOL    HW114586   2.931   7.993   2.311 -0.6539 -2.0974  0.2559
 1833SOL    HW214587   2.970   8.031   2.465 -0.3241 -2.7369  0.3317
 1835SOL     OW14588   9.682   8.649   1.469  0.4871  0.3458 -0.3820
 1835SOL    HW114589   9.672   8.683   1.376 -0.7903  0.1834 -0.3129
 1835SOL    HW214590   9.764   8.592   1.475  0.9000  0.8325 -1.2554
 1836SOL     OW14591   1.630   2.920   1.638 -0.1223  0.3293  0.2334
 1836SOL    HW114592   1.548   2.901   1.691 -1.1801  2.1249 -0.7233
 1836SOL    HW214593   1.690   2.840   1.639 -2.4303 -1.4401 -0.0640
 1837SOL     OW14594   2.777   3.290   1.540 -0.1029  0.0267  0.0780
 1837SOL    HW114595   2.695   3.306   1.596  1.3924  0.4682  2.2148
 1837SOL    HW214596   2.785   3.362   1.472 -2.4096 -0.9749 -1.3462
 1838SOL     OW14597   3.193   7.629   1.696 -0.1922 -0.1650 -0.0543
 1838SOL    HW114598   3.212   7.708   1.638 -0.2987 -0.4873 -0.5273
 1838SOL    HW214599   3.101   7.638   1.734 -0.0727  0.1106  0.1693
 1839SOL     OW14600   1.826   7.136   0.905 -0.4428  0.5469  0.0550
 1839SOL    HW114601   1.888   7.109   0.831 -2.0685 -0.4263 -0.9898
 1839SOL    HW214602   1.834   7.072   0.981 -0.3105  0.3193 -0.1531
 1840SOL     OW14603   7.979   0.314   2.607 -0.1741  0.4005  0.1286
 1840SOL    HW114604   8.049   0.263   2.657 -1.4572 -1.0299  0.5053
 1840SOL    HW214605   7.946   0.259   2.531 -1.6146  0.6325  0.5724
 1842SOL     OW14606   1.013   8.706   2.571  0.3636  0.2973  0.8344
 1842SOL    HW114607   1.011   8.792   2.623 -0.7847  0.8429 -0.0771
 1842SOL    HW214608   0.974   8.633   2.627 -2.5542  1.2463  0.1565
 1843SOL     OW14609   0.633   5.100   1.237  0.0518 -0.1087 -0.2480
 1843SOL    HW114610   0.536   5.105   1.212 -0.0653 -0.3781  0.1497
 1843SOL    HW214611   0.647   5.026   1.302  0.1053  1.4537  1.5790
 1844SOL     OW14612   0.152   5.903   1.472 -0.0945 -0.0051  0.1468
 1844SOL    HW114613   0.222   5.935   1.536 -0.1138  3.4842 -1.4248
 1844SOL    HW214614   0.195   5.879   1.385 -0.5498 -0.4045  0.0310
 1845SOL     OW14615   4.435   8.524   0.037  0.0334  0.3494  0.5665
 1845SOL    HW114616   4.496   8.450   0.065 -1.0027  0.1377  2.3919
 1845SOL    HW214617   4.372   8.545   0.112 -2.7394 -0.0646 -1.5688
 1846SOL     OW14618   4.202   2.469   1.118  0.3351  0.6700  0.2038
 1846SOL    HW114619   4.125   2.407   1.104  1.4119 -0.7841  0.6221
 1846SOL    HW214620   4.265   2.429   1.185  1.3143  1.9654  0.0657
 1847SOL     OW14621   2.976   7.018   0.612 -0.7995  0.1753  0.0226
 1847SOL    HW114622   2.944   7.102   0.657  1.5580  1.5910 -0.8430
 1847SOL    HW214623   2.924   7.004   0.527 -1.2359  0.7496  0.1893
 1848SOL     OW14624   2.666   3.244   2.002 -0.0418  0.1407 -0.6568
 1848SOL    HW114625   2.609   3.325   2.011  1.2218  1.3213 -2.7131
 1848SOL    HW214626   2.608   3.162   2.001 -1.7087  1.2898 -2.5348
 1849SOL     OW14627   9.415   8.868   1.951  0.5250  0.4532  0.4181
 1849SOL    HW114628   9.396   8.772   1.968  0.4090  0.2061 -1.0739
 1849SOL    HW214629   9.474   8.904   2.023 -0.4399 -0.4056  1.6511
 1850SOL     OW14630   9.397   2.449   0.583 -0.2653 -0.5055 -0.5641
 1850SOL    HW114631   9.305   2.420   0.555 -1.0293  1.2399  0.0743
 1850SOL    HW214632   9.407   2.437   0.682  0.2398 -0.7947 -0.6470
 1851SOL     OW14633   0.216   8.758   0.722 -0.1643 -0.0233  0.2130
 1851SOL    HW114634   0.157   8.833   0.691  0.3560  1.0441  1.7558
 1851SOL    HW214635   0.301   8.759   0.670 -0.8030 -0.5480 -0.8706
 1852SOL     OW14636   4.153   2.649   2.187  0.2304  0.0725 -0.3234
 1852SOL    HW114637   4.129   2.652   2.090  1.6371  2.5815 -0.6298
 1852SOL    HW214638   4.094   2.712   2.238  0.6972  0.1082  0.1805
 1853SOL     OW14639   8.420   5.437   2.077 -0.4322  0.3650 -0.7478
 1853SOL    HW114640   8.403   5.417   2.174  1.2176 -1.4436 -0.7869
 1853SOL    HW214641   8.349   5.394   2.021  0.4307 -1.4045 -0.5179
 1855SOL     OW14642   2.844   1.814   1.372 -0.1156  0.6779 -0.0659
 1855SOL    HW114643   2.904   1.805   1.293  1.0172 -0.2077  0.8623
 1855SOL    HW214644   2.885   1.878   1.437 -0.1845  0.1003  0.5530
 1856SOL     OW14645   7.810   2.308   0.585 -0.0018 -0.2383 -0.3363
 1856SOL    HW114646   7.806   2.402   0.620  0.8803  0.1285 -1.2224
 1856SOL    HW214647   7.904   2.275   0.586  0.3409  0.3818 -3.8809
 1857SOL     OW14648   1.400   5.601   1.119  0.2010  0.8144  0.1723
 1857SOL    HW114649   1.433   5.666   1.188 -1.1284  0.1879  1.4204
 1857SOL    HW214650   1.403   5.509   1.157  0.7054  0.3185 -1.0816
 1858SOL     OW14651   3.037   9.263   0.298 -0.1334 -0.1624 -0.5516
 1858SOL    HW114652   3.129   9.266   0.336 -0.5102 -1.1073  0.4964
 1858SOL    HW214653   2.994   9.176   0.324 -1.3883  0.3626 -0.8553
 1861SOL     OW14654   3.431   0.486   1.411 -0.2334  0.3208  0.5095
 1861SOL    HW114655   3.531   0.489   1.406 -0.3901  1.1830 -2.9321
 1861SOL    HW214656   3.399   0.395   1.388 -0.3347  0.6353 -0.6057
 1862SOL     OW14657   3.334   8.847   1.582 -0.0446 -0.3228 -0.1408
 1862SOL    HW114658   3.282   8.811   1.660  0.6635 -0.9077  0.0683
 1862SOL    HW214659   3.272   8.864   1.506 -0.7819  0.4506  0.6115
 1863SOL     OW14660   0.681   3.291   0.353  0.2669 -0.0578  0.6935
 1863SOL    HW114661   0.707   3.197   0.377  1.3612 -0.1398 -0.7824
 1863SOL    HW214662   0.698   3.351   0.431  0.0737 -0.9721  1.4628
 1864SOL     OW14663   3.419   0.404   0.597  0.2181  0.0533 -0.1604
 1864SOL    HW114664   3.334   0.353   0.616 -0.6998  1.7117  0.2641
 1864SOL    HW214665   3.473   0.409   0.681 -0.8818  1.9452  0.4501
 1866SOL     OW14666   9.162   2.288   2.073 -0.6630  0.5370  0.2014
 1866SOL    HW114667   9.142   2.368   2.129  0.8841  2.6706 -2.1873
 1866SOL    HW214668   9.200   2.317   1.985 -0.5776 -2.8089 -0.9493
 1867SOL     OW14669   9.036   6.197   1.819  0.6349 -0.0907 -0.1524
 1867SOL    HW114670   8.941   6.190   1.787 -0.1504  0.4840  1.9840
 1867SOL    HW214671   9.083   6.111   1.803 -0.8663 -1.0873  0.6940
 1869SOL     OW14672   8.967   1.535   1.100  0.5150 -0.0796 -0.3448
 1869SOL    HW114673   8.935   1.480   1.177 -0.6768 -1.0824 -1.5302
 1869SOL    HW214674   8.999   1.474   1.027  0.9390  0.8462 -0.9369
 1870SOL     OW14675   3.720   7.047   2.626 -0.0933 -0.2872  0.3245
 1870SOL    HW114676   3.665   7.105   2.686 -0.4739  0.4833 -0.7529
 1870SOL    HW214677   3.769   6.980   2.680  0.5588  1.2115  1.6394
 1872SOL     OW14678   2.106   8.072   0.424  0.3943 -0.3553 -0.4555
 1872SOL    HW114679   2.050   8.062   0.506  1.7707  0.4084  0.5971
 1872SOL    HW214680   2.198   8.101   0.450  0.1989  2.2219 -2.4464
 1873SOL     OW14681   3.037   3.932   0.387 -0.0647 -0.2097  1.1026
 1873SOL    HW114682   2.952   3.963   0.429 -0.1263 -0.3485  1.0780
 1873SOL    HW214683   3.029   3.937   0.288  0.4334  1.0842  1.1171
 1876SOL     OW14684   9.126   0.699   1.532  0.3377  1.1777 -0.2961
 1876SOL    HW114685   9.123   0.678   1.435  0.2708  1.1046 -0.2793
 1876SOL    HW214686   9.143   0.615   1.584  0.2401  1.1938 -0.2370
 1877SOL     OW14687   7.447   9.138   1.226 -0.1549 -0.3695 -0.2990
 1877SOL    HW114688   7.497   9.126   1.312  1.8625 -0.2593 -1.4333
 1877SOL    HW214689   7.420   9.049   1.190 -1.9926 -0.3698  0.9735
 1878SOL     OW14690   1.269   3.224   1.724  0.4682 -0.3757  0.3072
 1878SOL    HW114691   1.313   3.164   1.657  1.8368  0.9809 -0.0291
 1878SOL    HW214692   1.205   3.171   1.779  0.1422 -1.7301 -1.3367
 1879SOL     OW14693   1.516   9.708   1.105 -0.0680  0.1087  0.3126
 1879SOL    HW114694   1.612   9.687   1.118  0.0323 -0.9992 -1.9168
 1879SOL    HW214695   1.505   9.807   1.088  0.4809  0.4661  1.9825
 1880SOL     OW14696   1.408   9.483   1.813  0.5229  0.1332 -0.0849
 1880SOL    HW114697   1.478   9.451   1.876  3.3122  2.4461 -1.9183
 1880SOL    HW214698   1.419   9.438   1.725 -2.5257 -2.0699  0.5501
 1881SOL     OW14699   2.137   6.935   2.142  0.1316  0.6101  0.0247
 1881SOL    HW114700   2.157   6.918   2.046 -0.9563  1.0152 -0.2758
 1881SOL    HW214701   2.211   6.898   2.199  1.1232  1.0116 -0.9972
 1882SOL     OW14702   3.502   2.711   0.288 -0.5776 -0.2796  0.1508
 1882SOL    HW114703   3.533   2.760   0.370  1.2958 -0.3182 -0.5315
 1882SOL    HW214704   3.410   2.742   0.264 -0.3806  1.1171  1.1571
 1883SOL     OW14705   0.806   3.486   2.066 -0.5326  0.3522  1.0086
 1883SOL    HW114706   0.754   3.415   2.113 -0.7948  0.0398  0.2622
 1883SOL    HW214707   0.746   3.537   2.004 -0.3965  1.4049  1.7408
 1884SOL     OW14708   2.259   6.142   0.422 -0.7150 -0.3441  0.1617
 1884SOL    HW114709   2.176   6.187   0.389 -0.0118  0.0184 -1.1145
 1884SOL    HW214710   2.239   6.046   0.442 -1.6906 -0.0039  0.8448
 1885SOL     OW14711   0.868   7.123   1.889 -0.1326 -0.3486  0.0958
 1885SOL    HW114712   0.918   7.037   1.902  0.8616  0.4843  1.9233
 1885SOL    HW214713   0.930   7.191   1.848  0.1314  0.5309  1.8913
 1887SOL     OW14714   4.332   8.395   1.153 -0.5563  0.3655 -0.1437
 1887SOL    HW114715   4.381   8.346   1.226  1.5834  0.4876 -1.4760
 1887SOL    HW214716   4.233   8.378   1.163 -0.1150 -1.5151  1.3865
 1889SOL     OW14717   9.580   2.367   0.400  0.4216  0.4287 -0.2890
 1889SOL    HW114718   9.526   2.423   0.462 -0.1651  1.2687 -1.5418
 1889SOL    HW214719   9.667   2.344   0.442  0.2694  1.4892  0.5988
 1890SOL     OW14720   7.978   8.626   0.076 -0.2370 -0.0379  0.1276
 1890SOL    HW114721   8.077   8.613   0.075 -0.4303 -1.7204  0.8162
 1890SOL    HW214722   7.951   8.673   0.160 -0.1646 -0.9130  0.6452
 1892SOL     OW14723   8.970   1.262   0.301 -0.5151  0.0236 -0.4146
 1892SOL    HW114724   8.875   1.276   0.330 -0.4711 -0.2189 -0.1571
 1892SOL    HW214725   8.978   1.285   0.204 -0.9429 -0.4521 -0.5635
 1893SOL     OW14726   4.503   9.769   1.886 -0.3861 -0.4294 -0.0199
 1893SOL    HW114727   4.577   9.722   1.934 -0.2694 -1.2427 -0.9621
 1893SOL    HW214728   4.536   9.856   1.850 -0.0268 -0.5533  0.0073
 1894SOL     OW14729   9.882   6.969   2.618 -0.2963 -0.1249 -0.5493
 1894SOL    HW114730   9.975   6.983   2.653 -0.4354 -0.5492 -0.0034
 1894SOL    HW214731   9.848   7.055   2.580  0.3814 -0.0089 -0.9126
 1895SOL     OW14732   3.745   8.736   2.137 -0.5697 -0.3595  0.0537
 1895SOL    HW114733   3.709   8.805   2.074 -1.6247 -0.4295  0.5798
 1895SOL    HW214734   3.791   8.782   2.214 -0.4658 -0.2585 -0.0669
 1896SOL     OW14735   7.583   9.373   2.221  0.3480 -0.4649  0.2372
 1896SOL    HW114736   7.486   9.364   2.198 -0.0685  1.5605  1.1165
 1896SOL    HW214737   7.622   9.452   2.173  1.1489 -0.2736  1.1815
 1897SOL     OW14738   3.990   4.502   0.679  0.1580  0.7940  0.3809
 1897SOL    HW114739   4.058   4.432   0.703 -1.7055 -1.2911 -0.1686
 1897SOL    HW214740   4.016   4.547   0.594 -0.2245 -1.5475 -1.0262
 1898SOL     OW14741   8.530   6.433   1.770  0.1824 -0.3541 -0.5130
 1898SOL    HW114742   8.520   6.459   1.674 -1.8258  1.2682  0.1098
 1898SOL    HW214743   8.627   6.432   1.794  0.5554  2.0702 -1.8071
 1900SOL     OW14744   1.956   5.026   0.256 -0.0136 -0.7705  0.1800
 1900SOL    HW114745   2.034   4.968   0.280  1.1442  0.0146 -1.5801
 1900SOL    HW214746   1.973   5.119   0.288 -0.6837 -0.8127  0.6620
 1901SOL     OW14747   1.288   4.094   1.716 -0.0941  0.0189 -0.2257
 1901SOL    HW114748   1.207   4.153   1.718 -0.7691 -0.8989  0.4390
 1901SOL    HW214749   1.285   4.036   1.635  0.4406  0.7237 -0.7492
 1902SOL     OW14750   8.001   3.204   0.806  0.5453 -0.1527 -0.3322
 1902SOL    HW114751   8.010   3.211   0.905 -3.4699  1.0323  0.0086
 1902SOL    HW214752   7.997   3.296   0.767  4.0159 -0.5721 -1.8763
 1903SOL     OW14753   3.022   0.311   2.637 -0.2903 -0.1247 -1.1742
 1903SOL    HW114754   3.005   0.214   2.650 -2.0707  0.6773  3.1133
 1903SOL    HW214755   3.120   0.329   2.646 -0.0880 -1.3506 -0.8543
 1904SOL     OW14756   0.066   1.707   2.047  0.1141 -0.9694 -0.1080
 1904SOL    HW114757   0.098   1.771   1.976 -2.0661 -0.5979 -0.7992
 1904SOL    HW214758   0.034   1.759   2.126 -0.9878 -1.2178 -0.3808
 1906SOL     OW14759   1.945   5.819   1.234  0.1148 -0.2292  0.3802
 1906SOL    HW114760   2.034   5.827   1.279  0.1124 -1.1981  0.5599
 1906SOL    HW214761   1.880   5.774   1.296  0.4693 -2.7769 -1.0590
 1907SOL     OW14762   9.408   9.850   1.632 -0.3993  0.1777  0.0773
 1907SOL    HW114763   9.475   9.902   1.579 -0.1571 -0.0839  0.1303
 1907SOL    HW214764   9.454   9.801   1.706 -0.7322  0.5244  0.5194
 1908SOL     OW14765   4.209   0.631   1.669 -0.1538 -0.1971 -0.4394
 1908SOL    HW114766   4.253   0.711   1.710  0.8344 -1.3982  0.8685
 1908SOL    HW214767   4.113   0.652   1.651 -0.1424  0.9720  0.7909
 1909SOL     OW14768   1.869   2.540   0.097  0.3203  0.5812 -0.1407
 1909SOL    HW114769   1.929   2.520   0.019  0.3537  0.5271 -0.1009
 1909SOL    HW214770   1.774   2.544   0.065  0.2864  0.0952 -0.1013
 1910SOL     OW14771   9.044   9.838   2.187  0.0568  0.2170  0.0378
 1910SOL    HW114772   9.052   9.876   2.095 -1.1356  0.7064  0.1169
 1910SOL    HW214773   9.073   9.742   2.187 -2.9265 -0.7690 -1.5780
 1911SOL     OW14774   9.631   1.551   1.351  0.3130 -0.0168  0.6773
 1911SOL    HW114775   9.617   1.632   1.408 -1.3704 -0.0831  0.3721
 1911SOL    HW214776   9.725   1.551   1.316  0.1206  2.2014  0.0762
 1912SOL     OW14777   6.273   9.101   1.866  0.2024 -0.0561 -0.0386
 1912SOL    HW114778   6.342   9.061   1.927  0.6308  1.4890  0.5224
 1912SOL    HW214779   6.282   9.061   1.775  0.1398 -1.7476  0.6784
 1913SOL     OW14780   2.244   6.285   0.965 -0.4838  0.2316 -0.6925
 1913SOL    HW114781   2.258   6.259   1.060  0.5152 -0.0269 -0.9005
 1913SOL    HW214782   2.223   6.382   0.960  1.2108  0.6386 -0.3319
 1914SOL     OW14783   2.254   7.521   1.443 -0.3025 -0.3836 -0.1022
 1914SOL    HW114784   2.314   7.560   1.514 -0.3542 -2.3198  1.0242
 1914SOL    HW214785   2.174   7.480   1.486  0.0999 -2.3650 -1.2228
 1915SOL     OW14786   2.133   5.511   2.346  0.1088 -0.4842 -0.1264
 1915SOL    HW114787   2.199   5.473   2.411 -0.4716 -0.2088  0.6283
 1915SOL    HW214788   2.157   5.482   2.253 -0.0837 -2.3510  0.3878
 1916SOL     OW14789   2.816   1.727   0.885  0.0692 -0.7694  0.1132
 1916SOL    HW114790   2.823   1.817   0.843 -0.1510 -0.9054 -0.2201
 1916SOL    HW214791   2.720   1.708   0.908  0.1046 -0.9524  0.1116
 1920SOL     OW14792   5.159   2.872   1.480 -0.0900 -0.3482  0.4265
 1920SOL    HW114793   5.172   2.780   1.517 -1.7876 -0.9033 -0.3439
 1920SOL    HW214794   5.238   2.929   1.504  1.5874 -2.3607 -0.2116
 1921SOL     OW14795   0.687   2.678   0.328 -0.0246  0.1055 -0.5594
 1921SOL    HW114796   0.651   2.606   0.269  1.2761  0.3083 -1.6213
 1921SOL    HW214797   0.667   2.767   0.287 -0.4743  0.3000  0.0854
 1922SOL     OW14798   1.216   3.602   0.936 -0.3455  0.5969  0.1089
 1922SOL    HW114799   1.169   3.516   0.955 -1.6198  1.2372 -0.0912
 1922SOL    HW214800   1.286   3.587   0.867 -0.5952 -0.2780  0.0438
 1923SOL     OW14801   8.568   8.837   0.158  0.2136 -0.1562 -0.2633
 1923SOL    HW114802   8.575   8.759   0.095 -1.0550  0.4312 -1.1436
 1923SOL    HW214803   8.640   8.830   0.227  1.0964 -1.2553 -1.2775
 1924SOL     OW14804   1.637   5.912   1.586  0.3491 -0.2946 -0.4252
 1924SOL    HW114805   1.547   5.953   1.572  0.3713  0.4369  1.4063
 1924SOL    HW214806   1.706   5.985   1.590  0.8201 -0.7438 -0.3910
 1925SOL     OW14807   4.034   9.487   1.783 -0.5092 -0.3486 -0.4985
 1925SOL    HW114808   4.093   9.545   1.840 -1.2072 -0.2293  0.1103
 1925SOL    HW214809   4.063   9.494   1.688 -0.8776  1.3821 -0.5045
 1926SOL     OW14810   4.434   0.183   1.523  0.4248  0.3098 -0.2720
 1926SOL    HW114811   4.428   0.283   1.523 -0.7503  0.2538  0.2825
 1926SOL    HW214812   4.497   0.153   1.451  0.6877  1.4444 -0.5250
 1927SOL     OW14813   2.596   8.157   0.620 -0.0481  0.3697 -0.0329
 1927SOL    HW114814   2.642   8.215   0.552  0.7604 -0.8058 -0.5137
 1927SOL    HW214815   2.665   8.113   0.678 -0.4171 -2.7078 -1.8106
 1928SOL     OW14816   0.953   6.194   1.713 -0.3563 -0.2091  0.2613
 1928SOL    HW114817   1.038   6.247   1.710  0.4770 -1.4788  1.0412
 1928SOL    HW214818   0.875   6.255   1.697  0.7701  0.7474 -1.7221
 1929SOL     OW14819   4.360   7.598   0.808  0.1897 -0.2324 -0.0443
 1929SOL    HW114820   4.374   7.600   0.907  0.0647  1.1511 -0.0442
 1929SOL    HW214821   4.437   7.643   0.763  0.1477 -0.6808 -0.5678
 1930SOL     OW14822   9.493   0.654   0.029 -0.4649  0.1125  0.2562
 1930SOL    HW114823   9.510   0.567  -0.017 -0.4908 -1.6255  3.4153
 1930SOL    HW214824   9.401   0.686   0.007  0.3867  0.5859 -2.7956
 1933SOL     OW14825   1.449   0.723   1.570 -0.2253  0.3066 -0.2428
 1933SOL    HW114826   1.378   0.657   1.596 -1.5068  2.5953  2.3429
 1933SOL    HW214827   1.534   0.702   1.619 -0.3475  0.0331 -0.1486
 1934SOL     OW14828   1.700   0.560   1.861 -0.3020 -0.5852 -0.1606
 1934SOL    HW114829   1.697   0.490   1.789  0.6576  0.5714 -1.3433
 1934SOL    HW214830   1.674   0.648   1.823 -0.5602 -0.1002  1.1080
 1936SOL     OW14831   9.896   0.743   1.134  0.3992  0.1601  0.2957
 1936SOL    HW114832   9.840   0.788   1.064 -0.1308 -1.2007 -0.1571
 1936SOL    HW214833   9.927   0.812   1.200 -1.2593  1.0581  0.1830
 1938SOL     OW14834   2.479   7.324   2.413  0.4740 -0.0124  0.0999
 1938SOL    HW114835   2.520   7.259   2.349 -2.0497  1.3672 -3.0846
 1938SOL    HW214836   2.423   7.390   2.362  0.0367  2.4534  3.5729
 1939SOL     OW14837   2.693   1.006   0.252 -0.1103  0.0272  0.3677
 1939SOL    HW114838   2.762   1.038   0.187  0.0836  1.1030  1.1018
 1939SOL    HW214839   2.677   0.908   0.238  1.2945 -0.1476 -0.0616
 1940SOL     OW14840   3.203   1.714   1.995 -0.1119 -0.2347 -0.0866
 1940SOL    HW114841   3.215   1.696   1.898 -2.7589 -0.8974 -0.3137
 1940SOL    HW214842   3.203   1.812   2.012 -0.4683 -0.1050 -0.8520
 1941SOL     OW14843   3.037   0.547   0.131 -0.1080  0.1092 -0.0522
 1941SOL    HW114844   3.039   0.620   0.199 -1.1314 -0.9627  1.1640
 1941SOL    HW214845   3.102   0.476   0.157 -4.2350 -2.8587  2.8241
 1942SOL     OW14846   8.558   8.009   2.234 -0.3916  0.8573 -0.3377
 1942SOL    HW114847   8.647   8.040   2.202 -0.8394  1.8620 -0.6335
 1942SOL    HW214848   8.525   7.936   2.174  0.2516  0.4514 -0.1964
 1944SOL     OW14849   0.294   9.209   2.187  0.4739 -0.2077 -0.5928
 1944SOL    HW114850   0.350   9.139   2.143  1.8626 -0.2142  1.1324
 1944SOL    HW214851   0.219   9.166   2.238  0.3623 -0.3357 -0.8629
 1945SOL     OW14852   1.301   1.397   1.637 -0.5441  0.3525  0.6897
 1945SOL    HW114853   1.282   1.345   1.720  1.8744  0.7844  1.5708
 1945SOL    HW214854   1.294   1.337   1.557  0.0489 -0.8157  1.4984
 1946SOL     OW14855   4.280   8.815   1.591  0.5753 -1.1241 -0.0618
 1946SOL    HW114856   4.209   8.885   1.583  0.0909 -1.6799 -0.6958
 1946SOL    HW214857   4.358   8.839   1.535  0.6764 -0.7617  0.2359
 1947SOL     OW14858   2.104   7.418   2.628  0.7361 -0.2974 -0.6845
 1947SOL    HW114859   2.150   7.332   2.604  0.6896 -0.6489  0.4332
 1947SOL    HW214860   2.061   7.457   2.547  2.8735 -0.0301 -1.7462
 1948SOL     OW14861   3.250   7.179   2.633 -0.1699 -0.0875 -0.0385
 1948SOL    HW114862   3.253   7.084   2.602  0.1497 -0.3273  0.7167
 1948SOL    HW214863   3.295   7.238   2.566 -0.6746 -0.4200 -0.6782
 1949SOL     OW14864   8.270   8.606   2.563 -0.2126  0.3445  0.3437
 1949SOL    HW114865   8.362   8.599   2.524 -1.0511  0.5762 -1.7311
 1949SOL    HW214866   8.216   8.671   2.510 -2.0071 -0.8261  0.6900
 1951SOL     OW14867   0.660   9.985   2.064 -0.3154 -0.1984  0.1836
 1951SOL    HW114868   0.757   9.990   2.086 -0.7465  1.0742  1.8344
 1951SOL    HW214869   0.632  10.068   2.017 -0.4967 -0.8277 -0.8576
 1952SOL     OW14870   1.649   3.404   0.585 -0.5890 -0.5412  0.1990
 1952SOL    HW114871   1.732   3.422   0.532 -0.2893  1.0254  1.1840
 1952SOL    HW214872   1.569   3.434   0.532 -0.2162  2.1535  1.0776
 1953SOL     OW14873   8.090   9.849   2.519  0.1638 -0.5096  0.0464
 1953SOL    HW114874   8.160   9.857   2.448  0.7456 -1.9162  0.4470
 1953SOL    HW214875   8.002   9.829   2.476  0.2591 -0.0483 -0.3699
 1954SOL     OW14876   4.177   7.874   0.270 -0.1403  0.2003 -0.3186
 1954SOL    HW114877   4.101   7.809   0.279  1.1062 -1.3858 -1.1149
 1954SOL    HW214878   4.156   7.956   0.323 -1.0275 -1.4900  2.0501
 1955SOL     OW14879   2.466   4.164   1.750  0.3247 -0.0275 -0.2887
 1955SOL    HW114880   2.477   4.133   1.844 -0.6168 -0.0804 -0.1906
 1955SOL    HW214881   2.391   4.113   1.707 -0.1749  0.9806 -0.6211
 1956SOL     OW14882   4.247   0.346   0.898  0.0946 -0.0193  0.4694
 1956SOL    HW114883   4.307   0.385   0.968  0.5245  1.0244 -0.4694
 1956SOL    HW214884   4.291   0.354   0.809 -1.1386  0.1209 -0.1369
 1957SOL     OW14885   8.529   7.953   0.109 -0.5515 -0.0449  0.2665
 1957SOL    HW114886   8.578   8.025   0.158  0.0577 -1.5166  1.8888
 1957SOL    HW214887   8.525   7.975   0.012 -0.6472  2.3174  0.7707
 1958SOL     OW14888   7.599   0.881   2.195  0.1069 -0.5007  0.3017
 1958SOL    HW114889   7.581   0.980   2.192  0.8445 -0.3117  1.6934
 1958SOL    HW214890   7.696   0.865   2.179  0.1875 -0.9194  1.1911
 1959SOL     OW14891   3.060   3.003   2.331 -0.4036 -0.5883  0.0580
 1959SOL    HW114892   3.070   3.068   2.407  0.4059 -2.1133  1.3018
 1959SOL    HW214893   3.147   2.996   2.283 -0.8082  0.0808 -0.7774
 1960SOL     OW14894   8.700   9.948   2.352  0.1473 -0.4630  0.5144
 1960SOL    HW114895   8.672   9.936   2.257  0.9170 -1.0620  0.3630
 1960SOL    HW214896   8.628   9.913   2.412  0.3873 -1.6438  0.1250
 1964SOL     OW14897   9.847   9.387   2.394  0.4678 -0.4345  0.2763
 1964SOL    HW114898   9.814   9.365   2.302  3.1098 -2.4222 -0.2668
 1964SOL    HW214899   9.802   9.328   2.461  0.7364 -1.0822 -0.1079
 1966SOL     OW14900   9.910   8.180   0.478  0.3047  0.0720  0.1795
 1966SOL    HW114901   9.901   8.082   0.465  1.2714 -0.2134  1.5666
 1966SOL    HW214902   9.904   8.226   0.389  1.5994 -1.3669 -0.6765
 1968SOL     OW14903   8.176   6.258   1.361 -0.3033 -0.2225  0.5579
 1968SOL    HW114904   8.163   6.205   1.445  1.1417  1.1639  1.6805
 1968SOL    HW214905   8.101   6.324   1.352  0.1303  0.3909  1.3608
 1969SOL     OW14906   3.096   7.040   0.900 -0.0978  0.6423  0.0872
 1969SOL    HW114907   3.140   6.955   0.871  0.4978  0.6650  0.9147
 1969SOL    HW214908   3.141   7.074   0.982 -0.1880  1.8809 -0.3719
 1970SOL     OW14909   3.013   3.386   1.967 -0.1533 -0.2172  0.5028
 1970SOL    HW114910   2.976   3.305   2.012  0.6641 -0.8507  0.0474
 1970SOL    HW214911   3.038   3.363   1.873  1.1559  0.2664  0.7258
 1971SOL     OW14912   9.739   3.636   2.548  0.1433 -0.0589 -0.0804
 1971SOL    HW114913   9.793   3.692   2.484 -1.8102  1.3368 -0.5478
 1971SOL    HW214914   9.701   3.694   2.619 -1.9361 -0.7794 -0.5755
 1972SOL     OW14915   8.730   8.301   2.259 -0.0143  0.1189 -0.5791
 1972SOL    HW114916   8.751   8.352   2.176  0.3879 -0.2028 -0.6724
 1972SOL    HW214917   8.741   8.203   2.243 -1.2940 -0.0463 -0.5559
 1973SOL     OW14918   4.071   9.606   1.247 -0.1919  0.3999  0.3073
 1973SOL    HW114919   4.033   9.542   1.180  2.5538  1.0102 -1.9451
 1973SOL    HW214920   4.080   9.696   1.204  0.9015  1.0035  1.7785
 1974SOL     OW14921   9.101   2.560   1.609 -0.2425  0.5950 -0.6119
 1974SOL    HW114922   9.158   2.604   1.540 -1.9869 -1.4742 -3.4998
 1974SOL    HW214923   9.128   2.464   1.618 -1.2209  0.3898  0.2309
 1976SOL     OW14924   9.057   7.433   1.092 -0.2059 -0.2379 -0.7746
 1976SOL    HW114925   9.008   7.513   1.058  0.7171  0.4148 -0.5802
 1976SOL    HW214926   9.155   7.454   1.100 -0.0628 -1.1452 -0.0091
 1979SOL     OW14927   4.777   8.468   0.074 -0.0214 -0.0572  0.3230
 1979SOL    HW114928   4.706   8.397   0.077  0.1823 -0.3025 -0.5295
 1979SOL    HW214929   4.794   8.494  -0.021  1.6702 -0.6402  0.4569
 1980SOL     OW14930   3.124   8.489   2.293 -0.3957 -0.3571 -0.0875
 1980SOL    HW114931   3.158   8.456   2.205 -0.6889 -1.2898  0.1503
 1980SOL    HW214932   3.056   8.426   2.329  0.0900 -0.2398  1.0568
 1981SOL     OW14933   8.950   2.168   1.968  0.8265 -0.2440  0.2271
 1981SOL    HW114934   9.044   2.197   1.989  1.4089 -2.4258  0.7255
 1981SOL    HW214935   8.896   2.169   2.052  0.6158  0.1945  0.0886
 1982SOL     OW14936   1.556   5.415   2.278 -0.2760  0.3932  0.6034
 1982SOL    HW114937   1.493   5.379   2.347 -0.2966  0.8310  0.8181
 1982SOL    HW214938   1.642   5.441   2.323  0.6952 -1.7751  0.0642
 1983SOL     OW14939   0.891   8.608   1.085 -0.0617  0.1463  0.0918
 1983SOL    HW114940   0.859   8.515   1.102 -0.2409  0.5300  1.8831
 1983SOL    HW214941   0.986   8.617   1.114  0.0966  0.4038 -0.4976
 1984SOL     OW14942   3.679   2.712   2.524 -0.0352 -0.1909  0.5343
 1984SOL    HW114943   3.646   2.803   2.549 -0.1510  0.0076 -0.3328
 1984SOL    HW214944   3.768   2.696   2.567 -0.3843  0.0074  1.3537
 1985SOL     OW14945   9.631   6.492   0.258  0.5014  0.4800  0.0565
 1985SOL    HW114946   9.661   6.436   0.335  0.6634  0.5272  0.0264
 1985SOL    HW214947   9.575   6.568   0.292  0.0692  0.1558  0.0746
 1986SOL     OW14948   3.085   7.538   2.607  0.2325 -0.0540  0.2094
 1986SOL    HW114949   3.080   7.444   2.573  2.3654 -0.1575  0.1014
 1986SOL    HW214950   3.039   7.599   2.542 -0.2265 -0.8836 -0.2515
 1987SOL     OW14951   8.565   1.365   1.405  0.0678  0.5238  0.4047
 1987SOL    HW114952   8.469   1.376   1.431  0.0854  3.0522 -0.5057
 1987SOL    HW214953   8.623   1.414   1.470  0.4642  2.3997 -1.3418
 1988SOL     OW14954   0.559   4.752   0.772  0.1071 -0.4514  0.1901
 1988SOL    HW114955   0.573   4.656   0.749  0.7625 -0.3192  0.0163
 1988SOL    HW214956   0.616   4.809   0.713 -0.9352  0.0953 -0.2968
 1989SOL     OW14957   1.719   4.999   0.468 -0.0480  0.9091 -0.3470
 1989SOL    HW114958   1.755   4.946   0.546  0.3362  0.4859 -0.8107
 1989SOL    HW214959   1.768   5.085   0.460 -0.3466  1.1271  0.1122
 1990SOL     OW14960   0.910   0.546   1.608  0.0187  0.3533  0.7018
 1990SOL    HW114961   0.979   0.615   1.628  1.9185 -1.0731 -0.7019
 1990SOL    HW214962   0.862   0.571   1.524  1.3861 -0.4953 -0.3547
 1991SOL     OW14963   3.263   4.925   1.112 -0.1490  0.7127  0.3827
 1991SOL    HW114964   3.362   4.912   1.118  0.0040  1.9010  0.5474
 1991SOL    HW214965   3.217   4.839   1.134  0.8746 -0.2697 -1.1945
 1996SOL     OW14966   3.272   6.862   1.778  0.3407  0.1025  0.2400
 1996SOL    HW114967   3.215   6.920   1.836 -0.9187 -0.8503 -0.0315
 1996SOL    HW214968   3.288   6.908   1.690 -0.3806  0.1859  0.1484
 1997SOL     OW14969   0.474   6.667   0.741  0.0142  0.4462  0.5141
 1997SOL    HW114970   0.518   6.592   0.692  0.1589  0.0863  1.1785
 1997SOL    HW214971   0.438   6.733   0.676 -0.8591 -0.6239 -0.1012
 2000SOL     OW14972   4.707   0.460   1.722 -0.1766  0.0312  0.1151
 2000SOL    HW114973   4.769   0.390   1.685 -0.4011 -0.3244  0.4102
 2000SOL    HW214974   4.746   0.551   1.707 -0.1927 -0.1191 -0.8673
 2002SOL     OW14975   2.936   0.050   2.590 -0.1390 -0.3255  0.1697
 2002SOL    HW114976   2.866   0.092   2.531  0.9659 -0.8129 -1.5142
 2002SOL    HW214977   2.902  -0.038   2.624 -0.8543  0.0412  0.4258
 2003SOL     OW14978   3.183   1.981   1.934 -0.0339 -0.0794  0.0837
 2003SOL    HW114979   3.089   1.981   1.969  0.0917 -2.5212  0.5163
 2003SOL    HW214980   3.224   2.071   1.947 -1.9809  0.7267  0.7994
 2004SOL     OW14981   9.975   3.583   0.194  0.1566  0.4448  0.0453
 2004SOL    HW114982   9.919   3.513   0.150  2.2775 -0.8939 -0.6158
 2004SOL    HW214983   9.953   3.586   0.292  1.7742 -3.0058  0.6170
 2007SOL     OW14984   8.431   3.090   0.072 -0.5084 -0.1734  0.0831
 2007SOL    HW114985   8.423   3.185   0.041  0.0909  0.5810  2.1714
 2007SOL    HW214986   8.379   3.079   0.156  1.3356 -1.0962  1.1274
 2009SOL     OW14987   3.058   1.587   2.189 -0.2763 -0.3165  0.8558
 2009SOL    HW114988   3.088   1.495   2.213 -0.5171 -0.2576  1.3798
 2009SOL    HW214989   3.121   1.626   2.121  0.8256 -0.2101  1.9074
 2010SOL     OW14990   1.525   7.345   2.203  0.4833 -0.2328  0.5523
 2010SOL    HW114991   1.511   7.294   2.288 -0.4622 -0.0144  0.5341
 2010SOL    HW214992   1.445   7.402   2.185  0.9085  0.1322 -0.2041
 2011SOL     OW14993   7.845   0.369   1.676 -0.4345 -0.3591 -0.2935
 2011SOL    HW114994   7.776   0.406   1.614 -0.5314 -0.9765 -0.5507
 2011SOL    HW214995   7.936   0.384   1.636 -0.5528 -1.7414 -1.1155
 2012SOL     OW14996   9.652   3.813   2.113  0.1144 -0.0734 -0.0839
 2012SOL    HW114997   9.746   3.815   2.147 -0.1358  0.9904  0.5802
 2012SOL    HW214998   9.641   3.884   2.043 -0.5436  0.6979  0.7944
 2013SOL     OW14999   1.050   7.693   0.215 -0.1909  0.1158 -0.6726
 2013SOL    HW115000   1.032   7.697   0.117  3.5498 -1.6166 -1.5439
 2013SOL    HW215001   1.115   7.764   0.241  2.2159 -2.1241 -0.3519
 2014SOL     OW15002   3.739   9.962   2.133 -0.5489 -0.5720 -0.7055
 2014SOL    HW115003   3.679   9.992   2.207  0.5819  0.1382 -0.0703
 2014SOL    HW215004   3.766   9.867   2.149  0.7345 -0.0192  0.4902
 2015SOL     OW15005   1.145   5.836   1.609  0.0887  0.2402  0.0168
 2015SOL    HW115006   1.063   5.852   1.665  1.6070 -0.1026  2.3965
 2015SOL    HW215007   1.177   5.743   1.622  0.3704  0.1014 -1.5879
 2016SOL     OW15008   1.391   2.624   1.995  0.2384  0.6467  0.0845
 2016SOL    HW115009   1.339   2.577   1.924  1.4428  0.7478 -0.8775
 2016SOL    HW215010   1.328   2.655   2.067 -1.2846  2.4544 -1.9716
 2017SOL     OW15011   1.154   5.106   0.123  0.5104  0.8141  0.1325
 2017SOL    HW115012   1.241   5.059   0.110 -0.1790 -0.8163  1.1999
 2017SOL    HW215013   1.171   5.202   0.147  1.9322  1.1872 -2.2711
 2019SOL     OW15014   3.741   2.589   0.266  0.6998 -0.4608  0.6011
 2019SOL    HW115015   3.648   2.626   0.262  0.6867 -0.5332  0.2322
 2019SOL    HW215016   3.758   2.554   0.358  0.9678  1.1049  1.1640
 2022SOL     OW15017   0.574   4.492   0.718  0.1358  0.0325  0.3084
 2022SOL    HW115018   0.580   4.399   0.754  0.1700 -0.0113  0.1899
 2022SOL    HW215019   0.583   4.490   0.618 -1.6075 -0.0273  0.1281
 2023SOL     OW15020   2.541   3.318   1.294 -0.7153 -0.0729  0.2692
 2023SOL    HW115021   2.461   3.288   1.241 -1.2872  2.0639 -0.1332
 2023SOL    HW215022   2.600   3.240   1.313 -0.7570 -1.0032 -3.1323
 2024SOL     OW15023   1.762   9.050   1.099  0.5052 -0.2051 -0.2694
 2024SOL    HW115024   1.784   9.047   1.001  0.4101 -1.2954 -0.2609
 2024SOL    HW215025   1.823   9.116   1.144 -0.0638  0.9760 -1.2112
 2026SOL     OW15026   8.825   9.288   0.732  0.3038  0.0729  0.6947
 2026SOL    HW115027   8.750   9.265   0.669  0.7291 -1.4001  0.7019
 2026SOL    HW215028   8.912   9.269   0.688  0.6090 -0.7251  1.6329
 2027SOL     OW15029   8.973   2.600   2.435  0.4230 -0.2020 -1.2003
 2027SOL    HW115030   8.919   2.609   2.519  0.8014 -0.6052 -0.9075
 2027SOL    HW215031   8.930   2.651   2.362  0.6722  1.0548 -0.4814
 2028SOL     OW15032   9.954   9.521   1.114  0.3747 -0.3464  0.0916
 2028SOL    HW115033  10.052   9.534   1.100  0.1175 -0.9097 -2.6033
 2028SOL    HW215034   9.930   9.545   1.208  2.3574  3.9991 -0.3863
 2029SOL     OW15035   9.064   5.538   1.589 -0.1203  0.1944 -0.4918
 2029SOL    HW115036   9.023   5.558   1.678 -1.4289 -2.4315 -0.4616
 2029SOL    HW215037   9.003   5.568   1.517 -0.2726 -0.0702 -0.4746
 2030SOL     OW15038   4.772   8.917   0.102  0.0646  0.0849 -0.1416
 2030SOL    HW115039   4.765   9.014   0.079 -0.1316  0.9382  3.2803
 2030SOL    HW215040   4.683   8.884   0.133  1.0231 -0.0503  2.6497
 2031SOL     OW15041   9.482   5.602   2.099  0.3522  0.1644  0.6573
 2031SOL    HW115042   9.444   5.515   2.132  0.4631 -0.2159 -0.2074
 2031SOL    HW215043   9.509   5.659   2.177 -1.9001  0.3965  1.3054
 2032SOL     OW15044   3.464   8.516   2.189 -0.5098 -0.2809  0.4898
 2032SOL    HW115045   3.433   8.426   2.159  0.6357 -0.3461 -0.5345
 2032SOL    HW215046   3.522   8.507   2.269 -0.4161 -0.4551  0.4016
 2033SOL     OW15047   1.458   1.366   2.688 -0.4729 -0.0447  0.4174
 2033SOL    HW115048   1.445   1.437   2.620  1.5461 -0.5895 -0.5894
 2033SOL    HW215049   1.553   1.334   2.685 -1.1594 -2.2848  1.3146
 2034SOL     OW15050   8.292   4.171   0.955  0.0072  0.1427  0.4265
 2034SOL    HW115051   8.294   4.148   0.858  1.4271  0.7053  0.3009
 2034SOL    HW215052   8.280   4.089   1.010 -0.8918 -0.1652 -0.2194
 2035SOL     OW15053   3.186   4.181   1.155  0.2040 -0.2103 -0.2955
 2035SOL    HW115054   3.256   4.252   1.171  0.3531 -0.3735 -0.2187
 2035SOL    HW215055   3.142   4.197   1.067  0.0755  0.1151 -0.1747
 2036SOL     OW15056   4.113   9.423   0.694  0.2537  0.5810 -0.7062
 2036SOL    HW115057   4.161   9.443   0.779 -0.5795  1.4376 -0.4170
 2036SOL    HW215058   4.179   9.405   0.621  0.9754  0.2457  0.0236
 2037SOL     OW15059   5.273   8.525   2.628 -0.2127 -0.1758  0.2803
 2037SOL    HW115060   5.349   8.461   2.639 -0.3865 -0.2830  0.8997
 2037SOL    HW215061   5.189   8.483   2.662 -0.5081  0.0273 -0.1920
 2038SOL     OW15062   4.265   3.949   1.226 -0.3879  0.4893  0.2149
 2038SOL    HW115063   4.224   3.876   1.170 -0.5832 -1.0384  2.2755
 2038SOL    HW215064   4.218   4.035   1.208 -1.2994 -0.2398 -1.0061
 2039SOL     OW15065   3.442   4.035   0.669  0.2958  0.0541  0.1097
 2039SOL    HW115066   3.521   4.071   0.619 -0.4295 -0.6381 -1.5778
 2039SOL    HW215067   3.461   3.942   0.701 -0.4247 -0.7911 -1.8136
 2040SOL     OW15068   4.576   2.454   1.704  0.2176 -0.8957 -0.5155
 2040SOL    HW115069   4.498   2.485   1.649  0.9510 -1.5587 -1.9770
 2040SOL    HW215070   4.589   2.356   1.690  0.0375 -1.1865  1.3539
 2042SOL     OW15071   9.480   4.627   1.883  0.2420  0.0240  0.5528
 2042SOL    HW115072   9.443   4.568   1.812 -0.5062  0.0401  0.9199
 2042SOL    HW215073   9.524   4.707   1.841  2.1297 -1.2662  0.0188
 2043SOL     OW15074   3.985   1.602   2.236 -0.6576  0.1495  0.3135
 2043SOL    HW115075   3.892   1.567   2.250 -0.3733 -0.6780  0.1033
 2043SOL    HW215076   4.047   1.561   2.303 -0.4481  0.7398  0.4867
 2044SOL     OW15077   2.756   3.443   2.268  0.1591  0.4753  0.1876
 2044SOL    HW115078   2.738   3.347   2.289  1.3225  0.3724  0.7345
 2044SOL    HW215079   2.849   3.453   2.234 -0.9935  0.9548 -2.9765
 2046SOL     OW15080   1.145   4.569   1.794 -0.1790  0.3500 -0.3360
 2046SOL    HW115081   1.195   4.518   1.864  0.5318  1.2751 -0.1694
 2046SOL    HW215082   1.047   4.560   1.810 -0.0265  0.1694  0.5000
 2047SOL     OW15083   1.812   8.485   1.790  0.3268 -0.3575 -0.1576
 2047SOL    HW115084   1.837   8.581   1.801  0.9336 -0.6488  1.0524
 2047SOL    HW215085   1.880   8.440   1.733 -0.7749  0.2697 -2.0046
 2049SOL     OW15086   2.657   2.248   2.000  0.6762  0.6344 -0.5432
 2049SOL    HW115087   2.731   2.228   2.064  0.7521  1.1095 -0.4841
 2049SOL    HW215088   2.665   2.342   1.966 -1.3062  1.5481  1.3702
 2051SOL     OW15089   2.080   5.167   2.151  0.1619 -0.1221 -0.1903
 2051SOL    HW115090   2.117   5.258   2.131  0.9077 -0.3946 -0.0913
 2051SOL    HW215091   2.015   5.141   2.080  1.1518 -0.1706 -1.0948
 2053SOL     OW15092   4.225   4.329   0.129  0.0894  0.2180 -0.3550
 2053SOL    HW115093   4.243   4.233   0.106 -0.4174 -0.0815  0.4971
 2053SOL    HW215094   4.149   4.363   0.074 -1.3770 -0.6108  1.1425
 2054SOL     OW15095   0.417   5.737   2.137  0.4123  0.0273  0.6703
 2054SOL    HW115096   0.338   5.677   2.139  1.3757 -1.2576  0.7719
 2054SOL    HW215097   0.396   5.819   2.083 -1.0442 -0.1963  0.8912
 2055SOL     OW15098   0.155   7.242   0.468 -0.8301 -0.2233  0.2403
 2055SOL    HW115099   0.064   7.203   0.478 -0.7694 -1.2904 -2.7223
 2055SOL    HW215100   0.154   7.313   0.396  0.5486  0.1515  0.5631
 2056SOL     OW15101   8.776   3.953   1.575 -0.5087  0.1293  0.5650
 2056SOL    HW115102   8.809   3.861   1.597 -0.8658  0.1537  1.2028
 2056SOL    HW215103   8.697   3.947   1.514  0.5760  0.0652 -0.8634
 2057SOL     OW15104   3.343   3.011   0.020  0.0930 -0.3529  0.3039
 2057SOL    HW115105   3.270   2.943   0.019 -2.4174  2.2315  0.6591
 2057SOL    HW215106   3.397   3.001   0.104 -0.4017 -1.7232  0.4667
 2060SOL     OW15107   1.873   3.805   0.885  0.0019 -0.7624 -0.0920
 2060SOL    HW115108   1.777   3.831   0.888  0.3545  0.4584  1.4482
 2060SOL    HW215109   1.884   3.721   0.832 -1.9280 -1.0377 -0.0737
 2061SOL     OW15110   9.825   2.943   2.416  0.4091 -0.0607 -0.0008
 2061SOL    HW115111   9.889   3.015   2.442  0.4383 -0.3260  0.6949
 2061SOL    HW215112   9.816   2.939   2.317  1.2278  0.1856 -0.0871
 2062SOL     OW15113   8.801   0.864   1.428  0.5797 -0.2531  0.1823
 2062SOL    HW115114   8.809   0.880   1.526  0.0319 -0.1231  0.2094
 2062SOL    HW215115   8.877   0.909   1.380  2.6549 -2.9786  0.8017
 2063SOL     OW15116   0.500   7.055   0.390 -0.1043  0.1144  0.0118
 2063SOL    HW115117   0.477   7.147   0.422 -0.4965 -0.1878  0.6070
 2063SOL    HW215118   0.478   7.048   0.293 -1.7223  0.1244  0.3600
 2064SOL     OW15119   3.669   5.570   2.338 -0.3532  0.2803 -0.1216
 2064SOL    HW115120   3.714   5.582   2.426 -1.1572 -0.0866  0.3447
 2064SOL    HW215121   3.570   5.567   2.351 -0.4135 -1.3207 -0.8540
 2065SOL     OW15122   8.264   9.213   1.442  0.0603 -0.6257  0.0481
 2065SOL    HW115123   8.228   9.305   1.458 -0.4939 -1.0458  1.2508
 2065SOL    HW215124   8.315   9.183   1.523 -0.8277 -1.8731  0.1601
 2066SOL     OW15125   2.596   6.864   1.175 -0.1710 -0.0373  0.1255
 2066SOL    HW115126   2.536   6.866   1.095  0.9184 -0.1497 -0.7188
 2066SOL    HW215127   2.541   6.859   1.258 -1.3658  1.4912 -0.5389
 2067SOL     OW15128   1.571   0.266   1.990  0.2414 -0.1367 -0.1481
 2067SOL    HW115129   1.640   0.254   1.919 -0.0080  3.3637 -1.0700
 2067SOL    HW215130   1.616   0.281   2.078  0.6669  0.9502 -0.5405
 2069SOL     OW15131   9.021   5.133   2.118  0.0935  0.0433  0.0967
 2069SOL    HW115132   8.984   5.088   2.036  0.6714 -0.5611  0.1674
 2069SOL    HW215133   8.946   5.175   2.169 -0.1768  1.0695 -1.1406
 2070SOL     OW15134   2.237   9.178   1.869  0.0943 -0.0856  0.0732
 2070SOL    HW115135   2.160   9.170   1.932 -0.7251  1.9076 -0.6403
 2070SOL    HW215136   2.203   9.198   1.777  1.3958 -0.6954 -0.5501
 2071SOL     OW15137   1.450   5.898   0.985 -0.0036 -0.1532  0.6013
 2071SOL    HW115138   1.376   5.841   0.951  0.4754 -0.1748 -0.4209
 2071SOL    HW215139   1.535   5.873   0.938  1.0287 -1.3525  2.9966
 2072SOL     OW15140   6.923   9.856   2.699 -0.2995  0.1171 -0.0785
 2072SOL    HW115141   6.996   9.891   2.641  0.6811 -0.9890  0.4691
 2072SOL    HW215142   6.938   9.885   2.794 -0.7952  0.2407 -0.0358
 2073SOL     OW15143   0.415   6.731   0.070  0.5816 -0.9589  0.0398
 2073SOL    HW115144   0.430   6.820   0.025 -0.1229 -1.2856 -0.8556
 2073SOL    HW215145   0.490   6.713   0.133 -0.2622  1.1570  1.6893
 2076SOL     OW15146   2.651   6.088   1.856  0.4931 -0.2359 -0.3816
 2076SOL    HW115147   2.636   6.011   1.918  2.6974 -0.6264 -0.2838
 2076SOL    HW215148   2.642   6.056   1.761  0.0903 -0.3014 -0.3248
 2079SOL     OW15149   3.805   1.957   2.107 -0.7998 -0.2557  0.1761
 2079SOL    HW115150   3.731   1.911   2.158 -1.8555  1.1715 -0.0431
 2079SOL    HW215151   3.805   1.924   2.013  0.2665 -1.8757  0.7214
 2080SOL     OW15152   2.205   4.651   0.021 -0.0614  0.0373 -0.0571
 2080SOL    HW115153   2.185   4.554   0.008 -0.0621  0.0367 -0.0523
 2080SOL    HW215154   2.121   4.701   0.039 -0.3355  0.3739 -2.1513
 2081SOL     OW15155   7.165   9.668   1.626  0.2036  0.1763  0.4529
 2081SOL    HW115156   7.226   9.652   1.704  0.9698 -0.7952 -0.3408
 2081SOL    HW215157   7.073   9.634   1.648  0.4676 -0.2847  0.8497
 2082SOL     OW15158   1.076   6.406   0.631 -0.0485 -0.3778 -0.3815
 2082SOL    HW115159   1.051   6.314   0.660  2.0236 -1.4710 -1.8969
 2082SOL    HW215160   1.171   6.425   0.658 -0.3426  1.1651 -0.3881
 2083SOL     OW15161   5.620   8.786   1.723 -0.6533 -0.2511 -0.6663
 2083SOL    HW115162   5.620   8.886   1.721  0.5396 -0.2686 -3.0986
 2083SOL    HW215163   5.544   8.754   1.781  0.2061  2.0456  1.8279
 2084SOL     OW15164   3.145   7.300   0.786 -0.4404  0.0508  0.5585
 2084SOL    HW115165   3.121   7.214   0.831  0.0589 -0.5707 -0.3427
 2084SOL    HW215166   3.225   7.340   0.832 -1.3637  0.6288  1.6957
 2085SOL     OW15167   3.438   0.701   0.914  0.3343  0.4864 -0.3697
 2085SOL    HW115168   3.441   0.699   1.014  1.1418 -2.4874 -0.4224
 2085SOL    HW215169   3.344   0.692   0.883 -0.0284  2.4335  0.1120
 2086SOL     OW15170   8.067   2.651   2.327  0.4775 -0.4586 -0.1641
 2086SOL    HW115171   7.986   2.694   2.367  0.2370 -1.1011  0.0494
 2086SOL    HW215172   8.072   2.556   2.357  0.8669 -0.6499 -0.8378
 2087SOL     OW15173   1.640   4.562   0.794  0.2592 -0.3518  0.6323
 2087SOL    HW115174   1.577   4.627   0.838  0.3433 -0.9150  1.5911
 2087SOL    HW215175   1.590   4.509   0.726  0.2059  0.7729 -0.2278
 2088SOL     OW15176   1.429   1.195   2.336 -0.5881 -0.4961 -0.1263
 2088SOL    HW115177   1.475   1.129   2.397 -0.4812 -1.1367 -0.8830
 2088SOL    HW215178   1.331   1.190   2.351 -0.4230  0.9305  1.5537
 2089SOL     OW15179   1.977   0.731   2.610  0.2185 -0.3011 -0.0543
 2089SOL    HW115180   2.034   0.793   2.556  0.3701  0.1184  0.5774
 2089SOL    HW215181   1.955   0.650   2.556 -2.7704  1.7645 -2.0952
 2090SOL     OW15182   0.356   1.748   2.649  0.3174 -0.0449  0.5632
 2090SOL    HW115183   0.455   1.754   2.641  0.2877 -1.2966 -1.0938
 2090SOL    HW215184   0.316   1.838   2.635  1.1949  0.4049  0.9142
 2091SOL     OW15185   9.994   7.034   2.217  0.4103 -0.2232 -0.5330
 2091SOL    HW115186   9.958   6.944   2.239 -0.0729  0.1856  0.3857
 2091SOL    HW215187  10.047   7.069   2.295  0.9614  0.0994 -1.0475
 2093SOL     OW15188   3.575   5.475   2.108 -0.1048 -0.3876 -0.0747
 2093SOL    HW115189   3.624   5.505   2.190  0.5699 -0.6951 -0.3661
 2093SOL    HW215190   3.541   5.382   2.121  0.3253 -0.5753 -0.2850
 2095SOL     OW15191   9.536   5.803   0.345 -0.8578  0.1857  0.3254
 2095SOL    HW115192   9.564   5.893   0.379 -1.1884  0.9544 -1.3882
 2095SOL    HW215193   9.573   5.789   0.253 -0.2825 -1.7071  0.8197
 2096SOL     OW15194   2.029   9.656   1.474 -0.2142 -0.1562 -0.5813
 2096SOL    HW115195   1.940   9.641   1.433  0.3217 -0.0310 -1.8245
 2096SOL    HW215196   2.101   9.635   1.407  0.6618  1.0126 -0.0411
 2097SOL     OW15197   4.174   3.176   1.716  0.0542 -0.6816  0.1514
 2097SOL    HW115198   4.195   3.092   1.764 -0.3698  0.5939  2.6540
 2097SOL    HW215199   4.209   3.254   1.767  0.2513  0.7025 -2.0083
 2099SOL     OW15200   1.958   9.688   1.764  0.5022  0.3962 -0.1337
 2099SOL    HW115201   1.997   9.671   1.674  0.1206 -1.2833  0.0089
 2099SOL    HW215202   2.031   9.711   1.828  1.0029 -0.4795 -0.3868
 2100SOL     OW15203   8.027   0.248   0.402  0.0198  0.1794  0.1824
 2100SOL    HW115204   8.059   0.211   0.315 -1.0206  0.8586 -0.4996
 2100SOL    HW215205   8.040   0.179   0.474  1.1616 -0.2730 -0.4446
 2101SOL     OW15206   8.545   2.312   1.633 -0.2025  0.0624  0.2170
 2101SOL    HW115207   8.572   2.333   1.539  3.0569  1.5015  1.3882
 2101SOL    HW215208   8.524   2.214   1.641 -1.2371  0.0653 -2.1337
 2103SOL     OW15209   0.462   6.747   1.105  0.4897  0.0339 -0.1120
 2103SOL    HW115210   0.518   6.829   1.103  0.2261  0.2296  0.4017
 2103SOL    HW215211   0.507   6.677   1.162  0.4164  0.0444 -0.0406
 2104SOL     OW15212   1.399   8.267   1.728  0.1349 -0.4100  0.3693
 2104SOL    HW115213   1.405   8.306   1.820 -0.1999  2.2183 -0.6922
 2104SOL    HW215214   1.462   8.315   1.667  1.3162 -3.0034 -0.5165
 2105SOL     OW15215   0.090   4.639   2.222 -0.2585  0.7906 -0.2043
 2105SOL    HW115216   0.025   4.678   2.156 -1.1706 -0.1745  0.1128
 2105SOL    HW215217   0.040   4.588   2.292  0.7485  1.3064  0.9013
 2107SOL     OW15218   1.464   5.220   1.462  0.0914  0.4653  0.1378
 2107SOL    HW115219   1.412   5.197   1.544  0.5048 -1.7322 -0.1781
 2107SOL    HW215220   1.561   5.209   1.480  0.0752 -2.3883 -1.3140
 2109SOL     OW15221   3.878   3.345   0.884 -0.2028  0.0380 -0.0716
 2109SOL    HW115222   3.795   3.402   0.882  0.3751  0.8662 -0.5504
 2109SOL    HW215223   3.851   3.248   0.881 -1.1710  0.2856  0.2764
 2110SOL     OW15224   4.483   9.523   1.087  0.1731 -0.2312 -0.3397
 2110SOL    HW115225   4.567   9.528   1.033 -0.4626  2.0166 -1.1871
 2110SOL    HW215226   4.505   9.513   1.184  1.4650  1.4606 -0.4373
 2111SOL     OW15227   2.436   8.180   1.805  0.2369  0.0569 -0.3594
 2111SOL    HW115228   2.387   8.146   1.725 -0.4527  2.5785 -1.0604
 2111SOL    HW215229   2.371   8.219   1.870  0.7963 -1.9847  1.4613
 2113SOL     OW15230   1.762   1.751   1.657  0.5683  0.0678 -0.8717
 2113SOL    HW115231   1.728   1.671   1.606 -2.3836  0.6240  0.1134
 2113SOL    HW215232   1.775   1.726   1.753 -0.2766  0.7125 -0.5822
 2114SOL     OW15233   6.240   8.724   2.563  0.0356 -0.4791 -0.4272
 2114SOL    HW115234   6.182   8.647   2.590  2.7484 -1.9207  1.5212
 2114SOL    HW215235   6.278   8.707   2.472 -2.2676  0.3267 -1.5788
 2115SOL     OW15236   1.734   2.567   0.612 -0.6432  0.0267 -0.8347
 2115SOL    HW115237   1.667   2.521   0.671  1.7708 -0.9994  1.2116
 2115SOL    HW215238   1.716   2.543   0.517 -0.8839 -3.3471 -0.0076
 2116SOL     OW15239   1.311   6.363   2.702 -0.3917 -0.2776 -0.1665
 2116SOL    HW115240   1.248   6.395   2.772  1.8275  1.0148  1.2846
 2116SOL    HW215241   1.361   6.440   2.663  1.4179 -1.4065 -0.1742
 2117SOL     OW15242   1.812   4.853   1.826 -0.1172 -0.0136 -0.0882
 2117SOL    HW115243   1.887   4.821   1.769  0.4452  1.1810 -0.0267
 2117SOL    HW215244   1.727   4.851   1.773  0.0795 -0.6449 -0.3913
 2118SOL     OW15245   7.805   0.765   1.498  0.1318  0.5380 -0.1379
 2118SOL    HW115246   7.875   0.764   1.570 -0.9270  1.0101  0.9242
 2118SOL    HW215247   7.807   0.853   1.450  0.7982  0.2467 -0.6483
 2119SOL     OW15248   8.787   2.668   1.927  0.1454  0.0597  0.2702
 2119SOL    HW115249   8.791   2.620   1.839  1.0732  1.7519 -0.6476
 2119SOL    HW215250   8.800   2.602   2.002 -0.7334 -1.4088 -0.8366
 2121SOL     OW15251   7.607   1.370   0.754 -0.1356  0.1220  0.4418
 2121SOL    HW115252   7.607   1.320   0.840  0.9322 -0.6916 -0.0155
 2121SOL    HW215253   7.647   1.460   0.767  0.2082 -0.0784  0.7503
 2122SOL     OW15254   2.999   7.768   2.491  0.0147  0.3247 -0.3385
 2122SOL    HW115255   2.902   7.764   2.516 -0.5904  1.0702 -2.4357
 2122SOL    HW215256   3.042   7.847   2.536 -0.4013  0.1194  0.4237
 2123SOL     OW15257   1.291   6.944   2.679  0.2199 -0.1343 -0.1211
 2123SOL    HW115258   1.258   6.968   2.770  1.8327 -2.2515  1.0867
 2123SOL    HW215259   1.238   6.867   2.643 -1.4486  1.6866 -1.6929
 2125SOL     OW15260   3.451   9.823   1.319  0.5308  0.5085 -0.2058
 2125SOL    HW115261   3.432   9.798   1.414 -0.1893 -2.0898 -1.0101
 2125SOL    HW215262   3.366   9.850   1.274  0.3324 -1.3160 -0.9692
 2126SOL     OW15263   8.730   2.782   0.349 -0.2944  0.1479 -0.3836
 2126SOL    HW115264   8.662   2.835   0.399  0.3205  0.9431 -0.3761
 2126SOL    HW215265   8.720   2.800   0.251 -1.0515 -0.8751 -0.4992
 2127SOL     OW15266   8.608   2.400   2.551  0.7131 -0.1707  0.2103
 2127SOL    HW115267   8.550   2.328   2.513 -0.1938 -0.5778  2.2758
 2127SOL    HW215268   8.551   2.467   2.599  1.6592  1.3286 -0.7202
 2128SOL     OW15269   9.289   7.796   1.836 -0.1644 -0.1105 -0.1582
 2128SOL    HW115270   9.350   7.747   1.773 -0.2360 -0.8529  0.3420
 2128SOL    HW215271   9.275   7.889   1.802  1.6689  0.2486 -0.0106
 2129SOL     OW15272   2.127   9.145   0.354  0.2612 -0.4301  0.1564
 2129SOL    HW115273   2.186   9.189   0.422 -0.2324 -1.8501  1.5117
 2129SOL    HW215274   2.032   9.174   0.369  0.1342 -0.8495  0.1576
 2130SOL     OW15275   9.805   6.029   0.785  0.2979 -0.5684  0.6008
 2130SOL    HW115276   9.813   6.126   0.808  0.1598 -0.8503  1.9002
 2130SOL    HW215277   9.894   5.994   0.756 -0.6013  1.0882 -4.7459
 2131SOL     OW15278   5.494   8.338   2.660  0.1038 -0.1363 -0.2869
 2131SOL    HW115279   5.468   8.247   2.628 -0.5570  0.7688 -2.4426
 2131SOL    HW215280   5.594   8.342   2.671  0.0290 -1.4581  0.9728
 2132SOL     OW15281   3.099   8.830   0.051 -0.2969  0.1742 -0.1330
 2132SOL    HW115282   3.032   8.871  -0.011 -0.1520 -2.4797 -2.1017
 2132SOL    HW215283   3.103   8.732   0.036  3.0403  0.0893  0.9735
 2133SOL     OW15284   3.464   8.467   2.586  0.1121  0.3200 -0.3109
 2133SOL    HW115285   3.484   8.489   2.682  0.1128 -1.1191  0.0371
 2133SOL    HW215286   3.424   8.546   2.541 -1.4002  0.5115  1.3247
 2134SOL     OW15287   9.120   0.643   0.243  0.3421 -0.1531  0.1225
 2134SOL    HW115288   9.028   0.651   0.205 -0.1251 -2.8418  0.6210
 2134SOL    HW215289   9.173   0.578   0.188  1.9299  1.2969 -0.1000
 2135SOL     OW15290   3.053   2.096   1.239  0.0907  0.7169 -0.1369
 2135SOL    HW115291   2.986   2.160   1.274 -1.1704 -0.0158 -1.1637
 2135SOL    HW215292   3.008   2.029   1.180  1.7685  0.4012 -1.0983
 2136SOL     OW15293   1.616   0.035   2.209  0.4015  0.3479 -0.5209
 2136SOL    HW115294   1.613  -0.003   2.301 -0.6237 -1.7176 -1.3664
 2136SOL    HW215295   1.678   0.113   2.207  0.3577  0.4815  1.9257
 2137SOL     OW15296   8.895   2.765   2.251 -0.0515  0.7012  0.7599
 2137SOL    HW115297   8.941   2.808   2.173  2.7826  3.2690  3.7224
 2137SOL    HW215298   8.816   2.821   2.278  0.2637  0.9955  1.0773
 2139SOL     OW15299   7.798   3.449   0.405 -0.3829 -0.1999  0.3570
 2139SOL    HW115300   7.736   3.524   0.382 -0.1606 -0.2581 -0.4496
 2139SOL    HW215301   7.891   3.474   0.379 -0.3452 -0.8617 -0.1462
 2140SOL     OW15302   3.532   0.130   0.039 -0.1879 -0.3256 -0.3317
 2140SOL    HW115303   3.437   0.137   0.068 -1.4004 -2.2176 -3.5369
 2140SOL    HW215304   3.564   0.036   0.050  1.2396  0.2475  0.5091
 2141SOL     OW15305   3.899   0.847   2.417  0.0737  0.0722  0.0143
 2141SOL    HW115306   3.998   0.850   2.411  0.1240  0.1061  0.7743
 2141SOL    HW215307   3.865   0.759   2.384  0.4934 -0.6426  1.4403
 2142SOL     OW15308   8.531   1.132   1.735 -0.0686 -0.4364 -0.8784
 2142SOL    HW115309   8.526   1.091   1.644 -1.3159  2.1828 -2.0422
 2142SOL    HW215310   8.493   1.069   1.802 -1.5930 -1.3274 -2.5400
 2143SOL     OW15311   3.858   3.036   2.156  0.3559  0.3048  0.0528
 2143SOL    HW115312   3.906   3.122   2.142 -0.8889  0.7041 -2.0129
 2143SOL    HW215313   3.773   3.053   2.207  0.9063  0.0390  1.0776
 2144SOL     OW15314   3.074   2.270   0.755  0.0312  0.2884  0.8812
 2144SOL    HW115315   3.058   2.262   0.656 -1.4635  2.0664  0.9424
 2144SOL    HW215316   3.171   2.283   0.772  0.3056 -0.0254 -0.3750
 2146SOL     OW15317   2.864   5.806   0.645 -0.0059  0.1531 -0.6647
 2146SOL    HW115318   2.818   5.894   0.659 -0.2382  0.4835 -3.3491
 2146SOL    HW215319   2.963   5.820   0.651 -0.0810  0.3119  0.3632
 2147SOL     OW15320   0.132   8.088   1.769  0.2435  0.1530  1.0419
 2147SOL    HW115321   0.070   8.077   1.691 -1.2933 -0.3743  2.3115
 2147SOL    HW215322   0.214   8.137   1.740 -0.4819  0.3079 -0.8077
 2149SOL     OW15323   2.377   3.995   0.018  0.5339  0.4889  0.8557
 2149SOL    HW115324   2.297   4.045   0.050  0.1107  0.7391 -0.5840
 2149SOL    HW215325   2.442   4.058  -0.023  0.8350  0.0933  0.7217
 2150SOL     OW15326   3.221   9.200   2.489  0.1174 -0.0202  0.2141
 2150SOL    HW115327   3.249   9.293   2.512  0.8668 -0.3257  0.5502
 2150SOL    HW215328   3.129   9.202   2.450  0.4250  0.9532 -0.4926
 2151SOL     OW15329   9.081   7.457   0.061 -0.5947 -0.2277  0.1643
 2151SOL    HW115330   9.006   7.419   0.115  0.3969  0.7802  2.3106
 2151SOL    HW215331   9.072   7.428  -0.034 -2.6277 -1.6755  0.7710
 2152SOL     OW15332   3.411   0.864   1.945  0.2593  0.0875  0.1602
 2152SOL    HW115333   3.394   0.779   1.996  0.7370  1.0589  1.9497
 2152SOL    HW215334   3.509   0.882   1.941  0.5162 -1.6496 -3.9056
 2153SOL     OW15335   1.122   7.189   0.642  0.1099 -0.4925  0.6891
 2153SOL    HW115336   1.135   7.163   0.546 -0.2900  1.8720 -0.0283
 2153SOL    HW215337   1.121   7.107   0.698  0.8070 -1.8907 -1.2753
 2154SOL     OW15338   9.773   3.459   1.062 -0.4351 -0.1963  0.2401
 2154SOL    HW115339   9.731   3.427   0.977  1.2973 -0.9802 -0.3472
 2154SOL    HW215340   9.753   3.394   1.135 -0.5787 -0.3510  0.0648
 2155SOL     OW15341   0.621   8.184   0.114 -0.3155 -0.2452  0.2806
 2155SOL    HW115342   0.682   8.254   0.077 -1.5481 -0.4527 -2.2235
 2155SOL    HW215343   0.548   8.227   0.167  0.1191  0.2232  0.4948
 2156SOL     OW15344   2.918   2.647   0.897  0.2915 -0.1420 -0.3905
 2156SOL    HW115345   2.955   2.613   0.810  0.5193 -0.1880 -0.2752
 2156SOL    HW215346   2.990   2.646   0.967 -0.4297 -2.1708  0.3643
 2157SOL     OW15347   1.426   9.393   1.559  0.5324 -0.4996 -0.4630
 2157SOL    HW115348   1.414   9.473   1.500  1.2052 -0.6629 -0.8284
 2157SOL    HW215349   1.498   9.334   1.521 -1.5340 -2.4603 -1.4723
 2158SOL     OW15350   0.951   5.513   0.263  0.6186 -0.0123  0.3387
 2158SOL    HW115351   1.029   5.455   0.287  0.8833  0.4171  0.5316
 2158SOL    HW215352   0.956   5.598   0.316  0.1935  0.1516  0.1138
 2161SOL     OW15353   0.131   2.320   0.246  0.1231 -0.1119 -0.5193
 2161SOL    HW115354   0.071   2.240   0.244 -0.0037 -0.0598  0.8149
 2161SOL    HW215355   0.142   2.356   0.153 -1.3271 -0.5601 -0.8739
 2162SOL     OW15356   1.132   6.709   2.637 -0.0438 -0.2600  0.2827
 2162SOL    HW115357   1.067   6.774   2.597  0.0183  1.7496  3.2724
 2162SOL    HW215358   1.082   6.634   2.679 -0.1675 -1.5498 -2.0885
 2164SOL     OW15359   1.410   8.247   2.268 -0.2374  0.5291 -0.2410
 2164SOL    HW115360   1.339   8.178   2.283  0.1346  0.1250 -0.3019
 2164SOL    HW215361   1.409   8.314   2.342  0.1776 -0.2184  0.4392
 2165SOL     OW15362   1.642   5.057   2.379 -0.0847 -0.2358 -0.1554
 2165SOL    HW115363   1.590   5.015   2.305  2.1326 -2.0309 -0.7547
 2165SOL    HW215364   1.636   4.999   2.460  0.4181 -0.1214 -0.0337
 2166SOL     OW15365   1.722   4.784   1.474 -0.1863 -0.1374  0.6916
 2166SOL    HW115366   1.798   4.740   1.521 -0.5220 -2.0046 -0.4449
 2166SOL    HW215367   1.714   4.747   1.381 -2.1186  0.4547  0.5915
 2167SOL     OW15368   0.144   0.605   1.507 -0.1108 -0.5299 -0.5581
 2167SOL    HW115369   0.157   0.686   1.565  0.6285 -0.4897 -0.7737
 2167SOL    HW215370   0.061   0.616   1.453 -0.4883 -0.3051  0.0639
 2168SOL     OW15371   0.127   2.747   1.935 -0.1580 -0.0430  0.0458
 2168SOL    HW115372   0.173   2.808   1.998 -0.4966  0.5572 -0.2832
 2168SOL    HW215373   0.043   2.712   1.977 -0.0431 -0.1643  0.1750
 2169SOL     OW15374   0.025   7.415   0.665 -0.2832  0.1506  0.8221
 2169SOL    HW115375   0.031   7.491   0.600  0.3504  0.5883  1.3767
 2169SOL    HW215376   0.087   7.342   0.637  1.4938  1.1681  1.9914
 2170SOL     OW15377   8.892   6.183   0.104  0.0272 -0.3196  0.3642
 2170SOL    HW115378   8.925   6.116   0.038 -0.1355 -0.7886  0.7627
 2170SOL    HW215379   8.794   6.170   0.119 -0.1882  0.5861 -0.2458
 2171SOL     OW15380   9.988   5.764   0.274 -0.3448  0.0758 -0.2964
 2171SOL    HW115381   9.970   5.862   0.268 -0.6331  0.1011  0.8840
 2171SOL    HW215382   9.909   5.718   0.315  0.9609 -0.2158  2.0285
 2172SOL     OW15383   3.381   3.562   2.388 -0.5453 -0.3586 -0.4894
 2172SOL    HW115384   3.365   3.650   2.342  0.6754  0.9718  1.5565
 2172SOL    HW215385   3.393   3.490   2.319 -2.5807  0.8689 -2.1877
 2173SOL     OW15386   0.809   3.630   0.062 -0.1067  0.0493  0.7191
 2173SOL    HW115387   0.774   3.540   0.090 -1.9952 -0.3047 -2.4751
 2173SOL    HW215388   0.734   3.695   0.058  1.3426  1.9724  3.5102
 2174SOL     OW15389   9.227   0.482   1.658  0.0705 -0.3494  0.2684
 2174SOL    HW115390   9.154   0.483   1.726 -0.0638  1.5179  0.1127
 2174SOL    HW215391   9.310   0.521   1.697 -0.3013  1.7156 -0.9355
 2175SOL     OW15392   3.147   6.501   2.654 -0.4429  0.1095  0.1351
 2175SOL    HW115393   3.120   6.546   2.739 -1.0351 -0.0129  0.0134
 2175SOL    HW215394   3.179   6.408   2.675  1.2199  0.7345  0.4378
 2177SOL     OW15395   2.692   2.145   2.478  0.3657 -0.2444  0.3744
 2177SOL    HW115396   2.607   2.104   2.510 -0.1863  0.6016  0.0254
 2177SOL    HW215397   2.698   2.240   2.511  2.2534 -1.0004  2.3022
 2178SOL     OW15398   9.562   9.818   0.008 -0.4163 -0.1864 -0.1889
 2178SOL    HW115399   9.628   9.846  -0.062  0.8907  2.5617  2.0412
 2178SOL    HW215400   9.503   9.895   0.031 -1.7657 -1.4738  0.7336
 2180SOL     OW15401   9.188   2.511   2.250  0.0864  0.3855 -0.1990
 2180SOL    HW115402   9.271   2.566   2.233  0.7438 -0.3694  0.5251
 2180SOL    HW215403   9.133   2.556   2.320  0.3228  0.4359 -0.0435
 2181SOL     OW15404   1.443   2.073   1.332  0.0614  0.1328  0.5468
 2181SOL    HW115405   1.414   1.982   1.302 -1.7302  0.8872 -0.0498
 2181SOL    HW215406   1.385   2.104   1.407  0.4839  0.9087  0.5613
 2182SOL     OW15407   0.679   3.662   1.479 -0.1062 -0.0419  0.2829
 2182SOL    HW115408   0.776   3.685   1.483  0.1201 -1.0412  0.9298
 2182SOL    HW215409   0.652   3.649   1.384  0.2046  0.9915  0.0471
 2183SOL     OW15410   9.787   2.229   1.883  0.3612 -0.4939 -0.5437
 2183SOL    HW115411   9.727   2.178   1.944  1.6795  0.5897  1.7325
 2183SOL    HW215412   9.882   2.200   1.897  1.1180  2.4459  0.7178
 2184SOL     OW15413   9.229   7.982   0.451  0.5501  0.3673  0.5183
 2184SOL    HW115414   9.151   7.921   0.439 -0.4376  1.4485  1.3556
 2184SOL    HW215415   9.223   8.028   0.540  2.2319  0.3449  0.6748
 2186SOL     OW15416   8.023   1.181   1.532  0.6504  0.2011 -0.3861
 2186SOL    HW115417   8.032   1.190   1.433  1.0921  0.9030 -0.2881
 2186SOL    HW215418   8.084   1.246   1.577  0.8239 -0.4619  0.3551
 2189SOL     OW15419   0.020   7.729   1.986 -0.0014  0.3220  0.4859
 2189SOL    HW115420   0.037   7.635   2.018 -0.3644 -0.6222 -1.9758
 2189SOL    HW215421  -0.041   7.727   1.906 -0.0890  2.6651  0.4605
 2190SOL     OW15422   2.671   1.620   0.651  0.3154 -0.1691  0.2310
 2190SOL    HW115423   2.645   1.523   0.657 -0.6303  0.1294  1.2885
 2190SOL    HW215424   2.590   1.677   0.666  1.1019  0.7911  0.9266
 2191SOL     OW15425   1.106   2.150   0.734  0.4655  0.2690 -0.1995
 2191SOL    HW115426   1.108   2.127   0.831  3.1431  1.5749  0.0776
 2191SOL    HW215427   1.151   2.237   0.718  0.7504 -0.2796 -2.7210
 2194SOL     OW15428   3.949   0.687   1.632 -0.5317 -0.1333  0.0326
 2194SOL    HW115429   3.857   0.726   1.631 -0.4618  0.0156 -0.7098
 2194SOL    HW215430   3.971   0.649   1.542  0.0613 -0.3349  0.2564
 2195SOL     OW15431   1.302   4.946   1.645 -0.0314  0.1152  0.0275
 2195SOL    HW115432   1.366   4.886   1.693 -0.2040 -0.6880 -0.7249
 2195SOL    HW215433   1.240   4.891   1.589  0.4529  1.0440 -1.4650
 2196SOL     OW15434   1.653   6.575   0.588 -0.2723  0.0394  0.0715
 2196SOL    HW115435   1.657   6.665   0.631  0.5735  0.0085  0.0757
 2196SOL    HW215436   1.725   6.517   0.626  0.0423 -0.2103 -0.8967
 2197SOL     OW15437   4.088   9.615   0.316  0.5700 -0.6588  0.3923
 2197SOL    HW115438   4.037   9.700   0.325  0.5509 -0.5563 -0.6172
 2197SOL    HW215439   4.186   9.636   0.309  0.5006 -0.6530 -0.6945
 2198SOL     OW15440   0.112   8.357   0.471 -0.1811 -0.0380 -0.3591
 2198SOL    HW115441   0.148   8.346   0.379 -1.4316  0.7436 -0.9574
 2198SOL    HW215442   0.032   8.298   0.484 -0.8682  0.8935 -0.2598
 2199SOL     OW15443   0.041   6.124   0.118 -0.2363  0.4059 -0.6077
 2199SOL    HW115444   0.010   6.075   0.200 -2.4637 -0.1748 -1.7585
 2199SOL    HW215445   0.060   6.219   0.141 -3.6596  0.9952  0.0345
 2200SOL     OW15446   7.759   9.450   1.814  0.0449  0.5378 -0.3247
 2200SOL    HW115447   7.682   9.440   1.877 -0.1658  0.3858 -0.6060
 2200SOL    HW215448   7.726   9.480   1.724  0.0500 -1.8447 -1.1407
 2201SOL     OW15449   8.520   6.469   0.584  0.0384 -0.3406 -0.4207
 2201SOL    HW115450   8.496   6.414   0.664 -0.0428  1.3625  0.7367
 2201SOL    HW215451   8.452   6.540   0.570  1.4147  0.9957 -0.4597
 2203SOL     OW15452   0.489   1.406   0.456  0.2896 -0.5353  0.2277
 2203SOL    HW115453   0.528   1.496   0.434 -0.6422 -0.2429 -0.2740
 2203SOL    HW215454   0.490   1.392   0.555  1.5324 -0.4774  0.2306
 2204SOL     OW15455   3.363   4.020   1.933 -0.2692  0.0150  0.0998
 2204SOL    HW115456   3.281   4.071   1.905  0.2356  1.8456  1.8883
 2204SOL    HW215457   3.340   3.958   2.008 -0.0837  0.3167  0.4070
 2205SOL     OW15458   2.370   5.649   0.189 -0.3307  0.4027  0.2218
 2205SOL    HW115459   2.405   5.567   0.143 -0.7224  1.3415 -1.7544
 2205SOL    HW215460   2.419   5.662   0.275  0.7427 -1.0834 -0.1500
 2206SOL     OW15461   1.773   7.198   2.108  0.1500 -0.1104 -0.2804
 2206SOL    HW115462   1.693   7.240   2.151 -1.7884 -2.6856 -1.2660
 2206SOL    HW215463   1.822   7.142   2.174  0.2660  0.2096 -0.0913
 2207SOL     OW15464   0.277   1.178   0.047  0.1052  0.5407 -0.5633
 2207SOL    HW115465   0.336   1.244   0.093 -0.6426  0.1694  0.9707
 2207SOL    HW215466   0.332   1.106   0.006  0.9244  2.0626 -2.1872
 2208SOL     OW15467   9.061   1.663   2.194 -0.3126  0.6757 -0.4673
 2208SOL    HW115468   9.061   1.734   2.124  0.4537  0.7231 -0.4279
 2208SOL    HW215469   8.978   1.671   2.249 -0.7262  0.8867 -1.1188
 2209SOL     OW15470   2.507   9.625   0.462 -0.3798  0.6289 -0.3727
 2209SOL    HW115471   2.445   9.573   0.403 -1.0442  1.8921 -0.8084
 2209SOL    HW215472   2.588   9.653   0.410 -0.0654  0.1252 -0.1624
 2210SOL     OW15473   1.412   5.652   0.371  0.1693 -0.1817 -0.3096
 2210SOL    HW115474   1.509   5.660   0.391  0.7519 -1.7929 -2.4008
 2210SOL    HW215475   1.388   5.714   0.296  0.0222 -1.2819 -1.1809
 2211SOL     OW15476   8.893   4.524   0.907  0.0775  1.0409 -0.1257
 2211SOL    HW115477   8.933   4.613   0.927 -0.5766  1.1861  0.5425
 2211SOL    HW215478   8.827   4.500   0.978 -0.2347  0.3175 -0.6522
 2212SOL     OW15479   4.814   9.651   2.306 -0.6209 -0.1339 -0.8033
 2212SOL    HW115480   4.912   9.667   2.302 -0.2665 -1.5844  1.3004
 2212SOL    HW215481   4.766   9.739   2.311  0.6573  0.5333 -0.2586
 2214SOL     OW15482   2.852   2.660   2.062 -0.4346  0.1746 -0.5092
 2214SOL    HW115483   2.819   2.587   2.001  0.2971 -0.5462 -0.0412
 2214SOL    HW215484   2.868   2.743   2.008 -0.2977 -0.3017 -1.2086
 2215SOL     OW15485   9.519   8.765   0.383  0.8227  0.1758  0.7899
 2215SOL    HW115486   9.536   8.673   0.349  0.9999  0.5738 -0.2088
 2215SOL    HW215487   9.424   8.790   0.365  0.6133 -0.0262  1.5826
 2216SOL     OW15488   9.031   9.203   0.552  0.4246 -0.0939 -0.0998
 2216SOL    HW115489   9.126   9.185   0.578  0.3470 -1.0346 -0.4607
 2216SOL    HW215490   8.974   9.126   0.579 -0.3344  0.7134  0.6092
 2218SOL     OW15491   9.202   2.054   1.031 -0.3418  0.0173 -0.0995
 2218SOL    HW115492   9.247   1.983   1.085  1.1208 -0.2872 -1.7027
 2218SOL    HW215493   9.124   2.014   0.982 -1.1903  0.1277  1.1302
 2219SOL     OW15494   3.482   2.369   2.198  0.2709 -0.1119 -0.1827
 2219SOL    HW115495   3.576   2.336   2.212  0.4061  0.3108 -0.0860
 2219SOL    HW215496   3.461   2.368   2.100  0.5089  0.1476 -0.2382
 2220SOL     OW15497   1.566   4.669   2.609 -0.5097 -0.4399 -0.6024
 2220SOL    HW115498   1.564   4.767   2.592  2.8625 -0.0067  1.1605
 2220SOL    HW215499   1.472   4.634   2.617 -1.7296  2.9501  0.6271
 2221SOL     OW15500   8.670   7.578   0.729 -0.0715  0.8483 -0.3134
 2221SOL    HW115501   8.587   7.523   0.735 -0.6950  1.5601 -2.0008
 2221SOL    HW215502   8.745   7.522   0.695 -0.3805  0.7201 -0.7892
 2222SOL     OW15503   2.846   2.201   2.198 -0.3031 -0.1699 -0.0401
 2222SOL    HW115504   2.844   2.284   2.254 -2.1673  1.5215 -2.4756
 2222SOL    HW215505   2.806   2.125   2.249 -0.7151  0.9891  1.4003
 2223SOL     OW15506   3.038   0.901   1.858 -0.7731 -0.4942  0.4863
 2223SOL    HW115507   3.078   0.964   1.792 -2.1977  1.0929  1.1028
 2223SOL    HW215508   2.953   0.940   1.894 -1.0529 -2.2339  1.7776
 2224SOL     OW15509   9.649   7.073   2.341  0.7244  0.0617  0.0475
 2224SOL    HW115510   9.714   7.114   2.404  1.6613  0.0011 -0.8727
 2224SOL    HW215511   9.644   7.127   2.258 -0.7600  0.3304  0.2967
 2225SOL     OW15512   8.225   1.901   0.527  0.1561  0.3390 -0.2367
 2225SOL    HW115513   8.148   1.851   0.567  0.8104 -0.0617  0.5435
 2225SOL    HW215514   8.258   1.969   0.593  1.7149 -0.8251  0.2028
 2226SOL     OW15515   8.286   8.582   0.906  0.2817 -0.6264  0.2320
 2226SOL    HW115516   8.187   8.584   0.895  0.3831 -0.9168 -0.8325
 2226SOL    HW215517   8.313   8.644   0.980 -0.5890  0.3896 -0.2866
 2227SOL     OW15518   2.664   4.363   1.351 -0.0941 -0.1137  0.0280
 2227SOL    HW115519   2.747   4.318   1.318 -0.6841 -1.2607  0.0683
 2227SOL    HW215520   2.604   4.295   1.394 -1.1638  0.6547 -0.2232
 2229SOL     OW15521   8.277   0.359   1.799 -0.1249  0.3415  0.4963
 2229SOL    HW115522   8.255   0.452   1.770  0.8416  0.9027  1.5211
 2229SOL    HW215523   8.200   0.320   1.849  0.0923  1.2154  1.5254
 2230SOL     OW15524   4.417   1.036   0.725 -0.3018  0.0481 -0.2996
 2230SOL    HW115525   4.397   1.125   0.767 -0.1086 -0.0073 -0.0949
 2230SOL    HW215526   4.461   0.976   0.791 -0.9395 -0.3985 -0.2692
 2231SOL     OW15527   1.352   1.008   1.291 -0.2172  0.0704  0.5210
 2231SOL    HW115528   1.307   0.925   1.325 -1.8454 -0.1708 -2.1374
 2231SOL    HW215529   1.328   1.022   1.195  0.8543  3.0877  0.6585
 2232SOL     OW15530   3.265   9.649   2.202 -0.1130 -0.0917  0.0372
 2232SOL    HW115531   3.171   9.646   2.235 -0.9132 -0.4914 -2.1472
 2232SOL    HW215532   3.309   9.733   2.232 -1.2818  0.2634  0.7762
 2233SOL     OW15533   0.613   9.895   0.462 -0.6149 -0.0863  0.1594
 2233SOL    HW115534   0.610   9.901   0.362 -0.3752  0.1457  0.1652
 2233SOL    HW215535   0.659   9.811   0.489 -0.7457 -0.1875  0.0757
 2234SOL     OW15536   9.318   3.778   0.407  0.0972 -0.1676 -0.2231
 2234SOL    HW115537   9.250   3.796   0.336 -1.4074 -0.8873  1.0217
 2234SOL    HW215538   9.335   3.861   0.459 -1.6250 -0.5825  1.0109
 2235SOL     OW15539   6.850   9.856   1.350 -0.0446  0.2521 -0.2935
 2235SOL    HW115540   6.947   9.851   1.371 -0.1167  1.1401  0.2994
 2235SOL    HW215541   6.797   9.853   1.435 -0.4492  1.4623 -0.4943
 2236SOL     OW15542   0.328   8.122   1.430  0.0729  0.6371 -0.0557
 2236SOL    HW115543   0.233   8.109   1.460 -0.1526  0.8806 -0.6506
 2236SOL    HW215544   0.390   8.098   1.505 -0.3862 -1.5386 -0.3390
 2237SOL     OW15545   4.166   2.128   0.931  0.3440  0.1802 -0.1412
 2237SOL    HW115546   4.079   2.177   0.929  0.9618  1.2873 -0.9790
 2237SOL    HW215547   4.174   2.077   1.016 -2.8816 -3.2149 -1.7596
 2238SOL     OW15548   2.159   5.482   1.572 -0.0435  0.2502 -0.5197
 2238SOL    HW115549   2.198   5.528   1.492  1.1082  0.4513  0.1539
 2238SOL    HW215550   2.136   5.388   1.549  2.0733 -0.2650 -0.5408
 2240SOL     OW15551   1.812   7.360   2.444  0.0546  0.4951 -0.3432
 2240SOL    HW115552   1.868   7.427   2.396  1.7337  1.9132  3.4406
 2240SOL    HW215553   1.870   7.286   2.478 -1.0174 -0.1991 -0.0002
 2241SOL     OW15554   0.113   5.296   2.597  0.4503  0.2788  0.4018
 2241SOL    HW115555   0.048   5.229   2.634  1.4497 -0.8317  0.1377
 2241SOL    HW215556   0.073   5.339   2.516  0.7016 -1.5918 -0.7422
 2242SOL     OW15557   3.852   5.601   2.557  0.3541 -0.1425  0.1241
 2242SOL    HW115558   3.779   5.660   2.592  0.0360 -0.5702  0.1855
 2242SOL    HW215559   3.896   5.554   2.634  2.0767  1.6880  0.2900
 2243SOL     OW15560   6.914   9.619   1.768  0.4871 -0.2504  0.1669
 2243SOL    HW115561   6.906   9.551   1.696  0.0070 -1.2357  1.1441
 2243SOL    HW215562   6.838   9.610   1.832  0.5467  1.0466  0.4380
 2244SOL     OW15563   8.698   7.231   0.773 -0.1656 -0.0579  0.1736
 2244SOL    HW115564   8.640   7.311   0.759 -0.3353 -0.0190  1.0578
 2244SOL    HW215565   8.794   7.259   0.767 -0.2120  0.3618  1.1645
 2246SOL     OW15566   3.002   7.960   1.788 -0.4324  0.3800 -0.0515
 2246SOL    HW115567   3.073   7.910   1.837 -1.2090 -0.7627 -0.0808
 2246SOL    HW215568   2.913   7.945   1.832 -1.2668 -1.2748 -2.2131
 2247SOL     OW15569   8.972   2.938   1.153  0.0444  0.0809 -0.5278
 2247SOL    HW115570   8.936   2.854   1.194 -0.1953  0.3984 -0.0910
 2247SOL    HW215571   9.051   2.969   1.206  0.3059 -0.0226 -0.8546
 2248SOL     OW15572   8.691   6.477   2.389  0.2032  0.1821  0.0944
 2248SOL    HW115573   8.761   6.416   2.352 -1.6723 -0.8690 -1.7975
 2248SOL    HW215574   8.600   6.440   2.369 -0.9579  3.1506 -0.3448
 2249SOL     OW15575   6.746   9.097   1.754  0.5869  0.1661 -0.1516
 2249SOL    HW115576   6.808   9.169   1.785 -1.2640  1.1388  1.3515
 2249SOL    HW215577   6.651   9.129   1.759 -0.0799 -1.2829 -2.4589
 2250SOL     OW15578   8.425   8.236   0.427  0.1672  1.1915  0.3635
 2250SOL    HW115579   8.405   8.325   0.387 -0.7779  1.8934  2.3610
 2250SOL    HW215580   8.461   8.248   0.520  1.0406 -0.4624  0.2593
 2251SOL     OW15581   9.009   0.075   1.629 -0.4399 -0.0809  0.1869
 2251SOL    HW115582   9.070  -0.002   1.611 -1.6146 -1.3295  1.4174
 2251SOL    HW215583   9.050   0.134   1.699  0.4668  0.4334 -0.7666
 2253SOL     OW15584   2.716   1.002   1.460 -0.3153 -0.5115 -0.5048
 2253SOL    HW115585   2.767   0.917   1.472 -1.4598 -1.5000 -2.4142
 2253SOL    HW215586   2.636   1.002   1.520  0.0591 -0.4784 -0.0055
 2254SOL     OW15587   3.219   7.546   0.288 -0.2576  0.5743 -0.0564
 2254SOL    HW115588   3.172   7.467   0.247 -1.8717  1.2967  0.3707
 2254SOL    HW215589   3.206   7.544   0.387  2.2887 -0.2817  0.3004
 2257SOL     OW15590   2.449   2.781   1.640 -0.2686 -0.0370  0.6488
 2257SOL    HW115591   2.351   2.763   1.640 -0.4151  0.5548 -1.8046
 2257SOL    HW215592   2.468   2.863   1.587  1.7213 -1.2374 -0.5794
 2258SOL     OW15593   3.504   9.860   1.768 -0.5701 -0.2324 -0.1760
 2258SOL    HW115594   3.457   9.803   1.836 -1.5845  0.8953  0.0775
 2258SOL    HW215595   3.494   9.956   1.792  2.7542 -0.0004  0.4309
 2259SOL     OW15596   8.287   9.876   2.330  0.1567  0.1493 -0.4572
 2259SOL    HW115597   8.339   9.805   2.282 -0.1955  1.1330 -2.3330
 2259SOL    HW215598   8.250   9.941   2.264 -2.4566  0.1481  0.9287
 2260SOL     OW15599   9.135   0.700   0.998 -0.2269  0.2236 -0.1579
 2260SOL    HW115600   9.063   0.632   0.990 -0.5071  0.6225 -1.1104
 2260SOL    HW215601   9.185   0.705   0.912  0.8276  0.0732  0.4440
 2261SOL     OW15602   2.548   7.296   0.551  0.2179 -0.0247  0.4393
 2261SOL    HW115603   2.571   7.322   0.645 -0.8410  0.7527  0.4954
 2261SOL    HW215604   2.522   7.378   0.500 -0.0192 -0.5603 -0.3030
 2262SOL     OW15605   1.105   7.793   2.225 -0.5065  0.3352  0.1239
 2262SOL    HW115606   1.107   7.701   2.264 -0.0450  0.0259 -0.6297
 2262SOL    HW215607   1.193   7.837   2.240 -0.0828 -0.0525 -1.2186
 2263SOL     OW15608   4.374   8.678   2.665  0.4600 -0.4187 -0.6581
 2263SOL    HW115609   4.314   8.756   2.650  2.6368  1.5043  0.4314
 2263SOL    HW215610   4.331   8.614   2.729 -1.1969  0.0143 -1.3139
 2264SOL     OW15611   1.865   5.208   1.670 -0.0906 -0.2673  0.1883
 2264SOL    HW115612   1.955   5.221   1.629  0.1768  0.0169  0.8558
 2264SOL    HW215613   1.830   5.296   1.703 -0.4630 -0.4314  0.2366
 2265SOL     OW15614   1.860   5.659   0.063  0.2119  0.2858  0.2654
 2265SOL    HW115615   1.885   5.755   0.048 -1.3845  1.0199  2.0662
 2265SOL    HW215616   1.842   5.615  -0.025 -1.2977  2.2896 -0.4751
 2266SOL     OW15617   1.532   2.894   1.107  1.0143 -0.0600  0.2792
 2266SOL    HW115618   1.530   2.797   1.085 -0.1367 -0.3961  1.8266
 2266SOL    HW215619   1.536   2.947   1.022  2.7195 -1.4655 -0.5350
 2267SOL     OW15620   1.688   8.216   1.326 -0.2804  0.1827  0.0450
 2267SOL    HW115621   1.709   8.176   1.415 -0.6661 -0.2173 -0.0423
 2267SOL    HW215622   1.637   8.301   1.339  1.6738  1.3418  0.2623
 2268SOL     OW15623   7.998   1.833   0.690 -0.2826 -0.1618  0.4046
 2268SOL    HW115624   8.007   1.812   0.787 -0.9131 -0.3528  0.4272
 2268SOL    HW215625   7.932   1.907   0.678  0.8200  0.8076  0.2179
 2270SOL     OW15626   8.672   6.440   0.053 -0.5921  0.1199 -0.4014
 2270SOL    HW115627   8.649   6.537   0.045 -0.0835  0.2663 -0.0446
 2270SOL    HW215628   8.771   6.428   0.048 -0.6422 -0.3640 -0.2517
 2271SOL     OW15629   1.794   0.281   1.068  0.2173  0.2711 -0.3706
 2271SOL    HW115630   1.786   0.208   0.999 -0.8366  0.3781 -0.3788
 2271SOL    HW215631   1.704   0.324   1.081  0.6643  1.0419  0.2120
 2272SOL     OW15632   9.393   5.669   1.844 -0.1429 -0.1362  0.2308
 2272SOL    HW115633   9.423   5.648   1.937 -0.6861  0.2327  0.4983
 2272SOL    HW215634   9.436   5.753   1.813 -0.4181  0.0653  0.3835
 2273SOL     OW15635   4.983   8.266   1.777  0.0628 -0.4042  0.9376
 2273SOL    HW115636   5.044   8.222   1.843 -0.6123  0.4642  2.1776
 2273SOL    HW215637   4.891   8.270   1.816 -1.0658 -2.7183 -1.3700
 2276SOL     OW15638   8.035   1.091   0.083  0.1434 -0.0633  0.5130
 2276SOL    HW115639   8.059   1.163   0.148 -0.4852 -1.1026  1.9137
 2276SOL    HW215640   7.969   1.126   0.016 -2.3552 -0.1138  2.8866
 2277SOL     OW15641   1.957   5.944   0.060 -0.4639  0.2348  0.0789
 2277SOL    HW115642   1.995   5.940   0.152 -1.0930 -1.3249  0.2988
 2277SOL    HW215643   2.029   5.962  -0.006  0.2849 -0.3670  0.7246
 2279SOL     OW15644   2.983   4.748   1.384 -0.2404  0.2004 -0.1053
 2279SOL    HW115645   3.035   4.748   1.469 -2.8657 -1.5288  1.5989
 2279SOL    HW215646   3.042   4.721   1.308  1.6851 -0.1694  1.4889
 2280SOL     OW15647   1.418   9.344   2.436 -0.0022 -0.0631  0.1072
 2280SOL    HW115648   1.516   9.364   2.431 -0.1401  0.2226 -1.9273
 2280SOL    HW215649   1.401   9.275   2.507  1.5345  0.6159  1.1600
 2282SOL     OW15650   1.035   9.171   0.720 -0.0433  0.0570 -0.4508
 2282SOL    HW115651   0.973   9.167   0.642  0.4522 -2.0002 -0.7652
 2282SOL    HW215652   1.072   9.264   0.729 -1.6232  0.7967 -1.4390
 2283SOL     OW15653   1.023   2.570   0.333  0.7578 -0.8103  0.5589
 2283SOL    HW115654   0.955   2.502   0.363 -1.7092  1.0369 -0.6437
 2283SOL    HW215655   1.077   2.599   0.411 -0.5621 -1.5464  1.7758
 2284SOL     OW15656   1.267   0.759   1.371  0.3605 -0.3539 -0.5655
 2284SOL    HW115657   1.289   0.673   1.324 -0.4595 -0.3583 -0.9481
 2284SOL    HW215658   1.333   0.774   1.445  0.0632 -1.6850 -0.0160
 2285SOL     OW15659   7.253   9.476   1.012  0.3704  0.2173  0.0655
 2285SOL    HW115660   7.245   9.539   0.935 -0.0943  1.1002  0.8205
 2285SOL    HW215661   7.328   9.412   0.995 -1.1985 -1.0737 -2.1440
 2286SOL     OW15662   3.145   0.667   0.835  0.5656  0.2202 -0.0120
 2286SOL    HW115663   3.149   0.732   0.759 -0.4373 -1.2532 -1.3706
 2286SOL    HW215664   3.116   0.714   0.918 -0.1429  1.4980 -0.9634
 2287SOL     OW15665   7.413   1.953   2.030 -0.1968  0.4003  0.2550
 2287SOL    HW115666   7.382   1.890   2.102 -0.1176 -0.3516 -0.3555
 2287SOL    HW215667   7.417   1.903   1.943 -1.4469  1.5999 -0.5126
 2288SOL     OW15668   1.220   8.589   0.595 -0.0050 -0.0916  0.0785
 2288SOL    HW115669   1.299   8.528   0.587 -0.5741 -0.9724  0.9660
 2288SOL    HW215670   1.163   8.560   0.672  0.6870  2.6967  1.7159
 2289SOL     OW15671   8.321   9.385   0.656  0.1507  0.2672 -0.4443
 2289SOL    HW115672   8.341   9.288   0.669 -1.4291  0.0460  0.5632
 2289SOL    HW215673   8.224   9.401   0.676  0.9973  2.5357  2.2377
 2290SOL     OW15674   7.934   8.603   2.474  0.2145 -0.1523 -0.6904
 2290SOL    HW115675   7.951   8.511   2.440 -0.7721 -0.2961 -0.8001
 2290SOL    HW215676   7.837   8.614   2.494  0.5993  0.2572  1.0992
 2292SOL     OW15677   9.846   4.108   0.735  0.2071  0.1114 -0.3262
 2292SOL    HW115678   9.841   4.153   0.824 -0.8510 -0.9499  0.1642
 2292SOL    HW215679   9.823   4.173   0.663 -1.6260  0.2864  0.3966
 2293SOL     OW15680   9.107   8.164   1.424  0.5930  0.1417  0.4138
 2293SOL    HW115681   9.094   8.207   1.513 -0.9588  0.5273  0.0192
 2293SOL    HW215682   9.090   8.231   1.352  1.4339 -0.2733 -0.1686
 2294SOL     OW15683   0.045   0.477   0.947  0.0873 -0.0172  0.1324
 2294SOL    HW115684   0.078   0.561   0.989 -1.6279  0.5494  0.3798
 2294SOL    HW215685   0.028   0.409   1.019  0.5876 -0.2669  0.0167
 2295SOL     OW15686   1.073   3.380   0.968  0.2504 -0.0133  0.4337
 2295SOL    HW115687   1.080   3.306   1.035  0.0686  0.2838  0.7834
 2295SOL    HW215688   0.977   3.402   0.953  0.3463  1.2006  1.5036
 2296SOL     OW15689   0.810   2.108   0.892  0.0228  0.0086 -0.6716
 2296SOL    HW115690   0.757   2.188   0.864 -3.0850 -1.5456  0.5638
 2296SOL    HW215691   0.872   2.134   0.966 -0.4220  1.4246 -0.7781
 2297SOL     OW15692   2.737   7.205   1.936  0.3435  0.0792  0.0039
 2297SOL    HW115693   2.672   7.256   1.881 -3.4443 -1.2522  3.0467
 2297SOL    HW215694   2.715   7.108   1.934  1.0234 -0.1787  2.6045
 2299SOL     OW15695   0.907   2.125   2.402 -0.7185  0.0168  0.3291
 2299SOL    HW115696   0.936   2.217   2.375  0.5692 -0.7509 -1.0038
 2299SOL    HW215697   0.914   2.115   2.501  1.5226  0.5611  0.2512
 2300SOL     OW15698   8.618   1.896   0.902 -0.3575 -0.3191  0.2298
 2300SOL    HW115699   8.631   1.902   0.804 -0.5189  0.0452  0.2291
 2300SOL    HW215700   8.664   1.973   0.947  1.9763 -1.9326  0.6618
 2301SOL     OW15701   3.220   7.857   1.516 -0.0677  0.6410  1.0028
 2301SOL    HW115702   3.132   7.899   1.494 -0.6105 -0.4332  1.1068
 2301SOL    HW215703   3.293   7.903   1.464 -0.9144  0.3214 -0.4890
 2302SOL     OW15704   2.539   4.089   1.116  0.4086 -0.2259 -0.2710
 2302SOL    HW115705   2.471   4.016   1.109 -0.2318  0.4960 -1.8863
 2302SOL    HW215706   2.539   4.143   1.031  1.4482  1.1380  0.5685
 2303SOL     OW15707   2.129   4.239   1.905  0.2291  0.1258 -0.4097
 2303SOL    HW115708   2.151   4.331   1.871  0.2646  0.7030  1.1388
 2303SOL    HW215709   2.062   4.246   1.979  0.5956 -1.0478  0.0391
 2304SOL     OW15710   9.904   8.047   0.995 -0.2234  0.3914  0.0313
 2304SOL    HW115711   9.814   8.007   0.978  0.3399 -0.5961 -0.6879
 2304SOL    HW215712   9.966   8.021   0.922  0.9792  0.0346  1.1583
 2305SOL     OW15713   8.637   5.131   0.681  0.0376  0.2761  0.0077
 2305SOL    HW115714   8.639   5.163   0.775  1.1645  0.0843  0.0655
 2305SOL    HW215715   8.573   5.186   0.627 -0.4675  0.5024  0.8411
 2306SOL     OW15716   1.260   7.112   2.033 -0.3743 -0.1560 -0.1261
 2306SOL    HW115717   1.243   7.190   2.093  0.8173  0.8978 -1.1205
 2306SOL    HW215718   1.238   7.028   2.081  2.8691  0.4926  2.7305
 2307SOL     OW15719   9.591   1.151   1.034  0.1968  0.3158  1.0359
 2307SOL    HW115720   9.542   1.063   1.028  1.1867 -0.1368 -0.8367
 2307SOL    HW215721   9.628   1.162   1.126 -0.2308 -1.0834  1.3962
 2308SOL     OW15722   0.634   5.571   1.889  0.3655 -0.5070  0.0906
 2308SOL    HW115723   0.629   5.577   1.989 -1.2679  0.2578 -0.0112
 2308SOL    HW215724   0.603   5.658   1.849 -0.4285 -1.3116 -1.0914
 2309SOL     OW15725   8.096   4.234   0.470  0.1140  0.1510 -0.1785
 2309SOL    HW115726   8.019   4.205   0.414 -1.0629 -0.2107  1.5915
 2309SOL    HW215727   8.063   4.264   0.560  1.9796  0.4735  0.4270
 2310SOL     OW15728   3.212   2.586   1.356 -0.7611 -0.7116  0.3641
 2310SOL    HW115729   3.280   2.525   1.397 -0.9669 -1.8925 -1.0299
 2310SOL    HW215730   3.226   2.590   1.257 -1.5190  0.5601  0.2974
 2311SOL     OW15731   3.225   4.785   2.337 -0.3781  0.3766 -0.0011
 2311SOL    HW115732   3.306   4.761   2.390 -1.0089 -0.2785  0.6869
 2311SOL    HW215733   3.168   4.703   2.324 -1.8361  1.1825  1.1050
 2312SOL     OW15734   3.950   1.591   2.677 -0.3432  0.1100  0.1123
 2312SOL    HW115735   3.975   1.557   2.586  2.1579 -2.0645  1.5564
 2312SOL    HW215736   3.853   1.572   2.694 -0.5224 -0.5942 -1.5841
 2314SOL     OW15737   4.635   9.362   0.754 -0.3095  0.1975  0.1216
 2314SOL    HW115738   4.645   9.434   0.685  0.7523 -0.1728 -0.1321
 2314SOL    HW215739   4.701   9.289   0.735  0.7720  0.5958  2.1823
 2315SOL     OW15740   1.565   5.914   0.243  0.7155  0.3582  0.1800
 2315SOL    HW115741   1.522   5.941   0.330 -0.6181 -1.3495  0.0696
 2315SOL    HW215742   1.658   5.884   0.260  0.9085  1.3098  0.8388
 2316SOL     OW15743   1.159   7.684   0.568 -0.0136 -0.1413  0.1485
 2316SOL    HW115744   1.120   7.682   0.660 -0.4386  0.9811  0.0022
 2316SOL    HW215745   1.111   7.618   0.510 -0.1433 -0.4236  0.5791
 2317SOL     OW15746   8.876   4.208   2.358  0.1686 -0.1779 -0.6801
 2317SOL    HW115747   8.924   4.143   2.300  1.4918 -1.0747  1.3777
 2317SOL    HW215748   8.784   4.174   2.376  0.4109 -0.8322 -0.6629
 2318SOL     OW15749   1.831   6.859   2.027 -0.1468  0.0798 -0.2090
 2318SOL    HW115750   1.774   6.929   1.983  0.8163  0.1711 -1.3477
 2318SOL    HW215751   1.856   6.889   2.118 -0.2408  0.9530 -0.4640
 2319SOL     OW15752   9.525   5.929   2.224  0.3397 -0.0856  0.3933
 2319SOL    HW115753   9.432   5.913   2.191  0.2723  2.3054 -0.6857
 2319SOL    HW215754   9.524   5.939   2.324 -0.2483 -1.9729  0.5990
 2320SOL     OW15755   8.931   4.695   1.560  0.9149  0.3323  0.1118
 2320SOL    HW115756   8.904   4.605   1.527 -0.7103  1.1737 -0.8734
 2320SOL    HW215757   8.886   4.714   1.647 -0.4433  1.0747 -0.7435
 2321SOL     OW15758   8.496   1.955   2.361  0.7011  0.2605 -0.2188
 2321SOL    HW115759   8.549   1.944   2.446  0.4235  1.0394  0.0645
 2321SOL    HW215760   8.547   1.914   2.285  2.0131  1.5137 -0.0476
 2323SOL     OW15761   8.996   0.240   2.318  0.2310  0.2292  0.2309
 2323SOL    HW115762   8.987   0.189   2.233  0.0133 -3.9455  2.6249
 2323SOL    HW215763   8.910   0.234   2.370  1.3399  0.0714  2.1029
 2324SOL     OW15764   9.515   5.474   0.595  0.3439 -0.5139 -0.5842
 2324SOL    HW115765   9.597   5.509   0.642  0.0839  1.0226 -1.2584
 2324SOL    HW215766   9.484   5.391   0.642  1.2220 -0.1009  0.7857
 2325SOL     OW15767   7.517   1.407   2.443 -0.1602 -0.2185 -0.0957
 2325SOL    HW115768   7.503   1.309   2.428 -0.3766 -0.0065 -1.3008
 2325SOL    HW215769   7.436   1.457   2.414 -0.4536  0.2353  1.4848
 2327SOL     OW15770   1.437   2.382   1.355 -0.2431 -0.2802 -0.1335
 2327SOL    HW115771   1.456   2.306   1.418  1.1208 -0.7786 -1.1316
 2327SOL    HW215772   1.506   2.453   1.367 -0.2543 -0.1655 -0.7280
 2328SOL     OW15773   0.489   9.407   0.903  0.4388  0.1153 -0.3118
 2328SOL    HW115774   0.506   9.483   0.965  0.2904  0.1895 -0.3611
 2328SOL    HW215775   0.442   9.333   0.952  0.7085 -0.0007 -0.2298
 2330SOL     OW15776   7.898   2.308   0.989 -0.2813  0.4733  0.5900
 2330SOL    HW115777   7.949   2.382   0.946 -2.1890  3.0116  2.4814
 2330SOL    HW215778   7.945   2.279   1.072  0.4867 -0.4830 -0.1714
 2331SOL     OW15779   3.044   5.595   1.816  0.1472 -0.6138  0.2472
 2331SOL    HW115780   3.044   5.611   1.717  0.5310  2.6214  0.7108
 2331SOL    HW215781   3.134   5.561   1.843  1.5163  2.6174  0.0049
 2332SOL     OW15782   9.747   0.611   1.617 -0.6537 -0.9438  0.1173
 2332SOL    HW115783   9.791   0.649   1.699  2.7731 -0.7364 -1.7431
 2332SOL    HW215784   9.677   0.674   1.585  0.2638  0.5643  1.0044
 2333SOL     OW15785   1.825   9.560   2.488 -0.2426 -0.1005  0.3074
 2333SOL    HW115786   1.872   9.514   2.563  1.6722  0.1036 -0.7242
 2333SOL    HW215787   1.847   9.658   2.490 -0.2280 -0.0800 -0.4764
 2334SOL     OW15788   1.529   3.421   0.101  0.6389 -0.0595  0.4973
 2334SOL    HW115789   1.490   3.457   0.016 -0.8363 -0.8824  0.8065
 2334SOL    HW215790   1.573   3.333   0.083  1.1695  0.2190  0.4131
 2335SOL     OW15791   9.839   8.418   0.801  0.0007 -0.0057 -0.3080
 2335SOL    HW115792   9.919   8.452   0.751 -0.4248 -0.1655 -1.1102
 2335SOL    HW215793   9.821   8.323   0.774 -1.0830  0.3694 -0.9161
 2336SOL     OW15794   2.079   4.683   1.007  0.0948  0.2880 -0.0225
 2336SOL    HW115795   2.091   4.619   0.931 -0.4980  0.1151  0.0291
 2336SOL    HW215796   1.982   4.697   1.024  0.2127  1.8328 -0.5624
 2338SOL     OW15797   4.562   1.806   2.565  0.6757 -0.2067 -0.4778
 2338SOL    HW115798   4.571   1.706   2.558 -0.2816 -0.2768 -0.6666
 2338SOL    HW215799   4.584   1.834   2.659  2.1817 -0.4534 -0.7389
 2339SOL     OW15800   3.455   1.547   0.590 -0.2972  0.0996  0.1440
 2339SOL    HW115801   3.498   1.483   0.654 -2.1741 -2.5443 -1.1805
 2339SOL    HW215802   3.376   1.590   0.634 -0.1738  0.0720  0.3927
 2340SOL     OW15803   4.757   8.432   2.354 -0.0875 -0.5570  0.2131
 2340SOL    HW115804   4.671   8.480   2.370 -1.2483 -2.4265 -0.2832
 2340SOL    HW215805   4.827   8.467   2.417 -1.8603 -0.7434  2.3122
 2341SOL     OW15806   3.280   4.597   1.405 -0.1531 -0.4886 -0.1045
 2341SOL    HW115807   3.228   4.577   1.488  1.8287  0.4957  1.4088
 2341SOL    HW215808   3.222   4.648   1.341 -2.3680 -3.1288 -0.2793
 2342SOL     OW15809   3.426   2.600   1.654  0.1056 -0.5752 -0.0453
 2342SOL    HW115810   3.479   2.659   1.593 -0.0794 -0.5885 -0.2202
 2342SOL    HW215811   3.416   2.509   1.612  3.3594 -1.8472  1.7505
 2343SOL     OW15812   7.204   9.386   1.279 -0.5412 -0.0522 -0.2032
 2343SOL    HW115813   7.234   9.417   1.188 -1.4897 -0.5256 -0.6906
 2343SOL    HW215814   7.273   9.327   1.319 -0.3508 -0.2851 -0.8598
 2344SOL     OW15815   2.243   7.447   0.576  0.4342  0.0225  0.1748
 2344SOL    HW115816   2.316   7.449   0.508 -0.0068 -1.1297 -0.3553
 2344SOL    HW215817   2.235   7.536   0.619  1.8757  0.2742 -0.0586
 2345SOL     OW15818   0.609   0.220   1.946  0.2789  0.2113  0.0628
 2345SOL    HW115819   0.541   0.273   1.997 -1.9712 -0.8070 -1.7766
 2345SOL    HW215820   0.673   0.283   1.901 -1.1130  1.3329 -0.4126
 2347SOL     OW15821   3.938   8.597   0.110 -0.1365 -0.1046 -0.1760
 2347SOL    HW115822   3.968   8.505   0.084  0.1865 -0.1583  0.3627
 2347SOL    HW215823   3.991   8.665   0.061 -0.2673 -0.2057 -0.4579
 2348SOL     OW15824   4.177   1.989   1.177  0.5189 -0.3949 -0.2425
 2348SOL    HW115825   4.231   1.937   1.111 -0.3198 -0.1814 -1.0989
 2348SOL    HW215826   4.139   1.927   1.246  1.6471 -0.5771  0.2341
 2349SOL     OW15827   1.591   1.863   1.009  0.0239 -0.3341 -0.3088
 2349SOL    HW115828   1.597   1.791   1.078  1.1698 -0.9871 -1.0551
 2349SOL    HW215829   1.677   1.866   0.957 -0.6175  0.5018 -1.3415
 2350SOL     OW15830   1.799   0.084   0.870  0.0018  0.5295  0.1624
 2350SOL    HW115831   1.811  -0.015   0.870  0.3606  0.5646 -0.8360
 2350SOL    HW215832   1.818   0.120   0.779  0.3592  1.5759  0.6336
 2351SOL     OW15833   4.144   4.971   2.121 -0.1975  0.1040 -0.6012
 2351SOL    HW115834   4.143   4.873   2.101  1.3546 -0.0126 -0.1212
 2351SOL    HW215835   4.236   5.000   2.148 -0.6777  1.6604 -0.5433
 2352SOL     OW15836   0.996   4.419   0.039 -0.2057 -0.0446  0.0886
 2352SOL    HW115837   1.082   4.469   0.030 -0.8209  1.3019  1.4551
 2352SOL    HW215838   1.014   4.329   0.078  0.8041 -0.5690 -1.5104
 2355SOL     OW15839   0.789   2.342   2.140 -0.3086 -0.3705 -0.6108
 2355SOL    HW115840   0.731   2.423   2.147 -1.5077 -1.4059  2.0279
 2355SOL    HW215841   0.737   2.268   2.097 -0.6091 -0.9541  0.7241
 2356SOL     OW15842   8.502   7.123   0.385 -0.2435  0.0934 -0.9059
 2356SOL    HW115843   8.439   7.200   0.385 -1.3447 -0.7882 -1.3710
 2356SOL    HW215844   8.527   7.099   0.479  0.5329  1.3476 -0.7844
 2357SOL     OW15845   1.635   5.817   1.859  0.0671  0.5731  0.6912
 2357SOL    HW115846   1.630   5.803   1.760 -1.2056  1.2385  0.6435
 2357SOL    HW215847   1.613   5.732   1.906  2.6770 -0.3067  0.4282
 2358SOL     OW15848   5.268   8.675   2.079  0.1193  0.3310  0.1833
 2358SOL    HW115849   5.215   8.594   2.055  0.9043 -0.0641 -0.2643
 2358SOL    HW215850   5.332   8.652   2.153  1.0731  0.2633 -0.6611
 2359SOL     OW15851   9.747   6.131   2.515 -0.2253  0.2720 -0.1375
 2359SOL    HW115852   9.796   6.118   2.429  0.2899  1.9622 -0.1226
 2359SOL    HW215853   9.711   6.224   2.519 -1.8288 -0.3587  0.6830
 2360SOL     OW15854   8.923   2.744   0.527 -0.7999  0.1497 -0.0088
 2360SOL    HW115855   8.857   2.761   0.453  0.1072  2.0957 -0.4055
 2360SOL    HW215856   8.996   2.684   0.493 -1.1479 -0.1360 -0.2568
 2361SOL     OW15857   0.365   2.124   1.683 -0.1889 -0.4036  0.1415
 2361SOL    HW115858   0.273   2.108   1.649  0.1356 -0.8196 -0.5499
 2361SOL    HW215859   0.425   2.148   1.607  0.1309  0.5306  0.6764
 2364SOL     OW15860   2.686   7.756   1.073 -0.1121 -0.4566  0.2783
 2364SOL    HW115861   2.663   7.815   1.151 -0.8591  0.1631 -0.3989
 2364SOL    HW215862   2.629   7.780   0.995  2.4251  0.7551 -1.2928
 2366SOL     OW15863   7.299   9.114   1.637  0.5379  0.1389  0.1577
 2366SOL    HW115864   7.234   9.177   1.596  0.9608 -0.8086 -2.0507
 2366SOL    HW215865   7.249   9.038   1.679  0.1915 -0.5985 -1.5506
 2367SOL     OW15866   3.530   2.011   2.493 -0.1487 -0.2063  0.0077
 2367SOL    HW115867   3.575   2.098   2.510 -0.4851 -0.3713  1.7917
 2367SOL    HW215868   3.599   1.940   2.476  0.2253 -0.2122  1.5498
 2368SOL     OW15869   1.918   2.394   0.320 -0.6910  0.0909 -0.4478
 2368SOL    HW115870   1.860   2.395   0.401 -0.7493  0.1391 -0.4902
 2368SOL    HW215871   1.870   2.437   0.244 -0.3141  0.8331 -0.2822
 2369SOL     OW15872   0.839   3.623   0.714 -0.1446 -0.2571  0.3562
 2369SOL    HW115873   0.845   3.585   0.807  0.6216 -0.3001  0.2915
 2369SOL    HW215874   0.785   3.707   0.715 -0.4618 -0.4679  0.7799
 2370SOL     OW15875   0.404   7.386   1.267 -0.4249 -0.0841  0.0082
 2370SOL    HW115876   0.417   7.337   1.353 -0.8600 -1.8810 -0.9366
 2370SOL    HW215877   0.493   7.419   1.235  0.0186 -1.1232  0.1451
 2371SOL     OW15878   8.312   3.707   1.335 -0.3257  0.3523  0.1976
 2371SOL    HW115879   8.311   3.797   1.292 -2.0222  1.4851  2.4761
 2371SOL    HW215880   8.382   3.704   1.406 -0.4898 -0.0045  0.3495
 2372SOL     OW15881   9.596   4.836   0.930 -0.2700  0.5859  0.1003
 2372SOL    HW115882   9.667   4.840   1.000  0.4641  0.6112 -0.6370
 2372SOL    HW215883   9.588   4.742   0.897 -1.7533  0.2422  1.3646
 2373SOL     OW15884   1.653   7.800   0.803 -0.5475  0.0215  0.3320
 2373SOL    HW115885   1.581   7.760   0.860  0.5618  1.1497  2.6117
 2373SOL    HW215886   1.734   7.741   0.805 -1.0713 -0.7798 -1.4735
 2375SOL     OW15887   2.278   7.151   1.313  0.1026  0.8198 -0.1237
 2375SOL    HW115888   2.228   7.164   1.398 -2.5557 -0.2292 -1.4612
 2375SOL    HW215889   2.300   7.240   1.273  0.1706  1.3047  0.9825
 2376SOL     OW15890   2.021   7.593   0.936  0.0561 -0.0886  0.1521
 2376SOL    HW115891   1.992   7.514   0.882 -0.9108  1.1624 -1.1968
 2376SOL    HW215892   2.108   7.573   0.980  1.3167 -0.8103 -2.5735
 2377SOL     OW15893   3.902   7.714   0.996 -0.3140 -0.7055  0.2279
 2377SOL    HW115894   3.966   7.791   0.996 -1.4545  0.2455  0.3940
 2377SOL    HW215895   3.894   7.677   0.903 -0.3855 -0.1169 -0.0001
 2378SOL     OW15896   3.842   3.004   0.500  0.1388  0.0653 -0.2143
 2378SOL    HW115897   3.848   3.058   0.416 -0.5096 -1.4141 -1.2420
 2378SOL    HW215898   3.929   2.958   0.517  0.0158 -0.3141 -0.5729
 2379SOL     OW15899   1.971   1.442   2.372  0.2018 -0.2182 -0.0975
 2379SOL    HW115900   1.888   1.445   2.316 -2.1381 -2.8835  3.0195
 2379SOL    HW215901   1.957   1.494   2.456  1.8939 -0.2714  0.2359
 2382SOL     OW15902   2.545   0.242   0.676 -0.2953  0.8823 -0.0183
 2382SOL    HW115903   2.497   0.218   0.760 -0.4535 -1.1794 -0.6618
 2382SOL    HW215904   2.643   0.250   0.694  0.1287 -2.8936 -0.2322
 2383SOL     OW15905   9.321   1.020   0.012  0.5205 -0.3458 -0.1696
 2383SOL    HW115906   9.302   0.984   0.104 -2.5264 -2.1690 -1.4482
 2383SOL    HW215907   9.329   0.945  -0.052  2.4651  0.9306 -1.4605
 2384SOL     OW15908   6.750   9.995   2.549 -0.4718  0.0224 -0.2930
 2384SOL    HW115909   6.834  10.032   2.509 -0.6676  0.0426 -0.6833
 2384SOL    HW215910   6.773   9.917   2.608 -0.4050 -1.7088 -2.5015
 2385SOL     OW15911   1.873   5.525   0.852  0.0767 -0.4646  0.5703
 2385SOL    HW115912   1.926   5.537   0.935 -0.0168 -1.0305  0.7156
 2385SOL    HW215913   1.883   5.606   0.794  1.7751 -0.8966  0.2184
 2387SOL     OW15914   9.776   5.156   1.823 -0.2565 -0.0772 -0.5173
 2387SOL    HW115915   9.836   5.156   1.743 -0.8024  0.4773 -0.9320
 2387SOL    HW215916   9.692   5.205   1.801  0.6713  2.3502  1.2073
 2388SOL     OW15917   2.974   7.643   1.335 -0.1634  0.2642  0.1370
 2388SOL    HW115918   3.066   7.622   1.366  0.2038 -0.3159 -1.2829
 2388SOL    HW215919   2.967   7.741   1.315 -0.0421  0.4186  0.8610
 2390SOL     OW15920   4.181   7.855   0.584 -0.1453  0.3729  0.7020
 2390SOL    HW115921   4.243   7.917   0.632 -0.8015  0.9784  0.7684
 2390SOL    HW215922   4.122   7.907   0.523  1.7169 -0.5146 -1.9595
 2393SOL     OW15923   8.761   0.190   0.388  0.1587 -0.7430  0.7715
 2393SOL    HW115924   8.793   0.188   0.293  0.0901  0.2008  0.7194
 2393SOL    HW215925   8.733   0.283   0.411 -0.7937 -1.1834  1.4000
 2394SOL     OW15926   9.588   9.421   0.193 -0.2325  0.2386  0.1668
 2394SOL    HW115927   9.533   9.339   0.211  0.9591 -0.2365  1.7362
 2394SOL    HW215928   9.572   9.452   0.099 -1.7378 -0.9871  0.0014
 2395SOL     OW15929   2.600   9.706   1.177 -0.2493 -0.2514  0.0619
 2395SOL    HW115930   2.587   9.784   1.238  2.3048 -0.7268  1.2649
 2395SOL    HW215931   2.606   9.622   1.230 -0.2453 -0.9431 -1.0144
 2396SOL     OW15932   4.036   8.229   0.658 -0.2949 -0.2182  0.0260
 2396SOL    HW115933   3.946   8.240   0.699  0.7123  2.3035  1.6866
 2396SOL    HW215934   4.106   8.270   0.717  1.7952 -0.9207 -1.8479
 2398SOL     OW15935   3.527   5.721   0.645  0.4821  0.3818 -0.2847
 2398SOL    HW115936   3.437   5.685   0.669  1.9199 -2.5562  1.0291
 2398SOL    HW215937   3.579   5.651   0.595  1.5719  2.5050 -2.2416
 2400SOL     OW15938   0.946   4.997   2.202  0.9030  0.1294  0.0361
 2400SOL    HW115939   0.920   4.941   2.123  0.7313 -0.6547  0.6428
 2400SOL    HW215940   1.034   4.965   2.238  0.9329  0.4213  0.2246
 2401SOL     OW15941   3.027   9.919   2.291  0.1841 -0.0946 -0.5487
 2401SOL    HW115942   2.971   9.963   2.220  0.1802 -0.2079 -0.6164
 2401SOL    HW215943   3.008   9.961   2.379  1.3292  1.1215 -0.8582
 2402SOL     OW15944   3.391   8.258   1.117 -0.6137 -0.1583  0.3274
 2402SOL    HW115945   3.358   8.164   1.105 -1.0291 -0.5286  3.8058
 2402SOL    HW215946   3.490   8.256   1.135 -0.7871 -0.0240  1.3141
 2403SOL     OW15947   1.534   1.859   0.274  0.4351 -0.1715  0.4100
 2403SOL    HW115948   1.570   1.766   0.279  0.9032 -0.0646 -0.9325
 2403SOL    HW215949   1.554   1.907   0.360  2.0106 -0.6467  0.3217
 2404SOL     OW15950   7.754   0.068   2.480 -0.2535 -0.7185  0.1086
 2404SOL    HW115951   7.740   0.160   2.443 -0.3546 -0.6300  0.3610
 2404SOL    HW215952   7.682   0.048   2.546 -0.8811 -1.4314 -0.8004
 2405SOL     OW15953   3.739   1.750   0.327  0.3900  0.0726  0.1513
 2405SOL    HW115954   3.826   1.741   0.279  0.0646 -0.2979 -0.3759
 2405SOL    HW215955   3.671   1.692   0.283  0.0470 -0.1573  0.9708
 2406SOL     OW15956   1.973   8.563   0.587  0.1807  0.3966  0.0152
 2406SOL    HW115957   1.898   8.626   0.569  0.6602  0.6742 -1.0118
 2406SOL    HW215958   1.936   8.472   0.609 -0.4866  0.8494  0.7869
 2407SOL     OW15959   4.686   3.324   2.115  0.2746  0.0917  0.3468
 2407SOL    HW115960   4.689   3.241   2.171  0.4687 -0.4735 -0.4895
 2407SOL    HW215961   4.663   3.299   2.021  0.2052  1.0051  0.1223
 2410SOL     OW15962   1.995   0.183   1.314  0.7929 -0.0158  0.3710
 2410SOL    HW115963   2.091   0.209   1.304  1.2635 -2.3124 -1.4746
 2410SOL    HW215964   1.954   0.167   1.224 -1.2466  0.6287  1.1437
 2411SOL     OW15965   7.949   0.683   2.349  0.6251 -0.0966 -0.1013
 2411SOL    HW115966   7.941   0.765   2.292  0.7068  0.7700  1.1168
 2411SOL    HW215967   7.994   0.610   2.297  2.0919  1.1713 -0.6482
 2412SOL     OW15968   1.121   5.806   2.540 -0.5170 -0.2567  0.2967
 2412SOL    HW115969   1.022   5.803   2.525 -0.6602 -3.2987  1.4442
 2412SOL    HW215970   1.167   5.779   2.455 -0.6724  1.0169 -0.1959
 2413SOL     OW15971   1.183   1.329   0.209 -0.9368 -0.0001 -0.3553
 2413SOL    HW115972   1.117   1.279   0.152 -0.1019 -1.2384 -0.2559
 2413SOL    HW215973   1.212   1.412   0.162 -1.1863 -0.3870 -1.1947
 2414SOL     OW15974   3.304   9.955   2.275  0.1617 -0.5870  0.3689
 2414SOL    HW115975   3.207   9.942   2.254  0.4167  0.1269 -1.3257
 2414SOL    HW215976   3.341  10.027   2.216  1.7136 -0.8078  1.0602
 2415SOL     OW15977   1.035   1.512   2.133 -0.8184  0.1030 -0.2956
 2415SOL    HW115978   1.086   1.526   2.047  0.3059 -2.4646 -0.0888
 2415SOL    HW215979   1.012   1.601   2.172  0.9667  1.3316 -1.9112
 2416SOL     OW15980   2.619   8.134   0.191  0.2614  0.0252 -0.4212
 2416SOL    HW115981   2.540   8.118   0.132 -0.2229 -1.7093  0.6618
 2416SOL    HW215982   2.689   8.064   0.173  0.4860  0.0275  0.4145
 2417SOL     OW15983   9.659   9.643   2.312 -0.0440  0.6694  0.7094
 2417SOL    HW115984   9.690   9.549   2.295 -0.8288  0.3133  1.2045
 2417SOL    HW215985   9.713   9.683   2.385 -0.5596  0.1447  1.3833
 2418SOL     OW15986   9.918   4.706   2.031  0.4067  0.5732  0.0745
 2418SOL    HW115987   9.876   4.796   2.045 -0.1633  0.1559  1.1155
 2418SOL    HW215988   9.852   4.644   1.989  0.2412  0.1714  0.9015
 2419SOL     OW15989   8.328   0.169   0.686 -0.3519  0.7752  0.2013
 2419SOL    HW115990   8.348   0.086   0.633 -0.9104  0.8210 -0.0837
 2419SOL    HW215991   8.364   0.249   0.637  1.8351  0.5494  1.3602
 2420SOL     OW15992   9.998   3.677   0.564  0.0780 -0.4723  0.0862
 2420SOL    HW115993   9.997   3.669   0.664  1.7758  0.1469  0.1634
 2420SOL    HW215994   9.932   3.613   0.525  0.7644 -2.0879  1.5104
 2421SOL     OW15995   0.234   9.395   0.170  0.0055 -0.0071  0.3762
 2421SOL    HW115996   0.274   9.468   0.114 -0.0220 -0.2165  0.0821
 2421SOL    HW215997   0.196   9.434   0.254 -2.1344  0.6618 -0.8617
 2422SOL     OW15998   4.055   7.987   1.213  0.5052  0.2856 -0.4360
 2422SOL    HW115999   4.038   7.949   1.304  2.2104  0.9269  0.1783
 2422SOL    HW216000   3.989   8.059   1.193 -0.8447 -0.9013 -0.3562
 2423SOL     OW16001   9.426   4.706   0.353  0.2159  0.0639  0.2341
 2423SOL    HW116002   9.425   4.730   0.256 -0.1965 -1.2001 -0.0971
 2423SOL    HW216003   9.349   4.645   0.372  0.2750  0.3348  1.3685
 2425SOL     OW16004   9.181   5.497   1.920  0.1789  0.3080 -0.1301
 2425SOL    HW116005   9.249   5.570   1.923  0.3545  0.1471 -0.1587
 2425SOL    HW216006   9.135   5.497   1.831 -0.5787  1.0628  0.2500
 2428SOL     OW16007   4.622   4.087   0.482 -0.0036  0.1705  0.3970
 2428SOL    HW116008   4.653   4.017   0.547 -0.9546 -0.9286 -0.3020
 2428SOL    HW216009   4.676   4.081   0.399  0.3113  0.6656  0.5679
 2429SOL     OW16010   2.174   2.758   1.687  0.3784  0.5382 -0.3383
 2429SOL    HW116011   2.149   2.670   1.728 -1.4058  1.2244  0.0931
 2429SOL    HW216012   2.115   2.829   1.723  0.1825  1.5277 -2.5334
 2430SOL     OW16013   3.846   1.549   1.753  0.1421  0.1674  0.3606
 2430SOL    HW116014   3.762   1.549   1.699  0.4341 -2.3506 -0.1683
 2430SOL    HW216015   3.845   1.472   1.817  1.4269  0.9463  1.3547
 2431SOL     OW16016   2.202   9.164   1.185  0.3308  0.1657  0.0519
 2431SOL    HW116017   2.247   9.253   1.192  0.4402  0.2049 -1.1097
 2431SOL    HW216018   2.270   9.093   1.166  0.3064 -0.2460  1.4430
 2433SOL     OW16019   8.604   1.060   2.678  0.0933 -0.4965 -0.1704
 2433SOL    HW116020   8.526   1.086   2.622 -0.4803 -0.2802  0.7086
 2433SOL    HW216021   8.571   1.019   2.763  0.9645 -1.9748 -0.5319
 2434SOL     OW16022   3.745  10.003   1.868  0.3366 -0.2902  0.1192
 2434SOL    HW116023   3.674   9.939   1.838  1.7416 -2.4629  1.2016
 2434SOL    HW216024   3.762   9.991   1.966  0.9249  1.4758  0.2564
 2435SOL     OW16025   4.248   0.225   2.697 -0.0645 -0.3088  0.0031
 2435SOL    HW116026   4.263   0.179   2.609  0.6973  0.2205 -0.1471
 2435SOL    HW216027   4.184   0.171   2.752  1.5081 -2.0163  0.1956
 2437SOL     OW16028   8.796   8.059   2.142 -0.0332  0.2532  0.6096
 2437SOL    HW116029   8.884   8.032   2.180 -0.8508 -0.6025  1.9231
 2437SOL    HW216030   8.810   8.107   2.056  1.7514  0.6501  1.1113
 2438SOL     OW16031   0.272   3.263   0.551 -0.0411  0.7769  0.3756
 2438SOL    HW116032   0.330   3.338   0.584  0.1138  0.5125  0.7107
 2438SOL    HW216033   0.228   3.289   0.465  0.3326  1.0953  0.2835
 2439SOL     OW16034   8.396   2.285   0.296  0.1115 -0.3872  0.1422
 2439SOL    HW116035   8.381   2.339   0.379 -1.1381  1.1885 -1.0683
 2439SOL    HW216036   8.443   2.200   0.319  1.7881  1.0283  2.1693
 2441SOL     OW16037   2.121   3.357   1.989  0.5576 -0.4561 -0.1608
 2441SOL    HW116038   2.081   3.360   2.081  1.2035  0.8133  0.0787
 2441SOL    HW216039   2.077   3.284   1.937 -0.5844 -0.4709  0.8003
 2442SOL     OW16040   1.500   7.779   0.069  0.2547  0.0385 -0.4517
 2442SOL    HW116041   1.553   7.699   0.100 -0.2910 -0.6726 -1.3320
 2442SOL    HW216042   1.536   7.861   0.113 -0.6389 -0.9591  2.2192
 2443SOL     OW16043   9.974   4.240   2.417  0.1117 -0.4471 -0.2847
 2443SOL    HW116044  10.050   4.282   2.467  0.6887  0.0914 -1.6044
 2443SOL    HW216045   9.908   4.311   2.392  1.5632 -0.1192 -3.3740
 2444SOL     OW16046   9.465   8.652   1.650  0.4499 -0.6132  0.0069
 2444SOL    HW116047   9.524   8.613   1.579 -0.8094 -0.4710 -1.1359
 2444SOL    HW216048   9.479   8.751   1.655 -0.2201 -0.4682 -0.7956
 2445SOL     OW16049   9.625   0.016   0.721  0.1601  0.3222 -0.4225
 2445SOL    HW116050   9.564  -0.011   0.646 -0.3380  2.0067 -0.6379
 2445SOL    HW216051   9.716   0.036   0.685 -0.0259  0.9389 -0.5423
 2446SOL     OW16052   5.085   8.419   2.118  0.1823 -0.0983  0.1687
 2446SOL    HW116053   5.074   8.321   2.102 -0.4663 -0.1400  0.8775
 2446SOL    HW216054   5.041   8.470   2.044  0.8950 -0.3436 -0.4289
 2447SOL     OW16055   1.670   2.851   2.126  0.2146 -0.7187 -0.3551
 2447SOL    HW116056   1.730   2.912   2.074 -1.1211  0.2648 -0.7684
 2447SOL    HW216057   1.598   2.815   2.067 -0.7273 -0.3803  0.5628
 2448SOL     OW16058   1.513   9.630   2.596  1.0322  0.3626  0.2068
 2448SOL    HW116059   1.502   9.723   2.633  0.3143  0.7745 -1.0088
 2448SOL    HW216060   1.607   9.619   2.563  1.7329 -0.0615  2.2409
 2449SOL     OW16061   0.062   4.466   0.659  0.3313 -0.5736  0.4700
 2449SOL    HW116062   0.092   4.522   0.736 -0.4659 -0.7836  0.9514
 2449SOL    HW216063   0.139   4.445   0.600  0.8093  0.2399  0.7963
 2450SOL     OW16064   2.775   9.642   0.389 -0.3841  0.0010  0.1026
 2450SOL    HW116065   2.810   9.548   0.390 -0.8148 -0.2602 -2.7727
 2450SOL    HW216066   2.848   9.706   0.412  2.1310 -0.5449 -5.5309
 2451SOL     OW16067   2.735   5.255   0.539 -0.2096 -0.3709  0.2427
 2451SOL    HW116068   2.774   5.333   0.588  0.0683  0.3114 -1.0442
 2451SOL    HW216069   2.644   5.278   0.505 -0.3762 -0.8155  0.3848
 2452SOL     OW16070   9.202   6.897   0.730 -0.6187  0.4645  0.3535
 2452SOL    HW116071   9.212   6.798   0.737  1.0463  0.5977  0.1445
 2452SOL    HW216072   9.209   6.938   0.821  0.5027  0.5284  0.2449
 2453SOL     OW16073   0.038   6.759   1.812  0.4614  0.1869 -0.8732
 2453SOL    HW116074   0.061   6.839   1.869 -1.3765  0.1538 -0.0581
 2453SOL    HW216075   0.091   6.762   1.728  2.9658  0.4494  0.6567
 2454SOL     OW16076   9.767   6.698   1.435 -0.1480 -0.2667 -0.2372
 2454SOL    HW116077   9.847   6.681   1.492 -1.3028 -1.2319  1.1339
 2454SOL    HW216078   9.711   6.771   1.477 -0.3852 -0.1389 -0.7701
 2455SOL     OW16079   1.663   8.349   0.211 -0.2221 -0.0783 -0.2571
 2455SOL    HW116080   1.670   8.302   0.123 -1.9112  0.8270 -0.9085
 2455SOL    HW216081   1.570   8.342   0.245 -0.0395  1.1561  0.5480
 2456SOL     OW16082   9.857   1.551   2.544  0.5519  0.0686 -0.8881
 2456SOL    HW116083   9.763   1.582   2.550  0.2452 -1.0831  0.7073
 2456SOL    HW216084   9.860   1.451   2.548  1.9308  0.1506  1.1590
 2457SOL     OW16085   2.969   6.645   0.845  0.0525  0.4845  0.3814
 2457SOL    HW116086   2.915   6.647   0.760  1.0936  2.2534 -0.2795
 2457SOL    HW216087   2.913   6.677   0.921 -0.8106 -0.8600  0.3380
 2458SOL     OW16088   9.334   4.352   0.970 -0.1444  0.6852  0.0421
 2458SOL    HW116089   9.303   4.409   1.047  0.2937 -0.9402  1.4333
 2458SOL    HW216090   9.256   4.302   0.932 -0.0715  0.2228  0.4987
 2459SOL     OW16091   9.378   8.400   1.749 -0.1325  0.1586  0.0060
 2459SOL    HW116092   9.424   8.487   1.730  0.5369  0.3825  2.4027
 2459SOL    HW216093   9.368   8.348   1.665  0.7723  1.9352 -1.2264
 2461SOL     OW16094   3.182   5.139   1.331  0.0312  0.5076 -0.8094
 2461SOL    HW116095   3.180   5.073   1.256 -0.4192 -2.2154  1.5122
 2461SOL    HW216096   3.218   5.094   1.414  0.6937  3.4766  0.5647
 2462SOL     OW16097   9.851   7.202   2.046 -0.5635  0.1939 -0.2469
 2462SOL    HW116098   9.766   7.218   2.096 -1.3865  0.4649 -1.6866
 2462SOL    HW216099   9.911   7.142   2.099 -2.6076 -1.8673 -0.2112
 2463SOL     OW16100   9.675   0.138   1.743  0.1336 -0.2401 -0.3599
 2463SOL    HW116101   9.621   0.086   1.677 -0.3192  0.2317 -0.3614
 2463SOL    HW216102   9.644   0.233   1.744  1.0572  0.0679 -0.4623
 2464SOL     OW16103   8.305   8.013   1.896  0.1547 -0.1234 -0.4379
 2464SOL    HW116104   8.404   8.013   1.910  0.2047  1.0224 -0.7590
 2464SOL    HW216105   8.275   8.104   1.868 -1.5343  0.7024  3.5956
 2465SOL     OW16106   3.724   8.739   1.718  0.5706  0.1411 -0.2154
 2465SOL    HW116107   3.656   8.676   1.681 -0.2396  0.1960  1.1347
 2465SOL    HW216108   3.807   8.736   1.662 -0.2012 -0.6128 -1.3358
 2466SOL     OW16109   3.924   8.280   1.747  0.0621  0.4059  0.1083
 2466SOL    HW116110   3.987   8.356   1.734  0.2458  0.2800  0.2641
 2466SOL    HW216111   3.832   8.315   1.763  0.3226  0.6125  1.1898
 2467SOL     OW16112   9.921   6.503   2.470 -0.1094 -0.2307 -0.5765
 2467SOL    HW116113   9.954   6.531   2.560 -1.2573 -2.6997  0.6278
 2467SOL    HW216114   9.866   6.577   2.430 -0.0589  0.6544  0.9658
 2468SOL     OW16115   2.753   7.947   1.930 -0.4371 -0.2822 -0.5740
 2468SOL    HW116116   2.722   8.031   1.975  2.8512  0.6521  0.0500
 2468SOL    HW216117   2.766   7.876   2.000  0.4765 -0.1491 -0.6105
 2470SOL     OW16118   9.792   3.831   1.746 -0.3801 -0.0797 -0.2275
 2470SOL    HW116119   9.844   3.833   1.661 -0.3678  0.7657 -0.2056
 2470SOL    HW216120   9.805   3.918   1.795  0.4511 -0.9619  1.1367
 2471SOL     OW16121   0.282   7.402   2.475 -0.1279 -0.4538  0.0309
 2471SOL    HW116122   0.322   7.375   2.388 -0.0004 -2.0550  0.5721
 2471SOL    HW216123   0.326   7.485   2.508  1.2475 -0.9984 -0.4234
 2472SOL     OW16124   9.677   3.945   0.263  0.5355 -0.0823 -0.8128
 2472SOL    HW116125   9.591   3.997   0.268  0.4834 -0.2201 -0.2209
 2472SOL    HW216126   9.674   3.871   0.330  1.4941  0.4660 -0.1613
 2473SOL     OW16127   1.980   8.914   2.205  1.0896 -0.3981 -0.1831
 2473SOL    HW116128   1.999   8.877   2.296  1.2661  0.7683  0.2613
 2473SOL    HW216129   1.973   8.838   2.139 -1.5088 -1.4273  1.2106
 2474SOL     OW16130   0.236   9.553   1.123  0.1561 -0.9128 -0.8243
 2474SOL    HW116131   0.332   9.563   1.098  0.3204  0.6005  0.3173
 2474SOL    HW216132   0.230   9.515   1.215 -0.2869  0.8319 -0.1148
 2475SOL     OW16133   9.670   0.742   2.511 -0.5896 -0.2435  0.2944
 2475SOL    HW116134   9.587   0.688   2.524 -1.1239  0.3471 -0.6452
 2475SOL    HW216135   9.649   0.839   2.519  0.1379 -0.1220  0.7381
 2476SOL     OW16136   3.656   1.884   0.719 -0.5170  0.2862  0.1573
 2476SOL    HW116137   3.709   1.968   0.708 -0.4915  0.3647  0.8858
 2476SOL    HW216138   3.706   1.808   0.677  0.9108  0.0827  2.1400
 2477SOL     OW16139   9.218   9.572   0.585 -0.3622  0.1465  0.5281
 2477SOL    HW116140   9.201   9.517   0.503 -0.7400 -0.5458  1.0675
 2477SOL    HW216141   9.315   9.597   0.589 -0.3251  0.1096 -0.0805
 2478SOL     OW16142   2.444   3.896   2.284 -0.0480 -0.2665 -0.0798
 2478SOL    HW116143   2.477   3.880   2.377 -1.0344 -0.8252  0.1905
 2478SOL    HW216144   2.358   3.847   2.271 -0.7153  1.0598 -0.7888
 2479SOL     OW16145   4.592   1.945   0.911 -0.1655 -0.2421  0.3185
 2479SOL    HW116146   4.584   2.036   0.871  1.8613 -0.2281 -0.1151
 2479SOL    HW216147   4.679   1.938   0.961 -0.7692 -1.6072  1.2214
 2480SOL     OW16148   2.030   6.150   1.347  0.2667 -0.4024 -0.0006
 2480SOL    HW116149   1.978   6.073   1.382 -1.4968  0.6672 -0.2284
 2480SOL    HW216150   2.024   6.153   1.248 -0.6527  0.6978  0.0774
 2481SOL     OW16151   1.952   0.108   0.041 -0.5337  0.2873 -0.2402
 2481SOL    HW116152   1.931   0.206   0.049 -3.5552 -0.2769 -0.5751
 2481SOL    HW216153   1.934   0.079  -0.053  0.8531 -0.4881 -0.2652
 2483SOL     OW16154   2.463   9.458   2.518  0.0014 -0.1867 -0.1955
 2483SOL    HW116155   2.387   9.492   2.573  0.4062  1.7161 -0.7756
 2483SOL    HW216156   2.432   9.444   2.424  0.8349  2.5298 -0.9091
 2484SOL     OW16157   5.037   3.275   1.641 -0.2077  0.0956 -0.0035
 2484SOL    HW116158   4.938   3.291   1.643 -0.4570 -0.7400 -2.9587
 2484SOL    HW216159   5.055   3.177   1.633  0.8126  0.3105 -0.5016
 2485SOL     OW16160   4.326   8.631   1.796 -0.1317 -0.3604  0.0565
 2485SOL    HW116161   4.280   8.684   1.725  0.2179 -0.2551 -0.0910
 2485SOL    HW216162   4.417   8.604   1.764 -0.5548 -1.5975 -0.1263
 2486SOL     OW16163   7.078   8.992   2.685 -0.0373 -0.4194  0.5465
 2486SOL    HW116164   7.160   9.045   2.665  0.3663 -0.9866  0.6629
 2486SOL    HW216165   7.103   8.895   2.691 -0.5744 -0.5090  1.3646
 2487SOL     OW16166   2.780   0.103   2.370 -0.1689 -0.0696  0.1593
 2487SOL    HW116167   2.814   0.049   2.293  0.6544 -0.5216  0.8312
 2487SOL    HW216168   2.694   0.148   2.345 -0.6921 -1.4285 -0.5194
 2488SOL     OW16169   7.223   0.033   0.819  0.7625 -0.1422  0.9525
 2488SOL    HW116170   7.177  -0.025   0.886 -0.0723  0.5538  0.9863
 2488SOL    HW216171   7.235  -0.018   0.734 -0.0295 -0.3410  0.9579
 2490SOL     OW16172   0.605   8.148   0.574 -0.0738 -0.2979  0.7022
 2490SOL    HW116173   0.566   8.240   0.574 -0.7153 -0.5565 -0.6972
 2490SOL    HW216174   0.560   8.093   0.644 -1.1893 -0.1489  0.1253
 2492SOL     OW16175   2.741   5.213   0.874  0.3917 -0.7574  0.6468
 2492SOL    HW116176   2.769   5.188   0.781 -0.1510 -2.8482  1.0137
 2492SOL    HW216177   2.796   5.161   0.940  0.9039  0.8476  1.5099
 2493SOL     OW16178   4.037   8.048   0.457  0.0133  0.5335 -0.4515
 2493SOL    HW116179   3.984   8.081   0.379 -2.5192 -1.3405  0.4084
 2493SOL    HW216180   4.027   8.111   0.533 -0.0594  0.7543 -0.6440
 2494SOL     OW16181   1.873   2.163   0.180  0.6503 -0.0196 -0.3050
 2494SOL    HW116182   1.922   2.108   0.248 -1.7759 -1.8969  0.0191
 2494SOL    HW216183   1.857   2.254   0.217  1.6692 -0.1928  0.5867
 2495SOL     OW16184   8.596   3.376   2.431  0.3171  0.4328  0.3973
 2495SOL    HW116185   8.514   3.353   2.379  1.1459  0.6657 -1.0278
 2495SOL    HW216186   8.592   3.472   2.460 -0.5794  0.0400  1.5743
 2496SOL     OW16187   4.526   8.402   1.709  0.5654  0.0696 -0.2000
 2496SOL    HW116188   4.429   8.398   1.733  0.5044 -0.2435 -0.5048
 2496SOL    HW216189   4.580   8.377   1.789  0.3857 -0.0303 -0.1088
 2497SOL     OW16190   1.114   8.618   0.063  0.0692 -0.1241  0.4540
 2497SOL    HW116191   1.098   8.526   0.097  1.3105  0.1264  1.7435
 2497SOL    HW216192   1.060   8.684   0.116  0.8430  0.1106  0.9583
 2498SOL     OW16193   8.253   5.086   2.508 -0.1024 -0.5212  0.5835
 2498SOL    HW116194   8.325   5.108   2.443 -0.6239 -2.0249 -0.5455
 2498SOL    HW216195   8.256   4.988   2.529 -1.5184 -0.5211  0.8660
 2499SOL     OW16196   8.758   9.275   2.049 -0.2539  0.2347 -0.8954
 2499SOL    HW116197   8.710   9.359   2.025 -0.6125 -0.0683 -1.2403
 2499SOL    HW216198   8.778   9.274   2.147  1.7242  1.7544 -1.2379
 2500SOL     OW16199   4.321   3.871   2.605  0.1787  0.1093  0.3377
 2500SOL    HW116200   4.302   3.960   2.563  2.4855  0.7995  0.7003
 2500SOL    HW216201   4.287   3.870   2.698 -2.1977 -0.3324 -0.5039
 2501SOL     OW16202   0.334   0.340   1.102 -0.0648 -0.3102 -0.0566
 2501SOL    HW116203   0.326   0.320   1.005 -0.3942 -1.6534  0.2314
 2501SOL    HW216204   0.269   0.411   1.128 -0.5068 -0.4923 -0.6716
 2502SOL     OW16205   8.976   9.641   0.344  0.4679  0.4683  0.2638
 2502SOL    HW116206   8.890   9.619   0.390  1.2311  0.8397  1.8963
 2502SOL    HW216207   9.030   9.558   0.331 -0.1791  0.2143 -0.8855
 2503SOL     OW16208   3.665   0.610   2.012  0.0103 -0.7164 -1.0255
 2503SOL    HW116209   3.674   0.708   2.029 -1.7107 -0.8371  0.8252
 2503SOL    HW216210   3.728   0.560   2.070 -0.7240 -0.7876 -0.2716
 2504SOL     OW16211   1.177   2.426   1.476  0.5116 -0.0152 -0.2000
 2504SOL    HW116212   1.222   2.337   1.484  0.2893 -0.1317 -0.2272
 2504SOL    HW216213   1.238   2.491   1.432  0.0499 -0.6310 -1.7974
 2507SOL     OW16214   4.176   3.928   2.144  0.6307 -0.0215 -0.0680
 2507SOL    HW116215   4.273   3.910   2.129  0.1366 -2.0105 -0.9747
 2507SOL    HW216216   4.121   3.855   2.103 -1.2231  0.5867  1.2513
 2508SOL     OW16217   4.033   9.083   1.078 -0.2537 -0.2772  0.5702
 2508SOL    HW116218   4.056   9.041   1.166 -0.8644 -1.0268  0.3794
 2508SOL    HW216219   4.115   9.087   1.020 -0.1343 -0.9649  0.6910
 2509SOL     OW16220   9.502   7.405   1.613  0.3021  0.5790 -0.1244
 2509SOL    HW116221   9.601   7.397   1.602  0.0301 -1.1832 -1.5657
 2509SOL    HW216222   9.470   7.339   1.680 -0.0835  0.0564 -0.8190
 2510SOL     OW16223   0.428   5.790   1.008 -0.0654  0.0369 -0.5563
 2510SOL    HW116224   0.386   5.852   0.942  0.0268  1.0701  0.3440
 2510SOL    HW216225   0.527   5.803   1.009  0.1346 -1.2690 -1.5174
 2511SOL     OW16226   1.196   2.957   1.908  0.1043  0.0852 -0.4193
 2511SOL    HW116227   1.211   3.007   1.994 -1.1221  0.5209 -0.4468
 2511SOL    HW216228   1.107   2.911   1.912  0.5902 -0.9140 -0.9751
 2512SOL     OW16229   4.373   4.159   2.583 -0.5646  0.5282  0.1396
 2512SOL    HW116230   4.328   4.155   2.494 -0.4518  1.1707  0.0519
 2512SOL    HW216231   4.437   4.236   2.585  2.3013 -1.7647 -0.5605
 2513SOL     OW16232   9.917   0.349   1.803 -0.3209  1.2563 -0.0668
 2513SOL    HW116233   9.998   0.291   1.812 -0.9148  0.6684  1.8010
 2513SOL    HW216234   9.848   0.301   1.748  0.2011  1.3273 -0.7910
 2514SOL     OW16235   9.011   9.323   1.936 -0.2331 -0.2680  0.5553
 2514SOL    HW116236   8.919   9.328   1.974 -0.7436  0.0696 -0.7099
 2514SOL    HW216237   9.076   9.303   2.010 -1.1153  1.0126  1.7064
 2515SOL     OW16238   7.515   9.443   1.905  0.2575 -0.6438 -0.1036
 2515SOL    HW116239   7.477   9.373   1.965 -0.6463  1.6351  2.1028
 2515SOL    HW216240   7.445   9.472   1.839 -0.2045 -0.0510  0.6362
 2516SOL     OW16241   1.969   9.937   1.992  0.2679  0.5066 -0.4568
 2516SOL    HW116242   1.877   9.900   1.996  0.1550  0.9174  0.9742
 2516SOL    HW216243   2.002   9.954   2.085  2.9423 -2.5079 -0.7625
 2520SOL     OW16244   2.474   6.303   0.521  0.2470 -0.1659 -0.9784
 2520SOL    HW116245   2.562   6.255   0.510  0.0977 -1.2390  2.0548
 2520SOL    HW216246   2.400   6.243   0.491  0.5383  1.0637 -4.3853
 2521SOL     OW16247   3.051   7.375   0.504  0.2466  0.0591  0.6608
 2521SOL    HW116248   3.014   7.331   0.422 -2.2449  1.1082  1.1751
 2521SOL    HW216249   2.985   7.365   0.579  1.6824  0.7031  2.0317
 2522SOL     OW16250   2.914   4.518   0.621 -0.0355  0.2813  0.7842
 2522SOL    HW116251   2.815   4.534   0.628 -0.4683 -0.6640 -2.3338
 2522SOL    HW216252   2.931   4.420   0.622  0.8095  0.4271  0.5099
 2523SOL     OW16253   1.251   5.412   0.265  0.6806 -0.4501  0.3480
 2523SOL    HW116254   1.259   5.498   0.315  1.4982 -0.2782 -0.0727
 2523SOL    HW216255   1.266   5.428   0.167  3.6854 -1.4827  0.5867
 2525SOL     OW16256   8.435   8.290   2.215  0.8549 -0.1830 -0.0484
 2525SOL    HW116257   8.481   8.341   2.288 -1.8154  0.9443  0.9158
 2525SOL    HW216258   8.415   8.197   2.247  0.5725  0.0034  0.3241
 2527SOL     OW16259   4.525   7.707   1.081  0.1737  0.2327 -0.2364
 2527SOL    HW116260   4.449   7.644   1.064  1.1297 -1.3166  1.0905
 2527SOL    HW216261   4.489   7.799   1.097 -1.4177 -0.4686  0.3227
 2528SOL     OW16262   9.880   7.687   1.771  0.1089  0.7698 -0.5753
 2528SOL    HW116263   9.923   7.645   1.691 -2.4953 -2.0050 -0.6473
 2528SOL    HW216264   9.796   7.733   1.744 -0.3292  0.5922  0.4306
 2529SOL     OW16265   9.529   5.083   2.306 -0.1109 -0.0167  0.5120
 2529SOL    HW116266   9.529   5.117   2.212  2.2269  1.0868  0.8744
 2529SOL    HW216267   9.562   4.988   2.307 -0.6717 -0.2202  0.1776
 2530SOL     OW16268   4.777   0.191   1.864  0.1868 -0.0332  0.3860
 2530SOL    HW116269   4.686   0.154   1.846  1.0648 -1.8141 -0.5510
 2530SOL    HW216270   4.816   0.225   1.778  0.3263  0.9177  0.8231
 2532SOL     OW16271   7.594   1.639   0.854 -0.7200  0.2422  0.0622
 2532SOL    HW116272   7.662   1.591   0.908 -0.9059 -0.0194  0.0643
 2532SOL    HW216273   7.615   1.737   0.851  0.0358  0.0650 -0.5032
 2533SOL     OW16274   1.277   9.094   1.215 -0.1761  0.5423 -0.4870
 2533SOL    HW116275   1.282   9.191   1.237  0.3978  0.6190 -0.9362
 2533SOL    HW216276   1.358   9.047   1.250 -0.3287  0.2721 -0.4922
 2534SOL     OW16277   9.154   6.429   2.377  0.6817 -0.4072 -0.1272
 2534SOL    HW116278   9.205   6.515   2.377  0.7934 -0.4625 -1.4923
 2534SOL    HW216279   9.190   6.369   2.449  2.1954 -0.2378 -0.7178
 2536SOL     OW16280   7.029   9.537   0.076 -0.2201 -0.0401  0.2853
 2536SOL    HW116281   7.076   9.530   0.164 -2.0526  0.5969  1.3389
 2536SOL    HW216282   7.084   9.492   0.005  1.2209 -0.6590  1.7617
 2538SOL     OW16283   0.194   3.264   0.841 -0.2999  0.3751 -0.7469
 2538SOL    HW116284   0.200   3.244   0.743  0.8501  1.6916 -0.9658
 2538SOL    HW216285   0.256   3.339   0.863 -0.4738  0.0160  1.0192
 2539SOL     OW16286   3.108   9.140   1.755  0.1084  0.1057  0.2950
 2539SOL    HW116287   3.075   9.222   1.802  1.6708 -0.3452  2.2194
 2539SOL    HW216288   3.204   9.153   1.729 -0.0017 -0.6405 -0.5324
 2540SOL     OW16289   1.142   7.111   1.153 -0.1977  0.5692  0.3380
 2540SOL    HW116290   1.046   7.083   1.155 -0.7040  2.1323 -0.9269
 2540SOL    HW216291   1.199   7.037   1.189 -2.0271  0.3420  2.9061
 2541SOL     OW16292   1.961   2.689   1.008  0.4548  0.1250 -0.0718
 2541SOL    HW116293   1.912   2.753   1.067 -0.3003  1.1176 -1.7503
 2541SOL    HW216294   2.055   2.679   1.040  1.2504  3.7950 -1.1092
 2542SOL     OW16295   3.584   0.165   0.422  0.1001  0.4350  0.2710
 2542SOL    HW116296   3.582   0.264   0.410 -1.6059  0.1002 -2.6840
 2542SOL    HW216297   3.668   0.128   0.382 -0.0027  0.5256 -0.0277
 2545SOL     OW16298   1.737   8.627   0.188  0.2036  0.0408  0.7518
 2545SOL    HW116299   1.820   8.665   0.145  0.4070 -1.7091 -0.4499
 2545SOL    HW216300   1.750   8.529   0.205 -1.2560 -0.0378  1.5112
 2547SOL     OW16301   2.818   9.476   1.613  0.5587 -0.0753  0.1546
 2547SOL    HW116302   2.883   9.530   1.667  0.7219 -1.7435  1.6305
 2547SOL    HW216303   2.863   9.447   1.528  1.5943 -0.7859  0.9306
 2548SOL     OW16304   0.734   9.125   1.323  0.2995  0.7259  0.2269
 2548SOL    HW116305   0.707   9.119   1.227 -1.3182  0.6813  0.6720
 2548SOL    HW216306   0.834   9.132   1.330  0.3628  1.5753 -1.4839
 2550SOL     OW16307   4.578   9.130   0.139 -0.2143  0.3781 -0.2078
 2550SOL    HW116308   4.547   9.096   0.228  0.5305  2.2635  0.8066
 2550SOL    HW216309   4.518   9.095   0.067 -0.9741 -0.9745  1.0578
 2551SOL     OW16310   8.491   9.495   0.861  0.2157  0.2407 -0.0284
 2551SOL    HW116311   8.403   9.525   0.896  0.2644 -0.2177  0.4992
 2551SOL    HW216312   8.479   9.452   0.771 -0.1668 -0.2802  0.2683
 2553SOL     OW16313   0.382   6.858   0.521 -0.7563  0.6572 -0.5790
 2553SOL    HW116314   0.292   6.902   0.529 -0.8734  0.7564 -2.1836
 2553SOL    HW216315   0.440   6.913   0.461  0.8069  1.2430  1.4377
 2555SOL     OW16316   9.851   9.736   1.849 -0.3513  0.0164 -0.6211
 2555SOL    HW116317   9.817   9.644   1.829 -1.2064  0.0684  0.5850
 2555SOL    HW216318   9.864   9.786   1.763 -0.5623 -0.9926 -1.2406
 2557SOL     OW16319   1.994   1.377   1.796  0.3410  0.3269 -0.3810
 2557SOL    HW116320   2.075   1.429   1.820  1.6905 -2.0073  0.2984
 2557SOL    HW216321   2.018   1.305   1.732 -1.0193 -0.8757  0.4183
 2558SOL     OW16322   0.721   2.003   1.772 -0.4712 -0.8346 -0.0136
 2558SOL    HW116323   0.808   1.962   1.745  0.6895  1.2051  0.5667
 2558SOL    HW216324   0.679   2.049   1.694  0.9668  1.6766  0.6711
 2560SOL     OW16325   9.018   1.000   1.322  0.6021 -0.1719 -0.8131
 2560SOL    HW116326   9.055   0.998   1.414  0.3005  0.8019 -0.6711
 2560SOL    HW216327   9.086   1.037   1.259  0.4164  0.1696 -0.8092
 2561SOL     OW16328   9.525   3.221   1.047  0.4722 -0.0058 -0.6176
 2561SOL    HW116329   9.483   3.134   1.023  1.8578 -0.3886 -1.7338
 2561SOL    HW216330   9.494   3.249   1.138 -1.0187 -0.9882 -0.8006
 2563SOL     OW16331   4.032   8.277   0.065 -0.6769  0.1497 -0.3124
 2563SOL    HW116332   4.122   8.245   0.038 -0.2663  1.2477 -0.2731
 2563SOL    HW216333   3.999   8.223   0.143  0.3146  0.2997  0.2233
 2564SOL     OW16334   3.664   4.600   0.996  0.3269 -0.7532  0.1898
 2564SOL    HW116335   3.681   4.681   0.940 -0.9577  0.4223  1.4435
 2564SOL    HW216336   3.721   4.525   0.964 -0.1113 -0.0150 -2.4328
 2565SOL     OW16337   3.216   5.968   1.813  0.5253  0.8200  0.0055
 2565SOL    HW116338   3.204   6.067   1.802 -0.6040  0.5268 -1.5389
 2565SOL    HW216339   3.313   5.947   1.825  1.0130  1.8896 -1.9716
 2566SOL     OW16340   4.188   8.014   1.974 -0.6650  0.9605 -0.0015
 2566SOL    HW116341   4.202   8.110   2.000  0.7531  0.8519 -0.3189
 2566SOL    HW216342   4.273   7.978   1.935  0.0878 -1.5623  3.7007
 2567SOL     OW16343   4.441   4.740   2.219  0.3588  0.4701 -0.1098
 2567SOL    HW116344   4.433   4.836   2.249 -1.3451  0.5290 -0.7119
 2567SOL    HW216345   4.461   4.738   2.121  0.6825  0.1958 -0.0394
 2570SOL     OW16346   0.301   5.277   0.688  0.1625  0.4772  0.0776
 2570SOL    HW116347   0.236   5.221   0.739  0.6989 -0.8735 -0.6743
 2570SOL    HW216348   0.392   5.267   0.728  0.5175 -0.3065 -0.8885
 2571SOL     OW16349   0.444   4.034   2.584 -0.4520  0.3303 -0.3808
 2571SOL    HW116350   0.422   4.101   2.513 -1.1229  1.0290  0.4812
 2571SOL    HW216351   0.397   3.948   2.563 -0.6997  0.5548 -0.7551
 2572SOL     OW16352   1.858   4.508   0.289  0.6037  0.1309  0.3016
 2572SOL    HW116353   1.778   4.561   0.318  0.3441 -0.1631  0.1183
 2572SOL    HW216354   1.939   4.545   0.334  0.2503 -0.0958  1.1526
 2573SOL     OW16355   1.763   4.778   2.227  0.2894 -0.1196  0.0455
 2573SOL    HW116356   1.857   4.784   2.192  0.5392  1.4685  0.9728
 2573SOL    HW216357   1.763   4.728   2.313  0.3972  0.5577  0.4417
 2574SOL     OW16358   2.772   1.350   2.062 -0.1213  0.1358 -0.5357
 2574SOL    HW116359   2.695   1.329   2.122  1.7337 -1.4653  1.3387
 2574SOL    HW216360   2.838   1.275   2.063  0.6973  0.7277 -3.4370
 2577SOL     OW16361   1.218   3.697   1.353  0.4493 -0.1672  0.8073
 2577SOL    HW116362   1.158   3.649   1.417  1.5062 -1.3349  0.9486
 2577SOL    HW216363   1.245   3.785   1.391 -1.8630  0.7486  0.3653
 2578SOL     OW16364   3.664   4.958   2.127 -0.6982 -0.2541 -0.5983
 2578SOL    HW116365   3.566   4.978   2.125 -0.6757 -0.0772  0.2526
 2578SOL    HW216366   3.715   5.043   2.120 -0.6049 -0.1674  1.1070
 2579SOL     OW16367   9.538   6.661   0.745 -0.2419 -0.2058  0.1756
 2579SOL    HW116368   9.479   6.724   0.695  0.2341  0.5866  0.6020
 2579SOL    HW216369   9.525   6.568   0.711 -0.8273  0.1507 -0.5679
 2580SOL     OW16370   7.985   3.862   0.263 -0.2510  0.1854  0.0844
 2580SOL    HW116371   7.941   3.821   0.343  1.1780  1.0306  1.3221
 2580SOL    HW216372   7.978   3.962   0.269 -1.0101  0.2350 -1.3665
 2581SOL     OW16373   0.616   0.940   1.621  0.1605  0.8290 -0.2101
 2581SOL    HW116374   0.596   1.025   1.574  1.5935  1.1581 -0.2486
 2581SOL    HW216375   0.591   0.863   1.562  1.1772  1.2373 -1.2060
 2582SOL     OW16376   0.203   5.969   2.318 -0.2806 -0.1780 -0.7218
 2582SOL    HW116377   0.170   5.904   2.249 -0.5041  1.2058 -1.9436
 2582SOL    HW216378   0.299   5.991   2.300 -0.3139  0.1241 -0.5335
 2583SOL     OW16379   0.480   9.612   2.086 -0.2329 -0.5591 -0.1455
 2583SOL    HW116380   0.530   9.632   2.002  1.1372  0.0408  0.7973
 2583SOL    HW216381   0.461   9.697   2.135 -1.7056 -0.8353 -0.2199
 2585SOL     OW16382   0.741   8.407   0.877  0.1413 -0.1168 -0.1494
 2585SOL    HW116383   0.644   8.427   0.867 -0.2289 -1.5338  0.4533
 2585SOL    HW216384   0.794   8.465   0.815 -1.2593 -0.9338 -2.1578
 2586SOL     OW16385   8.263   3.335   0.951  0.3770 -0.5635  0.3913
 2586SOL    HW116386   8.182   3.282   0.975 -0.5730 -0.4381 -2.3439
 2586SOL    HW216387   8.252   3.429   0.982 -0.5022 -0.5728  0.1116
 2588SOL     OW16388   0.782   8.143   0.839 -0.2144 -0.2816  0.0348
 2588SOL    HW116389   0.756   8.235   0.869  0.2140  0.4358 -1.6835
 2588SOL    HW216390   0.704   8.100   0.793 -0.3564 -0.7106  0.6733
 2590SOL     OW16391   9.924   1.378   0.666  0.1792 -0.1235 -0.3485
 2590SOL    HW116392   9.946   1.281   0.658  0.0538 -0.1730 -0.0916
 2590SOL    HW216393   9.973   1.430   0.596 -0.4068 -0.4802 -1.0274
 2591SOL     OW16394   2.888   0.259   1.965  0.1405  0.2074 -0.6067
 2591SOL    HW116395   2.903   0.344   1.915 -4.4977  1.3401 -0.2791
 2591SOL    HW216396   2.910   0.274   2.062 -1.1344  1.1902 -0.4601
 2592SOL     OW16397   9.549   6.870   0.072 -0.6744  0.0313  0.3667
 2592SOL    HW116398   9.571   6.965   0.048 -2.7438  0.1039 -1.4286
 2592SOL    HW216399   9.487   6.868   0.150  1.2937  0.0224  1.9784
 2593SOL     OW16400   2.511   8.733   0.690 -0.6313  0.1380 -0.3228
 2593SOL    HW116401   2.483   8.773   0.603 -0.6965 -0.1194 -0.4202
 2593SOL    HW216402   2.461   8.778   0.765 -1.3120 -0.3162 -0.4938
 2594SOL     OW16403   8.613   0.107   1.163 -0.2448  0.3243  0.5807
 2594SOL    HW116404   8.608   0.081   1.066 -3.0625  0.5190  0.6208
 2594SOL    HW216405   8.708   0.105   1.193  0.6044 -0.4873 -1.9861
 2595SOL     OW16406   2.629   0.284   1.269  0.0957  0.6108 -0.0139
 2595SOL    HW116407   2.561   0.210   1.271  1.7817 -1.0918 -2.3496
 2595SOL    HW216408   2.645   0.311   1.174  2.4129  1.2373  0.5462
 2596SOL     OW16409   4.181   8.469   1.411 -0.3345 -0.0964  0.4385
 2596SOL    HW116410   4.090   8.494   1.379  0.2024 -0.0223 -1.0716
 2596SOL    HW216411   4.249   8.533   1.373  0.2318  0.5954  2.5251
 2597SOL     OW16412   0.570   9.062   2.339 -0.0925  0.3119  0.5177
 2597SOL    HW116413   0.654   9.036   2.386 -0.6518 -0.0465  1.3326
 2597SOL    HW216414   0.491   9.034   2.394 -0.7612 -0.5416 -0.8472
 2598SOL     OW16415   2.192   9.616   2.551 -0.1753  0.1400 -0.6074
 2598SOL    HW116416   2.207   9.711   2.524 -1.3693  0.3326 -0.6277
 2598SOL    HW216417   2.190   9.609   2.651 -0.3493  0.1869 -0.6065
 2599SOL     OW16418   2.850   7.256   1.373 -0.0147  0.2229  0.4884
 2599SOL    HW116419   2.923   7.313   1.335  0.2519 -0.2370  0.3044
 2599SOL    HW216420   2.766   7.310   1.382 -0.0546  0.3646 -0.6473
 2600SOL     OW16421   0.911   5.719   0.790 -0.2955 -0.1809 -0.0566
 2600SOL    HW116422   0.902   5.670   0.703  0.8631 -1.0971  0.3236
 2600SOL    HW216423   0.996   5.772   0.790 -0.5099  0.1655  0.3490
 2601SOL     OW16424   4.345   0.845   1.990  0.3780 -0.0015 -0.0300
 2601SOL    HW116425   4.370   0.797   1.906  0.4587  0.2478 -0.1490
 2601SOL    HW216426   4.408   0.818   2.063 -1.1113 -1.9904  0.5532
 2602SOL     OW16427   1.628   6.850   1.679  0.0736 -0.1304  0.4801
 2602SOL    HW116428   1.567   6.817   1.751 -1.4224 -0.8404 -1.0764
 2602SOL    HW216429   1.622   6.949   1.672 -0.1965 -0.1156  0.9510
 2603SOL     OW16430   0.919   2.373   0.486 -0.3127  0.2992 -0.4809
 2603SOL    HW116431   0.922   2.273   0.491  2.0467  0.2943 -1.5588
 2603SOL    HW216432   0.935   2.412   0.576 -1.0613 -0.2824 -0.0909
 2604SOL     OW16433   1.419   9.286   0.409  0.5093 -0.3454  0.7795
 2604SOL    HW116434   1.367   9.217   0.358 -0.2100 -0.8930  2.2364
 2604SOL    HW216435   1.497   9.316   0.354 -0.8553 -0.1305 -1.0817
 2606SOL     OW16436   3.934   2.732   0.676 -0.2935  0.0003  0.4871
 2606SOL    HW116437   3.838   2.745   0.698 -0.2343  0.1073  0.6776
 2606SOL    HW216438   3.962   2.800   0.608 -1.2445 -2.1463 -2.1432
 2607SOL     OW16439   8.669   2.858   2.349 -0.2222 -0.5883 -0.2190
 2607SOL    HW116440   8.615   2.902   2.278  0.1380 -1.4075 -1.0010
 2607SOL    HW216441   8.609   2.831   2.425 -0.2697  2.4841  0.9297
 2609SOL     OW16442   0.284   1.074   1.079 -0.1188  0.2513 -0.0291
 2609SOL    HW116443   0.366   1.019   1.062 -0.1283  0.3354 -0.3553
 2609SOL    HW216444   0.227   1.029   1.148  0.0852  0.0701  0.0209
 2611SOL     OW16445   1.205   5.283   1.044  0.2455  0.0759  0.0662
 2611SOL    HW116446   1.246   5.220   0.978  1.1466  1.5937 -0.8390
 2611SOL    HW216447   1.186   5.371   1.000  0.6966  1.0593  1.7739
 2613SOL     OW16448   3.755   8.528   1.951 -0.5940 -0.1054 -0.0435
 2613SOL    HW116449   3.745   8.593   2.026 -0.1498 -0.1047  0.0171
 2613SOL    HW216450   3.756   8.577   1.864 -0.9396 -0.0925 -0.0409
 2614SOL     OW16451   4.793   9.301   0.192  0.2358  0.1368  0.5452
 2614SOL    HW116452   4.748   9.389   0.177  0.3029  0.1624  0.4947
 2614SOL    HW216453   4.727   9.227   0.180  0.3809  0.1349 -0.2494
 2615SOL     OW16454   1.819   3.450   0.389  0.7496 -0.3329 -0.0021
 2615SOL    HW116455   1.907   3.445   0.343  0.3309 -1.0213 -0.7521
 2615SOL    HW216456   1.799   3.545   0.413 -0.3398  0.5319 -3.9121
 2616SOL     OW16457   1.330   9.481   2.206  0.1488  0.4673 -0.0288
 2616SOL    HW116458   1.318   9.434   2.293  1.1179 -3.1770 -1.7823
 2616SOL    HW216459   1.241   9.513   2.173 -0.7384 -1.3400  0.5808
 2617SOL     OW16460   9.216   8.041   1.728  0.3323  0.1686  0.2703
 2617SOL    HW116461   9.237   8.107   1.801  0.6939  0.5654 -0.1893
 2617SOL    HW216462   9.260   8.070   1.643  0.4144 -0.6207  0.0380
 2618SOL     OW16463   0.592   2.522   2.055  0.2841 -0.2390 -0.4370
 2618SOL    HW116464   0.499   2.560   2.057  1.2379  2.3913 -2.5716
 2618SOL    HW216465   0.601   2.462   1.976  0.2647 -0.8617  0.0351
 2619SOL     OW16466   3.104   8.947   2.121  0.7599  0.3558 -0.2510
 2619SOL    HW116467   3.155   9.011   2.179  2.2557 -0.4457 -0.6622
 2619SOL    HW216468   3.141   8.950   2.028 -0.6573  0.5414 -0.8311
 2620SOL     OW16469   4.176   8.915   0.311  0.0557 -0.7352  0.2653
 2620SOL    HW116470   4.270   8.948   0.306 -0.1244 -0.3927 -1.2014
 2620SOL    HW216471   4.121   8.975   0.369  0.7119 -0.8686  1.0235
 2622SOL     OW16472   1.813   8.235   0.418 -1.7736 -0.8398 -0.3435
 2622SOL    HW116473   1.757   8.309   0.380  0.1399  0.4364 -0.7262
 2622SOL    HW216474   1.872   8.198   0.347 -1.7715 -1.8610  0.1799
 2623SOL     OW16475   3.902   4.880   0.568  0.3785 -0.1443 -0.0456
 2623SOL    HW116476   3.823   4.868   0.509 -0.0066 -0.6213  0.5549
 2623SOL    HW216477   3.965   4.947   0.528 -1.0102  1.3107  0.1726
 2624SOL     OW16478   0.949   9.944   0.797 -0.5867 -0.4879 -0.4417
 2624SOL    HW116479   1.037   9.907   0.769 -1.6099 -2.6910 -0.8042
 2624SOL    HW216480   0.960   9.994   0.884  1.3238  0.7936 -1.3991
 2625SOL     OW16481   4.108   9.321   0.285  0.3062  0.3490 -0.2601
 2625SOL    HW116482   4.199   9.283   0.303  0.3396  0.3662 -0.3955
 2625SOL    HW216483   4.116   9.419   0.267  0.1920  0.4668  0.3218
 2626SOL     OW16484   1.278   9.252   0.057  0.3700 -0.0381 -0.5136
 2626SOL    HW116485   1.224   9.325   0.098  0.0170  0.0901 -1.2146
 2626SOL    HW216486   1.324   9.200   0.130  1.1618  1.2876 -0.0502
 2627SOL     OW16487   8.617   0.761   0.959 -0.4064  0.4902  0.3176
 2627SOL    HW116488   8.531   0.776   1.008 -1.2117 -0.0248 -0.9350
 2627SOL    HW216489   8.690   0.742   1.025 -1.0221  1.9317  1.4557
 2629SOL     OW16490   2.148   5.588   1.822  0.3383  0.3442 -0.6313
 2629SOL    HW116491   2.058   5.556   1.853  1.4879 -1.6337  0.7781
 2629SOL    HW216492   2.157   5.572   1.724 -1.6045  2.4472 -1.1925
 2630SOL     OW16493   2.151   9.252   1.624 -0.3738 -0.2726 -0.0273
 2630SOL    HW116494   2.207   9.311   1.565 -0.4080 -0.0267  0.1833
 2630SOL    HW216495   2.063   9.297   1.641 -0.0298  0.0457  0.9148
 2631SOL     OW16496   9.486   9.550   0.917 -0.1384 -0.4318 -0.2720
 2631SOL    HW116497   9.518   9.545   0.822 -0.4398  1.4794 -0.5100
 2631SOL    HW216498   9.386   9.555   0.918 -0.1481 -0.6724  0.1627
 2632SOL     OW16499   7.147   0.877   0.791 -0.2984  0.3554 -0.7483
 2632SOL    HW116500   7.202   0.957   0.769 -0.2829  0.7719  0.7285
 2632SOL    HW216501   7.207   0.797   0.801 -0.0122  0.6885  0.2762
 2633SOL     OW16502   4.252   4.530   0.991 -0.2046  0.1371 -0.4461
 2633SOL    HW116503   4.251   4.571   0.899 -0.0849 -1.6851 -1.2864
 2633SOL    HW216504   4.326   4.463   0.995 -0.8764 -0.5338  0.6609
 2634SOL     OW16505   9.249   5.476   0.878  0.2955  0.3294 -0.3706
 2634SOL    HW116506   9.323   5.409   0.869  0.4092  0.5972 -1.4465
 2634SOL    HW216507   9.161   5.432   0.861  0.4426  0.6455 -1.9458
 2635SOL     OW16508   0.645   2.986   1.721  0.1635 -0.9164  0.5527
 2635SOL    HW116509   0.596   3.064   1.761  1.4245  0.8381 -1.2409
 2635SOL    HW216510   0.611   2.902   1.762 -0.7515  0.5992  3.0411
 2636SOL     OW16511   3.811   9.647   0.875 -0.3143  0.4056 -0.2004
 2636SOL    HW116512   3.819   9.682   0.782  1.4097 -1.2481 -0.6993
 2636SOL    HW216513   3.809   9.547   0.873  3.3254  0.1966  1.7228
 2637SOL     OW16514   0.192   6.082   2.569 -0.1715 -0.0169 -0.3378
 2637SOL    HW116515   0.211   6.006   2.507 -1.6752 -0.7791  0.1275
 2637SOL    HW216516   0.109   6.063   2.621 -0.2475  1.6957  0.1930
 2638SOL     OW16517   9.246   1.280   0.334 -0.0966 -0.2879 -0.3101
 2638SOL    HW116518   9.147   1.286   0.324 -0.0240 -2.2527 -2.8085
 2638SOL    HW216519   9.269   1.208   0.399 -0.3029  0.4426  0.5787
 2639SOL     OW16520   9.741   9.642   0.491 -0.6468 -0.0786 -0.5490
 2639SOL    HW116521   9.708   9.732   0.464  1.6314  0.7374 -0.7658
 2639SOL    HW216522   9.809   9.610   0.424 -0.5905 -1.4440  0.1313
 2640SOL     OW16523   5.931   9.760   2.514  0.3628  0.0652 -0.3305
 2640SOL    HW116524   5.837   9.779   2.485  0.1637  0.1463  0.3480
 2640SOL    HW216525   5.994   9.777   2.439 -0.0597  1.0889 -0.4542
 2641SOL     OW16526   1.786   7.411   0.335  0.1551  0.0100 -0.3957
 2641SOL    HW116527   1.702   7.385   0.384  0.8828  0.3657  1.0757
 2641SOL    HW216528   1.863   7.358   0.371  1.0843  1.8599  0.3918
 2642SOL     OW16529   2.676   3.157   2.299  0.0004  0.2952 -0.1104
 2642SOL    HW116530   2.597   3.194   2.250  0.6250  0.4666 -1.0095
 2642SOL    HW216531   2.647   3.085   2.361 -0.6112 -1.0586 -1.9377
 2644SOL     OW16532   0.164   9.350   0.589 -0.3733  0.0082  0.1687
 2644SOL    HW116533   0.146   9.392   0.500  2.7880  2.4214  0.5534
 2644SOL    HW216534   0.150   9.417   0.661 -0.9080 -1.3278  1.3269
 2645SOL     OW16535   7.718   0.721   1.215 -0.0193 -0.0645  0.1089
 2645SOL    HW116536   7.642   0.656   1.207 -0.0860 -0.2170  1.7589
 2645SOL    HW216537   7.760   0.712   1.305  1.9858  0.0188 -0.8054
 2649SOL     OW16538   9.457   4.681   2.514  0.2339  0.2276 -0.3481
 2649SOL    HW116539   9.361   4.682   2.485  0.3986 -0.2668 -0.9227
 2649SOL    HW216540   9.504   4.761   2.477  0.3599 -0.2207 -1.1926
 2650SOL     OW16541   8.470   6.723   1.144 -0.1657  0.1456 -0.2186
 2650SOL    HW116542   8.410   6.684   1.074 -1.1383 -3.3120  2.3981
 2650SOL    HW216543   8.560   6.680   1.139  0.4187  1.4048 -0.6732
 2651SOL     OW16544   3.114   2.292   0.472  0.1672  0.3975 -0.5785
 2651SOL    HW116545   3.025   2.260   0.441  0.0185 -2.0520  2.1498
 2651SOL    HW216546   3.168   2.323   0.393 -0.4995 -4.6469 -3.2018
 2652SOL     OW16547   0.207   6.141   0.671  0.4167  0.1004  0.6900
 2652SOL    HW116548   0.254   6.104   0.591  0.9551  0.2626  0.9250
 2652SOL    HW216549   0.239   6.234   0.689 -0.2850  0.3576  0.6247
 2653SOL     OW16550   8.705   0.228   2.371 -0.1535  0.3467 -0.7788
 2653SOL    HW116551   8.635   0.245   2.441 -0.1213 -1.4310 -0.2897
 2653SOL    HW216552   8.698   0.133   2.340  0.6450  0.7753 -2.3042
 2654SOL     OW16553   0.798   3.179   0.733  0.1256  0.2342 -0.3342
 2654SOL    HW116554   0.897   3.187   0.727  0.1170 -0.5732 -1.7421
 2654SOL    HW216555   0.755   3.246   0.673 -0.1648 -0.1336 -0.5398
 2655SOL     OW16556   3.582   0.241   1.086  0.9453 -0.4053  0.2950
 2655SOL    HW116557   3.528   0.289   1.017  1.4105  0.8395  0.7951
 2655SOL    HW216558   3.613   0.153   1.048  1.6158  0.4790 -1.2618
 2656SOL     OW16559   1.851   5.477   2.407  0.1867  0.6202 -0.0040
 2656SOL    HW116560   1.942   5.514   2.392  1.0034  0.0296  3.0163
 2656SOL    HW216561   1.851   5.379   2.387  0.3763  0.5263  0.4265
 2657SOL     OW16562   1.823   7.245   1.393 -0.4186  0.2288 -0.5081
 2657SOL    HW116563   1.828   7.162   1.448  1.3765  0.6759  0.0426
 2657SOL    HW216564   1.732   7.253   1.352 -0.9850 -1.3757  0.4033
 2658SOL     OW16565   4.195   8.288   2.029  0.5029  0.3208 -0.1581
 2658SOL    HW116566   4.223   8.248   2.116 -2.1797 -1.8575 -0.2561
 2658SOL    HW216567   4.112   8.343   2.043 -0.4145 -0.7128 -1.4580
 2659SOL     OW16568   1.183   1.223   1.839 -0.0405 -0.6087  0.1807
 2659SOL    HW116569   1.191   1.243   1.937  0.2490  1.4565 -0.2476
 2659SOL    HW216570   1.087   1.213   1.815 -0.1312 -0.8011  0.6133
 2661SOL     OW16571   9.804   6.642   1.753 -0.0285 -0.2323 -0.0847
 2661SOL    HW116572   9.820   6.550   1.789 -0.8495 -0.4525 -0.2893
 2661SOL    HW216573   9.887   6.697   1.766  1.2806 -1.6714 -2.0541
 2663SOL     OW16574   3.584   7.425   2.407  0.0800 -0.1413  0.1659
 2663SOL    HW116575   3.660   7.365   2.379 -0.1948 -0.4481  0.0747
 2663SOL    HW216576   3.600   7.458   2.500  1.2210  1.2376 -0.4963
 2664SOL     OW16577   7.377   8.304   2.495 -0.0555  0.3837  0.4991
 2664SOL    HW116578   7.465   8.351   2.492  0.2345 -0.1059  1.3032
 2664SOL    HW216579   7.385   8.215   2.450 -0.4655  0.8514 -0.5349
 2665SOL     OW16580   3.588   2.678   1.003  0.1184  0.1739  0.0520
 2665SOL    HW116581   3.533   2.732   1.067  0.6340  0.3010  0.3877
 2665SOL    HW216582   3.685   2.691   1.023  0.2714 -0.1188 -0.4859
 2666SOL     OW16583   2.740   8.861   0.823 -0.0361  1.1803  0.4100
 2666SOL    HW116584   2.674   8.806   0.773 -0.3201  2.5884 -0.7691
 2666SOL    HW216585   2.692   8.921   0.887 -0.0137  3.1834 -1.4128
 2669SOL     OW16586   1.753   1.772   2.306 -0.7553  0.1260 -0.0066
 2669SOL    HW116587   1.674   1.788   2.366 -1.8492  0.1042 -1.4117
 2669SOL    HW216588   1.784   1.678   2.317 -0.9294  0.1292  0.5486
 2670SOL     OW16589   1.507   6.985   0.060 -0.5604  0.9019 -0.2195
 2670SOL    HW116590   1.506   6.960  -0.037 -0.8178  2.5486 -0.6551
 2670SOL    HW216591   1.522   6.903   0.115 -0.6266 -0.0846 -1.6366
 2671SOL     OW16592   3.638   2.608   1.953 -0.0800  0.3131  0.6231
 2671SOL    HW116593   3.693   2.627   1.872  0.1077 -2.0253  0.1703
 2671SOL    HW216594   3.623   2.510   1.961 -1.7805  0.6775  2.3317
 2672SOL     OW16595   8.730   0.557   2.085 -0.2727  0.0936  0.3210
 2672SOL    HW116596   8.659   0.556   2.155  0.6119 -0.2883  1.2297
 2672SOL    HW216597   8.816   0.524   2.125  0.1052 -0.6628 -1.0811
 2673SOL     OW16598   9.819   4.841   1.103  0.0538 -0.0802  0.4355
 2673SOL    HW116599   9.827   4.939   1.120 -0.0690 -0.1628  0.9770
 2673SOL    HW216600   9.911   4.801   1.095  0.1256 -0.0916  1.2293
 2674SOL     OW16601   2.520   2.081   0.275  0.0043  0.2642 -0.0337
 2674SOL    HW116602   2.518   1.982   0.261 -0.3254 -0.0045  1.7463
 2674SOL    HW216603   2.427   2.115   0.284  0.1009  0.8030 -1.0506
 2676SOL     OW16604   9.515   6.650   1.958 -0.0480 -0.0706  0.4056
 2676SOL    HW116605   9.610   6.665   1.933 -0.0650 -0.3194  0.1916
 2676SOL    HW216606   9.477   6.574   1.905 -0.5220  0.3784  0.0997
 2677SOL     OW16607   1.474   8.497   2.424  0.1102 -0.1655 -0.7103
 2677SOL    HW116608   1.541   8.529   2.357 -0.1253  0.3313 -0.7119
 2677SOL    HW216609   1.410   8.571   2.445 -0.9857 -0.9060 -1.3892
 2678SOL     OW16610   9.125   9.778   1.654  0.0810 -0.2208  0.2400
 2678SOL    HW116611   9.108   9.685   1.686  0.3281 -0.0081  1.0120
 2678SOL    HW216612   9.224   9.793   1.650  0.0475 -0.2103 -0.5253
 2680SOL     OW16613   3.675   1.634   2.638  0.0160  0.0105 -0.5558
 2680SOL    HW116614   3.636   1.723   2.663  1.8404  0.8997 -0.7988
 2680SOL    HW216615   3.683   1.628   2.538  0.4220 -0.1853 -0.5129
 2681SOL     OW16616   3.783   1.649   0.642 -0.2325 -0.0540 -0.3199
 2681SOL    HW116617   3.780   1.662   0.543 -0.8522 -0.1261 -0.3111
 2681SOL    HW216618   3.780   1.551   0.663  0.0235 -0.0447 -0.2293
 2683SOL     OW16619   9.884   7.206   0.458  0.2216  0.1271 -0.2617
 2683SOL    HW116620   9.871   7.134   0.390  1.5958  0.5380 -0.9832
 2683SOL    HW216621   9.803   7.265   0.460  0.3071  0.3265 -1.8006
 2685SOL     OW16622   2.078   5.510   1.070  0.1468 -0.3156  0.6874
 2685SOL    HW116623   2.088   5.605   1.038  2.9856 -0.7018  0.2728
 2685SOL    HW216624   2.157   5.486   1.126 -0.4389 -2.5061  0.5984
 2686SOL     OW16625   2.516   6.215   2.063 -0.8236 -0.5351  0.1030
 2686SOL    HW116626   2.570   6.195   2.144  0.4420 -0.2221 -0.6485
 2686SOL    HW216627   2.550   6.161   1.986 -1.2675  0.0207 -0.4904
 2688SOL     OW16628   7.760   1.296   0.109  0.3418 -0.4192 -0.2613
 2688SOL    HW116629   7.770   1.395   0.106  2.0361 -0.6193 -1.7209
 2688SOL    HW216630   7.707   1.270   0.190  0.7910  1.5936  0.6869
 2690SOL     OW16631   0.288   6.577   0.903  0.1008  0.3527 -0.3404
 2690SOL    HW116632   0.252   6.653   0.957  0.9514  0.4072  0.1615
 2690SOL    HW216633   0.347   6.613   0.830  0.3922  0.1802 -0.1887
 2691SOL     OW16634   9.617   2.644   2.673 -0.2415  0.4970  0.2632
 2691SOL    HW116635   9.660   2.579   2.736 -0.0830 -0.3926 -0.7702
 2691SOL    HW216636   9.571   2.716   2.727  0.1481 -0.0840  1.3944
 2693SOL     OW16637   9.834   4.729   2.486  0.0756 -0.3537 -0.1142
 2693SOL    HW116638   9.916   4.784   2.472  1.1635 -1.9452 -0.1895
 2693SOL    HW216639   9.830   4.699   2.581 -0.8533  0.3730  0.0817
 2694SOL     OW16640   8.561   8.390   1.403 -0.0804  0.1678 -0.6851
 2694SOL    HW116641   8.639   8.349   1.355 -0.3890  2.0428 -2.8733
 2694SOL    HW216642   8.477   8.368   1.354 -0.5354  1.0581 -0.3023
 2695SOL     OW16643   8.039   8.856   2.526  0.4085 -0.2414  0.1308
 2695SOL    HW116644   7.973   8.930   2.529  1.1663  0.4432  0.1330
 2695SOL    HW216645   7.993   8.772   2.497 -0.0885  0.6535 -1.7781
 2696SOL     OW16646   9.071   8.986   0.269  0.5623  0.7312  0.3418
 2696SOL    HW116647   8.993   9.036   0.306 -1.0608 -0.6149 -1.1649
 2696SOL    HW216648   9.068   8.988   0.169  2.4863  0.6699  0.2591
 2697SOL     OW16649   3.384   4.355   1.236  0.1588  0.0324 -0.3533
 2697SOL    HW116650   3.364   4.435   1.179 -3.4989  0.9440  2.0776
 2697SOL    HW216651   3.425   4.385   1.322 -1.3058 -0.6587  0.6057
 2698SOL     OW16652   1.160   5.827   0.689  0.2215  0.4386 -0.1431
 2698SOL    HW116653   1.200   5.750   0.638 -0.8580 -0.3470  0.1784
 2698SOL    HW216654   1.174   5.912   0.637 -0.2975 -0.2561 -1.4348
 2699SOL     OW16655   4.065   7.859   2.643  0.9345  0.8843 -0.6359
 2699SOL    HW116656   4.020   7.948   2.642  0.6856  0.7963  0.8098
 2699SOL    HW216657   4.154   7.866   2.598  0.2367  1.4735 -1.9363
 2700SOL     OW16658   1.909   7.723   0.243 -0.1389  0.2857 -0.4347
 2700SOL    HW116659   1.949   7.727   0.335  1.4437  0.6244 -1.1152
 2700SOL    HW216660   1.822   7.674   0.247  0.7706 -1.2918  0.9438
 2701SOL     OW16661   2.760   4.858   0.874  0.5305 -0.0622  0.6004
 2701SOL    HW116662   2.721   4.766   0.883  0.3421 -0.0185  0.2637
 2701SOL    HW216663   2.824   4.859   0.796 -0.6150  0.4767 -0.3399
 2702SOL     OW16664   5.638   8.949   2.591 -0.7531 -0.0276  0.5169
 2702SOL    HW116665   5.563   8.888   2.615 -0.5467 -0.4045  0.2127
 2702SOL    HW216666   5.624   8.984   2.498 -0.6918  0.1089  0.5597
 2703SOL     OW16667   8.930   3.524   2.354 -0.0817  0.4677  0.0588
 2703SOL    HW116668   8.865   3.457   2.316  2.0183 -0.9037 -1.1825
 2703SOL    HW216669   8.970   3.486   2.438  0.6064  0.4756 -0.2700
 2705SOL     OW16670   1.179   0.787   0.747 -0.0156 -0.0577  0.0436
 2705SOL    HW116671   1.224   0.796   0.658  0.7747  0.0311  0.4466
 2705SOL    HW216672   1.231   0.837   0.816  0.1690 -1.2798  0.8256
 2706SOL     OW16673   2.896   9.520   2.639 -0.3160 -0.5425  0.3553
 2706SOL    HW116674   2.966   9.567   2.586  0.0682 -0.0509  1.2906
 2706SOL    HW216675   2.837   9.468   2.577  0.4078 -0.3546 -0.5045
 2707SOL     OW16676   8.395   4.896   0.525  0.0881 -0.5552 -0.1035
 2707SOL    HW116677   8.300   4.867   0.533  0.3356 -1.1480  0.8209
 2707SOL    HW216678   8.441   4.881   0.612  1.0253 -0.2796 -0.5500
 2709SOL     OW16679   8.678   1.624   0.946  0.0456 -0.3377  0.1081
 2709SOL    HW116680   8.741   1.624   1.024 -0.5530 -1.5826  0.6052
 2709SOL    HW216681   8.637   1.714   0.937  0.3038 -0.1115  1.0851
 2710SOL     OW16682   3.097   4.407   2.047  0.3131 -0.0729  0.1195
 2710SOL    HW116683   3.039   4.484   2.019  1.5550  0.3457 -1.3746
 2710SOL    HW216684   3.162   4.438   2.117  1.4578  0.5020 -1.1793
 2713SOL     OW16685   2.724   0.016   1.431  0.0708 -0.1250  0.4452
 2713SOL    HW116686   2.741  -0.083   1.435  1.6063  0.1218  0.5072
 2713SOL    HW216687   2.626   0.033   1.430 -0.2164 -1.6977 -0.5678
 2714SOL     OW16688   4.297   3.367   1.864 -0.3144 -0.5461  0.1334
 2714SOL    HW116689   4.266   3.434   1.932  0.7090 -0.7583  0.8422
 2714SOL    HW216690   4.331   3.414   1.783  0.5967 -0.1781  0.7153
 2715SOL     OW16691   3.339   8.178   2.357 -0.6188 -0.0431 -0.4573
 2715SOL    HW116692   3.420   8.119   2.366 -0.8949 -0.4176 -0.4007
 2715SOL    HW216693   3.343   8.225   2.269 -0.0438  0.3941 -0.2051
 2717SOL     OW16694   4.153   8.708   1.168 -0.4368 -0.4153 -0.1501
 2717SOL    HW116695   4.065   8.664   1.152 -0.5383 -0.3274  0.1701
 2717SOL    HW216696   4.212   8.648   1.221  0.1810 -1.0206 -1.4876
 2718SOL     OW16697   1.041   4.135   0.098 -0.2689  0.0353 -0.2701
 2718SOL    HW116698   1.029   4.075   0.019  0.6941 -0.3027 -0.1568
 2718SOL    HW216699   1.000   4.093   0.179 -0.8101  0.1562 -0.4784
 2719SOL     OW16700   7.805   8.555   1.702  0.3988  0.0384 -0.2143
 2719SOL    HW116701   7.829   8.517   1.792 -2.3252 -1.1539  0.0687
 2719SOL    HW216702   7.722   8.610   1.711 -0.7369 -1.2969 -2.2477
 2722SOL     OW16703   1.502   9.691   2.273 -0.4908 -0.0407 -0.3002
 2722SOL    HW116704   1.440   9.617   2.250  1.3174 -1.4461 -0.7885
 2722SOL    HW216705   1.481   9.727   2.364 -0.3114 -2.3032  0.6542
 2725SOL     OW16706   2.913   5.354   2.120 -0.8655  0.2543  0.5491
 2725SOL    HW116707   3.012   5.341   2.123 -0.7425  0.7169 -0.9087
 2725SOL    HW216708   2.893   5.450   2.102 -1.4433 -0.5495 -3.7373
 2726SOL     OW16709   7.312   1.793   0.552  0.1340 -0.2039  0.4481
 2726SOL    HW116710   7.311   1.745   0.640  1.7263  2.0115  1.7381
 2726SOL    HW216711   7.219   1.800   0.517 -0.3359 -2.5542  1.1211
 2727SOL     OW16712   8.862   3.051   2.463  0.0456  0.0104  0.3486
 2727SOL    HW116713   8.907   3.095   2.385 -1.1964  1.7974  0.6213
 2727SOL    HW216714   8.806   2.975   2.431  1.0944 -0.5114 -0.2802
 2729SOL     OW16715   9.390   9.595   2.321  0.3031 -0.6441  0.6305
 2729SOL    HW116716   9.485   9.618   2.341  0.2979  0.4019 -0.4604
 2729SOL    HW216717   9.386   9.508   2.272  0.8864  0.2471 -1.0730
 2730SOL     OW16718   1.601   6.406   2.456  0.4208 -0.3331  0.1291
 2730SOL    HW116719   1.538   6.329   2.453 -0.4605  0.4127 -1.1244
 2730SOL    HW216720   1.549   6.491   2.457  1.3928  0.2601  0.8064
 2731SOL     OW16721   4.707   1.727   2.300  0.4222  0.0186  0.3025
 2731SOL    HW116722   4.703   1.694   2.394 -0.1910  0.5912  0.4816
 2731SOL    HW216723   4.797   1.706   2.261  0.8680  0.2525  1.1902
 2732SOL     OW16724   0.466   0.163   0.224  0.0593 -0.0899  0.6250
 2732SOL    HW116725   0.526   0.239   0.201 -1.2406  1.2671  1.5863
 2732SOL    HW216726   0.489   0.083   0.168  1.1156  1.1562 -0.7390
 2733SOL     OW16727   0.531   5.618   0.679  0.2774  0.0596  0.1382
 2733SOL    HW116728   0.432   5.605   0.685  0.3339 -1.0055 -0.9604
 2733SOL    HW216729   0.577   5.549   0.735  0.4191  0.1150  0.0903
 2735SOL     OW16730   9.707   9.167   1.120  0.0806  0.5215 -0.5531
 2735SOL    HW116731   9.697   9.138   1.025 -0.5368 -2.0007  0.2241
 2735SOL    HW216732   9.617   9.171   1.163  0.5837 -1.7999  0.8307
 2736SOL     OW16733   7.801   5.583   0.587 -0.4631  0.5062 -0.0634
 2736SOL    HW116734   7.718   5.573   0.532 -0.0387 -0.2399 -0.5822
 2736SOL    HW216735   7.852   5.497   0.585  1.1077  1.4483 -1.0119
 2737SOL     OW16736   5.026   0.530   2.701  0.6652  0.5238 -0.4617
 2737SOL    HW116737   4.936   0.490   2.716  0.5014  1.4057  0.9645
 2737SOL    HW216738   5.084   0.513   2.780  1.2950  1.2209 -0.7599
 2738SOL     OW16739   2.929   0.366   1.359  0.2266  0.0454 -0.4163
 2738SOL    HW116740   2.835   0.353   1.328 -0.3988 -0.7991  1.6970
 2738SOL    HW216741   2.983   0.284   1.339 -0.7813 -1.4571  2.7152
 2739SOL     OW16742   9.203   9.078   1.262 -0.4481  0.4922 -0.2904
 2739SOL    HW116743   9.146   9.160   1.254 -0.6885  0.4598  0.9511
 2739SOL    HW216744   9.293   9.104   1.298 -0.6449  0.1761  0.4492
 2740SOL     OW16745   0.427   4.921   1.830  0.1947 -0.3354 -0.2533
 2740SOL    HW116746   0.500   4.975   1.873 -2.1027  3.3294 -0.7325
 2740SOL    HW216747   0.449   4.907   1.733 -0.0899  1.5311 -0.6109
 2741SOL     OW16748   8.675   1.348   1.815  0.4957 -0.4061 -0.6882
 2741SOL    HW116749   8.687   1.405   1.734 -1.3019  0.9560 -0.0276
 2741SOL    HW216750   8.632   1.262   1.790 -0.9988  0.4293 -1.0842
 2742SOL     OW16751   9.070   2.007   2.622  0.4726 -0.0127 -0.3380
 2742SOL    HW116752   8.975   2.038   2.615  0.5030  0.5925  1.8236
 2742SOL    HW216753   9.125   2.077   2.665  1.6470 -0.8907 -0.3902
 2744SOL     OW16754   4.218   3.442   2.107  0.1734  0.3376 -0.0552
 2744SOL    HW116755   4.291   3.392   2.153 -0.1896 -1.2862 -1.2108
 2744SOL    HW216756   4.157   3.482   2.175 -1.0586 -3.0519  0.9478
 2745SOL     OW16757   0.551   5.511   0.428 -0.3397 -0.3267 -0.3248
 2745SOL    HW116758   0.646   5.505   0.396 -0.9476 -2.3538 -1.8648
 2745SOL    HW216759   0.542   5.587   0.493  1.9072  1.0892 -1.6127
 2748SOL     OW16760   3.723   0.166   2.553  0.2439  0.2338 -0.1104
 2748SOL    HW116761   3.668   0.106   2.496  2.2997 -0.2012 -1.6831
 2748SOL    HW216762   3.757   0.115   2.632 -2.9325  0.9428  1.7989
 2749SOL     OW16763   1.070   2.171   1.238 -0.2882  1.1325 -0.3174
 2749SOL    HW116764   1.005   2.242   1.209  2.4596  2.7467 -2.9316
 2749SOL    HW216765   1.162   2.211   1.242  0.6784 -1.2646  2.5664
 2750SOL     OW16766   4.616   2.475   1.362  0.1259  0.2742 -0.6433
 2750SOL    HW116767   4.662   2.406   1.417  0.3414  1.4220  0.6287
 2750SOL    HW216768   4.653   2.474   1.269 -1.0484 -2.4627 -1.1263
 2751SOL     OW16769   0.452   9.009   2.018  0.0579  0.6375 -0.4508
 2751SOL    HW116770   0.549   9.021   2.037  0.0686  0.3892 -0.3456
 2751SOL    HW216771   0.439   8.988   1.921  0.1059  0.7149 -0.4736
 2752SOL     OW16772   0.970   8.832   0.155 -0.3814  0.3681  0.3871
 2752SOL    HW116773   1.027   8.852   0.075  0.9870 -2.2320  0.6617
 2752SOL    HW216774   0.875   8.819   0.126  0.3653 -2.1508 -1.1143
 2753SOL     OW16775   1.380   1.393   1.152 -0.0067  0.4275  0.2473
 2753SOL    HW116776   1.463   1.359   1.108 -0.2454 -1.3325  1.1203
 2753SOL    HW216777   1.396   1.486   1.186  1.1262  0.6572 -0.8820
 2754SOL     OW16778   5.634   8.620   2.497  0.0035  0.3354  0.7217
 2754SOL    HW116779   5.714   8.650   2.549 -0.4966 -1.8101  2.8163
 2754SOL    HW216780   5.555   8.676   2.522  0.3845  1.1666  0.1104
 2755SOL     OW16781   2.357   8.178   0.472  0.2003  0.0776 -0.4269
 2755SOL    HW116782   2.349   8.277   0.459  0.8425  0.3853  1.3312
 2755SOL    HW216783   2.445   8.157   0.516 -0.4945 -1.1471  0.4201
 2756SOL     OW16784   8.416   5.953   2.082  0.1915  0.4785 -0.5846
 2756SOL    HW116785   8.360   6.034   2.099 -2.3340 -0.9220 -1.9300
 2756SOL    HW216786   8.384   5.878   2.140  0.0209 -0.6002 -2.0370
 2758SOL     OW16787   3.055   0.966   0.874  0.2523  0.6285 -0.8382
 2758SOL    HW116788   3.021   0.911   0.950 -0.4072  2.0254 -0.1035
 2758SOL    HW216789   2.989   0.964   0.799  0.7294 -0.4397 -1.2465
 2759SOL     OW16790   2.721   3.881   2.159 -0.2640  0.1796  0.4924
 2759SOL    HW116791   2.803   3.832   2.188 -0.3921 -0.9749 -0.9999
 2759SOL    HW216792   2.644   3.856   2.219 -0.9112 -3.4293 -1.6470
 2760SOL     OW16793   2.268   7.178   2.527  0.1263  0.4399 -0.1252
 2760SOL    HW116794   2.330   7.209   2.455  0.0440 -0.2204 -0.4764
 2760SOL    HW216795   2.315   7.181   2.615  0.8595 -0.6962 -0.4855
 2761SOL     OW16796   9.322   8.628   2.266 -0.0135  0.6522 -0.5910
 2761SOL    HW116797   9.374   8.694   2.320 -1.4695  0.9208  0.5102
 2761SOL    HW216798   9.302   8.547   2.322 -1.0045  0.6631 -0.9338
 2762SOL     OW16799   9.687   1.729   1.775  0.0426 -0.0628  0.5850
 2762SOL    HW116800   9.644   1.780   1.849 -0.5892  0.1251  0.0992
 2762SOL    HW216801   9.746   1.658   1.813 -0.2372  0.0623  1.2655
 2763SOL     OW16802   3.552   7.569   0.497 -0.0802 -0.0520  0.0090
 2763SOL    HW116803   3.596   7.537   0.581 -0.3559  0.3902  0.3268
 2763SOL    HW216804   3.456   7.542   0.498 -0.0552 -0.1448 -0.2170
 2764SOL     OW16805   1.301   1.813   1.872  0.0626  0.4879 -0.4067
 2764SOL    HW116806   1.333   1.799   1.779  2.0891  0.3140  0.2992
 2764SOL    HW216807   1.374   1.852   1.928 -1.1942  0.8153  1.0630
 2765SOL     OW16808   1.789   1.432   2.159 -0.0745  0.0927 -0.2715
 2765SOL    HW116809   1.812   1.482   2.075  0.9649 -0.0167 -0.0617
 2765SOL    HW216810   1.775   1.335   2.137  2.2631 -0.3274 -0.0181
 2767SOL     OW16811   7.833   8.949   2.020 -0.3661  0.0663  0.2193
 2767SOL    HW116812   7.838   9.010   1.941  2.1181 -2.1378 -1.4054
 2767SOL    HW216813   7.781   8.867   1.996  0.6877 -0.7719  0.7545
 2768SOL     OW16814   9.840   0.364   0.811  0.1923 -0.2271  0.2670
 2768SOL    HW116815   9.932   0.385   0.844  0.6785  0.9724 -1.7081
 2768SOL    HW216816   9.790   0.449   0.795 -0.0213 -0.7213 -1.9472
 2769SOL     OW16817   3.834   7.275   2.510 -0.1996 -0.1400  0.5724
 2769SOL    HW116818   3.813   7.321   2.596  0.0025  0.3571  0.3622
 2769SOL    HW216819   3.810   7.178   2.516 -0.2495 -0.0897  1.1603
 2771SOL     OW16820   8.960   7.180   0.933 -0.0974  0.1306 -0.3283
 2771SOL    HW116821   9.045   7.230   0.946  0.1882 -0.1357 -1.1137
 2771SOL    HW216822   8.895   7.204   1.004  0.6488  0.3108  0.2929
 2773SOL     OW16823   0.670   4.532   1.791 -0.0493 -0.1981  0.3585
 2773SOL    HW116824   0.618   4.590   1.854 -0.8211  0.8467 -1.2195
 2773SOL    HW216825   0.648   4.436   1.809 -1.9836  0.1857  0.2013
 2774SOL     OW16826   9.098   6.898   0.066  0.3368 -0.2903  0.4904
 2774SOL    HW116827   9.171   6.858   0.010 -0.7821 -0.0756 -1.1655
 2774SOL    HW216828   9.021   6.921   0.007 -0.8256  0.0569  2.1330
 2775SOL     OW16829   4.512   1.382   1.433  0.0816 -0.0194  0.5815
 2775SOL    HW116830   4.581   1.320   1.471 -0.6307 -0.2708  1.4877
 2775SOL    HW216831   4.421   1.346   1.454 -0.3280  0.6867  0.0173
 2776SOL     OW16832   4.636   2.583   1.947 -0.2059  0.0424  0.2468
 2776SOL    HW116833   4.615   2.532   2.030 -2.0901 -1.1059 -0.8978
 2776SOL    HW216834   4.611   2.529   1.867  1.2587  1.2705 -1.0822
 2778SOL     OW16835   2.469   0.177   1.680  0.2842 -0.3179  0.1860
 2778SOL    HW116836   2.536   0.249   1.701 -1.2615  0.9998  0.7226
 2778SOL    HW216837   2.379   0.207   1.709 -0.5695 -2.0280 -0.6595
 2779SOL     OW16838   2.439   4.676   1.101 -0.8065 -0.3395  0.3356
 2779SOL    HW116839   2.382   4.759   1.103  0.6590  0.6530  2.5789
 2779SOL    HW216840   2.453   4.648   1.006 -2.1904  1.3775 -0.4141
 2781SOL     OW16841   1.205   8.051   1.794  0.0631  0.8918 -0.5760
 2781SOL    HW116842   1.268   8.123   1.764  0.5241 -0.5295 -3.2479
 2781SOL    HW216843   1.246   8.002   1.871  1.7833  0.6896 -1.5785
 2782SOL     OW16844   7.695   8.724   2.646 -0.3317  0.4676 -0.4426
 2782SOL    HW116845   7.615   8.667   2.662 -0.4566  0.4851 -1.0179
 2782SOL    HW216846   7.767   8.699   2.712 -0.6695  0.1970 -0.1738
 2783SOL     OW16847   8.861   0.824   2.473  0.4985  0.0596 -0.0803
 2783SOL    HW116848   8.864   0.779   2.562  0.0811 -0.4349 -0.3130
 2783SOL    HW216849   8.856   0.923   2.486  2.0881  0.0845  0.4278
 2784SOL     OW16850   0.548   3.080   2.109  0.3129  0.0810  0.3853
 2784SOL    HW116851   0.549   3.078   2.009  0.9775 -0.4433  0.3965
 2784SOL    HW216852   0.481   3.014   2.143  0.1599  0.1869  0.2949
 2785SOL     OW16853   9.837   7.359   1.041  0.0302 -0.3192  0.0207
 2785SOL    HW116854   9.872   7.453   1.041  0.3750 -0.4409 -1.1114
 2785SOL    HW216855   9.777   7.346   1.120  1.6603  0.2160  1.3801
 2786SOL     OW16856   0.662   6.961   0.592 -0.0004  0.1575 -0.3798
 2786SOL    HW116857   0.591   7.010   0.541 -0.4381  1.8497  1.7765
 2786SOL    HW216858   0.621   6.919   0.673  1.1714 -0.2054  0.0275
 2787SOL     OW16859   7.336   1.627   0.761 -0.1378 -0.2102  0.0152
 2787SOL    HW116860   7.300   1.548   0.810  1.3464 -0.3926  0.8360
 2787SOL    HW216861   7.434   1.633   0.775  0.0576  0.7072 -1.5797
 2788SOL     OW16862   7.591   1.803   1.179  0.1210  0.1377  0.1575
 2788SOL    HW116863   7.619   1.879   1.121 -0.1275 -1.3289 -1.9491
 2788SOL    HW216864   7.587   1.719   1.124 -0.8768 -1.1442  2.1356
 2790SOL     OW16865   2.475   5.688   1.462 -0.6183  0.4719  0.3754
 2790SOL    HW116866   2.567   5.721   1.481  0.1127 -2.1421  1.5002
 2790SOL    HW216867   2.422   5.687   1.546 -0.9665 -0.1579  0.1541
 2791SOL     OW16868   0.376   7.019   1.691 -0.1273 -0.1748 -0.1942
 2791SOL    HW116869   0.472   7.048   1.688 -0.2569  0.2195 -0.5663
 2791SOL    HW216870   0.325   7.079   1.752 -0.1592 -0.3247 -0.0731
 2793SOL     OW16871   1.049   6.763   1.106 -0.0227 -0.3857  0.0840
 2793SOL    HW116872   0.979   6.775   1.036  0.4863  0.3056 -0.3102
 2793SOL    HW216873   1.009   6.781   1.196  0.1428  2.0894 -0.3010
 2794SOL     OW16874   4.744   1.991   2.140  0.0588  0.4008  0.3849
 2794SOL    HW116875   4.726   1.895   2.117 -1.9221  1.1607 -1.3884
 2794SOL    HW216876   4.836   2.015   2.109  0.0561 -0.5592 -0.4269
 2795SOL     OW16877   8.233   1.796   0.233 -0.2154  0.4675 -0.1709
 2795SOL    HW116878   8.150   1.849   0.217 -0.5121 -0.0954 -0.5286
 2795SOL    HW216879   8.267   1.815   0.325  0.6973  2.6396 -0.9251
 2796SOL     OW16880   9.703   2.544   2.190  0.1362 -0.6205 -0.6581
 2796SOL    HW116881   9.748   2.455   2.198  1.5100  0.0937 -0.3176
 2796SOL    HW216882   9.744   2.608   2.254 -1.7092 -0.0706  0.0131
 2797SOL     OW16883   1.074   7.818   1.553 -0.0305  0.6291  0.2598
 2797SOL    HW116884   1.099   7.881   1.481  1.4410 -2.6107 -2.1881
 2797SOL    HW216885   1.155   7.794   1.607  0.4399 -2.5781 -1.7218
 2798SOL     OW16886   7.718   3.227   0.523 -0.0097  0.0009 -0.2523
 2798SOL    HW116887   7.730   3.317   0.479 -0.5709  2.1409  3.7547
 2798SOL    HW216888   7.799   3.206   0.578 -1.3474 -0.2390  1.6762
 2799SOL     OW16889   0.522   8.591   1.390 -0.4168 -0.4562 -0.1237
 2799SOL    HW116890   0.507   8.687   1.365  0.4529 -0.9277 -2.6043
 2799SOL    HW216891   0.619   8.570   1.384 -0.4475 -1.1938  1.6387
 2803SOL     OW16892   7.393   9.719   2.575 -0.2627 -0.1944 -0.4806
 2803SOL    HW116893   7.416   9.814   2.557 -2.2874  0.4660  0.3200
 2803SOL    HW216894   7.330   9.713   2.652 -0.0372 -2.2031 -0.4036
 2805SOL     OW16895   9.001   3.241   1.402  0.1043 -0.0261 -0.1075
 2805SOL    HW116896   8.906   3.254   1.376  0.3151 -0.1557 -0.9500
 2805SOL    HW216897   9.051   3.327   1.392  0.7567 -0.6417 -2.5799
 2806SOL     OW16898   0.241   1.679   2.282  0.1868 -0.3417  0.3217
 2806SOL    HW116899   0.181   1.697   2.204  1.3063  0.6088 -0.3442
 2806SOL    HW216900   0.309   1.752   2.288  1.8767 -1.9149  0.4679
 2807SOL     OW16901   8.699   5.325   1.324  0.2851  0.0139  0.3154
 2807SOL    HW116902   8.678   5.256   1.393 -0.7811  1.3832  1.3961
 2807SOL    HW216903   8.676   5.416   1.359 -0.3728  0.7327 -1.8812
 2808SOL     OW16904   3.364   9.468   1.764 -0.0420 -0.0772  0.2269
 2808SOL    HW116905   3.375   9.369   1.765  1.0117  0.0194 -0.6983
 2808SOL    HW216906   3.302   9.494   1.690  1.0913  0.0761 -0.6798
 2809SOL     OW16907   8.294   7.586   1.821  0.9684 -0.1954  0.5898
 2809SOL    HW116908   8.285   7.490   1.795 -0.4840 -0.4076  1.8269
 2809SOL    HW216909   8.387   7.602   1.856  1.4354 -0.9759 -0.2806
 2810SOL     OW16910   0.528   2.086   2.440  0.3930 -0.1325  0.0661
 2810SOL    HW116911   0.593   2.122   2.507  0.4244  1.5817 -0.8480
 2810SOL    HW216912   0.441   2.066   2.485 -0.5664  3.8232  0.1357
 2811SOL     OW16913   4.789   1.458   1.663 -0.2044  0.1603  0.1514
 2811SOL    HW116914   4.759   1.398   1.589  1.1663  0.8574 -0.9829
 2811SOL    HW216915   4.794   1.552   1.630 -1.1998  0.7454  1.6025
 2812SOL     OW16916   3.044   0.680   1.718 -0.1349  0.2055 -0.5576
 2812SOL    HW116917   3.113   0.678   1.645 -0.4785  0.0374 -0.8782
 2812SOL    HW216918   3.043   0.771   1.759  2.1018 -0.5190  1.2113
 2813SOL     OW16919   9.530   7.275   0.213 -0.0326 -0.3087  0.0876
 2813SOL    HW116920   9.552   7.197   0.272 -0.4828  1.1729  2.2615
 2813SOL    HW216921   9.431   7.291   0.214  0.0514  0.2468 -0.3938
 2814SOL     OW16922   0.721   7.366   1.710  0.1129  0.5913  0.4721
 2814SOL    HW116923   0.688   7.293   1.650  1.7394  0.0949  0.1605
 2814SOL    HW216924   0.782   7.427   1.659  0.6147  0.8147  1.3166
 2815SOL     OW16925   1.602   8.662   1.566  0.5284  0.1054 -0.4920
 2815SOL    HW116926   1.605   8.562   1.576  0.2729  0.1342 -0.1433
 2815SOL    HW216927   1.666   8.689   1.494  2.7750 -0.0500  1.4017
 2816SOL     OW16928   0.997   1.739   2.267  0.1794 -0.0425  0.1593
 2816SOL    HW116929   1.072   1.792   2.306 -0.6838  0.7101  0.8499
 2816SOL    HW216930   0.934   1.801   2.219 -0.5539 -0.5038  0.5019
 2817SOL     OW16931   3.969   8.032   2.414 -0.2040 -0.3331 -0.0235
 2817SOL    HW116932   3.969   7.984   2.326 -1.7371 -0.3715 -0.0005
 2817SOL    HW216933   4.050   8.091   2.419  1.2868 -2.2521 -0.3992
 2818SOL     OW16934   8.299   7.847   1.671 -0.0798 -0.5618  0.1647
 2818SOL    HW116935   8.312   7.754   1.706 -0.5256 -0.2248  1.2225
 2818SOL    HW216936   8.298   7.912   1.747 -0.7251  0.2135 -0.4989
 2819SOL     OW16937   3.132   1.652   1.293  0.5578 -0.2003 -0.1421
 2819SOL    HW116938   3.221   1.665   1.250  0.7736 -2.0284 -0.2894
 2819SOL    HW216939   3.085   1.575   1.250 -1.3485  1.1032 -0.4624
 2820SOL     OW16940   2.346   3.899   1.105 -0.5617  0.4137 -0.4571
 2820SOL    HW116941   2.264   3.929   1.056 -0.6060  0.0628 -0.5959
 2820SOL    HW216942   2.356   3.800   1.097 -1.2841  0.1765  1.3179
 2821SOL     OW16943   9.799   9.197   1.621  0.1414 -0.5047  0.3167
 2821SOL    HW116944   9.788   9.126   1.550 -1.5655  0.3949 -0.3564
 2821SOL    HW216945   9.712   9.208   1.669  0.2390  1.5024  0.0506
 2822SOL     OW16946   9.876   9.014   2.416 -0.0965 -0.0793 -0.2354
 2822SOL    HW116947   9.844   9.072   2.490  1.1208  0.1671  0.1113
 2822SOL    HW216948   9.801   8.998   2.351 -0.2068  2.6185 -0.8241
 2823SOL     OW16949   4.252   4.143   2.341 -0.3127  0.1071 -0.8481
 2823SOL    HW116950   4.217   4.227   2.302  1.6857  0.5381 -1.7834
 2823SOL    HW216951   4.234   4.067   2.279  0.9827  0.4441 -1.6607
 2824SOL     OW16952   0.232   2.785   0.411 -0.3294  0.3920 -0.1440
 2824SOL    HW116953   0.188   2.862   0.458 -1.0676 -0.0950 -0.0350
 2824SOL    HW216954   0.243   2.806   0.314 -0.9649  0.4453 -0.2048
 2825SOL     OW16955   7.707   1.474   2.032  0.4249 -0.3569  0.1888
 2825SOL    HW116956   7.673   1.385   1.999  1.4423  0.7686 -4.2694
 2825SOL    HW216957   7.651   1.547   1.994  2.9267  1.1443 -0.7277
 2826SOL     OW16958   9.138   3.192   2.358 -0.4104  0.1486  0.3344
 2826SOL    HW116959   9.232   3.166   2.378 -0.6403 -0.3376  0.8145
 2826SOL    HW216960   9.101   3.134   2.285 -0.4909  0.0071  0.4852
 2827SOL     OW16961   8.745   8.465   2.458 -0.1085 -0.2692 -0.1189
 2827SOL    HW116962   8.800   8.546   2.434  1.4621 -1.4497 -0.5772
 2827SOL    HW216963   8.749   8.399   2.384 -0.8561 -1.0562  0.5385
 2828SOL     OW16964   1.868   1.872   0.566 -0.3761  0.2730  0.7882
 2828SOL    HW116965   1.840   1.784   0.527 -1.1738 -0.2595  2.5031
 2828SOL    HW216966   1.910   1.857   0.656  0.0444  1.5947  0.8245
 2830SOL     OW16967   3.120   6.817   1.094  0.1318  0.1021 -0.1699
 2830SOL    HW116968   3.196   6.753   1.104 -1.2924 -1.2172  3.0155
 2830SOL    HW216969   3.147   6.907   1.128  0.2557 -0.4102  1.1216
 2831SOL     OW16970   0.762   7.139   1.478  0.6615 -0.3435 -0.6167
 2831SOL    HW116971   0.832   7.159   1.545 -1.2803  0.3608  1.2719
 2831SOL    HW216972   0.794   7.165   1.387  2.4105  0.9664  0.3436
 2832SOL     OW16973   0.379   1.960   2.172  0.0774  0.1124 -0.0188
 2832SOL    HW116974   0.405   2.048   2.211  1.2940 -0.2384 -0.0112
 2832SOL    HW216975   0.402   1.959   2.075  1.1693 -0.6080  0.2319
 2833SOL     OW16976   3.031   7.297   0.240  0.5627 -0.0372  0.2651
 2833SOL    HW116977   3.116   7.244   0.234  1.8950  1.7970  2.1627
 2833SOL    HW216978   2.985   7.296   0.151  2.3577 -1.3789 -0.6982
 2834SOL     OW16979   9.531   3.750   0.102 -0.3166  0.1571 -0.3117
 2834SOL    HW116980   9.619   3.794   0.087  0.0420 -0.3100  0.4171
 2834SOL    HW216981   9.541   3.651   0.099 -0.8313  0.1010 -0.3163
 2835SOL     OW16982   0.950   2.680   2.224  0.2782 -0.5802  0.4507
 2835SOL    HW116983   0.881   2.616   2.258  0.9297 -1.7517 -0.3732
 2835SOL    HW216984   1.039   2.659   2.266  0.4711 -0.1394  0.2680
 2836SOL     OW16985   1.073   4.271   1.654  0.4585 -0.1830  0.3648
 2836SOL    HW116986   1.048   4.360   1.693 -0.7923  0.3166 -1.5178
 2836SOL    HW216987   1.091   4.282   1.557 -0.0157 -2.0674  0.0557
 2838SOL     OW16988   8.628   3.432   1.962 -0.5432 -0.0090  0.6211
 2838SOL    HW116989   8.681   3.515   1.948  0.2129 -0.3052  1.6044
 2838SOL    HW216990   8.611   3.387   1.874 -0.2018  0.7238  0.1834
 2839SOL     OW16991   8.825   9.076   2.545 -0.3242  0.2506  0.5123
 2839SOL    HW116992   8.838   9.143   2.618 -1.0896  0.9434  0.0198
 2839SOL    HW216993   8.882   8.996   2.563 -0.8484  0.2106  2.1172
 2841SOL     OW16994   9.307   7.483   2.057 -0.0726  0.0273  0.7314
 2841SOL    HW116995   9.241   7.504   2.128 -0.0770 -0.5621  0.9088
 2841SOL    HW216996   9.396   7.521   2.082 -0.4138  1.1018  0.3349
 2842SOL     OW16997   9.674   8.365   2.075  0.2837 -0.0942  0.0244
 2842SOL    HW116998   9.694   8.387   2.170  2.5138  0.2570 -0.5101
 2842SOL    HW216999   9.757   8.332   2.030 -1.3222 -2.7711 -1.1305
 2843SOL     OW17000   2.304   2.501   0.556 -0.6871  0.1035  0.9600
 2843SOL    HW117001   2.372   2.461   0.618  0.0212 -0.2393 -0.0325
 2843SOL    HW217002   2.243   2.429   0.524  0.0139 -0.0206 -0.0965
 2844SOL     OW17003   7.989   0.116   2.307 -0.4959 -0.0611  0.2358
 2844SOL    HW117004   8.070   0.140   2.360 -0.0341 -2.5027  0.6870
 2844SOL    HW217005   7.909   0.115   2.367 -0.5691  0.6167  0.1531
 2845SOL     OW17006   9.296   2.796   0.226 -0.2294 -0.1545 -0.3087
 2845SOL    HW117007   9.293   2.803   0.127  1.2864 -1.1602 -0.4391
 2845SOL    HW217008   9.385   2.761   0.255 -0.3357  0.9396  1.4575
 2846SOL     OW17009   3.888   4.614   1.814 -0.5156  0.2137  0.0432
 2846SOL    HW117010   3.812   4.575   1.762  0.4643 -0.7344 -0.6863
 2846SOL    HW217011   3.930   4.688   1.761  2.2103 -2.5471 -1.7417
 2847SOL     OW17012   1.697   8.276   2.248 -0.0372  0.6923  0.4123
 2847SOL    HW117013   1.598   8.262   2.241  0.1326  0.1470 -1.0147
 2847SOL    HW217014   1.718   8.373   2.242 -0.2895  0.6222 -2.0451
 2848SOL     OW17015   3.201   0.298   1.066  0.1222 -0.1015  0.2995
 2848SOL    HW117016   3.244   0.257   1.147  2.1304  1.2581 -0.0581
 2848SOL    HW217017   3.245   0.262   0.983 -1.8215 -1.3707 -0.2390
 2849SOL     OW17018   2.417   9.001   1.192  0.1945 -0.0533  0.0982
 2849SOL    HW117019   2.360   8.927   1.156  0.4473 -0.6590  0.9299
 2849SOL    HW217020   2.410   9.004   1.292 -1.5324  2.4743 -0.0744
 2852SOL     OW17021   3.305   5.285   0.284 -0.4191 -0.6905 -0.5679
 2852SOL    HW117022   3.301   5.354   0.211 -1.0593 -0.0248  0.0911
 2852SOL    HW217023   3.314   5.331   0.372  1.2460 -1.5164 -0.2885
 2853SOL     OW17024   2.051   3.031   0.321  0.0683  0.0174 -0.1108
 2853SOL    HW117025   2.065   3.020   0.223 -0.9739 -3.3313  0.0543
 2853SOL    HW217026   1.953   3.046   0.338  0.3212  1.1345  0.3921
 2854SOL     OW17027   3.012   6.276   2.473 -0.3221  0.1937 -0.3347
 2854SOL    HW117028   3.074   6.338   2.522  0.6858 -0.0924 -1.2380
 2854SOL    HW217029   3.043   6.266   2.378 -0.9675 -1.0378 -0.4196
 2855SOL     OW17030   8.424   4.264   2.523  0.1349 -0.2798  0.1228
 2855SOL    HW117031   8.344   4.214   2.555 -0.4755  1.1088  0.8272
 2855SOL    HW217032   8.482   4.204   2.469 -2.0286 -0.9555 -1.4943
 2856SOL     OW17033   0.811   5.383   0.653  0.1339  0.3194  0.0690
 2856SOL    HW117034   0.870   5.303   0.642  1.7072  1.1672  2.1352
 2856SOL    HW217035   0.854   5.462   0.608  0.2731  0.7952  1.0357
 2858SOL     OW17036   2.188   7.741   2.039 -0.2068 -0.0788  0.4471
 2858SOL    HW117037   2.198   7.814   2.107 -0.1781  0.7887 -0.4759
 2858SOL    HW217038   2.275   7.694   2.026 -0.3232 -0.5528  1.3419
 2859SOL     OW17039   1.361   4.163   0.089 -0.0830 -0.0578 -0.1564
 2859SOL    HW117040   1.387   4.117   0.004 -2.3219 -2.4731  0.3686
 2859SOL    HW217041   1.261   4.173   0.092  0.1424  1.9653  1.2158
 2861SOL     OW17042   2.806   0.973   2.014 -0.2037  0.3964 -0.4972
 2861SOL    HW117043   2.728   0.917   2.044  0.0679  0.5442  0.5319
 2861SOL    HW217044   2.834   1.032   2.090  2.3554 -1.2901 -0.0588
 2862SOL     OW17045   8.284   6.877   2.005 -0.5289 -0.0645 -0.1615
 2862SOL    HW117046   8.288   6.882   1.905 -1.0616 -2.2331 -0.3153
 2862SOL    HW217047   8.371   6.909   2.043  1.2422 -3.0589 -1.5000
 2863SOL     OW17048   0.539   0.906   0.220  0.0780  0.4566 -0.1527
 2863SOL    HW117049   0.558   1.002   0.239  0.4315  0.5247 -0.8661
 2863SOL    HW217050   0.617   0.864   0.173 -0.6353  0.1775 -1.1021
 2864SOL     OW17051   0.450   0.902   0.492  0.2009 -0.2350  1.0067
 2864SOL    HW117052   0.489   0.994   0.501 -0.5047  0.0639  1.0218
 2864SOL    HW217053   0.474   0.865   0.402  0.7740 -0.1776  1.1313
 2865SOL     OW17054   2.130   9.781   0.855 -0.4514  0.6121 -0.5702
 2865SOL    HW117055   2.129   9.691   0.813 -0.8248  1.3554 -2.2258
 2865SOL    HW217056   2.185   9.843   0.799  1.4462  0.9455  1.5996
 2866SOL     OW17057   3.694   0.789   1.604  0.1635  0.0791 -0.3301
 2866SOL    HW117058   3.666   0.786   1.700  0.9339 -0.9428 -0.1317
 2866SOL    HW217059   3.618   0.825   1.549  0.8023  3.7358  1.0366
 2867SOL     OW17060   4.215   1.220   1.106  0.4942  0.4343  0.3196
 2867SOL    HW117061   4.186   1.272   1.025 -0.8572  1.2259  1.2720
 2867SOL    HW217062   4.133   1.192   1.157  1.2700 -1.6170  0.4551
 2869SOL     OW17063   2.300   8.146   2.175 -1.1243  0.2067  0.3672
 2869SOL    HW117064   2.331   8.200   2.097 -0.7976 -0.0905  0.2907
 2869SOL    HW217065   2.285   8.206   2.253  0.2179  0.2693  0.5819
 2870SOL     OW17066   9.132   9.276   0.143  0.2953  0.1215  0.6610
 2870SOL    HW117067   9.040   9.254   0.110  1.0664  2.2318 -3.1541
 2870SOL    HW217068   9.190   9.195   0.136 -1.0746 -1.0636  2.5595
 2871SOL     OW17069   8.675   5.627   1.391 -0.6117 -0.2356  0.1988
 2871SOL    HW117070   8.728   5.625   1.476 -0.5685 -2.3266  0.1428
 2871SOL    HW217071   8.587   5.671   1.408  0.4479  1.7334  0.6926
 2872SOL     OW17072   1.919   6.038   0.653  0.2039  0.2446  0.1136
 2872SOL    HW117073   1.840   6.099   0.657 -0.0240  0.0390 -1.3069
 2872SOL    HW217074   2.003   6.092   0.660  0.0241  0.8191 -1.8646
 2873SOL     OW17075   4.538   0.061   1.777 -0.5647 -0.4101  0.3682
 2873SOL    HW117076   4.597   0.039   1.700  0.2813 -1.7352  1.3569
 2873SOL    HW217077   4.501   0.153   1.767  2.6392  0.9270  0.3114
 2874SOL     OW17078   7.793   9.880   0.784 -0.2309  0.0903 -0.1145
 2874SOL    HW117079   7.878   9.884   0.731  0.8808 -1.4821  1.4866
 2874SOL    HW217080   7.809   9.921   0.874 -1.0384 -0.6185  0.3576
 2875SOL     OW17081   3.323   8.584   0.435 -0.3339 -0.5596 -0.5174
 2875SOL    HW117082   3.320   8.582   0.335 -3.5452 -1.2050 -0.4422
 2875SOL    HW217083   3.297   8.675   0.467 -0.7583 -0.7888 -0.2193
 2876SOL     OW17084   1.917   0.569   0.847 -0.1900 -0.3000 -0.0531
 2876SOL    HW117085   1.902   0.569   0.946 -0.1083 -2.5905 -0.0152
 2876SOL    HW217086   1.838   0.528   0.801 -0.0850  0.4389 -0.9197
 2877SOL     OW17087   4.497   7.181   0.328 -0.2153  0.2531 -0.0073
 2877SOL    HW117088   4.431   7.255   0.315 -0.5123 -0.3346 -1.9369
 2877SOL    HW217089   4.466   7.121   0.402 -1.0391  0.8570  0.1422
 2878SOL     OW17090   1.775   9.039   2.039  0.0943  0.0595  0.1415
 2878SOL    HW117091   1.779   8.943   2.066  0.5740 -0.2732 -1.0419
 2878SOL    HW217092   1.726   9.046   1.951 -2.0509  1.1639  1.3839
 2880SOL     OW17093   4.556   4.282   0.679  0.0174  0.0545  0.3220
 2880SOL    HW117094   4.581   4.205   0.621  1.7770  1.3345 -0.6650
 2880SOL    HW217095   4.504   4.349   0.627 -0.6263  0.0209  0.9080
 2881SOL     OW17096   1.839   5.963   1.968 -0.2974 -0.1561 -0.1420
 2881SOL    HW117097   1.758   5.909   1.945 -1.2685  0.5523  1.5466
 2881SOL    HW217098   1.920   5.903   1.970 -0.9115 -1.0218 -1.0000
 2882SOL     OW17099   1.078   2.303   0.018  0.3277  0.2402  0.0205
 2882SOL    HW117100   1.163   2.282  -0.030  0.1271  0.0917 -0.2724
 2882SOL    HW217101   1.072   2.402   0.034  0.2233  0.3372 -0.5925
 2883SOL     OW17102   2.796   0.385   0.078  0.1116  0.3080  0.2189
 2883SOL    HW117103   2.753   0.341   0.157  1.2173 -1.0747  0.0736
 2883SOL    HW217104   2.867   0.448   0.109 -0.3425  0.7426  0.3733
 2884SOL     OW17105   9.184   1.716   0.626 -0.5985  0.1701  0.4542
 2884SOL    HW117106   9.196   1.656   0.547 -1.9744 -0.7031  0.8875
 2884SOL    HW217107   9.223   1.806   0.606  0.0473 -0.3740 -0.8011
 2885SOL     OW17108   0.043   9.862   1.370  0.3261  0.4860 -0.0446
 2885SOL    HW117109   0.118   9.806   1.405  0.3975  0.3454 -0.4167
 2885SOL    HW217110   0.060   9.885   1.274  0.5867  1.6440  0.2722
 2888SOL     OW17111   2.650   7.511   1.916 -0.1271  0.4805 -0.3824
 2888SOL    HW117112   2.717   7.478   1.982  0.0121  1.9178  0.2043
 2888SOL    HW217113   2.574   7.446   1.911  0.6879 -0.5135 -0.1103
 2889SOL     OW17114   8.988   5.953   1.295  0.3613  0.0859  0.5837
 2889SOL    HW117115   8.952   5.981   1.206  0.4012  0.5444  0.7082
 2889SOL    HW217116   9.072   5.901   1.283  0.1366 -0.2182  0.3332
 2890SOL     OW17117   0.777   7.497   1.950 -0.2296  0.3743  0.7864
 2890SOL    HW117118   0.775   7.430   1.876 -0.0649  1.0733  0.1312
 2890SOL    HW217119   0.751   7.454   2.036 -1.2499 -0.2552  0.1696
 2891SOL     OW17120   8.409   0.113   1.776  0.5096  0.5538 -0.4125
 2891SOL    HW117121   8.503   0.137   1.802  0.1234  1.2993  0.3220
 2891SOL    HW217122   8.365   0.192   1.733  0.3151  0.1092 -1.0282
 2892SOL     OW17123   9.759   9.965   0.970  0.3810  0.1814  0.6622
 2892SOL    HW117124   9.707   9.980   0.885 -0.8627 -0.4636  1.2963
 2892SOL    HW217125   9.737   9.875   1.007  1.7398  0.0246  1.1102
 2894SOL     OW17126   2.870   7.314   2.448  0.4480 -0.4930  0.2968
 2894SOL    HW117127   2.854   7.236   2.388 -0.5420 -1.5803  1.9440
 2894SOL    HW217128   2.899   7.282   2.538  1.9352  1.1219  0.4193
 2895SOL     OW17129   7.145   9.329   1.529 -0.1641  0.0470 -0.4818
 2895SOL    HW117130   7.132   9.356   1.434 -0.7064  1.3465 -0.0368
 2895SOL    HW217131   7.058   9.335   1.578  0.1469 -0.4583  0.1386
 2897SOL     OW17132   2.711   8.161   2.168  0.1750  0.2036  0.0287
 2897SOL    HW117133   2.667   8.243   2.205  0.8063 -0.0112  1.2937
 2897SOL    HW217134   2.721   8.093   2.241  1.8880 -0.0428 -0.4237
 2898SOL     OW17135   8.354   7.366   0.218 -0.7201 -0.4450  0.2738
 2898SOL    HW117136   8.263   7.388   0.253 -0.5563  0.2637  0.2554
 2898SOL    HW217137   8.346   7.293   0.150 -1.4431  0.4902 -0.6680
 2899SOL     OW17138   9.457   5.189   2.073 -0.3615  0.1299  0.3820
 2899SOL    HW117139   9.394   5.252   2.119 -0.8237  0.0345 -0.1091
 2899SOL    HW217140   9.505   5.239   2.000  0.7800  0.4232  1.3220
 2900SOL     OW17141   3.422   0.035   0.626 -0.4590 -0.4555 -0.2431
 2900SOL    HW117142   3.472  -0.050   0.640 -1.1377 -0.7940  0.1627
 2900SOL    HW217143   3.464   0.086   0.551 -0.6935 -1.6499 -1.2151
 2901SOL     OW17144   7.232   9.559   0.696  0.4682 -0.4120  0.4537
 2901SOL    HW117145   7.136   9.571   0.672  0.8870 -0.5163 -1.3412
 2901SOL    HW217146   7.289   9.622   0.643  1.3990 -0.3672  1.4772
 2902SOL     OW17147   0.079   7.312   1.530 -0.2500  0.1185 -0.2272
 2902SOL    HW117148   0.032   7.258   1.460 -0.9237  0.6866 -0.2192
 2902SOL    HW217149   0.062   7.271   1.620  1.5950 -1.3065 -0.4887
 2903SOL     OW17150   4.651   9.085   2.404  0.2348 -0.3400  0.1554
 2903SOL    HW117151   4.658   9.143   2.485  0.6745  1.1248 -0.9160
 2903SOL    HW217152   4.737   9.087   2.354 -0.6923  0.4435 -1.4669
 2904SOL     OW17153   1.400   7.578   0.268  0.6400 -0.3358 -0.2452
 2904SOL    HW117154   1.355   7.663   0.241 -0.4349 -1.5824 -2.5186
 2904SOL    HW217155   1.496   7.581   0.240  0.1014 -0.6711 -2.2631
 2905SOL     OW17156   4.291   4.631   0.737  0.1871  0.1605 -0.1686
 2905SOL    HW117157   4.253   4.682   0.660  0.3449 -1.2438 -1.2089
 2905SOL    HW217158   4.378   4.589   0.710  0.3155 -0.2345  0.8174
 2906SOL     OW17159   0.145   9.147   1.326 -0.3317 -0.0343  0.7756
 2906SOL    HW117160   0.057   9.110   1.296  0.3737 -0.4182 -0.8364
 2906SOL    HW217161   0.214   9.074   1.327  0.4669  0.6906 -0.0067
 2907SOL     OW17162   3.364   4.014   2.552  0.2698 -0.1175 -0.6530
 2907SOL    HW117163   3.274   3.982   2.525 -0.0659 -1.0694  1.4951
 2907SOL    HW217164   3.386   4.099   2.504 -1.6778  0.0048 -1.3368
 2908SOL     OW17165   0.111   1.087   1.754  0.6740  0.7590 -0.5954
 2908SOL    HW117166   0.165   1.169   1.773  0.5143  0.2688  2.1881
 2908SOL    HW217167   0.014   1.110   1.756  0.5775  0.2338  1.7253
 2909SOL     OW17168   4.752   9.688   1.070 -0.2263 -0.1527  0.2740
 2909SOL    HW117169   4.740   9.667   1.167  0.2520  1.8083  0.7658
 2909SOL    HW217170   4.687   9.759   1.043  1.1241  0.8843 -0.2999
 2910SOL     OW17171   9.156   9.591   2.188 -0.1214 -0.4677  0.3338
 2910SOL    HW117172   9.103   9.519   2.232 -2.2905  1.1349  0.4135
 2910SOL    HW217173   9.235   9.614   2.245 -0.3392 -1.5997  1.1101
 2911SOL     OW17174   4.723   0.017   2.345 -0.1927 -0.6666  0.1445
 2911SOL    HW117175   4.769   0.031   2.257  2.2101 -1.9002  1.1854
 2911SOL    HW217176   4.631  -0.018   2.328 -0.7323  1.5683 -1.9459
 2913SOL     OW17177   1.952   3.604   0.688  0.1828  0.1372  0.3956
 2913SOL    HW117178   2.026   3.539   0.675  0.2067  0.6446 -2.4221
 2913SOL    HW217179   1.914   3.629   0.599 -2.8683  0.4844  1.7058
 2914SOL     OW17180   9.671   7.009   0.820 -0.5800  0.3684 -0.5410
 2914SOL    HW117181   9.711   7.100   0.833 -1.8430  1.2982 -2.7988
 2914SOL    HW217182   9.710   6.967   0.739 -1.2854 -0.3646 -0.5069
 2917SOL     OW17183   3.254   8.084   1.729 -0.0443  0.1558 -0.0744
 2917SOL    HW117184   3.307   8.043   1.804  1.2476 -3.0640 -2.6288
 2917SOL    HW217185   3.164   8.041   1.724  0.2628 -0.3898 -1.0004
 2918SOL     OW17186   7.987   1.326   1.059  0.2655 -0.5546 -0.0513
 2918SOL    HW117187   7.894   1.289   1.055  0.2878 -0.4789 -2.2001
 2918SOL    HW217188   8.030   1.316   0.969  1.5101  1.5348  0.2854
 2921SOL     OW17189   4.173   1.595   2.465  0.3730 -0.4065 -0.1515
 2921SOL    HW117190   4.244   1.624   2.401  0.2368 -0.2573 -0.2319
 2921SOL    HW217191   4.184   1.644   2.551  0.7623 -0.8472  0.0568
 2922SOL     OW17192   0.278   3.066   1.808  0.3120  0.5965  0.0546
 2922SOL    HW117193   0.314   2.975   1.829 -0.0737 -0.2050 -2.6008
 2922SOL    HW217194   0.178   3.066   1.819  0.3649  0.8869  0.5975
 2923SOL     OW17195   1.826   6.736   0.428 -0.1659 -0.6514  0.3512
 2923SOL    HW117196   1.909   6.718   0.480 -0.4552 -0.6828  0.8081
 2923SOL    HW217197   1.761   6.661   0.442 -0.2774 -0.6156  0.0188
 2925SOL     OW17198   0.024   7.563   0.084 -0.2951 -0.0735 -0.4658
 2925SOL    HW117199  -0.061   7.522   0.116  0.6941 -2.0840 -0.3266
 2925SOL    HW217200   0.102   7.519   0.130  0.7972  2.4398  0.1920
 2926SOL     OW17201   3.933   4.181   2.357 -0.1068 -0.1141  0.4282
 2926SOL    HW117202   4.001   4.248   2.327  0.2211 -0.6607 -0.0661
 2926SOL    HW217203   3.904   4.126   2.279 -0.9239 -0.0644  0.6912
 2927SOL     OW17204   0.428   9.378   1.956 -0.5690  0.3132 -0.2535
 2927SOL    HW117205   0.426   9.468   1.999  0.3118  0.7036 -1.0197
 2927SOL    HW217206   0.370   9.316   2.008 -1.9993  1.5769 -0.3040
 2928SOL     OW17207   9.405   3.135   1.905 -0.2547 -0.0781  0.0737
 2928SOL    HW117208   9.348   3.181   1.973  0.0412 -1.0358  0.9781
 2928SOL    HW217209   9.376   3.040   1.896  0.8284 -0.4203  0.1281
 2929SOL     OW17210   3.338   0.661   1.177  0.2296 -0.7046 -0.2500
 2929SOL    HW117211   3.243   0.628   1.179  0.6003 -1.8074 -0.2594
 2929SOL    HW217212   3.391   0.612   1.246  0.4500  1.0452  0.8532
 2930SOL     OW17213   1.539   3.940   1.627  0.5188 -0.0228 -0.2455
 2930SOL    HW117214   1.592   3.969   1.706 -0.1294 -2.0077  0.9554
 2930SOL    HW217215   1.576   3.854   1.592 -0.5243 -0.2622 -0.7877
 2931SOL     OW17216   0.058   1.456   1.395 -0.2064 -0.1827  0.4936
 2931SOL    HW117217   0.158   1.449   1.389 -0.1077  0.6876  1.2182
 2931SOL    HW217218   0.018   1.371   1.361  0.8022 -0.8774  1.0128
 2932SOL     OW17219   9.021   8.224   1.055 -0.0392 -0.3220  0.4069
 2932SOL    HW117220   8.945   8.220   0.991  2.3248 -1.3598 -2.4302
 2932SOL    HW217221   9.033   8.319   1.086  0.2009  0.6492 -2.5175
 2933SOL     OW17222   9.914   2.049   0.465 -0.4475  0.1885 -0.2607
 2933SOL    HW117223   9.986   2.009   0.521 -0.1491  0.6807 -0.2876
 2933SOL    HW217224   9.833   1.990   0.468  0.5917 -1.3525 -1.7755
 2935SOL     OW17225   3.072   0.485   1.897 -0.0727 -0.5262 -0.1147
 2935SOL    HW117226   3.066   0.550   1.821 -0.7870 -0.8440 -0.3256
 2935SOL    HW217227   3.123   0.404   1.868 -0.3688 -0.6597 -0.2664
 2936SOL     OW17228   0.464   7.441   2.202 -0.5335  0.3518  0.4201
 2936SOL    HW117229   0.435   7.354   2.161  0.5889 -0.1454  0.6385
 2936SOL    HW217230   0.430   7.517   2.148  0.1366 -0.2773 -0.9035
 2937SOL     OW17231   1.001   6.885   1.960 -0.1931 -0.8724 -0.2554
 2937SOL    HW117232   1.071   6.853   1.895  0.7506  0.2045  0.1986
 2937SOL    HW217233   1.045   6.909   2.046 -1.0110  0.5568 -0.2171
 2938SOL     OW17234   0.845   8.893   1.781  0.8103 -0.2646 -0.1882
 2938SOL    HW117235   0.795   8.889   1.867  1.3750 -1.2729  0.0934
 2938SOL    HW217236   0.864   8.800   1.749  1.6669  0.1096 -0.7834
 2939SOL     OW17237   0.620   1.856   2.619 -0.1671  0.0345 -0.0525
 2939SOL    HW117238   0.641   1.944   2.662 -0.0256  0.0589 -0.1720
 2939SOL    HW217239   0.627   1.865   2.520 -2.7680  0.5853 -0.2197
 2941SOL     OW17240   8.412   3.120   1.034 -0.2837 -0.2381  0.3826
 2941SOL    HW117241   8.508   3.148   1.041  0.6720 -3.3605  0.3720
 2941SOL    HW217242   8.362   3.188   0.981  1.9035  1.4687  0.4176
 2942SOL     OW17243   8.316   9.912   1.601 -0.1348  0.3855  0.8740
 2942SOL    HW117244   8.360   9.968   1.672  1.1798  0.0672  0.3157
 2942SOL    HW217245   8.349   9.818   1.607  0.4540  0.4891 -0.5397
 2943SOL     OW17246   8.121   6.047   1.216  0.2908 -0.0056 -0.8078
 2943SOL    HW117247   8.190   6.005   1.157  1.0510  1.2326 -0.8312
 2943SOL    HW217248   8.165   6.118   1.272 -0.6838 -0.2217  0.2544
 2944SOL     OW17249   1.764   5.907   2.430 -0.1392 -0.2957  0.0435
 2944SOL    HW117250   1.821   5.937   2.353  0.4700  0.0142  0.6140
 2944SOL    HW217251   1.819   5.903   2.513 -0.5034 -1.8321  0.2237
 2945SOL     OW17252   0.052   7.700   0.461  0.2530  0.6299 -0.0434
 2945SOL    HW117253   0.073   7.746   0.547 -0.4483  1.7129 -0.4539
 2945SOL    HW217254  -0.009   7.756   0.407  0.3172 -0.2652 -1.0551
 2946SOL     OW17255   0.652   0.160   2.645 -0.1129 -0.1268 -0.1178
 2946SOL    HW117256   0.746   0.190   2.660 -0.3552 -0.0920  1.4168
 2946SOL    HW217257   0.590   0.237   2.656 -0.4480 -0.4680  0.4245
 2947SOL     OW17258   8.662   7.443   2.139 -0.6747  0.4732 -0.8926
 2947SOL    HW117259   8.712   7.529   2.146 -0.8332  0.6844 -2.2024
 2947SOL    HW217260   8.574   7.451   2.186 -0.7150  1.0487 -1.0627
 2950SOL     OW17261   2.978   4.010   0.136  0.3399  0.2018  0.1609
 2950SOL    HW117262   3.025   3.938   0.084  2.0284  2.1523 -1.0513
 2950SOL    HW217263   2.925   4.067   0.073  1.0759  1.5810  0.7780
 2951SOL     OW17264   3.430   8.638   1.400  0.6803  0.1896  0.5899
 2951SOL    HW117265   3.352   8.685   1.442 -0.1680  1.2266 -1.9739
 2951SOL    HW217266   3.396   8.565   1.341  1.4303  2.1069 -2.3419
 2953SOL     OW17267   8.063   4.160   0.086  0.1731 -0.3855  0.6800
 2953SOL    HW117268   8.077   4.256   0.064 -0.6147 -0.9568 -2.4880
 2953SOL    HW217269   8.129   4.104   0.037 -0.7401 -1.6269  0.8296
 2954SOL     OW17270   4.225   0.673   0.854  0.4196 -0.6358 -0.3979
 2954SOL    HW117271   4.202   0.756   0.803  0.9066  0.1246  0.5892
 2954SOL    HW217272   4.187   0.593   0.807 -2.5202  0.3799  0.1717
 2955SOL     OW17273   7.814   0.547   0.271  0.5200  0.1926  0.1326
 2955SOL    HW117274   7.782   0.641   0.262  2.1820  0.7723  0.1159
 2955SOL    HW217275   7.769   0.504   0.350 -0.1809  1.0208  0.1897
 2956SOL     OW17276   2.619   8.781   2.085 -0.3559  0.0883  0.0572
 2956SOL    HW117277   2.567   8.792   2.000 -2.0282  0.4487  1.0910
 2956SOL    HW217278   2.693   8.848   2.088 -0.3068  0.0967 -1.0896
 2957SOL     OW17279   8.194   9.874   0.018  0.2963  0.4632  0.1234
 2957SOL    HW117280   8.246   9.808  -0.036  0.1989  0.1110  0.4596
 2957SOL    HW217281   8.096   9.864  -0.003  0.2262  0.0925  0.6190
 2958SOL     OW17282   0.466   1.359   1.500  0.6321  0.2886  0.5944
 2958SOL    HW117283   0.428   1.288   1.439 -0.6271  0.0770  1.6096
 2958SOL    HW217284   0.436   1.449   1.469  0.5608  0.2320  0.4995
 2959SOL     OW17285   0.246   0.270   2.238 -0.0090  0.2806 -0.4959
 2959SOL    HW117286   0.232   0.276   2.337  0.6193 -0.4769 -0.3491
 2959SOL    HW217287   0.264   0.175   2.213  0.3678  0.5498 -1.2625
 2960SOL     OW17288   0.473   1.688   0.364 -0.0876  0.5784  0.0953
 2960SOL    HW117289   0.383   1.669   0.324  1.9052  0.1194 -4.5780
 2960SOL    HW217290   0.488   1.787   0.365  0.2415  0.5526 -1.3272
 2961SOL     OW17291   0.223   6.204   1.852  0.1191  0.2623  0.6046
 2961SOL    HW117292   0.167   6.170   1.927 -0.3574 -0.3097 -0.0052
 2961SOL    HW217293   0.304   6.250   1.889  0.3280 -0.7629  1.4455
 2962SOL     OW17294   0.466   0.199   1.531 -0.2617  0.8402  0.0178
 2962SOL    HW117295   0.395   0.133   1.507  0.3373  0.2013 -0.0278
 2962SOL    HW217296   0.511   0.170   1.615  0.8955  0.4703 -0.7109
 2964SOL     OW17297   0.457   8.752   0.323  0.3448  0.4342 -0.4341
 2964SOL    HW117298   0.374   8.799   0.291 -0.2054 -0.2009  0.0379
 2964SOL    HW217299   0.482   8.681   0.257  1.9723  2.2655 -1.8500
 2965SOL     OW17300   1.053   8.042   1.003 -0.1191  0.7257 -0.0732
 2965SOL    HW117301   0.987   7.989   1.057 -0.6237  1.4242 -0.0043
 2965SOL    HW217302   1.006   8.083   0.925 -0.2442  3.0149  1.1541
 2966SOL     OW17303   9.339   7.131   2.686  0.1520  0.3330 -0.4308
 2966SOL    HW117304   9.339   7.177   2.597 -0.7797 -0.6115 -0.9356
 2966SOL    HW217305   9.260   7.070   2.692  0.6321 -0.1932  0.7415
 2968SOL     OW17306   1.527   6.947   2.531  0.2398  0.5901  0.3219
 2968SOL    HW117307   1.453   6.938   2.598 -1.2928  1.6444 -1.1624
 2968SOL    HW217308   1.512   7.030   2.477  0.3264 -1.2818 -2.6474
 2969SOL     OW17309   0.493   0.039   2.436  0.4800 -0.5152 -0.2154
 2969SOL    HW117310   0.399   0.035   2.470  0.1643 -1.3997 -1.1827
 2969SOL    HW217311   0.540   0.115   2.480 -0.0667 -1.3150  1.8285
 2970SOL     OW17312   1.333   1.660   1.327 -0.4275  0.0630 -0.2407
 2970SOL    HW117313   1.275   1.726   1.279 -0.9180  0.3794  0.7820
 2970SOL    HW217314   1.282   1.621   1.404  0.8947  0.7191  0.9827
 2972SOL     OW17315   2.584   1.342   0.142 -0.2932  0.2286  0.4906
 2972SOL    HW117316   2.627   1.378   0.059 -1.3160  1.7273  0.5967
 2972SOL    HW217317   2.498   1.390   0.159  0.0504  0.1588  2.5837
 2973SOL     OW17318   1.932   4.717   2.689  0.4818 -0.2367  0.0981
 2973SOL    HW117319   2.021   4.675   2.704 -0.3718 -1.5199  1.7967
 2973SOL    HW217320   1.912   4.780   2.765 -0.7165 -1.1779  0.5964
 2974SOL     OW17321   9.871   8.741   0.813 -0.1267  0.2932 -0.1231
 2974SOL    HW117322   9.839   8.647   0.802  0.0034  0.2408 -0.0444
 2974SOL    HW217323   9.797   8.797   0.851 -0.1658  0.1965 -0.0539
 2975SOL     OW17324   8.963   8.076   0.788 -0.1935 -0.0976  0.0935
 2975SOL    HW117325   8.904   8.022   0.848 -0.1229 -1.3204 -0.9226
 2975SOL    HW217326   8.919   8.086   0.699  0.0013  1.1453  0.1274
 2976SOL     OW17327   8.635   1.600   1.261 -0.2007  0.1808 -0.0021
 2976SOL    HW117328   8.564   1.605   1.191  0.5244 -0.4148 -0.7936
 2976SOL    HW217329   8.661   1.504   1.275  0.6390  0.4202  0.0828
 2977SOL     OW17330   9.270   1.594   0.387 -0.5082 -0.3480 -0.4846
 2977SOL    HW117331   9.250   1.666   0.320  2.4002 -0.3339 -1.3797
 2977SOL    HW217332   9.288   1.508   0.340 -0.4714 -0.8276  0.3942
 2978SOL     OW17333   8.889   0.666   0.082  0.5410  0.3742  0.5700
 2978SOL    HW117334   8.890   0.765   0.064 -0.1277  0.3386  0.3324
 2978SOL    HW217335   8.921   0.617   0.001 -0.4491  0.3243  0.2083
 2979SOL     OW17336   0.967   6.156   0.458 -0.0568  0.8811  0.0381
 2979SOL    HW117337   0.893   6.129   0.520  0.5998  0.3188  0.5732
 2979SOL    HW217338   0.928   6.208   0.382 -1.5666 -2.8026 -1.8404
 2981SOL     OW17339   8.504   3.364   0.825 -0.0250  0.2579  0.2310
 2981SOL    HW117340   8.418   3.346   0.874  0.7640  0.3030  1.6790
 2981SOL    HW217341   8.499   3.325   0.733 -2.2331  1.7396 -0.3248
 2982SOL     OW17342   3.370   3.329   0.192  0.0908 -0.1931  0.3031
 2982SOL    HW117343   3.388   3.326   0.093  2.8044 -1.6516  0.7814
 2982SOL    HW217344   3.330   3.242   0.221 -2.1527  0.8007  0.2711
 2983SOL     OW17345   2.005   3.790   0.141 -0.4985 -0.1762  0.1019
 2983SOL    HW117346   1.927   3.848   0.115  0.0429 -0.2718 -1.7722
 2983SOL    HW217347   2.077   3.797   0.072  0.8891 -0.6230  1.4752
 2984SOL     OW17348   2.020   4.869   0.002  0.9205 -0.1293  0.3611
 2984SOL    HW117349   1.931   4.866   0.047 -0.1167 -1.3912 -1.7037
 2984SOL    HW217350   2.070   4.950   0.032 -0.4871  0.0376  2.3338
 2987SOL     OW17351   9.571   4.426   2.236  0.2792 -0.0008 -0.5740
 2987SOL    HW117352   9.535   4.516   2.262 -1.0049 -0.7965  0.4127
 2987SOL    HW217353   9.662   4.414   2.276 -0.0012  0.4167  0.1933
 2988SOL     OW17354   3.699   8.066   1.730 -0.9302  0.6588  0.4998
 2988SOL    HW117355   3.778   8.018   1.768 -0.0888  0.3003 -1.6837
 2988SOL    HW217356   3.699   8.161   1.762  0.1374  0.5512  0.8245
 2989SOL     OW17357   1.029   9.115   1.356 -0.8699  0.4018  0.3290
 2989SOL    HW117358   1.024   9.098   1.454  0.7501 -1.1762  0.1571
 2989SOL    HW217359   1.125   9.116   1.328 -1.2508  2.3283 -0.9947
 2990SOL     OW17360   8.337   8.519   1.704 -0.2510 -0.2038  0.4142
 2990SOL    HW117361   8.259   8.480   1.654 -0.8387  0.7694  0.5533
 2990SOL    HW217362   8.318   8.518   1.802 -0.7486  1.4124  0.3533
 2991SOL     OW17363   8.270   8.721   0.027 -0.1110 -0.1145  0.6724
 2991SOL    HW117364   8.310   8.713  -0.064  1.2413  2.1571  1.0365
 2991SOL    HW217365   8.197   8.790   0.025 -0.4424 -0.4441  1.1943
 2992SOL     OW17366   2.406   9.306   2.292 -0.1483  0.0393 -0.1674
 2992SOL    HW117367   2.426   9.211   2.316 -0.0813  0.4103  1.2944
 2992SOL    HW217368   2.308   9.317   2.280 -0.1955 -0.1299  0.0475
 2993SOL     OW17369   3.405   6.645   1.181 -0.3558 -0.0941  0.0750
 2993SOL    HW117370   3.391   6.549   1.158 -0.9819  0.1895 -0.8001
 2993SOL    HW217371   3.415   6.655   1.280 -2.5500 -0.8090  0.3991
 2994SOL     OW17372   2.054   3.354   0.775 -0.4174  0.6085 -0.5304
 2994SOL    HW117373   2.018   3.400   0.856  0.9899 -1.1710  1.1421
 2994SOL    HW217374   1.981   3.299   0.733 -0.9892  1.0210 -0.0841
 2996SOL     OW17375   1.615   9.540   0.777 -0.5399  0.1563 -0.3570
 2996SOL    HW117376   1.694   9.573   0.725 -0.1035 -0.6992 -0.2466
 2996SOL    HW217377   1.542   9.514   0.713 -0.5076  0.3726 -0.4839
 2997SOL     OW17378   3.823   9.408   0.278 -0.3056  0.4460 -0.1297
 2997SOL    HW117379   3.795   9.427   0.372 -1.1990 -1.5135  0.0153
 2997SOL    HW217380   3.919   9.381   0.277 -0.3656  0.2185  0.2407
 2998SOL     OW17381   9.832   5.793   0.022 -0.0903  0.0311  0.0814
 2998SOL    HW117382   9.756   5.729   0.039  0.4717 -0.5745  0.3249
 2998SOL    HW217383   9.918   5.748   0.044  0.3779  0.5490 -0.7103
 2999SOL     OW17384   1.049   8.534   0.801  0.0427 -0.0105  0.6710
 2999SOL    HW117385   0.955   8.561   0.782 -0.0561  0.1088  1.3276
 2999SOL    HW217386   1.083   8.584   0.881  1.2094  1.1460 -0.5283
 3000SOL     OW17387   2.657   8.255   1.167  0.0283 -0.2002  0.2083
 3000SOL    HW117388   2.751   8.232   1.190  0.0812 -0.9690 -0.7213
 3000SOL    HW217389   2.656   8.336   1.108  0.1664 -0.5809 -0.3293
 3002SOL     OW17390   2.502   0.687   1.569  0.3334 -0.5365 -0.1945
 3002SOL    HW117391   2.508   0.634   1.485  0.0795 -0.8683 -0.0019
 3002SOL    HW217392   2.436   0.645   1.631 -0.8009  0.6943 -0.5531
 3005SOL     OW17393   2.832   9.503   1.155  0.0186  0.1515 -0.0029
 3005SOL    HW117394   2.777   9.584   1.177 -0.4420  0.0777 -0.8461
 3005SOL    HW217395   2.838   9.444   1.235 -0.4361  0.5691  0.3453
 3006SOL     OW17396   5.088   7.526   2.351  0.0943  0.2991  0.3242
 3006SOL    HW117397   5.001   7.484   2.325  1.1068 -1.4480 -0.3376
 3006SOL    HW217398   5.072   7.595   2.422 -1.7086 -0.6801  0.9040
 3007SOL     OW17399   2.339   1.827   1.650  0.4133  0.3015  0.0030
 3007SOL    HW117400   2.417   1.779   1.691 -0.0405 -0.1003  0.4138
 3007SOL    HW217401   2.260   1.819   1.711  1.0591  3.9446  1.4633
 3008SOL     OW17402   3.028   6.332   1.384 -0.0421  0.0276 -0.4168
 3008SOL    HW117403   3.019   6.265   1.457 -1.5167 -0.1043 -0.6931
 3008SOL    HW217404   3.055   6.287   1.299 -1.5419 -0.3284 -0.7299
 3009SOL     OW17405   4.499   2.861   1.547 -0.6915  0.3031 -0.3479
 3009SOL    HW117406   4.413   2.873   1.497 -1.1412 -0.6777  0.1808
 3009SOL    HW217407   4.555   2.792   1.501 -0.9270 -0.2984  0.2645
 3010SOL     OW17408   2.866   2.526   1.254 -0.6551  0.0653 -0.2392
 3010SOL    HW117409   2.790   2.511   1.190 -0.4241  0.9666 -0.7243
 3010SOL    HW217410   2.860   2.619   1.291  0.1987  0.1316 -0.2649
 3011SOL     OW17411   9.271   3.201   0.016 -0.1068 -0.1538 -0.4102
 3011SOL    HW117412   9.366   3.171   0.016 -0.1708 -0.3585 -0.4477
 3011SOL    HW217413   9.228   3.179  -0.072 -0.0809  0.2824 -0.5351
 3012SOL     OW17414   0.360   4.212   1.196 -0.4713 -0.8417 -0.5926
 3012SOL    HW117415   0.383   4.216   1.099 -1.9533 -1.4284 -0.9749
 3012SOL    HW217416   0.438   4.176   1.247  0.4425 -0.1863 -1.5096
 3014SOL     OW17417   1.818   5.248   0.508 -0.4409 -0.0969  0.0799
 3014SOL    HW117418   1.748   5.297   0.561 -0.4257 -0.7173  0.6838
 3014SOL    HW217419   1.802   5.263   0.411  0.3767  2.2094  0.2825
 3015SOL     OW17420   9.580   9.091   2.033  0.6276 -0.3029  0.0965
 3015SOL    HW117421   9.491   9.135   2.022  0.4952 -0.0485  2.0649
 3015SOL    HW217422   9.648   9.139   1.978 -0.2495  0.1206 -0.6229
 3017SOL     OW17423   9.363   6.640   1.457  0.7714  0.2150  0.0003
 3017SOL    HW117424   9.377   6.669   1.362  0.5181 -0.9461 -0.3974
 3017SOL    HW217425   9.449   6.610   1.496  0.7868  0.2267 -0.0241
 3019SOL     OW17426   5.264   8.251   2.289  0.3007  0.0771 -0.1244
 3019SOL    HW117427   5.211   8.336   2.288 -0.9227 -0.6894 -0.4187
 3019SOL    HW217428   5.356   8.270   2.255  0.3445  1.4793  0.7146
 3021SOL     OW17429   7.927   9.330   2.197  0.2752  0.1265  0.2102
 3021SOL    HW117430   7.867   9.383   2.256 -0.4420  1.4691 -1.6750
 3021SOL    HW217431   7.923   9.234   2.224 -1.5438  0.4243  1.1058
 3022SOL     OW17432   9.691   5.643   2.283  0.6390  0.5450  0.7299
 3022SOL    HW117433   9.771   5.612   2.231 -0.7600 -0.7628 -0.7047
 3022SOL    HW217434   9.691   5.743   2.288 -0.2126  0.8175 -3.5010
 3023SOL     OW17435   2.176   8.851   0.015  0.3216 -0.3598  0.0970
 3023SOL    HW117436   2.185   8.943  -0.023  3.3925 -1.9289 -3.2555
 3023SOL    HW217437   2.248   8.837   0.083  1.2276 -0.9965 -0.9835
 3024SOL     OW17438   1.901   6.627   2.423  0.1806 -0.1728 -0.1961
 3024SOL    HW117439   1.851   6.698   2.473  0.3286 -0.0285 -0.2563
 3024SOL    HW217440   1.868   6.624   2.328  0.1237 -0.2342 -0.1746
 3026SOL     OW17441   4.068   1.790   2.051  0.1666  0.0578 -0.0952
 3026SOL    HW117442   4.048   1.712   2.111 -0.6916  1.2366  1.1598
 3026SOL    HW217443   3.991   1.806   1.990  0.3381 -0.0444 -0.3417
 3027SOL     OW17444   0.794   5.994   1.089  0.1775  0.0894  0.3990
 3027SOL    HW117445   0.889   6.007   1.060  0.9108 -1.5841  1.9416
 3027SOL    HW217446   0.759   5.908   1.051 -1.0292  1.1405 -0.8954
 3029SOL     OW17447   3.132   7.967   2.595 -0.0437  0.6917  0.4285
 3029SOL    HW117448   3.230   7.963   2.614  0.4892  0.1357 -2.2221
 3029SOL    HW217449   3.085   8.012   2.671  1.8968 -1.4589  2.9893
 3031SOL     OW17450   3.006   3.712   1.062  0.0151  0.3329 -0.6932
 3031SOL    HW117451   3.099   3.688   1.034 -0.2225  0.6354 -1.7896
 3031SOL    HW217452   2.991   3.810   1.048 -0.3378  0.3555 -0.1606
 3032SOL     OW17453   2.363   8.890   0.488  0.2918  0.3815  0.0882
 3032SOL    HW117454   2.294   8.832   0.532  1.0603 -2.0119 -1.7540
 3032SOL    HW217455   2.332   8.985   0.487 -1.9542 -0.3233  1.2998
 3033SOL     OW17456   0.906   7.110   0.346 -0.6899  0.1683  0.0344
 3033SOL    HW117457   0.865   7.118   0.255 -1.4866 -1.2977  0.2561
 3033SOL    HW217458   0.842   7.147   0.414 -0.1104  1.2286  0.0213
 3034SOL     OW17459   1.078   4.636   0.706 -0.2463  0.3108 -0.1093
 3034SOL    HW117460   1.044   4.559   0.651  0.1823  0.9681 -1.3096
 3034SOL    HW217461   1.093   4.715   0.647  1.6254  0.5927  0.7000
 3035SOL     OW17462   9.562   3.048   0.534  0.2473 -0.3553 -0.2740
 3035SOL    HW117463   9.560   3.105   0.452  1.3175  1.4685  0.9317
 3035SOL    HW217464   9.511   3.093   0.607  1.8701 -0.5011  0.9626
 3036SOL     OW17465   2.066   2.956   0.848 -0.8648 -0.0542  0.1215
 3036SOL    HW117466   2.031   2.997   0.764  2.7909 -0.1330 -1.5194
 3036SOL    HW217467   2.074   2.857   0.836 -2.6143 -0.4033  1.4842
 3037SOL     OW17468   2.988   0.451   0.878 -0.0657  0.3448  0.6854
 3037SOL    HW117469   3.048   0.524   0.844 -0.5641 -0.4620 -2.0883
 3037SOL    HW217470   3.044   0.372   0.903  0.1416 -0.3173 -1.6679
 3038SOL     OW17471   7.868   9.731   0.352  0.2158  0.2846  0.1855
 3038SOL    HW117472   7.922   9.768   0.427 -0.6254 -0.1920  1.0452
 3038SOL    HW217473   7.904   9.764   0.265  1.9439 -0.1183  0.7337
 3039SOL     OW17474   3.687   4.128   0.512  0.0935  0.1912 -0.1048
 3039SOL    HW117475   3.704   4.203   0.577  1.7901  0.2762 -0.6258
 3039SOL    HW217476   3.644   4.165   0.430 -2.0883  0.0811  0.9689
 3040SOL     OW17477   2.737   6.050   0.703 -0.2974  0.4587  0.4836
 3040SOL    HW117478   2.743   6.113   0.626 -0.5219 -0.2760 -0.1315
 3040SOL    HW217479   2.739   6.103   0.789  0.5417  1.2346  0.0001
 3041SOL     OW17480   8.131   3.672   0.122  0.4696 -0.5088  0.0213
 3041SOL    HW117481   8.047   3.726   0.127 -0.1399 -1.4123 -0.1785
 3041SOL    HW217482   8.171   3.681   0.031  0.6160 -0.0361  0.1321
 3044SOL     OW17483   0.914   9.571   1.497 -0.3998 -0.3264 -0.5423
 3044SOL    HW117484   0.987   9.503   1.502 -0.9401 -0.9544 -0.9645
 3044SOL    HW217485   0.912   9.624   1.581 -0.1731 -1.0547 -0.0721
 3045SOL     OW17486   8.532   3.023   2.130 -0.0880 -0.0411  0.2725
 3045SOL    HW117487   8.466   2.948   2.127  2.1010 -2.0653  0.9666
 3045SOL    HW217488   8.600   3.011   2.058 -0.0420  1.6399  0.0036
 3046SOL     OW17489   3.281   6.633   2.084  0.0045  0.0155  0.2390
 3046SOL    HW117490   3.239   6.708   2.135 -1.7942 -1.9341  1.7022
 3046SOL    HW217491   3.371   6.613   2.123  0.3748  1.1852  0.0224
 3047SOL     OW17492   7.756   3.057   0.134  0.0354 -0.3583  0.2336
 3047SOL    HW117493   7.817   3.135   0.145 -0.6644  0.2257  0.0265
 3047SOL    HW217494   7.805   2.983   0.089  0.3855  0.3712 -0.5975
 3048SOL     OW17495   8.588   1.148   0.721  0.3898  0.5246 -0.2499
 3048SOL    HW117496   8.678   1.184   0.746  0.5512  1.1780 -1.7001
 3048SOL    HW217497   8.596   1.096   0.636 -0.1621 -1.5065  0.8998
 3049SOL     OW17498   4.051   5.385   2.049  0.4224  0.0825 -0.2482
 3049SOL    HW117499   4.038   5.301   1.996 -0.9985  0.6861 -0.8850
 3049SOL    HW217500   3.983   5.453   2.022  0.8376  1.0540  1.0569
 3050SOL     OW17501   2.950   7.339   1.846 -0.7273 -0.4124 -0.4522
 3050SOL    HW117502   2.875   7.289   1.891  0.2974  0.1781  1.9875
 3050SOL    HW217503   2.962   7.304   1.753 -1.8059 -2.8449  0.2858
 3051SOL     OW17504   5.072   0.859   2.398 -0.4163 -0.0842  0.5979
 3051SOL    HW117505   5.010   0.892   2.327  0.5035 -0.6964 -0.4988
 3051SOL    HW217506   5.102   0.937   2.455 -1.0366  0.4260  0.2340
 3052SOL     OW17507   4.980   2.081   1.428 -0.3392  0.3603  0.2463
 3052SOL    HW117508   5.065   2.117   1.467 -0.8456  1.6162  0.2078
 3052SOL    HW217509   4.957   1.994   1.472  1.8718 -0.8695 -0.9307
 3056SOL     OW17510   1.994   8.300   0.942  0.2707  0.3348 -0.6011
 3056SOL    HW117511   1.952   8.315   0.852 -0.8297 -0.2441 -0.1971
 3056SOL    HW217512   2.039   8.210   0.943 -1.0292 -0.3272 -0.1027
 3057SOL     OW17513   1.620   1.631   2.552  0.1508 -0.0343 -0.0775
 3057SOL    HW117514   1.552   1.647   2.624  1.8926 -0.5058  1.7395
 3057SOL    HW217515   1.584   1.566   2.486 -0.9811 -0.6834  1.1562
 3058SOL     OW17516   2.021   6.154   1.070 -0.5089 -0.0214  0.1798
 3058SOL    HW117517   2.088   6.184   1.001 -0.4000 -0.6392  0.0116
 3058SOL    HW217518   1.929   6.171   1.036 -0.4337  2.2679  1.0603
 3059SOL     OW17519   3.671   1.665   2.363  0.1894 -0.2464 -0.4075
 3059SOL    HW117520   3.600   1.718   2.315  0.4510  1.2832  0.8510
 3059SOL    HW217521   3.753   1.721   2.373  0.5423 -0.9573  0.7950
 3060SOL     OW17522   7.415   1.818   1.788 -0.0188  0.1280 -0.1726
 3060SOL    HW117523   7.425   1.849   1.694 -1.1925  1.2614  0.0524
 3060SOL    HW217524   7.379   1.725   1.790 -0.8384  0.4273 -0.8467
 3061SOL     OW17525   3.768   3.410   0.405  0.2151  0.4700 -0.5912
 3061SOL    HW117526   3.812   3.399   0.494 -2.7366  0.4868  0.9491
 3061SOL    HW217527   3.790   3.500   0.367  1.9972  0.2135 -0.1689
 3062SOL     OW17528   9.130   4.946   1.725 -0.3141  0.7087 -0.7850
 3062SOL    HW117529   9.190   5.025   1.736 -0.4868  0.6759  0.5736
 3062SOL    HW217530   9.177   4.874   1.676  0.9946  0.4451  0.8109
 3063SOL     OW17531   3.075   4.620   0.800 -0.9880 -0.2372  0.5000
 3063SOL    HW117532   3.042   4.608   0.894 -0.2935  0.7134  0.8729
 3063SOL    HW217533   3.005   4.587   0.736 -0.9995 -1.9454  1.3650
 3064SOL     OW17534   9.825   2.618   1.339  0.1412  0.5043  0.2414
 3064SOL    HW117535   9.838   2.604   1.241  0.6665  1.5065  0.1548
 3064SOL    HW217536   9.727   2.617   1.361 -0.0186  1.1561 -0.4322
 3065SOL     OW17537   0.751   4.165   1.566 -0.3938  0.4665 -0.6453
 3065SOL    HW117538   0.746   4.234   1.639  2.3698 -0.8737  0.8656
 3065SOL    HW217539   0.693   4.087   1.590  0.1172  0.2451 -0.1236
 3066SOL     OW17540   2.451   6.931   0.414 -0.2422  0.1791  1.1036
 3066SOL    HW117541   2.529   6.882   0.373 -1.1376 -0.7798  0.5275
 3066SOL    HW217542   2.472   6.952   0.509  0.7209 -0.0964  0.9584
 3068SOL     OW17543   3.746   4.608   0.382  0.4595 -0.2856 -0.5030
 3068SOL    HW117544   3.711   4.694   0.420  2.4353 -0.6364  2.3396
 3068SOL    HW217545   3.826   4.627   0.325 -0.0490 -0.1067 -1.1578
 3069SOL     OW17546   7.187   9.484   2.534 -0.1264  0.2474  0.3630
 3069SOL    HW117547   7.235   9.433   2.607  0.8092  0.5441 -0.0341
 3069SOL    HW217548   7.245   9.559   2.503 -0.5979  0.2301 -0.5719
 3070SOL     OW17549   2.536   3.349   1.668  0.1332 -0.1260 -0.1085
 3070SOL    HW117550   2.516   3.412   1.743 -0.4583 -1.9868  1.3441
 3070SOL    HW217551   2.498   3.259   1.689 -0.5259 -0.5476 -2.9111
 3071SOL     OW17552   1.992   7.155   2.510 -0.0879  0.4720  0.9823
 3071SOL    HW117553   2.091   7.169   2.515 -0.4027  2.6721  1.5481
 3071SOL    HW217554   1.959   7.116   2.596 -0.0445  2.0673  1.7386
 3072SOL     OW17555   8.853   5.316   2.236 -0.1712  0.3863 -0.1820
 3072SOL    HW117556   8.778   5.301   2.172  0.4247  0.5595 -0.9235
 3072SOL    HW217557   8.896   5.404   2.217 -0.3351  0.6902  0.8112
 3074SOL     OW17558   8.758   2.172   2.204  0.6989  0.4415  0.5896
 3074SOL    HW117559   8.787   2.253   2.256 -0.7125  0.5557  1.2241
 3074SOL    HW217560   8.797   2.090   2.246  1.1739  0.6887  0.6435
 3076SOL     OW17561   7.955   7.798   2.166  1.1026  0.2655 -0.3459
 3076SOL    HW117562   8.038   7.811   2.111 -0.0155  0.4672 -2.0269
 3076SOL    HW217563   7.894   7.735   2.119  0.2178  0.2540  0.8090
 3077SOL     OW17564   8.879   2.225   1.693 -0.0556  0.1891 -0.0931
 3077SOL    HW117565   8.847   2.144   1.645  4.1119 -1.6446  0.0151
 3077SOL    HW217566   8.896   2.203   1.789 -0.6896  1.7206  0.3914
 3078SOL     OW17567   4.085   7.570   0.790 -0.0416 -0.3251  0.0589
 3078SOL    HW117568   4.068   7.545   0.695 -1.8600 -1.4890  0.6691
 3078SOL    HW217569   4.178   7.607   0.799  0.7080 -1.6597 -1.8757
 3079SOL     OW17570   0.159   3.882   0.488  0.3059 -0.2873  0.0794
 3079SOL    HW117571   0.106   3.804   0.522 -0.7747  0.5996  0.4749
 3079SOL    HW217572   0.097   3.948   0.446  0.9518  1.2942  1.5422
 3080SOL     OW17573   3.635   3.480   0.920 -0.0567  0.1279  0.1611
 3080SOL    HW117574   3.536   3.466   0.923 -0.1176  0.5634  0.3020
 3080SOL    HW217575   3.658   3.562   0.973  0.3603  0.1337 -0.0285
 3082SOL     OW17576   3.100   5.703   2.200  0.6292  0.3584  0.3391
 3082SOL    HW117577   3.050   5.681   2.116 -0.9467 -0.2366  1.4120
 3082SOL    HW217578   3.101   5.623   2.260  3.2209  0.2319  0.1867
 3083SOL     OW17579   9.660   2.942   1.956  0.2324  0.3106  0.0288
 3083SOL    HW117580   9.590   3.012   1.946  0.5071  0.3467 -1.8000
 3083SOL    HW217581   9.624   2.854   1.924  0.7884  0.1918 -0.2832
 3084SOL     OW17582   4.671   0.330   2.194 -0.4822 -0.2309 -0.7556
 3084SOL    HW117583   4.667   0.298   2.100  1.7796 -2.1844 -0.2433
 3084SOL    HW217584   4.733   0.272   2.247  1.0632  2.9431  1.1085
 3085SOL     OW17585   8.448   8.767   1.623  0.0216 -0.0056  0.3982
 3085SOL    HW117586   8.498   8.774   1.709  2.1084 -0.4294 -0.7401
 3085SOL    HW217587   8.405   8.677   1.616 -0.3140  0.1023  1.0852
 3086SOL     OW17588   8.993   1.254   1.015  0.1887  0.4675  0.3886
 3086SOL    HW117589   9.082   1.210   1.019 -0.5692 -1.3230 -1.4503
 3086SOL    HW217590   8.921   1.186   1.030 -0.8981  1.7431  1.1075
 3088SOL     OW17591   4.884   0.905   1.438  0.1127 -0.2563 -0.6216
 3088SOL    HW117592   4.859   0.981   1.378 -0.2398 -0.5798 -0.8837
 3088SOL    HW217593   4.862   0.929   1.533 -1.6763 -0.7307 -0.8934
 3089SOL     OW17594   4.251   3.066   2.155  0.2348  0.2781  0.5717
 3089SOL    HW117595   4.164   3.065   2.205 -0.4728 -0.4739 -0.6459
 3089SOL    HW217596   4.310   3.138   2.191 -1.4230  1.6948  0.5161
 3090SOL     OW17597   3.923   8.492   2.501 -0.5186  0.0792  0.4707
 3090SOL    HW117598   3.924   8.558   2.576 -1.5269 -0.0388  0.5889
 3090SOL    HW217599   3.831   8.485   2.463 -0.3562 -1.0326  0.2531
 3091SOL     OW17600   3.992   4.740   2.075 -0.1868 -0.6020  0.0055
 3091SOL    HW117601   3.919   4.718   2.010 -0.3102 -0.3149  0.0446
 3091SOL    HW217602   3.981   4.686   2.158 -1.0935  0.3495  0.5221
 3094SOL     OW17603   0.890   1.968   1.330  0.6878 -0.0791 -0.0377
 3094SOL    HW117604   0.822   1.984   1.402  0.5554 -0.7441 -0.0147
 3094SOL    HW217605   0.943   2.051   1.316 -0.3366  0.5511 -0.2721
 3095SOL     OW17606   8.669   8.731   1.001  0.0959  0.0465  0.5749
 3095SOL    HW117607   8.653   8.687   1.089  0.3252 -1.7386 -0.2300
 3095SOL    HW217608   8.763   8.762   0.995  0.9076 -2.4106 -0.0839
 3096SOL     OW17609   8.782   2.032   1.550  0.1005 -0.0626  0.7658
 3096SOL    HW117610   8.790   1.953   1.490  0.6347  1.3090 -0.9869
 3096SOL    HW217611   8.686   2.059   1.557 -0.0067 -0.4549  0.8558
 3097SOL     OW17612   9.363   6.901   1.790  0.2760  0.4624  0.5128
 3097SOL    HW117613   9.369   6.919   1.888  0.0126  1.9148  0.2731
 3097SOL    HW217614   9.440   6.844   1.761  0.4763  0.2228  1.5157
 3098SOL     OW17615   2.153   3.571   1.402  0.0224 -0.4613  0.4350
 3098SOL    HW117616   2.093   3.578   1.482  0.4674  0.1109  0.7219
 3098SOL    HW217617   2.157   3.659   1.356 -0.7732 -0.9581 -0.6228
 3099SOL     OW17618   2.764   9.300   0.957  0.4150  0.0511 -0.3561
 3099SOL    HW117619   2.759   9.325   0.860  1.0702 -0.0348 -0.4139
 3099SOL    HW217620   2.788   9.380   1.011 -2.3223  0.6707  0.0279
 3100SOL     OW17621   1.110   0.190   1.857 -1.3007  0.2521 -0.3381
 3100SOL    HW117622   1.187   0.126   1.856 -1.6442 -0.1796  0.5607
 3100SOL    HW217623   1.113   0.246   1.774  0.5917  0.9617  0.1607
 3102SOL     OW17624   1.495   2.248   0.779  0.0027  0.4127  0.3945
 3102SOL    HW117625   1.450   2.177   0.833  0.6352  0.4898  1.0294
 3102SOL    HW217626   1.478   2.338   0.819 -2.2491  0.8412 -1.3794
 3103SOL     OW17627   8.907   2.079   0.263  0.4908  0.2810 -0.3916
 3103SOL    HW117628   8.873   2.155   0.208 -0.7575 -0.7601 -1.0892
 3103SOL    HW217629   8.840   2.057   0.334  1.4036  0.6195  0.5934
 3104SOL     OW17630   1.751   5.117   0.079  0.1764  0.3233 -0.1251
 3104SOL    HW117631   1.705   5.063   0.009  1.2809 -0.9381  0.0978
 3104SOL    HW217632   1.795   5.055   0.145  1.7851  1.4833 -0.0780
 3105SOL     OW17633   8.735   7.876   2.542  0.0783  0.5870 -0.2481
 3105SOL    HW117634   8.669   7.951   2.531  0.8438  1.2438 -0.3786
 3105SOL    HW217635   8.694   7.791   2.507 -0.7839  0.9417 -0.1150
 3106SOL     OW17636   0.771   1.712   1.297 -0.1447  0.3027  0.3910
 3106SOL    HW117637   0.824   1.706   1.213  1.2633 -1.6214  1.3832
 3106SOL    HW217638   0.780   1.804   1.335 -0.8151  1.1878 -1.5525
 3107SOL     OW17639   7.242   8.918   2.324 -0.5090  0.5064 -0.1987
 3107SOL    HW117640   7.247   9.018   2.318 -1.2159  0.5266 -0.5621
 3107SOL    HW217641   7.146   8.891   2.328 -0.3441 -0.2204 -1.0662
 3108SOL     OW17642   7.930   8.059   2.298 -0.2876 -0.4196  0.2059
 3108SOL    HW117643   7.988   8.111   2.235 -0.1715 -0.9539 -0.1333
 3108SOL    HW217644   7.908   7.970   2.257 -0.3317 -0.7092  0.8617
 3109SOL     OW17645   8.475   0.316   0.201  0.1521 -0.0385  0.1371
 3109SOL    HW117646   8.502   0.383   0.269  0.4529  0.6282 -0.6305
 3109SOL    HW217647   8.388   0.342   0.160 -0.0175 -0.4228  0.2518
 3112SOL     OW17648   1.201   7.115   0.308 -0.1905 -0.0812 -0.3439
 3112SOL    HW117649   1.229   7.159   0.222 -0.3140 -1.3744 -1.0549
 3112SOL    HW217650   1.107   7.142   0.329 -0.5391 -0.6262 -1.1894
 3113SOL     OW17651   9.431   0.644   2.491  0.0868 -0.0646 -0.3316
 3113SOL    HW117652   9.362   0.576   2.466  0.4128 -1.3277  2.1055
 3113SOL    HW217653   9.386   0.724   2.532  0.0172 -0.5851  0.6062
 3114SOL     OW17654   0.549   6.255   2.165  0.2919  0.5757  0.6675
 3114SOL    HW117655   0.483   6.290   2.097 -0.8071 -0.3646  1.2251
 3114SOL    HW217656   0.641   6.285   2.140 -0.4913  3.1165  0.6469
 3116SOL     OW17657   0.139   5.134   0.834 -0.0925  0.5104 -0.7731
 3116SOL    HW117658   0.086   5.067   0.783 -0.0662 -1.0114  1.1259
 3116SOL    HW217659   0.078   5.191   0.889  0.0333  0.7365 -0.8641
 3119SOL     OW17660   4.007   3.247   2.644  0.3264  0.1102  0.1611
 3119SOL    HW117661   4.080   3.186   2.676 -0.0032  0.5002  1.7201
 3119SOL    HW217662   4.030   3.342   2.666 -0.5370  0.2584  0.4694
 3120SOL     OW17663   4.811   1.087   1.245 -0.2343 -0.4278 -0.2936
 3120SOL    HW117664   4.880   1.084   1.172 -0.3136 -0.7958 -0.3572
 3120SOL    HW217665   4.720   1.094   1.204 -0.1271  1.9740 -0.1643
 3122SOL     OW17666   8.838   1.071   2.098  0.2998 -0.1721  0.5952
 3122SOL    HW117667   8.784   0.989   2.080  0.4307 -0.8071  2.8848
 3122SOL    HW217668   8.873   1.109   2.012 -0.9839 -1.6719 -0.5976
 3123SOL     OW17669   9.518   3.573   0.418  0.4976  0.1418 -0.0917
 3123SOL    HW117670   9.548   3.535   0.331  0.4040  0.9348 -0.4716
 3123SOL    HW217671   9.439   3.633   0.404 -0.2917 -0.6928  0.7002
 3124SOL     OW17672   0.082   1.499   0.451 -0.1944 -0.5539  0.5265
 3124SOL    HW117673   0.086   1.414   0.398  0.1573 -0.0514 -0.2525
 3124SOL    HW217674   0.092   1.577   0.390 -0.8215  0.0627  1.2055
 3125SOL     OW17675   9.198   2.660   1.372 -0.4343 -0.3274  0.4389
 3125SOL    HW117676   9.292   2.689   1.352 -1.2740  2.5178  0.3864
 3125SOL    HW217677   9.135   2.705   1.309 -2.0409 -0.2786  2.0433
 3126SOL     OW17678   4.303   8.772   0.892  0.5341 -0.1228 -0.4934
 3126SOL    HW117679   4.247   8.781   0.974 -0.6499  2.1193 -1.4860
 3126SOL    HW217680   4.257   8.712   0.827 -0.7961  1.7623 -1.3307
 3128SOL     OW17681   3.429   6.333   2.443  0.2225  0.1024  0.4256
 3128SOL    HW117682   3.352   6.357   2.501  0.0683 -0.5494  0.4875
 3128SOL    HW217683   3.441   6.405   2.373 -0.8599 -0.1228 -0.0115
 3129SOL     OW17684   2.511   9.736   2.246 -0.4619 -0.3250  0.2979
 3129SOL    HW117685   2.414   9.721   2.227 -0.6425 -0.5673  1.3807
 3129SOL    HW217686   2.521   9.816   2.305 -0.1280 -1.3158  1.5938
 3130SOL     OW17687   4.075   9.900   0.833 -0.1194  0.4057 -0.8468
 3130SOL    HW117688   4.153   9.943   0.878  0.5187  1.2136 -2.6770
 3130SOL    HW217689   4.106   9.819   0.783 -0.1095  1.6846 -2.9846
 3131SOL     OW17690   2.566   7.902   1.740 -0.0736 -0.1514  0.4104
 3131SOL    HW117691   2.504   7.972   1.777 -1.2855 -0.7523 -0.4434
 3131SOL    HW217692   2.652   7.904   1.790 -0.5957  1.0410  1.2932
 3132SOL     OW17693   2.219   9.245   2.641  0.6615 -0.0313 -0.4809
 3132SOL    HW117694   2.245   9.187   2.564 -1.9105 -1.8146 -0.0952
 3132SOL    HW217695   2.252   9.205   2.726 -0.5521 -0.6145 -0.2712
 3133SOL     OW17696   0.054   8.525   0.667 -0.4661  0.1338 -0.5587
 3133SOL    HW117697   0.088   8.464   0.596 -0.6145  2.3722 -2.6488
 3133SOL    HW217698   0.101   8.613   0.660 -1.1826  0.7009  1.5177
 3134SOL     OW17699   9.562   9.269   0.910 -0.2065  0.4650 -0.2364
 3134SOL    HW117700   9.552   9.368   0.903  2.2818  0.6228 -2.6382
 3134SOL    HW217701   9.577   9.231   0.818  0.1031 -1.9840  0.7947
 3135SOL     OW17702   1.771   7.050   0.131 -0.4749 -0.3441 -0.2258
 3135SOL    HW117703   1.676   7.046   0.099 -1.0350  0.7271  1.2115
 3135SOL    HW217704   1.774   7.027   0.228  0.7115 -0.1645 -0.2147
 3138SOL     OW17705   2.923   8.124   1.600 -0.1309 -0.4108 -0.2281
 3138SOL    HW117706   2.950   8.038   1.643  1.5703  0.0727 -0.3003
 3138SOL    HW217707   2.844   8.162   1.648 -0.8541 -1.9683 -0.1615
 3139SOL     OW17708   1.504   4.386   0.132  0.6946  0.0629 -1.0173
 3139SOL    HW117709   1.577   4.414   0.069 -0.2630  2.0354 -1.2696
 3139SOL    HW217710   1.453   4.311   0.091  1.4949 -0.1775 -1.5991
 3140SOL     OW17711   8.040   8.896   1.137 -1.2118 -0.1986 -1.0302
 3140SOL    HW117712   8.106   8.924   1.208 -1.8977 -2.8110  0.7440
 3140SOL    HW217713   7.952   8.875   1.180 -1.4628 -2.4438 -2.5475
 3141SOL     OW17714   0.154   4.089   0.690  0.1362 -0.0682 -0.0651
 3141SOL    HW117715   0.179   4.005   0.642 -0.0362 -1.1096  1.6354
 3141SOL    HW217716   0.055   4.098   0.692  0.1799  1.3203 -2.1315
 3142SOL     OW17717   3.255   2.643   1.891 -0.1022 -0.3449  0.7033
 3142SOL    HW117718   3.334   2.624   1.832  0.1828  0.4783  0.8234
 3142SOL    HW217719   3.226   2.737   1.878 -2.6680 -1.3436 -1.2677
 3143SOL     OW17720   2.942   5.339   0.061 -0.0577  0.1757 -0.4057
 3143SOL    HW117721   2.872   5.381   0.119 -0.7798 -0.8241 -0.5532
 3143SOL    HW217722   2.992   5.411   0.013 -0.0655  0.9640  0.7498
 3144SOL     OW17723   9.543   3.157   0.261  0.3542  0.0846 -0.0175
 3144SOL    HW117724   9.553   3.074   0.206 -0.9165 -1.4092  1.9928
 3144SOL    HW217725   9.561   3.237   0.203  0.1411 -1.5038 -2.3215
 3145SOL     OW17726   0.317   6.614   2.401 -0.1287  0.2426 -0.3869
 3145SOL    HW117727   0.249   6.672   2.355 -1.4651  1.0292  2.4886
 3145SOL    HW217728   0.295   6.518   2.386 -1.3360  0.4893 -0.2207
 3147SOL     OW17729   9.015   9.601   1.180 -0.3934 -0.1957  0.0087
 3147SOL    HW117730   8.998   9.567   1.087 -0.8866  0.1154 -0.0146
 3147SOL    HW217731   8.982   9.694   1.189  0.8418  0.2382  0.1241
 3149SOL     OW17732   8.621   0.730   2.315 -0.1414  0.2252  0.3068
 3149SOL    HW117733   8.710   0.759   2.348  0.7694 -0.1269 -1.7703
 3149SOL    HW217734   8.557   0.723   2.392  1.6503  0.3239  1.8266
 3151SOL     OW17735   2.931   1.877   1.104  0.8307  0.0322 -0.0959
 3151SOL    HW117736   2.877   1.800   1.070 -0.1283  0.2307  0.9730
 3151SOL    HW217737   2.961   1.933   1.026  1.8464 -1.5954 -0.9134
 3152SOL     OW17738   8.519   9.293   1.033  0.1734  0.0093  0.7452
 3152SOL    HW117739   8.487   9.308   1.126  0.0555 -1.2293  0.9159
 3152SOL    HW217740   8.501   9.374   0.978 -2.6967 -0.4188  0.9999
 3153SOL     OW17741   1.992   2.413   0.978 -0.0812  0.4900 -0.1216
 3153SOL    HW117742   2.073   2.408   1.037 -1.4416 -1.9102  1.6270
 3153SOL    HW217743   1.969   2.509   0.962 -0.2658  1.2260  4.1254
 3155SOL     OW17744   0.785   7.288   0.807  0.2885 -0.0605  0.0578
 3155SOL    HW117745   0.765   7.245   0.895  2.7922  0.2874  0.8327
 3155SOL    HW217746   0.719   7.361   0.790  0.2929  0.4270  2.0504
 3156SOL     OW17747   4.018   8.541   1.741 -0.4281 -0.4611  0.0965
 3156SOL    HW117748   4.052   8.579   1.655 -2.2012 -0.6931 -0.7309
 3156SOL    HW217749   4.029   8.609   1.814 -1.2368  0.7106 -0.8490
 3157SOL     OW17750   1.019   1.772   0.793  0.1797 -0.4965 -0.4509
 3157SOL    HW117751   0.929   1.794   0.756 -0.3341 -2.1036 -0.1837
 3157SOL    HW217752   1.021   1.796   0.890  0.8147  1.6794 -0.9687
 3159SOL     OW17753   1.645   0.812   1.777 -0.4540 -0.0538 -0.4789
 3159SOL    HW117754   1.587   0.877   1.825 -1.6180 -0.5146 -1.2403
 3159SOL    HW217755   1.691   0.858   1.701  0.5487  0.4207  0.4071
 3160SOL     OW17756   8.308   5.760   0.437  0.0919  0.5074  0.7123
 3160SOL    HW117757   8.299   5.661   0.434 -0.1361  0.5220  0.8796
 3160SOL    HW217758   8.350   5.793   0.352  0.2298  0.2621  0.6874
 3162SOL     OW17759   8.337   7.048   2.370  0.2895 -0.1972  0.6123
 3162SOL    HW117760   8.360   7.049   2.272 -0.4924 -0.3844  0.4176
 3162SOL    HW217761   8.413   7.011   2.422  0.5942 -0.3875  0.0339
 3163SOL     OW17762   0.072   5.158   1.330 -0.0060 -0.3215 -0.7764
 3163SOL    HW117763   0.024   5.215   1.397  0.6157 -0.2898 -0.3566
 3163SOL    HW217764   0.165   5.192   1.318  0.8046 -2.0318  0.4635
 3165SOL     OW17765   1.776   9.607   1.385 -0.2468  0.1018  0.3917
 3165SOL    HW117766   1.699   9.634   1.441  0.3243  1.4495  0.5348
 3165SOL    HW217767   1.747   9.536   1.320 -1.6683  0.8439  0.2079
 3167SOL     OW17768   9.284   9.030   2.588 -0.1771 -0.2419  0.0942
 3167SOL    HW117769   9.187   9.010   2.605 -0.1874  0.3679  0.7659
 3167SOL    HW217770   9.337   9.006   2.669  0.0095  1.0285  0.3496
 3168SOL     OW17771   8.787   9.079   1.622  0.1124  0.4403  0.1265
 3168SOL    HW117772   8.783   9.068   1.522 -1.0980  2.1401 -0.0215
 3168SOL    HW217773   8.870   9.129   1.646  0.2757  0.2505 -0.0406
 3169SOL     OW17774   3.463   7.284   0.254 -0.3587 -0.3207 -0.3894
 3169SOL    HW117775   3.557   7.313   0.272 -0.7252  0.2900  0.6363
 3169SOL    HW217776   3.437   7.309   0.161  0.2890  0.0715 -0.4690
 3170SOL     OW17777   9.904   6.803   2.407 -0.3968 -0.6143  0.1703
 3170SOL    HW117778   9.815   6.797   2.362 -0.8985  1.5103  0.8060
 3170SOL    HW217779   9.894   6.850   2.494  1.6173  1.2760 -0.5736
 3171SOL     OW17780   4.954   8.152   2.049 -0.5497 -0.5051  0.0834
 3171SOL    HW117781   4.985   8.057   2.046 -0.9869 -0.6424 -0.3136
 3171SOL    HW217782   4.908   8.170   2.136  0.1185 -0.4637  0.4299
 3172SOL     OW17783   2.131   2.602   2.400 -0.3955 -0.2628 -0.1812
 3172SOL    HW117784   2.106   2.540   2.475  0.0739 -0.6561 -0.3443
 3172SOL    HW217785   2.227   2.627   2.409  0.7291 -3.3282 -2.7566
 3173SOL     OW17786   1.985   9.967   0.286 -0.6552  0.3821  0.4189
 3173SOL    HW117787   1.978  10.024   0.205 -0.0377 -1.5521 -1.0511
 3173SOL    HW217788   2.078   9.973   0.323 -0.2521 -0.4942 -0.4077
 3175SOL     OW17789   9.363   5.295   1.180 -0.0260  0.0447  0.1982
 3175SOL    HW117790   9.446   5.306   1.235  1.6597  0.7338 -2.3936
 3175SOL    HW217791   9.362   5.364   1.108 -2.9878  0.1679  0.2865
 3176SOL     OW17792   9.955   3.103   0.328  0.5726  0.1408  0.3367
 3176SOL    HW117793  10.035   3.103   0.267  1.0674  0.8644  0.9825
 3176SOL    HW217794   9.984   3.082   0.421 -0.3444 -2.1734  0.1548
 3177SOL     OW17795   3.441   6.539   0.797 -0.6148  0.1667  0.7440
 3177SOL    HW117796   3.355   6.552   0.846 -1.6143  3.5536 -1.7562
 3177SOL    HW217797   3.469   6.625   0.754  1.5197 -2.0590 -2.5352
 3180SOL     OW17798   0.418   7.773   1.263  0.5665  0.4103  0.1469
 3180SOL    HW117799   0.417   7.737   1.170  3.2132 -0.2325  0.3495
 3180SOL    HW217800   0.468   7.860   1.265 -1.3360  1.5439  0.6125
 3182SOL     OW17801   4.274   8.199   2.270 -0.1984  0.2489 -0.6471
 3182SOL    HW117802   4.232   8.232   2.355  0.1472  1.9351 -1.1142
 3182SOL    HW217803   4.282   8.100   2.274 -2.4950  0.0683  0.2445
 3183SOL     OW17804   0.855   0.621   0.767  0.2032 -0.6363  0.3055
 3183SOL    HW117805   0.878   0.717   0.780 -1.6864 -0.2639  1.0774
 3183SOL    HW217806   0.921   0.564   0.816 -0.3541  0.3811  2.2963
 3184SOL     OW17807   2.664   9.236   1.678  0.5748  0.3628  0.0594
 3184SOL    HW117808   2.762   9.246   1.694  0.7469 -0.7748 -0.2337
 3184SOL    HW217809   2.642   9.139   1.669 -0.4325  0.6582 -0.7236
 3185SOL     OW17810   8.497   3.359   0.275 -0.0153 -0.2465 -0.5037
 3185SOL    HW117811   8.462   3.434   0.218 -0.4827  0.4069  0.6272
 3185SOL    HW217812   8.545   3.293   0.217 -0.5462  0.3690 -1.6648
 3186SOL     OW17813   9.884   7.257   0.123 -0.1622 -0.1074  0.6084
 3186SOL    HW117814   9.837   7.189   0.180 -0.5386  1.4923  2.2745
 3186SOL    HW217815   9.835   7.267   0.037 -0.7320 -1.1563  0.7959
 3187SOL     OW17816   0.895   9.652   0.115  0.4182 -0.0548  0.6425
 3187SOL    HW117817   0.918   9.585   0.044 -1.2665 -0.6018  0.5901
 3187SOL    HW217818   0.921   9.615   0.205 -0.7588 -0.9174  0.6406
 3189SOL     OW17819   2.787   3.984   0.488  0.0782  0.1299  0.0078
 3189SOL    HW117820   2.697   3.975   0.446 -0.0529  1.1856  0.0636
 3189SOL    HW217821   2.794   3.919   0.564 -1.5079  1.6487  1.5026
 3190SOL     OW17822   0.439   8.948   1.720 -0.4008 -0.3354  0.4725
 3190SOL    HW117823   0.378   9.011   1.672 -0.5936  0.1474  1.3386
 3190SOL    HW217824   0.529   8.949   1.677 -1.2840 -1.8823 -1.5172
 3191SOL     OW17825   8.629   9.916   1.460  0.0341  0.2528 -0.1850
 3191SOL    HW117826   8.725   9.893   1.478 -0.7145 -2.1381  0.9676
 3191SOL    HW217827   8.600   9.874   1.375  0.2229  1.6676 -0.9587
 3192SOL     OW17828   0.479   4.148   0.966 -0.1142 -0.3787  0.3980
 3192SOL    HW117829   0.561   4.107   1.005  0.3596  0.2893  0.1050
 3192SOL    HW217830   0.500   4.187   0.877 -1.1460 -1.7052 -0.4460
 3193SOL     OW17831   7.423   9.248   2.597 -0.4020 -0.7068 -0.0157
 3193SOL    HW117832   7.491   9.307   2.641 -0.7955  0.0850 -0.4614
 3193SOL    HW217833   7.416   9.162   2.647 -0.2141 -0.1617  0.9552
 3194SOL     OW17834   8.778   2.035   1.109 -0.0368  0.0764 -0.0401
 3194SOL    HW117835   8.763   1.949   1.159 -1.6615  0.8801  0.8771
 3194SOL    HW217836   8.832   2.097   1.166  2.3843 -0.8136 -1.2547
 3195SOL     OW17837   1.269   6.584   0.729  0.1433 -0.3151  0.1614
 3195SOL    HW117838   1.280   6.683   0.716  0.7922 -0.3500  0.3977
 3195SOL    HW217839   1.218   6.567   0.813  0.2746 -0.1801  0.2704
 3197SOL     OW17840   1.209   8.482   1.662  0.2140 -0.0079  0.4569
 3197SOL    HW117841   1.238   8.386   1.659  0.3320  0.0520 -0.5707
 3197SOL    HW217842   1.269   8.537   1.603 -1.6925  0.1860 -1.3725
 3199SOL     OW17843   0.576   3.504   1.238 -0.1633 -0.3046  0.4814
 3199SOL    HW117844   0.489   3.472   1.276 -0.5840  0.4506  0.1832
 3199SOL    HW217845   0.642   3.429   1.235 -0.3413 -0.5246  2.0648
 3200SOL     OW17846   1.130   0.765   1.086 -0.3175  0.1325  0.1276
 3200SOL    HW117847   1.201   0.760   1.155  1.0456  1.3105 -1.1464
 3200SOL    HW217848   1.042   0.784   1.130  0.8499  2.8752  1.3875
 3202SOL     OW17849   9.515   1.665   0.589 -0.4423 -0.1159  0.4195
 3202SOL    HW117850   9.477   1.612   0.514 -0.4984  1.4063 -0.6396
 3202SOL    HW217851   9.440   1.702   0.645 -0.4686  0.7798 -0.1996
 3205SOL     OW17852   3.944   0.738   1.030  0.0947 -0.5192 -0.3164
 3205SOL    HW117853   3.951   0.834   1.004 -1.3686  0.0914  1.4119
 3205SOL    HW217854   3.907   0.685   0.954 -1.9327  0.8181 -0.2876
 3207SOL     OW17855   2.364   5.762   1.729  0.6378  0.3945 -0.1811
 3207SOL    HW117856   2.294   5.704   1.770 -0.4080  2.0867  0.5204
 3207SOL    HW217857   2.453   5.741   1.769  0.8005 -2.6396 -1.9634
 3209SOL     OW17858   1.497   2.385   2.618  0.1928  0.5196  0.0714
 3209SOL    HW117859   1.457   2.367   2.528 -0.2230 -0.3515  0.4279
 3209SOL    HW217860   1.427   2.373   2.689  0.6650  0.6337  0.5593
 3212SOL     OW17861   8.322   2.266   2.236 -0.6296 -0.2276 -0.1611
 3212SOL    HW117862   8.332   2.168   2.218 -0.3665 -0.3387  0.5726
 3212SOL    HW217863   8.361   2.287   2.326 -1.1342  0.4686 -0.1075
 3217SOL     OW17864   1.699   2.406   0.982 -0.5515  0.4462 -0.5574
 3217SOL    HW117865   1.678   2.319   1.026 -0.8943  1.1530  0.6970
 3217SOL    HW217866   1.780   2.395   0.924  0.7622 -0.1877  1.3244
 3218SOL     OW17867   0.866   7.470   0.513 -0.1197  0.5925 -0.2921
 3218SOL    HW117868   0.840   7.396   0.451  2.5434  0.9822 -1.9121
 3218SOL    HW217869   0.919   7.432   0.589 -1.5605  0.4182  0.6517
 3219SOL     OW17870   9.601   1.002   2.532  0.0941 -0.2512 -0.7155
 3219SOL    HW117871   9.655   1.055   2.466 -0.3947  0.5536 -0.4756
 3219SOL    HW217872   9.533   1.062   2.575  0.0910 -0.8832  0.1665
 3220SOL     OW17873   2.864   1.926   2.089  0.5233  0.4474 -0.5850
 3220SOL    HW117874   2.890   1.939   2.185  1.1015  0.6057 -0.7614
 3220SOL    HW217875   2.842   1.830   2.073 -0.6660  0.6170 -0.0318
 3221SOL     OW17876   8.454   0.720   0.434 -0.0225 -0.2227  0.4997
 3221SOL    HW117877   8.518   0.660   0.385 -1.1398 -1.2433  0.2672
 3221SOL    HW217878   8.461   0.703   0.532 -3.1885 -3.6882  0.2097
 3222SOL     OW17879   3.736   0.549   2.628 -0.4681 -0.0681 -0.2740
 3222SOL    HW117880   3.725   0.487   2.705  1.6623 -1.0730 -0.7372
 3222SOL    HW217881   3.717   0.500   2.543  0.1144  0.2141 -0.5704
 3223SOL     OW17882   2.792   7.031   0.043  0.2095 -0.1336 -0.8493
 3223SOL    HW117883   2.878   6.991   0.076 -0.6152 -0.8785  0.4625
 3223SOL    HW217884   2.763   7.103   0.106 -0.3451 -0.1782 -1.0514
 3224SOL     OW17885   9.381   2.116   0.024  0.9966 -0.4186 -0.5519
 3224SOL    HW117886   9.412   2.053  -0.048 -0.4674  0.1293 -1.7032
 3224SOL    HW217887   9.335   2.064   0.096  0.1399 -0.7309 -1.3074
 3227SOL     OW17888   7.873   8.867   0.209  0.2156  0.1526 -0.3868
 3227SOL    HW117889   7.828   8.808   0.142 -0.2574 -0.2675  0.2947
 3227SOL    HW217890   7.803   8.914   0.263  0.5997 -0.2093  0.4217
 3228SOL     OW17891   0.750   1.865   0.798 -0.0807 -0.0059 -0.0354
 3228SOL    HW117892   0.654   1.872   0.772 -0.2966  0.5157  0.8630
 3228SOL    HW217893   0.782   1.954   0.833  0.6934 -0.2021 -0.2334
 3229SOL     OW17894   3.247   1.695   0.683  0.0860 -0.2091 -0.8287
 3229SOL    HW117895   3.155   1.666   0.707  0.4366  0.5955  1.5717
 3229SOL    HW217896   3.242   1.778   0.627 -0.6643 -0.8008 -1.6475
 3230SOL     OW17897   0.863   0.995   2.578  0.6556  0.2620  0.8808
 3230SOL    HW117898   0.952   0.953   2.565  0.3828 -0.1566  0.3606
 3230SOL    HW217899   0.793   0.939   2.534  0.0128  0.0585  2.1329
 3233SOL     OW17900   2.653   6.939   1.969  0.0417 -0.2011  0.2278
 3233SOL    HW117901   2.554   6.932   1.974 -0.0049  0.5711  0.5717
 3233SOL    HW217902   2.695   6.881   2.038 -0.2151  0.4198  0.9139
 3234SOL     OW17903   8.077   2.364   2.375  0.2867  0.2161 -0.0411
 3234SOL    HW117904   8.146   2.313   2.323 -0.0176  0.9027 -1.1385
 3234SOL    HW217905   8.001   2.303   2.397 -0.5546  0.4183 -2.2500
 3235SOL     OW17906   9.135   8.485   0.794  0.0784  0.0445 -0.0916
 3235SOL    HW117907   9.152   8.570   0.843 -2.3986  0.7088 -0.3131
 3235SOL    HW217908   9.063   8.433   0.840  0.6850 -1.3570 -0.6625
 3237SOL     OW17909   7.839   6.963   0.067  0.2630  0.2683 -0.0596
 3237SOL    HW117910   7.862   6.866   0.080 -1.6405 -0.2324 -0.1491
 3237SOL    HW217911   7.791   6.997   0.147 -0.8450  0.5560 -0.8250
 3238SOL     OW17912   0.016   5.389   0.718 -0.4838 -0.3511  0.6551
 3238SOL    HW117913   0.004   5.369   0.815 -1.6790  0.0021  0.5806
 3238SOL    HW217914   0.002   5.306   0.665 -0.9593 -0.2926  0.6926
 3239SOL     OW17915   8.433   3.244   2.228 -0.3744 -0.3691  0.0378
 3239SOL    HW117916   8.398   3.289   2.146  0.8293 -0.6569 -0.6354
 3239SOL    HW217917   8.477   3.158   2.203  1.0806  0.1292  0.8303
 3240SOL     OW17918   3.625   9.548   1.272  0.2069 -0.6488 -0.4134
 3240SOL    HW117919   3.565   9.527   1.194 -1.8226 -3.6191  1.8495
 3240SOL    HW217920   3.586   9.625   1.323 -0.5427 -1.1640 -0.1942
 3241SOL     OW17921   2.546   6.571   1.424  0.0444 -0.0834  0.1094
 3241SOL    HW117922   2.620   6.513   1.459  0.4424  0.7280  0.6208
 3241SOL    HW217923   2.522   6.541   1.332 -0.9552 -2.1941  1.0262
 3242SOL     OW17924   2.498   2.061   0.611 -0.0206  0.5425  0.2679
 3242SOL    HW117925   2.476   2.101   0.522  0.4344  0.5178  0.1394
 3242SOL    HW217926   2.583   2.009   0.603 -1.4634 -1.8435  0.0164
 3243SOL     OW17927   0.498   1.281   0.739  0.4856 -0.3015 -0.2046
 3243SOL    HW117928   0.485   1.282   0.838  0.5014 -0.2801 -0.2028
 3243SOL    HW217929   0.469   1.193   0.702 -0.2509 -0.0334 -0.2740
 3244SOL     OW17930   3.636   3.570   2.107  0.3097  0.5855  0.2847
 3244SOL    HW117931   3.699   3.567   2.184  0.1055 -0.9484  0.4002
 3244SOL    HW217932   3.599   3.479   2.090 -0.5448  1.1339 -0.8867
 3245SOL     OW17933   1.703   4.721   1.221  0.0938  0.5281 -0.3406
 3245SOL    HW117934   1.636   4.649   1.205 -1.5681  2.2946 -1.5830
 3245SOL    HW217935   1.756   4.736   1.137 -0.2811  1.4489 -0.4168
 3246SOL     OW17936   8.999   5.364   0.795 -0.0916  0.1758  0.0279
 3246SOL    HW117937   8.926   5.418   0.837  0.5154  1.1711 -0.1793
 3246SOL    HW217938   8.997   5.271   0.832 -0.6593  0.5494  0.9589
 3247SOL     OW17939   1.389   2.880   1.737 -0.3176  0.2865 -0.3249
 3247SOL    HW117940   1.332   2.929   1.803 -1.2830  1.9783 -2.3418
 3247SOL    HW217941   1.378   2.782   1.750 -0.8815  0.5921  1.6846
 3249SOL     OW17942   2.757   2.437   0.903  0.2526 -0.0592 -0.1957
 3249SOL    HW117943   2.842   2.490   0.902 -0.1327  0.5596 -0.6407
 3249SOL    HW217944   2.685   2.491   0.946 -0.1684 -0.1856 -0.7398
 3251SOL     OW17945   2.245   7.545   1.072 -0.2438  0.4308  0.3497
 3251SOL    HW117946   2.295   7.584   0.995 -0.2307 -0.1454  0.0605
 3251SOL    HW217947   2.308   7.492   1.129 -0.3552  0.4103  0.4545
 3252SOL     OW17948   4.855   2.573   1.214  0.0554 -0.3233 -0.9512
 3252SOL    HW117949   4.894   2.561   1.306 -2.0148 -1.7309 -0.2286
 3252SOL    HW217950   4.863   2.669   1.187  0.5152  0.1472  0.7856
 3253SOL     OW17951   7.590   1.806   2.623  0.1537 -0.0587  0.7903
 3253SOL    HW117952   7.557   1.717   2.657  0.5486 -0.2260  0.7298
 3253SOL    HW217953   7.556   1.820   2.530 -0.0313 -0.0795  0.8534
 3254SOL     OW17954   8.144   9.191   0.193 -0.4833 -0.1879  0.0388
 3254SOL    HW117955   8.130   9.289   0.202  1.0947  0.1488 -0.9488
 3254SOL    HW217956   8.186   9.171   0.104  0.5169 -1.5949  0.8054
 3255SOL     OW17957   4.100   3.037   0.867  0.0351 -0.4589  0.3551
 3255SOL    HW117958   4.011   3.018   0.908  1.1643  1.1061  3.7220
 3255SOL    HW217959   4.146   2.951   0.845 -0.3012 -1.4351  3.2194
 3257SOL     OW17960   2.915   6.681   1.664  0.2561  0.1684 -0.3427
 3257SOL    HW117961   2.952   6.657   1.754  0.8200  1.0669 -0.3305
 3257SOL    HW217962   2.821   6.646   1.656  0.4205 -0.4436  0.3596
 3258SOL     OW17963   3.432   4.764   0.346 -0.0190  0.0566  0.1183
 3258SOL    HW117964   3.337   4.796   0.337  0.1677  0.5234 -0.2510
 3258SOL    HW217965   3.448   4.688   0.284  0.4571  1.4056 -1.4459
 3259SOL     OW17966   1.669   3.214   1.622 -0.0075 -0.2353  0.5829
 3259SOL    HW117967   1.725   3.236   1.542 -1.0152 -1.1250 -0.3842
 3259SOL    HW217968   1.683   3.118   1.647 -1.3334 -0.5770  0.1071
 3261SOL     OW17969   0.979   0.434   2.462 -0.4082  0.0120  0.6289
 3261SOL    HW117970   0.956   0.521   2.505  0.1451  1.3139 -1.6048
 3261SOL    HW217971   0.895   0.390   2.429 -0.7227 -0.4838  2.0663
 3262SOL     OW17972   2.547   8.141   0.924  0.3497  0.3791 -0.1904
 3262SOL    HW117973   2.583   8.157   1.015 -1.5253 -0.9713  0.8235
 3262SOL    HW217974   2.470   8.202   0.907 -0.3761 -0.5302 -0.2045
 3264SOL     OW17975   6.261   9.665   2.627  0.4268 -0.4886  0.2096
 3264SOL    HW117976   6.239   9.708   2.715  0.1923 -2.0811  0.9331
 3264SOL    HW217977   6.345   9.612   2.636  1.6366  1.1405 -1.1229
 3265SOL     OW17978   8.484   1.658   0.113  0.0798 -0.3329  0.0970
 3265SOL    HW117979   8.469   1.682   0.017 -2.4395 -1.9314  0.0430
 3265SOL    HW217980   8.420   1.709   0.170 -1.0688 -2.2068  0.5333
 3268SOL     OW17981   2.022   9.288   1.055 -0.1111 -0.1225 -0.5203
 3268SOL    HW117982   2.078   9.225   1.109  0.7051  0.8793 -0.1637
 3268SOL    HW217983   2.030   9.266   0.958 -0.1498 -0.8068 -0.3728
 3270SOL     OW17984   3.667   8.605   0.123 -0.0327 -0.3228  0.0100
 3270SOL    HW117985   3.764   8.580   0.125  0.1610  0.4354  0.3818
 3270SOL    HW217986   3.613   8.528   0.089  0.7269 -0.6610 -0.4355
 3271SOL     OW17987   8.944   4.483   0.394  0.4430  0.1568  0.2019
 3271SOL    HW117988   8.907   4.494   0.486  1.3229  2.1916  0.3537
 3271SOL    HW217989   8.920   4.563   0.339 -2.8029 -2.4310 -2.3379
 3272SOL     OW17990   4.296   5.517   0.482 -0.4952  0.0231 -0.3952
 3272SOL    HW117991   4.299   5.457   0.561 -1.6392 -0.7116 -0.9072
 3272SOL    HW217992   4.371   5.494   0.420  0.8102  1.0383  0.7687
 3274SOL     OW17993   0.961   0.024   2.037 -0.1986 -0.2846 -0.1835
 3274SOL    HW117994   1.011  -0.015   2.115 -0.1165  2.0042  0.9601
 3274SOL    HW217995   1.023   0.079   1.982 -0.8133  0.1493 -0.4450
 3275SOL     OW17996   4.390   8.288   1.474  0.0390 -0.3588  0.4252
 3275SOL    HW117997   4.333   8.369   1.484  1.2888  0.5557  0.2589
 3275SOL    HW217998   4.458   8.286   1.547  0.4195 -0.9148  0.0583
 3276SOL     OW17999   9.883   1.774   1.585  0.0002  0.6678  0.1159
 3276SOL    HW118000   9.891   1.874   1.588  1.2428  0.5426  1.7051
 3276SOL    HW218001   9.804   1.746   1.640 -0.2939  0.7499 -0.2555
 3277SOL     OW18002   3.902   9.852   2.466 -0.1069 -0.1073 -0.3620
 3277SOL    HW118003   3.989   9.857   2.416  0.7068 -1.6662  0.8423
 3277SOL    HW218004   3.836   9.799   2.413  0.4587 -0.9790 -0.2071
 3278SOL     OW18005   3.141   2.929   0.237  0.4928 -0.0565  0.0155
 3278SOL    HW118006   3.044   2.954   0.237  0.7547  0.9999  0.2372
 3278SOL    HW218007   3.193   2.996   0.290  1.2589 -0.9803  0.4613
 3280SOL     OW18008   1.327   4.080   0.345  0.2745 -0.1144  0.3168
 3280SOL    HW118009   1.367   4.104   0.256  0.9075 -1.0359  0.3543
 3280SOL    HW218010   1.397   4.041   0.404 -0.6412 -1.6282  0.4279
 3282SOL     OW18011   0.554   6.403   1.583 -0.1625  0.0001  0.3941
 3282SOL    HW118012   0.518   6.490   1.547 -0.0352 -0.4532 -0.8790
 3282SOL    HW218013   0.509   6.327   1.536  0.5327 -0.6040  0.7009
 3283SOL     OW18014   8.121   2.662   0.674  0.2588 -0.3004 -0.3756
 3283SOL    HW118015   8.123   2.755   0.710  0.5034  0.3631 -2.0698
 3283SOL    HW218016   8.212   2.621   0.683  0.0818 -0.4929  0.6396
 3284SOL     OW18017   2.276   2.005   2.506 -0.4275  0.4045 -0.9143
 3284SOL    HW118018   2.333   1.960   2.437 -0.6253  1.1366 -1.5628
 3284SOL    HW218019   2.290   2.104   2.501  0.4480  0.3811  0.8976
 3285SOL     OW18020   0.332   4.683   0.682 -0.2492 -0.0922 -0.1583
 3285SOL    HW118021   0.422   4.720   0.703 -0.7284  1.1709 -0.2707
 3285SOL    HW218022   0.322   4.673   0.583 -1.3047  2.6218 -0.3632
 3287SOL     OW18023   1.027   5.214   0.655  0.0496  0.0679  0.0822
 3287SOL    HW118024   1.029   5.182   0.560  0.7031 -0.5104  0.2862
 3287SOL    HW218025   1.120   5.231   0.687 -0.0284 -1.2871  1.1205
 3288SOL     OW18026   2.274   5.001   1.721 -0.8662 -0.0725 -0.3971
 3288SOL    HW118027   2.303   5.038   1.809  0.0970 -0.4317 -0.5534
 3288SOL    HW218028   2.276   4.901   1.725  1.9676 -0.1172 -1.6870
 3290SOL     OW18029   8.054   2.332   1.201  0.2596 -0.2509  0.0461
 3290SOL    HW118030   8.019   2.397   1.268  2.1601 -0.4765  1.3072
 3290SOL    HW218031   8.135   2.370   1.156  0.7002 -1.2586 -0.0387
 3291SOL     OW18032   7.783   1.031   1.867  0.2000  0.0348 -0.3408
 3291SOL    HW118033   7.875   1.068   1.857  0.2676 -0.0107  0.1152
 3291SOL    HW218034   7.786   0.931   1.860  0.3332 -0.0401  0.7574
 3292SOL     OW18035   1.161   8.832   1.426  0.3843 -0.3222 -0.4444
 3292SOL    HW118036   1.226   8.898   1.465  0.2763  0.8659 -2.1745
 3292SOL    HW218037   1.079   8.881   1.397 -0.9581 -1.7020  0.9933
 3293SOL     OW18038   0.959   8.176   1.332 -0.3398  0.0058  0.5813
 3293SOL    HW118039   1.024   8.100   1.342  0.2217  0.3814 -0.1320
 3293SOL    HW218040   1.008   8.263   1.333 -0.6650  0.2325 -1.3010
 3295SOL     OW18041   2.699   0.046   0.997  0.0852 -0.5266 -0.1264
 3295SOL    HW118042   2.618   0.100   0.974  0.3325  0.2171  0.7049
 3295SOL    HW218043   2.692  -0.044   0.955  0.0409  0.4208 -2.1781
 3296SOL     OW18044   3.660   4.620   2.254 -0.0978 -0.0783  0.0840
 3296SOL    HW118045   3.689   4.576   2.169 -2.2556 -1.2014 -0.1083
 3296SOL    HW218046   3.660   4.719   2.242  3.2959 -0.0401  0.0201
 3297SOL     OW18047   9.146   2.346   0.936 -0.5381  0.2560 -0.1655
 3297SOL    HW118048   9.233   2.375   0.897  1.4955 -2.8995  1.7523
 3297SOL    HW218049   9.103   2.279   0.876 -0.4475 -0.0048  0.0599
 3300SOL     OW18050   8.239   2.563   1.480  0.0796  0.0696  0.3212
 3300SOL    HW118051   8.264   2.659   1.482 -0.7271  0.3015  4.0052
 3300SOL    HW218052   8.292   2.513   1.549 -2.1576 -1.3614  1.0679
 3301SOL     OW18053   4.313   8.572   0.300  0.2422 -0.5608  0.1236
 3301SOL    HW118054   4.249   8.631   0.350 -0.9173 -1.6784  0.0026
 3301SOL    HW218055   4.343   8.497   0.360 -0.8520 -1.6851 -0.6919
 3302SOL     OW18056   2.045   3.376   1.241  0.2817  0.2057  0.2241
 3302SOL    HW118057   1.997   3.406   1.159  1.1127 -0.5752 -0.5691
 3302SOL    HW218058   2.083   3.456   1.288 -2.0261  0.8566  1.0422
 3303SOL     OW18059   3.400   7.991   1.323 -0.4564 -0.2792  0.3392
 3303SOL    HW118060   3.371   7.973   1.229 -0.0417 -0.4905  0.2490
 3303SOL    HW218061   3.495   8.022   1.323  0.0983 -1.8938  0.8208
 3304SOL     OW18062   0.570   7.979   2.160  0.5009 -0.2820 -0.3893
 3304SOL    HW118063   0.532   8.024   2.078  0.7296  0.1100 -0.2844
 3304SOL    HW218064   0.639   8.039   2.200 -0.0156 -0.2189  0.4191
 3305SOL     OW18065   2.926   9.086   1.256  0.6795 -0.5701  0.7316
 3305SOL    HW118066   2.973   9.059   1.340  0.7630  0.8729  1.1524
 3305SOL    HW218067   2.846   9.027   1.243  2.8595 -3.4563 -0.3140
 3307SOL     OW18068   3.808   4.032   0.836 -0.0992 -0.0538 -0.4842
 3307SOL    HW118069   3.808   4.002   0.741 -1.4715  0.1176 -0.5487
 3307SOL    HW218070   3.731   4.094   0.852  0.4096  0.3135  0.6158
 3308SOL     OW18071   7.798   0.324   2.358 -0.5562  0.4381  0.2211
 3308SOL    HW118072   7.864   0.379   2.408  1.0446 -0.9592 -0.2860
 3308SOL    HW218073   7.812   0.336   2.259 -1.9106  1.1223  0.1107
 3310SOL     OW18074   2.236   6.430   0.607  0.2408 -0.0993  0.2298
 3310SOL    HW118075   2.263   6.341   0.646 -1.1020 -1.2137 -1.3186
 3310SOL    HW218076   2.276   6.440   0.516 -1.3905 -0.1095 -0.5163
 3311SOL     OW18077   4.258   8.366   1.765  0.3735 -0.1181  0.1112
 3311SOL    HW118078   4.260   8.466   1.772  0.1291 -0.0712 -0.4106
 3311SOL    HW218079   4.232   8.327   1.853 -2.6611  0.4180 -0.5080
 3314SOL     OW18080   2.679   2.884   1.732  0.1428  0.1956 -0.5246
 3314SOL    HW118081   2.613   2.829   1.682  0.0696 -0.4805  0.3077
 3314SOL    HW218082   2.768   2.878   1.687 -0.4536  1.4335 -1.8716
 3316SOL     OW18083   0.577   2.757   1.874 -0.1122  0.6143 -0.6559
 3316SOL    HW118084   0.517   2.714   1.807  0.9150  0.1817 -1.3151
 3316SOL    HW218085   0.650   2.694   1.900 -0.6369  0.6979  1.0597
 3317SOL     OW18086   4.679   1.366   1.153 -0.3261 -1.0732  0.1603
 3317SOL    HW118087   4.607   1.427   1.186 -0.8711 -1.9578  0.6308
 3317SOL    HW218088   4.768   1.399   1.183 -0.4592  0.4740 -1.1050
 3318SOL     OW18089   8.257   2.381   1.002  0.3950  0.3038  0.3188
 3318SOL    HW118090   8.184   2.434   0.959 -0.4494  0.1199  1.5112
 3318SOL    HW218091   8.342   2.394   0.951 -0.8701 -0.9870 -2.2265
 3319SOL     OW18092   0.535   2.877   0.179  0.6273  0.0756 -0.6104
 3319SOL    HW118093   0.546   2.825   0.094  0.3222  0.1447 -0.6907
 3319SOL    HW218094   0.599   2.954   0.179  0.1609  0.4640 -1.0717
 3321SOL     OW18095   0.677   0.683   0.076 -0.0009  0.4200 -0.5848
 3321SOL    HW118096   0.663   0.587   0.051 -1.0645  0.4127  0.0095
 3321SOL    HW218097   0.726   0.730   0.002  1.0755 -0.7166 -0.6219
 3322SOL     OW18098   3.215   5.929   0.050  0.8879 -0.1079  0.0930
 3322SOL    HW118099   3.168   5.878   0.123  0.5434  0.6735  0.4211
 3322SOL    HW218100   3.176   5.904  -0.038  0.8838 -0.5945  0.2313
 3323SOL     OW18101   2.533   4.462   2.390 -0.4692  0.2409 -0.1756
 3323SOL    HW118102   2.502   4.367   2.381 -1.6094  0.6100 -0.1177
 3323SOL    HW218103   2.611   4.477   2.329  0.2395 -0.9516  0.4047
 3326SOL     OW18104   2.820   1.479   0.261 -0.4144  0.4557  0.1488
 3326SOL    HW118105   2.747   1.410   0.268 -0.4598  0.5504  0.6182
 3326SOL    HW218106   2.903   1.435   0.227 -0.1006 -0.0974  1.5458
 3330SOL     OW18107   4.393   0.453   1.515 -0.5189  0.3483  0.0066
 3330SOL    HW118108   4.484   0.487   1.490 -1.1675  0.8335 -1.8456
 3330SOL    HW218109   4.342   0.527   1.559  0.1368 -0.0611  1.4558
 3332SOL     OW18110   9.194   3.871   1.715  0.1943 -0.0232 -0.5478
 3332SOL    HW118111   9.232   3.778   1.713  0.6315  0.1587 -0.9106
 3332SOL    HW218112   9.247   3.927   1.780 -0.1002 -0.0400 -0.2927
 3333SOL     OW18113   0.367   5.307   0.417  0.0272 -0.5221  0.4223
 3333SOL    HW118114   0.441   5.374   0.420  0.2330 -0.7955  2.6952
 3333SOL    HW218115   0.351   5.271   0.509 -0.9489 -2.6566 -0.5490
 3335SOL     OW18116   1.079   8.165   0.545 -0.3293  0.6810  0.2461
 3335SOL    HW118117   1.065   8.193   0.640 -1.1171  1.9730 -0.2323
 3335SOL    HW218118   1.176   8.143   0.531  0.0329  1.7088  1.0300
 3336SOL     OW18119   4.271   0.991   1.618 -0.5370  0.3392 -0.1641
 3336SOL    HW118120   4.189   0.967   1.669  0.9790  0.1288  2.2824
 3336SOL    HW218121   4.299   1.084   1.641 -0.6526  0.7841 -1.7740
 3337SOL     OW18122   8.284   1.242   1.889 -0.7564 -0.4153 -0.0819
 3337SOL    HW118123   8.348   1.305   1.932 -1.8206  0.7465 -0.1679
 3337SOL    HW218124   8.318   1.148   1.897  1.3415  0.2680 -0.8322
 3338SOL     OW18125   1.027   6.387   1.968  0.8496  0.2010 -0.4116
 3338SOL    HW118126   1.029   6.425   1.876  0.3495  1.3915  0.0530
 3338SOL    HW218127   1.027   6.462   2.035 -0.6444 -0.5972  0.5163
 3339SOL     OW18128   7.747   0.535   0.547 -0.2266 -0.3310 -0.2038
 3339SOL    HW118129   7.676   0.489   0.602  1.2726 -2.0586  0.3220
 3339SOL    HW218130   7.836   0.520   0.589  0.4268  2.2023 -0.6343
 3340SOL     OW18131   3.850   8.744   0.329 -0.0880 -0.2839  0.1921
 3340SOL    HW118132   3.882   8.683   0.257 -0.1611 -0.0553 -0.0336
 3340SOL    HW218133   3.802   8.691   0.399 -1.5193 -0.2929 -0.7716
 3341SOL     OW18134   1.768   0.059   0.418 -0.2537 -0.5355 -0.0051
 3341SOL    HW118135   1.852   0.028   0.374 -0.2782 -0.4733 -0.0939
 3341SOL    HW218136   1.739   0.146   0.378 -0.2466 -0.4538  0.1674
 3342SOL     OW18137   8.359   8.925   0.519  0.3094  0.1994  0.3006
 3342SOL    HW118138   8.390   8.830   0.523  1.7709  0.5833 -1.2883
 3342SOL    HW218139   8.418   8.977   0.457 -2.3540  1.4052 -1.3131
 3343SOL     OW18140   1.020   4.833   1.340 -0.4162 -0.2118  0.1836
 3343SOL    HW118141   1.060   4.918   1.307  1.5783 -1.5909 -1.0803
 3343SOL    HW218142   1.080   4.792   1.409 -0.3213 -1.6184 -0.7125
 3344SOL     OW18143   0.578   9.343   1.445 -0.3965 -0.2054  0.1346
 3344SOL    HW118144   0.631   9.266   1.409  1.0390  1.0761 -0.5518
 3344SOL    HW218145   0.567   9.333   1.544 -0.6842 -1.5579 -0.0264
 3345SOL     OW18146   3.903   0.933   0.572 -0.3561  0.2676  0.1387
 3345SOL    HW118147   3.833   0.905   0.638 -1.6948 -0.1629 -1.4056
 3345SOL    HW218148   3.958   0.854   0.546  0.3057  0.4806  0.9044
 3346SOL     OW18149   1.570   9.186   1.429  0.2370 -0.5305  0.2858
 3346SOL    HW118150   1.648   9.135   1.465  1.0918  1.6458  1.6146
 3346SOL    HW218151   1.601   9.257   1.366 -0.7617 -0.3239  0.0074
 3347SOL     OW18152   4.571   1.725   1.683  0.5677  0.5652 -0.2224
 3347SOL    HW118153   4.661   1.766   1.667  1.2557 -1.1646 -0.9102
 3347SOL    HW218154   4.522   1.717   1.597 -0.3232  1.6288  0.1721
 3348SOL     OW18155   4.113   3.306   0.491 -0.1902 -0.0258 -0.3913
 3348SOL    HW118156   4.177   3.274   0.561  1.8923  0.1061 -2.1637
 3348SOL    HW218157   4.042   3.362   0.534  2.2764  1.8734  1.3913
 3349SOL     OW18158   3.716   0.489   1.442  0.5698  0.4511 -0.1752
 3349SOL    HW118159   3.808   0.525   1.427  0.2364  2.3871  2.0963
 3349SOL    HW218160   3.684   0.517   1.532 -1.7481 -1.3215 -0.4079
 3350SOL     OW18161   0.448   9.370   1.694 -0.0642 -0.1040  0.1075
 3350SOL    HW118162   0.438   9.374   1.794 -0.5020  1.1814  0.0168
 3350SOL    HW218163   0.421   9.457   1.654  2.1875  0.1237 -0.9806
 3351SOL     OW18164   9.135   3.475   1.717 -0.1216  0.0208 -0.3775
 3351SOL    HW118165   9.067   3.445   1.784  0.7163 -2.9184 -0.7912
 3351SOL    HW218166   9.200   3.401   1.700  0.2435  1.0514 -3.7450
 3352SOL     OW18167   7.928   2.798   1.276 -0.2801  0.2426 -0.6903
 3352SOL    HW118168   7.941   2.841   1.366 -0.7793 -0.5487 -0.2305
 3352SOL    HW218169   7.965   2.705   1.279  0.7183  0.6003 -1.6529
 3353SOL     OW18170   8.479   1.822   0.469 -0.4558  0.9437  0.1011
 3353SOL    HW118171   8.403   1.875   0.505  0.3346  1.6267  0.7620
 3353SOL    HW218172   8.457   1.724   0.473 -0.9068  1.0894  1.1888
 3354SOL     OW18173   0.836   9.653   0.867 -0.1430 -0.3741  0.1484
 3354SOL    HW118174   0.782   9.727   0.907 -1.1651  0.4637 -2.7148
 3354SOL    HW218175   0.906   9.624   0.933  0.4297  3.2602  1.2237
 3355SOL     OW18176   0.015   9.224   0.326  0.3783 -0.0449 -0.4662
 3355SOL    HW118177  -0.031   9.312   0.316 -0.2894 -0.2791  0.3930
 3355SOL    HW218178   0.013   9.175   0.240 -0.1346  0.3606 -0.6874
 3356SOL     OW18179   1.163   1.275   2.113  0.2995 -0.0701  1.1163
 3356SOL    HW118180   1.107   1.196   2.137 -0.6908 -0.4055 -2.0962
 3356SOL    HW218181   1.110   1.359   2.126 -0.8869 -0.3618 -1.4820
 3357SOL     OW18182   8.283   3.930   0.189 -0.6268 -0.2790  0.6447
 3357SOL    HW118183   8.204   3.871   0.171 -0.8427  0.4426 -0.9588
 3357SOL    HW218184   8.263   3.989   0.268 -1.8493  0.1304  0.0508
 3358SOL     OW18185   9.491   0.498   2.081 -0.1929 -0.2318  0.3078
 3358SOL    HW118186   9.525   0.553   2.157  1.3632  0.6524 -0.9796
 3358SOL    HW218187   9.479   0.403   2.110 -0.6970  0.3261  1.9412
 3360SOL     OW18188   7.121   8.936   1.752 -0.1868  0.1943 -0.5141
 3360SOL    HW118189   7.029   8.926   1.714  0.4258  1.1568 -2.2965
 3360SOL    HW218190   7.165   8.846   1.755 -0.8708 -0.1470 -0.4346
 3364SOL     OW18191   1.762   6.363   1.772 -0.2217 -0.0916  0.0923
 3364SOL    HW118192   1.786   6.339   1.866 -0.3638  1.8564  0.6377
 3364SOL    HW218193   1.770   6.462   1.759 -1.3925 -0.1931 -1.6101
 3365SOL     OW18194   9.186   1.314   2.087  0.3012 -0.0865  0.0175
 3365SOL    HW118195   9.231   1.398   2.116 -1.0717  0.3360  0.9875
 3365SOL    HW218196   9.123   1.284   2.159 -0.4914 -1.0021 -1.0523
 3366SOL     OW18197   2.419   1.133   1.468  0.5647 -0.3650  0.3702
 3366SOL    HW118198   2.433   1.067   1.542 -1.5306 -0.5520  0.6301
 3366SOL    HW218199   2.416   1.085   1.380  2.2182 -0.2404  0.2427
 3372SOL     OW18200   5.011   7.779   2.432 -0.1850 -0.3516  0.0421
 3372SOL    HW118201   4.962   7.812   2.512  0.2271 -2.4130  1.1746
 3372SOL    HW218202   5.078   7.848   2.403  0.8217 -0.2574  2.4754
 3373SOL     OW18203   1.328   3.085   1.228  0.5089  0.6745 -0.0296
 3373SOL    HW118204   1.404   3.039   1.181  0.9429 -0.3422  1.6483
 3373SOL    HW218205   1.363   3.135   1.307 -0.4556  0.9474  0.2300
 3374SOL     OW18206   2.369   1.411   1.584 -0.6259  0.7233  0.0187
 3374SOL    HW118207   2.397   1.321   1.550 -3.5554 -0.0774 -0.3864
 3374SOL    HW218208   2.414   1.482   1.531  0.4295 -0.4926 -0.7503
 3375SOL     OW18209   4.083   2.896   0.521  1.0014 -0.4194 -0.0722
 3375SOL    HW118210   4.115   2.853   0.437  2.2387 -0.6561  0.5115
 3375SOL    HW218211   4.160   2.914   0.582  0.2291  0.5582  0.6529
 3376SOL     OW18212   9.663   8.594   0.038 -0.0801  0.0194 -0.4027
 3376SOL    HW118213   9.618   8.684   0.037 -1.3566 -0.5969 -2.7757
 3376SOL    HW218214   9.745   8.599   0.095 -1.2023  2.1479  1.0998
 3378SOL     OW18215   2.720   3.649   0.511 -0.0122 -0.1295 -0.1280
 3378SOL    HW118216   2.819   3.654   0.501  0.2348 -1.0850  1.7445
 3378SOL    HW218217   2.688   3.558   0.483 -0.2136 -0.2233  0.4036
 3379SOL     OW18218   8.475   9.364   0.256  0.2830  0.1427 -0.0812
 3379SOL    HW118219   8.574   9.376   0.241  0.2160  1.5620  0.4964
 3379SOL    HW218220   8.425   9.393   0.174  0.3736 -1.2028 -0.6171
 3381SOL     OW18221   1.798   0.123   1.512  0.3234 -0.2124 -0.3026
 3381SOL    HW118222   1.823   0.198   1.449  1.5846 -1.6892 -1.6171
 3381SOL    HW218223   1.724   0.070   1.473  1.4332 -1.4261 -0.7986
 3382SOL     OW18224   8.627   8.204   0.241 -0.0731 -0.0896  0.3114
 3382SOL    HW118225   8.565   8.209   0.320  0.3579 -0.5677  0.6831
 3382SOL    HW218226   8.713   8.163   0.269 -0.0350 -0.5772 -0.4828
 3383SOL     OW18227   0.782   1.876   0.508 -0.3619  0.1623  0.0400
 3383SOL    HW118228   0.767   1.900   0.604 -0.7701  0.8344 -0.1872
 3383SOL    HW218229   0.793   1.777   0.500  0.8210  0.2131  0.9301
 3384SOL     OW18230   3.526   5.416   1.540  0.4852  0.0385 -0.7544
 3384SOL    HW118231   3.440   5.371   1.563  1.9860 -2.7920 -0.4597
 3384SOL    HW218232   3.526   5.509   1.576 -2.5338  0.1724 -0.9919
 3385SOL     OW18233   4.381   2.874   0.651  0.0634  0.5986 -0.1509
 3385SOL    HW118234   4.430   2.792   0.623  0.7230  1.3072 -1.1067
 3385SOL    HW218235   4.441   2.933   0.704  0.5398  1.8385 -1.9888
 3386SOL     OW18236   8.292   4.026   0.488  0.2476  0.3279 -0.8568
 3386SOL    HW118237   8.231   4.106   0.482 -0.2924 -0.0764 -0.7390
 3386SOL    HW218238   8.355   4.038   0.565 -1.4144 -0.4553  0.6392
 3387SOL     OW18239   1.377   7.233   0.107  0.2476 -0.2872 -0.1162
 3387SOL    HW118240   1.444   7.306   0.121  0.9474 -0.8262 -0.6352
 3387SOL    HW218241   1.425   7.147   0.091 -0.5715 -0.6692 -0.5261
 3388SOL     OW18242   1.170   5.746   1.057 -0.3198  0.5236 -0.0190
 3388SOL    HW118243   1.256   5.703   1.083 -0.5304  0.0414 -0.1046
 3388SOL    HW218244   1.095   5.707   1.110 -0.3750  1.5800  0.6993
 3389SOL     OW18245   7.778   8.918   1.591 -0.0222  0.1950 -0.3022
 3389SOL    HW118246   7.844   8.909   1.665 -0.6496 -1.1059  0.1299
 3389SOL    HW218247   7.817   8.971   1.516  0.0449  2.9550  1.6191
 3390SOL     OW18248   5.917   9.094   2.461  0.2092 -0.1404 -0.4298
 3390SOL    HW118249   5.983   9.053   2.524  1.0237 -1.4133 -2.0934
 3390SOL    HW218250   5.964   9.141   2.387 -0.7452  0.6777 -0.5330
 3392SOL     OW18251   8.280   7.283   1.856  0.6755 -0.2990 -0.0604
 3392SOL    HW118252   8.218   7.231   1.914  0.0327 -1.7816 -1.9860
 3392SOL    HW218253   8.370   7.289   1.899 -0.2365  0.0806  1.8162
 3393SOL     OW18254   8.025   1.134   1.253 -0.5540 -0.0417 -0.2599
 3393SOL    HW118255   8.051   1.057   1.194  1.2087  0.4123 -0.0878
 3393SOL    HW218256   8.009   1.215   1.197 -0.2357  0.0361 -0.2370
 3394SOL     OW18257   3.126   5.809   0.274  0.5668  0.1294 -0.4171
 3394SOL    HW118258   3.095   5.736   0.334  0.4116 -0.1327 -0.8179
 3394SOL    HW218259   3.179   5.875   0.327  0.2900 -0.0141  0.0421
 3395SOL     OW18260   4.141   1.240   2.249  0.0667  0.0678 -0.0327
 3395SOL    HW118261   4.222   1.292   2.221  1.0660 -1.1393  0.6228
 3395SOL    HW218262   4.097   1.286   2.326 -0.1106  0.9311 -0.6311
 3396SOL     OW18263   0.207   1.316   0.989 -0.4588 -0.2289 -0.2713
 3396SOL    HW118264   0.139   1.294   0.919 -0.6856  0.2711 -0.2136
 3396SOL    HW218265   0.241   1.232   1.030 -0.4828 -0.5145 -0.8348
 3397SOL     OW18266   2.378   8.413   2.551  0.2306 -0.1833 -0.3719
 3397SOL    HW118267   2.398   8.511   2.542  3.0798 -0.6952 -0.2589
 3397SOL    HW218268   2.380   8.387   2.647 -0.2971 -0.4100 -0.4195
 3398SOL     OW18269   3.483   3.328   2.576 -0.4631  0.1888  0.2013
 3398SOL    HW118270   3.450   3.347   2.484 -0.0249  2.3673  0.4823
 3398SOL    HW218271   3.583   3.335   2.578 -0.3960 -0.7873  0.6360
 3399SOL     OW18272   9.990   2.821   1.472 -0.1169  0.0845  0.3555
 3399SOL    HW118273  10.017   2.892   1.408 -1.4252  1.3885  1.2101
 3399SOL    HW218274   9.947   2.746   1.422 -1.7128  1.3765 -0.2523
 3401SOL     OW18275   8.408   2.013   1.245  0.5782 -0.2493  0.1844
 3401SOL    HW118276   8.378   1.960   1.324  0.1745 -2.2797 -1.2746
 3401SOL    HW218277   8.495   2.059   1.266 -0.0427  0.0730  2.1220
 3402SOL     OW18278   7.253   8.787   2.599 -0.4756 -0.2973  0.0313
 3402SOL    HW118279   7.234   8.689   2.590  0.8544 -0.4526 -1.2237
 3402SOL    HW218280   7.264   8.827   2.508  1.2679  0.5586  0.6041
 3403SOL     OW18281   9.220   0.350   1.413  0.4247 -0.2710 -0.0063
 3403SOL    HW118282   9.142   0.381   1.359 -0.7149  0.0207  1.7481
 3403SOL    HW218283   9.216   0.392   1.504  1.6355 -1.6594  0.7043
 3404SOL     OW18284   8.514   2.037   1.607 -0.1064  0.1897  0.2118
 3404SOL    HW118285   8.537   1.971   1.678 -0.7182 -0.7636 -0.4672
 3404SOL    HW218286   8.421   2.019   1.573 -0.7869  2.1864  0.9164
 3405SOL     OW18287   1.366   9.169   2.015 -0.0916  0.1533 -0.4568
 3405SOL    HW118288   1.425   9.224   2.073  0.1517  0.5697 -1.0996
 3405SOL    HW218289   1.319   9.228   1.949 -3.4214  0.2657  1.8433
 3406SOL     OW18290   2.745   6.647   0.071 -0.0915  0.0656  0.3359
 3406SOL    HW118291   2.713   6.552   0.068 -3.2443  1.0635  1.3930
 3406SOL    HW218292   2.767   6.677  -0.022 -0.8121 -1.1046 -0.2267
 3407SOL     OW18293   8.281   5.500   0.560  0.5409  0.0641  0.0889
 3407SOL    HW118294   8.216   5.541   0.624  1.1410  3.2540 -1.2349
 3407SOL    HW218295   8.355   5.456   0.612 -0.6412 -0.2080  1.5772
 3409SOL     OW18296   2.109   0.904   0.784 -0.4500 -0.3924  0.0275
 3409SOL    HW118297   2.086   0.874   0.876 -0.2866 -1.8583 -0.3950
 3409SOL    HW218298   2.182   0.972   0.788 -2.7632  2.1644  1.1923
 3410SOL     OW18299   3.513   3.357   0.427 -0.1016 -0.1275 -0.4306
 3410SOL    HW118300   3.452   3.385   0.353  1.0810  0.1932 -1.3081
 3410SOL    HW218301   3.607   3.379   0.402  0.2321  0.9123  1.5964
 3411SOL     OW18302   8.536   6.419   1.041 -0.1080  0.1941 -0.0064
 3411SOL    HW118303   8.582   6.358   1.106  0.1211  2.7918  2.3402
 3411SOL    HW218304   8.602   6.449   0.972  0.5538  0.2215  0.6277
 3413SOL     OW18305   9.107   1.048   0.433  0.0579  0.4406 -0.2363
 3413SOL    HW118306   9.102   1.062   0.532 -0.1910  1.9698 -0.4580
 3413SOL    HW218307   9.058   1.122   0.386  1.1279  0.3415 -1.5445
 3414SOL     OW18308   7.869   2.273   1.666 -0.6467  0.0192 -0.4375
 3414SOL    HW118309   7.964   2.244   1.673  0.2733  2.9753 -0.0027
 3414SOL    HW218310   7.822   2.251   1.752 -0.0243 -0.2890 -0.1701
 3415SOL     OW18311   4.157   8.949   1.291  0.4315 -0.2412 -0.0096
 3415SOL    HW118312   4.159   8.859   1.248 -0.0278 -0.2555 -0.0062
 3415SOL    HW218313   4.250   8.981   1.306  0.6197 -1.6400  1.9433
 3416SOL     OW18314   0.311   7.706   1.501 -0.2051 -0.0137  0.2036
 3416SOL    HW118315   0.356   7.720   1.412 -0.8933 -0.4905 -0.2203
 3416SOL    HW218316   0.374   7.658   1.562  1.2144  2.5036  0.8134
 3417SOL     OW18317   1.273   8.696   2.428 -0.3545  0.3572 -0.0580
 3417SOL    HW118318   1.300   8.791   2.409 -0.8531  0.7398  1.1368
 3417SOL    HW218319   1.196   8.695   2.491  0.2763 -0.8701  0.7104
 3418SOL     OW18320   7.420   9.400   1.517 -0.0215 -0.1040 -0.0406
 3418SOL    HW118321   7.329   9.374   1.547 -0.4745  0.4216 -0.9319
 3418SOL    HW218322   7.431   9.499   1.523  0.5928 -0.1880  0.3313
 3419SOL     OW18323   2.649   4.928   1.861 -0.4076  0.3961 -0.4139
 3419SOL    HW118324   2.628   4.845   1.809  0.4236  0.5685 -1.0297
 3419SOL    HW218325   2.572   4.951   1.920 -0.2147 -1.4707  0.6148
 3420SOL     OW18326   3.793   3.404   2.607 -0.3622  0.0442  0.4327
 3420SOL    HW118327   3.864   3.334   2.597 -1.4038 -1.2250  1.7736
 3420SOL    HW218328   3.833   3.488   2.643  0.2162 -1.1341  2.5788
 3421SOL     OW18329   2.177   6.355   0.144  0.0110 -0.0465  0.1876
 3421SOL    HW118330   2.258   6.412   0.128 -0.9889  1.4401  0.3711
 3421SOL    HW218331   2.113   6.364   0.068  0.7821 -2.6337 -0.8352
 3422SOL     OW18332   2.380   7.626   0.830 -0.1547  0.5716  0.0129
 3422SOL    HW118333   2.310   7.651   0.763  0.0079  0.3276 -0.2529
 3422SOL    HW218334   2.425   7.708   0.864 -1.7423  0.8482  1.4634
 3423SOL     OW18335   3.485   0.502   0.341 -0.4289 -0.1628 -0.9225
 3423SOL    HW118336   3.510   0.597   0.356  1.2749 -0.6568 -0.4742
 3423SOL    HW218337   3.462   0.459   0.428 -3.9041  0.5271 -1.4246
 3425SOL     OW18338   4.273   7.597   1.073 -0.3711 -0.0165 -0.0825
 3425SOL    HW118339   4.202   7.528   1.091  1.3867 -1.3696  1.8169
 3425SOL    HW218340   4.242   7.686   1.108 -1.0541 -0.6402  0.9231
 3428SOL     OW18341   0.236   6.779   1.603 -0.1837 -0.3283 -0.2919
 3428SOL    HW118342   0.214   6.783   1.506 -0.2375 -0.5622 -0.2886
 3428SOL    HW218343   0.264   6.870   1.635 -1.3706  0.0296 -0.2461
 3431SOL     OW18344   2.383   7.821   1.214  0.0917  0.4533 -0.3357
 3431SOL    HW118345   2.284   7.835   1.224  0.0764  0.1813 -0.0822
 3431SOL    HW218346   2.423   7.804   1.304  0.6064  2.0244 -0.2635
 3432SOL     OW18347   8.092   2.237   0.544 -0.1098 -0.0464  0.0735
 3432SOL    HW118348   8.077   2.163   0.478  0.1625  0.0132 -0.0589
 3432SOL    HW218349   8.164   2.209   0.608 -0.3752 -0.1040  0.3440
 3434SOL     OW18350   2.615   3.768   1.726  0.1902 -0.2234 -0.2023
 3434SOL    HW118351   2.621   3.807   1.634 -1.7770  1.0087  0.1724
 3434SOL    HW218352   2.636   3.839   1.793  0.6526 -0.8829  0.3549
 3437SOL     OW18353   0.998   1.957   1.764 -0.0617 -0.2777  0.3538
 3437SOL    HW118354   1.048   1.996   1.842 -0.5793  1.3695 -0.1221
 3437SOL    HW218355   1.061   1.947   1.687 -0.1326  0.4986  0.1896
 3439SOL     OW18356   3.039   2.101   0.964 -0.1814  0.4850  0.9847
 3439SOL    HW118357   3.051   2.173   0.895  0.7002 -0.8360 -0.2659
 3439SOL    HW218358   3.065   2.136   1.053  0.2093  1.7316  0.3934
 3440SOL     OW18359   2.497   5.362   0.452  0.5021  0.2715 -0.0957
 3440SOL    HW118360   2.465   5.418   0.529  0.4184 -1.2944  1.0503
 3440SOL    HW218361   2.417   5.326   0.403  0.4351 -2.6824  2.0565
 3441SOL     OW18362   2.270   6.294   2.029 -0.0963 -0.2578  0.3416
 3441SOL    HW118363   2.211   6.227   1.984 -0.7531 -0.1876  1.0913
 3441SOL    HW218364   2.360   6.253   2.044 -0.2310 -0.6791  0.0254
 3442SOL     OW18365   0.560   1.672   0.075 -0.1294  0.2921 -0.1204
 3442SOL    HW118366   0.559   1.675   0.175  2.1148  2.8315 -0.1058
 3442SOL    HW218367   0.590   1.760   0.040 -2.0658 -0.1786 -3.1079
 3443SOL     OW18368   8.863   1.094   2.475 -0.3744 -0.3778 -0.9681
 3443SOL    HW118369   8.844   1.133   2.565 -0.6106 -0.2816 -1.0588
 3443SOL    HW218370   8.923   1.155   2.424  1.7207 -1.5723  0.0225
 3444SOL     OW18371   7.632   0.444   1.485 -0.3653  0.5247  0.9339
 3444SOL    HW118372   7.572   0.521   1.507 -2.2304  0.1733 -2.5302
 3444SOL    HW218373   7.577   0.361   1.471  1.1676 -0.4086  0.2192
 3445SOL     OW18374   1.387   7.795   1.584  0.2258  0.5514  0.4646
 3445SOL    HW118375   1.420   7.746   1.503 -2.4399 -0.5423  0.0054
 3445SOL    HW218376   1.466   7.820   1.641  2.1336  1.1678 -2.3144
 3446SOL     OW18377   7.305   9.903   0.561 -0.1209 -0.2247  0.2350
 3446SOL    HW118378   7.386   9.864   0.605  0.7120  2.0101  0.7125
 3446SOL    HW218379   7.319   9.906   0.462 -0.3206 -1.4113  0.1624
 3447SOL     OW18380   0.573   1.606   2.277 -0.4291  0.5047  0.1215
 3447SOL    HW118381   0.542   1.548   2.352  0.4579  0.5673  0.5427
 3447SOL    HW218382   0.586   1.700   2.310  0.5995  0.3901  0.0554
 3448SOL     OW18383   1.747   8.722   0.471  0.3257 -0.0310 -0.3719
 3448SOL    HW118384   1.652   8.751   0.488  0.6650  1.6139 -1.1812
 3448SOL    HW218385   1.761   8.710   0.373  0.4684 -2.0899 -0.1213
 3449SOL     OW18386   0.645   9.372   2.356  0.3534  0.7038 -0.4881
 3449SOL    HW118387   0.610   9.278   2.353 -0.0377  0.8949 -1.8063
 3449SOL    HW218388   0.583   9.429   2.410  0.0775  0.4290 -0.5167
 3450SOL     OW18389   8.569   7.014   1.190 -0.3673 -0.0787  0.2367
 3450SOL    HW118390   8.471   7.020   1.175 -0.4644  0.4076  1.0219
 3450SOL    HW218391   8.616   7.085   1.138 -0.2906 -1.2378 -1.3090
 3451SOL     OW18392   0.434   2.486   0.932 -0.4398 -0.0250 -0.0133
 3451SOL    HW118393   0.414   2.580   0.959 -0.3391  0.0346 -0.1449
 3451SOL    HW218394   0.349   2.433   0.933 -0.9640  0.7048 -2.4419
 3452SOL     OW18395   3.282   5.266   0.779 -0.7089  0.0604  0.2443
 3452SOL    HW118396   3.352   5.240   0.846  0.5598 -0.5793 -1.2832
 3452SOL    HW218397   3.230   5.185   0.752 -0.1719  0.0098 -0.6813
 3453SOL     OW18398   1.531   4.960   2.651 -0.2871 -0.0609  0.0937
 3453SOL    HW118399   1.581   4.950   2.737 -0.1805  1.4554  0.2152
 3453SOL    HW218400   1.454   5.022   2.664 -0.3800  0.0302 -0.8666
 3454SOL     OW18401   2.070   0.970   1.272  0.0329 -0.2584 -0.0850
 3454SOL    HW118402   2.067   1.069   1.283 -0.4172 -0.4657  1.7092
 3454SOL    HW218403   2.108   0.928   1.354  0.3724 -1.5693 -0.8983
 3455SOL     OW18404   1.729   9.014   0.787 -0.7223  0.4525 -0.0956
 3455SOL    HW118405   1.817   8.980   0.753 -1.5462 -0.7910 -1.0169
 3455SOL    HW218406   1.699   9.092   0.731 -0.6247  0.3210 -0.3309
 3456SOL     OW18407   8.732   6.535   2.682 -0.6982 -0.0198 -0.1980
 3456SOL    HW118408   8.715   6.447   2.725 -0.1192 -0.6147 -1.1661
 3456SOL    HW218409   8.709   6.530   2.585 -1.9238  1.2825 -0.0084
 3457SOL     OW18410   2.999   1.339   2.429 -0.1426 -0.7049  0.6712
 3457SOL    HW118411   3.090   1.334   2.387 -0.1877 -3.1653  0.7724
 3457SOL    HW218412   2.990   1.265   2.496 -2.0211 -0.1140  1.0942
 3458SOL     OW18413   3.218   9.588   0.137  0.0852 -0.0642 -0.1749
 3458SOL    HW118414   3.133   9.541   0.115  1.8591 -4.1611  1.0466
 3458SOL    HW218415   3.201   9.685   0.154 -4.2078 -0.7110 -0.4227
 3459SOL     OW18416   7.439   0.184   2.338 -0.0535 -0.1812  0.3266
 3459SOL    HW118417   7.392   0.150   2.257 -1.7867  0.6240  0.9678
 3459SOL    HW218418   7.477   0.274   2.319 -0.4849  0.0204  0.4016
 3460SOL     OW18419   3.601   6.160   2.556  0.2822 -0.1345 -0.2261
 3460SOL    HW118420   3.660   6.102   2.501 -0.3537  0.0766 -1.1390
 3460SOL    HW218421   3.548   6.220   2.497  0.4823  0.9492  0.6787
 3461SOL     OW18422   2.238   5.284   0.395  0.5375  0.6045  0.1624
 3461SOL    HW118423   2.204   5.268   0.487  1.2239 -1.8784  0.0300
 3461SOL    HW218424   2.162   5.305   0.334  0.1119  2.5350  1.3230
 3462SOL     OW18425   0.385   7.256   0.758 -0.4736  0.2198 -0.0372
 3462SOL    HW118426   0.423   7.265   0.666  1.1430  1.3931  0.7172
 3462SOL    HW218427   0.287   7.238   0.752 -0.3429  0.0249 -1.9879
 3463SOL     OW18428   2.042   7.863   1.003  0.0967  0.0740 -0.6804
 3463SOL    HW118429   1.977   7.846   1.078  0.5984 -0.5789 -0.3821
 3463SOL    HW218430   2.042   7.785   0.941  0.1753  0.3226 -0.9935
 3464SOL     OW18431   1.963   1.041   0.177  0.6036  0.8104  0.3796
 3464SOL    HW118432   2.026   1.043   0.099  0.2683 -1.0532  0.0313
 3464SOL    HW218433   1.869   1.050   0.145  0.3911 -0.9465  0.4350
 3465SOL     OW18434   7.849   2.701   1.021  0.4616 -0.0469 -0.4130
 3465SOL    HW118435   7.871   2.783   0.969 -0.4655 -0.9587 -2.3014
 3465SOL    HW218436   7.848   2.722   1.119  0.8342  2.0278 -0.8420
 3466SOL     OW18437   2.475   2.643   0.888  0.1469  0.3631 -0.1392
 3466SOL    HW118438   2.539   2.640   0.811 -0.1150  0.7241 -0.3707
 3466SOL    HW218439   2.479   2.733   0.931 -0.4144  0.4758 -0.3276
 3467SOL     OW18440   3.624   8.842   1.432 -0.1701  0.2856 -0.3249
 3467SOL    HW118441   3.538   8.792   1.444  0.3016 -0.6004 -0.5734
 3467SOL    HW218442   3.652   8.836   1.337  1.2848 -1.3061  0.1768
 3468SOL     OW18443   0.927   6.008   2.630 -0.4395  0.4366  0.7613
 3468SOL    HW118444   0.983   5.947   2.686 -0.6584  0.6440  1.2096
 3468SOL    HW218445   0.973   6.096   2.621  0.6461 -0.2931 -1.2230
 3469SOL     OW18446   8.139   8.978   0.358 -0.3645 -0.1301 -0.3768
 3469SOL    HW118447   8.220   8.974   0.416  0.7991 -0.1360 -1.9885
 3469SOL    HW218448   8.136   9.065   0.310 -3.4095  1.5433  2.5987
 3470SOL     OW18449   0.218   7.854   1.861 -0.3558  0.0862 -0.4796
 3470SOL    HW118450   0.168   7.931   1.821 -1.3554  0.4027  1.3440
 3470SOL    HW218451   0.164   7.813   1.934  1.7730  0.0672  1.1383
 3471SOL     OW18452   2.059   0.844   1.036 -0.1004  0.7257 -0.1063
 3471SOL    HW118453   2.050   0.746   1.053 -1.7086  1.1012  1.4650
 3471SOL    HW218454   2.058   0.893   1.124  3.3669  1.9792 -0.7141
 3473SOL     OW18455   9.979   9.980   2.282 -0.4548 -0.1830 -0.2268
 3473SOL    HW118456   9.923  10.057   2.251 -1.3571  0.0149  1.8159
 3473SOL    HW218457   9.973   9.906   2.215 -1.9719  0.4096 -0.7814
 3474SOL     OW18458   7.457   9.935   2.078 -0.2428 -0.2857  0.1633
 3474SOL    HW118459   7.550   9.954   2.112  0.5206 -1.3354 -1.2916
 3474SOL    HW218460   7.462   9.903   1.983 -2.0320 -1.2959  0.3883
 3475SOL     OW18461   7.351   9.309   2.123 -0.5900 -0.1087 -0.2730
 3475SOL    HW118462   7.380   9.217   2.095  1.2812  0.2186  0.5398
 3475SOL    HW218463   7.291   9.302   2.203  0.8873 -0.5486  0.8185
 3477SOL     OW18464   1.549   5.780   2.479  0.2583  0.8674  0.4782
 3477SOL    HW118465   1.614   5.854   2.462  1.1782 -0.0651 -0.1228
 3477SOL    HW218466   1.596   5.705   2.526  0.1791 -0.7339 -1.9136
 3478SOL     OW18467   2.153   2.174   2.136  0.7287 -0.4098  0.0498
 3478SOL    HW118468   2.183   2.268   2.124  1.4715 -0.6653 -0.1129
 3478SOL    HW218469   2.197   2.115   2.067 -0.6711 -0.6790 -0.6357
 3479SOL     OW18470   0.811   3.840   2.147 -0.1353  0.2146 -0.1625
 3479SOL    HW118471   0.909   3.851   2.161  0.1665 -1.8758 -0.3864
 3479SOL    HW218472   0.795   3.801   2.056 -1.0967 -0.4932  0.2990
 3480SOL     OW18473   9.352   6.032   0.072  0.0596 -0.0521 -1.0447
 3480SOL    HW118474   9.266   6.054   0.117 -0.2506 -0.4179 -1.4616
 3480SOL    HW218475   9.427   6.077   0.121 -0.3428  0.1095 -0.5688
 3481SOL     OW18476   0.719   1.081   0.490 -0.3501 -0.3326 -0.1997
 3481SOL    HW118477   0.806   1.041   0.463  0.0355 -0.1577  0.7603
 3481SOL    HW218478   0.727   1.181   0.491 -0.0650 -0.3639  1.5074
 3483SOL     OW18479   2.885   7.702   2.087  0.0741  0.1164 -0.6063
 3483SOL    HW118480   2.975   7.722   2.125 -0.3281  0.0197  0.4258
 3483SOL    HW218481   2.860   7.607   2.110 -0.6992  0.4530 -0.0257
 3484SOL     OW18482   1.783   2.352   2.516 -0.5590  0.0695 -0.2689
 3484SOL    HW118483   1.696   2.358   2.565  0.6418 -2.1147  2.2557
 3484SOL    HW218484   1.793   2.261   2.476  1.5603 -0.5037  1.4608
 3487SOL     OW18485   1.601   7.976   0.224 -0.4113 -0.0255 -0.0936
 3487SOL    HW118486   1.658   7.924   0.287  0.1210  0.6646  0.0053
 3487SOL    HW218487   1.544   8.039   0.276 -0.1128  0.4074 -0.2845
 3489SOL     OW18488   4.747   0.791   2.204 -0.1149  0.3562 -0.1294
 3489SOL    HW118489   4.650   0.810   2.219 -0.4376 -0.5642 -1.0202
 3489SOL    HW218490   4.775   0.713   2.260  0.0529  0.4568 -0.0716
 3490SOL     OW18491   5.017   2.109   1.109  0.3121 -0.6864 -0.0080
 3490SOL    HW118492   5.050   2.203   1.105 -2.8502  0.5286  0.4822
 3490SOL    HW218493   4.983   2.090   1.201 -1.2216 -1.4859 -0.7180
 3492SOL     OW18494   2.255   8.399   1.116 -0.0554  0.3780  0.1991
 3492SOL    HW118495   2.276   8.382   1.020 -0.3566  0.8836  0.0431
 3492SOL    HW218496   2.210   8.319   1.155  0.6041 -0.0608  0.0842
 3493SOL     OW18497   3.445   1.820   0.067  0.3143  0.1879  0.2787
 3493SOL    HW118498   3.477   1.915   0.058  1.5788 -0.1756  0.9008
 3493SOL    HW218499   3.510   1.768   0.123 -0.5439 -0.9679  0.2065
 3494SOL     OW18500   1.743   6.693   1.207  1.0333  0.0671 -0.2893
 3494SOL    HW118501   1.686   6.726   1.132  1.3134 -0.6408 -0.8153
 3494SOL    HW218502   1.822   6.753   1.217  1.7904 -0.7009 -1.5553
 3496SOL     OW18503   9.904   1.131   0.101 -0.4821 -0.0717 -0.0652
 3496SOL    HW118504   9.971   1.056   0.093 -0.5194  0.1248 -2.5246
 3496SOL    HW218505   9.812   1.093   0.111 -0.6608 -0.4341 -2.6278
 3497SOL     OW18506   2.059   6.174   1.768  0.0816 -0.2151  0.3160
 3497SOL    HW118507   1.966   6.151   1.797  0.3315 -0.5045  0.8746
 3497SOL    HW218508   2.054   6.241   1.694 -0.5062  2.2224  2.4954
 3498SOL     OW18509   3.719   0.895   2.005 -0.0529 -0.4292 -0.4539
 3498SOL    HW118510   3.701   0.971   1.943  2.7460 -0.3784 -1.2696
 3498SOL    HW218511   3.732   0.930   2.098  0.0717 -0.0501 -0.6149
 3499SOL     OW18512   8.952   5.163   1.667 -0.4975 -0.3278 -0.0731
 3499SOL    HW118513   9.003   5.083   1.699  0.4578  0.1401 -0.4133
 3499SOL    HW218514   8.993   5.197   1.582 -0.0589  1.3597  0.8095
 3500SOL     OW18515   3.167   2.899   1.899 -0.3357  0.2153 -0.5341
 3500SOL    HW118516   3.070   2.877   1.910  0.0656 -0.9624  0.7721
 3500SOL    HW218517   3.176   2.989   1.857 -1.9894  0.7593  0.2385
 3501SOL     OW18518   0.249   0.873   0.801 -0.5012 -0.2357  0.6757
 3501SOL    HW118519   0.197   0.823   0.870  2.7431 -3.3947  0.9989
 3501SOL    HW218520   0.231   0.834   0.711 -1.0689  0.7380  0.3604
 3502SOL     OW18521   0.031   2.086   1.970 -0.5396  0.2638 -0.1664
 3502SOL    HW118522  -0.031   2.023   2.018  0.6287 -0.2440  0.7128
 3502SOL    HW218523   0.073   2.038   1.893 -0.1302  0.1542  0.1232
 3503SOL     OW18524   1.965   8.165   2.178  0.4343 -0.2328 -0.0877
 3503SOL    HW118525   2.033   8.189   2.247  0.3939  0.4042 -0.2743
 3503SOL    HW218526   1.873   8.175   2.215  0.2509  3.9212 -1.4069
 3504SOL     OW18527   9.313   3.020   1.543  0.0208 -0.0763  0.2837
 3504SOL    HW118528   9.272   3.030   1.452  0.4942  0.6666  0.1490
 3504SOL    HW218529   9.402   2.975   1.535  0.5493  0.9658  0.2615
 3505SOL     OW18530   9.997   1.615   0.069  0.1464 -0.4508  0.0695
 3505SOL    HW118531  10.014   1.517   0.055 -0.5569 -0.9205  2.3116
 3505SOL    HW218532  10.003   1.663  -0.019  2.9284 -2.1108 -0.6876
 3506SOL     OW18533   2.305   9.766   1.058  0.1443 -0.1914  0.2082
 3506SOL    HW118534   2.397   9.729   1.042  1.1736  2.2081  0.2314
 3506SOL    HW218535   2.253   9.764   0.973  0.6317 -0.5002 -0.0847
 3507SOL     OW18536   3.313   7.206   1.633  0.1797 -0.4446 -0.0617
 3507SOL    HW118537   3.214   7.217   1.626  0.4197  2.1745 -0.0170
 3507SOL    HW218538   3.340   7.118   1.596 -2.1285 -1.0513 -0.3752
 3508SOL     OW18539   3.549   0.731   2.675  0.3380 -0.2208  0.3780
 3508SOL    HW118540   3.626   0.671   2.652  0.9408 -0.4103  2.7707
 3508SOL    HW218541   3.465   0.677   2.681 -0.0306 -0.0159 -2.2251
 3509SOL     OW18542   9.673   2.357   0.899  0.3411 -0.1770  0.5103
 3509SOL    HW118543   9.700   2.343   0.995 -0.2229 -0.9746  0.5526
 3509SOL    HW218544   9.736   2.422   0.856 -1.0486  2.4088  2.2160
 3510SOL     OW18545   2.608   1.601   1.019  0.1495  0.0291 -0.7346
 3510SOL    HW118546   2.523   1.614   1.070 -0.7894  0.3901 -2.3919
 3510SOL    HW218547   2.603   1.517   0.966  0.7853  0.1158 -0.9348
 3511SOL     OW18548   2.578   7.407   0.808 -0.2241  0.1089  0.3427
 3511SOL    HW118549   2.505   7.473   0.825 -1.6902 -1.8446  1.8302
 3511SOL    HW218550   2.629   7.391   0.892  0.4753 -0.2454 -0.1407
 3512SOL     OW18551   3.114   9.227   0.752  0.1144 -0.2242  0.2057
 3512SOL    HW118552   3.185   9.201   0.687 -0.5824 -1.8876  0.0789
 3512SOL    HW218553   3.039   9.272   0.704  0.1478 -0.3457  0.0424
 3513SOL     OW18554   0.844   1.059   1.608  0.0914  0.2272  0.0819
 3513SOL    HW118555   0.771   0.991   1.621  1.9230 -1.1004  4.2838
 3513SOL    HW218556   0.926   1.013   1.573  1.0219  0.4122  1.9687
 3515SOL     OW18557   3.377   7.721   0.168 -0.7186  0.2812  0.2557
 3515SOL    HW118558   3.324   7.653   0.220  0.4603  0.5688  1.8889
 3515SOL    HW218559   3.449   7.759   0.227  0.5712  0.7334 -1.5621
 3516SOL     OW18560   9.549   1.805   0.226  0.2743  0.3147  0.2137
 3516SOL    HW118561   9.549   1.901   0.254  0.8390  0.3413  0.1361
 3516SOL    HW218562   9.625   1.758   0.270  0.3049  0.0255 -0.1498
 3517SOL     OW18563   7.120   9.387   1.966  0.2042  0.5300 -0.4843
 3517SOL    HW118564   7.199   9.358   2.020  0.5615  0.4132 -1.0655
 3517SOL    HW218565   7.110   9.486   1.973 -0.4659  0.3734  0.7612
 3518SOL     OW18566   2.127   3.112   1.533 -0.6506 -0.2079 -0.0659
 3518SOL    HW118567   2.185   3.193   1.531 -1.9674  0.7627  0.4422
 3518SOL    HW218568   2.159   3.046   1.465  1.7976 -0.2307  1.0780
 3520SOL     OW18569   0.311   9.791   0.710  0.0539  0.5516 -0.1809
 3520SOL    HW118570   0.360   9.848   0.776 -2.8914  1.6368  1.1872
 3520SOL    HW218571   0.306   9.697   0.743 -2.8846  1.4280  2.1150
 3521SOL     OW18572   7.616   1.740   1.965 -0.2524  0.0077  0.3343
 3521SOL    HW118573   7.633   1.815   2.029 -0.2943  1.0804 -0.9070
 3521SOL    HW218574   7.529   1.755   1.918 -1.5918 -2.1822  1.9802
 3522SOL     OW18575   0.564   3.469   1.660  0.1480  0.2824 -0.0680
 3522SOL    HW118576   0.467   3.472   1.683  0.1369 -1.1649  0.1229
 3522SOL    HW218577   0.584   3.539   1.591 -0.6153  1.9251  1.3403
 3523SOL     OW18578   0.693   8.830   0.111 -0.1948  0.4789  0.0756
 3523SOL    HW118579   0.625   8.761   0.135  0.0220 -0.0608 -0.8448
 3523SOL    HW218580   0.658   8.888   0.038  0.5210 -0.1023 -0.7321
 3524SOL     OW18581   9.861   3.746   1.491  0.3278  0.2680 -0.2072
 3524SOL    HW118582   9.897   3.826   1.444  0.3089 -0.2088 -1.0434
 3524SOL    HW218583   9.767   3.730   1.461  0.1690  0.2072  0.3174
 3525SOL     OW18584   7.835   9.733   1.913 -0.4231  0.2250 -0.3277
 3525SOL    HW118585   7.910   9.789   1.877  0.0627 -0.6572 -0.7132
 3525SOL    HW218586   7.836   9.643   1.868 -1.0290 -0.1901  0.4708
 3527SOL     OW18587   1.964   2.841   1.821  0.8508  0.0637 -0.2238
 3527SOL    HW118588   1.890   2.821   1.757  2.1258 -0.9409 -1.4273
 3527SOL    HW218589   1.942   2.923   1.873 -0.8786  0.0540 -0.9012
 3528SOL     OW18590   0.051   6.428   2.256 -0.4386  0.1965  0.5663
 3528SOL    HW118591   0.034   6.463   2.164 -0.4870  0.3092  0.6183
 3528SOL    HW218592  -0.008   6.475   2.322 -0.2178  0.3036  0.6918
 3531SOL     OW18593   1.708   9.846   2.016 -0.4281 -0.2355  0.3379
 3531SOL    HW118594   1.629   9.816   1.963 -0.0926 -2.6923  1.1822
 3531SOL    HW218595   1.679   9.909   2.088 -1.3103  0.5379 -0.6806
 3532SOL     OW18596   8.827   2.098   2.671 -0.2346  0.2656 -0.2135
 3532SOL    HW118597   8.816   2.192   2.637  1.0109  0.2930 -0.5508
 3532SOL    HW218598   8.856   2.101   2.767 -0.3026  0.2299 -0.1920
 3533SOL     OW18599   8.680   0.195   1.830  0.1385 -0.4253  0.0588
 3533SOL    HW118600   8.740   0.206   1.750 -1.1367  2.2584 -0.6009
 3533SOL    HW218601   8.734   0.207   1.913  0.9818 -0.4570 -0.4740
 3534SOL     OW18602   4.470   9.523   0.330 -0.5953  0.1624 -0.4872
 3534SOL    HW118603   4.503   9.504   0.237 -1.3533 -1.0534 -0.5334
 3534SOL    HW218604   4.538   9.494   0.396 -0.5896 -0.2005 -0.6451
 3535SOL     OW18605   7.352   1.092   0.707 -0.0118  0.0655  0.2732
 3535SOL    HW118606   7.337   1.172   0.648  0.7891 -0.9066 -1.2788
 3535SOL    HW218607   7.399   1.021   0.655 -0.6636 -1.4051  1.6706
 3537SOL     OW18608   2.518   2.846   1.120  0.2010 -0.2990  0.5252
 3537SOL    HW118609   2.570   2.900   1.054 -0.7871  0.0688  0.0302
 3537SOL    HW218610   2.435   2.896   1.146 -1.8157 -2.4045 -1.5466
 3539SOL     OW18611   3.132   9.637   2.516  0.3590  0.2142  0.4112
 3539SOL    HW118612   3.079   9.624   2.432  1.8224  2.0806 -0.8743
 3539SOL    HW218613   3.197   9.712   2.502  0.7575  0.4335  3.1760
 3540SOL     OW18614   1.878   9.178   2.293 -0.4709  0.2996  0.1758
 3540SOL    HW118615   1.872   9.113   2.217 -0.1362  0.5157 -0.0372
 3540SOL    HW218616   1.961   9.232   2.283 -1.4524  1.7271 -0.4234
 3542SOL     OW18617   9.524   0.910   0.258  0.0201 -0.3713  0.2967
 3542SOL    HW118618   9.574   0.886   0.175  1.2244  0.3929  0.7962
 3542SOL    HW218619   9.426   0.900   0.241  0.3047 -1.3613 -0.8513
 3544SOL     OW18620   0.936   1.065   2.112 -0.2118 -0.6816  0.1830
 3544SOL    HW118621   0.899   1.106   2.029  0.5542  1.4930  0.8645
 3544SOL    HW218622   0.875   1.083   2.189 -0.8755 -2.6105  0.1321
 3547SOL     OW18623   2.751   8.294   2.686 -0.1699 -0.3067  0.4883
 3547SOL    HW118624   2.660   8.300   2.727  0.0493 -0.8264  1.0601
 3547SOL    HW218625   2.771   8.379   2.637 -0.8495 -0.0782  0.6014
 3548SOL     OW18626   2.089   0.330   1.055 -0.1511 -0.2176  0.0081
 3548SOL    HW118627   1.993   0.303   1.048 -0.1757 -0.2394  0.4583
 3548SOL    HW218628   2.145   0.265   1.004 -0.2895 -0.6830  0.4468
 3549SOL     OW18629   1.217   7.336   2.172 -0.3352  0.2443 -0.0924
 3549SOL    HW118630   1.156   7.307   2.246  1.1455 -0.3963  0.9028
 3549SOL    HW218631   1.251   7.428   2.190 -3.1065  1.7367 -2.0269
 3550SOL     OW18632   0.626   2.883   1.102 -0.4333 -0.8343  0.7954
 3550SOL    HW118633   0.699   2.909   1.165 -0.7451  2.0308  0.0575
 3550SOL    HW218634   0.653   2.802   1.051  1.9333 -0.2650  1.0901
 3551SOL     OW18635   4.165   1.295   1.777 -0.0759  0.3677  0.0385
 3551SOL    HW118636   4.145   1.392   1.767 -1.1044  0.1456 -0.1056
 3551SOL    HW218637   4.132   1.264   1.867 -1.2690 -0.2160 -0.5894
 3552SOL     OW18638   8.256   3.809   0.900  0.1889  0.0742 -0.1029
 3552SOL    HW118639   8.168   3.789   0.855  0.6013  0.2299 -0.9902
 3552SOL    HW218640   8.331   3.792   0.836  0.9362 -1.8819  1.2729
 3553SOL     OW18641   8.580   7.354   1.339 -0.7020  0.1810 -0.3015
 3553SOL    HW118642   8.492   7.369   1.383  0.0582  0.8370  1.0264
 3553SOL    HW218643   8.620   7.268   1.372 -0.0677  0.7425  0.3840
 3554SOL     OW18644   6.315   9.277   2.159  0.1797  0.0111 -0.2054
 3554SOL    HW118645   6.229   9.259   2.207 -0.3860  0.1073 -1.1669
 3554SOL    HW218646   6.387   9.295   2.226 -0.2487 -1.3753  0.6570
 3555SOL     OW18647   9.473   5.347   1.556 -0.3886 -0.2561  0.1194
 3555SOL    HW118648   9.411   5.425   1.564 -0.2108  0.1384 -1.9270
 3555SOL    HW218649   9.528   5.357   1.473  2.1962 -0.7554  1.6868
 3556SOL     OW18650   9.099   5.402   0.524  0.0446 -0.5955  0.3565
 3556SOL    HW118651   9.058   5.396   0.615 -4.1865 -0.3639 -1.4058
 3556SOL    HW218652   9.067   5.485   0.478  0.2689 -1.8466 -2.1745
 3557SOL     OW18653   0.071   6.186   1.420  0.1313 -0.1299  0.0857
 3557SOL    HW118654   0.105   6.092   1.408 -0.8409 -0.4357 -0.3476
 3557SOL    HW218655  -0.010   6.199   1.363  0.3850  1.0458 -0.0132
 3558SOL     OW18656   3.303   0.651   2.642  0.4306 -0.1793 -0.0308
 3558SOL    HW118657   3.232   0.628   2.708  0.8592  2.7199  1.5484
 3558SOL    HW218658   3.262   0.667   2.553 -0.6008 -0.8482  0.3204
 3559SOL     OW18659   0.311   5.690   2.484 -0.1809 -0.1715  0.2839
 3559SOL    HW118660   0.216   5.658   2.475 -1.0168  2.2368  0.2625
 3559SOL    HW218661   0.322   5.774   2.431  2.1603 -0.7825 -0.2327
 3560SOL     OW18662   4.598   3.894   2.493 -0.1909  0.0782 -0.2097
 3560SOL    HW118663   4.521   3.868   2.552  0.3036  1.1508  0.9359
 3560SOL    HW218664   4.564   3.917   2.402 -0.8664 -2.4667 -0.6451
 3561SOL     OW18665   9.286   4.352   2.462 -0.7793 -0.0416 -0.2512
 3561SOL    HW118666   9.267   4.441   2.422  4.4465  1.0985 -0.6578
 3561SOL    HW218667   9.326   4.292   2.393 -1.0757 -1.5365  0.8469
 3563SOL     OW18668   8.496   7.743   1.488  0.5965 -0.5208 -0.3281
 3563SOL    HW118669   8.516   7.655   1.531 -1.4964 -1.1618 -0.5883
 3563SOL    HW218670   8.438   7.797   1.549 -0.5335 -0.5262 -1.3813
 3564SOL     OW18671   2.810   1.647   2.380 -0.3552  0.5476  0.0681
 3564SOL    HW118672   2.893   1.607   2.341 -0.7957  0.6973 -1.0290
 3564SOL    HW218673   2.730   1.605   2.339 -0.8268  1.0896  0.4220
 3565SOL     OW18674   8.837   5.128   1.193 -0.2040  0.4122 -0.1053
 3565SOL    HW118675   8.803   5.215   1.227 -1.5082  0.0188 -0.3700
 3565SOL    HW218676   8.806   5.054   1.252 -2.9615 -0.3289 -2.3780
 3566SOL     OW18677   4.280   9.196   1.420  0.1383 -0.1215  0.3535
 3566SOL    HW118678   4.197   9.251   1.427  0.2144 -0.1039  1.2115
 3566SOL    HW218679   4.305   9.162   1.511  1.5699  0.5987  0.2398
 3567SOL     OW18680   3.268   8.026   1.080  0.2148 -0.4000  0.0226
 3567SOL    HW118681   3.236   8.030   0.986  0.8213 -0.8091 -0.2064
 3567SOL    HW218682   3.225   7.948   1.126 -1.5581  0.9222  0.6568
 3569SOL     OW18683   7.989   1.431   2.046  0.3147  0.8265 -0.0620
 3569SOL    HW118684   8.014   1.388   2.133  0.3929  1.5261  0.2603
 3569SOL    HW218685   7.890   1.447   2.044  0.4221  1.5297  0.2226
 3572SOL     OW18686   2.501   4.137   1.379  0.1467  0.2917 -0.2701
 3572SOL    HW118687   2.408   4.117   1.409 -0.5247 -0.1015 -2.5510
 3572SOL    HW218688   2.516   4.100   1.288  2.5840  0.2674  0.0942
 3573SOL     OW18689   8.739   3.704   2.231 -0.6158  0.1925 -0.3405
 3573SOL    HW118690   8.648   3.674   2.262 -0.4764 -2.4914 -2.3483
 3573SOL    HW218691   8.809   3.666   2.291 -0.7535  1.4151  0.6030
 3574SOL     OW18692   9.415   5.065   0.526  0.8996 -0.4196  0.3631
 3574SOL    HW118693   9.469   5.011   0.461  0.9021 -0.9373  0.7930
 3574SOL    HW218694   9.472   5.137   0.564  1.3443 -1.0659  0.9388
 3575SOL     OW18695   2.578   4.493   0.574 -0.1372 -0.3337 -0.1735
 3575SOL    HW118696   2.535   4.581   0.560 -0.3696 -0.2472  1.0954
 3575SOL    HW218697   2.553   4.431   0.499  0.2984  0.7683 -1.2402
 3576SOL     OW18698   2.291   5.530   1.341  0.1303 -0.4468 -0.2526
 3576SOL    HW118699   2.320   5.459   1.277  1.7778 -1.1306  1.1976
 3576SOL    HW218700   2.366   5.593   1.359 -1.0704  1.2160 -0.8768
 3577SOL     OW18701   2.005   5.019   1.295  0.2318  0.4553  0.0576
 3577SOL    HW118702   2.046   5.100   1.337  2.0422  0.2057 -1.2061
 3577SOL    HW218703   1.946   5.047   1.219  0.0560  0.6476  0.2655
 3579SOL     OW18704   4.436   0.480   2.262  0.5712 -0.3438  0.3754
 3579SOL    HW118705   4.519   0.450   2.214  1.1458 -0.8236  1.6329
 3579SOL    HW218706   4.428   0.430   2.348  0.0727  1.1562  1.2294
 3580SOL     OW18707   4.659   1.248   0.893 -0.6732 -0.2570  0.0073
 3580SOL    HW118708   4.664   1.316   0.966  0.8459  0.6779 -0.9532
 3580SOL    HW218709   4.576   1.264   0.839 -0.1446  1.0645 -0.4293
 3581SOL     OW18710   2.301   0.595   1.765 -0.2245 -0.1238  0.3274
 3581SOL    HW118711   2.367   0.568   1.836  1.1854  1.8739 -0.1794
 3581SOL    HW218712   2.211   0.559   1.788  0.4211 -0.3623  2.6222
 3582SOL     OW18713   9.071   9.520   1.745 -0.2205  0.0270 -0.1945
 3582SOL    HW118714   9.103   9.464   1.668  1.1989 -0.3278  0.6414
 3582SOL    HW218715   9.024   9.462   1.811  2.3101 -0.4257  1.2595
 3586SOL     OW18716   2.480   1.362   0.550 -0.0012 -0.0591  0.1661
 3586SOL    HW118717   2.549   1.298   0.515  2.1184  1.4998  1.3537
 3586SOL    HW218718   2.465   1.435   0.483  0.3539  0.2117  0.3781
 3587SOL     OW18719   3.394   9.167   0.292  0.4278  0.3151  0.1324
 3587SOL    HW118720   3.494   9.160   0.286  0.5230  2.5451 -1.2870
 3587SOL    HW218721   3.353   9.084   0.253  1.7079 -1.1578  1.8319
 3588SOL     OW18722   3.266   4.226   0.079 -0.2731 -0.5910 -0.2769
 3588SOL    HW118723   3.253   4.213   0.177  0.4039  0.1502 -0.0843
 3588SOL    HW218724   3.360   4.203   0.054 -0.0826  0.4741 -0.5369
 3590SOL     OW18725   1.575   4.009   0.503 -0.0728 -0.3829  0.2287
 3590SOL    HW118726   1.544   4.069   0.576 -2.8359 -0.9441 -0.4249
 3590SOL    HW218727   1.583   4.061   0.418  4.3242  0.5447  1.1051
 3591SOL     OW18728   8.549   0.335   1.481 -0.5737 -0.1770  0.3032
 3591SOL    HW118729   8.624   0.331   1.547 -0.7191  1.1634  0.5742
 3591SOL    HW218730   8.511   0.244   1.467  0.9985 -0.8423  0.2877
 3592SOL     OW18731   2.684   9.095   2.374 -0.6537  0.8341 -0.2972
 3592SOL    HW118732   2.624   9.100   2.295 -1.2399 -0.1673  0.0707
 3592SOL    HW218733   2.767   9.044   2.350 -0.5580  1.0624 -0.4428
 3593SOL     OW18734   0.333   4.951   2.504 -0.3971 -0.4419  0.5049
 3593SOL    HW118735   0.400   4.911   2.442 -2.7084 -0.8845 -1.8376
 3593SOL    HW218736   0.367   5.037   2.541  1.9269 -1.2782  0.3395
 3594SOL     OW18737   9.250   4.599   2.321  0.0904  0.9581  0.0365
 3594SOL    HW118738   9.317   4.594   2.246 -1.0208 -0.8388 -0.8418
 3594SOL    HW218739   9.173   4.656   2.292  0.0401  0.9350  0.1296
 3595SOL     OW18740   0.067   5.789   2.115  0.2462 -0.1742  0.5046
 3595SOL    HW118741  -0.007   5.797   2.182 -0.0644  0.1815  0.1205
 3595SOL    HW218742   0.119   5.706   2.133 -1.7494 -1.7397 -0.7477
 3596SOL     OW18743   4.078   0.055   0.568  0.7689  0.1845  0.1938
 3596SOL    HW118744   4.086  -0.044   0.563  1.6864  0.0675  2.8275
 3596SOL    HW218745   4.087   0.084   0.664  0.8452  2.8265 -0.5705
 3598SOL     OW18746   3.340   0.858   0.063 -0.0652 -0.3709  0.0051
 3598SOL    HW118747   3.397   0.891  -0.013  1.3040  0.6562  1.4505
 3598SOL    HW218748   3.365   0.764   0.085  0.0050 -0.4412 -0.3651
 3599SOL     OW18749   9.193   3.870   2.686 -0.0139 -0.1803  0.4070
 3599SOL    HW118750   9.289   3.853   2.709 -0.1252 -0.0238  0.9912
 3599SOL    HW218751   9.163   3.956   2.726  0.0668  0.5892 -1.1687
 3602SOL     OW18752   8.630   7.632   2.460  0.0441  0.4593  0.0386
 3602SOL    HW118753   8.542   7.676   2.442  0.1457  0.3315 -0.7800
 3602SOL    HW218754   8.622   7.534   2.444  0.5627  0.5637 -0.8654
 3603SOL     OW18755   2.210   1.447   0.968 -0.4248 -0.2752 -0.2775
 3603SOL    HW118756   2.267   1.494   1.035  0.6975 -1.0427 -0.6883
 3603SOL    HW218757   2.225   1.348   0.974 -1.7414 -0.5014 -0.3623
 3604SOL     OW18758   2.937   6.403   0.557 -0.4867 -0.5215 -0.1192
 3604SOL    HW118759   2.964   6.428   0.464 -0.6329 -0.6955 -0.2081
 3604SOL    HW218760   2.869   6.468   0.590 -0.3514 -0.3934 -0.0905
 3605SOL     OW18761   6.896   0.124   2.195 -0.3926 -0.0053 -0.1875
 3605SOL    HW118762   6.838   0.141   2.275 -0.2939  1.1291 -0.3448
 3605SOL    HW218763   6.852   0.058   2.135 -0.5720 -0.7006  0.6924
 3606SOL     OW18764   0.165   0.728   1.966  0.6412  0.0418 -0.9797
 3606SOL    HW118765   0.214   0.812   1.943  1.3810  0.5756  2.3855
 3606SOL    HW218766   0.223   0.649   1.945  1.8237  0.5691  0.2013
 3607SOL     OW18767   3.322   9.147   1.396 -0.1753 -0.0818  0.1661
 3607SOL    HW118768   3.298   9.236   1.356  0.8154  0.2219  0.2523
 3607SOL    HW218769   3.238   9.098   1.419 -0.7262  1.1228  0.7628
 3608SOL     OW18770   9.569   5.840   1.186  0.0196 -0.1221  0.3388
 3608SOL    HW118771   9.600   5.786   1.264 -3.1039 -1.5966  0.6058
 3608SOL    HW218772   9.503   5.787   1.133 -1.7108  2.7530 -0.4456
 3609SOL     OW18773   8.662   1.269   2.192 -0.1718  0.4753  0.4218
 3609SOL    HW118774   8.718   1.206   2.137 -0.3350  1.7787 -1.2682
 3609SOL    HW218775   8.629   1.221   2.274  2.2884 -0.7040  0.7624
 3610SOL     OW18776   8.756   6.468   0.863  0.3809  0.1966 -0.4928
 3610SOL    HW118777   8.795   6.407   0.931  0.5037  2.5166  1.5783
 3610SOL    HW218778   8.827   6.494   0.797  1.8375  2.6607  1.9871
 3611SOL     OW18779   0.359   4.702   0.394  0.2912  0.1086  0.5194
 3611SOL    HW118780   0.457   4.718   0.384  0.2960  0.0055  0.3885
 3611SOL    HW218781   0.330   4.632   0.328 -0.5578  2.7535 -2.0568
 3612SOL     OW18782   4.252   0.441   1.867 -1.1609  0.3338 -0.1589
 3612SOL    HW118783   4.208   0.357   1.834  0.5635 -0.6400 -0.0543
 3612SOL    HW218784   4.245   0.512   1.797 -2.9744  0.2438 -0.0969
 3613SOL     OW18785   8.593   4.873   0.321 -0.2476  0.2482 -0.1994
 3613SOL    HW118786   8.520   4.888   0.388 -1.4139 -0.9745 -1.1735
 3613SOL    HW218787   8.680   4.907   0.358 -1.1633  1.0104  1.2862
 3615SOL     OW18788   0.674   5.376   2.427 -0.3350  0.1849 -0.2933
 3615SOL    HW118789   0.737   5.447   2.459 -0.0655 -0.2921  0.2441
 3615SOL    HW218790   0.726   5.294   2.404 -0.8756 -0.5872  1.2096
 3616SOL     OW18791   1.006   6.174   0.772 -0.1991 -0.1495 -0.0036
 3616SOL    HW118792   0.906   6.184   0.775 -0.2220  0.0826 -1.1551
 3616SOL    HW218793   1.029   6.077   0.768 -0.3834 -0.2018  0.1826
 3617SOL     OW18794   1.525   8.535   1.962 -0.5945 -0.2918 -0.5108
 3617SOL    HW118795   1.606   8.493   1.920 -0.0651 -1.4640  1.6348
 3617SOL    HW218796   1.459   8.463   1.985 -1.7616  0.5479 -1.1735
 3618SOL     OW18797   9.767   7.491   0.236  0.3695  0.6100  0.0074
 3618SOL    HW118798   9.690   7.470   0.295 -1.8368 -0.8675 -3.2656
 3618SOL    HW218799   9.818   7.407   0.215 -0.9373  0.4848 -2.8968
 3619SOL     OW18800   2.451   4.789   0.058 -0.1001 -0.2499  0.2460
 3619SOL    HW118801   2.384   4.719   0.033 -0.3748 -0.1950  0.8221
 3619SOL    HW218802   2.412   4.849   0.127  0.4706 -0.0822  0.4253
 3620SOL     OW18803   3.228   9.568   1.559 -0.1862 -0.2973 -0.2756
 3620SOL    HW118804   3.190   9.534   1.473  1.7263 -2.3555 -0.3516
 3620SOL    HW218805   3.276   9.654   1.542  0.7656 -1.0390 -1.4015
 3621SOL     OW18806   3.823   4.187   1.752 -0.1202 -0.0855  0.1834
 3621SOL    HW118807   3.746   4.132   1.784 -1.4964  0.8797 -1.4491
 3621SOL    HW218808   3.825   4.188   1.652  1.9408  0.0134  0.1878
 3622SOL     OW18809   3.845   1.962   1.195  0.2572  0.8465  0.3293
 3622SOL    HW118810   3.874   1.880   1.146  0.3643  1.1284 -0.0910
 3622SOL    HW218811   3.919   1.992   1.256  0.5038  1.0477 -0.0663
 3623SOL     OW18812   0.377   0.462   2.458 -0.2530 -0.2138 -0.0963
 3623SOL    HW118813   0.313   0.511   2.398  0.4383  1.3723  0.4296
 3623SOL    HW218814   0.326   0.407   2.524 -1.0439 -0.1337 -0.6401
 3624SOL     OW18815   4.631   7.563   2.236 -0.8861 -0.9146  0.2398
 3624SOL    HW118816   4.547   7.564   2.290 -0.2045 -1.9874  1.3517
 3624SOL    HW218817   4.611   7.588   2.141 -1.8698  2.5878  1.3112
 3626SOL     OW18818   1.367   3.338   2.245  0.2848  0.1978 -0.2535
 3626SOL    HW118819   1.361   3.253   2.193  1.5917  0.2002 -0.4125
 3626SOL    HW218820   1.276   3.363   2.278 -0.3479 -0.4709 -1.4618
 3627SOL     OW18821   3.774   5.229   1.975 -0.2147  0.0321  0.1831
 3627SOL    HW118822   3.743   5.232   1.880  2.7088  1.5018 -0.7646
 3627SOL    HW218823   3.706   5.274   2.033 -1.9972 -0.8128 -1.1926
 3629SOL     OW18824   0.477   8.340   0.300  0.6094  0.5522 -0.3834
 3629SOL    HW118825   0.520   8.352   0.390 -0.1560 -1.2031  0.2559
 3629SOL    HW218826   0.385   8.379   0.302  0.6242  0.5886 -0.4295
 3630SOL     OW18827   8.369   7.564   0.970  0.6384 -0.0064  0.2931
 3630SOL    HW118828   8.364   7.610   1.059 -0.6197 -3.4848  2.1329
 3630SOL    HW218829   8.294   7.596   0.912  0.7099  1.3843  0.9466
 3631SOL     OW18830   2.832   2.411   2.374  0.2998  0.5625 -0.0080
 3631SOL    HW118831   2.924   2.451   2.372  0.7290 -0.4606 -2.9349
 3631SOL    HW218832   2.766   2.479   2.343 -0.0237  1.4133  2.4363
 3632SOL     OW18833   0.707   8.214   1.202 -0.7439  0.1421  0.2180
 3632SOL    HW118834   0.799   8.177   1.217 -1.7082 -2.4440  0.0168
 3632SOL    HW218835   0.694   8.230   1.104 -0.5584  0.4170  0.2360
 3633SOL     OW18836   8.402   1.651   1.585  0.1658  0.7671  0.0769
 3633SOL    HW118837   8.356   1.665   1.672  1.0650 -1.4470  0.9366
 3633SOL    HW218838   8.378   1.561   1.548  2.4505  0.2720 -0.2739
 3634SOL     OW18839   3.601   2.955   2.590  0.5615  0.1813  0.0214
 3634SOL    HW118840   3.501   2.967   2.592  0.4722 -0.4950 -0.0903
 3634SOL    HW218841   3.643   3.013   2.660  0.0348 -0.0189  0.5093
 3637SOL     OW18842   3.567   3.844   1.273  0.1605  0.1215  0.3354
 3637SOL    HW118843   3.501   3.918   1.263  0.2632  0.1622 -0.0428
 3637SOL    HW218844   3.535   3.780   1.343 -1.2801 -0.9342 -1.2858
 3638SOL     OW18845   9.675   1.989   1.428 -0.4515 -0.3469  0.4087
 3638SOL    HW118846   9.673   1.889   1.430 -3.4816 -0.3284  0.5885
 3638SOL    HW218847   9.701   2.023   1.519 -1.2874 -0.9455  0.8811
 3639SOL     OW18848   9.390   4.333   0.008  0.5040 -0.3116  0.5276
 3639SOL    HW118849   9.386   4.360   0.104 -1.2405  0.7458  0.1716
 3639SOL    HW218850   9.317   4.268  -0.013 -0.0314  0.5786 -0.4144
 3642SOL     OW18851   2.912   1.310   0.501  0.1605 -0.0066 -0.2500
 3642SOL    HW118852   2.910   1.377   0.575 -1.1016 -0.6255  0.2776
 3642SOL    HW218853   2.958   1.350   0.421 -0.2296  1.3376  0.1945
 3643SOL     OW18854   0.850   1.299   0.274 -0.1939 -0.2294 -0.1646
 3643SOL    HW118855   0.890   1.354   0.347 -0.5662  0.4094 -0.4370
 3643SOL    HW218856   0.918   1.283   0.202  0.5208 -1.8314  0.8520
 3644SOL     OW18857   7.951   9.625   0.068 -0.6877  0.0072  0.5966
 3644SOL    HW118858   7.931   9.719   0.039  2.0568  0.2821 -0.5679
 3644SOL    HW218859   7.891   9.562   0.020 -1.3870  1.0276  0.1076
 3645SOL     OW18860   8.546   8.364   0.022  0.3126 -0.3261 -0.4539
 3645SOL    HW118861   8.585   8.299   0.087 -0.6239 -2.1380 -1.6364
 3645SOL    HW218862   8.447   8.365   0.031  0.3951  2.0707  0.5381
 3646SOL     OW18863   1.015   5.090   0.393 -0.4677  0.3449  0.4958
 3646SOL    HW118864   1.068   5.091   0.308  1.8142 -0.4632  1.8453
 3646SOL    HW218865   0.991   4.996   0.416  0.8270  0.3101  1.8305
 3647SOL     OW18866   8.740   4.244   0.063 -0.0766  0.1503 -0.0866
 3647SOL    HW118867   8.713   4.251   0.159 -0.5392  0.8386 -0.2692
 3647SOL    HW218868   8.721   4.152   0.030 -1.1685  0.3099  0.0998
 3648SOL     OW18869   0.005   1.126   0.541 -0.3309  0.3994  0.5728
 3648SOL    HW118870   0.053   1.175   0.468 -0.1748  0.7882  0.9347
 3648SOL    HW218871  -0.008   1.030   0.514 -3.0418  1.2458 -1.3079
 3649SOL     OW18872   3.524   7.559   2.186  0.1299 -0.1730  0.6347
 3649SOL    HW118873   3.536   7.495   2.261 -0.1956 -0.9886 -0.0013
 3649SOL    HW218874   3.526   7.509   2.099 -3.4131  0.1821  0.2512
 3650SOL     OW18875   1.313   4.527   0.825  0.3569 -0.5286 -0.1863
 3650SOL    HW118876   1.235   4.560   0.772  0.6855 -2.1247 -1.7352
 3650SOL    HW218877   1.383   4.598   0.830  0.0894 -0.1588 -1.4524
 3651SOL     OW18878   4.071   7.900   1.462 -0.0796 -0.0655 -0.0457
 3651SOL    HW118879   4.083   7.810   1.506 -1.2531 -0.5455 -0.6828
 3651SOL    HW218880   4.117   7.970   1.516 -0.4871 -0.8239  1.3060
 3652SOL     OW18881   1.581   7.894   1.735  0.1226  0.1730 -0.3634
 3652SOL    HW118882   1.679   7.890   1.757 -0.0424  1.2354  0.5766
 3652SOL    HW218883   1.528   7.903   1.819 -0.9425 -2.6147 -0.7045
 3653SOL     OW18884   7.443   0.174   1.690 -0.2744  0.1682 -0.0666
 3653SOL    HW118885   7.390   0.089   1.698 -0.9794  0.7825  2.2658
 3653SOL    HW218886   7.461   0.193   1.593 -1.0696 -2.0390 -0.6809
 3655SOL     OW18887   2.048   3.406   0.258 -0.4633  0.4263 -0.7499
 3655SOL    HW118888   2.097   3.340   0.315  0.0437  1.8241  0.4728
 3655SOL    HW218889   2.051   3.376   0.163  2.5060  0.3067 -0.6697
 3656SOL     OW18890   1.362   6.575   2.522  0.2435 -0.3008  0.4509
 3656SOL    HW118891   1.413   6.642   2.469 -0.5014 -1.8316 -2.3083
 3656SOL    HW218892   1.287   6.621   2.570 -0.3300  0.8368 -1.4907
 3657SOL     OW18893   6.979   9.810   0.006  0.1594  0.1007 -0.5333
 3657SOL    HW118894   7.017   9.719   0.022 -1.6932 -0.7566 -0.9325
 3657SOL    HW218895   7.037   9.878   0.051  1.0562 -1.3452  0.5527
 3658SOL     OW18896   3.555   2.969   0.225 -0.4343 -0.1995 -0.3171
 3658SOL    HW118897   3.568   2.872   0.248 -1.0631 -0.3207 -0.4547
 3658SOL    HW218898   3.632   3.022   0.259 -0.5598 -0.6145  0.6344
 3659SOL     OW18899   2.443   0.718   2.625 -0.2631  0.4241  0.6751
 3659SOL    HW118900   2.504   0.650   2.585  0.0704  1.0288  0.1359
 3659SOL    HW218901   2.481   0.751   2.711  1.0071  1.9762 -0.4484
 3661SOL     OW18902   1.619   6.955   1.286 -0.5258 -0.3081  0.4066
 3661SOL    HW118903   1.565   6.871   1.293 -0.6701 -0.2039  0.5376
 3661SOL    HW218904   1.684   6.959   1.361 -0.3206 -0.4443  0.2369
 3662SOL     OW18905   3.493   3.699   0.464  0.0056 -0.4427  0.5835
 3662SOL    HW118906   3.513   3.632   0.535  1.4212 -0.8889 -0.2164
 3662SOL    HW218907   3.394   3.702   0.448 -0.3721  0.0424  2.9134
 3663SOL     OW18908   0.543   9.582   0.467 -0.4981  0.3032 -0.2323
 3663SOL    HW118909   0.449   9.609   0.449 -0.8972 -0.1695  1.0807
 3663SOL    HW218910   0.561   9.590   0.566  0.4952 -0.6861 -0.3282
 3664SOL     OW18911   9.503   8.916   1.096 -0.0325  0.9367 -0.0714
 3664SOL    HW118912   9.521   8.937   1.193 -1.0068  0.3170  0.2489
 3664SOL    HW218913   9.406   8.897   1.084  0.1552  0.6289 -1.1091
 3666SOL     OW18914   1.329   4.857   0.646  0.2036  0.3958 -0.3708
 3666SOL    HW118915   1.357   4.935   0.590  2.0378  0.8807  1.1980
 3666SOL    HW218916   1.238   4.874   0.683 -0.4432  0.6915 -2.0151
 3667SOL     OW18917   8.531   7.942   1.135 -0.1420  0.4422  0.2408
 3667SOL    HW118918   8.458   7.990   1.183 -0.9597  0.6021 -1.1485
 3667SOL    HW218919   8.598   7.908   1.201 -0.8824  1.2754  1.4288
 3668SOL     OW18920   1.043   3.804   0.986  0.5759 -0.5392 -0.4596
 3668SOL    HW118921   0.967   3.754   1.028  0.0154  1.0370  0.4327
 3668SOL    HW218922   1.118   3.741   0.968  0.1114 -1.5997  1.1796
 3669SOL     OW18923   1.098   3.897   2.192  0.4055  0.2749 -0.1239
 3669SOL    HW118924   1.106   3.880   2.291  1.0637 -0.7072 -0.3422
 3669SOL    HW218925   1.164   3.841   2.143  0.9085  1.6571 -1.0557
 3670SOL     OW18926   3.765   4.761   2.498 -0.2878 -0.7255  0.0573
 3670SOL    HW118927   3.846   4.809   2.533  0.2255 -1.5177 -0.0343
 3670SOL    HW218928   3.697   4.753   2.571 -0.1728 -0.3012  0.2141
 3671SOL     OW18929   2.771   2.498   1.676  0.1516  0.5476  0.0260
 3671SOL    HW118930   2.864   2.496   1.640 -0.1028 -2.4023 -0.5809
 3671SOL    HW218931   2.725   2.412   1.655 -2.6183  1.8085  0.6307
 3672SOL     OW18932   9.404   1.128   2.672  0.0558 -0.4006  0.1017
 3672SOL    HW118933   9.347   1.186   2.614 -0.6523 -0.2184  0.9492
 3672SOL    HW218934   9.422   1.175   2.758  1.5387 -0.4487 -0.1761
 3674SOL     OW18935   0.318   9.437   1.372  0.2282 -0.3357 -0.3200
 3674SOL    HW118936   0.274   9.366   1.427 -1.6745  0.9218 -0.1733
 3674SOL    HW218937   0.416   9.421   1.369  0.1188 -1.5515  1.8045
 3675SOL     OW18938   1.158   8.396   1.347 -0.2900 -0.1748 -0.9617
 3675SOL    HW118939   1.227   8.343   1.297  1.4482  0.4914  0.6860
 3675SOL    HW218940   1.200   8.479   1.385 -2.0079  0.2795  0.0053
 3676SOL     OW18941   2.051   2.608   2.130 -0.1241 -0.1566 -0.0192
 3676SOL    HW118942   2.105   2.690   2.146 -0.6233  0.0544  0.6086
 3676SOL    HW218943   2.034   2.562   2.217  1.7818 -1.9799 -0.5613
 3677SOL     OW18944   2.327   7.193   2.110  0.2270  0.0667 -0.0546
 3677SOL    HW118945   2.281   7.260   2.167 -0.9021 -0.3066 -0.5035
 3677SOL    HW218946   2.260   7.151   2.048  1.5092  0.8046 -1.9694
 3680SOL     OW18947   9.308   6.487   0.550 -0.8468 -0.6010  0.8634
 3680SOL    HW118948   9.209   6.492   0.566 -0.9832 -4.1623  1.5595
 3680SOL    HW218949   9.325   6.439   0.464  0.2891 -0.3751  0.9608
 3681SOL     OW18950   0.653   3.269   2.559 -0.0212  0.1079 -0.0025
 3681SOL    HW118951   0.622   3.311   2.644  0.6142 -0.5125  0.5507
 3681SOL    HW218952   0.684   3.340   2.496  0.3806  0.5184  0.6478
 3682SOL     OW18953   1.879   4.489   1.681 -0.4939 -0.5087 -0.2435
 3682SOL    HW118954   1.839   4.400   1.658 -0.9873 -0.0903 -0.9930
 3682SOL    HW218955   1.906   4.536   1.597  1.2410 -0.6261  0.2264
 3683SOL     OW18956   3.604   8.106   0.129  0.0984  0.2416 -0.1309
 3683SOL    HW118957   3.538   8.033   0.147  0.7904 -0.6478 -1.1560
 3683SOL    HW218958   3.556   8.189   0.099 -0.5207 -0.4876 -1.1658
 3684SOL     OW18959   4.274   4.947   2.536  0.2545  0.0138 -0.0987
 3684SOL    HW118960   4.301   4.914   2.445 -0.9438  1.5479 -1.0409
 3684SOL    HW218961   4.318   5.034   2.555 -1.8456  1.2067 -0.5223
 3685SOL     OW18962   8.175   0.942   1.050 -0.1396 -0.1278 -0.3999
 3685SOL    HW118963   8.157   0.870   0.983 -1.0994  1.0843 -1.4694
 3685SOL    HW218964   8.245   1.004   1.014 -0.0494  0.0504  0.0857
 3686SOL     OW18965   8.821   7.516   1.552  0.2767 -0.4274 -1.0933
 3686SOL    HW118966   8.908   7.480   1.586  0.8747  0.0125 -2.1374
 3686SOL    HW218967   8.804   7.478   1.461  0.0022  0.4976 -1.4243
 3689SOL     OW18968   9.566   4.054   1.270  0.1060  0.0703 -0.4704
 3689SOL    HW118969   9.566   4.038   1.171  1.4086  1.4872 -0.7150
 3689SOL    HW218970   9.598   4.146   1.289 -0.6601  0.0064  1.2646
 3690SOL     OW18971   0.848   8.817   0.824 -0.1620  0.0283 -0.2025
 3690SOL    HW118972   0.770   8.797   0.884  0.8068 -1.3847  0.6232
 3690SOL    HW218973   0.907   8.885   0.867 -0.0478 -0.1646 -0.0533
 3691SOL     OW18974   1.305   1.258   1.377  0.0238  0.0922 -0.3653
 3691SOL    HW118975   1.318   1.312   1.294 -1.1325 -0.0497 -0.6488
 3691SOL    HW218976   1.335   1.164   1.361  3.4637  0.9411  0.5854
 3692SOL     OW18977   1.393   3.587   1.178 -0.0577  0.3923  0.2071
 3692SOL    HW118978   1.329   3.643   1.231  0.7208  1.7907 -0.3056
 3692SOL    HW218979   1.354   3.567   1.089 -0.5127 -0.2305  0.5469
 3693SOL     OW18980   0.950   4.015   1.112  0.4335  0.1417 -0.4010
 3693SOL    HW118981   1.012   4.092   1.103  0.7881  0.1446  1.7227
 3693SOL    HW218982   0.998   3.930   1.089  0.7210  0.3223 -0.4574
 3694SOL     OW18983   3.487   4.801   1.757  0.0731  0.2364 -0.0553
 3694SOL    HW118984   3.403   4.749   1.771 -0.8826  2.1458  1.6679
 3694SOL    HW218985   3.556   4.773   1.824 -0.0261  0.3570  0.0969
 3695SOL     OW18986   4.006   3.871   0.017  0.5493 -0.1305 -0.2287
 3695SOL    HW118987   3.940   3.877  -0.058 -0.3576  0.6185  0.6098
 3695SOL    HW218988   3.982   3.794   0.075 -0.7218  1.2378  1.1136
 3696SOL     OW18989   8.439   4.974   0.050  0.5155  0.1242 -0.2742
 3696SOL    HW118990   8.527   5.011   0.081 -0.1595  1.7638 -0.2804
 3696SOL    HW218991   8.392   4.931   0.127  1.0600 -0.2636 -0.1511
 3698SOL     OW18992   0.671   6.782   2.603 -0.4123 -0.0506 -0.0864
 3698SOL    HW118993   0.589   6.794   2.547 -2.1243  3.1132  2.9559
 3698SOL    HW218994   0.688   6.684   2.617 -1.6735 -0.8373 -3.4846
 3700SOL     OW18995   8.421   0.756   2.078 -0.6521 -0.8960  0.1734
 3700SOL    HW118996   8.398   0.662   2.056 -2.5477 -0.0992 -1.3914
 3700SOL    HW218997   8.510   0.759   2.124  0.7962 -3.1711 -2.3371
 3701SOL     OW18998   2.073   2.874   1.311 -0.1284  0.0522  0.0592
 3701SOL    HW118999   2.071   2.824   1.397  1.0832 -1.7467 -0.9410
 3701SOL    HW219000   1.986   2.862   1.263 -0.0899 -0.5253  0.1402
 3704SOL     OW19001   3.217   5.520   0.138 -0.1190  0.0203  0.1996
 3704SOL    HW119002   3.144   5.531   0.205 -0.8926  0.8870 -0.7744
 3704SOL    HW219003   3.304   5.546   0.180 -1.0082  3.6277 -0.0386
 3705SOL     OW19004   0.347   7.650   2.061 -0.0119  0.0099  0.2835
 3705SOL    HW119005   0.411   7.695   1.998 -0.6405  1.5468  0.7089
 3705SOL    HW219006   0.309   7.719   2.123 -1.0335 -1.1343  0.9293
 3706SOL     OW19007   2.290   6.555   1.654  0.0235  0.7028  0.2613
 3706SOL    HW119008   2.370   6.565   1.594 -0.6798  2.1655 -0.4560
 3706SOL    HW219009   2.267   6.458   1.662  1.0400  0.3730 -0.6340
 3707SOL     OW19010   0.929   0.354   1.366 -0.5035 -0.2653 -0.3745
 3707SOL    HW119011   0.831   0.336   1.368 -0.2880 -1.3655  0.6173
 3707SOL    HW219012   0.945   0.453   1.370 -1.5289 -0.1647  1.5650
 3708SOL     OW19013   9.274   3.767   2.103 -0.0316 -0.0017  0.1460
 3708SOL    HW119014   9.291   3.865   2.090  0.7476 -0.3360 -1.3853
 3708SOL    HW219015   9.346   3.714   2.057  0.2136 -1.2864  1.9513
 3709SOL     OW19016   2.686   0.675   1.205  0.1487  0.1956 -0.0072
 3709SOL    HW119017   2.727   0.685   1.114  1.6048  0.7999  0.6964
 3709SOL    HW219018   2.730   0.739   1.268 -3.0155  2.0367  0.4149
 3710SOL     OW19019   4.811   8.535   2.111 -0.6022  0.2390  0.0849
 3710SOL    HW119020   4.800   8.633   2.124 -0.8738  0.2892 -0.4631
 3710SOL    HW219021   4.792   8.487   2.196  0.4782  0.7250  0.6036
 3711SOL     OW19022   1.015   5.017   1.856  0.8145 -0.6202 -0.1947
 3711SOL    HW119023   0.986   5.106   1.820  0.7846 -1.2028 -1.6490
 3711SOL    HW219024   1.090   5.030   1.921  0.2101  0.5339  0.2817
 3712SOL     OW19025   8.927   7.123   1.390  0.5860  0.1050  0.2420
 3712SOL    HW119026   8.828   7.108   1.386  0.6072 -0.1544  0.7529
 3712SOL    HW219027   8.969   7.057   1.452  1.0906  0.1700 -0.0295
 3713SOL     OW19028   3.367   1.039   1.136  0.9091 -0.4585 -0.4676
 3713SOL    HW119029   3.308   1.103   1.087  0.6984 -1.1403 -1.1033
 3713SOL    HW219030   3.311   0.978   1.192  1.1805  0.7583  1.1778
 3714SOL     OW19031   1.771   6.819   2.592 -0.9385 -0.1404 -0.1910
 3714SOL    HW119032   1.745   6.737   2.643 -0.8096  0.9005  1.6319
 3714SOL    HW219033   1.692   6.880   2.584 -0.6585  0.2208 -0.2072
 3716SOL     OW19034   7.469   9.080   2.041 -0.8390 -0.4014 -0.4678
 3716SOL    HW119035   7.510   9.020   2.110 -0.6325 -1.4589 -1.5130
 3716SOL    HW219036   7.499   9.053   1.950 -1.2928  0.8560 -1.0056
 3717SOL     OW19037   4.423   9.282   0.900  0.3469  0.5492  0.2762
 3717SOL    HW119038   4.370   9.366   0.915  0.8797  1.2874 -1.8350
 3717SOL    HW219039   4.507   9.304   0.850  1.2811 -1.0195  1.1370
 3718SOL     OW19040   9.262   9.576   1.926 -0.2248 -0.2685  0.1710
 3718SOL    HW119041   9.226   9.595   2.018 -0.5150 -1.7664  0.3844
 3718SOL    HW219042   9.187   9.576   1.860 -0.4119 -1.8025  0.3626
 3719SOL     OW19043   1.435   1.538   0.765 -0.0999 -0.4654  0.2922
 3719SOL    HW119044   1.340   1.508   0.776 -0.8697  1.3069 -1.2784
 3719SOL    HW219045   1.449   1.624   0.814  0.0935  0.4205 -1.2894
 3720SOL     OW19046   4.376   4.155   0.376 -0.0556 -0.2333  0.2538
 3720SOL    HW119047   4.360   4.252   0.389 -1.1731 -0.0952 -1.8207
 3720SOL    HW219048   4.464   4.129   0.416  0.0395  1.5225  1.2165
 3722SOL     OW19049   3.071   8.411   1.605 -0.6838  0.2267 -0.2403
 3722SOL    HW119050   3.016   8.329   1.623 -0.9181  0.4503  0.0583
 3722SOL    HW219051   3.026   8.466   1.536 -0.7491  0.3233 -0.1208
 3723SOL     OW19052   9.693   2.237   1.591 -0.0680  0.0878  0.0780
 3723SOL    HW119053   9.706   2.274   1.683 -1.4311 -1.5852  0.9838
 3723SOL    HW219054   9.614   2.280   1.548 -1.2621 -1.2445  0.8828
 3724SOL     OW19055   4.078   9.379   1.417 -0.3294 -0.2847 -0.7940
 3724SOL    HW119056   3.988   9.336   1.417 -0.7779  0.6162  0.2222
 3724SOL    HW219057   4.076   9.461   1.359 -0.8637  1.0944  1.1223
 3725SOL     OW19058   0.740   4.178   0.230 -0.6757 -0.1528 -0.4230
 3725SOL    HW119059   0.641   4.191   0.222 -0.6219  0.3028 -0.3651
 3725SOL    HW219060   0.760   4.111   0.301 -0.8755  1.1461  0.8834
 3726SOL     OW19061   8.345   5.779   0.153 -0.0462 -0.5837  0.1324
 3726SOL    HW119062   8.329   5.681   0.141 -1.0545 -0.6081  1.5406
 3726SOL    HW219063   8.257   5.827   0.154  0.4163  0.2793 -0.0260
 3727SOL     OW19064   9.780   4.949   0.735  0.0532 -0.3929  0.4969
 3727SOL    HW119065   9.708   4.911   0.793 -0.6000  0.0144 -0.0282
 3727SOL    HW219066   9.829   4.875   0.689 -0.4755 -0.6569  0.3457
 3728SOL     OW19067   0.793   6.439   1.692  0.8665 -0.1721  0.0723
 3728SOL    HW119068   0.693   6.446   1.683  0.6936 -0.5429  1.6280
 3728SOL    HW219069   0.836   6.514   1.643 -0.1470 -0.4845 -1.3365
 3729SOL     OW19070   3.224   1.360   2.296 -0.1312 -0.3992 -0.6364
 3729SOL    HW119071   3.221   1.297   2.218  1.0644  0.5059 -1.4240
 3729SOL    HW219072   3.317   1.361   2.334 -0.4810 -0.1260  0.2193
 3730SOL     OW19073   8.762   7.759   2.220 -0.0397  0.0440  0.1108
 3730SOL    HW119074   8.781   7.836   2.159 -2.4449  0.4485 -0.1997
 3730SOL    HW219075   8.804   7.776   2.309  0.1593  1.3327 -0.2153
 3731SOL     OW19076   3.235   8.345   0.143  0.0854 -0.6068  0.0732
 3731SOL    HW119077   3.136   8.355   0.139  0.0581 -0.6301  0.6694
 3731SOL    HW219078   3.276   8.431   0.173  0.2766 -0.4861 -0.5193
 3732SOL     OW19079   0.360   2.640   0.608  0.3087  0.2174  0.1770
 3732SOL    HW119080   0.438   2.589   0.572  0.8212  1.9495 -1.2224
 3732SOL    HW219081   0.317   2.692   0.535 -0.6392  1.2384  1.4326
 3733SOL     OW19082   2.867   5.338   2.497 -0.1579  0.4688 -0.6364
 3733SOL    HW119083   2.844   5.286   2.415 -1.9390  1.4890 -0.8023
 3733SOL    HW219084   2.785   5.356   2.550  0.7304  1.3145  0.4870
 3735SOL     OW19085   8.856   1.917   1.883  0.8931  0.3796  0.2684
 3735SOL    HW119086   8.869   2.015   1.866  0.9512  0.2013 -0.7965
 3735SOL    HW219087   8.759   1.894   1.868  1.3928 -0.2314 -2.2980
 3737SOL     OW19088   8.759   7.894   1.712  0.2703  0.4453 -0.2872
 3737SOL    HW119089   8.851   7.854   1.711 -0.1772 -0.6098 -0.2013
 3737SOL    HW219090   8.692   7.822   1.728 -0.4399  1.4942  1.6110
 3738SOL     OW19091   2.843   1.700   0.465 -0.1156 -0.4018  0.0626
 3738SOL    HW119092   2.811   1.658   0.381  0.4753  0.9537 -0.8578
 3738SOL    HW219093   2.776   1.684   0.538 -1.3146 -0.3731 -1.0149
 3739SOL     OW19094   3.658   2.750   0.755 -0.2670 -0.2615 -0.1540
 3739SOL    HW119095   3.605   2.722   0.835 -0.8158  2.5902  0.5246
 3739SOL    HW219096   3.598   2.755   0.676 -0.2035 -0.8254 -0.2388
 3740SOL     OW19097   9.223   3.052   0.356 -0.1585  0.2468 -0.1960
 3740SOL    HW119098   9.159   3.095   0.292 -1.6038 -1.3980  0.0932
 3740SOL    HW219099   9.282   2.989   0.307  0.1465  0.5458 -0.2154
 3741SOL     OW19100   2.192   8.084   1.184 -0.1454  0.0371  0.0342
 3741SOL    HW119101   2.181   8.065   1.087  1.4363 -0.1174 -0.1260
 3741SOL    HW219102   2.102   8.082   1.229 -0.6281 -2.2566 -0.9805
 3744SOL     OW19103   3.073   8.174   1.975  0.0762  0.5019  0.4743
 3744SOL    HW119104   3.089   8.114   2.053  2.2309 -0.0760 -0.3743
 3744SOL    HW219105   3.033   8.122   1.900  0.3899  0.4719  0.3237
 3745SOL     OW19106   3.139   3.958   2.197  0.4509 -0.6388 -0.1831
 3745SOL    HW119107   3.058   3.947   2.139 -0.8584 -1.1896  1.6948
 3745SOL    HW219108   3.146   4.053   2.228  1.0637 -0.3804 -1.0755
 3746SOL     OW19109   2.192   9.773   1.931  0.0304 -0.0158 -0.0977
 3746SOL    HW119110   2.129   9.850   1.937 -0.4013 -0.2956 -1.0191
 3746SOL    HW219111   2.286   9.807   1.930 -0.1393  0.4627  0.1106
 3747SOL     OW19112   0.306   2.528   1.988 -0.3450 -0.1476 -0.1069
 3747SOL    HW119113   0.279   2.621   1.965 -0.1181  0.1061  0.6637
 3747SOL    HW219114   0.236   2.485   2.045  0.7218  0.4166  1.6585
 3748SOL     OW19115   0.101   0.958   2.683  0.0812  0.1711  0.4740
 3748SOL    HW119116   0.061   0.995   2.599  1.1618 -0.8318 -0.5065
 3748SOL    HW219117   0.084   1.021   2.758 -1.6171  0.6933 -0.3237
 3750SOL     OW19118   9.300   6.145   2.462 -0.1385  0.2599 -0.2629
 3750SOL    HW119119   9.369   6.074   2.470  1.1909  1.3107 -1.8469
 3750SOL    HW219120   9.313   6.213   2.534  0.4494  0.3996 -0.4935
 3752SOL     OW19121   8.586   0.562   1.688 -0.4609  0.1046 -0.2977
 3752SOL    HW119122   8.671   0.509   1.693 -0.2888  0.2152 -1.7524
 3752SOL    HW219123   8.569   0.588   1.593 -0.8577  2.1306  0.2960
 3753SOL     OW19124   7.631   3.698   0.362 -0.0069 -0.1358 -1.4480
 3753SOL    HW119125   7.590   3.767   0.303 -0.0840  1.2342  0.1819
 3753SOL    HW219126   7.719   3.731   0.397 -0.0869 -0.8200 -0.5732
 3755SOL     OW19127   9.135   4.129   0.786  0.4532 -0.0864  1.1553
 3755SOL    HW119128   9.102   4.197   0.853  0.2622  0.7807  0.1948
 3755SOL    HW219129   9.191   4.175   0.717  0.3704 -0.9290  0.5230
 3756SOL     OW19130   9.030   9.102   2.239  0.0700  0.6691 -0.0285
 3756SOL    HW119131   9.029   9.021   2.297 -2.8534  0.7567  0.0832
 3756SOL    HW219132   9.052   9.075   2.145  0.1796 -0.0813  0.2094
 3757SOL     OW19133   7.535   1.237   0.319 -0.0639 -0.1903 -0.2971
 3757SOL    HW119134   7.584   1.217   0.404  0.5685 -0.5234 -0.7352
 3757SOL    HW219135   7.518   1.152   0.269  0.4963  0.1163 -1.0094
 3758SOL     OW19136   1.974   8.271   2.560 -0.1844 -0.6188  0.1699
 3758SOL    HW119137   1.885   8.250   2.519  0.2603  0.5840 -1.4618
 3758SOL    HW219138   1.976   8.238   2.655 -2.8367  0.5251  0.6596
 3759SOL     OW19139   2.177   7.641   2.386 -0.3013  0.1309  0.5034
 3759SOL    HW119140   2.192   7.733   2.348 -2.2089  0.5909  0.8279
 3759SOL    HW219141   2.194   7.643   2.485  1.0913 -0.2282  0.2888
 3760SOL     OW19142   9.660   7.946   1.982 -0.2530 -0.0149 -0.4684
 3760SOL    HW119143   9.747   7.980   1.945  0.5075 -1.2728  0.1532
 3760SOL    HW219144   9.585   8.000   1.944  0.9281  2.3269  0.4257
 3761SOL     OW19145   9.954   8.751   1.094 -0.3642 -0.5265 -0.0029
 3761SOL    HW119146  10.049   8.728   1.113 -1.0932 -2.6110  1.2851
 3761SOL    HW219147   9.930   8.722   1.001  0.1865 -0.2542 -0.2283
 3762SOL     OW19148   0.441   2.220   0.029 -0.2337  0.4620 -0.2176
 3762SOL    HW119149   0.452   2.221   0.129 -0.2280 -0.8617 -0.2052
 3762SOL    HW219150   0.384   2.142   0.002  0.7211  0.1550 -1.3519
 3763SOL     OW19151   9.560   1.910   1.967  0.5544  0.0347 -0.4436
 3763SOL    HW119152   9.535   1.949   2.056  1.8490  1.3758 -0.6337
 3763SOL    HW219153   9.508   1.956   1.895  2.5202  1.8938 -0.7220
 3764SOL     OW19154   0.275   2.040   2.621 -0.6086 -0.2272  0.0574
 3764SOL    HW119155   0.191   2.077   2.581 -1.0952 -0.6004  0.7294
 3764SOL    HW219156   0.317   2.110   2.679 -1.2161 -0.5145  0.8558
 3765SOL     OW19157   7.735   9.270   0.887 -0.4956  0.2995 -0.2210
 3765SOL    HW119158   7.772   9.221   0.966  0.3776  0.3031 -0.6204
 3765SOL    HW219159   7.747   9.213   0.805 -3.1476 -0.5534 -0.0685
 3766SOL     OW19160   9.962   5.333   0.982  0.1734  0.7166  0.7920
 3766SOL    HW119161  10.027   5.374   1.045  0.4177 -0.1906  1.1355
 3766SOL    HW219162   9.870   5.369   1.000  0.2082  0.2934  1.8025
 3767SOL     OW19163   3.287   4.453   0.772  0.9178  0.2987  0.3716
 3767SOL    HW119164   3.340   4.461   0.687 -0.0054 -0.6862 -0.3194
 3767SOL    HW219165   3.201   4.503   0.762  0.3259 -0.7079  0.3141
 3768SOL     OW19166   2.799   0.981   1.189 -0.0141 -0.5086 -0.3173
 3768SOL    HW119167   2.854   1.064   1.188 -0.8499  0.0563 -0.0537
 3768SOL    HW219168   2.752   0.972   1.277  0.5721 -1.5964 -0.1017
 3769SOL     OW19169   8.448   0.928   0.811 -0.0616 -0.3361 -0.1156
 3769SOL    HW119170   8.490   1.017   0.793  1.1370 -0.9404 -0.3149
 3769SOL    HW219171   8.516   0.867   0.853 -0.6535 -1.4268 -0.7414
 3770SOL     OW19172   4.218   8.120   1.608 -0.2462  0.0409 -0.3945
 3770SOL    HW119173   4.196   8.202   1.661  0.6962  1.1627 -1.6956
 3770SOL    HW219174   4.283   8.143   1.535 -0.8229 -1.6361 -1.4858
 3771SOL     OW19175   0.584   6.416   0.250 -0.3452  0.2337 -0.7591
 3771SOL    HW119176   0.632   6.420   0.162 -0.8390  4.2256 -0.9529
 3771SOL    HW219177   0.513   6.345   0.246  1.4640 -1.5345 -2.5787
 3772SOL     OW19178   1.262   7.915   2.521 -0.0360 -0.1528  0.3072
 3772SOL    HW119179   1.216   7.857   2.589  0.8789 -1.5893 -0.2686
 3772SOL    HW219180   1.355   7.933   2.550  0.6187 -1.4390 -0.9107
 3773SOL     OW19181   1.451   3.201   1.004 -0.3918 -0.4407  0.6236
 3773SOL    HW119182   1.523   3.227   0.940 -0.7338 -2.8731 -0.8167
 3773SOL    HW219183   1.472   3.238   1.095  0.5005  2.3819 -0.6748
 3775SOL     OW19184   0.952   2.930   2.114  0.4689 -0.3596  0.0104
 3775SOL    HW119185   0.958   2.848   2.171 -0.1221 -1.5777 -1.6299
 3775SOL    HW219186   0.921   2.905   2.023  0.8106  1.6382 -0.6869
 3776SOL     OW19187   3.390   4.975   2.099  0.7618  0.4201  0.0609
 3776SOL    HW119188   3.330   4.909   2.145  0.0095  1.6949  0.9490
 3776SOL    HW219189   3.372   4.973   2.001  1.8182 -1.7605 -0.1032
 3777SOL     OW19190   8.833   8.022   0.286  0.0211  0.0456  0.3343
 3777SOL    HW119191   8.821   7.923   0.286  1.3767 -0.1349 -0.6188
 3777SOL    HW219192   8.899   8.048   0.216  0.4788  1.5299  1.2788
 3778SOL     OW19193   2.140   0.675   2.207 -0.6139 -0.1415  0.2498
 3778SOL    HW119194   2.068   0.650   2.143 -2.2215 -0.2014  2.0285
 3778SOL    HW219195   2.206   0.599   2.216 -0.6636 -0.3220 -0.9187
 3779SOL     OW19196   7.409   8.995   2.705  0.2979 -0.8010 -0.5198
 3779SOL    HW119197   7.360   8.919   2.662 -0.3252  0.4224 -2.0671
 3779SOL    HW219198   7.504   8.969   2.720  0.2963 -1.6217 -1.7835
 3780SOL     OW19199   4.678   8.606   1.204 -0.4264 -0.2651  0.0967
 3780SOL    HW119200   4.746   8.650   1.145 -1.6418  0.2950 -0.8928
 3780SOL    HW219201   4.590   8.604   1.158 -1.2212 -0.4940  1.6005
 3781SOL     OW19202   8.757   8.069   0.582  0.1257  0.2929  0.1169
 3781SOL    HW119203   8.808   8.067   0.496 -0.4426  0.7132 -0.2345
 3781SOL    HW219204   8.735   7.975   0.609  0.2744  0.1599 -0.2093
 3782SOL     OW19205   0.856   0.322   2.180  0.0754 -0.2829 -0.4214
 3782SOL    HW119206   0.946   0.297   2.216  0.0544 -0.2292 -0.3336
 3782SOL    HW219207   0.818   0.244   2.130 -0.0880 -0.5071  0.0462
 3783SOL     OW19208   2.953   1.670   1.724 -0.1845 -0.4806  0.1618
 3783SOL    HW119209   3.042   1.717   1.727 -0.7556  0.5453  1.6108
 3783SOL    HW219210   2.925   1.646   1.817 -2.1441  0.5826 -0.1341
 3784SOL     OW19211   2.548   0.974   2.161  0.0574  0.5123  0.0892
 3784SOL    HW119212   2.546   1.073   2.148  1.6191  0.5895  0.3599
 3784SOL    HW219213   2.534   0.952   2.257 -1.7613  0.3890 -0.1877
 3786SOL     OW19214   1.967   4.286   1.396 -0.4016 -0.2010 -0.1563
 3786SOL    HW119215   1.957   4.379   1.360 -0.0514 -0.3257 -0.5794
 3786SOL    HW219216   1.929   4.221   1.331 -1.0123 -0.3241  0.3240
 3787SOL     OW19217   3.086   6.166   0.424 -0.1442  0.3752 -0.4197
 3787SOL    HW119218   3.145   6.200   0.351 -0.9737 -1.5033 -2.0307
 3787SOL    HW219219   3.090   6.228   0.503  3.2803  0.7459 -0.8035
 3788SOL     OW19220   0.547   8.872   1.305 -0.2015  0.5662 -0.5520
 3788SOL    HW119221   0.598   8.870   1.219  0.5400  1.1988 -0.1347
 3788SOL    HW219222   0.594   8.932   1.370 -0.6980  0.0129  0.3264
 3789SOL     OW19223   9.742   1.946   0.865  0.1285 -0.3505  0.1542
 3789SOL    HW119224   9.689   1.991   0.792 -1.1452  0.1869  1.3924
 3789SOL    HW219225   9.714   1.983   0.954  1.1945 -1.4887  0.9727
 3790SOL     OW19226   1.760   2.660   1.654  0.1888 -0.5399 -0.5960
 3790SOL    HW119227   1.818   2.597   1.601 -0.3830 -1.6044  0.0184
 3790SOL    HW219228   1.696   2.607   1.710  1.0275  0.5496  1.4530
 3791SOL     OW19229   2.877   2.952   1.165 -0.3232  0.0770 -0.3154
 3791SOL    HW119230   2.817   2.908   1.099 -0.5570 -1.8190  1.1193
 3791SOL    HW219231   2.893   2.890   1.242  2.5031  1.0040 -0.1031
 3792SOL     OW19232   3.048   8.784   1.452  0.0120 -0.2911  0.3881
 3792SOL    HW119233   3.078   8.722   1.379 -1.8194  1.8583 -2.2920
 3792SOL    HW219234   2.954   8.762   1.478 -0.4785  1.0040 -0.2445
 3793SOL     OW19235   3.394   8.897   1.140 -0.0670 -0.0839  0.3266
 3793SOL    HW119236   3.338   8.976   1.162 -0.3376 -0.8216  2.4259
 3793SOL    HW219237   3.349   8.843   1.069 -0.3106  1.1672 -0.4724
 3794SOL     OW19238   9.514   7.057   1.534 -0.4722  0.5501  0.2093
 3794SOL    HW119239   9.527   6.967   1.575 -0.2365  0.9725  1.0682
 3794SOL    HW219240   9.419   7.087   1.547 -0.5854  0.3716 -0.1955
 3795SOL     OW19241   2.684   6.141   0.415 -0.1794  1.0508 -0.0713
 3795SOL    HW119242   2.627   6.087   0.354  0.3236  0.1182  0.2670
 3795SOL    HW219243   2.765   6.172   0.367 -0.5433  1.6361 -0.3087
 3796SOL     OW19244   3.546   4.524   1.458 -1.2346  0.2931 -0.1160
 3796SOL    HW119245   3.450   4.548   1.475 -1.0793  1.5716 -0.9521
 3796SOL    HW219246   3.585   4.588   1.392  0.2552 -0.1145  0.3470
 3799SOL     OW19247   4.022   9.396   1.066  0.0226 -0.3857  0.0970
 3799SOL    HW119248   4.062   9.313   1.106 -0.2984 -0.8345 -0.5058
 3799SOL    HW219249   3.933   9.374   1.027 -2.0424  1.1468  3.7623
 3800SOL     OW19250   2.723   5.803   1.475 -0.3680 -0.1208 -0.8955
 3800SOL    HW119251   2.795   5.826   1.540 -0.0502 -1.8521 -0.6281
 3800SOL    HW219252   2.761   5.801   1.383 -0.4770  0.7492 -0.9667
 3802SOL     OW19253   9.906   2.809   0.357 -0.1105 -0.5380 -0.0775
 3802SOL    HW119254   9.965   2.731   0.378  1.5942  0.6342 -0.3945
 3802SOL    HW219255   9.941   2.891   0.404 -1.6195  0.1325 -0.0982
 3803SOL     OW19256   9.196   5.847   0.994  0.2120 -0.0506 -0.5107
 3803SOL    HW119257   9.198   5.791   0.911  0.3147 -3.0792  1.4588
 3803SOL    HW219258   9.104   5.885   1.006 -1.2116 -3.5607  0.4518
 3804SOL     OW19259   3.292   8.201   1.484  0.0076  0.1443  0.2313
 3804SOL    HW119260   3.324   8.131   1.420  0.1686  0.6519 -0.2500
 3804SOL    HW219261   3.289   8.163   1.576 -0.3157 -0.6276 -0.0900
 3805SOL     OW19262   9.324   0.887   1.641 -0.1900  0.4823 -0.0433
 3805SOL    HW119263   9.298   0.798   1.602 -0.8872  0.3780  0.6496
 3805SOL    HW219264   9.299   0.889   1.738 -0.3506  1.5090 -0.1038
 3806SOL     OW19265   1.536   4.803   1.808 -0.4309 -0.1290 -0.1714
 3806SOL    HW119266   1.547   4.756   1.896 -1.9045 -0.5080 -0.1679
 3806SOL    HW219267   1.530   4.902   1.824  1.0325 -0.0510 -0.0236
 3807SOL     OW19268   4.032   5.230   0.128  0.3774  0.3355  0.4241
 3807SOL    HW119269   4.007   5.199   0.219  2.3193 -0.6557  0.6612
 3807SOL    HW219270   3.965   5.296   0.095 -0.3071  0.7597  2.5992
 3808SOL     OW19271   9.021   9.194   1.693  0.1412  0.1240  0.5294
 3808SOL    HW119272   9.031   9.237   1.783  0.6418 -0.0989  0.5780
 3808SOL    HW219273   9.100   9.218   1.636 -0.5753  0.9524 -0.1343
 3809SOL     OW19274   1.381   0.095   1.849 -0.4368  0.1615 -1.0554
 3809SOL    HW119275   1.426   0.169   1.899 -0.2685  0.8020 -2.1327
 3809SOL    HW219276   1.386   0.010   1.902  0.6413  0.5915 -0.4560
 3810SOL     OW19277   9.568   4.013   2.486  0.0573 -0.1744 -0.2972
 3810SOL    HW119278   9.518   3.926   2.494 -0.5480  0.0735 -1.3830
 3810SOL    HW219279   9.527   4.069   2.415  1.1109  0.5711 -0.3311
 3811SOL     OW19280   8.041   3.548   0.360 -0.3471 -0.5296  0.1171
 3811SOL    HW119281   8.115   3.527   0.424 -0.8415 -0.5149  0.6973
 3811SOL    HW219282   8.080   3.589   0.277  0.2024  0.6174  0.9121
 3812SOL     OW19283   4.418   0.836   0.561  0.5259 -0.2606  0.8706
 3812SOL    HW119284   4.485   0.763   0.572  2.6345  1.5301  0.3222
 3812SOL    HW219285   4.429   0.903   0.635 -0.7437 -0.0022  0.8400
 3813SOL     OW19286   8.876   0.574   1.466 -0.7892  0.3016  0.1185
 3813SOL    HW119287   8.921   0.664   1.461 -1.5614  0.5894 -2.2732
 3813SOL    HW219288   8.777   0.587   1.471 -0.9330 -0.4204 -0.8382
 3815SOL     OW19289   4.801   9.948   2.616  0.4412  0.7217 -0.2948
 3815SOL    HW119290   4.778   9.970   2.521 -0.4508  0.6079 -0.1136
 3815SOL    HW219291   4.900   9.938   2.625  0.4178 -0.9073 -1.5759
 3816SOL     OW19292   1.386   7.881   1.961  0.0078  0.0015  0.4457
 3816SOL    HW119293   1.393   7.881   2.061 -2.1910 -0.7436  0.6213
 3816SOL    HW219294   1.363   7.789   1.929 -2.2762  0.8705 -0.4904
 3817SOL     OW19295   2.274   8.801   2.160 -0.0431  0.8462 -0.0962
 3817SOL    HW119296   2.217   8.747   2.098  1.2418 -0.4490 -0.1796
 3817SOL    HW219297   2.218   8.871   2.204 -1.3990  0.4911 -1.1991
 3818SOL     OW19298   3.642   3.383   1.776  0.7380  0.0063  0.1598
 3818SOL    HW119299   3.649   3.387   1.676 -0.6768  0.7394  0.0730
 3818SOL    HW219300   3.568   3.443   1.806  1.2705 -0.0820  1.6678
 3819SOL     OW19301   0.096   1.897   1.313 -0.5400  0.3637  0.3824
 3819SOL    HW119302   0.177   1.859   1.269 -0.8459  0.9408 -0.6922
 3819SOL    HW219303   0.023   1.829   1.313 -0.4960  0.3183  0.1256
 3820SOL     OW19304   3.190   2.587   0.502  0.8033 -0.5211  0.2109
 3820SOL    HW119305   3.188   2.544   0.412 -0.6551  0.2400 -0.1267
 3820SOL    HW219306   3.122   2.546   0.562  0.8425 -0.1051  0.5493
 3822SOL     OW19307   2.469   0.033   2.345 -0.3457  0.7748  0.1020
 3822SOL    HW119308   2.522  -0.031   2.400 -1.0066 -0.6431 -0.8734
 3822SOL    HW219309   2.474   0.124   2.385  1.3945  0.3087  0.9742
 3826SOL     OW19310   0.739   8.159   2.307 -0.1773 -0.6456  0.4661
 3826SOL    HW119311   0.819   8.177   2.250 -0.6063 -0.6574 -0.1574
 3826SOL    HW219312   0.671   8.231   2.292 -0.2663 -0.6154  1.0169
 3827SOL     OW19313   2.384   4.297   0.126 -0.0192 -0.3495  0.1636
 3827SOL    HW119314   2.409   4.247   0.208  0.8747  0.0559  0.1462
 3827SOL    HW219315   2.462   4.352   0.096 -1.1629  1.5476  0.5638
 3828SOL     OW19316   7.515   1.054   0.096 -0.3340 -0.1832 -0.5935
 3828SOL    HW119317   7.465   0.971   0.069  1.8097 -1.7543  0.0926
 3828SOL    HW219318   7.535   1.108   0.014 -1.8970 -0.2282 -1.0372
 3829SOL     OW19319   0.718   8.791   2.218  0.6828 -0.2755 -0.1264
 3829SOL    HW119320   0.788   8.748   2.161  0.4947  0.7228 -1.1407
 3829SOL    HW219321   0.734   8.768   2.314  1.6360 -1.1071 -0.4746
 3830SOL     OW19322   9.642   8.878   0.878  0.3719 -0.3847 -0.1718
 3830SOL    HW119323   9.563   8.866   0.818 -0.2000 -0.0646  0.5177
 3830SOL    HW219324   9.611   8.890   0.972  1.2251  0.2174  0.0354
 3831SOL     OW19325   0.866   1.720   1.030 -0.3977 -0.5329 -0.1611
 3831SOL    HW119326   0.785   1.763   0.991 -0.4176 -1.1198 -0.7808
 3831SOL    HW219327   0.872   1.625   0.998  1.0805 -0.1965 -0.9627
 3832SOL     OW19328   0.149   1.323   2.685  0.5623  0.3734 -0.1825
 3832SOL    HW119329   0.232   1.273   2.660 -0.6305 -1.1005 -1.2465
 3832SOL    HW219330   0.128   1.390   2.613  0.8452  0.7772  0.1080
 3833SOL     OW19331   1.418   7.870   2.227  0.3621  0.1598 -0.1752
 3833SOL    HW119332   1.517   7.866   2.240  0.3662  0.0914 -0.2258
 3833SOL    HW219333   1.384   7.960   2.255  0.6941  0.8709 -1.9432
 3834SOL     OW19334   8.299   0.340   2.158 -0.7009 -0.2838 -0.2046
 3834SOL    HW119335   8.322   0.247   2.130  0.0406 -0.0117 -0.5159
 3834SOL    HW219336   8.363   0.404   2.116 -0.4284  0.2598  1.0183
 3835SOL     OW19337   0.081   4.267   1.143 -0.0257  0.1816  0.0329
 3835SOL    HW119338   0.178   4.250   1.161 -0.3586 -3.2950 -1.1296
 3835SOL    HW219339   0.065   4.268   1.044 -0.8934  2.7635  0.1584
 3836SOL     OW19340   2.201   3.112   2.359 -0.3324  0.0417  0.2292
 3836SOL    HW119341   2.171   3.046   2.428 -0.7785  0.0832  0.0791
 3836SOL    HW219342   2.133   3.184   2.351 -1.1475 -0.8851 -1.4925
 3838SOL     OW19343   0.552   5.673   0.060 -0.5039 -0.2124 -0.2923
 3838SOL    HW119344   0.499   5.597   0.022 -0.7280 -0.7002  0.9664
 3838SOL    HW219345   0.647   5.644   0.075 -0.3723  0.0338 -0.6209
 3840SOL     OW19346   9.902   6.760   1.189 -0.2291 -0.4699  0.6119
 3840SOL    HW119347   9.865   6.850   1.165  1.8816  0.3157  0.2451
 3840SOL    HW219348   9.854   6.726   1.270 -0.7600  1.1888  1.0306
 3841SOL     OW19349   4.478   1.618   2.129 -0.6626  0.0252 -0.2728
 3841SOL    HW119350   4.558   1.646   2.183 -2.0868  0.6722  1.5683
 3841SOL    HW219351   4.487   1.651   2.036  1.2454  0.0522 -0.0918
 3844SOL     OW19352   0.646   2.987   0.614  0.4722  0.4233  0.3681
 3844SOL    HW119353   0.604   2.906   0.655  0.9240 -0.2123 -0.4085
 3844SOL    HW219354   0.719   3.021   0.674 -0.0019  0.5150  0.8976
 3845SOL     OW19355   1.304   9.961   0.320  0.2619  0.7901 -0.1073
 3845SOL    HW119356   1.313   9.862   0.325  1.4820  0.8479 -1.1389
 3845SOL    HW219357   1.342  10.002   0.403 -0.8585  0.3750  0.6294
 3846SOL     OW19358   9.791   9.375   0.662  0.1185  0.4589  0.1138
 3846SOL    HW119359   9.818   9.387   0.758  0.9180  3.0453 -0.4038
 3846SOL    HW219360   9.752   9.460   0.627 -1.6333 -0.9184 -1.4406
 3847SOL     OW19361   1.479   3.803   0.008 -0.1682 -0.3043 -0.3354
 3847SOL    HW119362   1.394   3.797   0.060  1.1385 -0.0089  1.8636
 3847SOL    HW219363   1.482   3.892  -0.039 -0.1578  0.5452  1.2362
 3848SOL     OW19364   2.039   3.643   2.253 -0.1386 -0.6063  0.3916
 3848SOL    HW119365   2.138   3.635   2.264  0.0108 -1.1885 -1.2176
 3848SOL    HW219366   2.016   3.735   2.220  0.0491 -1.0448 -0.9978
 3849SOL     OW19367   3.079   9.814   0.249 -0.2105  0.2855  0.1712
 3849SOL    HW119368   2.993   9.858   0.220 -0.2134  0.4935  0.4981
 3849SOL    HW219369   3.102   9.843   0.342  0.7794  1.0793 -0.3097
 3850SOL     OW19370   2.655   6.761   0.299  0.4319  0.0758 -0.7822
 3850SOL    HW119371   2.631   6.682   0.356  2.2540  0.5596  0.7051
 3850SOL    HW219372   2.654   6.733   0.203 -2.0532 -0.9161 -0.5151
 3851SOL     OW19373   3.239   8.349   2.569 -0.5240 -0.1316  0.0707
 3851SOL    HW119374   3.257   8.274   2.505 -0.6880 -0.1514  0.0482
 3851SOL    HW219375   3.321   8.406   2.577  0.1718 -1.2895  1.4022
 3852SOL     OW19376   1.122   1.865   2.672 -0.2129 -0.0309 -0.6467
 3852SOL    HW119377   1.165   1.864   2.762 -1.8617  0.4637  0.1441
 3852SOL    HW219378   1.116   1.771   2.638  0.1110 -0.2486 -0.1128
 3853SOL     OW19379   4.690   8.327   0.440  0.4272  0.0557  0.3017
 3853SOL    HW119380   4.641   8.342   0.354  0.6606  0.8668  0.3089
 3853SOL    HW219381   4.762   8.395   0.450  0.4544 -0.0863  1.1038
 3854SOL     OW19382   7.930   9.037   2.243 -0.3459  0.0764  0.0948
 3854SOL    HW119383   7.891   8.981   2.317 -1.6997  0.0113 -0.6537
 3854SOL    HW219384   7.891   9.009   2.156  2.2007 -0.6991 -0.8398
 3856SOL     OW19385   0.648   1.946   1.441  0.0166  0.7007  0.0278
 3856SOL    HW119386   0.605   1.946   1.351  0.7859  0.7422 -0.3480
 3856SOL    HW219387   0.609   1.873   1.498 -0.5577  0.7584 -0.2966
 3857SOL     OW19388   1.810   0.254   0.622 -0.6624  0.6781  0.5963
 3857SOL    HW119389   1.894   0.305   0.606  0.8546 -1.7349  0.5936
 3857SOL    HW219390   1.800   0.183   0.552 -1.1421 -0.9922  2.3139
 3858SOL     OW19391   3.729   2.182   2.215 -0.3877 -0.6416 -0.3322
 3858SOL    HW119392   3.760   2.094   2.181 -0.1636 -0.1854 -1.3241
 3858SOL    HW219393   3.800   2.222   2.274  1.0074  0.4395 -2.6645
 3859SOL     OW19394   1.686   8.125   1.590  0.0177 -0.4388 -0.6953
 3859SOL    HW119395   1.642   8.041   1.620 -0.1809 -0.5929 -1.4140
 3859SOL    HW219396   1.783   8.123   1.615 -0.3458 -0.1551  0.7624
 3860SOL     OW19397   3.440   2.475   0.665 -0.2567  0.2449  0.2436
 3860SOL    HW119398   3.390   2.544   0.718 -0.5250 -1.1162  1.8328
 3860SOL    HW219399   3.374   2.411   0.625  0.1663 -1.3290  2.0218
 3862SOL     OW19400   1.246   0.413   2.531  0.4716 -0.0970  0.2774
 3862SOL    HW119401   1.147   0.426   2.526  0.3996 -0.3944  0.8561
 3862SOL    HW219402   1.292   0.495   2.497  0.0317  0.0591  0.0419
 3863SOL     OW19403   0.013   2.594   1.112  0.5225 -0.1457  0.2126
 3863SOL    HW119404   0.099   2.622   1.155  1.0716 -0.1958 -0.8254
 3863SOL    HW219405  -0.004   2.651   1.032 -1.3866  1.1098  1.4793
 3864SOL     OW19406   0.678   3.428   0.602  0.3846 -0.3529  0.4729
 3864SOL    HW119407   0.582   3.412   0.626  0.8723 -1.2442  1.8599
 3864SOL    HW219408   0.706   3.517   0.636  0.0378 -0.0620  0.0087
 3865SOL     OW19409   1.751   1.692   1.939 -0.2889 -0.2731  0.3506
 3865SOL    HW119410   1.828   1.720   1.996 -0.4818  0.0305  0.4609
 3865SOL    HW219411   1.666   1.705   1.989 -0.2438 -3.2179  1.2787
 3866SOL     OW19412   2.119   7.155   1.558  0.2935  0.3046 -0.6389
 3866SOL    HW119413   2.069   7.073   1.587  1.0014  0.6274  1.6236
 3866SOL    HW219414   2.058   7.234   1.560  1.0298  0.8743  3.0647
 3867SOL     OW19415   9.270   4.423   0.592 -0.2233  0.2666  0.2755
 3867SOL    HW119416   9.358   4.402   0.635 -0.4433  0.0969  0.6483
 3867SOL    HW219417   9.274   4.514   0.551  0.7838 -0.5095 -1.4306
 3868SOL     OW19418   1.179   9.631   0.548 -0.0362 -0.7709  0.1393
 3868SOL    HW119419   1.124   9.635   0.465  1.1448  0.6773 -0.6083
 3868SOL    HW219420   1.162   9.712   0.603  0.1234 -1.1079  0.6810
 3869SOL     OW19421   3.156   5.969   2.071 -0.6958 -0.0310 -0.1477
 3869SOL    HW119422   3.179   5.995   1.977 -2.0557 -1.4709 -0.9053
 3869SOL    HW219423   3.181   5.874   2.086 -1.3327 -0.0812  0.6459
 3870SOL     OW19424   0.058   9.242   1.586 -0.3437  0.1771  0.3008
 3870SOL    HW119425  -0.041   9.244   1.584 -0.2936  1.9214 -1.0353
 3870SOL    HW219426   0.093   9.223   1.494  0.5422 -1.5723  0.9797
 3871SOL     OW19427   3.311   4.265   0.493  0.9341  0.2154  0.1679
 3871SOL    HW119428   3.250   4.343   0.480  0.6110 -0.3664 -2.0783
 3871SOL    HW219429   3.406   4.296   0.492  0.8267  0.5474 -1.2395
 3872SOL     OW19430   1.149   8.459   2.248 -0.1225 -0.1408  0.1840
 3872SOL    HW119431   1.180   8.515   2.324 -1.5881 -0.0675  0.7434
 3872SOL    HW219432   1.156   8.511   2.162  1.5541 -0.2354  0.2596
 3873SOL     OW19433   4.200   9.423   2.351 -0.0096 -0.6423 -0.4915
 3873SOL    HW119434   4.203   9.404   2.449  1.1922  1.2192 -0.1400
 3873SOL    HW219435   4.281   9.384   2.307  1.3266  1.6286 -0.1245
 3875SOL     OW19436   2.476   0.205   0.944  0.2577  0.2527 -0.2387
 3875SOL    HW119437   2.488   0.304   0.946 -2.2898  0.5793  0.0522
 3875SOL    HW219438   2.380   0.183   0.932  1.0147 -2.2086 -2.3308
 3876SOL     OW19439   1.904   5.048   1.027 -0.1272 -0.6055 -0.1008
 3876SOL    HW119440   1.986   5.100   1.001 -0.7172 -0.7480 -2.3993
 3876SOL    HW219441   1.826   5.110   1.037 -0.2765 -0.7457 -0.3772
 3877SOL     OW19442   3.727   9.538   0.559  0.6265 -0.6039 -0.0114
 3877SOL    HW119443   3.791   9.466   0.585 -0.4491 -1.1264  1.2389
 3877SOL    HW219444   3.658   9.500   0.498  1.0429 -0.2240 -0.7241
 3878SOL     OW19445   3.270   7.505   0.559 -0.8714 -0.0121  0.2889
 3878SOL    HW119446   3.189   7.454   0.530 -1.9920  1.0574  1.4952
 3878SOL    HW219447   3.276   7.504   0.659  0.4134  0.2100  0.2206
 3879SOL     OW19448   8.216   3.162   0.611  0.1421 -0.7420  0.3922
 3879SOL    HW119449   8.315   3.168   0.597 -0.0884  0.8086 -0.7529
 3879SOL    HW219450   8.188   3.226   0.683 -0.3041  0.6045 -0.9341
 3880SOL     OW19451   9.562   1.741   1.522 -0.4548 -0.6639  0.1946
 3880SOL    HW119452   9.603   1.745   1.613  2.0843 -0.9528 -0.8798
 3880SOL    HW219453   9.467   1.710   1.529 -0.0179 -1.5844  2.6511
 3881SOL     OW19454   1.908   5.571   1.954 -0.2291 -0.2454  0.3533
 3881SOL    HW119455   1.877   5.640   2.019  0.1685 -2.0740  2.5621
 3881SOL    HW219456   1.857   5.486   1.970  2.6283 -1.9162  0.9881
 3882SOL     OW19457   8.704   9.505   0.150  0.3478  0.4473  0.3614
 3882SOL    HW119458   8.778   9.442   0.127  0.1116  1.1361 -2.4775
 3882SOL    HW219459   8.741   9.589   0.188  0.8615 -0.1393  1.1582
 3883SOL     OW19460   8.682   1.286   0.321  0.0647  0.4412 -0.1784
 3883SOL    HW119461   8.671   1.197   0.365  1.0252 -0.5984 -1.9812
 3883SOL    HW219462   8.601   1.305   0.265 -0.0051  0.5727 -0.0351
 3884SOL     OW19463   8.018   9.441   1.972 -0.7369 -0.2641 -0.3562
 3884SOL    HW119464   7.974   9.391   2.046 -1.9262  1.7648  0.3566
 3884SOL    HW219465   7.956   9.448   1.894 -0.4660 -0.1899 -0.5673
 3885SOL     OW19466   1.886   7.824   1.301 -0.0077 -0.4062  0.1891
 3885SOL    HW119467   1.969   7.767   1.296  0.8224  0.9180 -1.9127
 3885SOL    HW219468   1.824   7.798   1.227  0.1105  0.9639 -0.4117
 3886SOL     OW19469   4.719   3.866   1.020 -0.5269 -0.6488 -0.3199
 3886SOL    HW119470   4.624   3.894   1.033 -0.5548 -1.0038  0.2490
 3886SOL    HW219471   4.779   3.945   1.029 -0.7313 -0.5025 -0.2489
 3888SOL     OW19472   9.666   7.062   1.862  1.2481 -0.2076 -0.1798
 3888SOL    HW119473   9.620   7.146   1.890  2.0732  0.1681  0.0820
 3888SOL    HW219474   9.759   7.061   1.900  2.2790  0.1358 -2.6050
 3889SOL     OW19475   9.022   7.316   2.224 -0.2043 -0.5738 -0.0969
 3889SOL    HW119476   9.038   7.397   2.281 -0.8760 -1.4528  1.3711
 3889SOL    HW219477   9.096   7.250   2.238  0.2793 -0.2823 -1.2011
 3890SOL     OW19478   0.592   0.432   0.025 -0.3902  0.4561  0.2205
 3890SOL    HW119479   0.642   0.394   0.102 -0.8578 -2.4007 -0.8077
 3890SOL    HW219480   0.495   0.441   0.048 -0.8727 -2.2268 -0.6181
 3892SOL     OW19481   1.566   2.606   1.090 -0.4907  0.0002 -0.1552
 3892SOL    HW119482   1.570   2.584   1.188  0.9614 -0.3872 -0.2880
 3892SOL    HW219483   1.600   2.528   1.038 -0.3048  0.5975 -0.9226
 3893SOL     OW19484   9.419   8.465   1.339  0.4847  0.4224 -0.1282
 3893SOL    HW119485   9.417   8.372   1.376  1.1992  0.1464 -0.7915
 3893SOL    HW219486   9.513   8.497   1.333  0.4208  0.3025 -2.1117
 3894SOL     OW19487   2.488   9.044   2.185  0.2565 -0.3592 -0.0629
 3894SOL    HW119488   2.509   9.091   2.099 -1.1020 -1.1264 -0.8285
 3894SOL    HW219489   2.474   8.946   2.167  1.1855 -0.7528  1.2281
 3895SOL     OW19490   3.094   1.379   0.762  0.0266  0.1197 -0.3453
 3895SOL    HW119491   3.066   1.465   0.720 -0.3991  0.6288  0.9493
 3895SOL    HW219492   3.014   1.333   0.802  0.3152 -0.6664 -0.6657
 3896SOL     OW19493   3.338   1.079   2.151  0.8956  0.0758  0.0168
 3896SOL    HW119494   3.341   1.155   2.087 -1.9754 -0.0319 -0.3081
 3896SOL    HW219495   3.349   0.993   2.101  1.0480  0.1152 -0.0172
 3897SOL     OW19496   3.611   3.926   2.380 -0.4443 -0.4009  0.1469
 3897SOL    HW119497   3.520   3.930   2.422 -1.3019 -1.7043 -1.5317
 3897SOL    HW219498   3.605   3.881   2.291  1.6504  0.6748 -0.5733
 3898SOL     OW19499   1.949   3.582   1.624  0.2703  0.5733  0.5616
 3898SOL    HW119500   2.030   3.616   1.671  2.4537 -1.3582 -1.7115
 3898SOL    HW219501   1.914   3.502   1.672  0.6607  0.4434  0.6288
 3900SOL     OW19502   8.367   3.443   2.058  0.3007  0.2375 -0.0329
 3900SOL    HW119503   8.443   3.496   2.021  0.2126 -1.1204 -2.2476
 3900SOL    HW219504   8.285   3.461   2.005  0.0563 -1.4102 -0.2238
 3901SOL     OW19505   9.358   8.262   0.804 -0.6192 -0.3354 -0.0061
 3901SOL    HW119506   9.408   8.282   0.888  0.7417 -0.1127 -0.8640
 3901SOL    HW219507   9.292   8.335   0.787  0.5987  0.7262 -0.2659
 3902SOL     OW19508   4.394   9.736   2.517 -0.0078  0.3640 -0.0363
 3902SOL    HW119509   4.310   9.689   2.542  0.4768 -0.7668 -0.5047
 3902SOL    HW219510   4.417   9.716   2.422  0.4295  1.2224 -0.1194
 3904SOL     OW19511   0.937   1.380   2.467 -0.0775  0.2066  0.4595
 3904SOL    HW119512   0.873   1.392   2.543  0.3948  1.3028  0.6921
 3904SOL    HW219513   0.922   1.290   2.425 -0.3205 -0.4237  1.8666
 3905SOL     OW19514   2.664   1.203   0.456 -0.4500 -0.1517 -0.2794
 3905SOL    HW119515   2.757   1.234   0.475 -0.7020  2.0232 -2.3055
 3905SOL    HW219516   2.659   1.168   0.362 -0.9258 -3.5224  0.9350
 3906SOL     OW19517   2.719   7.738   0.168 -0.4970 -0.0763 -0.4467
 3906SOL    HW119518   2.635   7.690   0.143 -0.0923 -0.5081 -0.9829
 3906SOL    HW219519   2.733   7.731   0.267 -1.5491  0.7515 -0.2194
 3907SOL     OW19520   0.421   2.211   1.085 -0.1338 -0.2194 -0.3518
 3907SOL    HW119521   0.321   2.221   1.080  0.0272  1.7108 -0.0228
 3907SOL    HW219522   0.455   2.174   0.998 -1.1328 -1.0381 -0.4110
 3908SOL     OW19523   7.827   9.212   0.149 -0.2721  0.3275 -0.2278
 3908SOL    HW119524   7.790   9.269   0.223 -1.2208 -2.2898  1.3971
 3908SOL    HW219525   7.916   9.177   0.176  0.2272  0.8872 -1.1405
 3909SOL     OW19526   2.935   9.938   1.136 -0.4667  0.1319  0.7504
 3909SOL    HW119527   2.924   9.844   1.104 -0.9393 -0.4359  2.5464
 3909SOL    HW219528   2.866   9.996   1.094 -0.7357 -0.4928  0.3264
 3910SOL     OW19529   4.091   2.321   2.622 -0.4050  0.9521 -0.1564
 3910SOL    HW119530   4.185   2.308   2.591 -0.3996  0.7643 -0.0607
 3910SOL    HW219531   4.028   2.309   2.545 -0.4499 -0.3675  0.0831
 3912SOL     OW19532   3.924   3.701   0.714  0.3930 -0.7676  0.0441
 3912SOL    HW119533   3.888   3.751   0.636  3.5431  0.2144 -0.8562
 3912SOL    HW219534   3.949   3.766   0.787  1.8204 -1.2636  0.0060
 3913SOL     OW19535   4.566   8.414   2.625 -0.0256  0.0080  0.0177
 3913SOL    HW119536   4.498   8.465   2.679 -1.1455  1.0865 -2.3440
 3913SOL    HW219537   4.617   8.478   2.567 -0.5606 -1.3912 -2.0440
 3914SOL     OW19538   3.164   1.896   1.405  0.2823 -0.4381  0.1027
 3914SOL    HW119539   3.143   1.800   1.384 -0.5170 -0.5198  1.2165
 3914SOL    HW219540   3.104   1.955   1.351 -0.9030 -0.6216  1.1941
 3915SOL     OW19541   6.910   8.813   2.049 -0.2518  0.3018 -0.1806
 3915SOL    HW119542   6.903   8.713   2.047 -1.1440  0.3833 -1.3382
 3915SOL    HW219543   6.826   8.851   2.089  0.4997  0.5494  1.1806
 3916SOL     OW19544   3.259   4.621   1.774 -0.3222 -0.4759  0.0318
 3916SOL    HW119545   3.167   4.582   1.765 -0.9648  0.5944  1.6930
 3916SOL    HW219546   3.323   4.549   1.802 -0.7151 -1.1411 -0.7341
 3917SOL     OW19547   7.703   9.942   0.538  0.1632 -0.1407 -0.0250
 3917SOL    HW119548   7.730   9.943   0.634 -1.0139 -1.6531  0.3327
 3917SOL    HW219549   7.705   9.848   0.504 -0.4356  0.2635 -1.1997
 3918SOL     OW19550   8.227   0.601   1.711 -0.0179 -0.2811  0.0659
 3918SOL    HW119551   8.323   0.625   1.727 -0.7961  2.6961  0.5070
 3918SOL    HW219552   8.177   0.681   1.678 -2.4439 -1.6978  0.1729
 3919SOL     OW19553   9.301   2.378   1.866  0.0320  0.4743 -0.5973
 3919SOL    HW119554   9.223   2.441   1.863 -0.7742 -0.5357 -1.4979
 3919SOL    HW219555   9.384   2.427   1.840 -0.6022  1.1411 -1.3975
 3922SOL     OW19556   9.137   2.648   0.393 -0.1923  0.3951 -0.3013
 3922SOL    HW119557   9.186   2.713   0.335  3.1495 -0.8069  1.0474
 3922SOL    HW219558   9.183   2.642   0.482 -2.5564 -1.1796  0.8734
 3923SOL     OW19559   8.928   6.350   2.271 -0.2490 -0.1471  0.7669
 3923SOL    HW119560   8.933   6.252   2.289  0.0335 -0.2970 -0.1408
 3923SOL    HW219561   9.015   6.393   2.299 -0.4818 -0.1008  1.4439
 3924SOL     OW19562   9.790   5.781   1.790  0.5619 -0.7265 -0.3088
 3924SOL    HW119563   9.740   5.830   1.862  0.6121 -1.0633 -0.0448
 3924SOL    HW219564   9.880   5.755   1.824  0.5423 -0.9846 -0.4525
 3925SOL     OW19565   8.159   6.961   2.539 -0.3293  0.1007  0.1034
 3925SOL    HW119566   8.204   7.008   2.463  0.5707  0.8144  1.0568
 3925SOL    HW219567   8.205   6.985   2.625 -0.9789 -1.1315  0.8105
 3927SOL     OW19568   0.199   8.320   2.637 -0.6215 -0.3671 -0.1116
 3927SOL    HW119569   0.103   8.323   2.613 -0.1946 -0.1595 -1.8558
 3927SOL    HW219570   0.252   8.283   2.561  0.7917  0.4870  0.4288
 3928SOL     OW19571   2.524   3.768   0.098  0.1186  0.2832 -0.4669
 3928SOL    HW119572   2.466   3.828   0.043  1.3386  1.2091 -0.7418
 3928SOL    HW219573   2.467   3.695   0.138 -1.1693  0.9587 -1.0346
 3930SOL     OW19574   2.150   2.747   0.575 -0.4708  0.0074 -0.0569
 3930SOL    HW119575   2.067   2.731   0.629  0.1124  1.0644  1.1682
 3930SOL    HW219576   2.197   2.660   0.561 -0.6743 -0.2989  1.0772
 3931SOL     OW19577   1.690   4.646   0.464  0.1771 -0.1271 -0.5698
 3931SOL    HW119578   1.655   4.571   0.521 -0.5837  0.3407 -0.3998
 3931SOL    HW219579   1.757   4.699   0.516  0.3738 -0.4222 -0.5278
 3932SOL     OW19580   9.080   4.207   2.032  0.1079 -0.2821 -0.0417
 3932SOL    HW119581   9.015   4.281   2.016 -0.3352 -0.7323 -0.3542
 3932SOL    HW219582   9.046   4.147   2.104 -2.0830 -3.0852 -3.2285
 3933SOL     OW19583   1.465   5.455   2.596  0.3333  0.2314  1.1023
 3933SOL    HW119584   1.502   5.524   2.658  0.0200  1.4932 -0.0998
 3933SOL    HW219585   1.369   5.476   2.575 -0.7258 -2.2666  3.1343
 3935SOL     OW19586   9.959   1.771   2.634  0.3635  0.2916 -0.0499
 3935SOL    HW119587   9.926   1.678   2.617  1.3627  0.1851 -1.5349
 3935SOL    HW219588   9.915   1.833   2.569  0.2458  0.7470  0.4674
 3936SOL     OW19589   8.793   7.945   0.971 -0.1207  0.3331  0.2154
 3936SOL    HW119590   8.711   7.900   0.937  0.2142 -0.4169  0.3857
 3936SOL    HW219591   8.768   8.031   1.016 -0.9825 -0.6452  1.6342
 3937SOL     OW19592   1.427   2.844   2.348 -0.1036 -0.0522 -0.2245
 3937SOL    HW119593   1.432   2.890   2.437 -1.5587  0.4181 -0.3773
 3937SOL    HW219594   1.463   2.751   2.357  1.5599  0.6420  0.4024
 3938SOL     OW19595   0.566   0.461   2.646  0.9809 -0.2536  0.1166
 3938SOL    HW119596   0.488   0.484   2.587 -0.5235 -2.5857  1.1504
 3938SOL    HW219597   0.649   0.459   2.590 -0.0260  0.0420 -1.4454
 3939SOL     OW19598   9.451   2.648   2.204  0.2646  0.1705  0.3686
 3939SOL    HW119599   9.470   2.742   2.230  2.4979 -0.0153 -0.4651
 3939SOL    HW219600   9.537   2.602   2.181 -0.7436 -2.1778  1.1231
 3941SOL     OW19601   2.082   2.924   2.185 -0.0038 -0.0773  0.2427
 3941SOL    HW119602   2.174   2.893   2.159 -0.0306 -1.8897  2.1757
 3941SOL    HW219603   2.070   2.912   2.284 -1.6479  1.9764  0.3259
 3942SOL     OW19604   7.262   9.174   2.382  0.0633  0.1273 -0.0780
 3942SOL    HW119605   7.167   9.205   2.375 -0.6186 -1.8246  0.4170
 3942SOL    HW219606   7.306   9.220   2.459 -0.5289  0.8792 -0.1814
 3943SOL     OW19607   1.942   8.080   1.277 -0.8918 -0.5873 -0.1071
 3943SOL    HW119608   1.910   7.985   1.282 -0.7893 -0.7038 -1.6566
 3943SOL    HW219609   1.864   8.140   1.263 -0.5394 -0.8144 -3.2463
 3945SOL     OW19610   7.566   1.790   0.438 -0.0556 -0.0153  0.2413
 3945SOL    HW119611   7.618   1.855   0.493  0.2910 -1.3165  1.4945
 3945SOL    HW219612   7.472   1.787   0.471 -0.1022 -0.0421  0.1036
 3946SOL     OW19613   1.117   2.004   1.023 -0.0648  0.0024 -1.0216
 3946SOL    HW119614   1.173   1.926   1.052 -0.6781 -0.4213 -0.9599
 3946SOL    HW219615   1.090   2.057   1.103  0.2544  0.2119 -1.0522
 3949SOL     OW19616   0.060   6.915   0.774  0.2170 -0.1138  0.1012
 3949SOL    HW119617   0.086   6.860   0.854  0.9832  1.8041  1.1948
 3949SOL    HW219618   0.062   7.012   0.798 -1.5166  0.3976 -1.6922
 3951SOL     OW19619   1.494   5.734   1.337  0.3110 -0.0441 -0.2548
 3951SOL    HW119620   1.401   5.761   1.363  0.2278 -0.6996  0.1531
 3951SOL    HW219621   1.547   5.815   1.312  0.0876  0.4986  0.9942
 3952SOL     OW19622   9.054   3.550   0.853  0.8622 -0.0439  0.4705
 3952SOL    HW119623   8.985   3.615   0.820 -1.1807 -1.6227  1.5243
 3952SOL    HW219624   9.138   3.599   0.876 -0.0519  1.9835 -0.4226
 3953SOL     OW19625   2.936   4.564   1.060  0.1802  0.3078  0.0283
 3953SOL    HW119626   2.952   4.491   1.126 -0.5644 -0.7722 -0.9615
 3953SOL    HW219627   2.839   4.566   1.036  0.3674  0.9817 -0.6911
 3954SOL     OW19628   4.384   9.366   1.904  0.1441  0.2299 -0.2654
 3954SOL    HW119629   4.482   9.369   1.887 -0.3456 -0.2703 -3.4648
 3954SOL    HW219630   4.349   9.274   1.884 -1.2854  0.9293 -1.0897
 3955SOL     OW19631   1.177   1.875   1.567 -0.2507 -0.5383 -0.4602
 3955SOL    HW119632   1.274   1.889   1.549 -0.0240  1.4789  2.1108
 3955SOL    HW219633   1.153   1.780   1.547  1.7339 -0.5186 -3.1990
 3956SOL     OW19634   2.367   7.989   0.719 -0.5645 -0.3550  0.0110
 3956SOL    HW119635   2.428   8.068   0.710  0.0837 -0.8054  0.3655
 3956SOL    HW219636   2.410   7.921   0.779 -0.8333 -1.2558 -0.8138
 3957SOL     OW19637   7.240   8.534   2.518 -0.1675 -0.6663 -0.7137
 3957SOL    HW119638   7.169   8.550   2.449  0.2318 -0.2044 -1.0188
 3957SOL    HW219639   7.286   8.447   2.501  0.9694  0.1668 -1.9267
 3958SOL     OW19640   0.844   1.677   0.235  0.4067  0.2208  0.2558
 3958SOL    HW119641   0.766   1.629   0.194  0.7850 -0.8791  0.8075
 3958SOL    HW219642   0.843   1.664   0.334  2.0654 -0.9745  0.1374
 3959SOL     OW19643   2.799   4.543   1.510  0.2516  0.2836  0.9259
 3959SOL    HW119644   2.855   4.610   1.461 -0.8512 -0.1914 -1.0598
 3959SOL    HW219645   2.748   4.488   1.444  0.0318 -1.5515  2.5788
 3960SOL     OW19646   7.338   0.032   0.281  0.0404  0.0585  0.1178
 3960SOL    HW119647   7.296  -0.056   0.261 -1.1057  0.7727 -0.7091
 3960SOL    HW219648   7.430   0.035   0.241 -0.5170 -0.1887 -1.2083
 3961SOL     OW19649   2.324   3.568   0.734  0.0485  0.1747  0.5940
 3961SOL    HW119650   2.316   3.490   0.671  0.6218  0.0143  0.7232
 3961SOL    HW219651   2.296   3.652   0.686  1.0028  0.1361 -0.0516
 3962SOL     OW19652   0.826   0.628   1.348 -0.4469  0.1050 -0.3350
 3962SOL    HW119653   0.734   0.655   1.373 -1.0292 -0.8746 -1.3915
 3962SOL    HW219654   0.854   0.675   1.264 -0.0430  0.2655 -0.1171
 3963SOL     OW19655   0.711   6.653   1.387  0.2920  0.0858 -0.7769
 3963SOL    HW119656   0.611   6.652   1.390  0.3157  0.7699  0.4793
 3963SOL    HW219657   0.745   6.559   1.387 -0.3204 -0.1395  0.1340
 3964SOL     OW19658   0.843   3.432   1.646  0.5732  0.0007  0.5093
 3964SOL    HW119659   0.866   3.335   1.653  1.6697  0.2655  0.5796
 3964SOL    HW219660   0.746   3.441   1.621  0.4361 -1.1037  0.6067
 3966SOL     OW19661   4.820   9.507   1.642  0.1054  0.2991  0.4966
 3966SOL    HW119662   4.874   9.587   1.667  0.9687  0.3926 -1.5859
 3966SOL    HW219663   4.877   9.425   1.646 -0.6622 -0.1764  2.1891
 3967SOL     OW19664   0.525   2.381   1.827  0.3058  0.4252  0.5131
 3967SOL    HW119665   0.450   2.414   1.884  0.8166 -0.4162  1.7185
 3967SOL    HW219666   0.488   2.328   1.750 -0.3672  0.7737  0.5946
 3968SOL     OW19667   1.464   0.683   0.516  0.6534  0.5820  0.2474
 3968SOL    HW119668   1.421   0.772   0.528  0.0990 -0.0557  3.4074
 3968SOL    HW219669   1.563   0.694   0.506  0.3134  1.7082 -2.0981
 3970SOL     OW19670   8.196   2.839   2.556 -0.0763 -0.6095  0.2790
 3970SOL    HW119671   8.266   2.836   2.628 -0.5339 -1.8235  0.6814
 3970SOL    HW219672   8.202   2.927   2.509 -0.9734  0.9801  3.0039
 3972SOL     OW19673   1.075   9.489   2.430 -0.0770  0.0113 -0.6850
 3972SOL    HW119674   1.011   9.425   2.389 -0.5792  0.8293 -1.1995
 3972SOL    HW219675   1.053   9.582   2.399 -0.5314  0.6651  1.4819
 3973SOL     OW19676   8.126   8.864   1.659 -0.5027 -0.0413  0.0670
 3973SOL    HW119677   8.097   8.960   1.659 -0.7717 -0.1148 -0.7954
 3973SOL    HW219678   8.214   8.855   1.705  0.6270  0.9776 -1.8301
 3974SOL     OW19679   8.776   0.703   1.177 -0.3316 -0.4638  0.2207
 3974SOL    HW119680   8.777   0.745   1.268 -0.9847 -0.0746  0.0470
 3974SOL    HW219681   8.821   0.613   1.182 -1.6477 -1.0912  1.2322
 3975SOL     OW19682   9.025   3.093   1.906  0.4257  0.0408 -0.3919
 3975SOL    HW119683   9.035   3.093   1.807  0.1157 -0.7652 -0.4299
 3975SOL    HW219684   8.996   3.183   1.937  0.3080  0.2331 -1.0643
 3976SOL     OW19685   3.987   0.199   0.897  0.1117  0.2751 -0.1538
 3976SOL    HW119686   4.074   0.241   0.922  0.4257  0.2025 -1.0970
 3976SOL    HW219687   3.993   0.100   0.911  0.1205  0.2897 -0.0524
 3979SOL     OW19688   1.603   7.273   0.817  0.4193 -0.3798  0.0363
 3979SOL    HW119689   1.690   7.248   0.859  0.1022 -2.1579 -0.3369
 3979SOL    HW219690   1.613   7.274   0.718  0.1115 -0.1907  0.0050
 3980SOL     OW19691   5.354   9.294   2.534 -0.4026 -0.4918  0.1723
 3980SOL    HW119692   5.268   9.341   2.514 -1.3729 -2.5108 -0.5475
 3980SOL    HW219693   5.347   9.248   2.622  0.9977  1.6952  1.4812
 3982SOL     OW19694   9.745   2.714   1.726 -0.1877 -0.6393 -0.6491
 3982SOL    HW119695   9.770   2.657   1.804  1.3443 -0.0340 -0.6766
 3982SOL    HW219696   9.818   2.780   1.708 -0.0545 -1.4023 -3.1768
 3983SOL     OW19697   1.955   5.986   2.658 -0.3566 -0.1579 -0.1150
 3983SOL    HW119698   1.996   6.077   2.646  2.4043 -1.1803  1.0241
 3983SOL    HW219699   1.879   5.991   2.723  0.1703  1.2456  0.4104
 3988SOL     OW19700   8.472   0.489   1.983 -0.0118 -0.2833 -0.0039
 3988SOL    HW119701   8.448   0.481   1.887  0.8853 -0.8907 -0.1932
 3988SOL    HW219702   8.568   0.516   1.991 -0.6044  1.6932  0.7222
 3989SOL     OW19703   0.528   4.911   2.174  0.0248 -0.2021  0.5155
 3989SOL    HW119704   0.567   4.907   2.266 -0.8441 -0.2182  0.8931
 3989SOL    HW219705   0.583   4.973   2.117 -0.3869  1.1251  1.5259
 3991SOL     OW19706   9.555   5.327   1.816  0.6028 -0.3048  0.2847
 3991SOL    HW119707   9.609   5.407   1.844 -0.5153  0.2537  0.8902
 3991SOL    HW219708   9.545   5.327   1.717  1.2657 -0.1230  0.2132
 3992SOL     OW19709   0.914   2.545   0.730 -0.5125 -0.2991  0.7297
 3992SOL    HW119710   0.981   2.619   0.739 -0.6329 -0.0076 -0.6364
 3992SOL    HW219711   0.917   2.488   0.811  1.9476 -0.7288  0.3934
 3993SOL     OW19712   6.942   0.310   2.633 -0.1458  0.6989 -0.1626
 3993SOL    HW119713   7.023   0.346   2.588  0.9639 -0.0347  1.1855
 3993SOL    HW219714   6.865   0.309   2.570  1.1386  0.5250 -1.7356
 3994SOL     OW19715   2.066   5.831   1.957 -0.4226  0.2274 -0.6073
 3994SOL    HW119716   2.075   5.745   1.907 -0.1514  0.7249 -1.4379
 3994SOL    HW219717   2.157   5.864   1.983 -0.6191 -0.5984  1.2363
 3995SOL     OW19718   2.592   6.872   2.528  0.4854 -0.6818  0.0090
 3995SOL    HW119719   2.499   6.866   2.489 -1.0598  0.5746  3.3258
 3995SOL    HW219720   2.614   6.786   2.574  1.3934 -1.3383 -1.6244
 3996SOL     OW19721   3.760   8.601   0.572  0.2870 -0.6668  0.0689
 3996SOL    HW119722   3.830   8.664   0.606  0.3680 -0.7691  0.0916
 3996SOL    HW219723   3.698   8.577   0.646  0.5136 -0.9563  0.1678
 3997SOL     OW19724   9.942   1.355   1.139 -0.3161  0.0581 -0.2919
 3997SOL    HW119725   9.896   1.432   1.095  1.5516  0.9037 -0.8105
 3997SOL    HW219726  10.041   1.362   1.123  0.2149 -0.6427  2.4181
 3998SOL     OW19727   1.901   7.006   2.287  0.0632 -0.0991  0.2862
 3998SOL    HW119728   1.973   6.945   2.255  0.6613  0.5223  0.4192
 3998SOL    HW219729   1.938   7.067   2.358 -0.5751  0.2645  0.3159
 3999SOL     OW19730   3.866   2.517   0.854  0.1237  0.3809  0.3541
 3999SOL    HW119731   3.786   2.460   0.833  1.1749 -0.8721 -0.3561
 3999SOL    HW219732   3.861   2.602   0.801  0.3953 -0.7125 -1.4879
 4000SOL     OW19733   3.534   2.990   1.666  0.4245  0.3421 -0.1409
 4000SOL    HW119734   3.622   3.036   1.656  0.6009 -0.1026 -0.6373
 4000SOL    HW219735   3.505   2.996   1.761  0.6848  1.0436 -0.0986
 4001SOL     OW19736   1.791   2.024   1.294  0.3882 -0.2031 -0.0694
 4001SOL    HW119737   1.809   1.931   1.260 -0.8204 -1.2697  2.1264
 4001SOL    HW219738   1.869   2.055   1.347  0.3587 -0.3987  0.0913
 4002SOL     OW19739   2.025   8.284   1.880  0.3653 -0.4333 -0.6626
 4002SOL    HW119740   2.118   8.317   1.896  0.2310  0.2265 -1.1704
 4002SOL    HW219741   1.994   8.232   1.959  1.1042 -0.5150 -0.4192
 4003SOL     OW19742   3.101   2.510   1.110 -0.1585 -0.0041  0.2747
 4003SOL    HW119743   3.140   2.418   1.116 -0.7907 -0.2602  0.5307
 4003SOL    HW219744   3.019   2.515   1.167  0.1592  0.8702  0.6622
 4005SOL     OW19745   8.498   2.036   0.029  0.2200 -0.0818 -0.2255
 4005SOL    HW119746   8.456   1.951  -0.003  1.9442 -0.6663 -0.9822
 4005SOL    HW219747   8.428   2.108   0.034 -1.3740 -1.6436  0.9231
 4008SOL     OW19748   1.798   1.965   2.138  0.2383 -0.0848 -0.2069
 4008SOL    HW119749   1.790   1.878   2.186 -1.9238 -0.0787 -0.4931
 4008SOL    HW219750   1.836   2.034   2.199 -2.1441 -0.1661  1.4389
 4009SOL     OW19751   9.239   2.030   2.145  0.1310  0.3088 -0.5142
 4009SOL    HW119752   9.205   1.958   2.085  3.8429  0.3193 -2.7668
 4009SOL    HW219753   9.215   2.119   2.107  0.3597  0.3030 -0.6717
 4010SOL     OW19754   2.242   0.023   0.357 -0.0579 -0.0736  0.0475
 4010SOL    HW119755   2.306  -0.031   0.303 -1.9542 -1.0373 -1.2759
 4010SOL    HW219756   2.291   0.099   0.401  1.4995  0.8983 -3.1983
 4011SOL     OW19757   4.916   1.242   1.004 -0.1004 -0.0741 -0.4066
 4011SOL    HW119758   4.842   1.228   0.938  0.6869 -0.6648 -1.1745
 4011SOL    HW219759   5.002   1.212   0.964  0.7691  1.8802 -0.0165
 4012SOL     OW19760   1.606   2.499   1.858 -0.1372 -0.5731 -0.1641
 4012SOL    HW119761   1.550   2.572   1.897 -0.0611 -0.6725  0.1299
 4012SOL    HW219762   1.686   2.483   1.916 -0.3479 -1.1427 -0.0291
 4013SOL     OW19763   2.615   0.057   2.689  0.2064 -0.5999  0.4885
 4013SOL    HW119764   2.672   0.137   2.710  0.6755 -1.3789  2.3411
 4013SOL    HW219765   2.540   0.053   2.755  0.6368 -2.1070  0.9029
 4016SOL     OW19766   2.558   7.119   2.237 -0.3241  0.2186  0.2473
 4016SOL    HW119767   2.575   7.025   2.208  0.0394  0.7352 -1.2714
 4016SOL    HW219768   2.478   7.155   2.189 -1.5653  0.1094  2.1652
 4018SOL     OW19769   3.231   0.114   0.149  0.3355 -0.3226 -0.0698
 4018SOL    HW119770   3.171   0.141   0.074 -1.1717  1.5829  1.7498
 4018SOL    HW219771   3.195   0.033   0.194  0.1103 -0.2450 -0.1120
 4020SOL     OW19772   8.852   9.877   0.291  0.3413  0.1844 -0.8699
 4020SOL    HW119773   8.912   9.954   0.271 -0.0895  0.5753 -0.6508
 4020SOL    HW219774   8.907   9.794   0.304  0.8769  0.6665 -0.0253
 4021SOL     OW19775   1.477   6.139   0.856 -0.1223 -0.4824 -0.1647
 4021SOL    HW119776   1.388   6.184   0.854  0.0800  0.0164  1.4694
 4021SOL    HW219777   1.470   6.054   0.908  0.1139 -1.0078 -0.9755
 4022SOL     OW19778   1.421   6.795   2.141  0.4438  0.1328 -0.1537
 4022SOL    HW119779   1.461   6.879   2.105 -0.3843  0.9388  0.7653
 4022SOL    HW219780   1.475   6.762   2.218  0.5489  0.0453 -0.2653
 4023SOL     OW19781   8.760   9.034   0.023 -0.1473  0.0649  0.1610
 4023SOL    HW119782   8.740   8.972   0.099  1.0062 -0.4319  0.0665
 4023SOL    HW219783   8.717   8.999  -0.061  0.0849 -0.3497  0.2126
 4024SOL     OW19784   8.612   3.674   1.163 -0.1078 -0.8855 -0.0189
 4024SOL    HW119785   8.553   3.602   1.200 -0.2574  0.2886  2.1062
 4024SOL    HW219786   8.703   3.666   1.204 -0.1629  0.2023  0.3204
 4025SOL     OW19787   0.019   7.943   1.230  0.1224  0.3953 -0.3057
 4025SOL    HW119788  -0.003   7.846   1.238  1.3384 -0.0107 -1.6529
 4025SOL    HW219789  -0.022   7.979   1.146  0.3629  0.8369 -0.2334
 4026SOL     OW19790   9.827   1.966   2.070  0.0712  0.2115  0.0927
 4026SOL    HW119791   9.844   1.904   2.146  1.0377 -0.7389 -0.8831
 4026SOL    HW219792   9.734   1.954   2.036  0.9432 -2.3378 -1.5344
 4027SOL     OW19793   1.100   9.673   1.298 -0.2675 -0.0234 -0.6494
 4027SOL    HW119794   1.098   9.766   1.337 -0.0419  0.5996 -2.0890
 4027SOL    HW219795   1.013   9.628   1.318 -0.0523  0.1690  0.8135
 4028SOL     OW19796   8.540   7.723   1.862  0.2774  0.4462  0.0544
 4028SOL    HW119797   8.532   7.746   1.959  0.2659  2.8592 -0.5047
 4028SOL    HW219798   8.629   7.679   1.846  0.2164 -0.1001  1.1691
 4030SOL     OW19799   4.586   0.583   1.327  0.6842 -0.8524 -0.0114
 4030SOL    HW119800   4.540   0.665   1.364 -0.6651 -2.2227  1.4561
 4030SOL    HW219801   4.681   0.582   1.357  0.0843 -1.0059  1.9930
 4031SOL     OW19802   0.909   6.854   0.539  0.1726  0.0071  0.2346
 4031SOL    HW119803   0.962   6.909   0.475  1.1104 -0.6467  0.4446
 4031SOL    HW219804   0.824   6.903   0.563 -0.3066  0.1506 -1.6754
 4032SOL     OW19805   8.849   4.689   0.252 -0.2073 -0.4039 -0.3003
 4032SOL    HW119806   8.750   4.689   0.235 -0.3301 -0.9866  0.3763
 4032SOL    HW219807   8.880   4.783   0.267 -0.5197 -0.1351 -1.2746
 4033SOL     OW19808   0.615   4.251   1.815 -0.4300 -0.3591  0.2892
 4033SOL    HW119809   0.666   4.182   1.867 -0.7821  0.6146  1.9713
 4033SOL    HW219810   0.518   4.244   1.838 -0.6351 -0.1577 -0.5285
 4034SOL     OW19811   3.315   5.246   1.594  0.2915 -0.0998  0.5807
 4034SOL    HW119812   3.358   5.156   1.591  0.5401  0.0566 -0.8475
 4034SOL    HW219813   3.225   5.241   1.551  1.0726  0.7339 -1.1953
 4037SOL     OW19814   3.582   7.822   0.375  0.0811 -0.4344 -0.1474
 4037SOL    HW119815   3.577   7.743   0.435 -1.9162 -0.5707 -0.4487
 4037SOL    HW219816   3.630   7.897   0.421  1.4235 -1.5882  0.3680
 4038SOL     OW19817   4.684   1.874   1.276 -0.2059 -0.5926  0.7338
 4038SOL    HW119818   4.596   1.921   1.284 -1.2428 -2.6649  1.6833
 4038SOL    HW219819   4.724   1.895   1.186 -0.9202  1.5797  0.8873
 4039SOL     OW19820   4.596   3.405   0.730 -0.1024  0.3454  0.2487
 4039SOL    HW119821   4.596   3.309   0.701  1.4071  0.3637  0.1624
 4039SOL    HW219822   4.619   3.464   0.652 -0.3805  0.7355  0.4584
 4040SOL     OW19823   8.504   1.418   2.021 -0.1190 -0.0538 -0.1867
 4040SOL    HW119824   8.553   1.404   1.935 -0.7135  0.5893 -0.6302
 4040SOL    HW219825   8.542   1.357   2.091  0.7507 -0.1703 -0.7483
 4041SOL     OW19826   1.061   3.560   1.539 -0.2101 -0.5318 -0.4338
 4041SOL    HW119827   1.134   3.566   1.607  0.0500  1.5127 -0.8760
 4041SOL    HW219828   0.983   3.510   1.578 -0.3485  1.2533  1.6199
 4043SOL     OW19829   3.642   5.770   2.621  0.1708  0.2535  0.0678
 4043SOL    HW119830   3.585   5.688   2.626  0.3288  0.1457  0.0914
 4043SOL    HW219831   3.621   5.830   2.698  2.4560 -1.3069  1.9825
 4044SOL     OW19832   6.856   9.305   2.706 -0.2121  0.5382 -0.3206
 4044SOL    HW119833   6.900   9.234   2.651  0.3156  1.5649 -1.2370
 4044SOL    HW219834   6.926   9.354   2.759 -0.6063  0.2004  0.5189
 4045SOL     OW19835   9.766   3.178   1.201 -0.1177 -0.4777  0.0497
 4045SOL    HW119836   9.706   3.164   1.122  1.7586 -3.7699 -0.8869
 4045SOL    HW219837   9.713   3.167   1.285 -1.6932  0.9645 -0.7266
 4046SOL     OW19838   2.182   0.225   2.047 -0.6862 -0.1002  0.0466
 4046SOL    HW119839   2.084   0.228   2.025 -0.5817  1.0595 -0.3123
 4046SOL    HW219840   2.199   0.281   2.129 -0.1113  0.9540 -0.7807
 4048SOL     OW19841   0.325   7.866   2.232 -0.3396 -0.1345  0.9328
 4048SOL    HW119842   0.413   7.908   2.212 -0.8106 -0.0478 -1.1283
 4048SOL    HW219843   0.305   7.872   2.330  1.3797  0.9152  1.2235
 4049SOL     OW19844   9.365   7.009   2.078 -0.3453  0.3149 -0.6735
 4049SOL    HW119845   9.374   6.913   2.104 -0.1798  0.9666  1.8419
 4049SOL    HW219846   9.447   7.059   2.106 -1.5734  1.6966  0.5339
 4050SOL     OW19847   0.360   3.006   0.593 -0.5749  0.1329 -0.0980
 4050SOL    HW119848   0.335   3.100   0.572  0.6253  0.1954 -1.3315
 4050SOL    HW219849   0.459   2.998   0.596 -0.6528 -1.2137 -0.6199
 4052SOL     OW19850   2.888   7.554   1.078 -0.1893 -0.4798 -0.1109
 4052SOL    HW119851   2.947   7.579   1.155  0.8389 -0.5275 -0.8615
 4052SOL    HW219852   2.816   7.622   1.068 -1.3379 -1.3560  1.9145
 4053SOL     OW19853   1.224   8.066   2.311  0.1516 -0.4710 -0.2918
 4053SOL    HW119854   1.133   8.104   2.326 -0.2046 -1.7280  0.8288
 4053SOL    HW219855   1.248   8.006   2.387  2.0028 -0.0032 -0.4837
 4054SOL     OW19856   8.490   2.307   0.651 -0.5644 -0.2718 -0.1930
 4054SOL    HW119857   8.499   2.321   0.750 -0.7218 -1.1611 -0.0495
 4054SOL    HW219858   8.477   2.395   0.606  3.4648  0.6119  0.1512
 4055SOL     OW19859   8.812   0.281   2.048 -0.2693  0.3062  0.0997
 4055SOL    HW119860   8.743   0.353   2.040 -0.7563 -0.0725  0.7858
 4055SOL    HW219861   8.816   0.250   2.143  0.2092 -0.3015 -0.1188
 4056SOL     OW19862   3.602   4.141   1.107  0.2143 -0.2827  0.1745
 4056SOL    HW119863   3.694   4.179   1.115 -1.1554  2.9229  1.6731
 4056SOL    HW219864   3.563   4.166   1.019  0.2161 -0.3135  0.1650
 4057SOL     OW19865   2.348   8.574   1.311  0.0989  0.0786  0.2497
 4057SOL    HW119866   2.429   8.529   1.348 -0.6657 -1.1941  0.4235
 4057SOL    HW219867   2.299   8.510   1.251 -1.2712  0.5128  0.8764
 4059SOL     OW19868   7.818   1.525   0.936  0.3124 -0.2041 -0.5494
 4059SOL    HW119869   7.781   1.438   0.968 -1.4960  1.1637  1.1817
 4059SOL    HW219870   7.862   1.573   1.012  2.0089  0.0729 -1.6682
 4060SOL     OW19871   3.556   2.097   1.784  0.4103 -0.6375 -0.2114
 4060SOL    HW119872   3.464   2.113   1.818  0.7127  0.3246  0.1689
 4060SOL    HW219873   3.562   2.125   1.688  0.2138 -1.0390 -0.3415
 4061SOL     OW19874   1.041   7.637   2.486  0.4500  0.3324  0.1019
 4061SOL    HW119875   1.120   7.693   2.462  1.5319 -0.9823  0.5303
 4061SOL    HW219876   0.959   7.676   2.445  1.1116  2.4677  0.7508
 4062SOL     OW19877   2.595   6.181   2.359  0.5698 -0.2436  0.3373
 4062SOL    HW119878   2.510   6.135   2.384 -0.0702  1.0832  0.6266
 4062SOL    HW219879   2.673   6.133   2.399  0.0693 -2.2567 -1.0368
 4063SOL     OW19880   0.124   4.118   2.697  0.0385  0.0333 -0.4193
 4063SOL    HW119881   0.030   4.133   2.728  0.6337 -1.4212  2.2634
 4063SOL    HW219882   0.150   4.023   2.713  1.3010 -0.0932 -3.0466
 4064SOL     OW19883   1.268   4.314   2.469  0.2375 -0.2251 -0.2866
 4064SOL    HW119884   1.357   4.340   2.508 -0.7113 -0.4859  2.0859
 4064SOL    HW219885   1.234   4.389   2.412  2.0924 -0.2386 -1.4850
 4065SOL     OW19886   3.689   2.137   1.037  0.2644 -0.6776  0.0067
 4065SOL    HW119887   3.603   2.087   1.026  0.1513 -0.3042 -0.8535
 4065SOL    HW219888   3.756   2.078   1.084 -1.7037  0.4574  4.5126
 4067SOL     OW19889   2.685   7.525   2.482  0.0906 -0.6901  0.1179
 4067SOL    HW119890   2.760   7.460   2.488  0.3877 -0.3132  0.5048
 4067SOL    HW219891   2.601   7.476   2.458  0.7348 -0.8997 -1.8070
 4068SOL     OW19892   2.157   8.798   0.650  0.2116  0.1203 -0.2659
 4068SOL    HW119893   2.131   8.708   0.684  0.3889 -0.3769 -1.4339
 4068SOL    HW219894   2.075   8.854   0.638 -0.0093 -0.2797 -0.6442
 4069SOL     OW19895   3.909   3.441   0.631  0.3164  0.0096  0.3628
 4069SOL    HW119896   3.912   3.539   0.649 -0.2275  0.4863 -2.0189
 4069SOL    HW219897   3.917   3.391   0.717  0.9432  2.1319  1.5612
 4070SOL     OW19898   2.721   5.957   1.112 -0.0136  0.0393  0.4062
 4070SOL    HW119899   2.623   5.945   1.128  0.1736 -1.3950  0.5968
 4070SOL    HW219900   2.772   5.897   1.174  0.9268 -0.3042 -0.6828
 4071SOL     OW19901   5.591   9.220   2.079 -0.1376  0.0768  0.4789
 4071SOL    HW119902   5.564   9.253   2.169  2.6667  1.4406  0.8788
 4071SOL    HW219903   5.646   9.137   2.089  1.8241  1.3044  0.2062
 4072SOL     OW19904   3.703   7.724   0.683 -0.0465  0.2138 -0.2027
 4072SOL    HW119905   3.787   7.775   0.703  0.4189 -0.8341  0.5211
 4072SOL    HW219906   3.722   7.653   0.616 -0.0479 -0.9147  0.9761
 4073SOL     OW19907   1.146   7.502   1.780  0.1304  0.2664 -0.3893
 4073SOL    HW119908   1.086   7.569   1.824 -0.5721 -0.2958 -0.5002
 4073SOL    HW219909   1.153   7.523   1.682  2.2998  1.9811  0.0803
 4075SOL     OW19910   4.160   0.215   1.731 -0.1292  0.0077  0.7651
 4075SOL    HW119911   4.081   0.156   1.714 -0.7925  1.1131 -0.0922
 4075SOL    HW219912   4.211   0.227   1.646 -0.3970  1.2248  0.7674
 4076SOL     OW19913   0.733   9.224   1.813 -0.3393 -0.4077  0.1969
 4076SOL    HW119914   0.634   9.221   1.824 -0.1516 -1.9902  1.6590
 4076SOL    HW219915   0.773   9.141   1.853  1.4636 -0.3853 -1.5018
 4077SOL     OW19916   1.741   1.008   1.596  0.8381 -0.5536  0.4302
 4077SOL    HW119917   1.685   1.087   1.620  0.2179 -1.4185  1.8462
 4077SOL    HW219918   1.834   1.038   1.575 -0.0316  0.8503 -1.5935
 4078SOL     OW19919   0.283   7.902   2.509  0.8734  0.0092 -0.1550
 4078SOL    HW119920   0.355   7.948   2.562  0.0385  0.4527  0.5939
 4078SOL    HW219921   0.197   7.904   2.560  0.8944 -2.7692  0.0798
 4079SOL     OW19922   3.585   8.562   0.805  0.5680 -0.3869 -0.2299
 4079SOL    HW119923   3.554   8.657   0.813  2.3426  0.1891  0.0454
 4079SOL    HW219924   3.511   8.500   0.834 -1.2174  0.8078 -2.0741
 4080SOL     OW19925   4.781   9.219   2.088  0.2703  0.0429  0.5303
 4080SOL    HW119926   4.856   9.239   2.025  1.2386 -1.6964  1.0895
 4080SOL    HW219927   4.747   9.127   2.070 -0.9295  0.3727  1.0909
 4081SOL     OW19928   1.051   0.974   1.466  0.4016  0.3221  0.4066
 4081SOL    HW119929   1.109   1.013   1.538  2.1130 -0.0093 -0.7492
 4081SOL    HW219930   1.094   0.891   1.431 -1.3029 -0.4866  0.1993
 4082SOL     OW19931   8.795   7.619   1.862 -0.1373 -0.0552  0.3157
 4082SOL    HW119932   8.829   7.566   1.785 -0.2967  0.7780 -0.3406
 4082SOL    HW219933   8.857   7.609   1.940  0.1310 -0.7413  0.0149
 4083SOL     OW19934   9.651   7.970   1.331  0.5414  0.1873 -0.1703
 4083SOL    HW119935   9.747   7.960   1.305  0.1291 -0.3180 -1.5625
 4083SOL    HW219936   9.616   8.057   1.297  0.4592  0.2818  0.1619
 4084SOL     OW19937   8.600   2.134   1.995 -0.7233  0.4705  0.1027
 4084SOL    HW119938   8.651   2.158   2.077 -0.2671 -0.1012 -0.0081
 4084SOL    HW219939   8.599   2.212   1.932 -0.0543  0.5101  0.1416
 4085SOL     OW19940   1.217   6.072   0.562 -0.0503 -0.2957  0.3319
 4085SOL    HW119941   1.140   6.131   0.538  0.7902  1.3464  1.6056
 4085SOL    HW219942   1.299   6.102   0.512  0.5643  0.1232  1.5652
 4086SOL     OW19943   5.427   8.758   2.651 -0.4347 -0.1615 -0.4080
 4086SOL    HW119944   5.369   8.839   2.667 -0.7117 -0.0369 -1.9104
 4086SOL    HW219945   5.369   8.677   2.642 -0.3198 -0.1906 -0.9392
 4087SOL     OW19946   0.989   7.435   0.206 -0.0002 -0.0894  0.4545
 4087SOL    HW119947   0.901   7.430   0.159  1.4775 -2.6174 -2.2520
 4087SOL    HW219948   1.017   7.531   0.215 -1.3853  0.5753 -1.8557
 4088SOL     OW19949   9.697   8.695   1.202  0.1670  0.6679  0.4491
 4088SOL    HW119950   9.621   8.744   1.160  0.5883  1.4533  0.6011
 4088SOL    HW219951   9.782   8.747   1.190  0.5664  0.1266  0.8730
 4089SOL     OW19952   1.080   1.128   1.217 -0.6051 -0.1922 -0.3574
 4089SOL    HW119953   1.059   1.194   1.145  0.0912 -0.9402 -1.2628
 4089SOL    HW219954   1.124   1.175   1.294  2.0614  0.0668 -1.9777
 4090SOL     OW19955   9.326   1.432   0.095 -0.6402  0.4907  1.3072
 4090SOL    HW119956   9.303   1.373   0.018  2.6853  1.0659 -0.2328
 4090SOL    HW219957   9.307   1.385   0.181  0.8719 -2.4219  0.1279
 4094SOL     OW19958   1.452   3.572   2.455  0.5342  0.3769  0.1493
 4094SOL    HW119959   1.482   3.652   2.506 -0.1869 -0.1700  1.4618
 4094SOL    HW219960   1.360   3.546   2.484  0.7681 -0.9432 -0.2453
 4095SOL     OW19961   2.306   2.687   1.320  0.2245 -0.2465  0.0330
 4095SOL    HW119962   2.395   2.727   1.343 -0.1488  0.6676 -0.1232
 4095SOL    HW219963   2.242   2.759   1.295 -0.7861 -0.8521  0.8604
 4096SOL     OW19964   1.982   9.246   2.002  0.4154 -0.1007  0.6166
 4096SOL    HW119965   1.927   9.329   1.992  1.3034  0.3226 -0.9484
 4096SOL    HW219966   1.924   9.166   1.984  0.2067  0.3183 -0.6163
 4097SOL     OW19967   9.414   8.099   2.153 -0.3841 -0.2638  0.2509
 4097SOL    HW119968   9.448   8.154   2.076 -0.9200 -0.6399 -0.2543
 4097SOL    HW219969   9.320   8.124   2.173  0.2345  0.9342  1.7992
 4098SOL     OW19970   5.022   0.499   2.108  0.1195  0.0212  0.2409
 4098SOL    HW119971   4.982   0.537   2.025 -0.6102  1.0077  1.0334
 4098SOL    HW219972   4.948   0.470   2.170  0.6209  1.2724  1.4430
 4099SOL     OW19973   3.675   4.733   1.975 -0.1537  0.1672  0.3538
 4099SOL    HW119974   3.758   4.733   1.920 -0.7435 -1.4688 -0.5587
 4099SOL    HW219975   3.667   4.821   2.023  0.5088  1.5122 -1.9145
 4100SOL     OW19976   1.837   4.102   1.232  0.0216  0.2153 -0.1094
 4100SOL    HW119977   1.771   4.030   1.255  0.8931 -0.5326  0.0322
 4100SOL    HW219978   1.794   4.166   1.168 -1.1595  0.2456  0.6943
 4101SOL     OW19979   8.434   2.886   0.767 -0.5990 -0.0088 -0.2894
 4101SOL    HW119980   8.482   2.857   0.850  0.0984  1.6458 -0.0928
 4101SOL    HW219981   8.337   2.898   0.787 -0.5391 -0.2084  0.1322
 4102SOL     OW19982   9.639   3.366   0.853  0.3159 -0.7207 -0.1255
 4102SOL    HW119983   9.593   3.320   0.929 -0.6757  1.3111  0.5356
 4102SOL    HW219984   9.571   3.390   0.783  0.9039 -0.7162 -0.6994
 4103SOL     OW19985   7.453   8.670   2.140 -0.0098 -0.4456  0.0749
 4103SOL    HW119986   7.475   8.753   2.192  0.2806 -0.7469  0.4454
 4103SOL    HW219987   7.372   8.685   2.085 -0.8518 -0.3899  1.2956
 4104SOL     OW19988   3.882   7.223   0.276 -0.2263 -0.0672 -0.0130
 4104SOL    HW119989   3.937   7.228   0.193 -1.4448  1.1601 -0.7838
 4104SOL    HW219990   3.826   7.306   0.283 -0.0240 -0.0884  2.1147
 4105SOL     OW19991   9.309   0.878   2.592  0.3026  0.3452  1.1354
 4105SOL    HW119992   9.323   0.976   2.602 -2.1572  0.6225  2.1809
 4105SOL    HW219993   9.270   0.841   2.677  0.5354 -1.4040  0.5007
 4106SOL     OW19994   8.709   8.915   2.141  0.1476 -0.1560 -0.1112
 4106SOL    HW119995   8.708   8.962   2.230  2.7494 -0.6421  0.2149
 4106SOL    HW219996   8.701   8.982   2.068  0.1871  0.4506  0.4359
 4107SOL     OW19997   2.142   3.564   0.964  0.2149  0.4708 -0.1127
 4107SOL    HW119998   2.183   3.555   0.873 -0.8918 -0.9240 -0.5003
 4107SOL    HW219999   2.209   3.602   1.027  1.0821  1.2167 -1.4533
 4109SOL     OW20000   0.841   5.267   1.350  0.2643  0.4066  0.2008
 4109SOL    HW120001   0.753   5.260   1.303  0.6192 -2.2082 -0.1047
 4109SOL    HW220002   0.849   5.195   1.418  1.2869  1.9496  1.7709
 4110SOL     OW20003   8.085   1.258   2.273  0.2663 -0.1161  0.2670
 4110SOL    HW120004   8.144   1.326   2.316 -2.6015  2.2247  0.6719
 4110SOL    HW220005   8.061   1.188   2.341 -0.9770  1.3773  1.4411
 4111SOL     OW20006   4.517   0.345   1.899 -0.1207 -1.0431 -0.5029
 4111SOL    HW120007   4.424   0.380   1.909 -0.2667 -1.8345  1.1767
 4111SOL    HW220008   4.563   0.393   1.825 -1.0191  1.1939  0.3437
 4112SOL     OW20009   5.830   8.766   2.593 -0.5411  0.3713  0.1256
 4112SOL    HW120010   5.915   8.807   2.626 -0.2653  0.7349 -0.9966
 4112SOL    HW220011   5.757   8.834   2.592 -1.1488 -0.2195  2.1455
 4113SOL     OW20012   4.480   1.813   1.906  0.0862 -0.2179 -0.5179
 4113SOL    HW120013   4.525   1.769   1.828 -0.4926 -1.3062 -0.2443
 4113SOL    HW220014   4.382   1.818   1.890 -0.1720 -1.3919  0.5831
 4116SOL     OW20015   9.422   5.261   2.496  0.4472  0.1596  0.1166
 4116SOL    HW120016   9.456   5.354   2.499  0.6106  0.0874  0.4930
 4116SOL    HW220017   9.481   5.205   2.437  1.0336  0.0108  0.8475
 4117SOL     OW20018   3.377   0.566   1.790  0.5625  0.1233 -0.1309
 4117SOL    HW120019   3.323   0.483   1.772  0.0984  0.2557  0.6282
 4117SOL    HW220020   3.361   0.595   1.885  1.3228  0.6400 -0.1659
 4118SOL     OW20021   3.694   2.217   2.612  0.1537 -0.0296 -0.3541
 4118SOL    HW120022   3.665   2.305   2.649 -1.8173 -0.2400 -1.3121
 4118SOL    HW220023   3.793   2.214   2.605  0.2804  1.7194  0.6510
 4120SOL     OW20024   7.798   0.998   1.400  0.6812 -0.4888 -0.2095
 4120SOL    HW120025   7.769   1.011   1.305 -1.4914  1.8401  0.7373
 4120SOL    HW220026   7.863   1.069   1.425 -0.7674  0.4977  0.8232
 4121SOL     OW20027   0.331   5.868   1.272  0.1788  0.5273 -0.1454
 4121SOL    HW120028   0.343   5.835   1.178  1.8564  0.5653  0.0323
 4121SOL    HW220029   0.398   5.940   1.290 -0.9459  1.3770  0.6969
 4122SOL     OW20030   2.581   2.976   1.980 -0.0747  0.1885 -0.1395
 4122SOL    HW120031   2.634   2.916   1.920  0.9600  0.9877 -0.0333
 4122SOL    HW220032   2.595   2.948   2.076 -0.0097  0.2821 -0.1223
 4123SOL     OW20033   2.853   2.417   0.013  0.4090  0.2851 -0.7817
 4123SOL    HW120034   2.883   2.513   0.016  0.9512  0.1129 -0.6742
 4123SOL    HW220035   2.881   2.371   0.097 -1.3290  0.4596 -0.0703
 4124SOL     OW20036   9.749   4.723   1.637  0.1102 -0.2402  0.0682
 4124SOL    HW120037   9.756   4.736   1.538  0.1200 -0.4459  0.0434
 4124SOL    HW220038   9.834   4.750   1.681 -1.2610  3.9826  0.4298
 4125SOL     OW20039   3.802   1.059   2.209 -0.0510  0.6796  0.4553
 4125SOL    HW120040   3.798   1.013   2.298  1.7475 -2.2456 -0.8843
 4125SOL    HW220041   3.894   1.095   2.194 -0.3562  1.1992 -0.2065
 4126SOL     OW20042   1.964   2.822   0.023 -0.1133 -0.3608 -0.0236
 4126SOL    HW120043   2.041   2.884   0.010 -0.8993  0.2954 -1.5538
 4126SOL    HW220044   1.986   2.759   0.098  1.8710 -0.1330 -0.3724
 4127SOL     OW20045   8.720   3.104   0.624 -0.5008 -0.2146  0.2404
 4127SOL    HW120046   8.748   3.105   0.528 -2.3674 -3.5918 -0.4258
 4127SOL    HW220047   8.736   3.013   0.662  0.5997  1.1983  3.2856
 4128SOL     OW20048   8.896   1.780   2.620 -0.2227  0.4206  0.3332
 4128SOL    HW120049   8.860   1.734   2.701 -0.1154  2.4428  1.5484
 4128SOL    HW220050   8.984   1.823   2.642  0.1371  0.4255 -1.0365
 4129SOL     OW20051   8.641   9.823   0.455  0.3928 -0.2040  0.0258
 4129SOL    HW120052   8.705   9.853   0.384  1.3134 -1.4356  0.3273
 4129SOL    HW220053   8.672   9.736   0.493 -1.4082 -0.7757  0.2333
 4131SOL     OW20054   9.452   6.674   0.394 -0.3171  0.3716 -0.2511
 4131SOL    HW120055   9.389   6.729   0.339 -0.5797 -0.6308 -0.9872
 4131SOL    HW220056   9.399   6.612   0.452 -0.0215 -0.1870 -0.5706
 4132SOL     OW20057   8.288   6.988   1.476 -0.6280  0.1738 -0.3878
 4132SOL    HW120058   8.255   6.930   1.401 -1.5102  0.4564 -0.2346
 4132SOL    HW220059   8.372   6.951   1.513 -0.5474 -0.3459 -1.0785
 4133SOL     OW20060   1.837   2.057   0.882 -0.0231  0.0600  0.5486
 4133SOL    HW120061   1.845   2.104   0.794 -1.0619  0.6701  0.7782
 4133SOL    HW220062   1.887   2.108   0.951  2.2760 -1.3267 -0.0047
 4134SOL     OW20063   4.313   1.186   0.038 -0.2613 -0.0721 -0.0211
 4134SOL    HW120064   4.401   1.191  -0.010 -0.5492 -0.3053 -0.5883
 4134SOL    HW220065   4.240   1.209  -0.027 -0.7540 -1.5485  0.0066
 4135SOL     OW20066   7.313   9.938   1.664  0.1262 -0.2438 -0.1030
 4135SOL    HW120067   7.289   9.848   1.702 -1.0019 -0.2310 -0.7658
 4135SOL    HW220068   7.271   9.948   1.574  2.1518  0.0385 -1.0448
 4136SOL     OW20069   2.448   2.512   2.464  0.1447  0.3192 -0.1719
 4136SOL    HW120070   2.492   2.598   2.490  0.4327 -0.3992  1.9088
 4136SOL    HW220071   2.477   2.485   2.372  2.5597  0.8695  0.3915
 4137SOL     OW20072   4.450   7.692   2.681 -0.3404 -0.3112  0.7496
 4137SOL    HW120073   4.541   7.651   2.685 -0.4943 -0.7825 -0.5067
 4137SOL    HW220074   4.450   7.771   2.621  0.1640  2.1738  3.8649
 4138SOL     OW20075   4.388   7.776   0.136 -0.2657 -0.2536 -0.1212
 4138SOL    HW120076   4.382   7.678   0.156  1.8646 -0.0509  1.6656
 4138SOL    HW220077   4.324   7.826   0.194  0.3321 -0.3911  0.6709
 4141SOL     OW20078   9.416   3.176   2.307 -0.3133 -0.5238 -0.6443
 4141SOL    HW120079   9.408   3.259   2.253  0.5621  0.1630  0.2649
 4141SOL    HW220080   9.454   3.198   2.397  0.3912 -1.9697 -0.5718
 4142SOL     OW20081   8.195   2.152   2.602 -0.0523 -0.6487  0.3023
 4142SOL    HW120082   8.145   2.080   2.553 -0.6478 -1.3661  1.9183
 4142SOL    HW220083   8.153   2.166   2.692  0.4405  1.2967  0.2599
 4143SOL     OW20084   9.262   7.354   0.246  0.2352  0.2230  0.2048
 4143SOL    HW120085   9.226   7.406   0.168 -0.3987 -0.7555 -0.1698
 4143SOL    HW220086   9.188   7.335   0.310 -0.2676 -3.0433 -1.2671
 4144SOL     OW20087   1.388   5.995   1.572 -0.2171 -0.4047 -0.2075
 4144SOL    HW120088   1.387   6.037   1.662  2.0137 -1.7575  0.4869
 4144SOL    HW220089   1.320   5.921   1.569 -1.2542  0.5279 -0.1122
 4148SOL     OW20090   9.015   8.872   2.615  0.6127 -0.6936 -0.2782
 4148SOL    HW120091   8.990   8.861   2.519 -0.1487  1.3324 -0.3429
 4148SOL    HW220092   8.973   8.800   2.670 -1.7813  0.1307 -1.0021
 4149SOL     OW20093   1.933   5.960   2.229  0.4350 -0.0197  0.6484
 4149SOL    HW120094   2.006   5.894   2.245  0.6239  0.4654  1.8661
 4149SOL    HW220095   1.878   5.931   2.152  1.5822 -0.6827  0.0677
 4150SOL     OW20096   0.140   4.858   0.497  0.3187  0.2656  0.2306
 4150SOL    HW120097   0.224   4.880   0.446 -0.0813 -0.4089 -0.7275
 4150SOL    HW220098   0.154   4.879   0.593  0.8129  2.3393 -0.2601
 4151SOL     OW20099   1.344   5.923   2.627 -0.3670  0.3869  0.1535
 4151SOL    HW120100   1.414   5.893   2.561 -1.0617  4.0290 -2.4053
 4151SOL    HW220101   1.256   5.883   2.602 -0.4745  1.1302 -0.6712
 4152SOL     OW20102   3.513   1.870   0.445  0.2575  0.7701 -0.3730
 4152SOL    HW120103   3.524   1.861   0.544  0.9234 -0.3411 -0.5356
 4152SOL    HW220104   3.595   1.836   0.399  0.0168  1.4253 -1.3040
 4154SOL     OW20105   9.242   8.916   0.489 -0.9727 -0.0719 -0.2585
 4154SOL    HW120106   9.240   8.816   0.491  0.2683 -0.1342 -1.2855
 4154SOL    HW220107   9.197   8.948   0.405 -0.0521  0.1733 -0.6613
 4155SOL     OW20108   1.286   1.958   0.008  0.6310  0.2327  0.2836
 4155SOL    HW120109   1.210   1.953   0.073  1.3914  0.6628  1.2140
 4155SOL    HW220110   1.332   1.869   0.003  0.2549  0.0507 -0.0772
 4157SOL     OW20111   3.249   8.398   0.657 -0.0569 -0.7016 -0.0807
 4157SOL    HW120112   3.250   8.307   0.614 -0.6950 -0.8797  0.2675
 4157SOL    HW220113   3.243   8.468   0.587 -1.9828 -1.0217 -0.2564
 4159SOL     OW20114   1.065   0.314   1.648 -0.3805  0.0461  0.2288
 4159SOL    HW120115   1.107   0.266   1.571 -0.1775 -1.0433  1.0018
 4159SOL    HW220116   1.003   0.385   1.614 -0.9196 -0.9698 -0.9400
 4161SOL     OW20117   0.380   4.640   2.320 -0.4244  0.4974 -0.1788
 4161SOL    HW120118   0.302   4.602   2.270  0.2447 -0.3316 -0.5864
 4161SOL    HW220119   0.351   4.666   2.412 -0.6391 -1.9868  0.4706
 4162SOL     OW20120   1.933   8.192   1.614  0.7046  0.2082 -0.3814
 4162SOL    HW120121   1.955   8.235   1.526  2.8652 -2.0695 -1.0079
 4162SOL    HW220122   1.965   8.251   1.689  0.6532  1.2198 -1.1455
 4163SOL     OW20123   4.812   9.191   0.666  0.3386 -0.2377 -0.7418
 4163SOL    HW120124   4.825   9.236   0.578 -0.1941  0.3796 -0.5173
 4163SOL    HW220125   4.877   9.116   0.676  0.6249 -0.0960 -1.5163
 4165SOL     OW20126   3.795   2.494   0.512  0.2819 -0.2251  0.0276
 4165SOL    HW120127   3.728   2.427   0.542 -0.1555  1.5744  3.3202
 4165SOL    HW220128   3.872   2.495   0.576  0.8450  1.5260 -0.6484
 4166SOL     OW20129   1.955   7.038   0.665  1.0331 -0.2912 -0.4595
 4166SOL    HW120130   2.039   6.983   0.663  0.6699 -0.8613 -0.2556
 4166SOL    HW220131   1.888   6.999   0.601  1.1464  0.5275 -1.0844
 4168SOL     OW20132   1.173   6.543   0.982  0.4805  0.0928 -0.7386
 4168SOL    HW120133   1.135   6.620   1.032 -1.5298 -0.4317 -1.4379
 4168SOL    HW220134   1.270   6.532   1.007 -0.2381  0.3443  2.4237
 4169SOL     OW20135   2.606   3.140   2.708 -0.2063  0.3261  0.1372
 4169SOL    HW120136   2.542   3.145   2.785 -1.8318  0.1098 -1.1553
 4169SOL    HW220137   2.588   3.215   2.645 -0.7991 -1.1138 -1.4436
 4170SOL     OW20138   0.017   6.593   1.540  0.5909 -0.4044  0.0474
 4170SOL    HW120139   0.007   6.512   1.599  1.0260 -1.4678 -1.2994
 4170SOL    HW220140   0.112   6.623   1.543  0.7330 -0.7819 -0.4986
 4172SOL     OW20141   0.277   2.392   2.299 -0.2083 -0.0613 -0.0007
 4172SOL    HW120142   0.206   2.400   2.229 -0.2338 -0.3783 -0.0082
 4172SOL    HW220143   0.357   2.345   2.261  1.1422  2.8001 -0.8740
 4175SOL     OW20144   9.911   1.528   0.916 -0.1592  0.6127  0.0540
 4175SOL    HW120145   9.921   1.461   0.843  0.3658 -0.1193  0.7928
 4175SOL    HW220146   9.826   1.579   0.903  0.0541  0.6701 -1.2072
 4176SOL     OW20147   8.381   0.981   2.380  0.6234 -0.2663  0.3648
 4176SOL    HW120148   8.417   0.891   2.405 -0.7542 -0.3378  2.2207
 4176SOL    HW220149   8.439   1.052   2.419  0.4093 -0.3735  0.8896
 4178SOL     OW20150   9.020   9.332   1.266 -0.1466 -0.3132  0.0323
 4178SOL    HW120151   8.937   9.313   1.318  0.0694  1.4302  1.0347
 4178SOL    HW220152   9.019   9.427   1.235  0.3977 -0.9261 -1.9421
 4179SOL     OW20153   1.643   1.388   0.555  0.4199 -0.0782 -0.0744
 4179SOL    HW120154   1.564   1.440   0.586  0.7288  0.2703  0.1246
 4179SOL    HW220155   1.624   1.351   0.463 -0.6705 -1.5002  0.7015
 4181SOL     OW20156   1.882   3.968   2.031 -0.1690 -0.0065  0.1805
 4181SOL    HW120157   1.907   3.882   1.986 -2.0160 -0.4768  0.0026
 4181SOL    HW220158   1.939   3.981   2.111 -1.7403 -2.8602  1.8712
 4183SOL     OW20159   8.128   6.462   1.570  0.2076 -0.0246  0.5336
 4183SOL    HW120160   8.211   6.480   1.517 -0.2832 -0.8286 -0.5245
 4183SOL    HW220161   8.075   6.546   1.579  0.9882  0.4233  0.9496
 4184SOL     OW20162   9.075   3.221   0.207  0.0457 -0.1946  0.4108
 4184SOL    HW120163   9.007   3.288   0.174 -0.2412  0.1292  1.6235
 4184SOL    HW220164   9.145   3.208   0.137 -0.5466  0.4765 -0.3286
 4186SOL     OW20165   3.531   7.451   2.704  0.2349 -0.4553 -0.4387
 4186SOL    HW120166   3.627   7.436   2.725  0.1605 -1.2523 -0.6769
 4186SOL    HW220167   3.509   7.548   2.718  0.5515 -0.6701  1.7317
 4187SOL     OW20168   0.290   5.491   1.469 -0.2130  0.6407 -0.4818
 4187SOL    HW120169   0.339   5.577   1.478  0.2808  0.5041 -1.8196
 4187SOL    HW220170   0.197   5.501   1.503 -0.8964  2.3403 -2.8186
 4188SOL     OW20171   2.477   1.640   1.443  0.0075  1.0994  0.1126
 4188SOL    HW120172   2.473   1.704   1.519 -0.4386 -1.5735  2.4338
 4188SOL    HW220173   2.573   1.619   1.422  0.1244  1.6551  0.0859
 4189SOL     OW20174   8.274   5.489   0.088 -0.2754 -0.0269 -0.0538
 4189SOL    HW120175   8.372   5.497   0.110  0.1066  1.0596 -1.9956
 4189SOL    HW220176   8.248   5.393   0.083  0.9145 -0.3334 -0.4437
 4191SOL     OW20177   0.615   2.386   1.158  0.2392  0.2699 -0.0021
 4191SOL    HW120178   0.545   2.322   1.125 -0.5501  1.0467  0.1512
 4191SOL    HW220179   0.585   2.427   1.244  0.1382  1.8391 -0.7644
 4192SOL     OW20180   0.823   5.602   2.456  0.3139  0.4464  0.1013
 4192SOL    HW120181   0.788   5.666   2.524 -0.8746 -1.5289  1.4004
 4192SOL    HW220182   0.796   5.633   2.365  0.6016  2.2908  0.6208
 4193SOL     OW20183   1.792   4.797   0.992 -0.0180 -0.1406 -0.2003
 4193SOL    HW120184   1.808   4.896   0.990  1.5332 -0.3357  1.2526
 4193SOL    HW220185   1.795   4.761   0.899  2.6940  0.6992 -0.4821
 4194SOL     OW20186   3.473   1.800   0.896  0.0987  0.2187 -0.0823
 4194SOL    HW120187   3.530   1.815   0.816  0.7254 -0.1290  0.2988
 4194SOL    HW220188   3.406   1.728   0.876 -0.7615  1.1976 -0.8035
 4196SOL     OW20189   0.178   3.572   1.000  0.0192 -0.0396 -0.3495
 4196SOL    HW120190   0.088   3.606   0.973  0.2230  1.2703  0.5521
 4196SOL    HW220191   0.169   3.511   1.079  0.0079  1.0393  0.5076
 4197SOL     OW20192   0.263   1.589   1.793 -0.8129  0.0917  0.2935
 4197SOL    HW120193   0.229   1.586   1.887  0.6552  0.2408  0.8544
 4197SOL    HW220194   0.262   1.683   1.760  1.2906  0.4703  1.1939
 4198SOL     OW20195   2.430   0.859   0.901  0.0086 -0.0390 -0.3266
 4198SOL    HW120196   2.404   0.864   0.805 -1.2497 -1.4248 -0.0720
 4198SOL    HW220197   2.524   0.891   0.912 -0.2919  1.4137 -1.8168
 4199SOL     OW20198   1.839   1.012   0.928  0.2968 -0.3457  0.5831
 4199SOL    HW120199   1.931   0.976   0.914 -1.0210 -3.7868  0.2275
 4199SOL    HW220200   1.821   1.086   0.863  2.3167 -0.5933 -0.2743
 4200SOL     OW20201   1.981   1.065   1.894 -0.0661  0.1031  0.1312
 4200SOL    HW120202   1.926   1.149   1.899 -0.8573 -0.3445 -0.8248
 4200SOL    HW220203   2.004   1.046   1.798 -0.8060 -1.3392  0.2252
 4202SOL     OW20204   4.280   1.873   1.485  0.1937 -0.2286  0.0808
 4202SOL    HW120205   4.185   1.846   1.466 -0.0525  0.8100 -0.1643
 4202SOL    HW220206   4.337   1.791   1.490 -0.5556 -0.8078 -0.6723
 4203SOL     OW20207   2.185   8.541   2.170 -0.3217  0.4700 -0.5899
 4203SOL    HW120208   2.143   8.478   2.235 -2.3223  1.1356 -1.1727
 4203SOL    HW220209   2.270   8.576   2.207  0.6684 -2.3219 -0.1367
 4204SOL     OW20210   9.204   4.033   0.468 -0.2314  0.1905 -0.3952
 4204SOL    HW120211   9.159   4.117   0.436  0.3976  0.9368  0.6528
 4204SOL    HW220212   9.135   3.971   0.507 -0.4989  0.9052  0.2888
 4205SOL     OW20213   4.410   8.502   0.557  0.5783 -0.2821 -0.4267
 4205SOL    HW120214   4.354   8.577   0.594  0.3348 -1.3842  1.4930
 4205SOL    HW220215   4.505   8.532   0.549  0.8371 -0.2908  2.0536
 4206SOL     OW20216   9.594   7.767   0.409 -0.5184 -0.0580 -0.5120
 4206SOL    HW120217   9.575   7.669   0.399 -0.7229 -0.2989  1.9772
 4206SOL    HW220218   9.652   7.797   0.334  0.4911 -2.3350 -0.6896
 4207SOL     OW20219   0.879   2.874   1.852  0.2199  0.2842 -0.1936
 4207SOL    HW120220   0.792   2.900   1.812 -0.7161 -1.9187  0.3418
 4207SOL    HW220221   0.923   2.804   1.795 -0.1427 -1.3385  1.4445
 4208SOL     OW20222   1.779   2.891   2.380 -0.0399 -0.5597  0.3978
 4208SOL    HW120223   1.738   2.883   2.290  0.8864 -0.6597 -0.0201
 4208SOL    HW220224   1.817   2.803   2.408 -1.5632 -0.8936  1.5006
 4209SOL     OW20225   3.646   8.806   1.140  0.2503 -0.0520 -0.1656
 4209SOL    HW120226   3.554   8.841   1.123  0.2451  0.3932  0.7732
 4209SOL    HW220227   3.645   8.706   1.136  0.0507  0.0051 -1.7717
 4210SOL     OW20228   0.564   7.467   0.828 -0.1777 -0.1790 -0.2661
 4210SOL    HW120229   0.472   7.430   0.814 -0.0160 -0.8811  0.4873
 4210SOL    HW220230   0.568   7.514   0.916  0.4810 -1.0836  0.1888
 4211SOL     OW20231   0.580   0.718   1.439  0.4460 -0.9377 -1.0301
 4211SOL    HW120232   0.583   0.644   1.506  2.0499  0.3525  0.3897
 4211SOL    HW220233   0.487   0.728   1.404 -0.0621 -2.7298 -0.2457
 4212SOL     OW20234   8.996   1.644   0.126 -0.2773  0.6856 -0.2537
 4212SOL    HW120235   9.066   1.685   0.184  1.2737 -0.5308 -1.2261
 4212SOL    HW220236   8.905   1.660   0.165  0.6389  1.1571  1.6964
 4213SOL     OW20237   9.544   7.500   0.390 -0.3315  0.1219 -0.4742
 4213SOL    HW120238   9.596   7.447   0.456  1.0343  1.4172 -0.4850
 4213SOL    HW220239   9.501   7.439   0.323  0.7257 -0.9814 -0.1513
 4215SOL     OW20240   2.826   5.324   1.847 -0.0110 -0.4933  0.5503
 4215SOL    HW120241   2.839   5.335   1.946 -2.9043 -1.0112  1.0337
 4215SOL    HW220242   2.872   5.240   1.817 -1.3669 -1.7985  1.9956
 4216SOL     OW20243   8.890   5.828   2.250  0.0713  0.0880 -0.1276
 4216SOL    HW120244   8.842   5.915   2.259  0.8780  0.4361  0.9174
 4216SOL    HW220245   8.894   5.802   2.154 -0.2869  1.1336 -0.4359
 4219SOL     OW20246   9.046   0.846   1.996  0.1633  0.5943 -0.2308
 4219SOL    HW120247   9.060   0.857   2.094  0.8161 -0.7470 -0.1664
 4219SOL    HW220248   8.948   0.856   1.975 -0.1267 -0.1965  0.7032
 4220SOL     OW20249   0.763   0.381   0.232 -0.5201 -0.2955 -0.4619
 4220SOL    HW120250   0.838   0.318   0.252  2.0975  2.8277 -0.1303
 4220SOL    HW220251   0.751   0.444   0.308 -0.2079  2.3665 -2.5603
 4221SOL     OW20252   2.871   6.339   3.442  0.0419 -0.2413  0.2824
 4221SOL    HW120253   2.902   6.401   3.370 -0.7436  0.3372  0.4334
 4221SOL    HW220254   2.857   6.248   3.404  0.3617 -0.1134 -0.1373
 4222SOL     OW20255   4.000   3.809   1.900  0.4807  0.0205 -0.0473
 4222SOL    HW120256   3.921   3.749   1.898  0.2988  0.2630 -0.2022
 4222SOL    HW220257   4.005   3.862   1.815 -0.3761  1.5017  0.7910
 4223SOL     OW20258   4.050   4.232   1.015  0.4758  0.0540 -0.5221
 4223SOL    HW120259   4.093   4.267   1.098 -0.8087  1.0546 -0.2463
 4223SOL    HW220260   3.999   4.149   1.037 -1.0500  1.1028  0.0316
 4227SOL     OW20261   1.296   6.489   2.234 -0.2611 -0.7095 -0.1375
 4227SOL    HW120262   1.379   6.438   2.209 -0.0880 -0.8616  0.7287
 4227SOL    HW220263   1.294   6.501   2.333 -1.9995 -1.9159 -0.0165
 4229SOL     OW20264   3.763   3.862   0.551 -0.1109  0.0237 -0.3874
 4229SOL    HW120265   3.741   3.957   0.530 -0.1784  0.2590  0.7400
 4229SOL    HW220266   3.686   3.820   0.600  0.2455 -0.3704 -0.1593
 4230SOL     OW20267   9.913   1.107   0.997 -0.0190  0.2860 -0.3521
 4230SOL    HW120268   9.896   1.201   1.026 -1.6719  0.2974 -1.2930
 4230SOL    HW220269   9.971   1.107   0.915  2.0530  0.3623  1.0601
 4231SOL     OW20270   8.613   0.691   0.180 -0.0199  0.3294  0.1456
 4231SOL    HW120271   8.587   0.619   0.115  1.1842 -0.7059  0.7893
 4231SOL    HW220272   8.707   0.675   0.211  0.2142  2.1135  0.4075
 4232SOL     OW20273   0.346   8.219   2.164  0.1168 -0.0059  0.6428
 4232SOL    HW120274   0.293   8.170   2.233 -1.0919  1.0227  0.4576
 4232SOL    HW220275   0.364   8.159   2.086  0.6312 -0.8609  1.4212
 4233SOL     OW20276   8.633   4.669   0.595  0.0740 -0.6417 -0.4563
 4233SOL    HW120277   8.589   4.728   0.662  2.0980  1.7016 -1.0824
 4233SOL    HW220278   8.621   4.708   0.503  1.6160 -1.0446 -0.8561
 4234SOL     OW20279   0.432   4.743   1.603  0.3766  0.3186  0.0542
 4234SOL    HW120280   0.340   4.774   1.580  0.1648 -0.8002 -0.6051
 4234SOL    HW220281   0.431   4.701   1.694 -0.0472 -0.9987 -0.5626
 4235SOL     OW20282   0.303   9.483   2.272  0.7813  0.2476  0.1601
 4235SOL    HW120283   0.381   9.511   2.217  0.9366 -0.9794 -0.2636
 4235SOL    HW220284   0.277   9.389   2.248 -0.6509  0.5420  0.4802
 4236SOL     OW20285   9.068   7.794   1.997 -0.3202 -0.9130 -0.3409
 4236SOL    HW120286   8.992   7.786   1.932 -0.9396  1.0684  0.1234
 4236SOL    HW220287   9.152   7.814   1.948 -0.7694  0.4983 -0.5577
 4237SOL     OW20288   1.673   3.102   2.542 -0.3443  0.0960 -0.4085
 4237SOL    HW120289   1.715   3.042   2.474 -0.1647  1.2583 -1.3299
 4237SOL    HW220290   1.705   3.076   2.633 -1.0214 -1.8212 -0.7001
 4238SOL     OW20291   1.937   1.523   0.014  0.2121 -0.1336 -0.3827
 4238SOL    HW120292   1.894   1.589  -0.047  0.1630 -0.8462 -1.1324
 4238SOL    HW220293   1.884   1.438   0.015  1.0278 -0.6500 -0.5027
 4240SOL     OW20294   2.503   3.136   0.534  0.2120  0.1668  0.0737
 4240SOL    HW120295   2.513   3.146   0.633  2.7648 -2.3804  0.1289
 4240SOL    HW220296   2.406   3.129   0.511 -0.4645  1.8468  2.2513
 4241SOL     OW20297   0.349   5.304   1.284  0.0627  0.1276  0.1561
 4241SOL    HW120298   0.401   5.329   1.203  0.1801 -0.4772  0.0370
 4241SOL    HW220299   0.363   5.372   1.356  0.7461  0.1416  0.0064
 4242SOL     OW20300   7.471   0.136   0.853 -0.0569  0.6233 -0.2632
 4242SOL    HW120301   7.377   0.105   0.864  0.1739 -0.2050 -0.6425
 4242SOL    HW220302   7.492   0.144   0.756  0.2098  0.9886 -0.1765
 4244SOL     OW20303   0.272   4.423   0.452 -0.0765 -0.3288 -0.1768
 4244SOL    HW120304   0.364   4.454   0.478  0.1384  0.1582 -1.5013
 4244SOL    HW220305   0.239   4.477   0.374 -1.5870 -0.3374  0.4291
 4245SOL     OW20306   0.606   6.172   0.679  0.0296 -0.3835  0.3986
 4245SOL    HW120307   0.649   6.178   0.769  0.3923 -0.3375  0.2281
 4245SOL    HW220308   0.584   6.077   0.658  0.8734 -0.5281  0.1200
 4246SOL     OW20309   8.651   5.271   2.019  0.4478  0.4252 -0.2652
 4246SOL    HW120310   8.570   5.329   2.025  0.8344  1.0422 -0.9518
 4246SOL    HW220311   8.623   5.175   2.026 -0.1700  0.6992  1.0752
 4247SOL     OW20312   7.656   1.370   1.294  0.3174 -0.2151 -0.1138
 4247SOL    HW120313   7.582   1.350   1.358  0.4483  0.0237  0.1150
 4247SOL    HW220314   7.744   1.369   1.343  0.4096  0.0408 -0.2709
 4249SOL     OW20315   3.056   0.350   0.545  0.3468 -0.7747  0.3196
 4249SOL    HW120316   3.098   0.314   0.462 -1.0855 -1.9491  0.0639
 4249SOL    HW220317   2.988   0.284   0.578 -1.7601  1.3472  0.3336
 4250SOL     OW20318   3.622   2.170   1.526 -0.3157  0.5557  0.9005
 4250SOL    HW120319   3.699   2.108   1.545 -0.8325 -1.2593 -2.5154
 4250SOL    HW220320   3.646   2.230   1.449 -1.9546  0.6463  0.4445
 4252SOL     OW20321   8.477   3.425   1.193 -0.0871 -0.7737 -0.4985
 4252SOL    HW120322   8.508   3.344   1.243 -0.9046 -0.8657 -0.1384
 4252SOL    HW220323   8.378   3.421   1.180  0.0790 -0.6381 -1.9269
 4253SOL     OW20324   2.104   3.899   2.201 -0.4052 -0.5236  0.2950
 4253SOL    HW120325   2.162   3.913   2.121  2.0164 -3.2841  1.4823
 4253SOL    HW220326   2.124   3.969   2.270  0.2793 -0.4581  0.0299
 4254SOL     OW20327   9.964   5.362   1.527 -0.4246  0.1175 -0.3141
 4254SOL    HW120328  10.002   5.433   1.586 -2.3872  1.1462 -0.2564
 4254SOL    HW220329   9.897   5.308   1.577  0.2703 -1.1229 -0.6717
 4255SOL     OW20330   3.784   2.557   1.642 -0.5373  0.0401  0.4211
 4255SOL    HW120331   3.815   2.641   1.599 -1.8955  0.1122 -0.4405
 4255SOL    HW220332   3.684   2.556   1.647 -0.4915 -0.9361  1.6129
 4256SOL     OW20333   1.014   8.264   0.808  0.1104  0.4312 -0.0792
 4256SOL    HW120334   1.005   8.363   0.818 -1.4075  0.4316 -1.1091
 4256SOL    HW220335   0.922   8.223   0.804  0.7288 -1.0530  0.7304
 4257SOL     OW20336   9.120   5.584   2.582  0.3235 -0.2680  0.4630
 4257SOL    HW120337   9.030   5.624   2.563 -0.8538 -2.7187  0.7392
 4257SOL    HW220338   9.144   5.599   2.678 -0.6332 -1.2372  0.8551
 4258SOL     OW20339   3.203   0.643   1.494  0.1098  0.2684  0.1458
 4258SOL    HW120340   3.269   0.573   1.467 -0.2546  0.7703 -2.1709
 4258SOL    HW220341   3.221   0.727   1.443 -0.5135  1.3460  1.6575
 4260SOL     OW20342   9.046   4.296   0.981  0.2056 -0.0617 -0.2794
 4260SOL    HW120343   9.059   4.297   1.080 -1.7975 -1.0388  0.0222
 4260SOL    HW220344   8.978   4.364   0.955  0.1694 -0.3221 -0.8925
 4261SOL     OW20345   4.267   2.960   0.105 -0.1920 -0.6269 -0.7861
 4261SOL    HW120346   4.334   2.997   0.041  0.4795  1.1947  0.9196
 4261SOL    HW220347   4.195   3.028   0.121  0.1563 -0.6668  1.1089
 4262SOL     OW20348   9.294   3.764   1.207 -0.2600 -0.1867  0.4520
 4262SOL    HW120349   9.359   3.777   1.132 -0.6660  0.5699  0.2190
 4262SOL    HW220350   9.313   3.830   1.279  0.7654 -1.5721  1.4811
 4263SOL     OW20351   2.808   4.133   1.223  0.4440  0.7516 -0.5020
 4263SOL    HW120352   2.805   4.055   1.287 -0.2178  0.5198 -0.8054
 4263SOL    HW220353   2.716   4.150   1.188  0.2444  2.8172  0.9166
 4264SOL     OW20354   9.895   9.332   0.924 -0.0900  0.1990  0.3374
 4264SOL    HW120355   9.914   9.412   0.981 -1.1582  2.0657 -1.8294
 4264SOL    HW220356   9.833   9.271   0.972 -0.7158  1.5877  1.3402
 4266SOL     OW20357   3.683   9.979   1.348  0.2983 -0.5196 -0.3023
 4266SOL    HW120358   3.719   9.974   1.254 -1.1392  1.0564 -0.9685
 4266SOL    HW220359   3.590   9.943   1.349 -1.2467  3.3187 -0.3456
 4267SOL     OW20360   1.237   0.273   0.958  0.1893 -0.2431  0.6058
 4267SOL    HW120361   1.223   0.370   0.941  0.4523 -0.4578 -0.8810
 4267SOL    HW220362   1.287   0.261   1.044 -0.1490  0.9122  0.9710
 4268SOL     OW20363   9.683   6.659   2.598 -0.8233 -0.0075  0.0285
 4268SOL    HW120364   9.771   6.686   2.637 -0.8752  1.4369 -0.8199
 4268SOL    HW220365   9.668   6.562   2.614  1.7552 -0.6839 -1.3880
 4269SOL     OW20366   1.083   8.892   1.923  0.3946 -0.5302  0.1990
 4269SOL    HW120367   1.170   8.851   1.894  0.0321  1.3134 -3.9192
 4269SOL    HW220368   1.016   8.882   1.849 -2.2688 -0.0302  2.4768
 4270SOL     OW20369   2.077   5.170   0.613  0.1500  0.2828 -0.0634
 4270SOL    HW120370   2.061   5.175   0.711  1.1381 -0.3537  0.1370
 4270SOL    HW220371   1.992   5.190   0.564 -0.5359 -0.1779  0.9273
 4272SOL     OW20372   1.498   5.964   0.514 -0.2355 -0.1426 -0.0759
 4272SOL    HW120373   1.400   5.964   0.533 -0.1155  0.5240  0.5625
 4272SOL    HW220374   1.537   6.054   0.537  0.5139 -0.3853 -0.3709
 4274SOL     OW20375   8.918   8.417   2.661  0.2624 -0.2102 -0.2126
 4274SOL    HW120376   8.840   8.424   2.598 -1.0051 -2.6432  1.0494
 4274SOL    HW220377   8.916   8.494   2.725 -0.8478 -0.0169 -0.4766
 4275SOL     OW20378   0.424   4.751   1.013  0.1390  0.2438  0.4215
 4275SOL    HW120379   0.479   4.730   0.932 -0.4333  1.0089 -0.1693
 4275SOL    HW220380   0.383   4.842   1.003  0.2745  0.4485  1.6848
 4276SOL     OW20381   3.095   1.823   2.683  0.2804 -0.0795 -0.4755
 4276SOL    HW120382   3.060   1.908   2.722  0.5095 -0.1608 -0.0856
 4276SOL    HW220383   3.151   1.843   2.603  1.2403  0.2243  0.2527
 4277SOL     OW20384   1.730   1.181   1.967 -0.1679 -0.2241  0.1354
 4277SOL    HW120385   1.652   1.235   1.933 -0.3602 -0.7073 -0.2069
 4277SOL    HW220386   1.701   1.126   2.045  0.3088  0.9838  1.1780
 4278SOL     OW20387   1.135   6.691   0.118 -0.1791  0.2616  0.1685
 4278SOL    HW120388   1.067   6.642   0.172 -0.7567  1.8628  0.9275
 4278SOL    HW220389   1.166   6.771   0.169  2.4638 -0.5666 -0.0492
 4279SOL     OW20390   0.162   4.869   1.463 -0.4943  1.0134  0.3259
 4279SOL    HW120391   0.175   4.940   1.393 -0.5375  0.0766 -0.6558
 4279SOL    HW220392   0.165   4.779   1.419  0.5232  0.3619  1.6980
 4280SOL     OW20393   0.308   6.607   0.402  0.7247 -0.0942  0.4314
 4280SOL    HW120394   0.388   6.562   0.362 -0.9428 -1.4145 -1.5514
 4280SOL    HW220395   0.337   6.687   0.454  3.5969 -2.1813  2.2109
 4281SOL     OW20396   4.331   3.443   2.569  0.0507  0.0619  0.7200
 4281SOL    HW120397   4.276   3.470   2.648 -1.6159 -1.4616  0.1204
 4281SOL    HW220398   4.317   3.510   2.495  0.6867  0.8418  1.3010
 4282SOL     OW20399   0.559   3.213   0.881 -0.4410 -0.2016  0.1295
 4282SOL    HW120400   0.537   3.116   0.892  1.0403 -0.3281  2.2070
 4282SOL    HW220401   0.651   3.223   0.842 -0.1306  0.3643  0.9858
 4283SOL     OW20402   8.772   6.916   2.436 -0.1294 -0.5963 -0.6319
 4283SOL    HW120403   8.761   6.954   2.345  0.0527  0.3615 -0.2593
 4283SOL    HW220404   8.684   6.919   2.485  0.1255  0.3710 -0.2177
 4284SOL     OW20405   7.833   1.978   1.665 -0.8320  0.3449 -0.6490
 4284SOL    HW120406   7.886   2.053   1.626 -1.9417  1.9420  0.8358
 4284SOL    HW220407   7.758   1.954   1.602 -0.0026 -0.0847 -1.4907
 4286SOL     OW20408   3.317   3.014   2.230 -0.1559  0.4635  0.6662
 4286SOL    HW120409   3.292   2.917   2.223 -1.0336  0.4255  3.4504
 4286SOL    HW220410   3.412   3.021   2.260 -0.3297  0.4456  1.2264
 4287SOL     OW20411   1.581   0.034   2.482 -0.6805 -0.0337  0.2911
 4287SOL    HW120412   1.545  -0.020   2.558 -1.9112 -0.1456 -0.3593
 4287SOL    HW220413   1.574   0.131   2.505  0.7583 -0.1070  1.1127
 4289SOL     OW20414   1.206   3.944   1.482 -0.3891  0.1492  0.0447
 4289SOL    HW120415   1.108   3.952   1.469 -0.6276 -0.4933  1.3761
 4289SOL    HW220416   1.253   4.021   1.439 -1.5451  1.0022  0.3157
 4290SOL     OW20417   9.503   6.326   2.051  0.1364  0.4542 -0.2247
 4290SOL    HW120418   9.499   6.372   1.962 -1.5404  0.6674 -0.0493
 4290SOL    HW220419   9.443   6.246   2.050  1.8179 -0.8433 -0.0004
 4291SOL     OW20420   6.840   9.467   1.553 -0.4188 -0.6824 -0.0232
 4291SOL    HW120421   6.794   9.381   1.531 -1.4794 -0.0691 -0.2384
 4291SOL    HW220422   6.806   9.539   1.492  0.9949 -0.2638 -0.3423
 4292SOL     OW20423   1.641   3.593   1.062 -0.3400  0.2144  0.2440
 4292SOL    HW120424   1.559   3.589   1.120 -1.3208  0.5671 -1.1145
 4292SOL    HW220425   1.630   3.664   0.993  1.3774  0.6817  0.4226
 4293SOL     OW20426   9.326   5.164   1.709 -0.1351 -0.1895  0.0679
 4293SOL    HW120427   9.354   5.122   1.622 -1.0314  0.1585 -0.3902
 4293SOL    HW220428   9.389   5.239   1.732  0.1433 -0.3302 -0.2418
 4294SOL     OW20429   4.539   7.644   2.001  0.0315  0.3946  0.0650
 4294SOL    HW120430   4.590   7.652   1.915  0.4988  1.7959  0.4721
 4294SOL    HW220431   4.444   7.621   1.980  0.0741  0.9922 -0.8458
 4296SOL     OW20432   0.246   9.514   0.825  0.4089 -0.5472  0.3576
 4296SOL    HW120433   0.207   9.506   0.916 -0.0508  0.3399  0.2404
 4296SOL    HW220434   0.339   9.476   0.825  1.1451  1.1669  1.6714
 4297SOL     OW20435   0.842   5.059   1.081 -0.2241 -0.1882  0.1654
 4297SOL    HW120436   0.789   5.095   1.157  1.2980 -1.2607  1.7577
 4297SOL    HW220437   0.813   4.966   1.060 -0.9847  0.2778 -0.9231
 4298SOL     OW20438   2.868   1.598   1.963 -0.3676  0.6543 -0.1302
 4298SOL    HW120439   2.822   1.509   1.959 -1.5459  1.2660 -0.5947
 4298SOL    HW220440   2.921   1.605   2.048 -2.2642  0.4413  1.1014
 4299SOL     OW20441   0.041   3.879   1.047  0.3677 -0.4857 -0.3971
 4299SOL    HW120442  -0.012   3.808   1.000 -0.5519 -1.4246  1.9363
 4299SOL    HW220443   0.124   3.899   0.996  0.6796 -3.3179 -1.0513
 4301SOL     OW20444   9.318   8.026   0.176 -0.2895 -0.4939  0.6673
 4301SOL    HW120445   9.254   8.010   0.101  0.2594 -1.7002  0.4559
 4301SOL    HW220446   9.278   7.992   0.261 -1.7550  2.6098  1.3102
 4303SOL     OW20447   8.341   4.615   0.709 -0.0996 -0.3112  0.0663
 4303SOL    HW120448   8.426   4.575   0.674  0.0482  0.3895 -0.3891
 4303SOL    HW220449   8.360   4.658   0.798 -1.0241 -4.3133  2.3313
 4304SOL     OW20450   3.094   3.408   1.322 -0.1076  0.2629 -0.6751
 4304SOL    HW120451   3.133   3.380   1.410  0.8142  1.1293 -0.7928
 4304SOL    HW220452   3.074   3.328   1.267 -0.8166 -0.2951  0.3843
 4307SOL     OW20453   0.443   8.078   1.933  0.3710 -0.3330 -0.1457
 4307SOL    HW120454   0.478   8.137   1.861 -0.7876  0.4415 -0.0898
 4307SOL    HW220455   0.368   8.022   1.897 -0.1489 -0.0121  0.4294
 4308SOL     OW20456   0.741   7.427   0.089  0.4341  0.1779 -0.2213
 4308SOL    HW120457   0.649   7.417   0.126  0.8248 -0.9957  0.4622
 4308SOL    HW220458   0.737   7.470  -0.001 -0.8088 -0.2010 -0.3456
 4309SOL     OW20459   2.497   2.533   0.316 -0.3868 -0.1804  0.1594
 4309SOL    HW120460   2.422   2.545   0.381 -0.7147 -1.8407  0.1169
 4309SOL    HW220461   2.462   2.544   0.223  0.0769  2.1671  0.2494
 4310SOL     OW20462   2.736   9.349   2.473  0.1334  0.2026  0.1126
 4310SOL    HW120463   2.640   9.376   2.467 -0.1564 -0.8376  0.0184
 4310SOL    HW220464   2.746   9.253   2.445  1.1665  0.2453  0.3183
 4313SOL     OW20465   9.299   9.191   0.911 -0.1252  0.2287 -0.1687
 4313SOL    HW120466   9.398   9.204   0.924  0.1169  0.0812 -1.7915
 4313SOL    HW220467   9.251   9.275   0.936  0.5374  0.7501 -0.6151
 4314SOL     OW20468   4.030   1.173   2.011 -0.2081 -0.3220  0.0717
 4314SOL    HW120469   4.071   1.207   2.095 -2.7410 -1.5669  1.8626
 4314SOL    HW220470   4.053   1.076   1.999  0.3956 -0.0765 -0.8547
 4315SOL     OW20471   2.356   2.650   1.906 -0.1499  0.5070  0.1538
 4315SOL    HW120472   2.283   2.593   1.867  0.5345  0.0846 -0.5166
 4315SOL    HW220473   2.363   2.734   1.853 -2.2717  1.9889  2.1415
 4316SOL     OW20474   7.283   1.763   2.330 -0.2835 -0.3379 -0.4143
 4316SOL    HW120475   7.375   1.799   2.340 -0.1904 -0.1900 -1.7783
 4316SOL    HW220476   7.221   1.810   2.393  1.0009 -2.0701  2.2407
 4317SOL     OW20477   9.142   0.420   2.619  0.7310  0.5067 -0.0566
 4317SOL    HW120478   9.212   0.366   2.571 -0.3093 -1.6528  0.7741
 4317SOL    HW220479   9.107   0.491   2.558  1.8297 -0.0278 -1.3416
 4318SOL     OW20480   3.617   9.690   2.472 -0.9485 -0.6122  0.2955
 4318SOL    HW120481   3.691   9.622   2.465  0.5187  0.6944  2.4537
 4318SOL    HW220482   3.618   9.731   2.563 -0.7857  3.4649 -1.4463
 4319SOL     OW20483   8.202   7.775   2.052  0.2728 -0.3998 -0.2688
 4319SOL    HW120484   8.224   7.687   2.011  0.1096 -0.4044 -0.3448
 4319SOL    HW220485   8.253   7.847   2.005 -2.2645 -0.0113 -2.5573
 4320SOL     OW20486   2.524   6.579   0.456 -0.2861  0.2173 -0.0311
 4320SOL    HW120487   2.519   6.494   0.508 -0.1800  0.1091 -0.1958
 4320SOL    HW220488   2.432   6.618   0.445 -0.2377  0.5463  0.7375
 4321SOL     OW20489   0.717   0.199   1.070 -0.2621 -0.4338 -0.1742
 4321SOL    HW120490   0.686   0.220   0.977  1.9348  1.3054 -0.5553
 4321SOL    HW220491   0.700   0.278   1.129  0.0084 -0.8730  0.4904
 4322SOL     OW20492   7.632   9.618   0.577 -0.1358 -0.0360  0.1316
 4322SOL    HW120493   7.578   9.535   0.584  0.5327 -0.3816  1.2741
 4322SOL    HW220494   7.725   9.600   0.610 -0.1530  1.3147  0.9546
 4323SOL     OW20495   4.073   0.911   1.757  0.5584  0.9360  0.0602
 4323SOL    HW120496   4.079   0.890   1.855 -0.2372  0.1938 -0.0511
 4323SOL    HW220497   3.997   0.862   1.717  0.5406  1.6800 -0.8281
 4324SOL     OW20498   0.499   8.617   2.216  0.3516  0.2935  0.0728
 4324SOL    HW120499   0.438   8.663   2.151  1.5329  0.6209 -0.8184
 4324SOL    HW220500   0.566   8.683   2.251 -0.1660  0.0748  1.4831
 4325SOL     OW20501   9.530   1.959   2.511 -0.6483 -0.2529  0.4520
 4325SOL    HW120502   9.436   1.936   2.533 -0.1828 -0.3795  2.3484
 4325SOL    HW220503   9.569   2.017   2.582  0.5371  0.2659 -0.5856
 4326SOL     OW20504   3.613   0.248   1.939 -0.0041 -0.2057  0.5910
 4326SOL    HW120505   3.693   0.195   1.911  0.2449  0.2658  0.4237
 4326SOL    HW220506   3.556   0.267   1.859 -0.8697 -1.5111  0.8700
 4327SOL     OW20507   1.688   9.350   2.411  0.1526 -0.1307 -0.0918
 4327SOL    HW120508   1.722   9.443   2.430  0.5680 -0.6945  2.0787
 4327SOL    HW220509   1.763   9.294   2.375  0.1857  0.0706 -0.3377
 4328SOL     OW20510   2.547   2.737   0.092 -0.1480  0.6394  0.5673
 4328SOL    HW120511   2.489   2.741   0.173 -0.4366 -1.3472  0.4883
 4328SOL    HW220512   2.631   2.789   0.108 -0.4630  0.7415  1.9242
 4329SOL     OW20513   0.199   5.577   2.175 -0.1597  0.1872 -0.2510
 4329SOL    HW120514   0.130   5.548   2.240 -2.1141  1.5313 -1.6777
 4329SOL    HW220515   0.246   5.496   2.138  0.4431 -0.6127  2.1856
 4330SOL     OW20516   0.652   5.439   2.169 -0.5552 -0.0272 -0.0528
 4330SOL    HW120517   0.723   5.379   2.131  0.3051  1.2836 -0.5560
 4330SOL    HW220518   0.644   5.422   2.267  0.2793 -0.3776 -0.0387
 4332SOL     OW20519   3.936   2.054   2.636 -0.3723 -0.3070  0.0056
 4332SOL    HW120520   3.997   2.108   2.578 -0.0198 -1.8674 -1.1204
 4332SOL    HW220521   3.991   1.998   2.698 -0.7400  0.8927  1.4355
 4333SOL     OW20522   8.990   5.598   1.181  0.3456 -0.1315 -0.0061
 4333SOL    HW120523   8.892   5.614   1.170  0.1919 -0.1567  1.1882
 4333SOL    HW220524   9.008   5.499   1.176  0.0283 -0.2936  1.7060
 4334SOL     OW20525   3.910   3.728   1.375  0.6660  0.6506 -0.3165
 4334SOL    HW120526   3.903   3.729   1.276 -0.6014 -2.5321 -0.2984
 4334SOL    HW220527   3.997   3.688   1.403  0.7885  1.0463 -0.1173
 4335SOL     OW20528   1.808   6.695   0.150  0.2784 -0.0644 -0.2505
 4335SOL    HW120529   1.850   6.677   0.060 -0.7341 -2.2715 -0.3092
 4335SOL    HW220530   1.875   6.741   0.208  2.2708 -2.0085 -0.8990
 4336SOL     OW20531   4.172   3.355   1.496  0.4802  0.7138  0.4340
 4336SOL    HW120532   4.217   3.422   1.555 -1.0744  2.1296  0.0451
 4336SOL    HW220533   4.162   3.269   1.546 -2.3983  2.3970  2.9692
 4338SOL     OW20534   3.568   6.927   2.398  0.3744  0.1184  0.4798
 4338SOL    HW120535   3.625   6.966   2.470  0.1784 -1.4215  1.5099
 4338SOL    HW220536   3.543   6.998   2.332  0.5303  1.5552  1.9394
 4339SOL     OW20537   4.118   9.948   1.327  0.9832 -0.0827  0.3095
 4339SOL    HW120538   4.066   9.996   1.397 -0.4345 -1.8216  0.4904
 4339SOL    HW220539   4.061   9.937   1.245  1.7753 -0.2351 -0.2255
 4340SOL     OW20540   8.715   5.664   1.116  0.2786  0.1339  0.3474
 4340SOL    HW120541   8.677   5.633   1.204  0.2161 -1.1281 -0.1165
 4340SOL    HW220542   8.680   5.755   1.095  0.9740  0.8246  2.0508
 4341SOL     OW20543   3.222   7.510   1.417 -0.1448  0.0091  0.1966
 4341SOL    HW120544   3.195   7.517   1.513  0.4079  1.1972  0.2711
 4341SOL    HW220545   3.315   7.546   1.406 -0.5972  0.8534 -0.9662
 4342SOL     OW20546   0.875   6.706   1.586 -0.4069 -0.2731 -0.1578
 4342SOL    HW120547   0.810   6.702   1.510 -0.4366  1.5885 -0.2502
 4342SOL    HW220548   0.825   6.729   1.670 -0.0339  0.0861 -0.0327
 4343SOL     OW20549   0.613   0.219   0.829 -0.4568  0.0499 -0.0831
 4343SOL    HW120550   0.610   0.304   0.777  1.2317 -0.0293 -0.3299
 4343SOL    HW220551   0.635   0.143   0.768 -1.5813 -0.5224  0.2019
 4344SOL     OW20552   1.026   9.327   1.781  0.1723 -0.2530  0.0131
 4344SOL    HW120553   1.083   9.349   1.701 -0.8182 -0.8072 -0.8568
 4344SOL    HW220554   0.931   9.312   1.751  0.1236 -2.1889  1.0646
 4345SOL     OW20555   7.487   0.204   0.476 -0.8551 -0.7058 -0.4231
 4345SOL    HW120556   7.565   0.174   0.421 -1.2811  0.4026 -1.6671
 4345SOL    HW220557   7.405   0.154   0.447 -0.8382 -1.0526  0.1104
 4346SOL     OW20558   4.466   5.406   0.308 -0.4828 -0.1931  0.0460
 4346SOL    HW120559   4.563   5.401   0.285 -0.0833  1.3494  1.3392
 4346SOL    HW220560   4.424   5.316   0.293  1.9684 -1.9602  3.1286
 4347SOL     OW20561   4.308   4.554   2.370  0.1025 -0.4419 -0.4103
 4347SOL    HW120562   4.349   4.616   2.303 -0.4573 -0.9667 -1.2424
 4347SOL    HW220563   4.376   4.487   2.400  0.2422 -0.4420 -0.7341
 4348SOL     OW20564   9.536   5.890   1.514  0.0439  0.7918 -0.4424
 4348SOL    HW120565   9.547   5.798   1.476 -0.6301  0.5917 -0.1583
 4348SOL    HW220566   9.626   5.927   1.536  0.3312  0.2593 -0.6893
 4349SOL     OW20567   8.912   8.577   2.231 -0.4463  0.1073 -0.3146
 4349SOL    HW120568   8.841   8.561   2.162  0.9415 -1.6639 -1.3767
 4349SOL    HW220569   8.997   8.603   2.186 -0.3161  1.9123  0.9361
 4350SOL     OW20570   2.966   4.236   0.626  0.2256 -0.0020  0.1085
 4350SOL    HW120571   3.000   4.203   0.538 -0.4825  2.0339 -0.9393
 4350SOL    HW220572   2.874   4.201   0.642 -0.1692  0.7153 -0.5816
 4351SOL     OW20573   5.205   9.722   2.110 -0.3316  0.1089 -0.1276
 4351SOL    HW120574   5.255   9.655   2.165  1.5038 -0.5771 -2.5542
 4351SOL    HW220575   5.259   9.805   2.100 -0.7238  0.2980 -0.7293
 4354SOL     OW20576   2.369   9.377   1.272  0.1783  0.0700  0.2141
 4354SOL    HW120577   2.467   9.371   1.292  0.3916  0.4256 -0.6913
 4354SOL    HW220578   2.317   9.372   1.357  1.0264  0.7753  0.7855
 4355SOL     OW20579   4.427   0.367   2.509  0.0438  0.5703  0.0367
 4355SOL    HW120580   4.332   0.372   2.541 -0.4001  0.5850 -1.2353
 4355SOL    HW220581   4.454   0.271   2.498 -0.2110  0.5811 -0.7005
 4356SOL     OW20582   1.340   8.610   1.434 -0.5060 -0.1628  0.2066
 4356SOL    HW120583   1.280   8.687   1.414 -0.9905 -0.2177  1.3833
 4356SOL    HW220584   1.435   8.641   1.437 -0.6941  0.3813  0.6247
 4357SOL     OW20585   8.241   1.549   2.075 -0.4298 -0.2321  0.5517
 4357SOL    HW120586   8.143   1.544   2.054 -0.0502 -1.3034 -1.0028
 4357SOL    HW220587   8.294   1.545   1.991  0.9008  3.6331  1.0987
 4359SOL     OW20588   8.115   7.127   2.035 -0.2049 -0.2041  0.0893
 4359SOL    HW120589   8.029   7.098   2.078  0.2264 -1.5192  0.0765
 4359SOL    HW220590   8.178   7.050   2.030  0.7558  0.5983 -0.4734
 4360SOL     OW20591   0.389   7.631   2.574  0.0468  0.8544  0.0165
 4360SOL    HW120592   0.336   7.714   2.560  0.0210  0.7557 -0.4509
 4360SOL    HW220593   0.462   7.626   2.507 -0.0259  0.4355 -0.0317
 4361SOL     OW20594   3.832   1.782   1.868 -0.3557  0.4073  0.5506
 4361SOL    HW120595   3.838   1.688   1.834 -0.4787  0.6894 -0.2694
 4361SOL    HW220596   3.857   1.845   1.794 -0.3706  1.0209  1.0685
 4362SOL     OW20597   9.913   8.399   1.911 -0.1758  0.1056 -0.4745
 4362SOL    HW120598   9.870   8.381   1.823  1.5449  2.7100 -1.9405
 4362SOL    HW220599   9.936   8.497   1.917  1.8703 -0.4686  1.8703
 4364SOL     OW20600   4.401   1.629   1.077 -0.5658 -0.5090 -0.1775
 4364SOL    HW120601   4.321   1.579   1.110 -0.5625 -0.8528 -0.6888
 4364SOL    HW220602   4.416   1.608   0.980 -0.1222 -0.0996 -0.1982
 4365SOL     OW20603   7.338   0.657   0.746 -0.2073  0.3413  0.0190
 4365SOL    HW120604   7.397   0.576   0.757 -0.0200  0.4984  0.1844
 4365SOL    HW220605   7.259   0.633   0.689  0.1769  0.2128 -0.4622
 4366SOL     OW20606   7.839   9.162   1.125 -0.2992 -0.3171 -0.2941
 4366SOL    HW120607   7.938   9.156   1.114 -0.2989 -1.4871  0.3415
 4366SOL    HW220608   7.818   9.205   1.213 -0.3571 -0.3547 -0.2898
 4367SOL     OW20609   9.614   1.170   0.286 -0.0655  0.0234 -0.6000
 4367SOL    HW120610   9.626   1.189   0.384  0.0741  0.6553 -0.7412
 4367SOL    HW220611   9.567   1.082   0.275 -1.3127  0.5841  0.0622
 4368SOL     OW20612   3.606   4.034   1.785 -0.3927 -0.8060 -0.4076
 4368SOL    HW120613   3.522   4.024   1.838  1.2526  0.0618  2.4873
 4368SOL    HW220614   3.648   3.944   1.771 -0.4500 -0.9677  0.4612
 4369SOL     OW20615   3.318   3.114   0.369  0.3315  0.3616  0.5308
 4369SOL    HW120616   3.416   3.118   0.352  0.3201  2.2773  0.8452
 4369SOL    HW220617   3.295   3.167   0.451 -1.4670  3.5534 -1.9312
 4370SOL     OW20618   8.917   5.257   0.269  0.3983  0.4146  0.3161
 4370SOL    HW120619   9.003   5.207   0.279  0.8874  1.0714 -0.5302
 4370SOL    HW220620   8.935   5.355   0.275 -0.4434  0.5180  1.1717
 4372SOL     OW20621   3.174   9.835   0.893 -0.1370  0.0610 -0.4997
 4372SOL    HW120622   3.163   9.844   0.794 -0.6031  1.1487 -0.3474
 4372SOL    HW220623   3.104   9.773   0.929 -0.7642  0.6766 -0.6682
 4373SOL     OW20624   1.407   4.077   2.368 -0.7996 -0.4812 -0.4094
 4373SOL    HW120625   1.366   4.158   2.409  1.0315 -0.3095  1.1209
 4373SOL    HW220626   1.376   3.995   2.417 -0.0926 -0.4363  0.1094
 4376SOL     OW20627   3.581   9.574   2.125 -0.2835 -0.1160 -0.1382
 4376SOL    HW120628   3.663   9.626   2.145 -0.9646  0.9960 -0.2085
 4376SOL    HW220629   3.539   9.608   2.041 -0.4004 -1.1894 -0.5298
 4377SOL     OW20630   9.912   1.700   1.316  1.1370  0.8342 -0.0795
 4377SOL    HW120631   9.877   1.716   1.408  2.1060  0.5563  0.3546
 4377SOL    HW220632   9.963   1.613   1.314  2.7399  1.7492 -0.3834
 4378SOL     OW20633   9.294   7.959   1.397  0.5755  0.3661  0.3235
 4378SOL    HW120634   9.208   7.980   1.444  0.0390 -0.1983 -0.3959
 4378SOL    HW220635   9.305   7.860   1.389  0.6036  0.4490 -0.8198
 4379SOL     OW20636   1.838   9.621   0.646 -0.2314 -0.3195 -0.2239
 4379SOL    HW120637   1.848   9.659   0.554 -1.4332  1.3752  0.3277
 4379SOL    HW220638   1.871   9.688   0.713  1.1653 -1.7630  0.5607
 4380SOL     OW20639   8.979   6.377   2.007  0.1869 -0.0942  0.3800
 4380SOL    HW120640   8.991   6.298   1.947  0.1992  0.3423 -0.1992
 4380SOL    HW220641   8.950   6.347   2.098  0.5583 -0.7861  0.2636
 4381SOL     OW20642   7.713   1.549   1.638  0.2717  0.3667  0.0194
 4381SOL    HW120643   7.758   1.608   1.705 -0.4509 -0.3813  1.1909
 4381SOL    HW220644   7.656   1.482   1.686  0.6774 -0.9521 -1.3023
 4382SOL     OW20645   3.816   5.776   2.246  0.0359  0.4335 -0.6120
 4382SOL    HW120646   3.911   5.760   2.273  1.1255 -0.1021 -4.3861
 4382SOL    HW220647   3.758   5.701   2.277  0.9843  0.3336  0.9529
 4383SOL     OW20648   0.212   8.452   2.344 -0.1228 -0.4171  0.2596
 4383SOL    HW120649   0.225   8.547   2.374  0.5044 -1.4490  3.5391
 4383SOL    HW220650   0.289   8.425   2.285 -0.2339  1.0451 -0.5741
 4384SOL     OW20651   8.515   1.694   2.053 -0.1182  0.3272  0.4907
 4384SOL    HW120652   8.472   1.615   2.095 -0.8723 -0.5301 -1.7877
 4384SOL    HW220653   8.606   1.669   2.020 -0.3929  0.3760 -0.3161
 4385SOL     OW20654   3.108   9.135   1.018  0.6076 -0.3165  0.1442
 4385SOL    HW120655   3.019   9.116   1.061 -0.1442  0.6451 -0.9465
 4385SOL    HW220656   3.096   9.139   0.919  1.8738 -0.1521 -0.0004
 4386SOL     OW20657   7.541   9.662   1.290 -0.6991  0.4253 -0.5105
 4386SOL    HW120658   7.450   9.651   1.331 -1.2350 -0.4796 -1.9007
 4386SOL    HW220659   7.551   9.756   1.257 -0.5338  0.9563  1.0278
 4387SOL     OW20660   0.992   3.198   2.143 -0.5326 -0.4936 -0.2377
 4387SOL    HW120661   1.008   3.251   2.060 -1.3233 -1.0735 -0.7742
 4387SOL    HW220662   0.990   3.101   2.120  1.4786 -0.8167  0.8239
 4388SOL     OW20663   2.354   9.178   0.843  0.6844 -0.0000  0.2951
 4388SOL    HW120664   2.375   9.080   0.846 -1.1862 -0.3612  3.8366
 4388SOL    HW220665   2.258   9.190   0.818  0.6184  0.8460  0.9420
 4389SOL     OW20666   4.335   1.204   0.497  0.0322  0.3074  0.0421
 4389SOL    HW120667   4.355   1.150   0.415 -0.5473 -0.1329  0.1904
 4389SOL    HW220668   4.398   1.178   0.570  0.2915  0.4213 -0.1402
 4392SOL     OW20669   0.997   6.171   1.314  0.3553  0.0470 -0.4506
 4392SOL    HW120670   1.089   6.195   1.345  0.7504 -1.2707 -0.5615
 4392SOL    HW220671   0.998   6.153   1.216  0.6373 -2.9482  0.0591
 4394SOL     OW20672   1.639   2.465   2.146 -0.0453 -0.0023 -0.6006
 4394SOL    HW120673   1.655   2.562   2.134  0.7354  0.0047  0.4113
 4394SOL    HW220674   1.724   2.414   2.129 -0.1182 -0.3867  0.1518
 4395SOL     OW20675   8.878   0.936   1.688 -0.4749  0.2238  0.2503
 4395SOL    HW120676   8.844   1.001   1.756 -1.0333  0.5243 -0.3046
 4395SOL    HW220677   8.968   0.966   1.656 -0.3908  0.3035  0.5599
 4396SOL     OW20678   3.114   5.057   0.713  0.0474 -0.1126 -0.2966
 4396SOL    HW120679   3.027   5.007   0.714 -0.6551  1.0532 -0.7239
 4396SOL    HW220680   3.138   5.079   0.618  0.1142  0.7124 -0.0936
 4397SOL     OW20681   9.975   6.444   1.282 -0.4920 -0.0275  0.1223
 4397SOL    HW120682   9.981   6.494   1.369 -0.4770  0.9189 -0.4223
 4397SOL    HW220683   9.880   6.441   1.252 -0.2264  1.5836 -0.9489
 4398SOL     OW20684   9.080   9.676   0.014 -0.4256 -0.4034  0.7008
 4398SOL    HW120685   9.106   9.734   0.091  0.8643  1.6712 -1.2278
 4398SOL    HW220686   9.142   9.598   0.009  0.3460  0.1830  0.9755
 4399SOL     OW20687   9.232   1.178   0.666  0.0248  0.0451  0.5345
 4399SOL    HW120688   9.246   1.143   0.759 -3.3114  0.8334  1.4183
 4399SOL    HW220689   9.291   1.257   0.652 -0.3888  0.7558  2.5155
 4400SOL     OW20690   1.597   0.697   1.138 -0.2192  0.5270 -0.1375
 4400SOL    HW120691   1.630   0.759   1.209  3.2132  0.0002 -1.1847
 4400SOL    HW220692   1.575   0.748   1.056  1.8755  0.4861 -0.7465
 4402SOL     OW20693   4.735   9.040   0.404 -0.1483  0.1541 -0.0066
 4402SOL    HW120694   4.789   8.985   0.339 -2.6688 -3.1105  0.5606
 4402SOL    HW220695   4.755   9.011   0.497  1.5146  3.0972  0.6547
 4403SOL     OW20696   1.212   0.551   0.925 -0.0851  0.6086  0.2254
 4403SOL    HW120697   1.209   0.594   0.835 -1.0513  1.0496  0.4599
 4403SOL    HW220698   1.193   0.620   0.995 -2.1118 -0.2582  0.5710
 4404SOL     OW20699   0.184   4.899   0.133  0.2710 -0.0052  0.7675
 4404SOL    HW120700   0.130   4.817   0.152  0.3587 -0.5035 -1.0258
 4404SOL    HW220701   0.239   4.922   0.214 -1.0466 -0.6981  1.8774
 4405SOL     OW20702   9.956   3.633   1.910 -0.0626 -0.6599  0.5108
 4405SOL    HW120703   9.889   3.699   1.876  0.4821  1.1526  2.8432
 4405SOL    HW220704   9.930   3.604   2.003  1.5831 -1.0767  0.8616
 4406SOL     OW20705   1.726   5.244   1.064 -0.2293 -0.4611  0.1093
 4406SOL    HW120706   1.679   5.172   1.115 -0.7814 -0.1468  0.0417
 4406SOL    HW220707   1.666   5.280   0.992 -0.1257  0.3867  0.4403
 4407SOL     OW20708   9.108   2.372   0.587 -0.2542 -0.6744 -0.7216
 4407SOL    HW120709   9.024   2.410   0.548 -0.3766  0.5956  0.7205
 4407SOL    HW220710   9.085   2.292   0.643 -1.0008  1.6258  2.4264
 4408SOL     OW20711   8.458   2.514   1.333  0.5641 -0.1407  0.0699
 4408SOL    HW120712   8.364   2.520   1.365  0.2786 -1.4257 -0.4854
 4408SOL    HW220713   8.471   2.577   1.256  0.7435  1.5748  1.4954
 4411SOL     OW20714   3.165   3.170   1.804 -0.1529 -0.3700 -0.3623
 4411SOL    HW120715   3.214   3.226   1.736 -1.2680  2.3758  1.0155
 4411SOL    HW220716   3.069   3.162   1.777 -0.2343 -0.7025  0.0338
 4412SOL     OW20717   1.385   0.812   2.034  0.1593 -0.8485  0.1520
 4412SOL    HW120718   1.430   0.875   1.971 -1.4775 -0.9814 -1.1845
 4412SOL    HW220719   1.294   0.848   2.059  0.1282 -1.5899  1.1583
 4413SOL     OW20720   2.607   0.452   1.025  0.2215  0.1638 -0.9121
 4413SOL    HW120721   2.692   0.495   0.995  1.0948  0.1092  1.3441
 4413SOL    HW220722   2.553   0.519   1.077  0.5507 -0.7820  0.6857
 4414SOL     OW20723   9.693   6.822   2.201 -0.4979  0.2005  0.2320
 4414SOL    HW120724   9.645   6.888   2.258  1.3527  1.2598  0.5950
 4414SOL    HW220725   9.626   6.765   2.153 -2.1636  2.5633 -0.3814
 4416SOL     OW20726   0.167   1.796   1.604 -0.5247  0.1583  0.3874
 4416SOL    HW120727   0.209   1.796   1.513 -1.2149 -0.6550  0.0563
 4416SOL    HW220728   0.072   1.764   1.597 -0.0374 -1.6250  1.6302
 4417SOL     OW20729   1.039   3.290   1.885  0.0075 -0.6767 -0.0634
 4417SOL    HW120730   0.991   3.247   1.809  1.4604 -1.1869 -0.7142
 4417SOL    HW220731   1.093   3.367   1.850 -0.2775 -0.1489  0.6469
 4418SOL     OW20732   9.186   6.433   1.767  0.2410 -0.0672  0.8124
 4418SOL    HW120733   9.141   6.361   1.820  2.1940 -1.1521  1.0506
 4418SOL    HW220734   9.180   6.411   1.669  1.0088 -0.6568  0.8972
 4419SOL     OW20735   1.956   7.963   2.699  0.0350 -0.0564 -0.5749
 4419SOL    HW120736   1.916   7.871   2.701  1.5069 -0.6729  0.7461
 4419SOL    HW220737   2.053   7.957   2.675 -0.5510  1.4323 -3.6369
 4420SOL     OW20738   2.985   1.610   0.683 -0.3683  0.1717  0.3716
 4420SOL    HW120739   2.925   1.638   0.758 -0.8101  0.0197  0.0762
 4420SOL    HW220740   2.944   1.639   0.596  0.4492  0.9185  0.2260
 4421SOL     OW20741   9.440   8.848   2.412  0.0943 -0.4091 -0.2186
 4421SOL    HW120742   9.393   8.930   2.445 -0.9220 -0.5395 -1.3152
 4421SOL    HW220743   9.526   8.875   2.367 -0.6246  0.1399 -1.2885
 4422SOL     OW20744   9.838   2.304   2.210 -0.0040 -0.2149  0.1334
 4422SOL    HW120745   9.841   2.338   2.304  0.7811  0.6690 -0.2020
 4422SOL    HW220746   9.855   2.206   2.210  0.2465 -0.1762  0.8976
 4424SOL     OW20747   9.510   8.048   0.495  0.1208  0.3187  0.0840
 4424SOL    HW120748   9.560   7.981   0.440 -0.0358  0.8774 -0.7523
 4424SOL    HW220749   9.412   8.026   0.493  0.3145 -0.7958  1.7468
 4426SOL     OW20750   9.328   5.564   1.591 -0.1851 -0.9683 -0.6869
 4426SOL    HW120751   9.229   5.555   1.579 -0.2396 -0.9539 -0.2786
 4426SOL    HW220752   9.347   5.609   1.679  0.1442  0.4096 -1.4449
 4427SOL     OW20753   6.062   9.457   2.636 -0.4701 -0.0353  0.7476
 4427SOL    HW120754   6.130   9.392   2.670 -0.7291  0.1512  1.6506
 4427SOL    HW220755   6.103   9.548   2.627 -0.5066  0.0025  0.9566
 4428SOL     OW20756   3.845   9.704   2.180  0.2406  0.0600  0.4974
 4428SOL    HW120757   3.928   9.699   2.124  0.4801  2.0485  0.6297
 4428SOL    HW220758   3.846   9.632   2.249  1.5594 -0.3114  0.0960
 4429SOL     OW20759   4.430   3.980   0.150 -0.2429  0.1000  0.1436
 4429SOL    HW120760   4.437   4.054   0.217 -0.2349 -0.5401  0.8542
 4429SOL    HW220761   4.377   3.905   0.189 -0.6409 -0.0853 -0.7408
 4430SOL     OW20762   8.995   7.369   1.702 -0.4856  0.1829 -0.0746
 4430SOL    HW120763   8.994   7.381   1.801 -2.0977 -0.7794  0.0551
 4430SOL    HW220764   9.079   7.407   1.664  1.2815 -1.5436  1.9365
 4431SOL     OW20765   9.036   0.331   0.190 -0.3134  0.4763 -0.1323
 4431SOL    HW120766   8.943   0.365   0.173 -0.4297  0.6666  0.8282
 4431SOL    HW220767   9.033   0.231   0.199 -0.6335  0.5887  1.1299
 4432SOL     OW20768   3.706   0.797   0.698 -0.4754  0.2396 -0.7227
 4432SOL    HW120769   3.765   0.724   0.733 -1.5864 -1.0368 -1.4586
 4432SOL    HW220770   3.671   0.852   0.774  1.5220  0.9284 -0.2617
 4433SOL     OW20771   3.546   8.129   0.847  0.0187  0.2599  0.3288
 4433SOL    HW120772   3.505   8.047   0.808 -0.4328  0.2815  0.7591
 4433SOL    HW220773   3.495   8.210   0.817  0.0358  0.3243  0.4700
 4435SOL     OW20774   3.152   6.826   0.726  0.1329 -0.3831  0.3634
 4435SOL    HW120775   3.097   6.885   0.667  1.3246  0.1844 -0.1898
 4435SOL    HW220776   3.092   6.777   0.789 -0.9820  0.4337 -0.0475
 4436SOL     OW20777   8.086   3.188   1.079  0.2287  0.3483  0.0090
 4436SOL    HW120778   8.096   3.090   1.063  0.1497  0.4226 -0.4905
 4436SOL    HW220779   8.088   3.206   1.178 -1.2799 -0.3312  0.1822
 4437SOL     OW20780   8.511   2.037   0.300 -0.1081 -0.0007 -0.1904
 4437SOL    HW120781   8.532   2.023   0.203  1.2334  2.1936 -0.2379
 4437SOL    HW220782   8.489   1.949   0.342 -1.4024 -0.9088 -2.6340
 4439SOL     OW20783   1.155   7.916   0.315 -0.1441 -0.3155  0.0847
 4439SOL    HW120784   1.149   7.892   0.411 -1.1324 -0.7147 -0.0737
 4439SOL    HW220785   1.069   7.958   0.285 -0.2169 -1.1245 -0.8750
 4442SOL     OW20786   2.132   9.305   0.735  0.2698  0.0120  0.0888
 4442SOL    HW120787   2.168   9.398   0.733  1.4768 -0.4670 -0.7160
 4442SOL    HW220788   2.037   9.305   0.701 -0.8614  1.3961  3.0829
 4443SOL     OW20789   3.447   3.311   2.286  0.2162  0.2865 -0.4008
 4443SOL    HW120790   3.542   3.307   2.255  0.9137  1.3885  1.4757
 4443SOL    HW220791   3.398   3.228   2.257  1.6679 -0.1432 -1.6362
 4444SOL     OW20792   1.907   4.797   0.607 -0.4914  0.1861  0.1283
 4444SOL    HW120793   1.973   4.839   0.669 -0.6258 -0.0148  0.4059
 4444SOL    HW220794   1.956   4.740   0.540 -0.4344 -0.5351  0.7758
 4445SOL     OW20795   7.824   9.402   2.464  0.2143 -0.0686  0.5490
 4445SOL    HW120796   7.746   9.463   2.476 -0.9797 -1.5955  0.7088
 4445SOL    HW220797   7.793   9.307   2.468  1.9310 -0.6957 -0.3835
 4446SOL     OW20798   3.735   1.476   1.030  0.0873  0.1256  0.0165
 4446SOL    HW120799   3.752   1.445   1.124 -2.8489  0.1289  0.5959
 4446SOL    HW220800   3.773   1.409   0.965  1.3672 -0.3103  1.1831
 4447SOL     OW20801   2.228   0.569   2.707 -0.0245  0.2463 -0.4042
 4447SOL    HW120802   2.305   0.629   2.687 -0.2427  0.6213 -0.1171
 4447SOL    HW220803   2.142   0.616   2.686 -0.2231  0.3104  0.5191
 4448SOL     OW20804   8.752   9.585   0.497 -0.2548 -0.2951  0.0333
 4448SOL    HW120805   8.726   9.489   0.494  1.6196 -0.8660  1.0740
 4448SOL    HW220806   8.807   9.602   0.578 -0.9767  1.7789  0.1164
 4449SOL     OW20807   9.314   4.378   1.503 -0.3016  0.0727 -0.3863
 4449SOL    HW120808   9.240   4.346   1.444  0.9818  0.1082 -2.0422
 4449SOL    HW220809   9.371   4.443   1.454  0.6355  0.3157  0.9804
 4451SOL     OW20810   3.113   9.457   1.325  0.4052 -0.5432 -0.0203
 4451SOL    HW120811   3.128   9.436   1.228  1.6209  0.3797 -0.0456
 4451SOL    HW220812   3.023   9.425   1.353  0.8352 -2.6429 -0.9507
 4452SOL     OW20813   8.257   0.330   1.370  0.3643  0.0297  0.0000
 4452SOL    HW120814   8.246   0.345   1.272 -1.9348 -1.5550 -0.0260
 4452SOL    HW220815   8.318   0.252   1.384  1.9416  1.2232 -0.1159
 4453SOL     OW20816   3.770   3.986   1.484 -0.4669  0.2565  0.1497
 4453SOL    HW120817   3.775   4.085   1.469 -0.7033  0.3951  0.9598
 4453SOL    HW220818   3.757   3.939   1.397 -2.4069  1.0772 -0.0297
 4455SOL     OW20819   8.570   0.284   2.596 -0.6199 -0.2743 -0.4486
 4455SOL    HW120820   8.546   0.213   2.663 -1.3094 -0.2012 -0.6159
 4455SOL    HW220821   8.488   0.336   2.572  0.0816  1.3142  0.5167
 4456SOL     OW20822   1.460   1.641   1.651 -0.5205  0.0489 -0.3832
 4456SOL    HW120823   1.459   1.551   1.606 -0.7661 -0.9257  1.5122
 4456SOL    HW220824   1.461   1.628   1.750  0.9385  2.1531 -0.1003
 4457SOL     OW20825   0.189   0.087   0.966 -0.0045  0.2815 -0.4126
 4457SOL    HW120826   0.187   0.073   0.867 -1.9339 -1.7498 -0.1505
 4457SOL    HW220827   0.271   0.045   1.004 -1.1024 -2.3592 -0.7761
 4458SOL     OW20828   1.807   6.184   0.051  0.1436 -0.0039 -0.3954
 4458SOL    HW120829   1.880   6.123   0.083  1.1162  0.3981 -1.8273
 4458SOL    HW220830   1.744   6.133  -0.008  0.2678  0.0815 -0.6018
 4459SOL     OW20831   2.159   4.886   0.373  0.3560 -0.6694  0.3977
 4459SOL    HW120832   2.130   4.872   0.468 -0.1928 -1.5816  0.0986
 4459SOL    HW220833   2.251   4.847   0.361  0.7569  0.1501  0.7482
 4460SOL     OW20834   0.507   1.898   0.722  0.6259  0.1943  0.8627
 4460SOL    HW120835   0.501   1.919   0.625  0.7929 -1.4543  0.4807
 4460SOL    HW220836   0.482   1.979   0.776 -1.4326  0.5067 -0.5451
 4461SOL     OW20837   1.584   9.381   0.217 -0.2431 -0.0109 -0.6026
 4461SOL    HW120838   1.628   9.337   0.139 -1.1228 -1.2341 -0.4312
 4461SOL    HW220839   1.565   9.477   0.195  2.1516  0.4365 -0.7998
 4463SOL     OW20840   8.612   8.820   1.824  0.5887 -0.0456 -0.2851
 4463SOL    HW120841   8.565   8.801   1.910 -0.9855 -0.2153 -1.1711
 4463SOL    HW220842   8.678   8.894   1.838  1.2969 -0.9642  1.3730
 4464SOL     OW20843   8.181   0.876   2.172  0.3900 -0.0725  0.7916
 4464SOL    HW120844   8.237   0.924   2.240  1.5423  0.3436 -0.4350
 4464SOL    HW220845   8.240   0.827   2.108 -0.6827 -0.4504  0.0778
 4465SOL     OW20846   2.707   4.164   0.710 -0.0319  0.0298  0.0920
 4465SOL    HW120847   2.714   4.068   0.735  0.2912  0.6901  2.6421
 4465SOL    HW220848   2.622   4.180   0.659 -1.0196 -1.2549  1.3090
 4466SOL     OW20849   4.935   0.980   2.176 -1.1600  0.0417 -0.8604
 4466SOL    HW120850   4.997   0.942   2.108 -0.1754  0.1725 -0.0558
 4466SOL    HW220851   4.864   0.914   2.198 -1.0095 -0.3057 -1.4281
 4467SOL     OW20852   9.411   1.219   2.229  0.0203  0.0506 -0.4058
 4467SOL    HW120853   9.440   1.252   2.139 -0.1891 -0.3872 -0.6372
 4467SOL    HW220854   9.311   1.226   2.236  0.0282 -0.0094 -0.2433
 4468SOL     OW20855   3.243   9.944   1.923  0.5123  0.4198 -0.3855
 4468SOL    HW120856   3.261   9.850   1.952  1.5234  0.8888  0.5177
 4468SOL    HW220857   3.165   9.944   1.860 -0.2170 -0.8973  0.4671
 4469SOL     OW20858   1.186   7.283   1.406 -0.4348 -0.4384  0.5208
 4469SOL    HW120859   1.175   7.246   1.314 -0.0079 -3.1797  1.5355
 4469SOL    HW220860   1.278   7.261   1.440 -0.5000  0.7610  1.5352
 4470SOL     OW20861   9.189   2.036   0.208 -0.8896 -0.0291  0.2117
 4470SOL    HW120862   9.214   1.942   0.232  1.1195  0.8108  1.5097
 4470SOL    HW220863   9.091   2.049   0.223 -1.3136 -2.0689 -0.5395
 4471SOL     OW20864   2.479   7.311   1.899 -0.5943 -0.1525  0.6002
 4471SOL    HW120865   2.467   7.294   1.997 -1.9113  2.0901  0.8493
 4471SOL    HW220866   2.416   7.253   1.847 -0.9487 -0.2658  1.1497
 4472SOL     OW20867   3.845   0.203   1.735  0.4285  0.4329 -0.0889
 4472SOL    HW120868   3.792   0.136   1.787 -1.4857  1.0934 -1.1278
 4472SOL    HW220869   3.818   0.199   1.639  2.4181  0.6728 -0.6861
 4473SOL     OW20870   8.642   5.281   0.977  0.2827 -0.0121  0.4255
 4473SOL    HW120871   8.693   5.245   1.055  0.3943  0.1484  0.4261
 4473SOL    HW220872   8.688   5.362   0.941  0.4854 -0.3525 -0.0912
 4474SOL     OW20873   2.038   6.651   0.583  0.4236  0.0949  0.4512
 4474SOL    HW120874   2.096   6.572   0.602  0.4888 -0.0939 -0.5539
 4474SOL    HW220875   2.004   6.689   0.670  0.6827 -0.8095  0.9465
 4475SOL     OW20876   2.784   6.137   1.461 -0.2194  0.1008 -0.1669
 4475SOL    HW120877   2.878   6.130   1.495  0.2511  0.3005 -1.4037
 4475SOL    HW220878   2.776   6.089   1.374 -1.1525  0.4707 -0.2926
 4477SOL     OW20879   2.872   3.488   0.783  0.2841 -0.1827 -0.1268
 4477SOL    HW120880   2.856   3.532   0.871  0.1501  0.4399 -0.4620
 4477SOL    HW220881   2.786   3.476   0.735  0.3144 -0.8518 -0.0200
 4480SOL     OW20882   1.597   3.748   2.574 -0.4721  0.0291 -0.3951
 4480SOL    HW120883   1.644   3.793   2.650 -0.1524 -0.0147 -0.5676
 4480SOL    HW220884   1.664   3.722   2.504 -0.6869 -0.4934 -0.4051
 4481SOL     OW20885   9.532   8.309   0.565 -0.4134  0.0156 -0.7143
 4481SOL    HW120886   9.566   8.223   0.526  0.1864 -0.0471 -0.0677
 4481SOL    HW220887   9.463   8.289   0.635 -1.4717  0.1276 -1.7217
 4483SOL     OW20888   8.051   2.523   0.901 -0.0330 -0.0611 -0.0032
 4483SOL    HW120889   7.965   2.556   0.940  1.3443  1.2677  2.0073
 4483SOL    HW220890   8.076   2.579   0.823  0.1868  1.0856  0.8720
 4484SOL     OW20891   9.422   0.161   0.844  0.2166  0.7015  0.2023
 4484SOL    HW120892   9.489   0.203   0.784  0.8857  0.0269  0.4611
 4484SOL    HW220893   9.469   0.118   0.921 -0.3244 -1.5087 -0.6515
 4485SOL     OW20894   3.155   2.983   1.089 -0.0778  0.3869  0.7810
 4485SOL    HW120895   3.065   2.978   1.044  0.3858  0.9719 -0.2146
 4485SOL    HW220896   3.219   3.032   1.030  0.5387  1.1582  2.0894
 4486SOL     OW20897   1.973   2.306   0.676  0.1302  0.0346 -0.1327
 4486SOL    HW120898   1.876   2.282   0.666  0.5546 -1.5767 -0.6348
 4486SOL    HW220899   1.990   2.337   0.769 -0.3922 -2.2104  0.7637
 4487SOL     OW20900   3.334   2.121   2.691 -0.3371 -0.1499  0.4251
 4487SOL    HW120901   3.408   2.113   2.625 -1.5793  2.2061 -1.3340
 4487SOL    HW220902   3.248   2.091   2.650 -0.9151  0.1744  1.3670
 4488SOL     OW20903   0.615   7.807   1.950 -0.8752  0.0895 -0.5205
 4488SOL    HW120904   0.712   7.809   1.925 -0.9101  2.3685 -0.5372
 4488SOL    HW220905   0.604   7.844   2.042 -1.7243 -0.1453 -0.5259
 4489SOL     OW20906   9.882   2.918   2.128  0.0411 -0.2134  0.4845
 4489SOL    HW120907   9.793   2.915   2.082  1.2551 -2.5731 -1.8577
 4489SOL    HW220908   9.939   2.989   2.085  0.6178 -1.3384 -0.6418
 4490SOL     OW20909   4.407   0.439   1.085  0.0898  0.7790 -0.4832
 4490SOL    HW120910   4.504   0.420   1.098 -0.5141 -1.3229  1.4874
 4490SOL    HW220911   4.382   0.520   1.138  0.0788 -0.8691  2.1778
 4491SOL     OW20912   2.148   8.699   2.709 -0.3236 -0.2419 -0.3012
 4491SOL    HW120913   2.223   8.765   2.717  0.0841 -0.8185  0.7530
 4491SOL    HW220914   2.084   8.730   2.639 -0.3471  1.4960  0.4499
 4492SOL     OW20915   8.113   3.109   0.367 -0.6363  0.5296  0.0652
 4492SOL    HW120916   8.163   3.030   0.332  0.2829  1.9585 -1.9179
 4492SOL    HW220917   8.145   3.130   0.460  0.5138 -0.2099 -0.1533
 4493SOL     OW20918   2.406   1.899   2.276 -0.2487 -0.1775  0.0171
 4493SOL    HW120919   2.444   1.987   2.250 -1.0861  0.4466  0.8866
 4493SOL    HW220920   2.373   1.851   2.195 -0.1655  0.4817 -0.4099
 4495SOL     OW20921   4.255   9.901   0.153  0.1757  0.0930  0.2392
 4495SOL    HW120922   4.317   9.912   0.076  0.0453 -1.2008 -0.0688
 4495SOL    HW220923   4.176   9.961   0.142  1.2974  1.6620  0.5754
 4496SOL     OW20924   3.218   9.384   1.032  0.1372 -0.0310  0.3866
 4496SOL    HW120925   3.185   9.292   1.053 -0.0348 -0.0399  0.0809
 4496SOL    HW220926   3.215   9.398   0.933 -1.0759  0.7578  0.5233
 4500SOL     OW20927   7.692   8.992   0.980 -0.8426  0.2860 -0.1758
 4500SOL    HW120928   7.753   9.031   1.049 -0.1301 -0.8339 -0.1614
 4500SOL    HW220929   7.708   9.037   0.892  0.1201 -0.1031 -0.2052
 4501SOL     OW20930   8.539   6.486   1.469 -0.2173 -0.2490  0.0417
 4501SOL    HW120931   8.494   6.481   1.380  1.0908  1.1421 -0.7023
 4501SOL    HW220932   8.609   6.557   1.468  0.8395 -1.2291  1.7280
 4502SOL     OW20933   6.021   9.515   2.371 -0.0396  0.3014  0.5563
 4502SOL    HW120934   6.070   9.601   2.382 -0.7647  0.7839  0.0079
 4502SOL    HW220935   6.020   9.466   2.459  1.2895  0.3482  0.6109
 4503SOL     OW20936   0.483   1.962   0.456 -0.0459 -0.6572 -0.1230
 4503SOL    HW120937   0.425   2.044   0.452  0.3434 -0.3729  0.0413
 4503SOL    HW220938   0.566   1.977   0.402  1.7202  0.4182  2.7528
 4504SOL     OW20939   8.543   3.935   2.578 -0.0117 -0.1502 -0.4092
 4504SOL    HW120940   8.493   3.917   2.662 -0.4758 -0.4866 -0.7545
 4504SOL    HW220941   8.634   3.894   2.584  0.7788  1.7143  0.8019
 4505SOL     OW20942   8.550   3.922   0.256 -0.1808  0.2021 -0.0674
 4505SOL    HW120943   8.563   3.888   0.349 -1.6864  1.4751  0.6346
 4505SOL    HW220944   8.454   3.911   0.230  0.6104 -2.1060 -2.2999
 4506SOL     OW20945   4.705   8.879   0.639 -0.6443  0.3449  0.2090
 4506SOL    HW120946   4.719   8.875   0.738 -0.6241  3.6190  0.3896
 4506SOL    HW220947   4.608   8.866   0.619 -0.9990  1.8238  0.8662
 4508SOL     OW20948   3.274   3.442   1.116  0.5511 -0.1178  0.2017
 4508SOL    HW120949   3.192   3.442   1.173  0.3275 -0.9656 -0.1078
 4508SOL    HW220950   3.275   3.524   1.059 -1.7893 -1.6278 -2.1763
 4509SOL     OW20951   7.741   0.428   1.069  0.6140 -0.7451  0.4512
 4509SOL    HW120952   7.794   0.393   0.992  2.3000  0.1296  1.2074
 4509SOL    HW220953   7.801   0.440   1.148 -0.5583  1.0040  1.0840
 4512SOL     OW20954   5.099   8.714   2.290 -0.3336 -0.2460  0.0768
 4512SOL    HW120955   5.004   8.704   2.259 -0.7477 -2.0349  1.7943
 4512SOL    HW220956   5.160   8.706   2.211 -1.5736  0.5095 -0.9956
 4513SOL     OW20957   4.235   5.011   0.474  0.0644 -0.3693  0.3178
 4513SOL    HW120958   4.268   5.060   0.554 -3.3570  0.5727  1.2498
 4513SOL    HW220959   4.226   4.914   0.495 -0.3190 -0.2049  0.9341
 4514SOL     OW20960   1.408   7.605   1.857 -0.3761  0.0717  0.6158
 4514SOL    HW120961   1.466   7.580   1.780  0.2972 -0.3025  1.2490
 4514SOL    HW220962   1.312   7.593   1.831 -0.1052 -1.9662  0.4869
 4516SOL     OW20963   1.261   3.498   1.732  0.2381 -0.2701 -0.3487
 4516SOL    HW120964   1.297   3.404   1.733  2.0727  0.4001  0.6541
 4516SOL    HW220965   1.254   3.531   1.827  1.1669  1.1566 -0.7636
 4517SOL     OW20966   1.232   1.869   0.629 -0.1616  0.9091 -0.1282
 4517SOL    HW120967   1.159   1.825   0.682 -1.9573 -0.3175 -3.4963
 4517SOL    HW220968   1.226   1.968   0.642 -1.8888  0.7662  0.3393
 4518SOL     OW20969   9.471   0.928   2.115 -0.6118  0.0962  0.3835
 4518SOL    HW120970   9.565   0.897   2.132 -1.1193 -1.3997  0.4485
 4518SOL    HW220971   9.417   0.917   2.198 -1.5089 -1.4548 -0.3993
 4519SOL     OW20972   8.358   0.075   2.035 -0.0736 -0.7469  0.0327
 4519SOL    HW120973   8.361   0.100   1.938 -1.0728 -0.9908 -0.0711
 4519SOL    HW220974   8.268   0.035   2.056 -0.7282  1.4756  1.6109
 4520SOL     OW20975   8.334   2.276   1.802 -0.5900  0.0634 -0.5022
 4520SOL    HW120976   8.405   2.295   1.735  1.0729  0.4712  1.3124
 4520SOL    HW220977   8.364   2.308   1.892 -2.1348 -1.7764  0.7160
 4522SOL     OW20978   0.272   9.971   2.599 -0.6456 -0.3267 -0.2369
 4522SOL    HW120979   0.197   9.908   2.617 -0.8690  0.0250  0.0885
 4522SOL    HW220980   0.356   9.935   2.639 -1.3996  1.0853  2.7751
 4523SOL     OW20981   0.395   9.671   1.696  0.9081 -0.1878 -0.7252
 4523SOL    HW120982   0.454   9.702   1.621 -1.0667  1.3851 -1.6939
 4523SOL    HW220983   0.431   9.705   1.783  1.3602  0.9120 -1.3230
 4524SOL     OW20984   1.791   9.654   2.177  0.1174 -0.1992 -0.4550
 4524SOL    HW120985   1.732   9.678   2.254  0.9604 -1.0043  0.4587
 4524SOL    HW220986   1.781   9.722   2.105 -2.3625 -0.6389 -0.5502
 4525SOL     OW20987   0.814   4.414   1.289  0.1304  0.1006 -0.1586
 4525SOL    HW120988   0.831   4.395   1.192  2.0488 -0.0850  0.1977
 4525SOL    HW220989   0.756   4.342   1.327  1.6227 -1.3146 -0.5182
 4528SOL     OW20990   0.287   1.758   1.167  0.0228  0.2793  0.0428
 4528SOL    HW120991   0.276   1.710   1.080  0.2139 -1.1763  0.8130
 4528SOL    HW220992   0.375   1.805   1.169 -0.6904  1.7187 -1.2075
 4529SOL     OW20993   1.295   6.817   1.222 -0.0921  0.5356 -0.2952
 4529SOL    HW120994   1.319   6.749   1.291 -2.1872  1.2343  1.1700
 4529SOL    HW220995   1.211   6.790   1.175  0.8331  0.5141 -1.9643
 4530SOL     OW20996   3.114   7.037   1.896  0.1067 -0.0622  0.3678
 4530SOL    HW120997   3.129   7.123   1.945 -1.1809 -0.4232  1.4278
 4530SOL    HW220998   3.046   6.982   1.945 -1.0695 -0.5330 -1.6996
 4531SOL     OW20999   3.976   2.818   2.292  0.4843  0.4298  0.4056
 4531SOL    HW121000   3.960   2.842   2.388 -1.1760 -0.7234  0.4393
 4531SOL    HW221001   3.936   2.887   2.233  2.3893  1.6746  0.5190
 4534SOL     OW21002   8.883   7.722   0.244  0.1135 -0.1955  0.7339
 4534SOL    HW121003   8.848   7.636   0.282  0.8148  0.4491  2.9350
 4534SOL    HW221004   8.954   7.758   0.305  1.1615  0.9817 -1.1538
 4535SOL     OW21005   8.637   2.740   0.925 -0.4316 -0.3561  0.7395
 4535SOL    HW121006   8.697   2.811   0.963  0.1894 -1.7215  2.3636
 4535SOL    HW221007   8.671   2.713   0.835  1.1780 -0.8286  1.4685
 4536SOL     OW21008   8.731   2.631   0.676 -0.0572 -0.2056 -0.6341
 4536SOL    HW121009   8.698   2.561   0.613 -0.1109  0.2869 -1.1527
 4536SOL    HW221010   8.794   2.693   0.629 -1.7967  1.4855 -0.8049
 4537SOL     OW21011   1.779   6.991   0.454  0.1226 -0.3844 -0.1878
 4537SOL    HW121012   1.681   7.015   0.454 -0.0028 -0.7837  2.0755
 4537SOL    HW221013   1.790   6.896   0.425 -0.2633 -0.6767  0.6151
 4538SOL     OW21014   4.286   4.732   1.932  0.2404  0.3650 -0.1559
 4538SOL    HW121015   4.201   4.682   1.945  0.5781 -0.2510 -0.3048
 4538SOL    HW221016   4.276   4.795   1.855 -0.5574  1.3737  0.7355
 4539SOL     OW21017   2.603   8.960   1.710  0.2800 -0.5816 -0.0631
 4539SOL    HW121018   2.674   8.894   1.687 -2.7108 -2.7999 -3.6612
 4539SOL    HW221019   2.515   8.912   1.720 -1.0288  2.2234  2.6918
 4540SOL     OW21020   2.191   3.923   2.604 -0.1716 -0.5149  0.1109
 4540SOL    HW121021   2.167   3.849   2.666  0.5648 -1.3121 -0.5386
 4540SOL    HW221022   2.245   3.887   2.528  0.9602  0.8167  0.2567
 4541SOL     OW21023   0.478   3.963   1.918 -0.3423  0.0342 -0.3647
 4541SOL    HW121024   0.446   3.984   1.825 -0.7124  2.9707  0.3978
 4541SOL    HW221025   0.565   3.914   1.912  0.0055  0.8195 -2.2613
 4542SOL     OW21026   3.709   9.495   0.013  0.1362 -0.2476  0.3565
 4542SOL    HW121027   3.754   9.464   0.097 -0.0092  0.0211  0.5321
 4542SOL    HW221028   3.651   9.421  -0.022 -0.8000  0.0788  1.1880
 4543SOL     OW21029   8.544   5.994   1.345 -0.0999  0.8410  0.3263
 4543SOL    HW121030   8.632   5.990   1.392  0.9347  1.9231 -1.4923
 4543SOL    HW221031   8.497   6.079   1.370 -0.3475  0.5742  0.7802
 4544SOL     OW21032   8.711   0.841   2.039 -0.1295  0.2129  0.0268
 4544SOL    HW121033   8.669   0.842   1.948  1.0859 -0.3204 -0.5664
 4544SOL    HW221034   8.743   0.748   2.059  0.6393  0.5747  0.5082
 4545SOL     OW21035   7.905   4.155   0.306  0.2305 -0.4361  0.2201
 4545SOL    HW121036   7.813   4.128   0.276 -0.0349 -1.6592  2.0087
 4545SOL    HW221037   7.962   4.174   0.227 -1.2922 -0.6244 -0.9464
 4547SOL     OW21038   3.293   5.418   1.856  0.2343  0.1772  0.0273
 4547SOL    HW121039   3.381   5.460   1.833  1.1744 -0.5135  2.2915
 4547SOL    HW221040   3.271   5.349   1.787  0.5673  1.6042 -1.5554
 4548SOL     OW21041   9.477   0.091   1.180  0.0157 -0.5186 -0.3139
 4548SOL    HW121042   9.554   0.154   1.189 -1.3935  1.5221 -1.7080
 4548SOL    HW221043   9.431   0.080   1.268  1.7700 -1.6031  0.4757
 4549SOL     OW21044   4.243   9.540   0.936  0.5250  0.0018  0.5386
 4549SOL    HW121045   4.175   9.529   1.008  0.1324  0.1949  0.2007
 4549SOL    HW221046   4.330   9.568   0.976  0.7949 -1.5890  1.1319
 4550SOL     OW21047   9.775   0.460   1.179  0.0175  0.1216 -0.1393
 4550SOL    HW121048   9.855   0.434   1.234 -0.7046  0.8917  1.3195
 4550SOL    HW221049   9.805   0.505   1.095  1.1387 -0.6872 -0.1788
 4551SOL     OW21050   2.189   8.299   2.386 -0.1301  0.1916  0.1004
 4551SOL    HW121051   2.115   8.288   2.453  0.2843  2.4262  0.9659
 4551SOL    HW221052   2.275   8.319   2.434  0.6641 -0.4950 -1.0017
 4554SOL     OW21053   7.843   9.933   1.043  0.3237  0.2511  0.0594
 4554SOL    HW121054   7.903   9.959   1.119  0.7382  0.3478 -0.2980
 4554SOL    HW221055   7.830   9.834   1.042 -0.4074  0.3362  0.7928
 4555SOL     OW21056   1.736   3.155   1.178 -0.2114  0.0851 -0.5143
 4555SOL    HW121057   1.784   3.161   1.265 -0.4054 -1.9715 -0.2549
 4555SOL    HW221058   1.652   3.209   1.184 -0.7941 -0.9354  0.9768
 4556SOL     OW21059   9.224   8.756   0.185  0.6415  0.0318  0.3373
 4556SOL    HW121060   9.210   8.664   0.148  0.9681  0.0397  0.1994
 4556SOL    HW221061   9.149   8.778   0.247 -0.3053  0.2997 -0.8808
 4557SOL     OW21062   2.501   0.950   1.656  0.0100  0.3026  0.4034
 4557SOL    HW121063   2.508   0.871   1.594 -0.7012  0.7475 -0.2587
 4557SOL    HW221064   2.429   0.933   1.723 -0.0157  0.3033  0.3762
 4558SOL     OW21065   0.030   5.273   2.043 -0.2478 -0.2463  0.0612
 4558SOL    HW121066   0.076   5.240   1.960  0.7048 -1.9557  1.2492
 4558SOL    HW221067   0.034   5.203   2.114 -2.2592  0.6723  1.1272
 4560SOL     OW21068   0.108   6.957   1.985  0.4110  0.1278  0.1110
 4560SOL    HW121069   0.166   7.025   1.938  1.0406 -0.9164 -0.6375
 4560SOL    HW221070   0.083   6.992   2.075  0.9191  1.2618 -0.1702
 4561SOL     OW21071   8.422   1.032   1.976  0.1077 -0.2817 -0.5265
 4561SOL    HW121072   8.442   1.076   2.063  1.3559  0.6576 -1.2671
 4561SOL    HW221073   8.435   0.933   1.984 -1.4688 -0.4120  0.8004
 4562SOL     OW21074   2.376   1.582   1.184  0.1662 -0.1855 -0.3227
 4562SOL    HW121075   2.336   1.674   1.182 -0.6849 -0.5442  0.0086
 4562SOL    HW221076   2.417   1.565   1.274  0.8900  0.1015 -0.5916
 4563SOL     OW21077   4.498   5.083   2.005 -0.2457  0.2321 -0.7548
 4563SOL    HW121078   4.452   5.172   2.001 -2.2314 -0.7471 -0.6317
 4563SOL    HW221079   4.474   5.030   1.924 -2.0701 -1.5678  0.9034
 4564SOL     OW21080   8.526   9.060   1.643  0.3238  0.0166 -0.0158
 4564SOL    HW121081   8.502   8.965   1.622  0.7494 -0.1152  0.0883
 4564SOL    HW221082   8.623   9.074   1.623  0.1685  0.5383 -0.4121
 4568SOL     OW21083   1.696   4.270   2.649  0.1982 -0.6475  0.2164
 4568SOL    HW121084   1.709   4.231   2.558 -1.2395 -0.0740 -0.2471
 4568SOL    HW221085   1.773   4.331   2.670  0.9453 -1.4068 -0.2747
 4570SOL     OW21086   3.903   4.112   0.180 -0.7642  0.2995 -0.8074
 4570SOL    HW121087   3.997   4.101   0.213 -0.6978  1.6032 -0.5149
 4570SOL    HW221088   3.883   4.042   0.111  0.0695 -0.6305 -0.1171
 4571SOL     OW21089   3.941   8.923   2.378 -0.8369 -0.0157 -0.4724
 4571SOL    HW121090   3.956   8.972   2.292  1.1804  1.4262  0.6433
 4571SOL    HW221091   3.876   8.974   2.435 -2.0140 -0.8637 -1.0397
 4572SOL     OW21092   9.482   7.462   2.408 -0.0441  0.0425  0.1577
 4572SOL    HW121093   9.554   7.407   2.449 -2.1740 -1.1995  2.2944
 4572SOL    HW221094   9.413   7.402   2.367 -0.2688  1.2078 -1.2297
 4573SOL     OW21095   1.872   3.408   1.024  0.1718  0.5374  0.1706
 4573SOL    HW121096   1.834   3.337   1.082 -0.0508  1.5365  1.2499
 4573SOL    HW221097   1.825   3.494   1.040  1.1166  1.1731 -0.3952
 4574SOL     OW21098   1.732   1.913   0.006  0.3090  0.1855 -0.7307
 4574SOL    HW121099   1.724   2.011   0.026  0.4472 -0.0620  0.5391
 4574SOL    HW221100   1.826   1.883   0.024  0.0843 -0.3430 -0.4449
 4575SOL     OW21101   9.598   6.514   1.555 -0.4382 -0.4145 -0.2542
 4575SOL    HW121102   9.671   6.558   1.607 -1.5398 -0.2422  1.1542
 4575SOL    HW221103   9.627   6.421   1.529 -0.2314 -0.8340  1.4485
 4576SOL     OW21104   8.622   7.368   2.440 -0.0066  0.0132  0.1093
 4576SOL    HW121105   8.535   7.324   2.460 -0.0325 -0.1764 -0.4023
 4576SOL    HW221106   8.669   7.318   2.367  0.1988  0.5284 -0.1182
 4577SOL     OW21107   0.462   9.861   2.237  0.0765 -0.3301  0.2820
 4577SOL    HW121108   0.459   9.910   2.324 -1.1179  2.4974 -1.2824
 4577SOL    HW221109   0.538   9.896   2.182 -0.1944 -0.9494 -0.4864
 4578SOL     OW21110   4.063   9.763   1.998 -0.2793 -0.0110  0.8670
 4578SOL    HW121111   4.033   9.799   1.910 -1.7378 -2.7734  0.1609
 4578SOL    HW221112   4.150   9.714   1.987 -0.9683 -1.2300  0.7170
 4579SOL     OW21113   9.376   7.514   1.119  0.0240 -0.2824  0.4766
 4579SOL    HW121114   9.397   7.463   1.202  0.3464  1.4295  1.4669
 4579SOL    HW221115   9.440   7.590   1.109  0.0807 -0.5443 -1.4211
 4580SOL     OW21116   1.622   9.967   1.375 -0.5833  0.1673  0.5806
 4580SOL    HW121117   1.600   9.963   1.277 -0.0194  1.1065  0.4086
 4580SOL    HW221118   1.537   9.979   1.427 -0.7132  1.5717  0.0700
 4581SOL     OW21119   0.098   7.218   0.823 -0.6149  0.1246  0.3019
 4581SOL    HW121120   0.041   7.271   0.761 -0.8380 -0.4284  0.0271
 4581SOL    HW221121   0.050   7.205   0.910 -0.7151  0.0623  0.2377
 4582SOL     OW21122   7.857   1.779   1.828  0.2126  0.1283  0.1466
 4582SOL    HW121123   7.837   1.858   1.769  2.0500  0.9970  0.6489
 4582SOL    HW221124   7.794   1.778   1.905  0.3453  1.2916  0.2873
 4583SOL     OW21125   0.744   1.510   0.746  0.2868 -0.7971 -0.0524
 4583SOL    HW121126   0.789   1.496   0.834  0.9411 -0.6470 -0.3591
 4583SOL    HW221127   0.669   1.445   0.736 -1.5797  0.9993  1.8052
 4584SOL     OW21128   9.954   7.880   0.045  0.5545  0.0753  0.5954
 4584SOL    HW121129  10.048   7.846   0.056  0.4597 -0.6812 -0.8213
 4584SOL    HW221130   9.946   7.927  -0.043 -1.3565 -3.1762 -1.0519
 4585SOL     OW21131   9.017   7.825   1.416 -0.4974  0.5609  0.3485
 4585SOL    HW121132   9.030   7.893   1.345  0.0534 -1.0590 -1.1357
 4585SOL    HW221133   8.956   7.753   1.383  1.1973 -1.1522  0.8487
 4586SOL     OW21134   1.768   0.260   2.226 -0.1910 -0.7068  0.2108
 4586SOL    HW121135   1.727   0.329   2.286 -1.9394 -0.7860 -0.8508
 4586SOL    HW221136   1.837   0.208   2.276 -1.0962 -0.2698  1.9241
 4588SOL     OW21137   6.215   0.347   2.679  0.1151  0.5893 -0.3391
 4588SOL    HW121138   6.144   0.355   2.749 -0.8691 -2.3386 -0.9137
 4588SOL    HW221139   6.305   0.343   2.723 -0.2599  1.6289  0.5533
 4589SOL     OW21140   1.457   2.306   1.735 -0.4655 -0.3036 -0.0351
 4589SOL    HW121141   1.517   2.375   1.777  1.1337 -0.7969 -1.4713
 4589SOL    HW221142   1.377   2.352   1.696 -0.6200  0.4556  1.1113
 4591SOL     OW21143   3.795   9.203   1.082  0.0389 -0.5237  0.1347
 4591SOL    HW121144   3.890   9.172   1.091  0.7682  1.3817 -0.6699
 4591SOL    HW221145   3.760   9.227   1.173 -0.1555 -2.5399  0.6150
 4592SOL     OW21146   2.216   2.406   2.045 -0.2044  0.1289  0.3500
 4592SOL    HW121147   2.208   2.381   1.948  0.8584  0.6081  0.1256
 4592SOL    HW221148   2.144   2.470   2.069 -0.8018 -0.4079  0.0145
 4593SOL     OW21149   3.067   1.071   2.531 -0.8019  0.2014  0.0548
 4593SOL    HW121150   3.096   1.009   2.458  0.1007 -0.0460  0.6247
 4593SOL    HW221151   2.989   1.031   2.580  0.0939 -0.7175  0.7431
 4594SOL     OW21152   0.734   8.709   2.479 -0.3276 -0.5753 -0.2163
 4594SOL    HW121153   0.825   8.722   2.517  0.0752 -0.4829 -1.1913
 4594SOL    HW221154   0.665   8.715   2.552 -0.0322  4.8880 -0.2470
 4595SOL     OW21155   1.385   5.975   0.033  0.2210 -0.2195 -0.3669
 4595SOL    HW121156   1.452   5.978   0.107  0.9667  0.9469 -1.0723
 4595SOL    HW221157   1.389   5.886  -0.013  0.6864 -0.4593  0.1375
 4596SOL     OW21158   2.255   0.852   1.460 -0.5871  0.5946  0.2451
 4596SOL    HW121159   2.303   0.842   1.547  1.2256  1.2778 -0.6529
 4596SOL    HW221160   2.211   0.765   1.436  0.4954 -0.1515  0.9169
 4597SOL     OW21161   4.316   3.678   1.151  0.1022  0.1605 -0.2769
 4597SOL    HW121162   4.250   3.625   1.205 -1.1142  1.6513 -0.2693
 4597SOL    HW221163   4.405   3.632   1.152 -0.5336 -1.0616  1.0201
 4598SOL     OW21164   9.913   2.058   1.625  0.0992  0.2171 -0.6186
 4598SOL    HW121165   9.991   2.114   1.599  0.8345 -0.1136  0.7723
 4598SOL    HW221166   9.835   2.116   1.646  0.6484  0.6971  0.1447
 4599SOL     OW21167   2.232   2.647   1.006 -1.0529 -0.2644 -0.1188
 4599SOL    HW121168   2.290   2.656   0.924 -1.6088 -1.5560 -0.6724
 4599SOL    HW221169   2.289   2.653   1.088 -0.5449  1.4866 -0.5753
 4600SOL     OW21170   1.391   7.032   1.723 -0.2071 -0.1097  0.6450
 4600SOL    HW121171   1.330   7.037   1.645 -1.0651 -0.7570  1.2680
 4600SOL    HW221172   1.455   7.108   1.720 -1.4039  0.8918  0.2887
 4601SOL     OW21173   9.735   6.382   0.545 -0.5071  0.4535 -0.1468
 4601SOL    HW121174   9.805   6.324   0.503 -1.7619 -0.2700 -1.3064
 4601SOL    HW221175   9.778   6.446   0.608  0.9412 -1.6110  1.0167
 4602SOL     OW21176   7.502   8.908   2.273  0.3697  0.0474  0.2030
 4602SOL    HW121177   7.557   8.958   2.340  1.6552 -1.6693  0.4443
 4602SOL    HW221178   7.407   8.905   2.303  0.3977  1.7424  0.5180
 4603SOL     OW21179   8.761   6.825   1.193  0.8147 -0.1118  0.3108
 4603SOL    HW121180   8.823   6.875   1.133  0.6274 -1.8792 -1.4134
 4603SOL    HW221181   8.674   6.874   1.198  1.6916  1.3822  1.2201
 4604SOL     OW21182   2.567   6.768   1.648  0.1801 -0.2517 -0.1513
 4604SOL    HW121183   2.596   6.733   1.559 -1.0486  1.5305 -1.2817
 4604SOL    HW221184   2.594   6.864   1.656  0.7588 -0.5406  1.6380
 4605SOL     OW21185   1.914   7.413   1.785 -0.0284  0.0563  0.0109
 4605SOL    HW121186   1.903   7.432   1.687 -0.9086  1.3914  0.3585
 4605SOL    HW221187   1.952   7.493   1.831 -2.0012  0.3494  1.1742
 4608SOL     OW21188   9.281   4.559   1.708 -0.0613  0.5484  0.0869
 4608SOL    HW121189   9.275   4.473   1.657  2.9868  0.9698 -1.0848
 4608SOL    HW221190   9.271   4.636   1.645  0.2524  1.0561  0.6461
 4609SOL     OW21191   1.514   8.544   0.009  0.1788 -0.1517  0.1663
 4609SOL    HW121192   1.583   8.560   0.079 -0.6254 -2.3595  1.5171
 4609SOL    HW221193   1.528   8.454  -0.032  0.2218  0.8320 -2.0507
 4610SOL     OW21194   0.636   1.863   2.324  0.2610  0.0797  0.4344
 4610SOL    HW121195   0.695   1.887   2.247  1.0832 -0.8976  0.7475
 4610SOL    HW221196   0.584   1.944   2.353 -1.3945  0.0390 -2.2819
 4611SOL     OW21197   8.905   8.925   0.866 -0.6729 -0.1337 -0.1364
 4611SOL    HW121198   8.941   9.006   0.818  0.0485 -0.9013 -0.9249
 4611SOL    HW221199   8.820   8.896   0.822 -0.0825 -0.7568 -0.8949
 4614SOL     OW21200   9.268   2.907   1.819  0.2460 -0.8393  0.5507
 4614SOL    HW121201   9.175   2.900   1.853  0.3674  0.2903  1.1103
 4614SOL    HW221202   9.267   2.927   1.721 -0.0905  0.7508  0.8815
 4615SOL     OW21203   3.409   6.340   0.434 -0.3292 -0.0033 -0.7476
 4615SOL    HW121204   3.502   6.350   0.397 -0.1952  0.1685 -0.3588
 4615SOL    HW221205   3.413   6.304   0.527 -0.6679 -0.3056 -0.8477
 4617SOL     OW21206   0.732   6.193   0.915 -0.6406  0.3187  0.3973
 4617SOL    HW121207   0.745   6.279   0.963  0.9204  0.9958 -1.1584
 4617SOL    HW221208   0.740   6.117   0.979  2.4474  1.1435  1.0613
 4619SOL     OW21209   9.606   2.663   1.504 -0.2037 -0.5005 -0.1178
 4619SOL    HW121210   9.657   2.673   1.589  0.3334 -2.4068 -0.1864
 4619SOL    HW221211   9.572   2.569   1.496 -0.7765 -0.1802 -1.7148
 4620SOL     OW21212   9.346   8.327   0.166 -0.8506  0.0214  0.0102
 4620SOL    HW121213   9.378   8.233   0.173 -1.7401 -0.4022 -1.3760
 4620SOL    HW221214   9.379   8.368   0.081 -0.3224  1.0318  0.6886
 4621SOL     OW21215   1.069   3.991   0.387  0.1362 -0.5967 -0.3063
 4621SOL    HW121216   1.059   3.946   0.476 -1.3435  1.0842  0.4213
 4621SOL    HW221217   1.160   4.034   0.382  0.6058 -1.5346 -0.0229
 4623SOL     OW21218   1.646   8.788   2.478  0.4745 -0.2204  0.0078
 4623SOL    HW121219   1.643   8.708   2.419  2.0442 -0.0592 -0.3348
 4623SOL    HW221220   1.605   8.866   2.430 -1.6680 -0.9481  0.6021
 4627SOL     OW21221   8.495   3.610   0.100  0.2392  0.0007 -0.3342
 4627SOL    HW121222   8.489   3.623   0.002 -0.4569 -0.9508 -0.4224
 4627SOL    HW221223   8.486   3.698   0.147  0.6209  0.4575 -1.1154
 4628SOL     OW21224   4.046   1.122   2.569  0.4382 -0.8390 -0.2685
 4628SOL    HW121225   4.078   1.046   2.513 -3.5186 -1.8122 -1.3893
 4628SOL    HW221226   4.001   1.087   2.650 -0.1959  0.3575 -0.0926
 4629SOL     OW21227   9.680   4.343   1.330  0.6716 -0.1527  0.0647
 4629SOL    HW121228   9.615   4.394   1.273  0.0788 -0.7438  0.2091
 4629SOL    HW221229   9.667   4.369   1.426  0.5581 -0.3768  0.1087
 4630SOL     OW21230   5.493   9.318   2.311 -0.3071 -0.4572 -0.1859
 4630SOL    HW121231   5.561   9.389   2.329  0.1096 -0.8356 -0.2750
 4630SOL    HW221232   5.445   9.294   2.395 -1.7357  1.2454 -0.4684
 4631SOL     OW21233   3.010   4.620   2.291  0.0391  0.0079  0.2507
 4631SOL    HW121234   2.953   4.678   2.349 -1.6454 -1.9754  0.6539
 4631SOL    HW221235   2.980   4.524   2.300  1.0988 -0.6087 -2.2924
 4632SOL     OW21236   7.179   9.581   0.301  0.1772 -0.5024  0.1025
 4632SOL    HW121237   7.265   9.534   0.324  0.0950 -0.3248  0.7939
 4632SOL    HW221238   7.123   9.589   0.383 -0.0205  0.3761 -0.1114
 4634SOL     OW21239   1.105   9.398   1.516 -0.1555  0.0609 -0.0312
 4634SOL    HW121240   1.204   9.390   1.530  0.0026  1.7763 -0.1521
 4634SOL    HW221241   1.079   9.340   1.438  0.8281 -0.0703 -0.2763
 4635SOL     OW21242   3.154   1.089   0.460 -0.2559 -0.1945 -0.4007
 4635SOL    HW121243   3.150   1.129   0.368  0.4696 -1.1541 -0.8594
 4635SOL    HW221244   3.206   1.004   0.457  2.0500  1.0906  1.3757
 4636SOL     OW21245   1.679   9.310   1.716 -0.1392  0.4554 -0.1597
 4636SOL    HW121246   1.624   9.390   1.692  1.8462  1.8542 -0.1727
 4636SOL    HW221247   1.775   9.336   1.724  1.1071 -2.5868 -3.5677
 4637SOL     OW21248   0.620   4.275   2.124 -0.0023  0.2156  0.1082
 4637SOL    HW121249   0.620   4.349   2.191 -0.2738  0.0401  0.3006
 4637SOL    HW221250   0.537   4.280   2.067 -0.8069 -0.8832  1.1586
 4638SOL     OW21251   9.338   3.262   1.673  0.1556 -0.1800 -0.4316
 4638SOL    HW121252   9.332   3.184   1.612 -0.5294 -0.0762 -0.4993
 4638SOL    HW221253   9.371   3.232   1.763  2.6554 -0.0917 -1.2784
 4639SOL     OW21254   8.430   1.637   2.508 -0.2132 -0.4673  0.1436
 4639SOL    HW121255   8.336   1.666   2.526 -0.8017 -1.7371 -0.8243
 4639SOL    HW221256   8.487   1.717   2.489 -1.0154  0.3348  1.0844
 4641SOL     OW21257   3.649   8.198   1.106 -0.0890  0.2187 -0.2764
 4641SOL    HW121258   3.616   8.175   1.014 -3.0583  0.7754  0.5866
 4641SOL    HW221259   3.658   8.114   1.160 -0.0204  0.0526 -0.5442
 4642SOL     OW21260   8.012   0.198   0.040  0.4043 -0.7522 -0.3252
 4642SOL    HW121261   7.930   0.143   0.028  1.2789 -2.0561 -0.5317
 4642SOL    HW221262   8.080   0.146   0.092  1.0597  0.3377 -0.0703
 4643SOL     OW21263   0.155   6.766   2.250  0.0235  0.3021 -0.3417
 4643SOL    HW121264   0.129   6.733   2.160  1.5810  0.0228 -0.7024
 4643SOL    HW221265   0.073   6.789   2.302 -0.9841 -1.8100 -0.9626
 4644SOL     OW21266   4.506   3.357   0.334  0.2600  0.0307  0.6002
 4644SOL    HW121267   4.418   3.375   0.378 -1.9832 -1.7548 -2.9258
 4644SOL    HW221268   4.533   3.262   0.351  1.2732  0.4116  1.1906
 4645SOL     OW21269   2.083   5.259   0.933  0.5234  0.2614  0.6477
 4645SOL    HW121270   2.068   5.341   0.988  0.5051  0.7785 -0.1173
 4645SOL    HW221271   2.173   5.265   0.890  0.2289  0.2225  0.0170
 4647SOL     OW21272   0.821   2.497   0.009 -0.1791 -0.0556 -0.2012
 4647SOL    HW121273   0.735   2.538  -0.021 -0.1867  0.3708  0.3976
 4647SOL    HW221274   0.808   2.453   0.097  0.9158  2.5274  1.2947
 4648SOL     OW21275   0.453   6.161   0.260 -0.4203 -0.0643  0.0293
 4648SOL    HW121276   0.419   6.148   0.167 -0.1363 -1.6811  0.1467
 4648SOL    HW221277   0.395   6.111   0.325 -0.4210  0.7840  0.6939
 4649SOL     OW21278   8.854   3.335   0.670  1.0014  0.1264  0.5208
 4649SOL    HW121279   8.830   3.381   0.755 -1.8049 -0.5542  0.1339
 4649SOL    HW221280   8.801   3.251   0.661  1.4080  0.0824 -1.8065
 4652SOL     OW21281   3.056   2.836   0.598  0.4401 -0.4698  0.0035
 4652SOL    HW121282   3.117   2.757   0.592 -1.0095 -1.5455 -0.9105
 4652SOL    HW221283   2.974   2.819   0.544 -0.2243  1.3744  0.3913
 4653SOL     OW21284   9.233   6.917   1.090 -0.2253 -0.1417 -0.4446
 4653SOL    HW121285   9.275   6.839   1.136 -0.3646 -0.3843 -0.7318
 4653SOL    HW221286   9.301   6.960   1.029  0.1016  0.4576  0.3256
 4654SOL     OW21287   0.184   4.344   2.542  0.3628  0.0605 -0.3954
 4654SOL    HW121288   0.181   4.291   2.627  1.4116  0.8450  0.1330
 4654SOL    HW221289   0.269   4.326   2.493 -0.5116 -0.8768 -1.6134
 4655SOL     OW21290   9.225   9.533   0.866  0.1827  0.2852 -0.5549
 4655SOL    HW121291   9.239   9.530   0.767 -0.9723  1.9073 -0.7913
 4655SOL    HW221292   9.128   9.522   0.886  0.5261 -0.9943  0.4697
 4656SOL     OW21293   1.536   0.554   0.786 -0.2706  0.2621  0.5221
 4656SOL    HW121294   1.490   0.636   0.818  0.7991  1.8873 -1.8908
 4656SOL    HW221295   1.519   0.543   0.688 -0.1172 -2.2142  0.7489
 4657SOL     OW21296   8.882   1.163   1.841 -0.0608 -0.3525  0.1785
 4657SOL    HW121297   8.971   1.205   1.821 -0.7402 -0.4592 -3.2813
 4657SOL    HW221298   8.815   1.235   1.860  0.0831 -0.1132 -0.1992
 4658SOL     OW21299   5.035   3.737   0.115  0.5602  0.6013 -0.2714
 4658SOL    HW121300   4.959   3.679   0.086  0.8544  1.6592 -3.3487
 4658SOL    HW221301   5.112   3.681   0.144 -0.2325 -0.5021 -0.2902
 4659SOL     OW21302   8.436   1.281   2.693  0.1490 -0.3370  0.5227
 4659SOL    HW121303   8.406   1.234   2.776 -1.1600  2.0860  1.4731
 4659SOL    HW221304   8.358   1.330   2.653  1.3766  0.6777 -0.6450
 4660SOL     OW21305   9.978   7.904   0.306 -0.4127 -0.7731  0.3762
 4660SOL    HW121306  10.068   7.946   0.300 -0.4975 -0.5441  0.6528
 4660SOL    HW221307   9.946   7.879   0.215 -0.8928  0.9089  0.0595
 4661SOL     OW21308   4.553   3.232   1.886 -0.4684  0.8701  0.0354
 4661SOL    HW121309   4.596   3.237   1.796 -0.2094  0.2541  0.1230
 4661SOL    HW221310   4.459   3.266   1.880 -0.5603  0.5254 -0.5441
 4663SOL     OW21311   7.846   9.518   0.828  0.0254 -0.0251 -0.1212
 4663SOL    HW121312   7.810   9.426   0.840 -1.4555  0.3670 -1.4793
 4663SOL    HW221313   7.829   9.571   0.912 -0.7972 -0.4267 -0.0268
 4664SOL     OW21314   2.204   4.662   2.684  0.0973  0.1321 -0.2401
 4664SOL    HW121315   2.261   4.721   2.741 -1.2550  0.7178  0.5130
 4664SOL    HW221316   2.253   4.640   2.599  1.0718  1.3626 -0.0014
 4665SOL     OW21317   6.586   9.764   2.439  0.5538  0.1352 -0.0165
 4665SOL    HW121318   6.592   9.725   2.531  0.9992 -2.5674 -1.1461
 4665SOL    HW221319   6.654   9.837   2.430  0.8443  0.0903  1.6511
 4666SOL     OW21320   2.421   6.600   2.151 -0.0083 -0.6883  0.3286
 4666SOL    HW121321   2.457   6.584   2.059  1.9150  0.1163  0.8969
 4666SOL    HW221322   2.420   6.514   2.201  0.1052 -0.9225 -0.0649
 4667SOL     OW21323   1.745   5.471   1.717 -0.3002  0.3856  1.0334
 4667SOL    HW121324   1.664   5.484   1.660  1.2749  0.1961 -1.3282
 4667SOL    HW221325   1.820   5.527   1.682  0.9629 -0.3863  2.4331
 4668SOL     OW21326   9.569   1.090   1.920  0.1655  0.0961 -0.2681
 4668SOL    HW121327   9.527   1.033   1.991  0.4894  0.5986  0.3319
 4668SOL    HW221328   9.665   1.066   1.911  0.2391  0.3594 -0.1971
 4669SOL     OW21329   9.715   7.776   2.292  0.1251 -0.2800  0.3189
 4669SOL    HW121330   9.750   7.817   2.208  0.7924  1.6861  1.5134
 4669SOL    HW221331   9.790   7.736   2.344 -0.0599 -0.1318  0.7052
 4671SOL     OW21332   1.471   6.328   2.059 -0.2165 -0.9911  0.4998
 4671SOL    HW121333   1.557   6.284   2.035 -0.2423 -0.0714 -1.3005
 4671SOL    HW221334   1.422   6.353   1.976 -1.0337  0.8140  1.5110
 4672SOL     OW21335   2.232   2.430   1.759  0.8699  0.0778 -0.2177
 4672SOL    HW121336   2.307   2.400   1.701  0.1765 -3.6638  0.6747
 4672SOL    HW221337   2.145   2.400   1.719  0.1553  0.3961  1.0693
 4673SOL     OW21338   1.701   9.172   2.648  0.1950 -0.4699  0.2320
 4673SOL    HW121339   1.681   9.236   2.574 -1.0455 -0.3463  0.6674
 4673SOL    HW221340   1.640   9.189   2.725  0.0121 -2.0206  0.4540
 4674SOL     OW21341   1.485   3.545   0.365  0.1141 -0.1126 -0.2355
 4674SOL    HW121342   1.505   3.536   0.268 -0.0682 -1.5675 -0.1491
 4674SOL    HW221343   1.536   3.622   0.403  1.4986 -0.5806 -1.1270
 4675SOL     OW21344   1.756   1.475   1.788  1.0464  0.4977 -0.0855
 4675SOL    HW121345   1.779   1.556   1.841  2.6987 -0.1883  0.2934
 4675SOL    HW221346   1.838   1.418   1.777  0.2263 -0.4458 -1.5035
 4676SOL     OW21347   8.475   3.220   0.564  0.2588  0.6960  0.0769
 4676SOL    HW121348   8.564   3.182   0.591 -0.9402 -2.6119 -0.4252
 4676SOL    HW221349   8.470   3.227   0.465  0.0543  1.2306  0.1199
 4678SOL     OW21350   2.329   4.345   2.130 -0.5144  0.1820 -0.1278
 4678SOL    HW121351   2.275   4.319   2.049 -1.1468 -1.3412  0.7639
 4678SOL    HW221352   2.278   4.413   2.183 -0.8954 -0.1678 -0.0498
 4679SOL     OW21353   3.652   2.318   1.291  0.5973  1.2744  0.4839
 4679SOL    HW121354   3.582   2.337   1.223 -0.0613 -2.3969  0.0207
 4679SOL    HW221355   3.741   2.311   1.247  0.9637  3.7716  0.7617
 4680SOL     OW21356   0.513   7.989   0.775 -0.3422 -0.4924  0.3588
 4680SOL    HW121357   0.429   7.985   0.829 -0.0600 -0.2327  0.8176
 4680SOL    HW221358   0.544   7.895   0.756 -0.8866 -0.5907 -0.0523
 4681SOL     OW21359   1.047   1.460   0.419  0.1744 -0.0892 -0.5720
 4681SOL    HW121360   1.110   1.440   0.345  0.9679  0.4677 -0.0588
 4681SOL    HW221361   1.035   1.379   0.476  0.1256 -0.3074 -0.8947
 4682SOL     OW21362   8.407   8.097   0.885 -0.1246  0.5004  0.5657
 4682SOL    HW121363   8.369   8.017   0.837  1.4062  0.0441  0.1074
 4682SOL    HW221364   8.464   8.066   0.961  0.6570  1.1568  0.2468
 4683SOL     OW21365   8.717   8.790   0.385  0.2272  0.5288 -0.4087
 4683SOL    HW121366   8.801   8.741   0.408  0.4861  1.0153 -0.2907
 4683SOL    HW221367   8.640   8.750   0.434  0.3166 -0.2103 -0.8741
 4684SOL     OW21368   3.017   6.593   1.910  0.5439  0.1110  0.0345
 4684SOL    HW121369   2.973   6.518   1.959  0.2209  0.1279 -0.2246
 4684SOL    HW221370   3.103   6.562   1.870 -0.1430 -0.4499 -1.0568
 4685SOL     OW21371   9.952   6.773   0.416 -0.2263 -0.3365 -0.3719
 4685SOL    HW121372  10.032   6.833   0.416  1.1141 -2.0910 -0.8098
 4685SOL    HW221373   9.904   6.782   0.503 -1.1673  2.7775 -1.1226
 4686SOL     OW21374   4.433   5.027   2.274 -0.4637  0.4993  0.6172
 4686SOL    HW121375   4.412   5.112   2.321 -1.5400  0.7016 -0.2001
 4686SOL    HW221376   4.433   5.043   2.175 -1.7410 -0.6711  0.4083
 4687SOL     OW21377   8.421   7.784   2.459 -0.3781 -0.2385  0.7600
 4687SOL    HW121378   8.329   7.766   2.424  0.4840 -1.7825 -0.8339
 4687SOL    HW221379   8.434   7.882   2.472 -1.5845  0.1658 -0.9469
 4688SOL     OW21380   7.840   2.066   0.867 -0.2348 -0.7640 -0.1984
 4688SOL    HW121381   7.918   2.011   0.897 -1.0504 -1.0571  1.4119
 4688SOL    HW221382   7.852   2.161   0.897 -1.7240 -1.3505  2.3413
 4689SOL     OW21383   9.473   9.411   1.535 -0.1164  0.2629  0.0809
 4689SOL    HW121384   9.460   9.488   1.596 -2.8794  0.2785 -0.4360
 4689SOL    HW221385   9.550   9.429   1.473 -0.8339  2.6878 -0.1519
 4690SOL     OW21386   3.226   3.888   0.608  0.0580 -0.0770 -0.0583
 4690SOL    HW121387   3.290   3.965   0.616 -0.3844  0.3394 -0.4814
 4690SOL    HW221388   3.133   3.924   0.595 -0.5856 -0.6078  2.6884
 4692SOL     OW21389   3.063   5.431   0.805  0.5935 -0.2980 -0.1167
 4692SOL    HW121390   3.108   5.344   0.782  0.1083 -0.8080  0.8222
 4692SOL    HW221391   3.049   5.436   0.904  2.2527  1.6801  0.0386
 4693SOL     OW21392   1.166   0.514   1.847  1.0773  0.1598  0.1426
 4693SOL    HW121393   1.120   0.425   1.853  0.7155  0.4075  1.1336
 4693SOL    HW221394   1.247   0.514   1.906  2.4949 -0.3403 -1.7392
 4694SOL     OW21395   4.088   8.829   0.052  0.0575  0.3771  0.1898
 4694SOL    HW121396   4.129   8.848   0.140  1.1314  0.6973 -0.3726
 4694SOL    HW221397   4.158   8.797  -0.012 -0.4396  1.4748 -0.9368
 4695SOL     OW21398   3.084   6.219   1.135 -0.7345 -0.3214 -0.3242
 4695SOL    HW121399   3.035   6.187   1.054  1.0020 -0.7704 -1.2121
 4695SOL    HW221400   3.156   6.155   1.159  2.1599  2.3168 -1.5534
 4696SOL     OW21401   2.916   1.134   2.224 -0.3258  0.1487 -0.1385
 4696SOL    HW121402   2.961   1.049   2.251 -1.8686  0.0776  2.3362
 4696SOL    HW221403   2.940   1.206   2.288 -0.1226  1.2672 -1.4448
 4697SOL     OW21404   2.218   9.374   0.089  0.3837  0.9106  0.2034
 4697SOL    HW121405   2.251   9.421   0.007  0.3831  0.6486  0.0540
 4697SOL    HW221406   2.127   9.336   0.071  1.0248 -0.4569 -0.1639
 4698SOL     OW21407   8.819   3.148   0.382  0.1897  0.0036 -0.4154
 4698SOL    HW121408   8.912   3.179   0.359  1.2697 -2.5375  0.2911
 4698SOL    HW221409   8.758   3.167   0.306  1.4988  0.8453 -1.2892
 4700SOL     OW21410   5.451   8.514   2.295 -0.7610  0.1306  0.0095
 4700SOL    HW121411   5.510   8.595   2.294  0.6299 -0.8667  0.8069
 4700SOL    HW221412   5.429   8.490   2.390 -0.9097 -0.6279 -0.2125
 4701SOL     OW21413   9.504   2.707   0.811  0.3179 -0.3062 -0.2035
 4701SOL    HW121414   9.594   2.674   0.839  0.3757  1.0010  1.1727
 4701SOL    HW221415   9.507   2.735   0.715  1.6362  0.6439  0.1075
 4702SOL     OW21416   1.348   7.574   2.227  0.1379  0.6557  0.1288
 4702SOL    HW121417   1.375   7.596   2.321 -0.3894  0.2283  0.3906
 4702SOL    HW221418   1.389   7.639   2.164  1.3572  0.3170  0.5601
 4703SOL     OW21419   2.422   3.059   0.146  0.3127 -0.4428 -0.2002
 4703SOL    HW121420   2.436   3.142   0.091 -1.7437  0.4399  0.5568
 4703SOL    HW221421   2.510   3.026   0.178  1.2106  1.2552 -0.8185
 4704SOL     OW21422   1.117   4.924   0.824  0.3310  0.1075 -0.0243
 4704SOL    HW121423   1.018   4.932   0.821  0.3052  0.3903  1.2835
 4704SOL    HW221424   1.147   4.907   0.918  1.5498  0.3989 -0.3439
 4705SOL     OW21425   3.992   7.676   0.295  0.2652  0.2274  0.2084
 4705SOL    HW121426   3.899   7.661   0.261  0.5381  1.9678 -1.3883
 4705SOL    HW221427   3.996   7.651   0.391 -1.2354 -2.1922 -0.3116
 4707SOL     OW21428   2.690   8.911   1.272 -0.2140 -0.5391  0.0196
 4707SOL    HW121429   2.668   8.879   1.180 -0.7798 -2.2416  0.7410
 4707SOL    HW221430   2.641   8.856   1.340  0.5946  0.3634  1.3610
 4708SOL     OW21431   1.327   7.225   2.646 -0.0409  0.4443  0.3428
 4708SOL    HW121432   1.259   7.296   2.626 -0.4856  0.1355  0.7353
 4708SOL    HW221433   1.280   7.138   2.665  0.4325  0.3440  1.1045
 4709SOL     OW21434   3.813   1.323   1.918  0.8007  0.0220  0.0927
 4709SOL    HW121435   3.758   1.346   1.998 -1.1076 -3.1004 -0.2460
 4709SOL    HW221436   3.893   1.270   1.947  2.5502  2.7113  0.3498
 4710SOL     OW21437   9.805   6.131   1.995  0.3051 -0.0426 -0.2935
 4710SOL    HW121438   9.789   6.143   2.093  2.6326  0.5951  0.0619
 4710SOL    HW221439   9.732   6.076   1.955 -0.2906 -0.9434  1.9502
 4711SOL     OW21440   3.512   0.967   0.908  0.1970 -0.2467  0.3563
 4711SOL    HW121441   3.507   0.868   0.894  1.1535 -0.1585 -0.7268
 4711SOL    HW221442   3.452   0.994   0.983 -1.2105 -1.4445 -0.3323
 4712SOL     OW21443   0.653   4.912   2.418  0.4050  0.1672 -0.1711
 4712SOL    HW121444   0.725   4.857   2.459  1.3034  1.0134 -0.5892
 4712SOL    HW221445   0.687   5.005   2.402 -0.6838  0.4946 -0.6296
 4713SOL     OW21446   3.287   0.941   0.731  0.2247  0.0867  0.6441
 4713SOL    HW121447   3.197   0.972   0.760 -0.1113 -0.9610  0.7404
 4713SOL    HW221448   3.357   0.987   0.786 -0.1047  2.6361 -0.9632
 4714SOL     OW21449   2.184   0.577   1.412  0.2301 -0.1563 -0.0958
 4714SOL    HW121450   2.278   0.553   1.387  0.6424 -1.0947  2.1673
 4714SOL    HW221451   2.135   0.494   1.441 -1.3387  0.3103 -1.3509
 4715SOL     OW21452   4.360   7.600   0.524 -0.1559 -0.3968  0.3099
 4715SOL    HW121453   4.347   7.572   0.619  3.4557 -0.1004  0.9268
 4715SOL    HW221454   4.310   7.686   0.508  0.7247  0.5538  2.4557
 4716SOL     OW21455   8.965   1.867   0.681 -0.2633  0.4409 -0.4633
 4716SOL    HW121456   9.022   1.801   0.631 -1.0596 -0.2980 -0.4249
 4716SOL    HW221457   8.987   1.863   0.778 -2.1798 -1.7634 -0.0709
 4717SOL     OW21458   0.534   4.162   0.701 -0.8885 -0.1616  0.7462
 4717SOL    HW121459   0.572   4.072   0.682  0.2721  0.1374  1.6471
 4717SOL    HW221460   0.502   4.203   0.615 -1.0622 -1.2596  0.2803
 4718SOL     OW21461   5.821   9.332   2.591 -0.1978  0.5050  0.7550
 4718SOL    HW121462   5.906   9.380   2.614  0.9603 -0.1553 -2.0505
 4718SOL    HW221463   5.842   9.247   2.544 -2.3936 -0.5227  1.5942
 4720SOL     OW21464   2.988   7.834   0.692 -0.0780  0.0765 -0.4753
 4720SOL    HW121465   3.078   7.878   0.704  0.6536 -1.7264  0.7839
 4720SOL    HW221466   2.985   7.749   0.743 -2.3895 -0.1042 -0.8527
 4721SOL     OW21467   3.401   1.061   1.523  0.4354  0.4346  0.5078
 4721SOL    HW121468   3.448   1.141   1.561  1.8297 -0.3888  0.5149
 4721SOL    HW221469   3.372   1.001   1.598 -0.6412  0.9259  0.5044
 4722SOL     OW21470   8.471   7.068   2.124  0.3488 -0.1327  0.4501
 4722SOL    HW121471   8.553   7.012   2.109  0.8320  0.7154 -0.0977
 4722SOL    HW221472   8.481   7.155   2.075 -0.6198  0.2208  0.8838
 4723SOL     OW21473   6.604   8.652   2.035 -0.3124  0.2926  0.5131
 4723SOL    HW121474   6.526   8.607   2.080 -0.7105  0.0116 -0.4385
 4723SOL    HW221475   6.570   8.714   1.964  0.3486 -0.2820 -0.3167
 4725SOL     OW21476   9.322   9.221   2.410  0.6674  0.3445  0.4282
 4725SOL    HW121477   9.243   9.281   2.423 -0.1350 -0.7876  0.8342
 4725SOL    HW221478   9.317   9.145   2.475  2.3674  0.5376  0.8203
 4726SOL     OW21479   9.006   7.803   0.486  0.0655 -0.5347 -0.8098
 4726SOL    HW121480   8.906   7.802   0.493 -0.0386 -0.3300 -2.0634
 4726SOL    HW221481   9.045   7.744   0.557 -1.0456 -2.2001 -1.5347
 4727SOL     OW21482   4.134   4.049   0.289  0.0427  0.2710  0.1721
 4727SOL    HW121483   4.155   3.953   0.271  0.5528  0.3786  0.1894
 4727SOL    HW221484   4.218   4.098   0.312  0.1786  1.2383 -2.1950
 4730SOL     OW21485   0.966   9.711   2.299 -0.4747 -0.1467 -0.2878
 4730SOL    HW121486   0.891   9.743   2.357  1.3306 -1.0513  2.6399
 4730SOL    HW221487   1.011   9.790   2.257  0.2403  0.8083  2.1771
 4731SOL     OW21488   2.806   9.354   0.666  0.0614 -0.2320  0.0967
 4731SOL    HW121489   2.801   9.257   0.690 -1.1080 -0.2986 -0.3930
 4731SOL    HW221490   2.797   9.365   0.567  0.6003  0.3482  0.1104
 4732SOL     OW21491   1.660   2.226   0.033  0.2676 -0.5794  0.4117
 4732SOL    HW121492   1.747   2.200   0.077  0.2343  1.2283  1.6157
 4732SOL    HW221493   1.586   2.170   0.070  0.9466 -2.2836 -0.7821
 4735SOL     OW21494   8.187   7.373   2.173  0.3510 -0.0965  0.0796
 4735SOL    HW121495   8.123   7.401   2.245 -0.5421 -1.5868 -0.1237
 4735SOL    HW221496   8.147   7.299   2.119  1.0753  0.8782 -1.8573
 4736SOL     OW21497   3.083   0.582   2.300  0.3267 -0.3642  0.1972
 4736SOL    HW121498   3.061   0.622   2.211 -0.0495 -1.1426 -0.0695
 4736SOL    HW221499   3.150   0.508   2.286  1.8054  0.8315  0.7938
 4739SOL     OW21500   7.530   0.708   1.525  0.4631  0.1916  0.7589
 4739SOL    HW121501   7.487   0.748   1.606  1.7025  1.1103  0.9840
 4739SOL    HW221502   7.629   0.723   1.529  0.8150 -1.7513  0.1921
 4740SOL     OW21503   3.026   9.372   1.888  0.2601 -0.1242  0.1499
 4740SOL    HW121504   3.092   9.365   1.962  0.4484  1.6609  0.1786
 4740SOL    HW221505   3.020   9.467   1.858 -2.2221 -0.2759  0.0797
 4741SOL     OW21506   3.369   7.202   0.507  0.2573  0.1091 -0.0841
 4741SOL    HW121507   3.398   7.242   0.420  0.6837  0.5821  0.2729
 4741SOL    HW221508   3.300   7.261   0.550 -0.9670 -0.8151 -0.7452
 4742SOL     OW21509   1.926   7.732   0.512 -0.4612 -0.0764  0.7523
 4742SOL    HW121510   1.871   7.659   0.552 -1.6950 -1.2190 -2.8854
 4742SOL    HW221511   1.878   7.820   0.521 -1.3818 -0.5502  0.4462
 4743SOL     OW21512   3.537   2.176   0.399  0.3685  0.6339  0.1097
 4743SOL    HW121513   3.587   2.114   0.338 -0.5752  0.9927 -1.0524
 4743SOL    HW221514   3.547   2.270   0.367 -1.2263  0.6822 -0.2633
 4744SOL     OW21515   4.757   1.256   1.470 -0.5669 -0.2111 -0.5672
 4744SOL    HW121516   4.781   1.194   1.545 -2.2922 -0.0534  0.1241
 4744SOL    HW221517   4.792   1.219   1.384  1.6729 -0.2578  0.3346
 4745SOL     OW21518   2.040   1.065   1.625  0.2028 -0.2253  0.1112
 4745SOL    HW121519   2.038   1.120   1.542  0.1089 -1.9683 -1.0572
 4745SOL    HW221520   2.115   0.999   1.620 -0.2724 -0.8526  1.0823
 4746SOL     OW21521   1.913   0.306   1.978  0.0904 -0.4832  0.1658
 4746SOL    HW121522   1.867   0.291   2.066 -0.4247 -0.6447 -0.1292
 4746SOL    HW221523   1.861   0.261   1.906 -0.7180  1.5716 -0.5553
 4748SOL     OW21524   1.926   1.251   1.185  0.5071 -0.3117  0.3480
 4748SOL    HW121525   1.989   1.241   1.108 -0.4615 -0.6055 -0.4182
 4748SOL    HW221526   1.856   1.179   1.180  1.6822 -1.6828  2.7165
 4749SOL     OW21527   8.823   7.627   0.968  0.1598  0.3517  0.5850
 4749SOL    HW121528   8.776   7.715   0.976 -0.7512 -0.3240  3.5106
 4749SOL    HW221529   8.757   7.555   0.950  0.7915  0.1248 -0.8913
 4750SOL     OW21530   0.574   1.654   1.511 -0.5326 -0.7782 -0.2781
 4750SOL    HW121531   0.629   1.642   1.429  0.6774 -2.4481  0.7442
 4750SOL    HW221532   0.595   1.581   1.576 -2.5435 -0.3332  0.9260
 4751SOL     OW21533   9.520   5.974   2.487 -0.1108  0.0515 -0.3493
 4751SOL    HW121534   9.595   6.038   2.471 -0.7661  0.8977 -0.0716
 4751SOL    HW221535   9.513   5.954   2.585  1.5287 -2.2303 -0.6472
 4753SOL     OW21536   9.081   9.927   1.920 -0.5494 -0.1722  0.0991
 4753SOL    HW121537   9.082  10.023   1.894  0.9271 -0.2189 -0.0601
 4753SOL    HW221538   9.173   9.888   1.910 -0.7959 -1.2069  1.5906
 4754SOL     OW21539   2.976   9.671   0.965 -0.3992  0.3283  0.5922
 4754SOL    HW121540   2.920   9.665   0.883 -1.2039 -0.2256  1.1698
 4754SOL    HW221541   2.958   9.593   1.024  1.1071  0.0643  0.7244
 4755SOL     OW21542   2.441   7.562   2.279  0.6368  0.2578 -0.3900
 4755SOL    HW121543   2.447   7.594   2.185  2.7839  2.3990  0.4075
 4755SOL    HW221544   2.372   7.616   2.328  1.5893  1.1398 -0.0066
 4756SOL     OW21545   4.084   0.016   2.126 -0.2964 -0.4165 -0.3220
 4756SOL    HW121546   4.025  -0.059   2.096  0.1675 -0.6322 -0.6996
 4756SOL    HW221547   4.155   0.032   2.057  1.0665 -1.2251  0.8841
 4757SOL     OW21548   9.316   2.140   1.685  0.1999  0.3969 -0.4730
 4757SOL    HW121549   9.324   2.221   1.742  0.4080 -0.1914  0.3310
 4757SOL    HW221550   9.243   2.154   1.618  1.2171  1.8261 -1.3118
 4758SOL     OW21551   0.734   9.888   0.999  0.1250  0.4607  0.1506
 4758SOL    HW121552   0.789   9.962   0.961  1.3985 -0.9971 -0.8837
 4758SOL    HW221553   0.720   9.904   1.096  0.5504  1.9599 -0.0191
 4759SOL     OW21554   0.986   2.386   2.331  0.0323  0.2057 -0.6697
 4759SOL    HW121555   0.938   2.353   2.250 -0.7980  0.3954 -0.2618
 4759SOL    HW221556   1.083   2.396   2.310 -0.0320 -0.5830 -1.3790
 4760SOL     OW21557   3.388   0.597   0.099  0.4307 -0.5832  0.4007
 4760SOL    HW121558   3.323   0.549   0.040  0.3080  0.5071 -0.3711
 4760SOL    HW221559   3.401   0.545   0.184 -1.0897 -1.0546  0.3625
 4761SOL     OW21560   3.586   2.859   0.504 -0.4186 -0.1793 -0.1016
 4761SOL    HW121561   3.531   2.938   0.534 -0.6516 -0.2846 -0.2508
 4761SOL    HW221562   3.680   2.888   0.487 -0.0973 -0.2606  1.4571
 4762SOL     OW21563   0.076   9.095   0.102 -0.1624 -0.3273  0.6645
 4762SOL    HW121564   0.058   9.025   0.033 -0.0610 -0.9633  1.2759
 4762SOL    HW221565   0.121   9.174   0.059  2.7722 -2.0070  0.5360
 4763SOL     OW21566   1.495   0.037   1.130  0.2162 -0.3434  0.2189
 4763SOL    HW121567   1.408   0.084   1.144  0.2274 -0.4370  0.6156
 4763SOL    HW221568   1.547   0.083   1.058  1.0499  1.4220  1.9005
 4764SOL     OW21569   2.137   4.053   1.697 -0.0291 -0.1813  0.1595
 4764SOL    HW121570   2.131   4.105   1.782  1.2142 -1.5868  1.1434
 4764SOL    HW221571   2.045   4.027   1.668 -0.5440  1.2491  0.4661
 4765SOL     OW21572   0.456   5.700   1.481 -0.5906  0.5741 -0.0905
 4765SOL    HW121573   0.555   5.713   1.488 -0.3799 -1.2989  0.7205
 4765SOL    HW221574   0.420   5.759   1.410  0.7937  2.8438  1.0273
 4768SOL     OW21575   3.932   3.714   1.102 -0.0716  0.7242 -0.4609
 4768SOL    HW121576   3.988   3.636   1.073 -0.4232  0.1164  0.4727
 4768SOL    HW221577   3.981   3.799   1.084  1.1195  0.2017  0.2386
 4770SOL     OW21578   0.326   1.522   1.281 -0.1731 -0.0370 -0.0423
 4770SOL    HW121579   0.362   1.476   1.200  2.7789  0.6248  0.8247
 4770SOL    HW221580   0.319   1.620   1.263 -1.1332 -0.0994 -0.0414
 4772SOL     OW21581   4.325   9.322   0.535  0.1674  0.1164  0.1959
 4772SOL    HW121582   4.373   9.400   0.495  3.8910 -3.2249 -2.2950
 4772SOL    HW221583   4.367   9.298   0.622 -1.6838  1.4809  1.5015
 4775SOL     OW21584   8.175   8.689   0.331  0.3778 -0.4413 -0.9644
 4775SOL    HW121585   8.218   8.722   0.247  0.8166 -1.5384 -1.1836
 4775SOL    HW221586   8.148   8.767   0.388  1.5255  0.2880 -1.3960
 4777SOL     OW21587   8.816   2.694   2.626 -0.2829  0.1094  0.2095
 4777SOL    HW121588   8.726   2.684   2.670 -0.5249 -0.9717 -0.5249
 4777SOL    HW221589   8.841   2.791   2.624 -0.6664  0.2696  1.9373
 4778SOL     OW21590   7.499   8.979   1.802  0.0865 -0.0232  0.2600
 4778SOL    HW121591   7.444   9.036   1.741 -0.7760 -0.7031  0.4014
 4778SOL    HW221592   7.594   8.979   1.770  0.0615  1.3677  0.1785
 4779SOL     OW21593   8.039   2.056   1.129  0.0880  0.2094 -0.4857
 4779SOL    HW121594   8.096   2.038   1.049 -1.7041  0.1926 -1.7984
 4779SOL    HW221595   8.053   2.150   1.160  0.7160  0.2477 -0.8868
 4780SOL     OW21596   4.225   3.827   0.935  0.2393  0.5030 -0.0827
 4780SOL    HW121597   4.311   3.852   0.892 -0.1043 -1.3958 -1.9587
 4780SOL    HW221598   4.236   3.741   0.985 -0.5222  0.3320 -0.1981
 4781SOL     OW21599   1.936   9.433   1.690  0.2852  0.0445 -0.3279
 4781SOL    HW121600   1.905   9.489   1.766 -0.4742 -0.7167 -0.0647
 4781SOL    HW221601   1.956   9.491   1.611 -0.3182  0.6909 -0.0102
 4782SOL     OW21602   2.490   7.335   0.213 -0.6486  0.6778 -0.1894
 4782SOL    HW121603   2.499   7.433   0.198 -0.9417  0.9650  1.4641
 4782SOL    HW221604   2.437   7.318   0.296 -0.7960 -0.8819 -0.5798
 4783SOL     OW21605   0.078   6.081   2.035 -0.5584 -0.0317  0.2157
 4783SOL    HW121606  -0.015   6.115   2.025 -0.9502 -1.4375 -1.0787
 4783SOL    HW221607   0.076   5.982   2.049  0.7044  0.0266  0.8467
 4784SOL     OW21608   9.660   2.968   2.636  0.2834 -0.3214 -0.0291
 4784SOL    HW121609   9.716   2.945   2.557  0.1614 -0.5850 -0.0379
 4784SOL    HW221610   9.715   2.961   2.719  0.5655  0.4908 -0.1396
 4785SOL     OW21611   1.241   2.810   1.490 -0.0359  0.1324 -0.2996
 4785SOL    HW121612   1.277   2.831   1.581  1.4110 -0.5187 -0.6956
 4785SOL    HW221613   1.317   2.807   1.424 -0.9019 -0.6137 -1.2919
 4786SOL     OW21614   0.807   3.462   0.979  0.0428  0.1880  0.0363
 4786SOL    HW121615   0.831   3.543   1.031  0.9915 -0.5534  0.7836
 4786SOL    HW221616   0.732   3.413   1.024 -0.6962  0.7769 -0.5481
 4787SOL     OW21617   0.538   4.706   2.003  0.7323  0.3669 -0.0479
 4787SOL    HW121618   0.544   4.801   2.032  1.6318  0.0126  0.9808
 4787SOL    HW221619   0.502   4.651   2.079  0.7790 -0.2025 -0.4381
 4788SOL     OW21620   3.635   3.627   0.119  0.1456  0.0811 -0.2754
 4788SOL    HW121621   3.665   3.603   0.027 -0.2977  2.0841 -0.9567
 4788SOL    HW221622   3.539   3.653   0.118  0.0702 -0.1063  0.7988
 4789SOL     OW21623   2.356   1.495   2.512 -0.0893 -0.2300 -0.7434
 4789SOL    HW121624   2.302   1.421   2.470  0.5231  0.0936 -2.1285
 4789SOL    HW221625   2.297   1.574   2.526 -0.7299 -0.9425  0.6662
 4790SOL     OW21626   1.566   7.519   1.627  0.0222  0.1520 -0.4201
 4790SOL    HW121627   1.495   7.514   1.557  0.2717  2.0829 -0.8335
 4790SOL    HW221628   1.651   7.550   1.586  0.6507 -0.4672  0.4006
 4791SOL     OW21629   1.242   1.045   1.632 -0.1370  0.0057  0.2400
 4791SOL    HW121630   1.338   1.017   1.627  0.3328  1.4798  0.7068
 4791SOL    HW221631   1.228   1.103   1.712 -1.6876 -1.1754  0.8369
 4793SOL     OW21632   8.085   1.464   1.263  0.3496 -0.0806  0.2769
 4793SOL    HW121633   8.050   1.418   1.181 -1.7387  1.7479  0.0992
 4793SOL    HW221634   8.021   1.449   1.338  2.4209 -2.0366  1.7288
 4794SOL     OW21635   0.468   7.452   1.737 -0.5475 -0.1986 -0.8274
 4794SOL    HW121636   0.565   7.430   1.743  0.3575  3.3906 -1.4022
 4794SOL    HW221637   0.455   7.551   1.744 -4.1746 -0.5987 -0.7551
 4795SOL     OW21638   0.950   4.682   2.231 -0.1326  0.6900 -0.0405
 4795SOL    HW121639   0.921   4.744   2.158  1.2193  1.4944  0.0849
 4795SOL    HW221640   0.911   4.592   2.215 -0.6168  1.0987 -1.2457
 4796SOL     OW21641   4.823   2.296   1.510  0.2836 -0.3146  0.1153
 4796SOL    HW121642   4.890   2.231   1.473  0.6856 -0.3832  0.9765
 4796SOL    HW221643   4.744   2.246   1.545 -0.6443 -0.1901 -1.7334
 4797SOL     OW21644   2.916   7.643   1.794 -0.7226 -0.0032 -0.1354
 4797SOL    HW121645   2.907   7.549   1.825  0.4303  0.3438  1.2850
 4797SOL    HW221646   2.903   7.706   1.870 -1.8451  1.0134 -1.1435
 4798SOL     OW21647   9.399   7.027   0.901 -0.1368 -0.4047 -0.2707
 4798SOL    HW121648   9.490   6.996   0.873 -0.0287 -0.8138  0.5260
 4798SOL    HW221649   9.387   7.123   0.874  0.3168 -0.5073 -0.8618
 4799SOL     OW21650   3.300   6.058   2.375  0.4871  0.4721 -0.3464
 4799SOL    HW121651   3.375   6.121   2.393  1.0374 -0.3016  0.0689
 4799SOL    HW221652   3.237   6.100   2.310 -1.0840  2.9941  2.6196
 4801SOL     OW21653   9.924   7.686   1.298 -0.1044  0.7598 -0.4414
 4801SOL    HW121654   9.835   7.645   1.315 -0.4808  1.8220  0.1880
 4801SOL    HW221655   9.986   7.667   1.374  0.5045 -0.7595 -1.2946
 4802SOL     OW21656   3.568   0.993   2.575  0.1439  0.2398  0.2622
 4802SOL    HW121657   3.569   0.897   2.604 -0.2860  0.1182 -0.1267
 4802SOL    HW221658   3.494   1.007   2.509  0.2060  0.8402  0.3228
 4804SOL     OW21659   1.812   0.350   0.016  0.0458 -0.5816  0.1396
 4804SOL    HW121660   1.887   0.416   0.013 -0.4271 -0.0128  0.6664
 4804SOL    HW221661   1.754   0.363  -0.064 -1.9733  1.9622  1.9337
 4805SOL     OW21662   3.607   3.410   1.476  0.4669 -0.8196  0.0760
 4805SOL    HW121663   3.565   3.356   1.403  0.8481  1.0461 -1.5775
 4805SOL    HW221664   3.567   3.502   1.477  1.5419 -0.3485  1.2329
 4806SOL     OW21665   3.222   1.813   1.719  0.0689  0.4263 -0.0898
 4806SOL    HW121666   3.214   1.886   1.787 -1.9438  0.0431  0.1198
 4806SOL    HW221667   3.203   1.849   1.628  0.3312  0.4288 -0.1438
 4807SOL     OW21668   0.514   9.597   1.095 -0.6104  0.0091  0.0029
 4807SOL    HW121669   0.590   9.566   1.153 -0.5174 -0.5157 -0.3949
 4807SOL    HW221670   0.524   9.694   1.075 -0.5788  0.1685  0.7740
 4808SOL     OW21671   2.893   5.647   2.035  0.0645 -0.0779  0.1162
 4808SOL    HW121672   2.863   5.742   2.041  0.0543 -0.0768  0.0404
 4808SOL    HW221673   2.930   5.629   1.944 -3.0526 -1.0776 -1.0002
 4809SOL     OW21674   7.619   9.182   2.411  0.2149 -0.1716 -0.4702
 4809SOL    HW121675   7.556   9.208   2.485  1.1781 -0.1517  0.3541
 4809SOL    HW221676   7.601   9.239   2.331 -0.5683  0.0875 -0.1183
 4811SOL     OW21677   7.670   9.880   1.583  0.1341  0.0735  0.1966
 4811SOL    HW121678   7.751   9.937   1.593  1.6440 -2.1554  1.0860
 4811SOL    HW221679   7.645   9.874   1.486  1.7514 -0.1404 -0.2185
 4812SOL     OW21680   0.287   0.361   0.537  0.2592  0.2888 -1.0022
 4812SOL    HW121681   0.206   0.312   0.504  0.4575 -1.3055  0.7842
 4812SOL    HW221682   0.359   0.295   0.559  0.3674  1.3244  1.9550
 4813SOL     OW21683   4.838   3.031   1.852 -0.1925 -0.0430 -0.0425
 4813SOL    HW121684   4.884   3.012   1.765 -0.7483  0.8026 -0.5234
 4813SOL    HW221685   4.796   2.947   1.886 -0.2989 -0.2932 -0.7754
 4814SOL     OW21686   9.204   5.717   0.763  0.3351 -1.0697  0.0670
 4814SOL    HW121687   9.275   5.756   0.706 -0.6726 -1.6266 -1.5908
 4814SOL    HW221688   9.240   5.638   0.813  0.4125 -2.4435 -2.1286
 4816SOL     OW21689   1.369   8.090   0.366 -0.3426 -0.6477 -0.5694
 4816SOL    HW121690   1.303   8.034   0.315 -0.8907 -1.5053  1.0655
 4816SOL    HW221691   1.363   8.069   0.463  0.4531  1.2358 -0.0937
 4817SOL     OW21692   1.308   5.298   0.701 -0.5402  0.2632  0.1258
 4817SOL    HW121693   1.389   5.290   0.759 -0.5919 -1.1522  0.0278
 4817SOL    HW221694   1.336   5.292   0.605 -0.7931 -0.6167  0.1025
 4818SOL     OW21695   0.206   4.549   0.213  0.4174  0.3921  0.5407
 4818SOL    HW121696   0.205   4.454   0.183 -3.5050 -0.2024  2.2164
 4818SOL    HW221697   0.156   4.605   0.147  1.1245  0.9768  0.4949
 4820SOL     OW21698   4.441   2.193   0.874  0.2107  0.3823 -0.2392
 4820SOL    HW121699   4.352   2.148   0.874  0.4313 -0.0592 -0.5657
 4820SOL    HW221700   4.445   2.261   0.800 -0.8643  2.4420  1.5306
 4821SOL     OW21701   0.012   7.470   2.073 -0.1305  0.0830  0.1210
 4821SOL    HW121702  -0.065   7.407   2.060 -0.6792  0.7523  0.1452
 4821SOL    HW221703   0.084   7.448   2.008 -0.5442 -0.2300 -0.2335
 4823SOL     OW21704   2.467   0.253   2.478 -0.1892  0.2791  0.2214
 4823SOL    HW121705   2.392   0.260   2.545  0.4974 -0.0271  1.0383
 4823SOL    HW221706   2.547   0.301   2.513 -0.3419  1.5412 -1.1491
 4824SOL     OW21707   9.596   7.972   0.163 -0.2363  0.4847  0.5255
 4824SOL    HW121708   9.598   7.886   0.110  0.9070  1.5132 -1.1403
 4824SOL    HW221709   9.502   8.006   0.166 -0.2661  0.6169 -1.2370
 4825SOL     OW21710   8.629   5.790   0.146  0.3017 -0.0330  0.4860
 4825SOL    HW121711   8.533   5.774   0.171  0.6093  0.0767  1.7722
 4825SOL    HW221712   8.660   5.875   0.188  0.8562  0.1316 -0.2477
 4826SOL     OW21713   3.726   0.400   2.427 -0.7244 -0.2877 -0.1265
 4826SOL    HW121714   3.741   0.370   2.333  0.6365  1.7010 -0.5870
 4826SOL    HW221715   3.730   0.322   2.488  0.4779 -1.3380 -1.5012
 4827SOL     OW21716   2.436   8.616   2.290  0.6734 -0.4712  0.0275
 4827SOL    HW121717   2.447   8.660   2.380  0.4329 -0.7538  0.1940
 4827SOL    HW221718   2.454   8.684   2.219 -0.2417  0.0526  0.2822
 4828SOL     OW21719   9.187   5.341   2.416 -0.3426 -0.2477  0.3144
 4828SOL    HW121720   9.260   5.293   2.464 -2.9519 -1.8339  2.8451
 4828SOL    HW221721   9.177   5.433   2.454  0.3952 -0.0081 -0.0798
 4830SOL     OW21722   4.932   1.432   1.956 -0.3571  0.3132 -0.5521
 4830SOL    HW121723   4.891   1.438   1.865 -2.2297  1.7844  0.3664
 4830SOL    HW221724   4.886   1.359   2.007 -1.5176  1.6315  0.3061
 4831SOL     OW21725   3.325   9.669   1.926 -0.0216 -0.5947  0.5359
 4831SOL    HW121726   3.332   9.644   2.022 -1.3421 -0.8565  0.5770
 4831SOL    HW221727   3.349   9.590   1.869 -0.5919 -0.8668  0.6630
 4832SOL     OW21728   2.220   1.156   0.954 -0.4207  0.3375  0.4079
 4832SOL    HW121729   2.199   1.174   0.858 -1.0737  0.4696  0.5754
 4832SOL    HW221730   2.309   1.109   0.960 -0.0267  0.9870 -0.2031
 4833SOL     OW21731   4.142   4.745   0.544  0.1929 -0.2100 -0.2921
 4833SOL    HW121732   4.150   4.703   0.454  0.8640  1.6322 -1.1138
 4833SOL    HW221733   4.058   4.800   0.548  0.5525  0.3333 -0.0671
 4834SOL     OW21734   9.248   6.204   2.025  0.1282 -0.6456  0.0441
 4834SOL    HW121735   9.178   6.171   1.962  0.7274 -0.2081 -0.8774
 4834SOL    HW221736   9.220   6.187   2.119 -0.6702 -1.5419 -0.3500
 4837SOL     OW21737   4.443   8.994   0.371 -0.8569  0.4531  0.7906
 4837SOL    HW121738   4.395   8.941   0.441 -2.1599  0.0161 -0.4019
 4837SOL    HW221739   4.538   9.010   0.399 -0.9079 -1.1429  1.8811
 4838SOL     OW21740   9.465   8.218   1.926 -0.0107 -0.1497  0.3004
 4838SOL    HW121741   9.560   8.244   1.941 -0.1664  0.1480  0.7814
 4838SOL    HW221742   9.422   8.283   1.864  0.0064 -0.0961  0.3455
 4839SOL     OW21743   8.836   1.257   0.755  0.3234 -0.2777 -0.1950
 4839SOL    HW121744   8.877   1.288   0.841 -0.1577  0.8177 -0.3531
 4839SOL    HW221745   8.843   1.330   0.687  3.0265 -2.0332 -1.8814
 4841SOL     OW21746   3.927   2.261   0.956  0.1799 -0.7785 -0.3088
 4841SOL    HW121747   3.835   2.223   0.950 -0.4106  0.4717  0.6533
 4841SOL    HW221748   3.930   2.348   0.906  0.4519 -0.1054  0.8695
 4842SOL     OW21749   8.968   8.636   0.292 -0.2446  0.6450 -0.1702
 4842SOL    HW121750   8.970   8.657   0.390  1.3471  0.4240 -0.1385
 4842SOL    HW221751   9.019   8.552   0.275 -0.8426  0.4787 -1.1395
 4846SOL     OW21752   8.197   2.175   1.408  0.5155  0.0555  0.0444
 4846SOL    HW121753   8.255   2.100   1.377 -1.0023 -0.5763 -1.2728
 4846SOL    HW221754   8.171   2.233   1.331  1.5611  1.8898  1.0182
 4847SOL     OW21755   8.426   6.332   0.804 -0.6315 -0.0632 -0.4501
 4847SOL    HW121756   8.450   6.358   0.897 -0.4425 -0.5334 -0.3698
 4847SOL    HW221757   8.339   6.374   0.779 -1.5512 -1.3670  0.5408
 4848SOL     OW21758   9.271   7.044   0.439  0.2404 -0.2324 -0.3322
 4848SOL    HW121759   9.198   7.087   0.386  1.9391  3.7178  0.4067
 4848SOL    HW221760   9.242   7.037   0.535 -0.3833 -1.6963 -0.6016
 4849SOL     OW21761   9.887   3.368   2.459  0.5621  0.1021  0.1206
 4849SOL    HW121762   9.909   3.465   2.470 -2.1406  0.8365 -0.5352
 4849SOL    HW221763   9.864   3.329   2.548 -2.5033  1.1941 -0.1174
 4850SOL     OW21764   3.621   5.446   0.926  0.1574  0.0664  0.2312
 4850SOL    HW121765   3.593   5.491   0.842 -0.9870  0.5721  0.8651
 4850SOL    HW221766   3.548   5.455   0.994  0.2162 -2.1023  0.6157
 4851SOL     OW21767   0.643   4.277   2.670 -0.3043 -0.3299  0.3327
 4851SOL    HW121768   0.634   4.230   2.583 -2.1675  2.2353 -0.9360
 4851SOL    HW221769   0.573   4.243   2.734  1.3422 -2.5215  1.0429
 4852SOL     OW21770   4.011   4.155   0.561  0.1911  0.0849 -0.0071
 4852SOL    HW121771   3.920   4.182   0.528  0.1454 -0.5436 -0.3973
 4852SOL    HW221772   4.066   4.124   0.484  1.3035  2.0106 -0.0232
 4853SOL     OW21773   1.466   4.650   1.563 -0.0972  0.1255  0.3424
 4853SOL    HW121774   1.544   4.689   1.514 -0.0527  0.9490  1.0526
 4853SOL    HW221775   1.478   4.667   1.661 -0.1881 -1.4900  0.6360
 4854SOL     OW21776   2.084   6.354   1.551 -0.3217  0.0318 -0.0578
 4854SOL    HW121777   2.095   6.270   1.498 -0.2258  0.5073 -0.8165
 4854SOL    HW221778   1.991   6.388   1.541  0.0002  0.7094 -0.8273
 4855SOL     OW21779   1.733   4.809   0.235 -0.3532 -0.1556 -0.0874
 4855SOL    HW121780   1.763   4.897   0.274 -0.8481  0.7202 -1.6337
 4855SOL    HW221781   1.680   4.759   0.302 -1.0348  1.2457  0.4369
 4857SOL     OW21782   8.797   6.455   1.815  0.1437  0.0554 -0.0559
 4857SOL    HW121783   8.867   6.428   1.881  0.7137  0.3249 -0.5441
 4857SOL    HW221784   8.822   6.542   1.773 -0.0147 -0.3114 -0.9238
 4858SOL     OW21785   0.927   4.053   2.505  0.0639  0.3745  0.3265
 4858SOL    HW121786   0.979   3.973   2.474  0.4572  0.1545  1.5201
 4858SOL    HW221787   0.841   4.022   2.546 -0.4263  0.6602 -0.4735
 4859SOL     OW21788   0.375   9.190   0.595 -0.0908 -0.2573 -0.5570
 4859SOL    HW121789   0.325   9.127   0.536 -0.9026  0.0790 -0.2374
 4859SOL    HW221790   0.315   9.266   0.621 -0.5163 -1.5539  2.5046
 4860SOL     OW21791   1.109   1.364   1.039 -0.0202  0.1370  0.1572
 4860SOL    HW121792   1.141   1.409   0.955 -0.4267  0.3907  0.1402
 4860SOL    HW221793   1.184   1.362   1.105 -0.2188  1.5036  0.4338
 4861SOL     OW21794   4.454   2.014   1.299 -0.3431 -0.0051  0.0159
 4861SOL    HW121795   4.368   1.975   1.332 -0.8674  0.6924 -0.5001
 4861SOL    HW221796   4.445   2.034   1.201  0.7369 -0.8298 -0.2502
 4862SOL     OW21797   1.569   6.788   0.250 -0.5569 -0.0329 -0.0615
 4862SOL    HW121798   1.505   6.716   0.280  0.6148 -0.3248  1.7875
 4862SOL    HW221799   1.654   6.745   0.220 -0.1047  0.5389  0.4058
 4864SOL     OW21800   3.071   2.454   1.818 -0.1051 -0.3768  0.1531
 4864SOL    HW121801   3.050   2.389   1.891 -1.6263  0.1071  0.1688
 4864SOL    HW221802   3.129   2.528   1.854  0.3337 -0.8907  0.5071
 4865SOL     OW21803   3.821   3.598   1.889  0.0867  0.5757  0.3558
 4865SOL    HW121804   3.842   3.505   1.857  1.8308  1.2175 -0.4231
 4865SOL    HW221805   3.748   3.594   1.958  0.2978 -1.3919  0.4891
 4866SOL     OW21806   9.653   1.708   2.579  0.2197  0.0985 -0.1014
 4866SOL    HW121807   9.618   1.790   2.534 -0.7529  0.8726  2.0086
 4866SOL    HW221808   9.677   1.729   2.674  1.3670 -1.7070  0.0316
 4867SOL     OW21809   2.880   3.221   1.777 -0.2542 -0.1359 -0.5005
 4867SOL    HW121810   2.848   3.253   1.688  0.2133 -0.6702 -0.8652
 4867SOL    HW221811   2.808   3.235   1.845 -0.3376  0.9708 -0.8063
 4868SOL     OW21812   1.070   3.839   0.615 -0.7725  0.2521 -0.4155
 4868SOL    HW121813   0.997   3.773   0.629  0.6544 -1.2238  0.3493
 4868SOL    HW221814   1.157   3.790   0.607  0.1597  1.9773 -1.0526
 4869SOL     OW21815   3.087   1.114   1.690 -0.2323  0.0333  0.4799
 4869SOL    HW121816   3.155   1.186   1.703 -0.7531  1.1436 -2.5071
 4869SOL    HW221817   3.003   1.154   1.654 -0.9606 -1.8917  0.0109
 4870SOL     OW21818   2.513   9.253   1.926  0.0816 -0.1726 -0.3113
 4870SOL    HW121819   2.567   9.269   1.844 -1.6238  1.9799 -1.0323
 4870SOL    HW221820   2.440   9.188   1.906 -0.9170  1.0736 -0.7685
 4871SOL     OW21821   8.552   2.447   0.059 -0.1082 -0.7676 -0.0291
 4871SOL    HW121822   8.488   2.389   0.108 -0.6548 -1.5719 -1.6582
 4871SOL    HW221823   8.532   2.443  -0.039  3.3739 -2.2510 -0.7579
 4872SOL     OW21824   3.056   0.556   1.186 -0.0546  0.2809 -0.3895
 4872SOL    HW121825   2.972   0.526   1.231  1.2150 -2.2116  0.4446
 4872SOL    HW221826   3.099   0.477   1.142  2.1951  1.3632 -0.1879
 4873SOL     OW21827   8.310   7.851   0.798  0.3484  0.3076 -0.1500
 4873SOL    HW121828   8.260   7.786   0.856  0.1228  0.9434  0.3816
 4873SOL    HW221829   8.300   7.826   0.702 -1.3052  0.6298 -0.0705
 4874SOL     OW21830   0.320   8.261   1.706 -0.0132  0.0748  0.1206
 4874SOL    HW121831   0.303   8.341   1.649  0.0259 -0.4856 -0.6950
 4874SOL    HW221832   0.418   8.247   1.716 -0.0185 -0.2399 -0.2661
 4875SOL     OW21833   9.269   0.870   2.328  0.8166  0.4596  0.0275
 4875SOL    HW121834   9.179   0.906   2.304  1.3827  1.3170 -0.8719
 4875SOL    HW221835   9.294   0.902   2.420  0.5086  0.8253 -0.0123
 4876SOL     OW21836   7.887   1.421   1.467 -0.0306  0.3126  0.3697
 4876SOL    HW121837   7.817   1.479   1.510 -1.1722 -1.1628  0.5449
 4876SOL    HW221838   7.924   1.358   1.535 -1.2861 -1.4951 -0.5824
 4877SOL     OW21839   0.157   9.201   0.901 -0.6207 -0.1956  0.3417
 4877SOL    HW121840   0.066   9.240   0.911 -0.5280 -0.0956  0.8428
 4877SOL    HW221841   0.174   9.178   0.805 -0.8015  0.7019  0.0903
 4879SOL     OW21842   9.013   8.417   1.309 -0.2955 -0.1906  0.4844
 4879SOL    HW121843   8.996   8.474   1.229  2.6416 -0.8601 -0.6473
 4879SOL    HW221844   9.058   8.472   1.380  0.6075 -0.5663  0.2031
 4880SOL     OW21845   8.793   8.248   1.335 -0.7282 -0.3363 -0.2915
 4880SOL    HW121846   8.857   8.320   1.361 -1.9342  0.1436  1.4061
 4880SOL    HW221847   8.823   8.161   1.373 -0.1879 -0.4276 -0.9136
 4882SOL     OW21848   4.396   7.917   2.531  0.0110 -0.3955 -0.3566
 4882SOL    HW121849   4.453   7.999   2.532 -1.7794  0.8768  1.1698
 4882SOL    HW221850   4.326   7.926   2.461 -0.3993 -0.4521  0.0404
 4883SOL     OW21851   1.596   5.060   1.239  0.2032  0.3643  0.2418
 4883SOL    HW121852   1.643   4.978   1.207  0.2604  1.0663 -1.5195
 4883SOL    HW221853   1.624   5.080   1.333  1.0729 -0.9718  0.2753
 4885SOL     OW21854   9.226   4.876   2.473 -0.0710  0.2755 -0.2876
 4885SOL    HW121855   9.150   4.812   2.461  0.6487 -0.5521 -0.4277
 4885SOL    HW221856   9.244   4.923   2.387  0.3571 -0.4083 -0.5774
 4886SOL     OW21857   4.521   3.014   1.243 -0.0213 -0.1055  0.0026
 4886SOL    HW121858   4.543   2.946   1.173 -0.7813 -1.9151  1.4786
 4886SOL    HW221859   4.425   3.006   1.268  0.2769  0.4039  1.3550
 4887SOL     OW21860   0.359   6.002   0.477  0.1854 -0.2536 -0.5966
 4887SOL    HW121861   0.345   5.904   0.460 -0.8518 -0.4841  1.4018
 4887SOL    HW221862   0.444   6.015   0.529 -0.2450 -0.2034  0.1001
 4888SOL     OW21863   0.324   7.828   0.980 -0.4086  0.5167  0.3507
 4888SOL    HW121864   0.271   7.897   1.030 -1.0787 -0.1241  0.5360
 4888SOL    HW221865   0.282   7.811   0.891 -0.1661  0.4399  0.2483
 4894SOL     OW21866   0.375   4.423   1.371  0.3678 -0.0707 -0.3150
 4894SOL    HW121867   0.359   4.355   1.300 -0.5911 -0.6952  0.4956
 4894SOL    HW221868   0.474   4.435   1.383  0.5372 -0.5085 -1.2254
 4895SOL     OW21869   3.278   3.683   0.950  0.7687 -0.4441  0.1014
 4895SOL    HW121870   3.324   3.771   0.943 -1.6155  0.9363  1.3558
 4895SOL    HW221871   3.251   3.652   0.859  2.7282 -0.5226 -0.4780
 4896SOL     OW21872   2.428   5.851   0.013 -0.3046 -0.3246 -0.3428
 4896SOL    HW121873   2.404   5.790   0.089  0.7911  2.7055  2.5611
 4896SOL    HW221874   2.516   5.824  -0.025 -0.2504 -1.0826  0.3087
 4897SOL     OW21875   0.091   4.857   0.790 -0.0870 -0.2737 -0.0105
 4897SOL    HW121876   0.039   4.840   0.874 -1.4026 -0.2883 -0.8187
 4897SOL    HW221877   0.173   4.800   0.790 -0.7062 -1.1836  0.7034
 4898SOL     OW21878   2.188   4.958   2.283 -1.0572 -0.3117 -0.3733
 4898SOL    HW121879   2.155   5.040   2.237 -2.2587 -1.1636 -1.0664
 4898SOL    HW221880   2.143   4.949   2.372  0.5557  0.8262  0.5790
 4900SOL     OW21881   1.763   7.556   0.646 -0.1751  0.2753 -0.6482
 4900SOL    HW121882   1.805   7.468   0.668  0.7740  0.3001 -2.2490
 4900SOL    HW221883   1.664   7.549   0.656  0.0389 -0.3981  1.1335
 4901SOL     OW21884   9.763   0.870   0.937 -0.4819  0.6251 -0.1013
 4901SOL    HW121885   9.664   0.881   0.946 -0.7793  0.8124 -3.0982
 4901SOL    HW221886   9.808   0.959   0.950 -0.6656  0.4790  1.5873
 4903SOL     OW21887   0.974   9.028   0.969  0.4441 -0.1217  0.1961
 4903SOL    HW121888   0.974   9.076   0.881 -3.1917  1.0739  0.7697
 4903SOL    HW221889   0.984   9.094   1.043 -0.0019 -0.7454  0.8208
 4904SOL     OW21890   8.394   9.649   1.309  0.1482 -0.3988  0.1818
 4904SOL    HW121891   8.413   9.685   1.400  1.4931 -1.4307  0.3241
 4904SOL    HW221892   8.447   9.698   1.241 -0.9050  0.4146 -0.0700
 4905SOL     OW21893   1.730   2.243   0.674  0.2785 -0.0236 -0.2212
 4905SOL    HW121894   1.714   2.232   0.576 -0.0683  0.4098 -0.2174
 4905SOL    HW221895   1.642   2.246   0.722  0.2952  2.9413 -0.2628
 4907SOL     OW21896   8.507   5.714   0.669  0.0616 -0.0707  0.0779
 4907SOL    HW121897   8.442   5.739   0.598 -1.4595 -0.4904  1.2818
 4907SOL    HW221898   8.571   5.789   0.684 -0.8627  0.8200 -0.3416
 4908SOL     OW21899   1.139   1.592   1.507  0.1610  0.0468 -0.1347
 4908SOL    HW121900   1.043   1.572   1.487 -0.6245  4.0798 -0.8813
 4908SOL    HW221901   1.174   1.527   1.575 -4.0557  0.3937  2.5613
 4909SOL     OW21902   2.460   0.506   1.954  0.0384 -0.8441 -0.4219
 4909SOL    HW121903   2.483   0.420   1.999  0.7597 -0.0718  0.7177
 4909SOL    HW221904   2.465   0.581   2.021 -0.4142  0.1033 -1.4317
 4910SOL     OW21905   2.201   0.091   0.928  0.4037 -0.1152 -0.2811
 4910SOL    HW121906   2.151   0.031   0.990  0.8336 -0.1471  0.0372
 4910SOL    HW221907   2.180   0.067   0.833  1.3557 -1.4406 -0.1714
 4911SOL     OW21908   0.577   0.671   0.946  0.7023  0.1757  0.0436
 4911SOL    HW121909   0.590   0.677   0.847  0.6106 -0.6508 -0.0231
 4911SOL    HW221910   0.507   0.602   0.966 -0.8042  1.8242  0.5927
 4912SOL     OW21911   0.456   5.451   2.576  0.6340  0.4632  0.0068
 4912SOL    HW121912   0.398   5.526   2.543  1.9122  1.3610 -0.2569
 4912SOL    HW221913   0.500   5.407   2.498 -0.0446 -0.5089  0.1708
 4913SOL     OW21914   9.258   1.871   1.745 -0.5515  0.7815  0.1616
 4913SOL    HW121915   9.264   1.824   1.657 -1.6185 -0.4265  0.7134
 4913SOL    HW221916   9.268   1.969   1.731 -1.2269  0.6492 -1.3897
 4914SOL     OW21917   1.341   2.177   2.444  0.5623  0.3793  0.4304
 4914SOL    HW121918   1.365   2.128   2.527  0.5955 -0.1437  0.1128
 4914SOL    HW221919   1.377   2.128   2.364 -1.3713 -0.3190 -0.0371
 4916SOL     OW21920   0.176   3.660   2.266 -0.3926 -0.0712 -0.1357
 4916SOL    HW121921   0.230   3.633   2.187  1.5486  0.9131  0.8265
 4916SOL    HW221922   0.123   3.742   2.243 -1.7582 -1.2185 -1.1747
 4917SOL     OW21923   3.574   8.042   2.291 -0.8114 -0.0460  0.5224
 4917SOL    HW121924   3.558   8.070   2.196 -0.5512 -0.0155  0.4856
 4917SOL    HW221925   3.634   7.962   2.293 -1.0573 -0.2278  0.6511
 4918SOL     OW21926   0.844   0.620   0.474 -0.1569  0.0116  0.1326
 4918SOL    HW121927   0.750   0.622   0.440 -0.1701 -1.0385  0.0931
 4918SOL    HW221928   0.844   0.628   0.574 -0.2766  0.2512  0.1125
 4919SOL     OW21929   8.834   5.580   0.348 -0.1654 -0.3994 -0.0210
 4919SOL    HW121930   8.790   5.637   0.279  1.2673  0.8007  0.0289
 4919SOL    HW221931   8.784   5.587   0.434 -0.1299  0.6347 -0.0734
 4921SOL     OW21932   8.829   4.037   1.075  0.1758 -0.0172 -0.2985
 4921SOL    HW121933   8.816   4.039   0.976  1.1649  1.2570 -0.4329
 4921SOL    HW221934   8.895   3.966   1.099 -0.7197 -0.9017 -0.4626
 4922SOL     OW21935   8.490   9.104   0.336 -0.5398 -0.0267  0.1193
 4922SOL    HW121936   8.500   9.054   0.250  0.8063  0.0236  0.2220
 4922SOL    HW221937   8.467   9.199   0.316 -0.6442 -0.1124 -0.1765
 4924SOL     OW21938   8.317   8.462   0.325  0.4483  0.1673 -0.5580
 4924SOL    HW121939   8.313   8.432   0.230  1.6189  2.3331 -1.3304
 4924SOL    HW221940   8.246   8.531   0.340 -1.6749 -2.2522  0.9699
 4925SOL     OW21941   1.849   0.590   2.174  0.0269 -0.0904 -0.1813
 4925SOL    HW121942   1.859   0.495   2.144 -0.0674 -0.1822  0.0806
 4925SOL    HW221943   1.879   0.651   2.101 -1.3781 -0.2828 -0.9453
 4927SOL     OW21944   4.031   7.843   2.168 -0.5437 -0.8250  0.4237
 4927SOL    HW121945   3.937   7.824   2.137 -1.2498  0.8601  1.5147
 4927SOL    HW221946   4.085   7.877   2.091 -1.3833  0.1369  0.2568
 4928SOL     OW21947   0.589   5.444   1.367 -0.0908  0.5286 -0.6625
 4928SOL    HW121948   0.552   5.534   1.389  0.0044  0.8558 -1.8399
 4928SOL    HW221949   0.572   5.382   1.444 -0.6696  1.3871 -0.0850
 4929SOL     OW21950   9.831   2.657   2.477  0.3386 -0.2568 -0.0183
 4929SOL    HW121951   9.746   2.629   2.523 -0.3043  2.6317  0.6529
 4929SOL    HW221952   9.828   2.756   2.459  2.4725 -0.5625 -2.3336
 4930SOL     OW21953   9.486   5.265   0.837 -0.3305 -0.0266 -0.1495
 4930SOL    HW121954   9.438   5.181   0.864  1.0306 -1.1627 -1.2146
 4930SOL    HW221955   9.555   5.244   0.769  1.7403  1.5798  1.3856
 4931SOL     OW21956   0.453   8.561   0.821  0.5458  0.4120 -0.5338
 4931SOL    HW121957   0.400   8.584   0.902  2.4706  1.1917  0.5401
 4931SOL    HW221958   0.455   8.639   0.759 -1.2330 -0.3066 -1.5437
 4932SOL     OW21959   3.073   9.047   1.485 -0.5413  0.2602 -0.8144
 4932SOL    HW121960   3.065   8.950   1.458  1.8462 -0.0596 -0.4835
 4932SOL    HW221961   3.054   9.056   1.583  2.0993 -0.3580 -0.2084
 4933SOL     OW21962   4.270   8.052   0.896  0.1573 -0.1108 -0.3950
 4933SOL    HW121963   4.336   8.019   0.829 -0.0829  0.2924 -0.8305
 4933SOL    HW221964   4.314   8.061   0.985  0.5901 -0.2215 -0.5976
 4934SOL     OW21965   2.933   5.054   1.009  0.4592  0.3547 -0.4964
 4934SOL    HW121966   2.899   4.976   0.956  0.7213 -1.2780  1.6270
 4934SOL    HW221967   3.033   5.053   1.009  0.4642 -0.1381  0.6586
 4935SOL     OW21968   9.590   4.964   0.350  0.0226 -0.2845  0.0837
 4935SOL    HW121969   9.689   4.957   0.347 -0.0898 -1.2347 -1.6136
 4935SOL    HW221970   9.549   4.874   0.339 -1.0506  0.3267 -1.1235
 4936SOL     OW21971   4.521   4.419   2.509 -0.2680  0.2037  0.0478
 4936SOL    HW121972   4.559   4.504   2.544  0.7511 -0.7839  1.4093
 4936SOL    HW221973   4.595   4.354   2.491 -1.2107 -1.5529  2.2121
 4937SOL     OW21974   2.346   3.211   1.916  0.0241  0.4410  0.9120
 4937SOL    HW121975   2.322   3.154   1.838 -0.0890 -0.1082  1.3417
 4937SOL    HW221976   2.273   3.277   1.933 -0.3826 -0.0513  1.1177
 4938SOL     OW21977   8.222   8.965   1.336  0.2889  0.0940  0.1129
 4938SOL    HW121978   8.216   9.056   1.376 -0.2894 -0.3484  1.0447
 4938SOL    HW221979   8.315   8.930   1.348  0.7433  0.8842 -0.9853
 4940SOL     OW21980   0.039   5.741   1.036 -0.0752 -0.0909  0.3321
 4940SOL    HW121981   0.083   5.652   1.046  0.1032  0.1379  1.6940
 4940SOL    HW221982   0.108   5.810   1.014  0.0629  0.0421  1.1783
 4941SOL     OW21983   1.186   4.177   1.047 -0.1638 -0.5848 -0.1687
 4941SOL    HW121984   1.244   4.258   1.053 -1.2693  0.2913 -1.0668
 4941SOL    HW221985   1.240   4.095   1.067  1.1649  0.2926 -0.1406
 4942SOL     OW21986   9.002   7.161   0.650  0.5238  0.2433 -0.0872
 4942SOL    HW121987   9.013   7.072   0.606  2.2220  0.5193 -0.2436
 4942SOL    HW221988   8.999   7.149   0.749  0.3173 -0.0368 -0.1284
 4943SOL     OW21989   0.839   1.153   2.358  0.0944 -0.0721  0.4130
 4943SOL    HW121990   0.745   1.186   2.350  0.3548  0.2016 -1.7167
 4943SOL    HW221991   0.845   1.087   2.433 -2.3885 -2.1981 -1.2164
 4944SOL     OW21992   8.062   8.394   2.183 -0.4987  0.2441 -0.1408
 4944SOL    HW121993   8.016   8.366   2.267  0.3069 -0.3648  0.1084
 4944SOL    HW221994   8.119   8.474   2.201  1.6931 -1.4368  0.5181
 4945SOL     OW21995   2.776   2.707   2.316  0.2415 -0.4337 -0.5975
 4945SOL    HW121996   2.856   2.728   2.371  1.1549 -4.4751 -0.2554
 4945SOL    HW221997   2.800   2.708   2.219  0.3972 -0.5159 -0.5583
 4947SOL     OW21998   8.734   9.052   1.890 -0.0015  0.0909 -0.3980
 4947SOL    HW121999   8.765   9.062   1.795  0.6505  1.2677 -0.0706
 4947SOL    HW222000   8.743   9.140   1.937 -0.3243 -0.4935  0.7596
 4948SOL     OW22001   1.748   7.835   2.435 -0.6592 -0.3943  0.6386
 4948SOL    HW122002   1.703   7.833   2.346 -0.6671 -0.3923  0.6424
 4948SOL    HW222003   1.781   7.743   2.458  1.1128 -0.0006 -0.2759
 4949SOL     OW22004   3.513   9.021   1.744  0.0069 -0.0131 -0.2409
 4949SOL    HW122005   3.597   9.063   1.710 -0.7480  0.3310 -1.7021
 4949SOL    HW222006   3.477   8.956   1.677 -2.4819  2.0136 -0.9624
 4951SOL     OW22007   9.136   1.240   1.828 -0.2361 -0.5849 -0.4476
 4951SOL    HW122008   9.165   1.255   1.923 -0.7048 -1.3203 -0.1740
 4951SOL    HW222009   9.214   1.212   1.773 -0.3633 -2.3511  0.2346
 4952SOL     OW22010   3.201   0.352   0.311  0.1997  0.0224 -0.5411
 4952SOL    HW122011   3.209   0.256   0.282 -1.7233 -0.4588  0.3899
 4952SOL    HW222012   3.292   0.388   0.331  0.7623 -2.7521  2.5442
 4953SOL     OW22013   1.211   2.666   2.319  0.2832  0.4009 -0.3069
 4953SOL    HW122014   1.244   2.577   2.350  0.6145  1.0114  1.1188
 4953SOL    HW222015   1.285   2.733   2.323  0.2910  0.5547 -2.2739
 4954SOL     OW22016   9.092   4.869   0.321 -0.3162 -0.5617  0.6064
 4954SOL    HW122017   9.084   4.888   0.223  1.0398 -0.1873  0.5516
 4954SOL    HW222018   9.119   4.952   0.369  3.0152 -1.6164  0.7317
 4955SOL     OW22019   1.399   7.631   2.507 -0.0881 -0.0628 -0.4313
 4955SOL    HW122020   1.374   7.584   2.591  1.7132 -0.5317 -0.1326
 4955SOL    HW222021   1.412   7.728   2.526  0.5334 -0.2058 -0.1164
 4956SOL     OW22022   3.733   7.292   1.076 -0.2233 -0.4051  0.2137
 4956SOL    HW122023   3.702   7.385   1.099 -1.2654 -0.4059 -1.1322
 4956SOL    HW222024   3.833   7.290   1.075 -0.1498  1.4037 -2.3767
 4957SOL     OW22025   1.686   3.659   1.484 -0.6874  0.6409  0.4677
 4957SOL    HW122026   1.776   3.638   1.524 -0.7571  2.2382  1.5231
 4957SOL    HW222027   1.629   3.577   1.485  0.1201  0.0716  1.5397
 4958SOL     OW22028   0.427   9.511   2.531  0.2131 -0.1498  0.3554
 4958SOL    HW122029   0.372   9.525   2.449 -2.2958 -1.6778  1.6976
 4958SOL    HW222030   0.418   9.589   2.592  3.5431  1.8274 -1.5334
 4959SOL     OW22031   0.132   5.485   1.149  0.1710  0.3528  1.0137
 4959SOL    HW122032   0.152   5.495   1.246  1.0656  0.1426  0.8529
 4959SOL    HW222033   0.217   5.486   1.097 -0.2658 -0.1663  0.2820
 4960SOL     OW22034   3.269   6.257   2.673 -0.0742  0.5888  0.0754
 4960SOL    HW122035   3.363   6.231   2.696 -0.4507 -1.1744 -0.3461
 4960SOL    HW222036   3.211   6.177   2.674 -1.3583  1.4868 -0.8204
 4961SOL     OW22037   0.464   5.739   1.754 -0.6734 -0.1213  0.3242
 4961SOL    HW122038   0.464   5.733   1.654 -2.9282 -3.5554  0.4487
 4961SOL    HW222039   0.410   5.819   1.782  1.8795  2.2115 -1.1724
 4962SOL     OW22040   1.847   5.439   1.243 -0.5322  0.3839  0.0292
 4962SOL    HW122041   1.937   5.439   1.200 -0.3448  1.0334  0.4188
 4962SOL    HW222042   1.793   5.362   1.207 -0.1632  0.5555 -0.9026
 4963SOL     OW22043   4.499   8.864   1.826 -0.1623  0.4806  0.1870
 4963SOL    HW122044   4.408   8.873   1.786 -0.3147  0.1250  0.4507
 4963SOL    HW222045   4.490   8.846   1.924  0.1919  0.5198  0.2260
 4965SOL     OW22046   6.353   9.885   2.482 -0.5832  0.1485  0.5416
 4965SOL    HW122047   6.303   9.811   2.527 -3.1393  0.2464 -1.9854
 4965SOL    HW222048   6.451   9.863   2.481 -0.7802 -1.1600  3.5481
 4966SOL     OW22049   2.743   4.800   0.126  0.6631  0.5865 -0.0435
 4966SOL    HW122050   2.768   4.896   0.135 -0.5473  0.9465 -0.3703
 4966SOL    HW222051   2.648   4.793   0.096  0.0553 -0.7470  2.1015
 4968SOL     OW22052   2.636   6.366   0.142 -0.5559  0.2135 -0.0122
 4968SOL    HW122053   2.600   6.290   0.196 -0.5600  0.7613  0.7708
 4968SOL    HW222054   2.720   6.339   0.096 -0.2317 -0.0669  0.7535
 4969SOL     OW22055   9.892   4.109   1.860 -0.7156  0.3751 -0.7004
 4969SOL    HW122056   9.894   4.134   1.957 -0.0056 -0.2682 -0.5492
 4969SOL    HW222057   9.862   4.188   1.806  0.8468  1.3540 -0.1640
 4970SOL     OW22058   3.538   2.785   2.171  0.0550 -0.1958 -0.3939
 4970SOL    HW122059   3.557   2.721   2.097 -2.2176 -0.3507 -0.9067
 4970SOL    HW222060   3.518   2.734   2.255  0.4581 -0.0936 -0.2372
 4971SOL     OW22061   6.443   9.052   2.059 -0.7876  0.0928 -0.3432
 4971SOL    HW122062   6.529   9.051   2.109  0.7195  1.3436 -2.7830
 4971SOL    HW222063   6.382   9.122   2.098  0.5168  1.3178 -0.4615
 4972SOL     OW22064   7.493   9.785   0.732  0.1460  0.2421 -0.3430
 4972SOL    HW122065   7.527   9.806   0.824 -0.1388  0.9937 -0.3986
 4972SOL    HW222066   7.558   9.727   0.684  0.4798  0.1647  0.1984
 4973SOL     OW22067   0.950   9.563   0.369 -0.2331  0.6197 -0.2642
 4973SOL    HW122068   0.945   9.472   0.411  0.6512  1.2253  1.1528
 4973SOL    HW222069   0.893   9.627   0.421  0.0337  1.1464 -0.6148
 4974SOL     OW22070   0.978   5.742   1.250  0.6244 -0.3810  0.3245
 4974SOL    HW122071   0.927   5.826   1.265 -0.8740 -1.3782  0.9083
 4974SOL    HW222072   0.940   5.669   1.306  0.0891 -2.1635 -2.2421
 4975SOL     OW22073   1.660   3.171   0.054  0.6502  0.2519 -0.5276
 4975SOL    HW122074   1.749   3.156   0.098  1.0482 -0.8031 -1.6456
 4975SOL    HW222075   1.661   3.129  -0.037 -0.9374  0.3900 -0.6197
 4976SOL     OW22076   2.941   2.804   2.503  0.1721 -0.0860 -0.4900
 4976SOL    HW122077   2.974   2.875   2.441  1.2201 -1.4819 -1.5384
 4976SOL    HW222078   3.019   2.762   2.550 -0.4112 -0.7952 -0.1502
 4977SOL     OW22079   0.566   9.944   0.088 -0.1652 -0.0796  0.2227
 4977SOL    HW122080   0.635   9.875   0.108  0.8970  1.0207  0.3763
 4977SOL    HW222081   0.537   9.936  -0.008  1.1760  0.3500 -0.2183
 4978SOL     OW22082   0.089   4.852   2.466 -0.3249  0.1560 -0.1239
 4978SOL    HW122083   0.179   4.896   2.473 -0.8060  1.0050  0.8367
 4978SOL    HW222084   0.092   4.764   2.513 -0.3038  0.6974  0.9128
 4979SOL     OW22085   2.602   9.552   1.763  0.0354  0.2698 -0.9043
 4979SOL    HW122086   2.676   9.499   1.721  1.1381  1.2555 -0.2182
 4979SOL    HW222087   2.517   9.501   1.754  0.8036 -0.9349 -1.6064
 4980SOL     OW22088   9.825   6.790   0.664  0.3600  0.1347 -0.4379
 4980SOL    HW122089   9.825   6.696   0.698  3.3942 -1.2209 -3.7823
 4980SOL    HW222090   9.902   6.840   0.704  0.8230  0.0859 -1.2375
 4981SOL     OW22091   8.346   2.927   0.272  0.8440  0.2638  0.4541
 4981SOL    HW122092   8.278   2.862   0.306  1.5968 -0.4860  0.5353
 4981SOL    HW222093   8.397   2.885   0.197 -0.3155  1.6395 -1.1328
 4984SOL     OW22094   1.386   8.381   0.573  0.6131 -0.3654  0.0999
 4984SOL    HW122095   1.371   8.287   0.604  4.8088 -0.6571  1.6932
 4984SOL    HW222096   1.436   8.380   0.487  0.4833  0.4094  0.0117
 4985SOL     OW22097   9.952   2.677   2.217 -0.6945  0.1178  0.1411
 4985SOL    HW122098   9.951   2.768   2.175  2.2774  0.7920  1.4004
 4985SOL    HW222099   9.962   2.686   2.316  0.7438 -1.5847  0.1779
 4986SOL     OW22100   2.365   2.790   2.593 -0.2389  0.1813 -0.1970
 4986SOL    HW122101   2.442   2.847   2.565 -0.6346  1.1262  0.6254
 4986SOL    HW222102   2.397   2.722   2.659 -0.0417  0.3198 -0.1482
 4987SOL     OW22103   9.203   3.858   0.827  0.1258 -0.4420  0.2687
 4987SOL    HW122104   9.208   3.956   0.809  0.2652 -0.7456 -1.4850
 4987SOL    HW222105   9.279   3.831   0.886 -0.0933  0.5548  1.0150
 4988SOL     OW22106   8.148   1.718   2.536 -0.1008 -0.3512 -0.8374
 4988SOL    HW122107   8.102   1.644   2.487  0.1021 -2.2403  1.7058
 4988SOL    HW222108   8.114   1.722   2.630  0.9798  1.8269 -0.5132
 4989SOL     OW22109   9.624   4.904   1.791  0.3337  0.2577 -0.0996
 4989SOL    HW122110   9.666   4.826   1.745  1.0474  0.2746  0.5033
 4989SOL    HW222111   9.695   4.957   1.838 -0.3604  0.2660  0.9642
 4990SOL     OW22112   3.798   7.634   1.901 -0.1724 -0.5767 -0.2104
 4990SOL    HW122113   3.761   7.718   1.940  0.6504 -0.4995  0.4265
 4990SOL    HW222114   3.728   7.563   1.902  0.0724 -0.8397  2.2617
 4991SOL     OW22115   2.892   6.023   2.532 -0.2207  0.1453  0.1073
 4991SOL    HW122116   2.889   6.019   2.632  0.0234  1.3519  0.1652
 4991SOL    HW222117   2.943   6.103   2.503 -1.3564  0.4904 -0.9915
 4992SOL     OW22118   3.178   9.902   0.623 -0.3369 -0.2838 -0.2089
 4992SOL    HW122119   3.274   9.930   0.624 -0.4648  0.1361  0.4076
 4992SOL    HW222120   3.120   9.981   0.640 -0.7215 -0.8625  1.1693
 4993SOL     OW22121   8.918   8.747   1.381 -0.0513 -0.2353  0.3287
 4993SOL    HW122122   8.890   8.807   1.306 -0.8126  0.6112  1.2751
 4993SOL    HW222123   8.889   8.653   1.360 -1.0716  0.1471 -0.0273
 4994SOL     OW22124   0.726   3.255   2.238  0.1562 -0.1322 -0.3588
 4994SOL    HW122125   0.670   3.181   2.202 -0.7579  1.1445 -1.6289
 4994SOL    HW222126   0.823   3.238   2.217 -0.2506  0.0504 -2.4932
 4995SOL     OW22127   6.753   9.382   2.359 -0.1962  0.2409  0.2950
 4995SOL    HW122128   6.679   9.428   2.310  1.0334  1.5831 -0.3047
 4995SOL    HW222129   6.789   9.442   2.430 -0.7933 -1.0432  1.7204
 4996SOL     OW22130   2.559   8.305   2.335  0.2023 -0.7295 -0.0553
 4996SOL    HW122131   2.554   8.396   2.376 -1.8096 -0.7330 -0.2499
 4996SOL    HW222132   2.569   8.236   2.406  2.8417 -0.3016  0.0328
 4997SOL     OW22133   2.494   1.810   0.211  0.0172  0.5499  0.6639
 4997SOL    HW122134   2.400   1.819   0.179  0.7170  2.1567 -1.0442
 4997SOL    HW222135   2.554   1.788   0.133  1.3349  1.5433  1.3789
 4998SOL     OW22136   8.113   2.164   1.659  0.0650 -0.1656  0.4253
 4998SOL    HW122137   8.190   2.198   1.711  0.5163 -1.2331  0.4658
 4998SOL    HW222138   8.133   2.170   1.561 -0.1323  0.3308  0.4160
 4999SOL     OW22139   9.577   2.866   0.313 -0.1877 -0.4534  0.4611
 4999SOL    HW122140   9.676   2.852   0.310 -0.1212 -0.2911  1.6567
 4999SOL    HW222141   9.548   2.878   0.408 -1.2861  0.0110  0.0726
 5001SOL     OW22142   4.126   1.483   0.877  0.7843 -0.2133 -0.2505
 5001SOL    HW122143   4.095   1.566   0.831  1.0312 -0.1517 -0.3064
 5001SOL    HW222144   4.167   1.507   0.965 -0.9664 -0.4562  0.6482
 5003SOL     OW22145   9.064   9.360   2.287  0.3951  0.0361 -0.0404
 5003SOL    HW122146   9.020   9.378   2.375 -1.0922  1.1945 -0.9888
 5003SOL    HW222147   9.066   9.261   2.271  1.1277 -0.2143  1.5034
 5004SOL     OW22148   8.951   7.023   0.269 -0.6528  0.1300  0.6861
 5004SOL    HW122149   8.856   7.001   0.250 -0.3604 -0.7304  0.1643
 5004SOL    HW222150   9.010   6.972   0.206  0.2221 -0.4317  1.9570
 5005SOL     OW22151   7.709   0.021   2.162  0.1778 -0.2241  0.0846
 5005SOL    HW122152   7.715   0.016   2.261  1.4778 -1.0124 -0.0209
 5005SOL    HW222153   7.794  -0.014   2.121 -0.6754 -0.7180 -1.3131
 5006SOL     OW22154   1.901   5.099   1.929  0.1121 -0.0835 -0.2493
 5006SOL    HW122155   1.873   5.130   1.837 -2.5660  0.8440  0.8268
 5006SOL    HW222156   1.866   5.007   1.945  0.9295 -0.4067 -0.2850
 5007SOL     OW22157   9.653   7.316   0.570 -0.0785  0.7343  0.2881
 5007SOL    HW122158   9.609   7.233   0.535  0.4691  0.8201 -0.6241
 5007SOL    HW222159   9.695   7.297   0.658  2.8169 -0.8591 -1.3433
 5008SOL     OW22160   2.910   0.564   2.523 -0.4602  0.3198  0.5976
 5008SOL    HW122161   2.941   0.590   2.431 -2.3245  0.6165  0.0236
 5008SOL    HW222162   2.943   0.472   2.544  0.3865  0.4337 -0.1678
 5009SOL     OW22163   2.555   5.019   0.992  0.0558 -1.2928 -0.1127
 5009SOL    HW122164   2.617   4.948   0.960  1.1736 -0.9745  1.2775
 5009SOL    HW222165   2.592   5.109   0.968 -0.2894 -1.1188  0.0015
 5010SOL     OW22166   3.864   0.763   2.699  0.3131 -0.0009 -0.6626
 5010SOL    HW122167   3.892   0.804   2.612  2.7052 -1.0601 -0.4540
 5010SOL    HW222168   3.821   0.674   2.681 -2.8012  1.5015 -0.9669
 5011SOL     OW22169   0.137   0.046   1.962 -0.1823 -0.3919  0.4337
 5011SOL    HW122170   0.044   0.010   1.967 -0.9646  1.7318  1.6914
 5011SOL    HW222171   0.178   0.046   2.053 -0.0070  1.3569  0.3695
 5012SOL     OW22172   0.190   3.119   0.211 -0.4552 -0.6679  0.1949
 5012SOL    HW122173   0.185   3.198   0.150 -0.6891 -0.8899 -0.0758
 5012SOL    HW222174   0.264   3.132   0.277 -1.7187  0.6634  1.3984
 5014SOL     OW22175   8.370   0.387   2.446  0.1968 -0.2238 -0.4804
 5014SOL    HW122176   8.343   0.391   2.349  2.4148 -1.3175 -1.1790
 5014SOL    HW222177   8.336   0.469   2.493  0.0647  0.8847 -2.4336
 5015SOL     OW22178   9.482   8.902   1.412 -0.1347  0.0510 -0.5683
 5015SOL    HW122179   9.393   8.857   1.408  0.3031 -0.9292  0.4408
 5015SOL    HW222180   9.512   8.909   1.507  0.2000  1.7076 -0.7765
 5016SOL     OW22181   8.167   1.924   1.777 -0.6787 -0.1148 -0.0929
 5016SOL    HW122182   8.141   1.852   1.712  2.2769 -0.5685 -0.8596
 5016SOL    HW222183   8.130   2.012   1.745  2.0132 -0.0575 -3.3418
 5017SOL     OW22184   3.852   1.762   0.058  0.4462 -0.5300 -0.4706
 5017SOL    HW122185   3.949   1.775   0.080  0.3029  0.6925 -0.5515
 5017SOL    HW222186   3.844   1.694  -0.014  1.5160  1.9915 -3.0833
 5018SOL     OW22187   1.660   2.080   1.691  0.1114  0.5960  0.0326
 5018SOL    HW122188   1.705   2.047   1.608 -2.5951 -0.8608 -0.9189
 5018SOL    HW222189   1.612   2.165   1.671  1.3708  1.4807  0.7229
 5019SOL     OW22190   0.692   1.226   1.465 -0.4033  0.2232  0.1853
 5019SOL    HW122191   0.606   1.263   1.499 -0.5748 -0.7665  0.8609
 5019SOL    HW222192   0.751   1.203   1.543 -1.1000 -2.7701 -0.1085
 5020SOL     OW22193   1.490   7.516   0.745 -0.1036  0.7607  0.1629
 5020SOL    HW122194   1.421   7.482   0.680  1.5257 -1.3183 -0.5332
 5020SOL    HW222195   1.532   7.438   0.792  0.4709  2.1203  1.9235
 5021SOL     OW22196   1.809   1.174   0.729 -0.4174 -0.9771 -0.0577
 5021SOL    HW122197   1.856   1.122   0.658 -0.6096  1.1661 -1.8093
 5021SOL    HW222198   1.754   1.246   0.687  0.5335  1.2407  2.3045
 5023SOL     OW22199   3.348   9.820   1.556  0.4981  0.2527  0.0169
 5023SOL    HW122200   3.407   9.808   1.636  2.2800  3.7397 -0.6823
 5023SOL    HW222201   3.306   9.911   1.559 -2.1461 -0.8794 -1.2714
 5024SOL     OW22202   9.093   0.089   1.076 -0.3309  0.0435  0.0144
 5024SOL    HW122203   9.171   0.036   1.109 -0.0226  2.1697  2.7990
 5024SOL    HW222204   9.125   0.177   1.040 -1.3542  0.4944  0.1956
 5025SOL     OW22205   1.176   9.178   2.367  0.0585  0.1503  0.6660
 5025SOL    HW122206   1.136   9.263   2.401  2.5846  1.4766  0.3649
 5025SOL    HW222207   1.119   9.143   2.292 -1.1428  1.4253  0.9494
 5026SOL     OW22208   9.088   2.328   1.224  0.1498 -0.1747  0.1098
 5026SOL    HW122209   9.021   2.263   1.261 -0.1447 -0.8774 -1.6010
 5026SOL    HW222210   9.116   2.298   1.133  1.6130  0.9807  0.1667
 5027SOL     OW22211   3.197   5.933   1.065  0.0393 -0.1253 -0.1088
 5027SOL    HW122212   3.127   5.969   1.003  0.2748  2.8080  1.2460
 5027SOL    HW222213   3.233   5.847   1.029 -2.7137 -0.5755 -1.9235
 5029SOL     OW22214   1.211   7.337   1.035  0.0827  0.4198  0.2530
 5029SOL    HW122215   1.197   7.247   1.077  0.3387 -0.7539 -2.0488
 5029SOL    HW222216   1.133   7.357   0.975  0.7343  1.0575 -0.3805
 5030SOL     OW22217   3.384   8.376   1.754 -0.4951 -0.4185  0.1405
 5030SOL    HW122218   3.331   8.296   1.727 -0.3356 -0.8635  1.1481
 5030SOL    HW222219   3.324   8.455   1.760 -1.1655 -1.0514  1.8726
 5033SOL     OW22220   9.452   9.335   2.202 -0.0001 -0.7953  0.2010
 5033SOL    HW122221   9.414   9.330   2.109 -1.2055  0.0106  0.6327
 5033SOL    HW222222   9.402   9.272   2.261  2.0429 -2.7485 -0.0949
 5034SOL     OW22223   1.674   5.263   2.675 -0.2774 -0.4475 -0.5679
 5034SOL    HW122224   1.714   5.196   2.613 -1.3082 -1.9273  0.3372
 5034SOL    HW222225   1.584   5.291   2.640 -0.6379 -0.9051 -0.0127
 5035SOL     OW22226   8.611   7.227   1.693  0.0091 -0.3218  0.2181
 5035SOL    HW122227   8.514   7.240   1.671  0.1100  0.1241  0.0310
 5035SOL    HW222228   8.658   7.186   1.614 -0.1397 -1.0714  0.5126
 5036SOL     OW22229   1.551   7.286   0.482  0.0671 -0.0818  0.1775
 5036SOL    HW122230   1.526   7.199   0.440  1.6834 -1.0839  1.2326
 5036SOL    HW222231   1.469   7.337   0.506 -0.8782 -0.8213 -1.4644
 5037SOL     OW22232   2.013   8.993   1.307 -0.1800 -0.1776  0.3902
 5037SOL    HW122233   2.093   9.050   1.290 -1.0076  0.5603 -1.0739
 5037SOL    HW222234   2.030   8.901   1.272 -0.3405  0.2430 -0.8056
 5039SOL     OW22235   9.348   1.955   1.428 -0.2645  0.6679 -0.0442
 5039SOL    HW122236   9.423   1.898   1.464 -1.0878 -1.0459 -0.9556
 5039SOL    HW222237   9.386   2.026   1.368  0.6081 -0.7484 -1.2211
 5041SOL     OW22238   3.870   4.421   2.608 -0.3358 -0.4120  0.0545
 5041SOL    HW122239   3.914   4.344   2.562 -0.2423  0.0666 -0.6686
 5041SOL    HW222240   3.822   4.389   2.690  0.5292 -1.0788  0.2940
 5042SOL     OW22241   8.348   7.233   1.585  0.5530 -0.0489  0.0873
 5042SOL    HW122242   8.278   7.243   1.655 -0.0373  0.7355 -0.6018
 5042SOL    HW222243   8.324   7.156   1.525  0.9382 -0.5730  0.6039
 5043SOL     OW22244   9.455   0.077   0.447 -0.0019 -0.0893  0.2134
 5043SOL    HW122245   9.505   0.153   0.407 -1.3784  0.7569  0.0471
 5043SOL    HW222246   9.375   0.056   0.390  0.2787 -1.5666  0.3377
 5044SOL     OW22247   3.897   9.682   0.071 -0.1529  0.0552 -0.3707
 5044SOL    HW122248   3.827   9.615   0.046  1.8829 -2.4513  0.3331
 5044SOL    HW222249   3.948   9.648   0.151  0.7437  2.6019  0.1790
 5045SOL     OW22250   4.931   2.563   1.520 -0.0223  0.0907 -0.4727
 5045SOL    HW122251   4.863   2.624   1.562  0.6554  0.5250  0.0117
 5045SOL    HW222252   4.897   2.469   1.522 -0.8279  0.3710 -0.6960
 5046SOL     OW22253   3.510   8.378   0.026 -0.7463 -0.1787  0.6367
 5046SOL    HW122254   3.423   8.392   0.074 -0.8128  2.6877 -0.2590
 5046SOL    HW222255   3.493   8.355  -0.069 -0.5263 -0.5601  0.6867
 5048SOL     OW22256   2.536   5.432   0.890  0.0962 -0.4037  0.4955
 5048SOL    HW122257   2.562   5.512   0.945  2.4528 -1.2972  0.7312
 5048SOL    HW222258   2.618   5.384   0.860 -1.2015 -0.8528 -2.5003
 5049SOL     OW22259   4.096   3.462   1.017  0.1498 -0.0261  0.2330
 5049SOL    HW122260   4.167   3.482   0.950  0.1814 -1.6289 -0.2373
 5049SOL    HW222261   4.024   3.407   0.974 -0.5188  0.1173  1.1466
 5050SOL     OW22262   1.488   1.042   1.848 -0.1892 -0.3897  0.1340
 5050SOL    HW122263   1.547   1.098   1.790 -1.9141  0.3893 -0.9183
 5050SOL    HW222264   1.457   1.096   1.926 -0.7907 -0.2674 -0.1811
 5051SOL     OW22265   4.416   3.297   1.060  0.4825 -0.0244  0.3183
 5051SOL    HW122266   4.406   3.377   1.001  1.4332  0.0523  0.2532
 5051SOL    HW222267   4.512   3.284   1.083  0.2686 -0.8130  0.8026
 5052SOL     OW22268   9.354   6.069   1.010 -0.2897  0.3450  0.4730
 5052SOL    HW122269   9.307   5.982   1.019  0.0270 -0.1018 -1.7854
 5052SOL    HW222270   9.421   6.064   0.936  0.1791  2.3121  0.7099
 5053SOL     OW22271   9.764   6.970   1.111 -0.6305  0.0808 -0.4052
 5053SOL    HW122272   9.690   7.008   1.167  0.8425  2.2752  0.1202
 5053SOL    HW222273   9.727   6.945   1.021 -2.3336 -0.3967  0.3944
 5054SOL     OW22274   8.309   9.529   0.406  0.4916  0.0362 -0.3645
 5054SOL    HW122275   8.275   9.512   0.498  2.1401  0.4369  0.3469
 5054SOL    HW222276   8.381   9.462   0.385 -0.1633 -0.3109 -1.5171
 5055SOL     OW22277   2.661   3.572   2.527  0.1567  0.1699 -0.1721
 5055SOL    HW122278   2.681   3.530   2.439 -1.0104 -0.9429  0.0763
 5055SOL    HW222279   2.746   3.585   2.578  0.8594  1.0279 -1.5408
 5056SOL     OW22280   3.057   5.565   0.382 -0.0867  0.3643 -0.4966
 5056SOL    HW122281   2.970   5.517   0.381 -0.0967  0.3816 -0.4692
 5056SOL    HW222282   3.087   5.578   0.477 -0.0510  0.3519 -0.5062
 5058SOL     OW22283   2.584   8.459   0.977 -0.0450 -0.1871 -0.1348
 5058SOL    HW122284   2.668   8.429   0.932 -0.7710 -1.4154 -0.6806
 5058SOL    HW222285   2.512   8.469   0.908 -0.6625 -0.2531  0.5053
 5060SOL     OW22286   1.495   1.390   0.302 -0.6059 -0.1589 -0.1656
 5060SOL    HW122287   1.528   1.299   0.277 -0.4884  0.7182 -3.4727
 5060SOL    HW222288   1.396   1.394   0.288 -0.7286  0.0326  0.7016
 5061SOL     OW22289   1.693   5.071   1.495  0.5463  0.4714  0.0912
 5061SOL    HW122290   1.765   5.107   1.554  1.1896  0.2797 -0.5708
 5061SOL    HW222291   1.692   4.971   1.500 -0.1942  0.5032  0.7032
 5062SOL     OW22292   0.273   0.481   1.875 -0.3737  0.6558 -0.2024
 5062SOL    HW122293   0.366   0.519   1.878  0.5387 -1.4926 -0.2030
 5062SOL    HW222294   0.261   0.431   1.790 -1.8416  1.6108 -0.5695
 5063SOL     OW22295   4.393   3.742   1.418  0.1617 -0.5714  0.3367
 5063SOL    HW122296   4.402   3.839   1.439 -1.6135 -0.1996 -0.5485
 5063SOL    HW222297   4.374   3.730   1.321 -0.6192 -1.7327  0.6200
 5065SOL     OW22298   8.941   5.769   2.506  0.2453  0.1551 -0.7594
 5065SOL    HW122299   8.988   5.850   2.542  1.0876 -0.3042 -0.8119
 5065SOL    HW222300   8.891   5.794   2.423 -1.4759  1.1561  0.5266
 5066SOL     OW22301   6.028   9.249   2.267 -0.6568 -0.6299 -0.3249
 5066SOL    HW122302   5.971   9.242   2.185 -0.4606  1.5579 -0.6779
 5066SOL    HW222303   6.032   9.344   2.297 -0.4244 -1.3464  2.0290
 5067SOL     OW22304   0.597   5.900   0.581  0.2108  0.3890 -0.0761
 5067SOL    HW122305   0.584   5.808   0.617  1.2918  0.8625  1.5469
 5067SOL    HW222306   0.640   5.895   0.491 -0.9023 -0.7214 -0.5689
 5068SOL     OW22307   0.587   8.355   2.173  0.5836  0.1123  0.1119
 5068SOL    HW122308   0.560   8.449   2.191 -1.1626 -0.0309 -1.5145
 5068SOL    HW222309   0.506   8.296   2.175  1.7682 -1.5237  1.9773
 5069SOL     OW22310   9.396   6.629   2.633 -0.4863 -0.2720 -0.2129
 5069SOL    HW122311   9.416   6.723   2.659 -1.4158  0.0629 -0.7216
 5069SOL    HW222312   9.426   6.613   2.539  1.0666 -0.9306  0.3710
 5070SOL     OW22313   1.336   6.546   1.356  0.1918 -0.4349  0.2568
 5070SOL    HW122314   1.418   6.545   1.412 -0.5062 -2.0661  1.2879
 5070SOL    HW222315   1.260   6.586   1.408  0.5254  2.0131 -1.0352
 5071SOL     OW22316   1.368   8.080   0.644 -0.5548  0.0244  0.1739
 5071SOL    HW122317   1.363   7.981   0.637 -0.1551 -0.1675  2.2755
 5071SOL    HW222318   1.350   8.108   0.739 -3.4020  2.1306 -0.9018
 5072SOL     OW22319   3.270   2.443   0.280  0.0965  0.1336 -0.6746
 5072SOL    HW122320   3.367   2.441   0.305 -0.0478  0.9157 -0.0603
 5072SOL    HW222321   3.256   2.511   0.208 -0.3725  1.6461  0.8277
 5073SOL     OW22322   2.254   1.536   1.799  0.1754 -0.2367 -0.4516
 5073SOL    HW122323   2.279   1.490   1.885  0.8705  0.4215 -0.2948
 5073SOL    HW222324   2.312   1.500   1.725 -1.0544 -1.4701 -0.8328
 5074SOL     OW22325   8.851   3.683   1.300 -0.1556  0.0932  1.1679
 5074SOL    HW122326   8.939   3.672   1.253 -0.6000  0.8190  0.1763
 5074SOL    HW222327   8.850   3.770   1.350  0.1992 -0.5350  2.3038
 5075SOL     OW22328   8.905   1.435   2.478  0.2600 -0.2382 -0.1682
 5075SOL    HW122329   8.865   1.401   2.564  1.7043 -0.4582  0.4202
 5075SOL    HW222330   8.832   1.472   2.420 -1.0312 -2.0747  0.2346
 5076SOL     OW22331   4.176   0.851   2.493  0.3543 -0.1945  0.1290
 5076SOL    HW122332   4.189   0.753   2.504  0.4044  0.0329  2.3121
 5076SOL    HW222333   4.253   0.890   2.444  0.7994 -1.1033  0.0988
 5077SOL     OW22334   9.392   6.698   1.185  0.9079 -0.4392 -0.8287
 5077SOL    HW122335   9.465   6.700   1.117  0.9172  0.0680 -0.8057
 5077SOL    HW222336   9.340   6.612   1.176  1.8552 -1.0540 -0.4652
 5078SOL     OW22337   8.912   8.689   0.036  0.3052  0.1730  0.1754
 5078SOL    HW122338   8.817   8.658   0.025  0.0049  0.6827  1.2268
 5078SOL    HW222339   8.932   8.699   0.134  1.7828 -0.9895  0.0125
 5079SOL     OW22340   1.556   7.948   2.599  0.7203 -0.2113  0.2471
 5079SOL    HW122341   1.557   7.959   2.698 -0.3636 -0.3395  0.2802
 5079SOL    HW222342   1.630   7.886   2.572  0.9891 -0.2174  0.9709
 5081SOL     OW22343   9.512   9.619   1.796 -0.8067  0.5595  0.0127
 5081SOL    HW122344   9.572   9.641   1.872  0.4107 -2.4205 -0.0212
 5081SOL    HW222345   9.418   9.607   1.830 -0.7632  1.8294  0.6043
 5082SOL     OW22346   9.770   0.055   0.238 -0.1322 -0.1097  0.3162
 5082SOL    HW122347   9.829   0.049   0.319 -1.4067  1.0723  1.3701
 5082SOL    HW222348   9.712   0.136   0.245 -2.3184 -1.5506 -0.3760
 5083SOL     OW22349   1.862   9.347   0.639  0.1373  0.3171 -0.1748
 5083SOL    HW122350   1.870   9.446   0.629 -0.9116  0.1616 -2.9193
 5083SOL    HW222351   1.767   9.323   0.659  0.1392 -0.2410 -0.8337
 5085SOL     OW22352   8.301   9.119   0.695  0.2288 -0.3979  0.5662
 5085SOL    HW122353   8.233   9.077   0.755  0.6395  0.0021  1.3238
 5085SOL    HW222354   8.329   9.054   0.625 -0.6790 -0.6768  0.4658
 5088SOL     OW22355   4.000   2.395   1.975  0.4185  0.0061 -1.0750
 5088SOL    HW122356   4.003   2.494   1.961  0.1849  0.0649 -0.7043
 5088SOL    HW222357   3.909   2.360   1.953 -0.0430  0.1408  0.5617
 5090SOL     OW22358   9.296   7.963   2.582  0.2359  0.3669 -0.2976
 5090SOL    HW122359   9.340   7.889   2.531  0.9588  1.2467 -0.9743
 5090SOL    HW222360   9.365   8.013   2.635 -0.2534  0.5153  0.2053
 5091SOL     OW22361   1.216   2.876   0.135  0.1189 -0.6821  0.3874
 5091SOL    HW122362   1.285   2.939   0.099  0.0038 -0.9149 -0.2523
 5091SOL    HW222363   1.254   2.784   0.140 -0.0781 -0.7731  0.2245
 5093SOL     OW22364   9.419   4.167   2.285 -0.0009  0.0072  0.1625
 5093SOL    HW122365   9.482   4.242   2.266 -0.9391  1.1067  1.2744
 5093SOL    HW222366   9.389   4.126   2.199  2.0847 -0.4282 -0.3810
 5094SOL     OW22367   2.179   8.520   0.828 -0.0894 -0.5795  0.2001
 5094SOL    HW122368   2.107   8.450   0.824 -0.8918  0.3332 -2.9203
 5094SOL    HW222369   2.250   8.499   0.761 -0.2273  1.4243 -0.6259
 5095SOL     OW22370   3.277   6.912   2.486 -0.1719  0.4738  0.1795
 5095SOL    HW122371   3.359   6.932   2.431 -1.2537  1.8250 -0.9832
 5095SOL    HW222372   3.210   6.864   2.430  0.7921 -2.9404  1.8483
 5096SOL     OW22373   2.142   2.298   0.479  0.2446 -0.5358  0.0607
 5096SOL    HW122374   2.084   2.319   0.400  1.0827  0.7667 -0.2184
 5096SOL    HW222375   2.084   2.288   0.560 -0.4309  0.2139 -0.3156
 5097SOL     OW22376   4.147   7.497   0.073  0.2251 -0.5606  0.1725
 5097SOL    HW122377   4.089   7.417   0.057  0.2479 -0.1529 -2.1505
 5097SOL    HW222378   4.089   7.577   0.090  0.1389 -0.5509 -0.1570
 5098SOL     OW22379   2.755   6.398   2.551 -0.2013  0.4890 -0.1529
 5098SOL    HW122380   2.844   6.362   2.527  0.7227  3.0538 -0.7741
 5098SOL    HW222381   2.699   6.407   2.469 -0.4708  0.3397  0.0126
 5099SOL     OW22382   0.565   6.054   1.885 -0.3437 -0.0754  0.2036
 5099SOL    HW122383   0.629   5.993   1.932  0.9815  0.3721 -1.0165
 5099SOL    HW222384   0.560   6.141   1.934 -1.6307 -0.8406  1.4884
 5100SOL     OW22385   1.390   4.137   1.412 -0.7262  0.0724  0.0029
 5100SOL    HW122386   1.423   4.231   1.408  0.6867 -0.4327 -0.4755
 5100SOL    HW222387   1.438   4.088   1.484 -2.1510 -0.0406  0.9058
 5101SOL     OW22388   9.711   5.385   1.036  0.4719 -0.2629  0.4330
 5101SOL    HW122389   9.664   5.459   1.084  1.2012 -0.7205  1.8824
 5101SOL    HW222390   9.670   5.372   0.946 -1.0679  0.4541  1.0235
 5103SOL     OW22391   3.119   6.579   1.481  0.3439  0.0045  0.0251
 5103SOL    HW122392   3.041   6.607   1.537  1.4765 -2.4743  3.0356
 5103SOL    HW222393   3.097   6.496   1.431  0.9474 -0.5618  0.6841
 5104SOL     OW22394   2.721   8.536   2.463 -0.4147 -0.0573  0.1291
 5104SOL    HW122395   2.775   8.606   2.416 -2.4800  0.0441 -2.2138
 5104SOL    HW222396   2.630   8.573   2.483 -1.6888 -2.1855 -1.5452
 5105SOL     OW22397   0.214   1.661   0.241 -0.6853 -0.0829 -0.1561
 5105SOL    HW122398   0.190   1.746   0.288  0.9219  1.7206 -2.4853
 5105SOL    HW222399   0.158   1.649   0.160 -0.7345 -1.1401  0.0178
 5106SOL     OW22400   2.815   6.153   0.957  0.7940 -0.3101  0.0617
 5106SOL    HW122401   2.777   6.074   1.006  0.2099 -0.0242  0.0742
 5106SOL    HW222402   2.904   6.129   0.919  0.4581 -1.0868 -0.2373
 5107SOL     OW22403   3.870   1.604   1.415 -0.2932 -0.2312 -0.1346
 5107SOL    HW122404   3.881   1.527   1.352  0.8398 -1.7518  1.8632
 5107SOL    HW222405   3.774   1.609   1.445  0.0144 -2.1966  1.3098
 5108SOL     OW22406   9.753   8.131   0.028 -0.2371 -0.3301 -0.2041
 5108SOL    HW122407   9.700   8.067   0.083  0.4667 -0.3586  0.4457
 5108SOL    HW222408   9.810   8.187   0.088  2.3807 -2.0158 -1.0351
 5109SOL     OW22409   3.219   2.677   0.140  0.7089  0.0973  0.3816
 5109SOL    HW122410   3.172   2.757   0.178 -1.4763 -0.3622 -1.2167
 5109SOL    HW222411   3.237   2.693   0.043  0.6338 -1.1817  0.1520
 5110SOL     OW22412   4.895   9.760   0.862  0.1908  0.6732 -0.7199
 5110SOL    HW122413   4.894   9.853   0.899 -1.0494 -0.2238  1.5593
 5110SOL    HW222414   4.880   9.695   0.935 -2.2286 -1.1722 -2.7940
 5111SOL     OW22415   2.700   5.913   2.068 -0.4705  0.1938 -0.3288
 5111SOL    HW122416   2.762   5.940   2.141  0.4916 -1.0586 -0.6699
 5111SOL    HW222417   2.632   5.848   2.103  0.8034 -1.4422 -0.8151
 5113SOL     OW22418   3.998   5.169   0.422  0.4461  0.8496 -0.1472
 5113SOL    HW122419   4.074   5.106   0.436  1.9729  2.6731  0.0313
 5113SOL    HW222420   4.021   5.258   0.461 -1.8265  1.4289 -0.0257
 5114SOL     OW22421   8.966   3.372   1.996 -0.4531 -0.2774 -0.2348
 5114SOL    HW122422   8.871   3.371   2.025 -0.2877 -1.6123  0.2918
 5114SOL    HW222423   9.022   3.419   2.065 -0.7243  0.5383 -0.5626
 5115SOL     OW22424   1.153   6.155   2.329 -0.5129 -0.4092  0.7498
 5115SOL    HW122425   1.152   6.068   2.281  1.2439  0.4082 -0.8210
 5115SOL    HW222426   1.081   6.214   2.292  0.7588  0.1742 -0.8492
 5116SOL     OW22427   8.111   0.700   0.911 -0.2274  0.3266 -0.2314
 5116SOL    HW122428   8.095   0.643   0.992  2.0436 -1.1975 -0.8425
 5116SOL    HW222429   8.024   0.741   0.883 -1.4019 -0.6406  1.8352
 5118SOL     OW22430   9.255   8.651   0.484  0.3632 -0.3884  0.4414
 5118SOL    HW122431   9.182   8.584   0.494  0.1460 -0.0220  1.4307
 5118SOL    HW222432   9.342   8.604   0.469 -0.0987 -0.8195 -0.9818
 5119SOL     OW22433   0.720   6.315   0.042 -0.1007 -0.2846 -0.2141
 5119SOL    HW122434   0.721   6.237  -0.020  0.2046 -0.1548 -0.3718
 5119SOL    HW222435   0.788   6.301   0.114 -0.2515 -0.3013 -0.0756
 5120SOL     OW22436   2.312   0.999   0.462  0.3165  0.5300 -0.0565
 5120SOL    HW122437   2.344   1.059   0.389  1.3250  0.5449  0.3899
 5120SOL    HW222438   2.241   0.938   0.426  1.8341 -0.4599 -1.4337
 5121SOL     OW22439   9.116   1.538   1.808 -0.1017  0.2958  0.4676
 5121SOL    HW122440   9.204   1.578   1.832 -0.0391  1.2364 -1.2563
 5121SOL    HW222441   9.129   1.442   1.783  0.7356  0.8992 -1.5225
 5124SOL     OW22442   0.059   7.620   1.535  0.7471 -0.1851  0.1558
 5124SOL    HW122443   0.091   7.526   1.546  1.4984  0.0018 -0.3994
 5124SOL    HW222444   0.134   7.683   1.552  0.6846  0.2544 -1.1111
 5126SOL     OW22445   4.199   2.138   1.863  0.0023 -0.1213 -0.7086
 5126SOL    HW122446   4.280   2.179   1.904  0.8433 -1.2110 -1.2824
 5126SOL    HW222447   4.130   2.209   1.849  1.2791  1.0298 -1.2730
 5127SOL     OW22448   2.800   6.357   1.886  0.3447 -0.5228  0.0508
 5127SOL    HW122449   2.739   6.437   1.888 -0.0321 -0.8256  1.1736
 5127SOL    HW222450   2.744   6.274   1.884  0.6655 -0.8570  2.8532
 5128SOL     OW22451   9.523   8.123   2.692 -0.3921  0.1500  0.2029
 5128SOL    HW122452   9.611   8.075   2.698 -0.8424 -0.6936  0.1429
 5128SOL    HW222453   9.539   8.221   2.690  0.5548  0.0032  0.1944
 5129SOL     OW22454   8.605   5.509   0.484  0.0203  0.3682 -0.1811
 5129SOL    HW122455   8.577   5.414   0.493  1.2002  0.0487  0.1883
 5129SOL    HW222456   8.562   5.563   0.556  0.1363 -0.0598  0.2087
 5131SOL     OW22457   8.702   9.112   0.945 -0.0873 -0.2831 -0.3621
 5131SOL    HW122458   8.761   9.172   0.892  1.7838  0.2500  2.2062
 5131SOL    HW222459   8.634   9.167   0.995  0.5680 -0.4179  0.6985
 5132SOL     OW22460   1.456   1.240   2.059 -0.2089 -0.2719 -0.1566
 5132SOL    HW122461   1.390   1.315   2.050 -0.4613 -0.6207 -1.2827
 5132SOL    HW222462   1.440   1.191   2.144 -0.9343  0.0937 -0.0833
 5135SOL     OW22463   3.326   1.029   2.401  0.9484 -0.0435 -0.2096
 5135SOL    HW122464   3.334   1.040   2.302 -0.8230 -0.1834 -0.3955
 5135SOL    HW222465   3.279   1.109   2.440  0.8164 -0.4026  0.3844
 5136SOL     OW22466   8.304   1.416   1.448  0.1715  0.1692  0.2986
 5136SOL    HW122467   8.249   1.415   1.531  0.4896  0.6318  0.5183
 5136SOL    HW222468   8.244   1.427   1.368 -0.0150  1.1747  0.5705
 5137SOL     OW22469   7.797   2.863   0.481 -0.1955 -0.1232 -0.1483
 5137SOL    HW122470   7.701   2.884   0.464 -0.3937 -0.9182  0.0112
 5137SOL    HW222471   7.841   2.942   0.525 -0.9902 -0.0973  0.6062
 5138SOL     OW22472   2.294   4.603   2.438 -1.1675  0.6686  0.1514
 5138SOL    HW122473   2.371   4.541   2.453 -1.8710 -0.2883 -0.1641
 5138SOL    HW222474   2.315   4.662   2.360 -1.4978 -0.8281 -1.1007
 5139SOL     OW22475   9.646   7.816   1.758 -0.2584  0.0412 -0.3856
 5139SOL    HW122476   9.665   7.834   1.854 -0.1142 -1.4251 -0.1428
 5139SOL    HW222477   9.562   7.762   1.750 -1.4519  1.9459 -1.1955
 5141SOL     OW22478   9.925   5.007   2.280 -0.1506 -0.8461  0.8709
 5141SOL    HW122479   9.871   5.047   2.354 -0.5246  0.2465  0.0175
 5141SOL    HW222480  10.009   4.967   2.318 -0.3016 -0.2358  1.8705
 5142SOL     OW22481   0.362   3.804   2.509 -0.3766 -0.7877 -0.6751
 5142SOL    HW122482   0.438   3.793   2.445 -0.7237 -2.6324 -0.7848
 5142SOL    HW222483   0.277   3.777   2.464 -0.8910 -0.2435 -0.0409
 5143SOL     OW22484   2.893   8.350   2.356  0.2373 -0.4309 -0.5761
 5143SOL    HW122485   2.831   8.410   2.408 -0.3390 -0.6107 -1.0523
 5143SOL    HW222486   2.862   8.256   2.364  2.2530 -0.9200  1.7632
 5144SOL     OW22487   4.343   7.603   2.376 -0.7422  0.3208 -0.0098
 5144SOL    HW122488   4.370   7.649   2.460 -1.7673  1.9398 -0.5437
 5144SOL    HW222489   4.247   7.576   2.382  0.0235 -2.4345  0.5788
 5146SOL     OW22490   8.397   1.521   1.091 -0.3448  0.1861  0.0582
 5146SOL    HW122491   8.454   1.452   1.045  1.6299  1.3730  0.6600
 5146SOL    HW222492   8.329   1.475   1.148  1.3709 -1.2925  0.9879
 5147SOL     OW22493   4.994   9.736   1.758  0.2335  0.7741 -0.4044
 5147SOL    HW122494   5.079   9.683   1.760  0.4560  1.1276 -0.4707
 5147SOL    HW222495   4.968   9.760   1.852 -0.4116 -0.3105 -0.2856
 5148SOL     OW22496   1.596   0.889   1.347  0.1522 -0.2729  0.1895
 5148SOL    HW122497   1.513   0.942   1.326  0.7954  1.5025  1.9324
 5148SOL    HW222498   1.589   0.852   1.439  1.0586 -0.6212  0.1206
 5149SOL     OW22499   7.929   3.253   0.187 -0.1612 -0.5164  0.3123
 5149SOL    HW122500   7.896   3.314   0.258  0.6251 -1.0650  1.1632
 5149SOL    HW222501   8.021   3.221   0.210 -0.6395 -2.1859 -0.0017
 5150SOL     OW22502   1.571   3.013   0.846 -0.0196  0.0434 -0.4409
 5150SOL    HW122503   1.587   3.014   0.747  0.2099 -0.5887 -0.4119
 5150SOL    HW222504   1.654   3.043   0.893  0.4592 -1.3914 -0.3677
 5151SOL     OW22505   2.537   3.852   0.553  0.2537 -0.4130  0.8050
 5151SOL    HW122506   2.598   3.778   0.525  1.2668  0.1740  1.4409
 5151SOL    HW222507   2.482   3.822   0.631 -0.6768 -1.1261 -0.1012
 5153SOL     OW22508   3.093   1.817   0.164  0.4348 -0.1174  0.1585
 5153SOL    HW122509   3.147   1.868   0.230 -0.9780  0.1752  1.1222
 5153SOL    HW222510   3.148   1.743   0.126  1.7288  0.6234  0.5600
 5155SOL     OW22511   2.636   8.083   2.491 -0.1639 -0.1215 -0.0758
 5155SOL    HW122512   2.634   8.097   2.590 -0.6738  0.0928 -0.1162
 5155SOL    HW222513   2.729   8.058   2.462  0.5958  2.4597  0.0891
 5158SOL     OW22514   0.487   7.661   0.049  0.4425 -0.0214  0.0930
 5158SOL    HW122515   0.550   7.694   0.119 -0.6601 -0.3503  1.2722
 5158SOL    HW222516   0.495   7.717  -0.033 -1.0287  2.9276  1.8576
 5159SOL     OW22517   4.761   8.724   2.632 -0.0304 -0.1665  0.1648
 5159SOL    HW122518   4.833   8.682   2.577  0.0218  0.5477 -0.3119
 5159SOL    HW222519   4.678   8.733   2.577 -0.3780 -0.6397  0.5978
 5160SOL     OW22520   9.972   8.993   2.048 -0.0046 -0.4743 -0.7211
 5160SOL    HW122521   9.923   9.042   1.976  0.6127 -1.3257 -1.7241
 5160SOL    HW222522   9.933   8.902   2.058 -1.7618  0.4733  1.7664
 5162SOL     OW22523   4.041   2.713   1.354 -0.2832  0.3652  0.4533
 5162SOL    HW122524   4.077   2.707   1.261  1.9058  0.3271  1.2748
 5162SOL    HW222525   4.037   2.621   1.394 -1.9653  0.2821  0.1614
 5163SOL     OW22526   8.286   3.734   0.467 -0.3164 -0.1023  0.5994
 5163SOL    HW122527   8.242   3.823   0.458  0.3801  0.4778  2.5907
 5163SOL    HW222528   8.351   3.737   0.543 -1.2702 -2.7116  1.5736
 5164SOL     OW22529   6.887   9.528   2.535  0.1497 -0.6926 -0.5322
 5164SOL    HW122530   6.985   9.508   2.544 -0.0313 -0.9245  0.9782
 5164SOL    HW222531   6.845   9.532   2.625 -1.3099 -0.8892 -1.1873
 5166SOL     OW22532   1.171   4.574   2.367 -0.2343 -0.6901  0.3257
 5166SOL    HW122533   1.257   4.558   2.319 -0.1249 -1.3678  0.7409
 5166SOL    HW222534   1.108   4.624   2.307  0.2645 -0.6463 -0.1612
 5167SOL     OW22535   7.884   3.738   0.478 -0.1741  0.0498 -0.5735
 5167SOL    HW122536   7.942   3.669   0.434 -1.3131 -0.7972 -0.7614
 5167SOL    HW222537   7.922   3.759   0.569  1.4296  0.8334 -1.4045
 5168SOL     OW22538   8.404   6.059   0.817  0.0212 -0.6129 -0.0091
 5168SOL    HW122539   8.309   6.032   0.835 -0.6329  2.1733  1.0673
 5168SOL    HW222540   8.411   6.159   0.819  3.3090 -0.8104  1.5890
 5169SOL     OW22541   8.133   7.590   0.753  0.1476  0.6773  0.3727
 5169SOL    HW122542   8.080   7.628   0.829  1.9152  2.9675  0.5200
 5169SOL    HW222543   8.134   7.656   0.677  2.8320  0.7286  0.4150
 5170SOL     OW22544   8.210   0.930   0.197  0.1845 -0.0533 -0.2823
 5170SOL    HW122545   8.167   0.840   0.186  0.2697 -0.2150  0.7201
 5170SOL    HW222546   8.154   0.999   0.150 -0.0843 -0.5688 -0.7247
 5171SOL     OW22547   1.009   4.217   2.312  0.2549 -0.3202 -0.1232
 5171SOL    HW122548   1.098   4.234   2.354 -0.4526  1.3176  0.7212
 5171SOL    HW222549   0.951   4.165   2.376  0.2082 -0.4125 -0.2394
 5173SOL     OW22550   1.140   6.675   1.602  0.4812  0.3968 -0.3744
 5173SOL    HW122551   1.188   6.726   1.674  0.8739 -0.3273 -0.1205
 5173SOL    HW222552   1.042   6.690   1.610  0.6000  1.2475 -0.4024
 5174SOL     OW22553   8.794   4.902   0.926 -0.3040  0.0503 -0.1549
 5174SOL    HW122554   8.868   4.912   0.861  0.5561  0.7663  0.9092
 5174SOL    HW222555   8.819   4.834   0.995 -0.5596  0.4262  0.3110
 5175SOL     OW22556   3.594   1.550   1.645  0.3285  0.1023 -0.1408
 5175SOL    HW122557   3.590   1.561   1.546 -0.6294  0.6749 -0.0460
 5175SOL    HW222558   3.506   1.577   1.685  1.6633  2.7054  1.1237
 5176SOL     OW22559   3.589   1.877   1.948  0.1482 -0.3088 -0.2969
 5176SOL    HW122560   3.574   1.949   1.880 -0.7118 -0.9699 -0.8278
 5176SOL    HW222561   3.666   1.820   1.920  1.2195  0.7707  0.4401
 5177SOL     OW22562   1.611   5.387   0.844  0.2712 -0.1357  0.0719
 5177SOL    HW122563   1.539   5.449   0.875  0.5677 -0.4506  1.4408
 5177SOL    HW222564   1.700   5.430   0.859  0.3800  0.1039 -1.2736
 5178SOL     OW22565   0.020   4.681   0.051 -0.3169 -0.3793  0.1791
 5178SOL    HW122566   0.003   4.764  -0.003 -0.6992 -0.5828 -0.0080
 5178SOL    HW222567  -0.012   4.601   0.001  0.5222 -0.6920  0.1355
 5180SOL     OW22568   3.523   2.445   0.389 -0.5861  0.0414  0.5386
 5180SOL    HW122569   3.538   2.525   0.331  0.8367 -0.9108 -0.4497
 5180SOL    HW222570   3.508   2.474   0.484 -2.3831  1.5800 -0.1885
 5181SOL     OW22571   9.393   8.200   1.501 -0.0101 -0.1091  0.1493
 5181SOL    HW122572   9.484   8.176   1.535 -0.8460 -0.9292  1.8770
 5181SOL    HW222573   9.343   8.117   1.477 -1.1637  0.1637  1.5199
 5182SOL     OW22574   0.121   5.328   0.306 -0.3283  0.0642  0.1576
 5182SOL    HW122575   0.091   5.267   0.380  0.8805  0.8195  1.2881
 5182SOL    HW222576   0.220   5.342   0.312 -0.3463  0.8157 -1.0952
 5183SOL     OW22577   1.806   7.730   1.072 -0.2600  0.0626  0.5679
 5183SOL    HW122578   1.854   7.655   1.027 -0.6959  0.2447 -0.2191
 5183SOL    HW222579   1.708   7.721   1.055 -0.2402  1.2809 -0.2689
 5185SOL     OW22580   9.668   6.062   1.060 -0.2126 -0.4146 -0.5461
 5185SOL    HW122581   9.664   6.031   0.965 -1.1328 -0.4193 -0.5079
 5185SOL    HW222582   9.615   6.001   1.118 -0.2892  0.0289 -0.1462
 5186SOL     OW22583   1.339   3.913   1.946  0.0480 -0.8232  0.0835
 5186SOL    HW122584   1.285   3.829   1.951 -0.6584 -0.5373 -2.2637
 5186SOL    HW222585   1.328   3.955   1.856  1.9659  0.7534  0.5462
 5187SOL     OW22586   7.826   2.390   2.657  0.7991 -0.2802  0.1710
 5187SOL    HW122587   7.826   2.322   2.583 -1.4862 -0.4740  0.3124
 5187SOL    HW222588   7.916   2.431   2.664  1.7758 -2.1411 -1.0041
 5188SOL     OW22589   8.669   4.261   1.380 -0.0835 -0.0183 -0.5003
 5188SOL    HW122590   8.699   4.242   1.473 -1.3319 -0.8001 -0.2553
 5188SOL    HW222591   8.624   4.181   1.341 -1.4199  0.9594 -1.0349
 5189SOL     OW22592   3.947   1.377   2.455  0.0973 -0.2081  0.4117
 5189SOL    HW122593   3.866   1.389   2.397 -0.9962 -0.0837  1.9271
 5189SOL    HW222594   3.946   1.285   2.494  1.2416 -0.5571 -0.3626
 5191SOL     OW22595   9.821   1.296   2.508 -0.2736 -0.6641 -0.2179
 5191SOL    HW122596   9.888   1.228   2.480  1.5055  1.4784 -1.2763
 5191SOL    HW222597   9.735   1.280   2.460  0.2187 -1.9830 -0.6689
 5196SOL     OW22598   2.508   6.036   0.230 -0.5190  0.3165  0.4159
 5196SOL    HW122599   2.426   6.077   0.269 -0.5946  0.0312  0.5661
 5196SOL    HW222600   2.482   5.970   0.159 -0.3541  1.2541 -0.5237
 5197SOL     OW22601   1.592   5.386   0.575  0.3106  0.4808  0.6622
 5197SOL    HW122602   1.602   5.387   0.675 -2.0238  2.3496  0.9169
 5197SOL    HW222603   1.536   5.309   0.548  0.6394  0.1846  0.8127
 5198SOL     OW22604   9.127   4.700   0.500 -0.0499 -0.8659 -0.7208
 5198SOL    HW122605   9.106   4.759   0.422  0.0823 -1.1903 -1.0042
 5198SOL    HW222606   9.042   4.666   0.540 -0.1310 -0.4462 -0.5235
 5199SOL     OW22607   8.436   7.518   0.017  0.0076 -0.3869  0.4083
 5199SOL    HW122608   8.534   7.525  -0.001 -0.1217 -0.2947 -0.2715
 5199SOL    HW222609   8.420   7.453   0.092  0.5152 -1.2662 -0.2314
 5200SOL     OW22610   8.902   8.629   1.878 -0.0760 -0.1815 -0.1355
 5200SOL    HW122611   8.885   8.668   1.788  0.6380  0.8910  0.1948
 5200SOL    HW222612   8.992   8.585   1.879  0.6515  1.3150  0.5648
 5201SOL     OW22613   7.992   1.877   1.399 -0.0212  0.1429 -0.4745
 5201SOL    HW122614   7.905   1.829   1.388 -0.7336  1.0664  0.9776
 5201SOL    HW222615   8.007   1.938   1.321 -1.1593  0.7078 -0.2618
 5202SOL     OW22616   0.195   3.796   2.013  0.5866  0.1508  0.3292
 5202SOL    HW122617   0.292   3.773   2.029 -0.4527 -3.5781  1.9144
 5202SOL    HW222618   0.155   3.728   1.952 -1.2465  1.1705  0.3791
 5203SOL     OW22619   4.258   2.176   2.461 -0.0257 -0.0869  0.3047
 5203SOL    HW122620   4.217   2.086   2.454 -1.2393  0.5829 -1.5503
 5203SOL    HW222621   4.333   2.184   2.396 -1.6855  1.1372 -1.5073
 5204SOL     OW22622   0.077   5.780   1.828  0.3051  0.5230  0.0642
 5204SOL    HW122623   0.153   5.841   1.805  0.1789  0.8284  0.4530
 5204SOL    HW222624   0.086   5.751   1.923 -0.3685  1.0093  0.2782
 5205SOL     OW22625   0.535   3.458   0.188  0.0916 -0.1970 -0.2902
 5205SOL    HW122626   0.592   3.390   0.235 -2.1431 -1.8282  0.1053
 5205SOL    HW222627   0.561   3.550   0.219  1.8608 -0.9549  0.5676
 5206SOL     OW22628   3.548   7.001   0.589 -0.3140 -0.4874  0.4957
 5206SOL    HW122629   3.485   7.071   0.556 -2.5637 -2.6995 -0.0339
 5206SOL    HW222630   3.617   6.983   0.519 -0.7357 -0.0057 -0.0482
 5208SOL     OW22631   4.463   2.247   1.951 -0.3821 -0.2611 -0.1154
 5208SOL    HW122632   4.544   2.191   1.932  0.1098 -0.4129  2.2818
 5208SOL    HW222633   4.492   2.340   1.973 -0.9422 -0.0251 -0.3837
 5209SOL     OW22634   0.437   6.197   1.427 -0.0396 -0.0361  0.2387
 5209SOL    HW122635   0.472   6.159   1.341  0.0574  0.4218  0.0758
 5209SOL    HW222636   0.443   6.127   1.499  0.8644 -0.0776  0.1232
 5210SOL     OW22637   2.281   9.045   2.454  0.2169 -0.4214 -0.3303
 5210SOL    HW122638   2.302   8.995   2.538  2.0143 -0.1455 -0.5803
 5210SOL    HW222639   2.355   9.030   2.388 -0.3282  0.7576 -1.2157
 5211SOL     OW22640   1.911   3.654   2.656 -0.4473 -0.9725 -0.2069
 5211SOL    HW122641   1.857   3.735   2.677  1.3833  0.4988 -1.0428
 5211SOL    HW222642   1.885   3.617   2.567  0.6297  0.3443 -1.0730
 5212SOL     OW22643   2.226   0.003   0.681 -0.2471 -0.2629 -0.7562
 5212SOL    HW122644   2.214   0.061   0.600  0.6929  1.1937  0.1248
 5212SOL    HW222645   2.308  -0.053   0.669 -0.0064  0.0818 -0.7552
 5213SOL     OW22646   8.204   5.195   0.360 -0.2600  0.0960  0.3207
 5213SOL    HW122647   8.203   5.173   0.458  1.1211 -1.1941  0.0525
 5213SOL    HW222648   8.239   5.117   0.308  0.0086  1.1448 -1.1097
 5214SOL     OW22649   9.993   2.074   0.193  0.4847 -0.1701  0.1399
 5214SOL    HW122650   9.920   2.095   0.128  0.8007 -2.5733 -1.0390
 5214SOL    HW222651   9.954   2.068   0.285 -0.3129  1.2481 -0.0786
 5215SOL     OW22652   9.861   3.346   0.071 -0.2079  0.4703 -0.1151
 5215SOL    HW122653   9.803   3.383  -0.002  1.1410 -0.3011 -1.6164
 5215SOL    HW222654   9.856   3.247   0.070  1.0348  0.4008 -0.2005
 5216SOL     OW22655   4.284   9.038   2.624 -0.1518  0.4507 -0.0154
 5216SOL    HW122656   4.297   9.067   2.529 -1.8053  1.9969  0.2079
 5216SOL    HW222657   4.224   8.957   2.626  0.9161 -0.3701 -0.3443
 5218SOL     OW22658   7.692   8.712   1.999 -0.0253  0.5571  0.0938
 5218SOL    HW122659   7.617   8.695   2.064 -0.9543  2.8648 -0.3085
 5218SOL    HW222660   7.749   8.630   1.991 -2.6045 -1.3222  0.2934
 5221SOL     OW22661   7.599   9.561   2.487  0.7023  0.3398 -0.1676
 5221SOL    HW122662   7.538   9.634   2.518  0.6410  0.4697 -0.5939
 5221SOL    HW222663   7.576   9.536   2.393 -0.2905 -1.3030  0.4902
 5222SOL     OW22664   9.624   6.826   1.691 -0.7667 -1.0007 -0.1427
 5222SOL    HW122665   9.627   6.903   1.755 -0.0906 -1.6730  0.6534
 5222SOL    HW222666   9.681   6.752   1.726  0.5954 -0.9209 -2.1542
 5223SOL     OW22667   7.305   9.651   1.402 -0.1330 -0.4305 -0.0296
 5223SOL    HW122668   7.280   9.583   1.333  1.5606 -2.3289  1.1718
 5223SOL    HW222669   7.243   9.643   1.480 -0.8593  0.4349 -0.5077
 5227SOL     OW22670   1.230   1.064   0.291  0.0827  0.5090 -0.3264
 5227SOL    HW122671   1.169   1.004   0.240 -0.7479  0.4765  0.7071
 5227SOL    HW222672   1.193   1.157   0.290  0.8036  0.7960 -0.9876
 5228SOL     OW22673   1.531   7.647   1.380 -0.4421  0.2713 -0.2756
 5228SOL    HW122674   1.552   7.734   1.336  0.8762 -0.1194 -0.4509
 5228SOL    HW222675   1.595   7.577   1.348  1.2053  0.1973  2.9051
 5229SOL     OW22676   9.830   2.313   0.540 -0.4367  0.3717 -0.3161
 5229SOL    HW122677   9.859   2.220   0.517  0.4086  0.3725  0.7232
 5229SOL    HW222678   9.848   2.331   0.637  0.9676  2.1660 -0.8710
 5230SOL     OW22679   8.545   8.706   2.104  0.5157  0.4019 -0.5241
 5230SOL    HW122680   8.606   8.629   2.086  1.2292  0.8437 -0.0104
 5230SOL    HW222681   8.598   8.786   2.130 -0.2974  0.6573  0.4054
 5231SOL     OW22682   3.986   8.999   1.976  0.6042  0.5071 -0.1125
 5231SOL    HW122683   3.926   9.034   1.904 -1.0530 -2.4543 -0.2671
 5231SOL    HW222684   3.973   9.053   2.059 -0.0151  1.7939 -1.0257
 5233SOL     OW22685   3.832   9.856   0.686 -0.2415 -0.0806  0.0285
 5233SOL    HW122686   3.926   9.882   0.708  0.3880  0.3038 -2.8012
 5233SOL    HW222687   3.775   9.938   0.682 -0.1563 -0.0442 -0.5336
 5234SOL     OW22688   0.547   6.066   2.640  0.0288 -0.4599  0.5204
 5234SOL    HW122689   0.499   6.152   2.620 -0.6252 -0.9235  0.0446
 5234SOL    HW222690   0.612   6.080   2.714  0.7697  0.7346 -0.3370
 5235SOL     OW22691   9.033   3.802   0.312 -0.3453 -0.2435  0.4595
 5235SOL    HW122692   9.026   3.704   0.294  3.0884 -0.8824  2.0940
 5235SOL    HW222693   9.059   3.850   0.229  0.3064 -1.0478  0.1990
 5236SOL     OW22694   2.029   0.004   1.617  0.1931  0.3418 -0.4066
 5236SOL    HW122695   1.994  -0.076   1.667  1.0766  0.3413  0.2329
 5236SOL    HW222696   1.954   0.049   1.570 -0.2234 -1.2482 -1.3118
 5238SOL     OW22697   9.965   0.045   1.120 -0.1282 -0.5494  0.1172
 5238SOL    HW122698  10.045   0.046   1.059  0.5931 -0.5085  1.0526
 5238SOL    HW222699   9.884   0.020   1.068  0.6239 -1.3385 -0.6884
 5239SOL     OW22700   9.730   5.093   2.508 -0.0138 -0.2961 -0.5024
 5239SOL    HW122701   9.686   5.028   2.570 -0.6032  1.5898  1.0815
 5239SOL    HW222702   9.679   5.095   2.422  0.2167 -2.1709 -0.7059
 5243SOL     OW22703   2.363   9.034   1.463 -0.3548 -0.1278 -0.0630
 5243SOL    HW122704   2.306   9.086   1.527  0.7858  1.7423 -0.5177
 5243SOL    HW222705   2.394   8.950   1.507 -2.1956 -0.4350  0.7089
 5244SOL     OW22706   9.087   5.325   1.163 -0.3821  0.4662  0.1445
 5244SOL    HW122707   9.031   5.250   1.126 -1.2474  0.1772  1.9847
 5244SOL    HW222708   9.177   5.290   1.189 -0.5162  0.2274  0.2885
 5245SOL     OW22709   0.485   1.468   2.499 -0.2663  0.2358 -0.6071
 5245SOL    HW122710   0.385   1.470   2.500 -0.3425 -2.1562 -1.1971
 5245SOL    HW222711   0.520   1.457   2.592 -0.5552  0.4867 -0.4685
 5247SOL     OW22712   8.108   2.470   0.411  0.0180  0.4201  0.9080
 5247SOL    HW122713   8.098   2.396   0.476  1.0187 -0.4470  0.0885
 5247SOL    HW222714   8.017   2.506   0.387 -0.5999 -1.5534  0.1685
 5249SOL     OW22715   8.060   7.916   2.527 -0.2382  0.3435 -0.2174
 5249SOL    HW122716   8.030   7.993   2.471 -1.3092  1.0627  1.3110
 5249SOL    HW222717   7.993   7.900   2.600 -0.1823 -2.2078 -0.6684
 5250SOL     OW22718   8.891   9.816   1.467  0.3076 -0.8754  0.0215
 5250SOL    HW122719   8.970   9.839   1.524  1.8838 -1.8682 -1.7271
 5250SOL    HW222720   8.842   9.739   1.507 -0.4131  0.3812  1.6520
 5252SOL     OW22721   7.909   9.089   0.461  0.6056  0.2193  0.1041
 5252SOL    HW122722   7.826   9.043   0.429  0.1171 -1.4800  3.5979
 5252SOL    HW222723   7.988   9.052   0.413 -0.4049  0.1777 -1.5780
 5253SOL     OW22724   1.289   9.370   1.230  0.2573 -0.0685  0.3800
 5253SOL    HW122725   1.278   9.374   1.131 -3.2485 -0.4805  0.7159
 5253SOL    HW222726   1.326   9.457   1.263 -2.1713  1.4745 -0.8853
 5254SOL     OW22727   9.148   5.950   1.745 -0.5569  0.5199 -0.0976
 5254SOL    HW122728   9.189   5.917   1.660 -0.7826  1.5815 -0.6277
 5254SOL    HW222729   9.153   5.878   1.814  4.0059  1.2047  0.4758
 5258SOL     OW22730   3.252   2.238   2.246 -0.1761 -0.1747 -0.3078
 5258SOL    HW122731   3.266   2.147   2.287  1.7207  0.5323  0.6985
 5258SOL    HW222732   3.341   2.278   2.223 -1.0229  1.1927 -1.3275
 5259SOL     OW22733   4.053   4.349   1.683  0.5399  0.0548 -0.2991
 5259SOL    HW122734   3.974   4.311   1.732 -0.9224  1.0073 -1.8378
 5259SOL    HW222735   4.131   4.355   1.744 -1.0034  0.4532  1.6744
 5260SOL     OW22736   1.945   3.677   1.159  0.0249 -0.3174  0.1902
 5260SOL    HW122737   1.995   3.750   1.205 -0.5132 -0.0398  0.3432
 5260SOL    HW222738   1.995   3.648   1.078  0.7023 -0.4219  0.6446
 5261SOL     OW22739   0.588   8.216   1.758  0.0030  0.4010 -0.2017
 5261SOL    HW122740   0.649   8.187   1.684  0.3929  1.9512 -0.4992
 5261SOL    HW222741   0.640   8.272   1.823  0.3462 -3.1115  2.6842
 5262SOL     OW22742   4.720   8.351   1.916 -0.0579 -0.2246  0.2343
 5262SOL    HW122743   4.745   8.423   1.980 -0.3001  0.7210 -0.7061
 5262SOL    HW222744   4.679   8.274   1.965  0.6436  0.0799  1.2996
 5265SOL     OW22745   9.377   3.265   1.285  0.0480 -0.1486  0.1477
 5265SOL    HW122746   9.374   3.361   1.312  0.4705 -0.1552  0.2181
 5265SOL    HW222747   9.448   3.218   1.337  0.8951 -0.1559 -1.0128
 5266SOL     OW22748   3.384   9.642   0.815 -0.8642  0.7647 -0.4705
 5266SOL    HW122749   3.440   9.672   0.738  0.0459  3.2368  1.0991
 5266SOL    HW222750   3.326   9.717   0.845 -2.4427 -0.6967  0.2168
 5267SOL     OW22751   8.757   0.291   0.121 -0.8340 -0.9976 -0.2934
 5267SOL    HW122752   8.757   0.321   0.025  2.2193  0.1522  0.0039
 5267SOL    HW222753   8.666   0.305   0.160 -2.2688 -1.8784 -3.1058
 5268SOL     OW22754   8.547   4.662   0.160 -0.4502  0.1749  0.0169
 5268SOL    HW122755   8.510   4.586   0.214  0.3055  0.6413  1.2003
 5268SOL    HW222756   8.545   4.746   0.215  0.3931  0.6386 -0.6624
 5269SOL     OW22757   2.743   9.593   2.165 -0.2521  0.1422  0.0821
 5269SOL    HW122758   2.669   9.651   2.198 -0.9953 -1.5436  1.4459
 5269SOL    HW222759   2.705   9.507   2.130  0.9170  0.0334 -0.9685
 5270SOL     OW22760   8.883   2.190   1.317  0.0200  0.7907  0.4357
 5270SOL    HW122761   8.805   2.244   1.350 -0.4826 -0.3327  1.1028
 5270SOL    HW222762   8.910   2.124   1.387  0.8108  0.3665 -0.2652
 5272SOL     OW22763   9.337   4.371   1.935  0.0241  0.3512  0.0973
 5272SOL    HW122764   9.274   4.328   2.000  1.9997 -0.8831  1.2139
 5272SOL    HW222765   9.295   4.455   1.900 -1.2652  0.8013  2.6095
 5273SOL     OW22766   8.600   5.670   2.134 -0.4988  0.0578  0.5849
 5273SOL    HW122767   8.640   5.630   2.218  0.2998 -0.2950  0.0499
 5273SOL    HW222768   8.519   5.618   2.108  0.5844 -1.3015 -0.1539
 5274SOL     OW22769   0.389   5.186   2.633 -0.6550  0.1481  0.2310
 5274SOL    HW122770   0.291   5.187   2.653 -1.2465 -1.1793 -2.3708
 5274SOL    HW222771   0.424   5.279   2.633 -1.8838  0.6282  1.3069
 5275SOL     OW22772   2.969   9.222   2.364  0.0499 -0.1375 -0.0484
 5275SOL    HW122773   2.968   9.231   2.264 -0.7590  0.4491  0.0156
 5275SOL    HW222774   2.902   9.284   2.404  0.3866 -0.3616  0.8659
 5277SOL     OW22775   2.167   1.706   2.519 -0.0963  0.3152  0.3268
 5277SOL    HW122776   2.084   1.676   2.566  0.3926 -1.3739  0.1433
 5277SOL    HW222777   2.148   1.717   2.421 -0.2040  0.3747  0.3542
 5278SOL     OW22778   4.420   7.965   0.667  0.2776  0.2686  0.2613
 5278SOL    HW122779   4.478   8.038   0.704  0.6583  0.3925 -0.5795
 5278SOL    HW222780   4.460   7.931   0.582 -1.9560  1.7658 -1.4429
 5279SOL     OW22781   1.060   4.302   1.326 -0.1369  0.2105 -0.2602
 5279SOL    HW122782   0.973   4.352   1.327  0.3339  1.0541 -0.6757
 5279SOL    HW222783   1.094   4.297   1.232 -0.2059 -0.9576 -0.2325
 5281SOL     OW22784   8.360   8.997   0.057 -0.6142  0.0200 -0.8496
 5281SOL    HW122785   8.270   8.958   0.041 -1.2118  1.5646 -1.4139
 5281SOL    HW222786   8.421   8.928   0.095 -2.0901 -0.9834 -0.2816
 5282SOL     OW22787   9.580   2.425   1.349 -0.3311  0.4551  0.5738
 5282SOL    HW122788   9.484   2.402   1.332 -0.7736  1.8370  1.1509
 5282SOL    HW222789   9.639   2.372   1.288 -1.5311  0.5554 -0.6778
 5283SOL     OW22790   9.551   8.180   1.238  0.1720 -0.0980 -0.6389
 5283SOL    HW122791   9.618   8.254   1.224  0.0779 -0.1116 -1.1934
 5283SOL    HW222792   9.479   8.188   1.169  0.6788 -1.2809 -1.3228
 5285SOL     OW22793   3.100   1.808   2.385  0.3920 -0.1613  0.4684
 5285SOL    HW122794   3.067   1.717   2.360  2.2336 -0.4275 -1.1915
 5285SOL    HW222795   3.023   1.871   2.393 -0.6345 -0.9999 -2.1707
 5286SOL     OW22796   2.118   0.647   0.673 -0.0630 -0.1825 -0.0675
 5286SOL    HW122797   2.054   0.622   0.745 -0.4199 -0.0181 -0.3264
 5286SOL    HW222798   2.164   0.732   0.698  0.5456 -0.6468  0.4266
 5287SOL     OW22799   5.014   8.566   1.896 -0.9463  0.0573  0.0220
 5287SOL    HW122800   5.011   8.521   1.807 -0.2590 -1.0933  0.5795
 5287SOL    HW222801   4.921   8.576   1.932 -1.1120 -0.8220 -0.1553
 5288SOL     OW22802   6.727   9.529   1.933  0.3637  0.9432  0.2213
 5288SOL    HW122803   6.788   9.450   1.929 -0.4938  0.2649  0.1357
 5288SOL    HW222804   6.704   9.549   2.028 -0.6782  0.0761  0.1669
 5290SOL     OW22805   1.764   4.204   0.022  0.1382  0.0943  0.3082
 5290SOL    HW122806   1.725   4.296   0.022 -0.3550 -0.1116  0.5450
 5290SOL    HW222807   1.843   4.201   0.083  1.5070  0.9162 -1.3805
 5291SOL     OW22808   2.993   3.241   2.487 -0.3771 -0.4917 -0.1748
 5291SOL    HW122809   2.951   3.254   2.576 -0.9119  2.9035 -0.8798
 5291SOL    HW222810   2.951   3.302   2.420  2.3550 -0.4950 -2.0016
 5293SOL     OW22811   1.319   7.381   0.586 -0.0184  0.0301  0.7709
 5293SOL    HW122812   1.258   7.308   0.620  1.4516 -1.4935  0.2097
 5293SOL    HW222813   1.274   7.429   0.511 -0.5428 -1.1008  0.3379
 5294SOL     OW22814   1.313   2.320   1.114 -0.2148 -0.1492 -0.1983
 5294SOL    HW122815   1.352   2.245   1.061  0.6092 -0.7276  1.2120
 5294SOL    HW222816   1.360   2.327   1.202  0.3300  2.5810 -0.6511
 5295SOL     OW22817   8.517   6.209   1.575 -0.5096 -0.6095 -0.2041
 5295SOL    HW122818   8.461   6.253   1.644 -0.1242 -0.3803 -0.0358
 5295SOL    HW222819   8.546   6.277   1.507  0.6869 -0.4583  0.4525
 5296SOL     OW22820   1.077   6.606   2.143  0.3842  0.5604 -0.6857
 5296SOL    HW122821   1.096   6.698   2.109  1.4034  0.2310 -1.0533
 5296SOL    HW222822   1.162   6.564   2.175  0.1760 -0.7237 -1.7296
 5297SOL     OW22823   8.375   7.696   1.214  0.1507 -0.0728  0.1227
 5297SOL    HW122824   8.391   7.677   1.311  0.4783  0.0655  0.0974
 5297SOL    HW222825   8.450   7.752   1.179  0.7149 -1.2183 -0.5319
 5298SOL     OW22826   7.949   9.646   2.647 -0.3643 -0.0473  0.3928
 5298SOL    HW122827   7.987   9.562   2.609 -0.8362 -0.8496  1.6687
 5298SOL    HW222828   7.998   9.724   2.608  0.9730 -0.9592  0.1772
 5299SOL     OW22829   2.213   0.545   0.288 -0.3588  0.0647 -0.2518
 5299SOL    HW122830   2.246   0.551   0.382 -0.7535  1.7619 -0.2050
 5299SOL    HW222831   2.278   0.589   0.226 -0.5781 -0.1607 -0.6480
 5300SOL     OW22832   0.427   7.061   1.354  0.1758  1.1682  0.6689
 5300SOL    HW122833   0.407   7.112   1.437 -1.7794  1.3792  0.0940
 5300SOL    HW222834   0.359   7.084   1.284  1.9136  1.1536 -1.0555
 5301SOL     OW22835   2.022   1.453   0.447 -0.2623  0.9451 -0.1255
 5301SOL    HW122836   2.101   1.446   0.507  1.1759  0.9523 -1.9728
 5301SOL    HW222837   1.998   1.363   0.412 -1.1378  0.9287  0.4906
 5302SOL     OW22838   8.730   2.386   0.432  0.1582 -0.5661 -0.8342
 5302SOL    HW122839   8.733   2.287   0.445  0.1139 -0.3037  1.4314
 5302SOL    HW222840   8.766   2.410   0.342  1.3252 -2.5407 -0.8980
 5304SOL     OW22841   2.984   7.584   0.812 -0.2213  0.3525  0.2740
 5304SOL    HW122842   3.078   7.552   0.802 -0.0566  1.2533 -1.2164
 5304SOL    HW222843   2.953   7.569   0.906  0.6686 -1.9068  0.2299
 5305SOL     OW22844   3.578   5.891   0.398 -0.4877 -0.5088 -0.1084
 5305SOL    HW122845   3.676   5.897   0.380 -0.4553 -0.7658 -0.0285
 5305SOL    HW222846   3.562   5.834   0.479 -0.6475  0.3415  0.4630
 5306SOL     OW22847   9.134   4.281   0.395 -0.2383  0.0013  0.1466
 5306SOL    HW122848   9.190   4.311   0.472 -0.0548  0.5914 -0.2084
 5306SOL    HW222849   9.063   4.350   0.377  0.2251  0.2657 -0.7190
 5307SOL     OW22850   0.660   7.494   1.191  0.4585  0.4646 -0.5133
 5307SOL    HW122851   0.737   7.534   1.241  1.0045  0.8528 -1.6616
 5307SOL    HW222852   0.628   7.559   1.122  0.1894 -0.3781 -1.1848
 5309SOL     OW22853   3.516   2.966   1.932  0.3732 -0.0209  0.3417
 5309SOL    HW122854   3.596   2.953   1.991 -0.8227 -0.1516  1.9853
 5309SOL    HW222855   3.451   2.892   1.949  0.6539 -0.9336 -2.2907
 5310SOL     OW22856   2.008   7.271   0.484 -0.5383 -0.0544 -0.9583
 5310SOL    HW122857   2.071   7.339   0.518  2.6640 -2.1559 -2.4427
 5310SOL    HW222858   1.982   7.208   0.557  1.0708 -0.6494 -0.8973
 5311SOL     OW22859   0.480   8.330   2.545  0.3615  0.2981 -0.0135
 5311SOL    HW122860   0.520   8.350   2.634  2.2009 -2.6427 -0.1275
 5311SOL    HW222861   0.512   8.397   2.478  0.7080  1.2141  1.0617
 5312SOL     OW22862   2.481   2.329   1.107  0.2212  0.1520  0.1626
 5312SOL    HW122863   2.529   2.411   1.138  0.2945  0.5465 -0.9807
 5312SOL    HW222864   2.546   2.266   1.065  0.0267 -0.1223  0.2714
 5313SOL     OW22865   8.953   9.527   0.898 -0.7723  0.5464 -0.7876
 5313SOL    HW122866   8.895   9.455   0.860 -0.1883 -0.2747 -0.1564
 5313SOL    HW222867   8.927   9.615   0.859 -2.5852  0.2245 -0.3374
 5314SOL     OW22868   1.237   4.893   2.263 -0.1502  0.3891 -0.9319
 5314SOL    HW122869   1.216   4.944   2.346 -2.1779  1.5903 -2.1491
 5314SOL    HW222870   1.336   4.897   2.245  0.3547 -0.1821  1.5774
 5315SOL     OW22871   0.400   3.293   0.031 -0.2270 -0.7509  0.1867
 5315SOL    HW122872   0.451   3.357   0.088  2.1566 -0.8905 -1.7340
 5315SOL    HW222873   0.302   3.308   0.044  0.2864  2.0344  1.1697
 5317SOL     OW22874   8.018   1.984   2.003 -0.4056 -0.7040 -0.2403
 5317SOL    HW122875   8.009   1.915   2.074 -0.1213 -0.5975 -0.1011
 5317SOL    HW222876   8.079   1.950   1.931 -2.2377 -1.6090 -1.4061
 5318SOL     OW22877   8.694   9.066   1.321 -0.2723 -0.1309 -0.1444
 5318SOL    HW122878   8.719   9.050   1.225  0.1253 -0.7793  0.0647
 5318SOL    HW222879   8.611   9.013   1.343  0.0012 -0.4849  0.0423
 5320SOL     OW22880   0.630   2.338   0.739 -0.5498  0.2424  0.4951
 5320SOL    HW122881   0.636   2.390   0.654 -0.6946  0.2009  0.4582
 5320SOL    HW222882   0.599   2.398   0.813 -1.2584  0.0816  0.3315
 5321SOL     OW22883   0.100   2.227   2.498  0.0520  0.9023  0.6271
 5321SOL    HW122884   0.088   2.324   2.478  2.7364  0.8304 -1.6847
 5321SOL    HW222885   0.120   2.177   2.413  1.7312 -1.1486  2.1614
 5324SOL     OW22886   2.272   6.688   1.238  0.1894 -0.0634 -0.6049
 5324SOL    HW122887   2.316   6.760   1.291  0.5321 -1.4887  1.1142
 5324SOL    HW222888   2.333   6.609   1.232 -1.5051 -1.5235  0.5792
 5325SOL     OW22889   1.701   2.273   1.452 -0.5556  0.5474  0.1666
 5325SOL    HW122890   1.652   2.217   1.385 -0.0235  0.6696 -0.3302
 5325SOL    HW222891   1.799   2.270   1.431 -0.5314  1.6593  0.1418
 5326SOL     OW22892   0.291   5.701   0.415 -0.0348 -0.1233  0.8564
 5326SOL    HW122893   0.200   5.660   0.420 -0.3174  0.0075 -2.1549
 5326SOL    HW222894   0.353   5.654   0.478 -1.7354 -1.4275  1.5782
 5328SOL     OW22895   0.657   9.221   0.276 -0.4709 -0.3954  0.3894
 5328SOL    HW122896   0.633   9.262   0.364 -1.6708  0.1583 -0.1793
 5328SOL    HW222897   0.580   9.168   0.242 -0.4794  0.4402 -0.9255
 5329SOL     OW22898   1.421   8.840   0.089  0.3287  0.5055 -0.1427
 5329SOL    HW122899   1.364   8.765   0.057  2.5175 -1.4558  0.4532
 5329SOL    HW222900   1.454   8.893   0.010 -0.5042  0.3132 -0.6239
 5331SOL     OW22901   9.730   4.527   1.905 -0.2406  0.2699 -0.1550
 5331SOL    HW122902   9.736   4.430   1.925 -0.5200  0.0611 -1.0789
 5331SOL    HW222903   9.634   4.555   1.905 -0.1903  0.4415 -0.3767
 5332SOL     OW22904   1.930   4.590   1.371  0.2066 -0.1295 -0.0377
 5332SOL    HW122905   1.911   4.681   1.332  0.2798  0.8124  2.0662
 5332SOL    HW222906   2.027   4.570   1.361  0.6434  1.0509  1.5219
 5333SOL     OW22907   1.110   7.249   1.836  0.0045 -0.0990 -0.4151
 5333SOL    HW122908   1.125   7.346   1.818 -2.1749  0.5497  1.0303
 5333SOL    HW222909   1.163   7.221   1.916  1.2510 -0.3072 -1.3058
 5334SOL     OW22910   4.887   0.692   1.992  0.8317 -0.1666 -0.1790
 5334SOL    HW122911   4.967   0.744   2.022  1.0226 -0.6794  0.2054
 5334SOL    HW222912   4.810   0.711   2.053  0.9147 -0.3664 -0.0096
 5335SOL     OW22913   0.475   7.091   0.092  0.0614  0.0086 -0.1074
 5335SOL    HW122914   0.444   7.072  -0.001  0.3182  1.4377 -0.5021
 5335SOL    HW222915   0.448   7.184   0.117  2.1021  0.4823  0.3625
 5337SOL     OW22916   2.137   1.622   0.743 -0.6825  0.2777 -0.6613
 5337SOL    HW122917   2.151   1.559   0.820  0.7278  1.1877 -0.1629
 5337SOL    HW222918   2.040   1.647   0.738 -1.1989 -1.6357 -0.6384
 5338SOL     OW22919   2.963   2.505   0.677 -0.0878  0.0715 -0.0744
 5338SOL    HW122920   3.000   2.417   0.705 -1.7904 -1.1813 -1.6313
 5338SOL    HW222921   2.875   2.492   0.632 -0.8192  2.6635  0.4738
 5339SOL     OW22922   9.452   4.940   2.014  0.4087  0.2347  0.3378
 5339SOL    HW122923   9.417   5.033   2.028  0.4556  0.1232  1.2280
 5339SOL    HW222924   9.527   4.942   1.948 -0.8766  0.5633 -1.1348
 5342SOL     OW22925   7.610   4.494   0.153 -0.0404 -0.2319  0.6303
 5342SOL    HW122926   7.597   4.396   0.169 -1.9515  0.4224  3.4443
 5342SOL    HW222927   7.673   4.531   0.220  0.0337  0.6348  0.0891
 5343SOL     OW22928   8.579   0.601   1.414  0.4059 -0.5095  0.1215
 5343SOL    HW122929   8.570   0.502   1.427  3.3876 -0.9369 -0.5910
 5343SOL    HW222930   8.510   0.633   1.349 -1.9164 -1.7406  1.9307
 5344SOL     OW22931   3.968   9.216   2.629 -0.9379 -0.0209  0.2697
 5344SOL    HW122932   4.060   9.182   2.650 -0.9170 -0.5175 -0.5969
 5344SOL    HW222933   3.965   9.247   2.534 -2.0499 -1.3434 -0.1482
 5345SOL     OW22934   2.992   7.204   2.675 -0.3683  0.2956 -0.3150
 5345SOL    HW122935   2.967   7.118   2.719  0.6552  0.4915  0.6811
 5345SOL    HW222936   3.086   7.198   2.642 -0.3410  0.9851 -0.3602
 5346SOL     OW22937   7.428   9.378   0.617  0.3223  0.2113 -0.4057
 5346SOL    HW122938   7.462   9.295   0.661 -1.3166 -1.5139 -2.2921
 5346SOL    HW222939   7.364   9.424   0.678  1.0111 -0.0745  0.5396
 5347SOL     OW22940   9.221   9.075   1.930  0.2420 -0.0180  0.3728
 5347SOL    HW122941   9.270   8.989   1.948 -1.5972 -0.8285  1.6399
 5347SOL    HW222942   9.124   9.063   1.950 -0.7548  1.1805 -3.3271
 5348SOL     OW22943   9.833   0.176   2.129 -0.3250 -0.5625  0.3568
 5348SOL    HW122944   9.894   0.256   2.135 -0.8996 -0.0007 -1.1214
 5348SOL    HW222945   9.856   0.122   2.048 -0.2735 -1.6379  1.0802
 5349SOL     OW22946   3.716   5.155   0.371  0.3445  0.1446 -0.6680
 5349SOL    HW122947   3.716   5.121   0.277  2.1548 -1.2833 -0.1857
 5349SOL    HW222948   3.810   5.160   0.404 -0.2861  0.4956  1.1137
 5350SOL     OW22949   0.016   4.827   1.710  0.3838 -0.0299 -0.3455
 5350SOL    HW122950   0.063   4.804   1.796  0.8004  1.3707 -0.1894
 5350SOL    HW222951   0.083   4.827   1.636  0.5813  1.5315 -0.1942
 5356SOL     OW22952   3.338   4.555   1.014  0.0760 -0.0890  0.0295
 5356SOL    HW122953   3.293   4.504   0.941 -1.0266  0.4169  0.3276
 5356SOL    HW222954   3.432   4.575   0.988 -0.8721  1.8080 -2.1447
 5357SOL     OW22955   0.287   5.959   1.751 -0.5664  0.1315 -0.3506
 5357SOL    HW122956   0.381   5.973   1.720 -0.5421  3.1199  0.9522
 5357SOL    HW222957   0.257   6.038   1.804 -3.3849 -1.3546  0.3625
 5358SOL     OW22958   2.420   4.210   0.857 -0.5404  0.4889  0.4625
 5358SOL    HW122959   2.449   4.187   0.765 -1.0001  2.2889 -0.1505
 5358SOL    HW222960   2.327   4.248   0.854  0.6102  3.4653  1.2635
 5360SOL     OW22961   8.471   1.239   2.412  0.0485 -1.3193  0.2048
 5360SOL    HW122962   8.490   1.281   2.501  1.8451  0.5556 -1.0187
 5360SOL    HW222963   8.399   1.291   2.365 -0.0051 -1.5607  0.0148
 5361SOL     OW22964   3.134   5.561   1.541 -0.8725  0.0970  0.3465
 5361SOL    HW122965   3.195   5.482   1.539 -1.1694 -0.1176 -1.9071
 5361SOL    HW222966   3.133   5.605   1.451 -2.6150  1.2086  0.8757
 5362SOL     OW22967   0.085   1.097   0.785 -0.0732  0.6211  0.1514
 5362SOL    HW122968   0.079   1.104   0.685 -0.7512  2.2255  0.2788
 5362SOL    HW222969   0.171   1.053   0.810 -0.6814 -1.3910 -1.1797
 5363SOL     OW22970   3.723   8.309   0.465  0.3323 -0.3888  0.1168
 5363SOL    HW122971   3.645   8.290   0.406  0.2763  0.0191  0.0589
 5363SOL    HW222972   3.733   8.408   0.476  0.8645 -0.4382  0.0878
 5365SOL     OW22973   3.886   8.779   1.504  0.2650 -0.5746 -0.1150
 5365SOL    HW122974   3.953   8.847   1.532 -0.4556  0.1616 -0.1508
 5365SOL    HW222975   3.807   8.825   1.462 -0.4860 -1.3824  0.3946
 5367SOL     OW22976   1.386   0.383   1.664  0.1867  0.1712  0.1051
 5367SOL    HW122977   1.319   0.417   1.730  1.5282  0.5042  1.3059
 5367SOL    HW222978   1.350   0.301   1.620 -1.8763  1.4841 -0.7558
 5368SOL     OW22979   4.311   7.379   0.255  0.3999 -0.1014 -0.1482
 5368SOL    HW122980   4.247   7.429   0.197  0.8436 -1.1224 -1.5431
 5368SOL    HW222981   4.329   7.432   0.338 -1.3828  0.7085 -0.2455
 5369SOL     OW22982   8.311   7.338   2.586 -0.2838 -1.0339  0.1620
 5369SOL    HW122983   8.357   7.402   2.647 -0.3043 -0.6814 -0.1888
 5369SOL    HW222984   8.267   7.389   2.512  0.6411 -1.5253 -0.7463
 5371SOL     OW22985   4.660   8.066   2.038  0.0517  0.1371  0.4498
 5371SOL    HW122986   4.714   8.047   1.956  0.0988  1.2797  0.2009
 5371SOL    HW222987   4.721   8.094   2.113  0.1115 -1.9797  1.2168
 5372SOL     OW22988   9.786   8.123   2.546 -0.4820  0.6635  0.0194
 5372SOL    HW122989   9.716   8.098   2.479 -0.3490 -1.0248  0.5021
 5372SOL    HW222990   9.863   8.167   2.499 -0.6261 -0.0098 -0.8615
 5373SOL     OW22991   2.602   2.562   1.216 -0.2684 -0.0804 -0.5012
 5373SOL    HW122992   2.556   2.648   1.192 -2.0104 -0.3885  1.5995
 5373SOL    HW222993   2.611   2.555   1.315  3.8609 -0.3311 -0.8091
 5375SOL     OW22994   2.550   3.562   2.056  0.2088 -0.3329  0.4486
 5375SOL    HW122995   2.594   3.530   2.139 -0.3308 -2.5249 -0.0764
 5375SOL    HW222996   2.617   3.569   1.982  0.3677 -0.0601  0.6206
 5377SOL     OW22997   8.770   6.792   0.698  0.2058  0.1608  0.0386
 5377SOL    HW122998   8.761   6.721   0.627  0.1193  0.2484 -0.0381
 5377SOL    HW222999   8.774   6.749   0.788 -0.0163  0.0674  0.0037
 5379SOL     OW23000   9.232   6.164   1.396 -0.3803 -0.3495 -0.0108
 5379SOL    HW123001   9.331   6.150   1.393 -0.3085  0.0911  0.2800
 5379SOL    HW223002   9.186   6.076   1.414  0.0112 -0.3668  0.8876
 5380SOL     OW23003   3.072   6.172   2.220  0.0447  1.1694  0.0054
 5380SOL    HW123004   3.078   6.247   2.155  0.7717  1.2461  0.1513
 5380SOL    HW223005   3.087   6.085   2.173 -2.0831  1.0049 -0.3886
 5381SOL     OW23006   1.962   5.838   1.639  0.5370  0.3683 -0.7060
 5381SOL    HW123007   1.870   5.814   1.608 -0.1809  1.5387  0.4848
 5381SOL    HW223008   1.958   5.877   1.731  2.4526 -1.5576  0.2594
 5382SOL     OW23009   2.019   1.285   1.441  0.8216  0.2396 -0.2372
 5382SOL    HW123010   2.054   1.378   1.440  0.5167  0.3689  0.5772
 5382SOL    HW223011   1.972   1.265   1.355  1.5484  0.5755 -0.7169
 5383SOL     OW23012   1.288   4.631   2.608 -0.2917  0.0520 -0.1751
 5383SOL    HW123013   1.231   4.690   2.665  1.1553  1.1167  0.1932
 5383SOL    HW223014   1.241   4.612   2.522 -2.0472 -0.7209  0.9236
 5385SOL     OW23015   0.438   6.464   1.094  0.1621 -0.6809  0.2407
 5385SOL    HW123016   0.393   6.521   1.026 -0.0677 -1.9121 -0.6641
 5385SOL    HW223017   0.380   6.456   1.175  0.7452  1.3550  0.8865
 5386SOL     OW23018   1.412   9.497   0.574 -0.0123  0.4050 -0.2638
 5386SOL    HW123019   1.420   9.411   0.523 -0.2364  0.8774 -1.1118
 5386SOL    HW223020   1.319   9.534   0.563  0.8441  2.1135 -2.1474
 5388SOL     OW23021   2.198   9.955   1.412  0.2684 -0.0846  0.1276
 5388SOL    HW123022   2.146   9.978   1.494  1.2239 -2.6220  1.5040
 5388SOL    HW223023   2.136   9.923   1.340 -0.3776  0.2309  0.5399
 5389SOL     OW23024   9.261   4.871   0.678  0.6736 -0.1323  0.2222
 5389SOL    HW123025   9.310   4.934   0.617 -1.2847 -0.3990 -1.6898
 5389SOL    HW223026   9.237   4.789   0.627 -2.5281  0.3689  0.8586
 5390SOL     OW23027   0.135   0.199   1.744  0.7203 -0.6182 -0.0701
 5390SOL    HW123028   0.138   0.146   1.659 -0.2784 -0.9858  0.1117
 5390SOL    HW223029   0.162   0.141   1.820  1.5612 -0.3037 -0.1250
 5391SOL     OW23030   1.304   4.250   0.776  0.1503  0.6519 -0.3843
 5391SOL    HW123031   1.212   4.209   0.776  0.5091 -0.1979  1.0864
 5391SOL    HW223032   1.299   4.342   0.814 -0.1470  0.7400 -0.6356
 5392SOL     OW23033   3.103   3.122   1.324 -0.6227 -0.3819  0.5843
 5392SOL    HW123034   3.100   3.075   1.412 -0.3577 -1.1758  0.1645
 5392SOL    HW223035   3.143   3.063   1.255 -1.8232 -0.1571 -0.3228
 5394SOL     OW23036   0.676   3.991   1.129 -0.0609 -0.1131 -0.6841
 5394SOL    HW123037   0.646   3.898   1.105  0.4401  0.2679 -2.8475
 5394SOL    HW223038   0.775   3.998   1.117  0.2605  0.0254  1.8137
 5395SOL     OW23039   2.867   7.964   0.099 -0.5537  0.3415  0.7823
 5395SOL    HW123040   2.963   7.946   0.120 -0.5627 -2.7805 -1.5190
 5395SOL    HW223041   2.810   7.893   0.139 -1.7047  0.9057  0.1637
 5396SOL     OW23042   3.114   4.790   1.641  0.4137 -0.4070  0.2278
 5396SOL    HW123043   3.032   4.814   1.693 -0.4301 -0.8412 -0.9014
 5396SOL    HW223044   3.186   4.762   1.705 -0.5109 -0.6318  1.1892
 5397SOL     OW23045   3.754   5.281   1.385 -0.1174 -0.5679 -0.1847
 5397SOL    HW123046   3.671   5.331   1.410  0.0144 -1.0618  1.2703
 5397SOL    HW223047   3.729   5.194   1.342 -0.3539 -1.1511  1.1348
 5398SOL     OW23048   9.129   2.902   0.572  0.0190 -0.2991 -0.4389
 5398SOL    HW123049   9.168   2.952   0.495 -0.8780 -0.4739 -1.0099
 5398SOL    HW223050   9.050   2.849   0.541 -2.2986  2.0938  1.2013
 5400SOL     OW23051   9.572   2.491   1.809  0.4609 -0.0511  0.2656
 5400SOL    HW123052   9.635   2.485   1.886 -0.5805  1.1372  1.2293
 5400SOL    HW223053   9.529   2.581   1.807  0.3653 -0.1007 -1.6343
 5401SOL     OW23054   2.348   6.022   1.392 -0.3155 -0.0155 -0.5234
 5401SOL    HW123055   2.399   6.025   1.477  0.1925  0.1687 -0.8351
 5401SOL    HW223056   2.289   5.941   1.392 -0.8157  0.3499  0.2820
 5402SOL     OW23057   5.859   9.590   2.194  0.3223 -0.2904 -0.6468
 5402SOL    HW123058   5.860   9.689   2.205 -0.4374 -0.2905 -0.5620
 5402SOL    HW223059   5.924   9.549   2.259 -0.0739  0.0873 -0.0057
 5404SOL     OW23060   8.217   9.884   1.230 -0.1689 -0.2793 -0.2420
 5404SOL    HW123061   8.174   9.825   1.298 -1.2524  0.8605  0.0630
 5404SOL    HW223062   8.278   9.948   1.276  0.9677 -1.1062 -0.5712
 5405SOL     OW23063   0.314   0.829   1.389  0.6948 -0.1071 -0.2080
 5405SOL    HW123064   0.253   0.890   1.338 -0.2874 -0.3318  0.6769
 5405SOL    HW223065   0.306   0.849   1.487  2.7589  0.5021 -0.1423
 5409SOL     OW23066   1.756   8.129   2.484  0.0537  0.0745 -0.4929
 5409SOL    HW123067   1.782   8.036   2.511  1.1377  0.2773 -0.8192
 5409SOL    HW223068   1.759   8.136   2.384  0.7328  0.6725 -0.4373
 5410SOL     OW23069   8.007   9.119   1.658 -0.4216  0.1058 -0.3622
 5410SOL    HW123070   8.070   9.181   1.705 -0.7101 -0.8460  1.3427
 5410SOL    HW223071   7.966   9.165   1.579  1.0932  1.2942 -0.4580
 5411SOL     OW23072   0.378   3.689   0.873 -1.2718 -0.1551 -0.3240
 5411SOL    HW123073   0.309   3.645   0.932 -1.0482 -2.0686 -1.4254
 5411SOL    HW223074   0.362   3.787   0.871 -1.6722 -0.1014  2.4230
 5412SOL     OW23075   0.734   7.964   0.022  0.2698  0.3873  0.2673
 5412SOL    HW123076   0.679   8.022   0.082 -3.5576 -0.2028 -2.5146
 5412SOL    HW223077   0.736   8.003  -0.070  1.4311 -1.5445 -0.5610
 5414SOL     OW23078   3.384   2.379   1.477  0.5917 -0.6551  0.0146
 5414SOL    HW123079   3.475   2.355   1.445  0.7378 -0.0203 -0.0383
 5414SOL    HW223080   3.324   2.299   1.467  0.7881 -0.6530 -1.2679
 5416SOL     OW23081   9.285   7.657   1.399 -0.0500 -0.3945  0.0002
 5416SOL    HW123082   9.310   7.561   1.401 -2.7308 -1.1216  0.3313
 5416SOL    HW223083   9.196   7.670   1.443 -0.0824  2.1185 -0.6940
 5417SOL     OW23084   0.248   8.719   2.441 -0.3597 -0.2926 -0.0253
 5417SOL    HW123085   0.256   8.769   2.354  3.5273  1.7859  1.3849
 5417SOL    HW223086   0.172   8.756   2.494 -0.5667  0.8589 -1.1031
 5419SOL     OW23087   7.508   0.187   1.426  0.6247  0.0356 -0.2334
 5419SOL    HW123088   7.467   0.208   1.337  0.4610 -0.8108 -0.3712
 5419SOL    HW223089   7.598   0.145   1.412  0.3135 -0.7189 -0.0326
 5420SOL     OW23090   1.669   1.167   2.660 -0.3571 -0.3532 -0.0596
 5420SOL    HW123091   1.638   1.076   2.632 -0.6471 -0.1688 -0.3443
 5420SOL    HW223092   1.713   1.162   2.750  0.1744 -0.8780 -0.3443
 5422SOL     OW23093   7.090   9.931   1.038  0.7034  0.4988 -0.0043
 5422SOL    HW123094   6.998   9.956   1.008 -0.2402 -1.8861  0.7991
 5422SOL    HW223095   7.085   9.848   1.094  3.5993 -0.9229 -1.7546
 5423SOL     OW23096   9.097   9.389   0.376  0.6927 -0.1709  0.5437
 5423SOL    HW123097   9.072   9.329   0.452  2.0302 -0.5140  0.7294
 5423SOL    HW223098   9.122   9.333   0.297 -0.1084  0.1779  0.0413
 5424SOL     OW23099   9.048   1.565   1.442 -0.3046  0.5158  0.1536
 5424SOL    HW123100   9.007   1.486   1.396  1.3833 -0.3828  0.1789
 5424SOL    HW223101   8.984   1.599   1.511 -0.7528 -1.2736  0.6608
 5425SOL     OW23102   0.327   4.047   1.656 -0.1987  0.0673  0.2295
 5425SOL    HW123103   0.293   4.064   1.564  0.2147  1.4446  0.3185
 5425SOL    HW223104   0.251   4.051   1.721 -0.2505  0.6757  0.1327
 5426SOL     OW23105   9.620   5.922   1.972  0.3994 -0.4248  0.2507
 5426SOL    HW123106   9.552   5.968   1.915  0.0823 -1.6661 -0.3875
 5426SOL    HW223107   9.597   5.935   2.068  0.4671  0.9705  0.0847
 5427SOL     OW23108   9.939   8.058   0.723  0.1227  0.0525  0.1750
 5427SOL    HW123109   9.934   8.094   0.630  0.1381  0.0533  0.1749
 5427SOL    HW223110   9.850   8.068   0.768  0.1945  0.3170  0.2605
 5428SOL     OW23111   0.145   4.145   1.443 -0.0733  0.0132 -0.3811
 5428SOL    HW123112   0.182   4.198   1.519  0.9754 -1.0964 -0.0956
 5428SOL    HW223113   0.184   4.177   1.357 -0.4629  0.5883 -0.3402
 5429SOL     OW23114   2.374   7.659   1.650  0.4639 -0.6090  0.6796
 5429SOL    HW123115   2.394   7.597   1.726 -0.8089 -0.3341  1.2523
 5429SOL    HW223116   2.420   7.746   1.665  2.2450 -1.3889 -0.1169
 5430SOL     OW23117   4.042   1.451   0.609  0.4426  0.2045 -0.4895
 5430SOL    HW123118   4.062   1.353   0.612 -2.8138 -0.5225 -1.2144
 5430SOL    HW223119   4.043   1.488   0.702 -2.4318 -1.4367  0.2586
 5431SOL     OW23120   1.239   6.837   0.645  0.3327  0.7083  0.3530
 5431SOL    HW123121   1.154   6.853   0.696 -0.5187  0.4882 -0.9417
 5431SOL    HW223122   1.309   6.900   0.676 -0.8938  2.2341  0.1230
 5432SOL     OW23123   4.049   8.981   1.550 -0.5993 -0.2366 -0.0762
 5432SOL    HW123124   4.059   8.964   1.452  0.2504 -0.1838 -0.0042
 5432SOL    HW223125   4.092   9.068   1.574  1.6673 -1.5418  0.7818
 5433SOL     OW23126   8.119   9.967   2.123  0.1063  0.6732 -0.1550
 5433SOL    HW123127   8.086   9.873   2.114  1.5949  0.0051  1.1472
 5433SOL    HW223128   8.064  10.015   2.192  1.5600 -0.3393  1.7757
 5434SOL     OW23129   3.154   6.430   0.933  0.6225 -0.1291 -0.0942
 5434SOL    HW123130   3.150   6.389   1.024  0.5041 -0.2866 -0.1698
 5434SOL    HW223131   3.093   6.510   0.930  0.7121 -0.0579 -0.0017
 5435SOL     OW23132   9.526   1.337   2.009  0.4478  0.2947 -0.1579
 5435SOL    HW123133   9.612   1.366   2.051  0.7865  0.3191 -0.8778
 5435SOL    HW223134   9.537   1.247   1.968  0.5527  0.9507 -1.5838
 5436SOL     OW23135   2.464   4.722   0.519 -0.1610  0.1065  0.4697
 5436SOL    HW123136   2.387   4.759   0.572  0.3741  0.6337  0.8786
 5436SOL    HW223137   2.488   4.786   0.446 -0.2799 -0.1898  0.1626
 5438SOL     OW23138   3.517   0.859   1.359 -0.2398  0.9150  0.2513
 5438SOL    HW123139   3.452   0.825   1.291 -0.7267  1.0808  0.6240
 5438SOL    HW223140   3.496   0.955   1.380  0.7313  1.2640 -0.3361
 5439SOL     OW23141   9.851   5.447   2.135 -0.0743  0.7536  0.2140
 5439SOL    HW123142   9.920   5.386   2.097  0.7083  0.7600  1.5849
 5439SOL    HW223143   9.800   5.491   2.061 -0.0867 -0.9180 -0.7780
 5440SOL     OW23144   9.209   4.761   1.533  0.5888  0.0350 -0.0458
 5440SOL    HW123145   9.112   4.740   1.535  0.6388 -0.1846  0.0319
 5440SOL    HW223146   9.225   4.838   1.470  0.3674  0.0692 -0.0608
 5441SOL     OW23147   8.850   8.400   0.904 -0.3204 -0.4797  0.1871
 5441SOL    HW123148   8.834   8.412   0.806 -0.7798  1.2325  0.4535
 5441SOL    HW223149   8.764   8.378   0.949 -0.5123  0.8509  0.4951
 5442SOL     OW23150   2.233   9.705   2.193  0.2604 -0.2330 -0.7652
 5442SOL    HW123151   2.157   9.653   2.232 -0.5319  1.4250 -0.0761
 5442SOL    HW223152   2.232   9.694   2.093 -0.9029 -0.1993 -0.7680
 5443SOL     OW23153   2.328   4.493   1.520 -0.1389 -0.1929  0.4168
 5443SOL    HW123154   2.407   4.475   1.579  0.7756  1.6650 -0.1990
 5443SOL    HW223155   2.262   4.419   1.530  2.4059 -2.6481 -0.3113
 5444SOL     OW23156   9.233   7.119   1.697  0.0263  0.4705 -0.0059
 5444SOL    HW123157   9.272   7.030   1.724  1.3432  0.9002 -0.4726
 5444SOL    HW223158   9.138   7.106   1.669  0.1674 -0.7750  0.0475
 5445SOL     OW23159   8.728   6.959   2.140  0.1198 -0.4210 -0.2863
 5445SOL    HW123160   8.799   6.927   2.078  1.2093 -1.1059  1.2648
 5445SOL    HW223161   8.748   7.053   2.168  0.4744 -0.6322  0.1927
 5446SOL     OW23162   0.080   1.270   0.290  0.2365  0.1969  0.2768
 5446SOL    HW123163   0.175   1.274   0.259  0.1457  0.9107  0.0960
 5446SOL    HW223164   0.021   1.247   0.213  0.2682 -0.3555  0.4113
 5447SOL     OW23165   4.567   2.813   1.060 -1.1252  0.2290  0.0333
 5447SOL    HW123166   4.661   2.811   1.094 -1.2096  1.9296  0.4227
 5447SOL    HW223167   4.538   2.720   1.038  1.0988 -0.1700 -1.3709
 5448SOL     OW23168   6.081   8.508   2.640  0.3086 -0.1035 -0.3001
 5448SOL    HW123169   6.019   8.469   2.709  0.6028 -0.4063 -0.2068
 5448SOL    HW223170   6.034   8.511   2.551 -0.1482  0.4929 -0.0421
 5449SOL     OW23171   1.171   4.293   0.486 -0.3057  0.3889 -0.5317
 5449SOL    HW123172   1.179   4.377   0.432  0.4661 -0.0931 -1.1856
 5449SOL    HW223173   1.196   4.215   0.429 -1.4304 -0.3320 -0.0518
 5450SOL     OW23174   3.477   6.466   1.846  0.0146 -0.3673  0.7126
 5450SOL    HW123175   3.392   6.512   1.822 -1.5809 -1.5671  3.6994
 5450SOL    HW223176   3.539   6.531   1.890 -0.3283 -0.0049  0.6625
 5452SOL     OW23177   4.048   0.728   0.491  0.4924  0.2775 -0.5764
 5452SOL    HW123178   4.140   0.753   0.522  0.3043 -0.3856  0.5497
 5452SOL    HW223179   4.041   0.628   0.487 -0.0103  0.3363 -1.1903
 5453SOL     OW23180   9.200   2.929   2.198  0.4840 -0.1004 -0.1005
 5453SOL    HW123181   9.179   2.893   2.106  1.4285  2.3139 -1.3039
 5453SOL    HW223182   9.297   2.950   2.204  0.6066 -1.1652  1.8204
 5454SOL     OW23183   8.938   1.689   1.678  0.4902  0.5501  0.0290
 5454SOL    HW123184   8.998   1.635   1.738 -2.0139 -1.7339  0.5558
 5454SOL    HW223185   8.897   1.763   1.730  1.0564  0.6974  0.2637
 5456SOL     OW23186   2.007   4.280   2.139  0.2709 -0.2499 -0.0211
 5456SOL    HW123187   1.907   4.277   2.138  0.1957  1.0970  1.0480
 5456SOL    HW223188   2.041   4.228   2.217  0.2898  0.9324  0.7880
 5457SOL     OW23189   9.513   2.340   2.409 -0.4141 -0.1206  0.1382
 5457SOL    HW123190   9.563   2.415   2.366  1.3789 -0.2171  2.0156
 5457SOL    HW223191   9.449   2.301   2.342  0.7590  1.1227 -1.7674
 5458SOL     OW23192   0.960   0.952   0.413 -0.6370  0.4405  0.0056
 5458SOL    HW123193   0.951   0.953   0.314  0.5307  0.0336 -0.1064
 5458SOL    HW223194   0.978   0.859   0.444  2.3642  1.0607  0.2784
 5459SOL     OW23195   0.492   7.306   0.477  0.2682  0.0952 -0.1394
 5459SOL    HW123196   0.591   7.296   0.487  0.1413 -1.6533 -0.3668
 5459SOL    HW223197   0.471   7.386   0.421  1.6801 -1.0577 -2.3987
 5460SOL     OW23198   1.768   0.502   0.382 -0.1911  0.5361  0.8491
 5460SOL    HW123199   1.863   0.488   0.410  0.2629  2.2011  0.1639
 5460SOL    HW223200   1.735   0.420   0.335  1.3128  0.4080 -0.0146
 5462SOL     OW23201   0.209   8.081   0.852 -0.7056  0.0270  0.2474
 5462SOL    HW123202   0.135   8.102   0.789 -1.2555  0.2172  0.9506
 5462SOL    HW223203   0.229   8.162   0.908 -1.8989 -0.8714  2.0191
 5467SOL     OW23204   3.363   7.378   3.439 -0.7112 -0.1899 -0.0485
 5467SOL    HW123205   3.280   7.340   3.397 -1.4183  2.0599 -0.7650
 5467SOL    HW223206   3.388   7.463   3.392  0.4938  0.5393  1.8728
 5468SOL     OW23207   2.751   7.186   0.268 -0.5743  0.0658  0.3001
 5468SOL    HW123208   2.658   7.223   0.280 -0.9349 -0.6322 -0.2964
 5468SOL    HW223209   2.815   7.262   0.257 -0.6808  0.6443  3.2921
 5469SOL     OW23210   1.440   0.596   2.490 -0.0098 -0.3992  0.3271
 5469SOL    HW123211   1.494   0.585   2.407 -0.4294 -0.9611  0.1262
 5469SOL    HW223212   1.501   0.592   2.570  0.5385  1.2854 -0.0004
 5470SOL     OW23213   8.999   1.884   0.964  0.1047 -0.3590  0.5968
 5470SOL    HW123214   8.917   1.924   1.004  1.1715  1.5341  0.9298
 5470SOL    HW223215   9.052   1.838   1.036  0.0546 -0.3540  0.6374
 5471SOL     OW23216   2.100   1.998   2.704  0.5394  0.4228  0.5915
 5471SOL    HW123217   2.159   1.986   2.625  2.7516  2.3209  1.8665
 5471SOL    HW223218   2.004   1.994   2.676  1.2686 -0.5002 -1.8806
 5473SOL     OW23219   8.626   5.214   0.182 -0.1278 -0.4351 -0.8264
 5473SOL    HW123220   8.714   5.231   0.228 -0.7578 -0.4280  0.3891
 5473SOL    HW223221   8.640   5.150   0.107  0.6686 -1.6600  0.3380
 5474SOL     OW23222   2.363   5.355   1.122 -0.6642 -0.4096 -0.5808
 5474SOL    HW123223   2.364   5.262   1.158  1.1814 -0.3878 -0.5150
 5474SOL    HW223224   2.411   5.356   1.034  0.7200  0.7496  0.1683
 5475SOL     OW23225   0.649   6.923   1.262  0.3017  0.6418  0.0709
 5475SOL    HW123226   0.681   6.861   1.334  1.9833  1.8626  0.4174
 5475SOL    HW223227   0.575   6.981   1.297 -0.2205 -0.1073  0.2105
 5476SOL     OW23228   8.154   9.634   1.735 -0.3319  0.5067 -0.5238
 5476SOL    HW123229   8.101   9.713   1.765 -0.1524 -0.2385  1.8919
 5476SOL    HW223230   8.247   9.662   1.713 -0.7458  1.2371 -1.3787
 5477SOL     OW23231   2.068   7.396   0.140  0.1792 -0.2007  0.3080
 5477SOL    HW123232   2.026   7.322   0.086 -0.8896  0.5283  0.1171
 5477SOL    HW223233   2.001   7.432   0.205  1.2790 -0.6677  1.7372
 5478SOL     OW23234   3.670   4.678   1.270  0.2329 -0.2051 -0.0050
 5478SOL    HW123235   3.681   4.777   1.263 -0.7592 -0.0936 -0.0597
 5478SOL    HW223236   3.667   4.638   1.179 -0.8314 -0.1048 -0.0298
 5479SOL     OW23237   9.204   4.548   0.288 -0.3421 -0.0056 -0.2083
 5479SOL    HW123238   9.153   4.529   0.204 -0.7573 -0.7863  0.2169
 5479SOL    HW223239   9.144   4.596   0.352 -0.1626  0.1908 -0.1888
 5480SOL     OW23240   8.158   8.113   2.133 -0.1856 -0.1240  0.0029
 5480SOL    HW123241   8.178   8.210   2.129 -3.5501  0.5885 -1.7219
 5480SOL    HW223242   8.197   8.067   2.053  0.5693 -0.0123  0.3095
 5481SOL     OW23243   8.052   1.829   0.954 -0.3325  0.2772 -0.2428
 5481SOL    HW123244   8.025   1.783   1.039 -2.7861 -1.7340 -2.0205
 5481SOL    HW223245   8.150   1.816   0.940 -0.0777 -0.2252  1.7609
 5482SOL     OW23246   4.106   8.826   2.607  0.3979  0.0312 -0.6191
 5482SOL    HW123247   4.054   8.835   2.522 -0.3322  0.4699 -0.1286
 5482SOL    HW223248   4.058   8.763   2.668  0.1090  0.9367  0.0922
 5486SOL     OW23249   2.576   8.395   1.413 -0.2739 -0.7277  0.0839
 5486SOL    HW123250   2.628   8.372   1.331 -0.3510  1.1506 -0.5210
 5486SOL    HW223251   2.497   8.334   1.421  0.8862 -2.2706 -0.0885
 5488SOL     OW23252   0.136   6.369   0.151 -0.3471 -0.1120 -0.0146
 5488SOL    HW123253   0.200   6.405   0.083 -1.4046 -0.6471 -1.3381
 5488SOL    HW223254   0.083   6.445   0.190 -1.2097  0.0151 -1.3716
 5489SOL     OW23255   3.938   3.143   1.351 -0.2433 -0.2371  0.4471
 5489SOL    HW123256   4.035   3.136   1.329 -0.5426 -0.6687 -0.7819
 5489SOL    HW223257   3.904   3.233   1.325 -0.5695 -0.7044 -0.7620
 5491SOL     OW23258   2.276   3.328   1.478 -0.3115  0.1353  0.1856
 5491SOL    HW123259   2.246   3.419   1.448 -0.7564 -0.1975 -0.3980
 5491SOL    HW223260   2.372   3.315   1.455 -0.8840 -0.4686 -1.9989
 5492SOL     OW23261   9.333   3.578   2.545  0.6427  1.0783 -0.1750
 5492SOL    HW123262   9.248   3.535   2.514  1.4016  0.9091 -2.1050
 5492SOL    HW223263   9.351   3.659   2.489  2.6070  0.1766 -0.9016
 5495SOL     OW23264   8.889   0.294   0.700 -0.1607 -0.2635 -0.0522
 5495SOL    HW123265   8.790   0.287   0.689  0.0708 -0.2930 -2.2121
 5495SOL    HW223266   8.915   0.258   0.790 -2.0308 -0.8465  0.2711
 5497SOL     OW23267   2.388   5.114   1.228  0.4073  0.3297 -0.1124
 5497SOL    HW123268   2.406   5.046   1.157 -2.1900 -1.4035  0.8459
 5497SOL    HW223269   2.422   5.081   1.316  0.8970  1.1656  0.0268
 5499SOL     OW23270   7.918   7.233   0.048 -0.8683  0.7290  0.5073
 5499SOL    HW123271   7.912   7.253  -0.050 -0.3694  2.0611  0.7327
 5499SOL    HW223272   7.910   7.135   0.063  1.2805  0.2890 -1.0532
 5500SOL     OW23273   9.683   4.610   0.446  0.0526 -0.2995  0.0268
 5500SOL    HW123274   9.756   4.611   0.378 -0.2723  0.3540 -0.3168
 5500SOL    HW223275   9.605   4.662   0.412  0.0865  0.4773  1.1196
 5501SOL     OW23276   3.301   2.090   1.506  0.2322 -0.0118 -0.2629
 5501SOL    HW123277   3.393   2.049   1.510 -0.3582 -1.3059  0.3969
 5501SOL    HW223278   3.237   2.023   1.470 -1.2235 -0.5561  3.1669
 5502SOL     OW23279   8.252   8.666   2.215  0.0117 -0.0954  0.0538
 5502SOL    HW123280   8.220   8.739   2.155 -2.4683  1.3284  2.9606
 5502SOL    HW223281   8.352   8.671   2.224  0.1619  1.0486 -2.1111
 5503SOL     OW23282   3.883   9.316   0.616 -0.2599 -0.1034 -0.1128
 5503SOL    HW123283   3.962   9.362   0.657 -0.5593  0.2620  0.0576
 5503SOL    HW223284   3.879   9.222   0.649 -0.5809  0.2252  0.8121
 5505SOL     OW23285   8.802   5.631   0.013  0.2760 -0.1904  0.3607
 5505SOL    HW123286   8.880   5.687  -0.016 -1.1970  0.2768 -2.7968
 5505SOL    HW223287   8.733   5.690   0.055  0.7017 -0.3203  1.2620
 5507SOL     OW23288   2.978   9.635   2.287  0.3147 -0.0373 -0.5345
 5507SOL    HW123289   2.994   9.734   2.282 -0.4713  0.1522  0.4737
 5507SOL    HW223290   2.897   9.612   2.233 -0.9255  0.2256  1.2011
 5508SOL     OW23291   2.591   9.834   2.525  0.1059 -0.3311  0.4047
 5508SOL    HW123292   2.607   9.911   2.587  1.1792 -0.2747  0.0730
 5508SOL    HW223293   2.642   9.754   2.557  0.9074 -0.2190 -0.5433
 5509SOL     OW23294   9.928   0.790   1.453  0.2657  0.2732 -0.7436
 5509SOL    HW123295   9.842   0.764   1.409  1.0379 -0.4643 -1.8557
 5509SOL    HW223296   9.909   0.833   1.541 -1.1837 -1.6832 -0.0617
 5510SOL     OW23297   6.135   0.107   2.242  0.0258  0.4065  0.0358
 5510SOL    HW123298   6.109   0.182   2.182  1.5102 -0.0229 -1.1624
 5510SOL    HW223299   6.190   0.143   2.318 -1.3691  0.8631  0.8594
 5511SOL     OW23300   2.023   7.094   0.076  0.2110 -0.1335 -0.3002
 5511SOL    HW123301   2.089   7.088   0.151 -1.0610  2.4664  1.0699
 5511SOL    HW223302   1.933   7.066   0.109 -0.6521  2.3920 -0.4196
 5513SOL     OW23303   2.033   2.432   2.595  0.5694  0.1227  0.2116
 5513SOL    HW123304   2.032   2.444   2.694  1.3710 -3.2634  0.6986
 5513SOL    HW223305   1.942   2.406   2.563  0.4828  0.4727  0.1774
 5514SOL     OW23306   8.622   9.321   1.418 -0.1072  0.0939 -0.7766
 5514SOL    HW123307   8.567   9.366   1.347 -1.0176 -0.7321 -0.6174
 5514SOL    HW223308   8.633   9.225   1.395  0.1827 -0.0243 -0.1505
 5515SOL     OW23309   2.808   0.216   0.787  0.2441  0.0425 -0.2917
 5515SOL    HW123310   2.859   0.300   0.806 -0.7433  0.3740  0.9655
 5515SOL    HW223311   2.790   0.168   0.872 -0.2427 -0.8309 -0.8797
 5517SOL     OW23312   2.009   9.030   2.493 -0.6601 -0.5328  0.9337
 5517SOL    HW123313   2.106   9.047   2.474 -0.7892 -0.3674  0.4185
 5517SOL    HW223314   1.953   9.082   2.429 -1.0792 -1.3439  0.6277
 5518SOL     OW23315   4.735   9.000   1.901 -0.5661 -0.2690 -0.1868
 5518SOL    HW123316   4.806   8.997   1.831 -0.3199 -0.3117  0.0641
 5518SOL    HW223317   4.649   8.965   1.863 -0.2102 -1.1218 -0.2139
 5520SOL     OW23318   0.964   8.989   0.396 -0.1458 -0.1189 -0.5293
 5520SOL    HW123319   0.974   8.933   0.314  1.0056 -1.1746  0.3240
 5520SOL    HW223320   0.871   8.980   0.430  0.4963 -2.9755  0.6191
 5521SOL     OW23321   2.505   8.652   2.573  0.6166 -0.5112  0.0496
 5521SOL    HW123322   2.513   8.750   2.552 -1.1188 -0.1778  0.9183
 5521SOL    HW223323   2.516   8.638   2.671  0.0496 -1.1015  0.0288
 5522SOL     OW23324   8.168   0.205   0.910  0.2457  0.1562  0.0953
 5522SOL    HW123325   8.160   0.121   0.964  1.5858 -0.8013 -1.1404
 5522SOL    HW223326   8.204   0.182   0.819 -0.0941  1.9847 -0.5122
 5523SOL     OW23327   9.772   8.976   1.484 -0.5024 -0.3292 -0.4299
 5523SOL    HW123328   9.811   9.004   1.396 -1.1261  1.7383 -0.0832
 5523SOL    HW223329   9.724   8.889   1.473  0.6569 -0.8149 -1.7918
 5524SOL     OW23330   8.139   8.394   1.546 -0.1046 -0.2649  0.2447
 5524SOL    HW123331   8.171   8.386   1.451 -2.1099 -1.9785 -0.3195
 5524SOL    HW223332   8.073   8.469   1.552 -0.6179 -0.6978  0.0862
 5526SOL     OW23333   3.175   6.846   2.234 -0.3713 -0.6566  0.4216
 5526SOL    HW123334   3.151   6.765   2.287 -2.4825 -0.3105  0.0598
 5526SOL    HW223335   3.100   6.867   2.171  1.1995  0.1516 -1.2202
 5527SOL     OW23336   1.418   2.291   2.124  0.1595  0.5863  0.4518
 5527SOL    HW123337   1.446   2.199   2.151 -0.9481 -0.2789 -1.2613
 5527SOL    HW223338   1.493   2.355   2.140  1.4991 -0.8814  0.1756
 5528SOL     OW23339   2.814   8.769   1.679 -0.1151 -0.1776 -0.4225
 5528SOL    HW123340   2.813   8.669   1.686 -0.2996 -0.0387  1.8398
 5528SOL    HW223341   2.900   8.804   1.716  0.1135  0.5055 -1.5631
 5529SOL     OW23342   7.542   1.091   0.907 -0.2432 -0.5540  0.0870
 5529SOL    HW123343   7.615   1.039   0.861 -0.0601  0.2111 -0.5089
 5529SOL    HW223344   7.461   1.093   0.848 -0.7518 -1.4117  0.7551
 5530SOL     OW23345   9.126   8.697   0.965 -0.0390 -0.7253  0.1424
 5530SOL    HW123346   9.181   8.637   1.023  1.1271 -0.4301 -0.6359
 5530SOL    HW223347   9.154   8.792   0.979 -0.2488 -0.5882 -0.3717
 5531SOL     OW23348   2.222   7.893   0.248  0.0839  0.1474  0.3934
 5531SOL    HW123349   2.144   7.954   0.261 -0.4856  0.0657 -2.3547
 5531SOL    HW223350   2.307   7.947   0.245 -0.3761  0.7857 -1.6437
 5532SOL     OW23351   7.801   1.098   2.451 -0.2036  0.0670  0.2057
 5532SOL    HW123352   7.731   1.081   2.520 -0.0160  0.5089  0.5057
 5532SOL    HW223353   7.890   1.064   2.484 -0.2668 -0.4494 -0.1537
 5533SOL     OW23354   8.608   1.786   1.450 -0.0944  0.5884 -0.2690
 5533SOL    HW123355   8.528   1.766   1.508 -2.1914  3.9247 -1.8973
 5533SOL    HW223356   8.618   1.714   1.382 -2.4800  0.7027 -0.7949
 5534SOL     OW23357   8.883   6.981   2.683 -0.7226  0.0877 -0.1762
 5534SOL    HW123358   8.862   6.896   2.731 -0.8147 -0.9038 -1.9237
 5534SOL    HW223359   8.853   6.974   2.588 -2.8655  2.9431  0.2054
 5536SOL     OW23360   5.110   3.511   1.529  0.2708  0.4842 -0.4040
 5536SOL    HW123361   5.021   3.538   1.494  0.2615 -0.6374 -1.2655
 5536SOL    HW223362   5.100   3.431   1.589  0.4307  1.6748  1.2478
 5537SOL     OW23363   0.231   8.472   0.271 -0.1873  0.5016 -0.1080
 5537SOL    HW123364   0.250   8.516   0.184 -2.5374  0.4899 -0.6636
 5537SOL    HW223365   0.211   8.542   0.340  0.8010  0.4720  0.2207
 5538SOL     OW23366   0.420   7.112   2.356 -0.6732 -0.4136  0.3524
 5538SOL    HW123367   0.441   7.026   2.402 -0.0652 -0.4450  0.0133
 5538SOL    HW223368   0.377   7.094   2.267  0.1673 -0.3718 -0.0599
 5539SOL     OW23369   8.738   8.449   0.650  0.4083  0.1336  0.1281
 5539SOL    HW123370   8.689   8.362   0.659  0.5285 -0.1418 -1.6123
 5539SOL    HW223371   8.680   8.523   0.683  0.6262 -0.6860  2.4055
 5540SOL     OW23372   8.785   7.350   0.159 -0.1256  0.1408  0.1529
 5540SOL    HW123373   8.832   7.375   0.244 -1.4919  0.9105  0.7126
 5540SOL    HW223374   8.758   7.254   0.163 -1.7126  0.6032  1.3686
 5541SOL     OW23375   8.854   1.800   1.260  0.0253  0.0443  0.5478
 5541SOL    HW123376   8.789   1.744   1.312  0.1138  0.6789  1.3503
 5541SOL    HW223377   8.942   1.754   1.255 -0.3750 -0.6502 -0.2243
 5542SOL     OW23378   8.941   8.934   1.126  0.1446  0.0673 -0.8352
 5542SOL    HW123379   8.919   8.934   1.028  1.3262 -0.1613 -1.1065
 5542SOL    HW223380   9.018   8.994   1.143  0.4888 -0.5561 -0.1617
 5543SOL     OW23381   2.967   4.705   0.226  0.5521 -0.0892 -0.3831
 5543SOL    HW123382   2.959   4.610   0.256  0.5416 -0.8918 -2.8307
 5543SOL    HW223383   2.878   4.737   0.193  0.8280  0.3867 -0.6786
 5544SOL     OW23384   1.288   1.845   2.189 -0.0686 -0.3161 -0.2821
 5544SOL    HW123385   1.364   1.909   2.187 -0.8474  0.7682  2.1409
 5544SOL    HW223386   1.210   1.888   2.236 -0.4925 -3.1424  1.7117
 5545SOL     OW23387   3.707   7.442   0.295 -0.3043  0.0279  0.0693
 5545SOL    HW123388   3.637   7.502   0.334 -1.5196 -0.6251 -1.0532
 5545SOL    HW223389   3.721   7.465   0.198  0.8739  0.0045  0.2277
 5547SOL     OW23390   8.039   9.873   1.798  0.0137 -0.1264  0.5107
 5547SOL    HW123391   7.972   9.922   1.741 -0.4971 -1.0357  0.3141
 5547SOL    HW223392   8.097   9.939   1.845 -0.2321  0.6626 -0.2634
 5548SOL     OW23393   2.896   2.028   1.560  0.0540 -0.3978  0.6218
 5548SOL    HW123394   2.937   2.118   1.544  0.9974 -0.8163  0.6689
 5548SOL    HW223395   2.866   2.021   1.656  0.0671 -0.1717  0.6413
 5549SOL     OW23396   5.686   8.956   2.133  0.6018  0.4326  0.1710
 5549SOL    HW123397   5.655   8.861   2.140  3.2998 -0.6386 -1.3053
 5549SOL    HW223398   5.780   8.957   2.098  0.4127  3.6829 -0.3824
 5550SOL     OW23399   2.612   9.136   0.516  0.0580  0.0076  0.1506
 5550SOL    HW123400   2.571   9.224   0.541 -0.1236 -0.1096  0.2720
 5550SOL    HW223401   2.562   9.096   0.440  0.0699 -0.0425  0.1691
 5552SOL     OW23402   0.213   3.968   0.066 -0.4003 -0.2760  0.4616
 5552SOL    HW123403   0.140   3.910   0.028 -2.2864  1.2819  1.6380
 5552SOL    HW223404   0.179   4.061   0.078  2.0256  0.6564  0.3975
 5554SOL     OW23405   9.514   5.547   2.468 -0.2180  0.1063  0.6653
 5554SOL    HW123406   9.588   5.578   2.409 -0.5382  0.0101  0.2049
 5554SOL    HW223407   9.529   5.580   2.561  0.0783  0.6137  0.4419
 5555SOL     OW23408   7.690   1.300   1.038  0.4530 -0.3036  0.5715
 5555SOL    HW123409   7.664   1.325   1.131  0.5693 -1.4281  0.9055
 5555SOL    HW223410   7.633   1.224   1.006 -0.5508  0.9870 -0.7985
 5557SOL     OW23411   3.050   6.266   1.813  0.1363  0.3598  0.0054
 5557SOL    HW123412   2.956   6.291   1.838  0.3058  0.3153  0.6990
 5557SOL    HW223413   3.114   6.325   1.863  0.4665  0.7549 -0.8738
 5558SOL     OW23414   8.803   9.543   2.214 -0.1726  0.2929 -0.1250
 5558SOL    HW123415   8.764   9.562   2.304 -0.3646  0.7812 -0.3107
 5558SOL    HW223416   8.877   9.476   2.223 -0.4387  0.0586  0.3462
 5559SOL     OW23417   1.661   9.046   1.791 -0.2039  0.3018  0.4005
 5559SOL    HW123418   1.669   9.138   1.753  0.7305  0.6467  1.3793
 5559SOL    HW223419   1.585   8.997   1.748  1.0492  0.5312 -2.1576
 5560SOL     OW23420   0.195   4.783   1.935  0.1807  0.4794 -0.3689
 5560SOL    HW123421   0.177   4.811   2.029  3.0521 -0.7376  0.6097
 5560SOL    HW223422   0.254   4.851   1.890  2.2291 -0.9116  0.1061
 5561SOL     OW23423   2.231   7.906   2.305  0.1915 -0.3705 -0.2281
 5561SOL    HW123424   2.314   7.904   2.360 -0.0461 -1.1487  0.1034
 5561SOL    HW223425   2.219   7.998   2.266  1.4415 -0.3669 -0.6412
 5562SOL     OW23426   0.810   8.226   1.570  0.2096  0.9082  0.4806
 5562SOL    HW123427   0.838   8.183   1.484  0.0418  1.2104  0.2696
 5562SOL    HW223428   0.848   8.176   1.647  0.1936  0.5125  0.2337
 5563SOL     OW23429   3.955   1.121   1.175 -0.1511 -0.4105 -0.7009
 5563SOL    HW123430   3.934   1.094   1.081 -0.6796 -3.0964  0.1424
 5563SOL    HW223431   3.931   1.046   1.237 -1.4943  1.9933  1.7712
 5564SOL     OW23432   2.014   5.481   2.631 -0.8085  1.2287  0.0524
 5564SOL    HW123433   2.088   5.531   2.586  1.1588 -0.3987  1.3863
 5564SOL    HW223434   1.946   5.454   2.563  1.1049  0.5456 -1.6445
 5565SOL     OW23435   2.386   7.390   1.241 -0.5197  0.6809  0.1639
 5565SOL    HW123436   2.478   7.362   1.271 -0.1439  1.8752  0.1621
 5565SOL    HW223437   2.349   7.457   1.305 -0.9241  1.0486 -0.4465
 5566SOL     OW23438   7.118   1.524   0.602  0.1285  0.2514 -0.4037
 5566SOL    HW123439   7.177   1.448   0.575 -1.5010 -1.0448 -0.4268
 5566SOL    HW223440   7.143   1.554   0.694 -1.2852 -2.5198  0.9687
 5567SOL     OW23441   9.878   0.092   0.663  0.2954 -0.0971  0.0698
 5567SOL    HW123442   9.970   0.058   0.682  1.3636  2.4871 -0.3390
 5567SOL    HW223443   9.862   0.176   0.715 -1.9633 -0.6861  0.3777
 5568SOL     OW23444   1.386   2.561   0.837 -0.3942  0.6528  0.0182
 5568SOL    HW123445   1.464   2.586   0.894 -0.1318  1.7082 -0.7889
 5568SOL    HW223446   1.348   2.643   0.796 -1.8462  0.1251  0.2861
 5569SOL     OW23447   0.036   6.462   1.005 -0.0260  0.3211  0.5776
 5569SOL    HW123448   0.031   6.477   1.104 -0.9826  0.7336  0.4739
 5569SOL    HW223449   0.123   6.498   0.971  0.1445  0.5252  1.2085
 5572SOL     OW23450   8.964   6.592   1.446  0.8604  0.0835 -0.0289
 5572SOL    HW123451   8.985   6.499   1.416 -0.2424  0.3445 -1.7141
 5572SOL    HW223452   9.044   6.633   1.489  1.1864 -1.8327  1.2426
 5574SOL     OW23453   8.422   5.959   1.627  0.1716  1.0267 -0.1180
 5574SOL    HW123454   8.417   6.042   1.571  0.9692  0.8027 -0.5251
 5574SOL    HW223455   8.459   5.884   1.573  0.9582  0.8067  0.7072
 5576SOL     OW23456   9.472   3.711   0.683 -0.4998 -0.3260 -0.8200
 5576SOL    HW123457   9.427   3.701   0.593  0.4823 -0.5945 -1.2842
 5576SOL    HW223458   9.492   3.620   0.720 -0.6002 -0.2087 -0.4839
 5577SOL     OW23459   9.015   6.425   0.159  0.4107  0.0212  0.2469
 5577SOL    HW123460   9.059   6.468   0.080 -1.1596 -0.0190 -0.6584
 5577SOL    HW223461   8.995   6.329   0.138  0.3871 -0.1110  0.8578
 5578SOL     OW23462   4.531   3.643   0.857  0.2987  0.4416 -0.0207
 5578SOL    HW123463   4.593   3.598   0.793  0.5873  0.4857  0.2245
 5578SOL    HW223464   4.574   3.727   0.891 -0.0572  0.6779 -0.1491
 5579SOL     OW23465   9.323   6.355   2.609  0.0263 -0.1079  0.1215
 5579SOL    HW123466   9.270   6.329   2.690  0.8961 -0.9640  0.4164
 5579SOL    HW223467   9.365   6.445   2.625  1.8270 -1.1550  1.4243
 5580SOL     OW23468   2.210   4.258   1.516 -0.3361 -0.5317 -0.1035
 5580SOL    HW123469   2.196   4.175   1.569  1.3120 -1.9312 -1.7828
 5580SOL    HW223470   2.124   4.286   1.475 -0.6061 -2.3259 -0.8050
 5581SOL     OW23471   3.856   7.513   0.546  0.0389  0.2503  0.3699
 5581SOL    HW123472   3.803   7.463   0.477  1.6154 -0.0015 -0.6709
 5581SOL    HW223473   3.831   7.481   0.637 -1.6913  0.2193 -0.0875
 5582SOL     OW23474   8.912   3.428   0.129  0.2438  0.0715 -0.0853
 5582SOL    HW123475   8.942   3.466   0.216  0.4406 -0.2677 -0.0056
 5582SOL    HW223476   8.912   3.500   0.059 -0.2949  0.4387  0.2847
 5584SOL     OW23477   0.530   6.085   1.192 -0.1417  0.1640  0.6321
 5584SOL    HW123478   0.473   6.089   1.110  0.0226  2.5977  0.5944
 5584SOL    HW223479   0.622   6.053   1.167  0.0503  1.3535 -0.2351
 5586SOL     OW23480   8.332   5.439   2.330  0.3261  0.0480 -0.1839
 5586SOL    HW123481   8.346   5.442   2.429  0.6174 -0.7151 -0.1995
 5586SOL    HW223482   8.315   5.532   2.296 -0.0583  0.2762  0.6193
 5587SOL     OW23483   9.223   6.511   1.101 -0.2521  0.4073 -0.7198
 5587SOL    HW123484   9.143   6.562   1.068 -1.3642 -0.9849 -0.2075
 5587SOL    HW223485   9.196   6.418   1.123  1.2768  0.2720  0.6086
 5588SOL     OW23486   2.505   4.833   1.400  0.3689 -0.0856  0.3747
 5588SOL    HW123487   2.524   4.798   1.308 -0.5210 -0.7599  0.4330
 5588SOL    HW223488   2.561   4.913   1.418  0.5192  0.0739 -0.7762
 5589SOL     OW23489   2.930   1.052   0.078  0.2183  0.8030 -0.0227
 5589SOL    HW123490   3.026   1.042   0.107 -0.1036  1.0705  1.1788
 5589SOL    HW223491   2.912   1.148   0.054  0.6194  0.4881 -1.6518
 5590SOL     OW23492   0.573   6.915   0.839 -0.5292 -0.0409 -0.0163
 5590SOL    HW123493   0.532   6.977   0.905 -0.1301  0.8179 -0.5560
 5590SOL    HW223494   0.538   6.823   0.853 -2.0379  0.5284  0.0269
 5591SOL     OW23495   1.758   0.176   1.800 -0.3472 -1.0641  0.2501
 5591SOL    HW123496   1.793   0.193   1.708  0.6232  0.4445  0.8743
 5591SOL    HW223497   1.754   0.077   1.816  0.3383 -1.3243 -1.0842
 5594SOL     OW23498   1.932   0.528   2.429  0.2417  0.0603  0.0901
 5594SOL    HW123499   1.905   0.564   2.339  0.2138  0.5186  0.2799
 5594SOL    HW223500   1.857   0.476   2.468 -0.2148  0.9425  0.4120
 5595SOL     OW23501   0.705   2.170   2.629 -1.0278 -0.5199 -0.1928
 5595SOL    HW123502   0.776   2.131   2.688 -1.3528 -0.4949  0.2153
 5595SOL    HW223503   0.655   2.240   2.679 -0.0455  0.8828 -1.1250
 5596SOL     OW23504   3.431   1.494   0.941 -0.3295  0.0218  0.6391
 5596SOL    HW123505   3.522   1.502   0.981 -1.1945  1.0122  2.4734
 5596SOL    HW223506   3.428   1.414   0.882  1.7188 -0.0409  0.5834
 5597SOL     OW23507   8.925   2.562   0.241  0.3286 -0.1496  0.2526
 5597SOL    HW123508   8.852   2.621   0.277  1.5293  0.6326  1.4323
 5597SOL    HW223509   9.011   2.582   0.287  1.8700  0.6532 -2.8072
 5598SOL     OW23510   3.148   7.994   2.157  0.3025  0.5669 -0.4769
 5598SOL    HW123511   3.190   8.058   2.221 -0.6457  1.4298 -0.7066
 5598SOL    HW223512   3.150   7.902   2.195 -0.6511  1.1457  0.9800
 5599SOL     OW23513   4.488   1.142   1.242  0.2056 -0.1842 -0.6101
 5599SOL    HW123514   4.418   1.181   1.182  0.5220 -0.1117 -0.9349
 5599SOL    HW223515   4.565   1.205   1.250  0.0216 -0.0520  0.1411
 5600SOL     OW23516   2.985   3.984   1.016 -0.5055  0.4520 -0.6955
 5600SOL    HW123517   3.034   4.027   1.091  0.3011 -1.5292 -0.0297
 5600SOL    HW223518   2.961   4.052   0.947  1.2735  1.8133  0.0129
 5602SOL     OW23519   0.523   1.951   1.188  0.6342  0.0910 -0.0940
 5602SOL    HW123520   0.559   1.902   1.109 -0.8972  0.6584 -1.1585
 5602SOL    HW223521   0.457   2.020   1.158 -0.2522  0.0533  1.7083
 5603SOL     OW23522   9.845   9.139   0.539  0.3876  0.5502  0.1235
 5603SOL    HW123523   9.839   9.223   0.593  1.7776  1.4533 -1.0713
 5603SOL    HW223524   9.892   9.158   0.453 -0.9222 -1.0773 -0.9900
 5604SOL     OW23525   3.787   8.315   0.800 -0.2898 -0.0578 -0.1768
 5604SOL    HW123526   3.768   8.410   0.823  0.1724 -0.1408  0.5752
 5604SOL    HW223527   3.705   8.272   0.763 -1.0946  0.0621  1.4234
 5605SOL     OW23528   2.344   6.876   1.789  0.7445  0.3730  0.1860
 5605SOL    HW123529   2.406   6.839   1.721  0.7870 -0.2824  0.5788
 5605SOL    HW223530   2.260   6.821   1.792  0.5419  0.6860  0.3243
 5606SOL     OW23531   8.721   2.108   0.480 -0.2507  0.4254 -0.5320
 5606SOL    HW123532   8.707   2.040   0.552  0.1454  1.6910  0.7636
 5606SOL    HW223533   8.643   2.106   0.417 -1.2660  0.2279  0.7087
 5609SOL     OW23534   8.848   0.178   0.950  0.3344  0.0403 -0.9011
 5609SOL    HW123535   8.803   0.089   0.948 -2.2654  1.3087 -2.4644
 5609SOL    HW223536   8.917   0.180   1.022 -2.3491 -1.9276  1.8056
 5611SOL     OW23537   4.781   0.115   0.717  0.3936  0.8172  0.0769
 5611SOL    HW123538   4.805   0.056   0.794 -1.6889 -0.0717  0.0486
 5611SOL    HW223539   4.779   0.062   0.633 -0.8232  1.0611 -0.0546
 5614SOL     OW23540   9.550   7.083   0.450 -0.7608 -0.3120 -0.3451
 5614SOL    HW123541   9.451   7.084   0.459 -0.8082 -1.0222 -0.7677
 5614SOL    HW223542   9.582   6.989   0.442 -0.1859 -0.0341 -1.5401
 5616SOL     OW23543   1.617   0.707   0.145 -0.1856 -0.6285  0.0787
 5616SOL    HW123544   1.532   0.741   0.186 -0.2283 -0.7862  0.1200
 5616SOL    HW223545   1.653   0.632   0.200 -0.9289 -1.7049 -0.8705
 5618SOL     OW23546   3.970   1.005   0.917  0.1499 -0.1018  0.3907
 5618SOL    HW123547   3.933   1.092   0.886 -1.5289 -0.9756 -0.0735
 5618SOL    HW223548   4.051   0.982   0.863 -0.1825  0.5102 -0.3644
 5619SOL     OW23549   9.448   4.330   0.273 -0.4196  0.1931 -0.1727
 5619SOL    HW123550   9.479   4.260   0.338 -0.5112  0.7325  0.4592
 5619SOL    HW223551   9.365   4.374   0.308 -0.5805  0.3604 -0.7508
 5622SOL     OW23552   2.377   5.122   0.211  0.0324  0.2837 -0.5451
 5622SOL    HW123553   2.319   5.184   0.264  0.7465 -0.9940  1.8203
 5622SOL    HW223554   2.339   5.112   0.119 -2.1407  1.3403  0.1888
 5623SOL     OW23555   6.932   0.075   1.878 -0.0762  0.0462 -0.8029
 5623SOL    HW123556   6.833   0.072   1.896  0.6943 -1.4568  3.7307
 5623SOL    HW223557   6.972   0.155   1.922  1.1732 -1.0338  0.0663
 5624SOL     OW23558   9.010   0.921   2.261 -0.0550 -0.1964  0.1015
 5624SOL    HW123559   8.951   0.893   2.337 -1.0091 -0.3405 -0.6811
 5624SOL    HW223560   8.972   1.002   2.217 -0.3315 -1.0046 -1.1700
 5625SOL     OW23561   2.266   2.053   1.912  0.1193  0.3447 -0.2513
 5625SOL    HW123562   2.243   1.959   1.888  0.0342  0.1726  0.4727
 5625SOL    HW223563   2.353   2.079   1.869  1.5616 -1.0115  1.7501
 5626SOL     OW23564   9.383   7.881   1.001 -0.0524 -0.1007  0.2766
 5626SOL    HW123565   9.324   7.961   1.002  1.1686  0.8022  0.7870
 5626SOL    HW223566   9.327   7.798   1.002 -1.3016  0.7391  0.5054
 5629SOL     OW23567   4.252   9.128   1.682 -0.0144  0.0440  0.3973
 5629SOL    HW123568   4.302   9.096   1.762  1.1127 -0.7984 -0.6218
 5629SOL    HW223569   4.168   9.173   1.711 -0.2995 -1.4468  1.9998
 5630SOL     OW23570   1.935   7.556   2.327 -0.3153 -0.2693 -0.0433
 5630SOL    HW123571   2.021   7.598   2.356 -0.7393  0.5604  0.0182
 5630SOL    HW223572   1.934   7.546   2.227 -0.7546  1.0741 -0.1804
 5631SOL     OW23573   3.438   2.596   2.453 -0.2820  0.6667 -0.0111
 5631SOL    HW123574   3.471   2.517   2.402 -1.4633 -0.1242  0.4234
 5631SOL    HW223575   3.516   2.653   2.480  0.3882  0.9247 -2.3586
 5632SOL     OW23576   4.448   9.418   1.355  0.5221 -0.1958 -0.1681
 5632SOL    HW123577   4.419   9.511   1.377  2.6264  0.3786  0.3468
 5632SOL    HW223578   4.383   9.353   1.393 -1.0907  1.0685 -0.7156
 5633SOL     OW23579   1.332   6.083   2.076 -0.0343  0.3189  0.1760
 5633SOL    HW123580   1.362   6.057   1.984 -0.3125  0.0451  0.1620
 5633SOL    HW223581   1.390   6.158   2.110 -1.9153  2.6194 -1.4982
 5634SOL     OW23582   0.563   9.047   0.695  0.0129 -0.9619  0.5147
 5634SOL    HW123583   0.604   9.120   0.749  1.7172 -1.1617 -0.4786
 5634SOL    HW223584   0.475   9.078   0.658 -1.0456 -0.7313  3.1245
 5635SOL     OW23585   4.136   1.562   1.782  0.4984  0.5186  0.3237
 5635SOL    HW123586   4.181   1.617   1.852 -0.8663  0.4382  1.2920
 5635SOL    HW223587   4.043   1.596   1.767 -0.3984 -1.4857  0.9844
 5637SOL     OW23588   1.780   9.010   1.476  0.2677  0.2492 -0.3730
 5637SOL    HW123589   1.836   9.018   1.559  0.8798 -1.3929 -0.5977
 5637SOL    HW223590   1.839   8.989   1.399 -0.5214 -0.1418 -0.8709
 5640SOL     OW23591   0.155   3.770   1.365 -0.0589 -0.0176  0.2933
 5640SOL    HW123592   0.163   3.832   1.286  0.7157 -0.6613 -0.1441
 5640SOL    HW223593   0.095   3.810   1.433 -2.8583 -0.5652 -1.7347
 5641SOL     OW23594   3.497   4.551   0.193  0.1974  0.5844  0.1782
 5641SOL    HW123595   3.435   4.510   0.126  2.4402  0.5678 -1.9895
 5641SOL    HW223596   3.587   4.563   0.151  0.5574  4.4831  1.8936
 5642SOL     OW23597   2.074   0.825   0.386  0.3149  0.3626  0.4695
 5642SOL    HW123598   2.076   0.865   0.295  0.7511  1.0117  0.7639
 5642SOL    HW223599   2.078   0.725   0.378  0.4065  0.4193 -0.2216
 5643SOL     OW23600   2.162   1.589   2.222  0.1030  0.7817  0.5305
 5643SOL    HW123601   2.088   1.539   2.267 -0.1660 -2.2289 -3.0752
 5643SOL    HW223602   2.232   1.525   2.190  0.7025  2.8329 -2.4985
 5645SOL     OW23603   3.609   1.085   1.843 -0.0029 -0.7469 -0.6806
 5645SOL    HW123604   3.658   1.159   1.889  2.0963 -2.2141 -0.5125
 5645SOL    HW223605   3.533   1.124   1.790  0.2544  1.3820  0.4488
 5646SOL     OW23606   3.887   8.215   1.014  0.7321 -0.2049  0.1171
 5646SOL    HW123607   3.795   8.212   1.052  0.9685  1.1282  0.8276
 5646SOL    HW223608   3.885   8.262   0.926  0.7331 -0.1817  0.1296
 5647SOL     OW23609   0.394   5.376   2.051 -0.2447 -0.3160  0.2238
 5647SOL    HW123610   0.491   5.397   2.063 -0.3416 -0.9802  2.5914
 5647SOL    HW223611   0.384   5.280   2.027 -0.3580 -0.5589  1.2171
 5648SOL     OW23612   0.165   1.619   0.892 -0.2052  0.1115 -0.0709
 5648SOL    HW123613   0.156   1.660   0.801  0.0557  0.8324  0.2235
 5648SOL    HW223614   0.080   1.573   0.917 -0.7184  0.9993 -0.1515
 5649SOL     OW23615   8.515   3.673   1.516 -0.3560 -0.7616 -0.1858
 5649SOL    HW123616   8.535   3.711   1.606  1.2981 -1.4588 -0.2526
 5649SOL    HW223617   8.583   3.603   1.493 -0.6842 -0.4995 -2.0260
 5652SOL     OW23618   9.784   4.973   2.021  0.1555 -0.0414 -0.1646
 5652SOL    HW123619   9.824   5.043   1.963 -2.2114  2.2201  0.8061
 5652SOL    HW223620   9.797   4.998   2.117  0.5068 -1.6424  0.2130
 5653SOL     OW23621   6.703   9.006   2.171  0.7232 -0.2951 -0.2356
 5653SOL    HW123622   6.790   9.054   2.169  1.4483 -1.5935 -0.0908
 5653SOL    HW223623   6.669   9.003   2.265 -1.0003  2.8769 -0.6872
 5654SOL     OW23624   9.547   0.357   1.043 -0.5614  0.2139 -0.3734
 5654SOL    HW123625   9.476   0.394   1.104  0.8619  2.3592  0.0174
 5654SOL    HW223626   9.637   0.371   1.084  0.0449 -3.6781 -0.2558
 5655SOL     OW23627   9.973   3.052   0.825 -0.1058 -0.0258 -0.7711
 5655SOL    HW123628  10.030   3.134   0.827 -0.8207  0.4411  0.9281
 5655SOL    HW223629   9.878   3.075   0.843 -0.4461 -1.1277 -1.0638
 5656SOL     OW23630   4.266   8.599   2.073 -0.6536  0.0590 -0.4843
 5656SOL    HW123631   4.277   8.625   1.977  0.1991  2.6221  0.2452
 5656SOL    HW223632   4.180   8.550   2.085 -0.0337 -1.6890 -2.7986
 5657SOL     OW23633   6.111   9.983   2.630  0.5103 -0.1522 -0.0868
 5657SOL    HW123634   6.202  10.000   2.593 -0.2964 -0.0379 -2.0705
 5657SOL    HW223635   6.076   9.897   2.594 -0.8451  0.6294 -0.6548
 5658SOL     OW23636   1.264   9.019   2.656 -0.7068 -0.5616 -0.4417
 5658SOL    HW123637   1.301   9.107   2.685 -1.3321 -0.3203 -0.3738
 5658SOL    HW223638   1.295   8.999   2.563 -0.8306 -0.1158 -0.5801
 5659SOL     OW23639   0.870   7.050   1.163 -0.2111  0.1445 -0.3685
 5659SOL    HW123640   0.793   7.004   1.206 -0.3685 -1.5123 -2.3370
 5659SOL    HW223641   0.839   7.136   1.121 -0.3314  1.0467  1.5028
 5660SOL     OW23642   2.053   9.550   2.319 -0.5338 -0.7234 -0.3108
 5660SOL    HW123643   2.100   9.568   2.406  1.3577 -2.5594 -0.9094
 5660SOL    HW223644   1.954   9.558   2.332 -0.1858  1.5204  1.3910
 5661SOL     OW23645   9.553   2.070   0.425  0.1161  0.2253 -0.1322
 5661SOL    HW123646   9.576   2.155   0.378  0.0689  0.1846 -0.2292
 5661SOL    HW223647   9.624   2.047   0.491  1.3655 -0.9649 -1.8412
 5662SOL     OW23648   8.254   1.929   2.265  0.2905 -0.2613 -0.2907
 5662SOL    HW123649   8.284   1.946   2.171  1.1584 -0.4376 -0.0476
 5662SOL    HW223650   8.333   1.930   2.326 -0.3729  0.7556  0.5751
 5664SOL     OW23651   8.227   8.439   1.299  0.0884  0.7911  0.2489
 5664SOL    HW123652   8.195   8.532   1.279  0.6534  1.0455  0.5275
 5664SOL    HW223653   8.250   8.392   1.213  0.1485  1.0305  0.1337
 5666SOL     OW23654   1.446   7.198   1.477  0.5322  0.2621 -0.5745
 5666SOL    HW123655   1.504   7.201   1.395  1.8236  0.8503  0.3303
 5666SOL    HW223656   1.503   7.212   1.558 -0.6508 -0.8649  0.4718
 5668SOL     OW23657   1.816   9.778   1.185 -0.5124  0.0929  0.3353
 5668SOL    HW123658   1.770   9.806   1.269  1.2499  1.2981  0.9378
 5668SOL    HW223659   1.854   9.686   1.197  0.5988  0.6462  1.2598
 5669SOL     OW23660   2.312   3.659   2.255  0.0457 -0.3209 -0.2530
 5669SOL    HW123661   2.365   3.680   2.173  1.5733 -0.6503  0.6133
 5669SOL    HW223662   2.345   3.573   2.294 -0.4315  0.0061  0.8841
 5670SOL     OW23663   8.096   9.471   2.438  0.5065  0.4931 -0.0761
 5670SOL    HW123664   8.149   9.439   2.360  2.9981  0.8496  1.4085
 5670SOL    HW223665   8.000   9.450   2.423  1.3424 -2.6769 -1.6491
 5671SOL     OW23666   2.488   7.552   0.440 -0.6118  0.0731 -0.0914
 5671SOL    HW123667   2.414   7.566   0.373 -1.3123 -1.2638  0.3976
 5671SOL    HW223668   2.509   7.639   0.484 -1.7057  0.5195 -0.4278
 5672SOL     OW23669   1.014   0.116   0.993 -0.3265  0.0838 -0.0703
 5672SOL    HW123670   0.940   0.179   1.016 -0.7635 -0.4791  0.0776
 5672SOL    HW223671   1.098   0.168   0.976 -0.7596  0.7294 -0.2720
 5673SOL     OW23672   9.425   1.155   1.686  0.5912 -0.0335 -0.3987
 5673SOL    HW123673   9.406   1.068   1.641 -1.0142 -0.6120  1.3376
 5673SOL    HW223674   9.457   1.137   1.779  0.3792  1.2269 -0.0841
 5674SOL     OW23675   9.565   7.525   2.166  0.1662 -0.4344 -0.8602
 5674SOL    HW123676   9.622   7.607   2.160 -2.1405  1.1524 -1.8807
 5674SOL    HW223677   9.555   7.497   2.261  2.5491 -0.7248 -0.6548
 5675SOL     OW23678   9.492   8.615   2.056 -0.4916 -0.6331  0.3201
 5675SOL    HW123679   9.542   8.529   2.060  0.7263 -0.0310 -1.2083
 5675SOL    HW223680   9.450   8.634   2.145  1.0744 -1.7029  1.3080
 5676SOL     OW23681   3.707   3.191   1.114  0.3906 -0.0726  0.2639
 5676SOL    HW123682   3.737   3.285   1.097  0.1063  0.0447  0.4050
 5676SOL    HW223683   3.779   3.141   1.163  0.7485 -0.0786 -0.2537
 5677SOL     OW23684   0.604   4.441   2.343  0.0407 -0.7803 -0.2496
 5677SOL    HW123685   0.534   4.512   2.346 -1.1576 -1.9677  0.8458
 5677SOL    HW223686   0.669   4.455   2.418  0.0812 -0.5766 -0.3219
 5679SOL     OW23687   9.791   1.415   0.289  0.1442  0.2041  0.0613
 5679SOL    HW123688   9.704   1.366   0.280 -0.3531  1.1318 -0.1844
 5679SOL    HW223689   9.865   1.348   0.295 -0.7189 -0.6541  1.9064
 5680SOL     OW23690   0.503   3.662   0.572  0.1674  0.5431 -0.3919
 5680SOL    HW123691   0.553   3.740   0.611 -0.1861  0.2434  0.6901
 5680SOL    HW223692   0.414   3.655   0.616  0.6121 -1.1092  0.2748
 5681SOL     OW23693   1.243   9.753   1.575  0.1757  0.5198 -0.1080
 5681SOL    HW123694   1.174   9.799   1.518  1.0938  1.1064 -0.7653
 5681SOL    HW223695   1.199   9.716   1.657 -0.9234  0.8683 -0.5247
 5682SOL     OW23696   3.490   7.619   1.499  0.2953 -0.3225  0.0790
 5682SOL    HW123697   3.453   7.560   1.571 -0.5688  0.2792  0.1396
 5682SOL    HW223698   3.513   7.708   1.537  1.8367 -0.6853  0.0372
 5683SOL     OW23699   0.053   3.622   2.516  0.0659  0.1515  0.2500
 5683SOL    HW123700  -0.008   3.700   2.510 -0.6245 -0.4390 -0.4023
 5683SOL    HW223701   0.098   3.607   2.428  0.7995  0.3035  0.5965
 5686SOL     OW23702   8.451   9.826   1.941  0.4151  0.3910  0.2962
 5686SOL    HW123703   8.461   9.924   1.954 -1.1440  0.7865 -1.3110
 5686SOL    HW223704   8.377   9.791   1.999  0.4587  0.2949  0.2939
 5687SOL     OW23705   2.535   1.267   2.217  0.0224 -0.6662  0.1534
 5687SOL    HW123706   2.444   1.306   2.235  0.4333  1.0595 -1.3223
 5687SOL    HW223707   2.592   1.277   2.298 -0.3353  0.5602  0.2652
 5688SOL     OW23708   0.480   2.225   2.201 -0.0776  0.7247  0.9249
 5688SOL    HW123709   0.549   2.233   2.129 -0.9452 -2.8960 -0.4204
 5688SOL    HW223710   0.526   2.205   2.288  0.6863 -0.2339  0.3198
 5689SOL     OW23711   2.352   3.910   0.328 -0.2184 -0.2743 -0.4353
 5689SOL    HW123712   2.410   3.873   0.401  0.3700 -0.7140 -1.1119
 5689SOL    HW223713   2.272   3.955   0.367  1.8155  2.5380  0.6497
 5690SOL     OW23714   5.081   0.584   2.448  0.2586  0.3870 -0.5195
 5690SOL    HW123715   5.085   0.683   2.436 -1.1645  0.5428  0.1453
 5690SOL    HW223716   5.067   0.563   2.545  1.8997 -0.5139 -0.4580
 5691SOL     OW23717   0.234   1.962   0.201  0.6710  0.2141 -0.5887
 5691SOL    HW123718   0.143   1.998   0.180  0.7100  0.7684  0.1443
 5691SOL    HW223719   0.274   2.016   0.275  1.2437 -0.5602 -0.3227
 5692SOL     OW23720   2.249   6.679   0.391  0.5569  0.2155 -0.1048
 5692SOL    HW123721   2.168   6.661   0.448 -0.4554  0.7497 -1.3477
 5692SOL    HW223722   2.266   6.777   0.386  2.1324  0.0371  1.2788
 5693SOL     OW23723   2.774   4.158   2.172 -0.3038  0.0547 -0.1539
 5693SOL    HW123724   2.803   4.068   2.140  0.5314 -0.0465  0.8393
 5693SOL    HW223725   2.756   4.154   2.271 -1.0791  0.7754 -0.2563
 5694SOL     OW23726   9.745   5.087   1.380  0.0071  0.0738  0.0838
 5694SOL    HW123727   9.807   5.054   1.451  0.2114  0.0324 -0.1132
 5694SOL    HW223728   9.787   5.076   1.290 -0.3231 -0.0451 -0.0613
 5695SOL     OW23729   8.917   4.446   1.472  0.1083 -0.6442  0.0354
 5695SOL    HW123730   9.010   4.413   1.481 -0.0280 -0.9633  0.2955
 5695SOL    HW223731   8.854   4.380   1.513 -0.3132 -0.9255 -1.0404
 5697SOL     OW23732   2.218   7.731   0.636  0.0557 -0.2551 -0.4041
 5697SOL    HW123733   2.248   7.825   0.621  0.8014 -0.1914  1.4138
 5697SOL    HW223734   2.118   7.726   0.629  0.1624  0.2003 -2.8568
 5698SOL     OW23735   3.199   3.660   1.471 -0.0011 -0.8380 -0.6644
 5698SOL    HW123736   3.116   3.697   1.513  0.7187  0.8853 -0.7251
 5698SOL    HW223737   3.174   3.611   1.387 -0.8865  0.1572 -0.9899
 5699SOL     OW23738   2.550   4.912   0.316  0.3610 -0.2890  0.3695
 5699SOL    HW123739   2.498   4.986   0.274  0.0185 -0.9158 -0.2982
 5699SOL    HW223740   2.631   4.951   0.362  0.2325  0.4878 -0.0567
 5700SOL     OW23741   2.476   5.702   2.233  0.4157 -0.1153 -0.1315
 5700SOL    HW123742   2.491   5.626   2.169  0.2104 -1.2434  1.1297
 5700SOL    HW223743   2.426   5.775   2.187  1.0949 -0.5090 -1.5261
 5704SOL     OW23744   2.627   2.986   0.338 -0.2021  0.0147  0.3390
 5704SOL    HW123745   2.569   3.046   0.394 -1.0454 -0.4078 -0.0676
 5704SOL    HW223746   2.645   2.901   0.389  0.7962  0.5095  0.8198
 5705SOL     OW23747   9.622   8.052   1.605  0.4945  0.9490  0.2242
 5705SOL    HW123748   9.620   8.013   1.513 -0.6993  0.4258  0.4729
 5705SOL    HW223749   9.668   7.989   1.667  0.4396  0.8768  0.1914
 5706SOL     OW23750   2.217   3.804   0.632 -0.3209 -0.2963 -0.0710
 5706SOL    HW123751   2.149   3.852   0.687 -1.8012 -0.2833 -1.8541
 5706SOL    HW223752   2.188   3.805   0.536  1.8931 -0.8293 -0.7713
 5707SOL     OW23753   1.231   1.512   2.368 -0.2345 -0.3659 -1.0777
 5707SOL    HW123754   1.166   1.538   2.296 -0.5463  1.1397 -0.2671
 5707SOL    HW223755   1.211   1.420   2.400 -3.3977  0.8756  0.7008
 5711SOL     OW23756   9.361   3.375   2.123 -0.6273  0.3229 -0.7020
 5711SOL    HW123757   9.414   3.442   2.072  1.1200  0.0210  0.6708
 5711SOL    HW223758   9.271   3.414   2.145 -1.2735  0.5846 -3.6231
 5713SOL     OW23759   0.970   2.691   1.652 -0.1096 -0.3257  0.0202
 5713SOL    HW123760   1.061   2.714   1.617 -0.5181  1.1827 -0.1121
 5713SOL    HW223761   0.911   2.664   1.576  0.2372 -1.3589  0.1130
 5714SOL     OW23762   9.947   2.060   1.161  0.0134 -0.2783  0.0588
 5714SOL    HW123763   9.849   2.040   1.158 -0.3730  1.6234 -0.0581
 5714SOL    HW223764   9.989   2.006   1.235 -1.6913  1.2725  2.2511
 5715SOL     OW23765   7.717   8.650   0.070  0.3641  0.2168  0.1773
 5715SOL    HW123766   7.667   8.572   0.033 -0.7680  0.7129  0.6392
 5715SOL    HW223767   7.814   8.626   0.080  0.1073 -0.9673 -0.1077
 5716SOL     OW23768   9.662   0.661   2.245 -0.2862  0.1689  0.3288
 5716SOL    HW123769   9.757   0.629   2.235 -0.5358 -0.3889 -0.3632
 5716SOL    HW223770   9.643   0.681   2.341  0.4184 -0.0881  0.5259
 5718SOL     OW23771   8.650   8.911   0.766  0.4321  0.4691  0.5563
 5718SOL    HW123772   8.620   8.832   0.820 -1.0890  1.8764  1.8327
 5718SOL    HW223773   8.650   8.992   0.824  0.8387  1.6368 -1.0485
 5719SOL     OW23774   0.627   3.667   2.638  1.0955  0.3241  0.1856
 5719SOL    HW123775   0.633   3.765   2.660 -0.7312  0.4649  0.1762
 5719SOL    HW223776   0.637   3.654   2.540  0.7356  0.5758  0.1128
 5721SOL     OW23777   0.734   4.923   0.602  0.8141 -0.6375 -0.1059
 5721SOL    HW123778   0.762   4.972   0.684  0.4368 -0.2044 -0.2332
 5721SOL    HW223779   0.685   4.986   0.541  2.7878 -0.4409 -1.5495
 5722SOL     OW23780   1.746   0.789   2.428 -0.3862  0.2776 -0.0111
 5722SOL    HW123781   1.840   0.771   2.458 -0.4004  0.6131  0.2350
 5722SOL    HW223782   1.718   0.719   2.362  0.5821  1.0517 -1.2705
 5726SOL     OW23783   2.929   0.594   0.495 -0.0332  0.4597  0.2722
 5726SOL    HW123784   2.983   0.526   0.544 -1.4120  0.6420  2.0863
 5726SOL    HW223785   2.975   0.617   0.409  0.8668 -2.1463  0.0024
 5727SOL     OW23786   8.188   9.893   0.958  0.0287  0.2482 -0.3783
 5727SOL    HW123787   8.207   9.880   1.055  0.1287  0.4017 -0.3774
 5727SOL    HW223788   8.206   9.808   0.909 -2.3886 -0.5863  0.1038
 5728SOL     OW23789   8.884   0.143   1.269  0.2737  0.3385 -0.0185
 5728SOL    HW123790   8.960   0.172   1.211  2.7678 -2.5791  1.6774
 5728SOL    HW223791   8.903   0.168   1.364 -1.2498  0.2163  0.3427
 5729SOL     OW23792   3.005   4.919   2.675  0.1433  0.8677  0.0054
 5729SOL    HW123793   2.995   4.823   2.650  1.2599  1.0448 -1.1544
 5729SOL    HW223794   2.962   4.976   2.606 -0.7420  1.2013  0.8251
 5731SOL     OW23795   2.667   2.267   1.571 -0.0699  0.0113  0.2003
 5731SOL    HW123796   2.586   2.261   1.514 -1.7126  3.0649  2.0675
 5731SOL    HW223797   2.656   2.209   1.651 -0.3154  0.2227  0.3213
 5733SOL     OW23798   1.625   3.787   0.273 -0.5878 -0.5628 -0.2958
 5733SOL    HW123799   1.539   3.830   0.301 -0.3605 -0.7631  0.7023
 5733SOL    HW223800   1.649   3.818   0.180  0.7027  3.2391  1.2050
 5734SOL     OW23801   0.220   0.623   2.286  0.4677 -0.4808  0.1854
 5734SOL    HW123802   0.270   0.603   2.202 -0.3419  0.1679 -0.4625
 5734SOL    HW223803   0.121   0.623   2.268  0.3133  0.4315  0.9564
 5735SOL     OW23804   1.447   1.738   0.011  0.1493  0.1631  0.3866
 5735SOL    HW123805   1.530   1.761   0.061 -0.0779  1.5038  0.1650
 5735SOL    HW223806   1.466   1.738  -0.087  0.1112 -0.4704  0.3755
 5736SOL     OW23807   9.552   7.083   1.218 -0.1257 -0.4790  0.1072
 5736SOL    HW123808   9.532   7.053   1.311 -1.4854 -1.0939 -0.3672
 5736SOL    HW223809   9.467   7.084   1.165  0.3026  1.7119 -0.5989
 5738SOL     OW23810   9.696   1.667   0.814 -0.2829 -0.2253 -1.1487
 5738SOL    HW123811   9.713   1.765   0.826  0.4995 -0.2046 -2.3226
 5738SOL    HW223812   9.670   1.649   0.719 -1.9966 -0.9515 -0.5590
 5740SOL     OW23813   9.345   5.968   0.507  0.1423 -0.0660 -0.4101
 5740SOL    HW123814   9.352   5.870   0.524  0.9515 -0.1312 -1.0804
 5740SOL    HW223815   9.384   6.017   0.585  0.9545 -0.3087 -0.6511
 5741SOL     OW23816   0.171   8.658   1.236  0.1766 -0.1380 -0.6417
 5741SOL    HW123817   0.227   8.604   1.173  0.2986 -0.9285  0.1291
 5741SOL    HW223818   0.134   8.598   1.307 -1.2562  0.4637 -0.8625
 5742SOL     OW23819   3.129   5.502   2.432  0.5479 -0.3097  0.0737
 5742SOL    HW123820   3.054   5.437   2.424 -0.6609  1.3302 -2.5162
 5742SOL    HW223821   3.118   5.555   2.516 -1.8794  0.6918 -0.8249
 5743SOL     OW23822   3.092   7.328   1.224  0.1268 -0.4649  0.3500
 5743SOL    HW123823   3.150   7.396   1.270 -1.3328  1.1206 -0.1405
 5743SOL    HW223824   3.148   7.272   1.163  1.1326  1.0700 -0.1354
 5744SOL     OW23825   9.186   7.112   2.257  0.0161  0.2791  0.2012
 5744SOL    HW123826   9.152   7.031   2.305 -0.0416 -0.1850 -0.6194
 5744SOL    HW223827   9.243   7.084   2.180  1.1941  1.0373  0.7814
 5745SOL     OW23828   4.069   5.243   2.298 -0.4733  0.5662  0.0991
 5745SOL    HW123829   4.023   5.285   2.220 -0.6940 -0.3255 -0.2521
 5745SOL    HW223830   4.050   5.145   2.300  1.4644  0.1585 -0.0839
 5746SOL     OW23831   8.942   5.675   0.701  0.1391  0.2257  0.0248
 5746SOL    HW123832   8.884   5.653   0.780 -1.3474 -1.3564 -1.4916
 5746SOL    HW223833   9.038   5.680   0.731 -0.5183  0.8429  2.1442
 5747SOL     OW23834   0.903   5.379   1.039  0.1912  0.0479  0.6659
 5747SOL    HW123835   0.895   5.284   1.008 -1.2249  0.1587  0.6853
 5747SOL    HW223836   0.987   5.419   1.003  0.3699 -0.9525 -0.0309
 5749SOL     OW23837   1.384   8.082   1.524 -0.4916  0.0800  0.0939
 5749SOL    HW123838   1.385   7.984   1.543  0.5526  0.0406 -0.1187
 5749SOL    HW223839   1.407   8.132   1.608  0.6978  0.0537 -0.1953
 5751SOL     OW23840   2.800   5.011   0.445 -0.0084 -0.3889  0.3714
 5751SOL    HW123841   2.786   5.103   0.481 -0.9438  0.1701 -1.3407
 5751SOL    HW223842   2.815   5.016   0.346 -2.3176 -2.2243 -0.1232
 5752SOL     OW23843   4.079   7.486   2.452 -0.1988  0.1243  0.2152
 5752SOL    HW123844   4.047   7.392   2.436  1.9109 -0.2744 -1.9116
 5752SOL    HW223845   4.135   7.487   2.536 -1.7375 -0.1238  1.2662
 5753SOL     OW23846   2.458   2.169   2.224  0.3577 -0.2187  0.0183
 5753SOL    HW123847   2.400   2.235   2.271 -2.3176 -1.4881 -1.4155
 5753SOL    HW223848   2.520   2.218   2.162 -0.8736  1.0282 -0.2602
 5754SOL     OW23849   8.935   1.341   1.316 -0.2507 -0.2544  0.0440
 5754SOL    HW123850   8.964   1.274   1.248  2.0639 -0.1798  0.9236
 5754SOL    HW223851   8.890   1.294   1.392  0.5651 -0.7255  0.2386
 5756SOL     OW23852   8.011   8.637   1.524  0.4077  0.2168  0.1618
 5756SOL    HW123853   8.049   8.715   1.575  0.8107 -0.0900  0.3336
 5756SOL    HW223854   7.941   8.593   1.579  1.9878 -1.1191  1.1595
 5758SOL     OW23855   3.337   6.974   1.473 -0.2099  0.1365 -0.0173
 5758SOL    HW123856   3.422   6.951   1.426  0.2397  0.9758  0.3629
 5758SOL    HW223857   3.263   6.914   1.441  0.3863 -0.1943 -0.7899
 5759SOL     OW23858   4.532   8.651   2.440  0.4968 -0.3673  0.5582
 5759SOL    HW123859   4.470   8.639   2.518 -0.4122  1.3721  0.1314
 5759SOL    HW223860   4.496   8.600   2.362  0.2303 -0.3154  0.6455
 5760SOL     OW23861   8.192   9.232   1.785 -0.0738 -0.3335  0.0594
 5760SOL    HW123862   8.276   9.201   1.829  0.1255  0.5295  0.3012
 5760SOL    HW223863   8.161   9.316   1.829 -1.5028 -1.0740  0.5020
 5763SOL     OW23864   0.890   6.612   0.241 -0.2322  0.0716  0.6631
 5763SOL    HW123865   0.914   6.596   0.337  1.0928  1.3158  0.5646
 5763SOL    HW223866   0.823   6.685   0.235  1.7261  1.9093  0.5168
 5764SOL     OW23867   8.223   6.496   2.573 -0.2258 -0.1880 -0.3481
 5764SOL    HW123868   8.158   6.457   2.508 -1.5425  0.8176  0.3177
 5764SOL    HW223869   8.271   6.573   2.531 -1.2793  0.6411 -0.0692
 5765SOL     OW23870   1.919   8.908   0.606  0.3523 -0.1272 -0.2118
 5765SOL    HW123871   1.951   8.988   0.556  0.7776 -0.1406  0.0373
 5765SOL    HW223872   1.846   8.864   0.554  1.2008 -0.4844 -1.1276
 5766SOL     OW23873   4.154   0.379   1.323 -0.0537 -0.3879 -0.0763
 5766SOL    HW123874   4.237   0.395   1.376  0.6344  1.1386 -1.5697
 5766SOL    HW223875   4.148   0.446   1.248 -1.1987 -2.2302 -1.6939
 5767SOL     OW23876   1.766   6.638   2.194  0.3049 -0.2630 -0.0212
 5767SOL    HW123877   1.767   6.545   2.156  0.9358 -0.0513 -0.5298
 5767SOL    HW223878   1.807   6.701   2.128  1.8278  0.0420  1.2025
 5768SOL     OW23879   2.821   0.068   1.747 -0.1185  0.0209  0.0915
 5768SOL    HW123880   2.828   0.150   1.803  0.0221 -0.0703  0.2051
 5768SOL    HW223881   2.733   0.068   1.700  0.7210  1.2645 -1.5159
 5770SOL     OW23882   2.248   3.538   2.639  0.1543  0.0278  0.2922
 5770SOL    HW123883   2.318   3.599   2.677 -1.8396  1.7627  1.2696
 5770SOL    HW223884   2.202   3.490   2.714 -0.3036 -0.4292 -0.2794
 5772SOL     OW23885   8.061   1.116   1.964  0.1755  0.3101  0.6977
 5772SOL    HW123886   8.136   1.181   1.949 -0.0457  0.8646  1.9907
 5772SOL    HW223887   8.064   1.082   2.058  0.2338 -1.5024  0.0590
 5773SOL     OW23888   9.602   2.159   0.746 -0.3574 -0.1919  0.5577
 5773SOL    HW123889   9.503   2.144   0.742 -0.5593  0.7759  1.6717
 5773SOL    HW223890   9.621   2.238   0.805  0.9800  0.5525 -0.8396
 5774SOL     OW23891   0.887   4.742   2.503  0.7307  0.0298 -0.7109
 5774SOL    HW123892   0.922   4.718   2.412  0.4735 -0.2120 -0.7452
 5774SOL    HW223893   0.848   4.660   2.547  0.4685  0.2377 -0.5553
 5775SOL     OW23894   4.550   9.807   2.249 -0.1235  0.5080 -0.0310
 5775SOL    HW123895   4.488   9.729   2.241 -0.7213  0.8376  1.3178
 5775SOL    HW223896   4.522   9.879   2.187  0.5479 -0.4139 -1.4345
 5776SOL     OW23897   2.435   9.668   0.049  0.1508  0.3268  0.7501
 5776SOL    HW123898   2.520   9.632   0.086  0.8788  1.1465 -0.0974
 5776SOL    HW223899   2.418   9.627  -0.041  0.2129  0.9873  0.4392
 5777SOL     OW23900   5.679   9.492   2.400  0.1538  0.0249  0.1851
 5777SOL    HW123901   5.744   9.541   2.341  1.4978 -0.5767  1.1569
 5777SOL    HW223902   5.727   9.455   2.479 -1.7206  1.1883  1.9041
 5778SOL     OW23903   0.958   7.698   1.882  0.2642 -0.2316 -0.3588
 5778SOL    HW123904   0.892   7.640   1.929  0.5777 -0.1224  0.2177
 5778SOL    HW223905   0.971   7.782   1.935  1.5020 -0.6225 -0.0376
 5779SOL     OW23906   3.698   7.999   1.320 -0.1369  0.3643  0.2415
 5779SOL    HW123907   3.726   7.904   1.331  1.0824  0.1810 -3.6468
 5779SOL    HW223908   3.749   8.057   1.385  1.2218 -1.2728  0.6595
 5780SOL     OW23909   2.949   9.773   0.576 -0.6116 -0.1082  0.0276
 5780SOL    HW123910   2.895   9.854   0.552 -1.5193 -1.1532 -1.5583
 5780SOL    HW223911   3.046   9.798   0.579 -0.9656  1.2797  0.6768
 5781SOL     OW23912   3.013   0.802   1.073  0.1157 -0.0345  0.1696
 5781SOL    HW123913   3.031   0.711   1.109  1.3094  0.4370  0.7814
 5781SOL    HW223914   2.979   0.861   1.146  1.8194  0.7133  0.3808
 5782SOL     OW23915   9.132   5.120   0.481  0.2372 -0.7953  0.7982
 5782SOL    HW123916   9.230   5.101   0.491  0.4362  0.6995  1.7727
 5782SOL    HW223917   9.116   5.218   0.486 -1.2965 -1.0107  0.3783
 5783SOL     OW23918   3.726   0.208   1.485 -0.8019 -0.1959 -0.4532
 5783SOL    HW123919   3.703   0.290   1.432 -0.7727 -0.4025 -0.7881
 5783SOL    HW223920   3.716   0.127   1.427  2.0209 -0.1990 -0.9956
 5784SOL     OW23921   9.979   1.055   2.468 -0.3656 -0.2981  0.4315
 5784SOL    HW123922  10.052   1.086   2.407 -1.9480  1.2725 -0.7081
 5784SOL    HW223923   9.941   0.969   2.434  1.7449 -1.7781  1.7095
 5785SOL     OW23924   2.104   5.468   0.704  0.0987  0.5784 -0.6910
 5785SOL    HW123925   2.044   5.475   0.783  0.4393  0.5635 -0.4303
 5785SOL    HW223926   2.168   5.392   0.717  0.4538  0.8588 -0.7795
 5786SOL     OW23927   2.316   5.284   0.821 -0.7610  0.9273  0.3119
 5786SOL    HW123928   2.405   5.329   0.827 -0.8128  1.2335 -1.0478
 5786SOL    HW223929   2.327   5.185   0.835  0.2257  0.5638 -2.5338
 5787SOL     OW23930   1.363   9.937   2.085 -0.2064  0.4346 -0.0484
 5787SOL    HW123931   1.284   9.897   2.131 -1.3131  2.6141  0.0445
 5787SOL    HW223932   1.430   9.966   2.154 -0.6112  1.1615  0.0453
 5788SOL     OW23933   0.468   6.834   2.405  0.0817  0.1518 -0.1463
 5788SOL    HW123934   0.410   6.754   2.420  0.6165 -0.1821  0.1870
 5788SOL    HW223935   0.544   6.809   2.344  1.0318  0.0329  1.0692
 5789SOL     OW23936   8.482   0.465   1.043  0.0851  0.6140  0.4342
 5789SOL    HW123937   8.459   0.562   1.058 -1.6608  0.2479  0.2611
 5789SOL    HW223938   8.403   0.409   1.067  0.3435 -0.6314 -1.5820
 5790SOL     OW23939   2.738   1.572   1.389  0.7692  0.3680  0.4816
 5790SOL    HW123940   2.757   1.559   1.486  1.0464  1.7340  0.6289
 5790SOL    HW223941   2.759   1.667   1.364  2.2191 -0.3998 -1.2701
 5791SOL     OW23942   4.457   4.612   2.702  0.4274  0.1632  0.2049
 5791SOL    HW123943   4.402   4.688   2.735  0.3141 -0.7602  2.2359
 5791SOL    HW223944   4.399   4.545   2.656  0.2335  0.3827  0.1332
 5793SOL     OW23945   9.254   1.322   2.558 -0.5297  0.0729  0.1207
 5793SOL    HW123946   9.302   1.408   2.575  0.1056 -0.0595 -0.9666
 5793SOL    HW223947   9.195   1.301   2.636  0.4809  0.7049  1.0820
 5794SOL     OW23948   9.729   0.610   0.719 -0.3337  0.3845 -0.5096
 5794SOL    HW123949   9.734   0.689   0.780  1.1309  0.0542 -0.1630
 5794SOL    HW223950   9.646   0.558   0.737 -0.0468  0.4417  1.0393
 5795SOL     OW23951   2.356   8.813   0.186 -0.7286 -0.2268  0.6073
 5795SOL    HW123952   2.429   8.748   0.164  0.6398  0.8984  1.7691
 5795SOL    HW223953   2.351   8.825   0.285  0.4979  3.0518  0.3471
 5796SOL     OW23954   5.222   2.596   1.568 -0.1885  0.0383  0.0554
 5796SOL    HW123955   5.127   2.566   1.576  0.1946 -1.8689 -2.1353
 5796SOL    HW223956   5.280   2.538   1.624 -0.0111 -0.4352 -0.6125
 5797SOL     OW23957   1.439   6.423   1.758 -0.4923  0.2551 -0.8831
 5797SOL    HW123958   1.504   6.352   1.731 -0.4780  0.8085 -2.3305
 5797SOL    HW223959   1.355   6.413   1.705  0.2880  2.5874 -2.5860
 5798SOL     OW23960   9.821   3.058   1.744 -0.4585  0.4433 -0.1941
 5798SOL    HW123961   9.905   3.009   1.720 -0.5811  0.2829 -0.2932
 5798SOL    HW223962   9.784   3.022   1.830 -1.0090 -0.2073 -0.6989
 5799SOL     OW23963   0.917   0.696   0.213 -0.5188  0.0967 -0.2139
 5799SOL    HW123964   0.836   0.663   0.165 -1.7370  1.2727  1.0076
 5799SOL    HW223965   0.903   0.686   0.311  1.1913 -0.5201 -0.0183
 5801SOL     OW23966   3.824   2.901   1.356 -0.0023  0.3416  0.5101
 5801SOL    HW123967   3.905   2.842   1.353 -0.8248 -0.7081 -2.4723
 5801SOL    HW223968   3.854   2.997   1.358  1.3564  0.0036 -1.8567
 5802SOL     OW23969   0.779   4.699   1.335  0.0347 -0.5037  0.2406
 5802SOL    HW123970   0.870   4.732   1.358  0.8778  0.1585 -3.6707
 5802SOL    HW223971   0.780   4.599   1.329  0.5670 -0.4909  0.0726
 5803SOL     OW23972   3.622   0.490   1.715  0.3346 -0.0360  0.0340
 5803SOL    HW123973   3.532   0.518   1.748  0.5685 -1.1058  1.6187
 5803SOL    HW223974   3.692   0.523   1.778  0.8678 -1.2352  0.0763
 5804SOL     OW23975   3.578   1.572   0.191 -0.6210 -0.3257 -0.3490
 5804SOL    HW123976   3.587   1.516   0.108 -3.7317  0.0380 -0.9932
 5804SOL    HW223977   3.519   1.526   0.257 -0.8227  0.8582  0.3140
 5805SOL     OW23978   0.185   2.507   0.755  0.5410 -0.2144 -0.4727
 5805SOL    HW123979   0.168   2.577   0.825 -0.5568 -0.3615 -0.5791
 5805SOL    HW223980   0.253   2.541   0.690  0.7866  0.3406  0.0630
 5806SOL     OW23981   7.445   9.677   2.222 -1.2337 -0.4227  0.2102
 5806SOL    HW123982   7.445   9.776   2.206  2.4295 -0.4693 -0.7155
 5806SOL    HW223983   7.419   9.630   2.137 -1.9444 -0.2584  0.3398
 5809SOL     OW23984   8.116   0.032   1.485  0.3388 -0.1234  0.3770
 5809SOL    HW123985   8.162  -0.007   1.565  0.2459 -0.3943  0.3013
 5809SOL    HW223986   8.182   0.080   1.428  0.1190  1.5414  1.4854
 5810SOL     OW23987   0.290   6.421   1.323 -0.0912 -0.1142  0.1489
 5810SOL    HW123988   0.194   6.398   1.308 -0.2777 -0.2894  1.5130
 5810SOL    HW223989   0.340   6.340   1.353  0.9551 -0.5170 -2.5383
 5811SOL     OW23990   3.434   4.617   2.409  0.0153 -0.1042 -0.0020
 5811SOL    HW123991   3.521   4.640   2.364  0.6305  3.3573  2.6969
 5811SOL    HW223992   3.453   4.566   2.493 -0.6068  0.0194  0.2137
 5812SOL     OW23993   3.208   8.569   1.775  0.0183 -0.2494  0.3656
 5812SOL    HW123994   3.163   8.501   1.718 -1.4700  0.4954  0.6112
 5812SOL    HW223995   3.148   8.648   1.786  0.2146 -0.4079  3.0264
 5813SOL     OW23996   4.010   1.847   1.393 -0.0227 -0.4884  0.0197
 5813SOL    HW123997   3.966   1.758   1.385 -3.4926  1.1573  0.0268
 5813SOL    HW223998   3.986   1.889   1.480 -0.8339  1.6669 -1.1962
 5814SOL     OW23999   3.563   5.498   1.824 -0.1721 -0.1329  0.7462
 5814SOL    HW124000   3.571   5.501   1.923  2.6943  0.6027  0.5201
 5814SOL    HW224001   3.624   5.428   1.787  0.3305  0.9997 -0.6323
 5816SOL     OW24002   2.393   9.947   1.819 -0.1567 -0.0264 -0.3616
 5816SOL    HW124003   2.401   9.993   1.907  3.5494 -0.3365 -0.4662
 5816SOL    HW224004   2.436  10.004   1.748  0.1304 -1.4380 -1.3315
 5818SOL     OW24005   3.599   8.909   1.989 -0.4592 -0.1068  0.0249
 5818SOL    HW124006   3.568   8.816   1.968 -1.5140  0.0925  0.6940
 5818SOL    HW224007   3.584   8.967   1.909  2.9207 -1.1542 -1.4519
 5819SOL     OW24008   8.822   1.040   1.138 -0.0862 -0.1157  0.6222
 5819SOL    HW124009   8.726   1.064   1.149 -0.2638 -0.4823 -0.1254
 5819SOL    HW224010   8.866   1.037   1.228 -0.2716  2.0445  0.7944
 5820SOL     OW24011   0.297   0.454   0.794 -0.2356  0.2534  0.4411
 5820SOL    HW124012   0.219   0.478   0.852 -0.8254  2.2993 -1.1412
 5820SOL    HW224013   0.264   0.434   0.701  1.1539  1.4169 -0.3179
 5821SOL     OW24014   2.474   7.924   2.114 -0.2207 -0.4440  0.0454
 5821SOL    HW124015   2.529   7.908   2.196  0.8511 -0.9689 -0.7723
 5821SOL    HW224016   2.422   8.008   2.125 -1.0919 -1.1792  1.8039
 5822SOL     OW24017   3.732   2.272   1.963 -0.4742 -0.0628 -0.3585
 5822SOL    HW124018   3.741   2.240   2.057 -1.2559 -0.4965 -0.4278
 5822SOL    HW224019   3.670   2.212   1.912  0.2588 -0.0750 -1.2659
 5823SOL     OW24020   2.028   8.708   1.765  0.6334  0.1617 -0.5937
 5823SOL    HW124021   2.005   8.792   1.715  0.2639 -0.0055 -0.7064
 5823SOL    HW224022   2.079   8.646   1.705 -0.1446 -0.2003 -0.8894
 5824SOL     OW24023   9.944   8.686   0.425 -0.4606 -0.0690 -0.0604
 5824SOL    HW124024   9.920   8.766   0.481  2.5348  0.4476  0.5612
 5824SOL    HW224025   9.982   8.614   0.484 -2.6884 -1.8148 -0.6809
 5825SOL     OW24026   0.248   7.400   1.922 -0.2055  0.1184  0.6033
 5825SOL    HW124027   0.304   7.397   1.839  0.3479 -0.1681  0.9831
 5825SOL    HW224028   0.289   7.465   1.987 -0.6257  0.3258  0.6626
 5826SOL     OW24029   9.503   4.540   0.895 -0.4513  0.3244  0.7583
 5826SOL    HW124030   9.570   4.564   0.965 -0.9781  0.0529  1.3631
 5826SOL    HW224031   9.436   4.477   0.933 -0.1681 -0.6190 -0.2833
 5827SOL     OW24032   3.878   7.654   2.516  0.5988 -0.3401 -0.3405
 5827SOL    HW124033   3.936   7.578   2.490  1.0625  0.0435 -0.4344
 5827SOL    HW224034   3.935   7.734   2.537  0.0245  0.5437 -2.0918
 5828SOL     OW24035   0.909   9.728   1.750 -0.4560 -0.0437 -0.6313
 5828SOL    HW124036   0.959   9.812   1.728 -1.2338  0.1064 -1.8309
 5828SOL    HW224037   0.942   9.693   1.838 -0.2952  1.6378  0.0039
 5829SOL     OW24038   8.531   1.368   0.925 -0.4948  0.7203  0.3976
 5829SOL    HW124039   8.575   1.454   0.897 -0.7363  1.2682  1.6601
 5829SOL    HW224040   8.518   1.309   0.845  2.0897  0.7523 -0.0884
 5830SOL     OW24041   9.079   3.321   0.514 -0.2972 -0.4461 -0.2523
 5830SOL    HW124042   8.998   3.332   0.572  0.1266 -2.8078  0.8539
 5830SOL    HW224043   9.150   3.272   0.564  1.6725  1.1795 -1.3802
 5831SOL     OW24044   1.095   0.206   2.302  0.1046 -0.3725  0.0491
 5831SOL    HW124045   1.043   0.150   2.367  0.4699 -1.3190 -0.4598
 5831SOL    HW224046   1.106   0.298   2.339 -0.7765 -0.5402  0.7610
 5832SOL     OW24047   1.155   6.434   0.353  0.3886  0.0124  0.1394
 5832SOL    HW124048   1.213   6.515   0.348  0.3989 -0.1084 -1.7892
 5832SOL    HW224049   1.098   6.440   0.435  1.5862  1.1503  0.9085
 5834SOL     OW24050   8.638   1.525   2.375 -0.0857  0.2263  0.0961
 5834SOL    HW124051   8.610   1.489   2.286  0.4030 -1.3486  0.5695
 5834SOL    HW224052   8.557   1.540   2.432 -0.2874 -0.3333 -0.0357
 5836SOL     OW24053   9.596   9.793   1.322 -0.9806  0.3628  0.5830
 5836SOL    HW124054   9.632   9.801   1.229 -0.1443  1.5378  0.9892
 5836SOL    HW224055   9.507   9.747   1.320 -1.2801  0.9724 -0.8824
 5838SOL     OW24056   9.619   9.044   0.363 -0.4876 -0.6428 -0.2809
 5838SOL    HW124057   9.611   8.946   0.378  1.6188 -0.8888 -0.5970
 5838SOL    HW224058   9.696   9.080   0.417 -0.7727  0.6986 -0.7463
 5839SOL     OW24059   0.745   1.385   2.662  0.0366  0.2925 -0.3044
 5839SOL    HW124060   0.723   1.448   2.736  1.6002 -0.1654  0.5774
 5839SOL    HW224061   0.705   1.295   2.682 -1.8975  0.8771 -1.3930
 5840SOL     OW24062   9.140   6.246   0.638  0.2523 -0.3913 -0.1957
 5840SOL    HW124063   9.234   6.267   0.612 -0.2045  1.4003 -0.4560
 5840SOL    HW224064   9.088   6.219   0.557  0.3374 -0.6215 -0.1749
 5841SOL     OW24065   4.203   9.108   0.856  0.5729 -0.0851 -0.2320
 5841SOL    HW124066   4.272   9.170   0.891  2.3238 -0.9230 -2.1387
 5841SOL    HW224067   4.221   9.087   0.760 -1.7896 -1.0582 -0.5125
 5842SOL     OW24068   3.277   4.026   0.329 -0.2897  0.2245  0.1999
 5842SOL    HW124069   3.193   4.007   0.379 -1.3672  0.4090 -1.5077
 5842SOL    HW224070   3.332   4.093   0.379 -0.1841 -1.4110  2.3214
 5843SOL     OW24071   2.159   3.839   1.355  0.1344  0.6709 -0.1085
 5843SOL    HW124072   2.207   3.906   1.298  0.3756  0.8394  0.2893
 5843SOL    HW224073   2.197   3.841   1.447 -1.0095  1.1758  0.3548
 5844SOL     OW24074   1.428   6.418   0.601  0.5183  0.1750 -0.4146
 5844SOL    HW124075   1.514   6.466   0.586  0.6345  0.3184  0.6411
 5844SOL    HW224076   1.367   6.476   0.656  0.0841 -0.2740 -0.4211
 5845SOL     OW24077   2.327   5.116   2.616 -0.5090  0.1896 -1.4690
 5845SOL    HW124078   2.264   5.040   2.598 -0.7272  0.2051 -0.7839
 5845SOL    HW224079   2.419   5.080   2.628 -0.8319 -0.1313  0.2363
 5848SOL     OW24080   2.712   3.521   1.414  0.0781  0.4041  0.6460
 5848SOL    HW124081   2.749   3.546   1.324  0.8526 -0.5090  0.6992
 5848SOL    HW224082   2.625   3.474   1.402  0.1652  0.3106  0.3808
 5849SOL     OW24083   0.349   7.636   0.581 -0.4785  0.3268 -0.1639
 5849SOL    HW124084   0.262   7.665   0.623  0.0624 -1.3350  2.2600
 5849SOL    HW224085   0.425   7.671   0.636  0.3148 -0.2553 -0.8845
 5850SOL     OW24086   8.826   4.829   2.680 -0.2854  0.4286  0.5316
 5850SOL    HW124087   8.752   4.816   2.614 -0.1015  0.7825  0.2568
 5850SOL    HW224088   8.868   4.740   2.699  1.4103  0.6323 -1.8772
 5851SOL     OW24089   1.873   2.634   2.418  0.4883  0.5493  0.5259
 5851SOL    HW124090   1.973   2.630   2.407  0.3440 -0.6264 -0.4939
 5851SOL    HW224091   1.842   2.555   2.472 -0.3509 -1.8476 -3.2070
 5852SOL     OW24092   4.172   9.464   2.629  0.4722  0.1528 -0.0701
 5852SOL    HW124093   4.269   9.455   2.650  0.2272 -1.0262  0.6328
 5852SOL    HW224094   4.118   9.436   2.708 -0.4417  1.2141 -0.3091
 5854SOL     OW24095   2.830   0.084   0.395  0.2676  0.0560  0.5294
 5854SOL    HW124096   2.750   0.133   0.360  1.6084  2.4621  0.7114
 5854SOL    HW224097   2.856   0.012   0.331  0.0180  1.5042 -1.2258
 5855SOL     OW24098   8.500   2.799   2.546 -0.0252 -0.1352 -0.4621
 5855SOL    HW124099   8.509   2.717   2.602 -2.3035  0.1639  0.3657
 5855SOL    HW224100   8.497   2.880   2.605 -0.1567  0.3623 -1.1361
 5856SOL     OW24101   3.566   8.497   1.590  0.3010  0.6165 -0.2635
 5856SOL    HW124102   3.512   8.550   1.526  0.2044 -0.9094 -1.4678
 5856SOL    HW224103   3.507   8.459   1.661 -0.0587 -0.1712 -0.9789
 5857SOL     OW24104   0.381   4.262   1.984 -0.2461 -0.4564  0.2826
 5857SOL    HW124105   0.325   4.344   1.973 -0.7464 -0.7650  0.4959
 5857SOL    HW224106   0.323   4.186   2.014 -0.1255 -1.3624 -1.6969
 5859SOL     OW24107   1.228   3.097   0.380 -0.3184  0.1646  0.0206
 5859SOL    HW124108   1.141   3.053   0.401 -0.5096  1.0717  1.2013
 5859SOL    HW224109   1.213   3.193   0.357  0.4176  0.4768  0.8033
 5861SOL     OW24110   3.037   8.677   2.056 -0.0529  0.4553 -0.1150
 5861SOL    HW124111   3.064   8.588   2.093  1.6123  1.0061  0.0185
 5861SOL    HW224112   3.034   8.745   2.129  2.0460  1.2660 -0.7225
 5862SOL     OW24113   0.049   2.799   2.664  0.3012 -0.0035 -0.4336
 5862SOL    HW124114   0.116   2.765   2.730 -1.1892  0.0289  1.1387
 5862SOL    HW224115   0.009   2.723   2.614 -1.2094 -0.3932  1.3105
 5863SOL     OW24116   1.062   2.593   0.069  0.4028  0.0173 -0.4014
 5863SOL    HW124117   1.073   2.597   0.168  2.8867  1.1847 -0.6998
 5863SOL    HW224118   0.979   2.542   0.047 -0.6745  0.5272  2.2903
 5864SOL     OW24119   7.555   9.817   1.856 -0.1368 -0.1287 -0.0323
 5864SOL    HW124120   7.559   9.849   1.761  0.8895 -0.1142  0.0116
 5864SOL    HW224121   7.646   9.788   1.885 -0.4100  0.0486  1.0173
 5865SOL     OW24122   0.529   8.006   1.220  0.3379 -0.1747  0.2591
 5865SOL    HW124123   0.580   8.085   1.254 -0.8811  0.3007  0.9968
 5865SOL    HW224124   0.441   8.036   1.183  0.4301 -1.0381 -0.6948
 5866SOL     OW24125   0.913   4.603   0.939  0.2529 -0.2360 -0.2808
 5866SOL    HW124126   0.848   4.677   0.919  0.4175  0.6050  2.2235
 5866SOL    HW224127   0.982   4.599   0.866 -0.0671  1.7255 -0.7161
 5867SOL     OW24128   2.012   6.480   2.635  0.1702  0.2520 -0.6414
 5867SOL    HW124129   1.938   6.425   2.673 -0.0471  1.4719  0.7510
 5867SOL    HW224130   1.981   6.526   2.552 -0.1286 -0.4982 -0.9470
 5868SOL     OW24131   2.300   8.355   1.958 -0.7558 -0.1663 -0.3540
 5868SOL    HW124132   2.400   8.362   1.953 -0.8184  0.1461 -1.5642
 5868SOL    HW224133   2.265   8.426   2.018 -0.3852  1.1714 -1.6649
 5869SOL     OW24134   6.540   9.618   2.654 -0.0613 -0.2298  0.3758
 5869SOL    HW124135   6.556   9.521   2.635  2.0490  0.2508 -0.4099
 5869SOL    HW224136   6.600   9.648   2.728  0.8428  0.9794 -0.8289
 5870SOL     OW24137   2.999   3.240   0.814 -0.0129 -0.5824 -0.4566
 5870SOL    HW124138   3.088   3.263   0.855 -0.5322 -0.3176  0.5432
 5870SOL    HW224139   2.945   3.324   0.804 -0.1398 -0.7383 -1.0974
 5871SOL     OW24140   9.330   0.708   0.793  0.3766  0.8710 -0.1334
 5871SOL    HW124141   9.322   0.736   0.697  0.3668  1.4621  0.0378
 5871SOL    HW224142   9.403   0.640   0.802 -0.3599 -0.0014 -0.7300
 5872SOL     OW24143   0.479   0.809   2.370  0.1111 -0.0630 -0.2694
 5872SOL    HW124144   0.390   0.764   2.373 -0.5600  1.1943 -0.7114
 5872SOL    HW224145   0.469   0.900   2.329  1.5292  0.2600  0.0583
 5874SOL     OW24146   2.824   1.966   0.724  0.1264 -0.0300 -0.2279
 5874SOL    HW124147   2.906   2.011   0.759  1.2493 -3.0177  1.1811
 5874SOL    HW224148   2.845   1.919   0.639 -0.4541  0.2215 -0.5152
 5875SOL     OW24149   1.099   5.193   1.271 -0.1509  0.3810 -0.6798
 5875SOL    HW124150   1.005   5.213   1.299 -0.0813 -0.1855 -0.0248
 5875SOL    HW224151   1.114   5.226   1.178 -1.4425 -0.8913 -1.3485
 5876SOL     OW24152   9.050   4.649   1.918  0.0396  0.1223 -0.0242
 5876SOL    HW124153   9.045   4.706   1.836  2.0899 -0.0548 -0.2902
 5876SOL    HW224154   9.119   4.687   1.980 -0.4465 -0.5888  0.9611
 5880SOL     OW24155   4.109   1.195   0.624  0.3391  0.2603 -0.2882
 5880SOL    HW124156   4.022   1.177   0.580  0.5099  0.6505 -0.7886
 5880SOL    HW224157   4.182   1.192   0.556  1.0928 -2.9406  0.5649
 5881SOL     OW24158   2.422   9.818   0.655  0.7374 -0.2059  0.1610
 5881SOL    HW124159   2.486   9.808   0.732 -0.1318 -1.0444  0.7902
 5881SOL    HW224160   2.447   9.754   0.582  2.5907  1.7856 -0.9869
 5882SOL     OW24161   1.492   1.634   2.164  0.3439  0.4848  0.4458
 5882SOL    HW124162   1.418   1.697   2.185 -2.1341 -1.8178 -0.9815
 5882SOL    HW224163   1.498   1.564   2.235 -0.7160 -0.9233 -0.8253
 5885SOL     OW24164   2.382   4.576   0.834 -0.3483  0.3343  0.1522
 5885SOL    HW124165   2.436   4.498   0.865 -0.3261  0.5159  0.5790
 5885SOL    HW224166   2.285   4.551   0.832 -0.2426  0.0051 -0.6262
 5886SOL     OW24167   1.138   9.189   0.426 -0.3692  0.0262 -0.0797
 5886SOL    HW124168   1.066   9.120   0.431  0.2635 -0.6299  0.1047
 5886SOL    HW224169   1.202   9.176   0.502  0.6736 -0.2189 -0.9856
 5887SOL     OW24170   0.186   2.248   0.708 -0.1210 -0.1832  0.9175
 5887SOL    HW124171   0.171   2.347   0.713 -1.0519 -0.1448 -1.9052
 5887SOL    HW224172   0.102   2.200   0.734 -0.0053 -0.2165  1.2299
 5888SOL     OW24173   0.332   3.951   0.292  0.2938 -0.7398  0.4472
 5888SOL    HW124174   0.261   3.925   0.358 -0.0016 -0.4754  0.2324
 5888SOL    HW224175   0.293   3.954   0.201  0.4049  0.1632  0.4272
 5889SOL     OW24176   9.666   4.426   1.622  0.1363  0.0632  0.0130
 5889SOL    HW124177   9.712   4.366   1.687  2.4000  1.0046 -0.6572
 5889SOL    HW224178   9.687   4.521   1.643 -2.1559  0.5778  0.1279
 5892SOL     OW24179   0.059   3.171   2.383  0.9707  0.2086 -0.1506
 5892SOL    HW124180   0.147   3.168   2.431  0.9613  0.9137 -0.0770
 5892SOL    HW224181   0.007   3.251   2.415  0.2753 -0.2441 -0.1426
 5893SOL     OW24182   9.692   8.195   0.772 -0.1984  0.0880 -0.6020
 5893SOL    HW124183   9.614   8.135   0.789 -0.7786  0.2607 -2.5486
 5893SOL    HW224184   9.663   8.272   0.715  0.9979  1.1217  0.1615
 5894SOL     OW24185   4.005   9.861   1.103  0.0006  0.7693  0.1246
 5894SOL    HW124186   3.921   9.806   1.108  0.9066 -0.6992 -0.5255
 5894SOL    HW224187   4.030   9.874   1.007  0.9280  0.5712  0.3390
 5895SOL     OW24188   7.587   2.202   1.999 -0.2213  0.1844  0.4841
 5895SOL    HW124189   7.656   2.207   1.926  0.9958 -0.2888  1.5984
 5895SOL    HW224190   7.524   2.127   1.980 -0.2008  0.3543 -0.3136
 5898SOL     OW24191   0.449   3.648   2.066  0.2774 -0.4527  0.5783
 5898SOL    HW124192   0.415   3.555   2.056  1.7646 -1.0195  0.5840
 5898SOL    HW224193   0.522   3.664   2.000 -1.8624  1.6631 -1.3471
 5899SOL     OW24194   8.422   0.098   1.377  0.1071 -0.3099 -0.1633
 5899SOL    HW124195   8.464   0.034   1.442  0.2390  0.3177  0.3775
 5899SOL    HW224196   8.488   0.123   1.307  0.9841  1.4592  1.2520
 5900SOL     OW24197   1.397   0.548   1.992 -0.7209  0.0235  0.6752
 5900SOL    HW124198   1.404   0.645   2.013  1.4592 -0.2539  1.4010
 5900SOL    HW224199   1.488   0.512   1.971 -1.5278 -1.8165  0.2502
 5901SOL     OW24200   2.152   9.648   0.446 -0.4167 -0.6369  0.5911
 5901SOL    HW124201   2.061   9.634   0.407 -0.1527  1.8198 -1.0349
 5901SOL    HW224202   2.222   9.617   0.382 -0.0745 -1.4378  1.3390
 5902SOL     OW24203   5.904   8.731   2.316  0.5666 -0.1906  0.1039
 5902SOL    HW124204   5.850   8.802   2.271 -0.1847 -0.7533  0.1078
 5902SOL    HW224205   5.894   8.740   2.415  0.6347 -0.1750  0.1091
 5903SOL     OW24206   0.205   2.724   0.893 -0.4640  0.3092 -0.7432
 5903SOL    HW124207   0.129   2.777   0.931 -0.8931 -0.5052 -0.4430
 5903SOL    HW224208   0.282   2.785   0.873 -0.5137  0.8654  0.7092
 5904SOL     OW24209   2.470   7.865   0.939  0.2359 -0.3714  0.3682
 5904SOL    HW124210   2.504   7.959   0.946 -0.9384  0.1108 -0.2124
 5904SOL    HW224211   2.434   7.837   1.028 -0.2202  0.0488  0.3183
 5906SOL     OW24212   0.012   5.919   0.584  0.4935 -0.2200  0.6607
 5906SOL    HW124213   0.026   5.841   0.522  0.5977  0.7002 -0.4915
 5906SOL    HW224214   0.095   5.975   0.585 -0.2674  0.9296 -0.0201
 5907SOL     OW24215   6.730   9.774   2.101 -0.7086  0.1633  0.4175
 5907SOL    HW124216   6.815   9.826   2.105 -1.3962  1.2939  0.7487
 5907SOL    HW224217   6.672   9.812   2.028 -0.2927 -1.5970 -0.8571
 5908SOL     OW24218   0.099   1.929   0.634  0.0525  0.0699 -0.7139
 5908SOL    HW124219   0.087   1.927   0.733  1.1950  0.8566 -0.5518
 5908SOL    HW224220   0.167   1.861   0.606 -0.9525 -0.7966 -1.0608
 5909SOL     OW24221   3.116   8.312   1.012 -0.0235 -0.3354 -0.3144
 5909SOL    HW124222   3.056   8.337   1.088 -1.8726 -0.7144 -1.6213
 5909SOL    HW224223   3.208   8.297   1.047 -0.6339  0.4008  1.7142
 5910SOL     OW24224   9.049   0.378   1.185 -0.4247  0.2697 -0.2185
 5910SOL    HW124225   9.096   0.363   1.099  0.0715  1.3503 -0.1432
 5910SOL    HW224226   8.955   0.407   1.167 -0.2661  0.6739 -0.4066
 5911SOL     OW24227   8.322   7.150   0.064 -0.4725 -0.0404 -0.0918
 5911SOL    HW124228   8.297   7.055   0.082  2.3383 -0.6601  0.7396
 5911SOL    HW224229   8.333   7.163  -0.035 -2.3345 -0.1539 -0.3415
 5912SOL     OW24230   8.783   8.363   1.773 -0.6170 -0.0323 -0.1371
 5912SOL    HW124231   8.690   8.359   1.735 -0.8966  0.3156  0.4872
 5912SOL    HW224232   8.808   8.459   1.789 -0.6450 -0.1823  0.8688
 5913SOL     OW24233   2.334   4.725   1.956 -0.0490  0.7953  0.4707
 5913SOL    HW124234   2.256   4.665   1.974  0.4677  0.4065  1.4567
 5913SOL    HW224235   2.419   4.678   1.979  0.4356  1.4862  0.1307
 5914SOL     OW24236   0.003   0.576   0.604 -0.4357 -0.3700 -0.2266
 5914SOL    HW124237  -0.078   0.609   0.652 -0.8652  1.2512 -1.9901
 5914SOL    HW224238   0.080   0.638   0.620 -0.1226 -0.7400 -0.2714
 5915SOL     OW24239   2.705   8.202   1.737 -0.6473 -0.4201 -0.2763
 5915SOL    HW124240   2.606   8.190   1.741 -0.2793 -3.7010  0.1096
 5915SOL    HW224241   2.737   8.238   1.825 -1.0987 -2.8121  0.8933
 5917SOL     OW24242   0.821   2.370   1.773  0.6338 -0.0482 -0.1077
 5917SOL    HW124243   0.839   2.285   1.823  0.1702 -0.4096 -0.5573
 5917SOL    HW224244   0.723   2.389   1.773  0.5469 -0.4877 -1.6026
 5918SOL     OW24245   1.527   3.311   1.232  0.0259 -0.5804  0.1814
 5918SOL    HW124246   1.508   3.310   1.330  1.4563 -0.3502  0.4752
 5918SOL    HW224247   1.513   3.403   1.196 -1.3213 -0.8438 -0.0201
 5919SOL     OW24248   1.418   6.212   2.484 -0.0962 -0.5864  0.7648
 5919SOL    HW124249   1.351   6.170   2.423 -0.6870  0.0712  0.9596
 5919SOL    HW224250   1.374   6.283   2.539  0.2903 -1.6034  2.4248
 5920SOL     OW24251   9.683   9.722   1.076  0.7121  0.3378  0.8311
 5920SOL    HW124252   9.772   9.678   1.086  1.2351  0.8259 -1.4236
 5920SOL    HW224253   9.627   9.669   1.013  0.1967  1.1868  0.5664
 5921SOL     OW24254   4.067   3.588   2.310 -0.5706  0.5419 -0.2904
 5921SOL    HW124255   4.155   3.624   2.343  0.7241 -0.5273 -2.4299
 5921SOL    HW224256   4.012   3.664   2.276  0.4775  0.9905 -1.0353
 5922SOL     OW24257   2.327   6.917   2.423 -0.3640  0.1553 -0.0209
 5922SOL    HW124258   2.249   6.856   2.438  0.2317 -0.5906  0.1097
 5922SOL    HW224259   2.310   7.005   2.468 -0.6999 -0.3601  0.8692
 5923SOL     OW24260   0.260   4.512   0.864  0.4353 -0.5351  0.6095
 5923SOL    HW124261   0.290   4.525   0.959 -0.0400 -1.2641  0.8613
 5923SOL    HW224262   0.291   4.589   0.809  2.3816 -1.0250  0.9603
 5924SOL     OW24263   7.355   2.099   0.639  0.5009 -0.3168  0.7518
 5924SOL    HW124264   7.412   2.129   0.563 -0.2587  0.1610  0.3753
 5924SOL    HW224265   7.331   2.002   0.626 -0.6104  0.0769 -0.2348
 5926SOL     OW24266   3.882   4.518   1.270  0.3528 -0.0542 -0.2182
 5926SOL    HW124267   3.801   4.575   1.281 -0.3998 -1.1856  0.1656
 5926SOL    HW224268   3.943   4.531   1.348 -0.3362 -0.5988  0.4167
 5927SOL     OW24269   2.520   8.394   0.175  0.4587  0.1155 -0.0446
 5927SOL    HW124270   2.525   8.296   0.198  0.7577 -0.1592 -1.2585
 5927SOL    HW224271   2.529   8.405   0.076  2.0509  1.4987  0.2436
 5929SOL     OW24272   0.003   4.350   1.765  0.0887 -0.3086 -0.4916
 5929SOL    HW124273   0.033   4.391   1.851  0.6906 -0.1362 -0.7785
 5929SOL    HW224274   0.059   4.387   1.690 -0.8579  0.0377 -1.0349
 5930SOL     OW24275   2.969   2.704   0.012 -0.2957  0.0119 -0.2236
 5930SOL    HW124276   2.969   2.704  -0.088  0.6819 -0.7439 -0.2351
 5930SOL    HW224277   3.057   2.669   0.045  0.8470  3.6962  0.8932
 5931SOL     OW24278   8.313   6.845   0.596 -0.0131  0.6499 -0.1643
 5931SOL    HW124279   8.407   6.865   0.625 -0.3088  1.2881  0.3411
 5931SOL    HW224280   8.299   6.880   0.503 -0.4195  2.4937  0.5743
 5932SOL     OW24281   2.836   5.490   0.684  0.0636  0.2510 -0.2513
 5932SOL    HW124282   2.834   5.590   0.685 -1.0503  0.2239  1.1527
 5932SOL    HW224283   2.923   5.459   0.722  0.7229  0.6772 -1.3721
 5933SOL     OW24284   0.440   1.426   1.050  0.4147 -0.4441 -0.0746
 5933SOL    HW124285   0.456   1.503   0.989 -1.1677  0.9070  1.1520
 5933SOL    HW224286   0.349   1.387   1.032  0.0935 -0.2809  1.1074
 5934SOL     OW24287   2.658   7.177   2.612  0.4223 -0.6069 -0.0895
 5934SOL    HW124288   2.679   7.189   2.709  2.1823 -1.6847 -0.3196
 5934SOL    HW224289   2.622   7.085   2.597 -1.1915  0.0304 -0.2612
 5936SOL     OW24290   0.718   5.743   0.986 -0.0833  0.3283  0.1171
 5936SOL    HW124291   0.792   5.722   0.923  2.2853  1.1366  2.4887
 5936SOL    HW224292   0.677   5.658   1.020 -1.4479 -0.1086 -2.4756
 5937SOL     OW24293   3.693   5.594   0.428 -0.3310  0.3409  0.5669
 5937SOL    HW124294   3.671   5.503   0.463 -0.4212 -0.1327 -0.7165
 5937SOL    HW224295   3.785   5.593   0.388 -0.5449  0.6779  0.0637
 5938SOL     OW24296   8.745   3.371   2.200  0.4371 -0.0155  0.2974
 5938SOL    HW124297   8.684   3.413   2.133  0.4839  1.6799  1.2878
 5938SOL    HW224298   8.690   3.327   2.272  0.3912 -1.0268 -0.3497
 5940SOL     OW24299   7.985   2.540   1.380 -0.0131 -0.1805  0.2671
 5940SOL    HW124300   8.068   2.528   1.433 -0.1176  0.0036  0.4758
 5940SOL    HW224301   7.912   2.483   1.419 -0.6033  1.3481  1.4735
 5941SOL     OW24302   1.880   5.546   0.306 -0.3821 -0.3157 -0.2976
 5941SOL    HW124303   1.784   5.560   0.329  0.0333  1.8457  0.2296
 5941SOL    HW224304   1.898   5.577   0.213  0.2003  1.1169  0.2817
 5942SOL     OW24305   0.269   2.627   1.234  0.0569 -0.1784  0.0020
 5942SOL    HW124306   0.272   2.724   1.258 -0.7799  0.2418 -1.5084
 5942SOL    HW224307   0.359   2.586   1.248  1.5151  1.7726 -3.1735
 5943SOL     OW24308   1.983   5.957   0.387  0.2969 -0.9148  0.1241
 5943SOL    HW124309   2.005   6.054   0.373  0.6135 -1.1292 -0.9158
 5943SOL    HW224310   1.949   5.944   0.480 -0.4868  0.3259  0.0290
 5945SOL     OW24311   3.932   3.691   2.644  0.1739  0.2085 -0.4789
 5945SOL    HW124312   3.952   3.734   2.556  0.3153 -0.0080 -0.5538
 5945SOL    HW224313   3.840   3.716   2.673  0.2983  0.6522 -0.4660
 5946SOL     OW24314   8.047   0.498   2.172 -0.0557  0.5083 -0.3127
 5946SOL    HW124315   8.133   0.447   2.169 -0.9861 -1.3429  2.4106
 5946SOL    HW224316   7.971   0.436   2.150 -0.8330  1.8216 -1.4055
 5947SOL     OW24317   2.335   8.873   0.850 -0.2343  0.1369  0.2930
 5947SOL    HW124318   2.333   8.816   0.932 -1.4756 -1.0052 -0.5224
 5947SOL    HW224319   2.277   8.833   0.779 -1.0756  2.3785 -0.3259
 5948SOL     OW24320   3.819   9.005   1.740 -0.1805 -0.1533  0.2041
 5948SOL    HW124321   3.905   9.006   1.690 -1.2044  0.8469 -1.5922
 5948SOL    HW224322   3.786   8.911   1.749  1.1323 -0.5415  0.9677
 5949SOL     OW24323   6.089   9.831   2.266  0.3954  0.1314  0.5005
 5949SOL    HW124324   6.115   9.926   2.247 -1.9048  0.9880  1.4258
 5949SOL    HW224325   6.154   9.769   2.222  0.5622  2.1125 -2.1834
 5950SOL     OW24326   3.755   7.917   2.005  0.1272  0.3640  0.1035
 5950SOL    HW124327   3.820   7.972   1.954  0.5813  0.0097  0.2949
 5950SOL    HW224328   3.772   7.927   2.103 -0.2830  0.4851  0.1635
 5952SOL     OW24329   7.151   8.629   2.249  0.2781  0.0502  0.4211
 5952SOL    HW124330   7.149   8.661   2.155 -0.7352  1.1746  0.8106
 5952SOL    HW224331   7.232   8.665   2.295  0.4800 -0.0384  0.1309
 5954SOL     OW24332   2.851   9.338   1.359 -0.0158  0.2571 -0.1414
 5954SOL    HW124333   2.879   9.250   1.322  0.0641  0.3373 -0.2709
 5954SOL    HW224334   2.758   9.332   1.396  0.1398  0.0128  0.2147
 5955SOL     OW24335   9.113   1.850   1.990  0.9801 -0.2959 -0.2464
 5955SOL    HW124336   9.180   1.834   1.917  0.3231 -1.1286 -0.6753
 5955SOL    HW224337   9.033   1.897   1.953  1.1211  0.2882  0.1747
 5956SOL     OW24338   3.411   7.323   0.866 -0.3075  0.1566 -0.5897
 5956SOL    HW124339   3.413   7.227   0.894 -0.7677 -0.1159 -1.4913
 5956SOL    HW224340   3.505   7.355   0.852 -0.1599 -0.2006 -0.4411
 5958SOL     OW24341   0.932   2.877   0.207  0.1052 -0.0739 -0.2759
 5958SOL    HW124342   0.902   2.784   0.228  1.3157 -0.2407  0.7257
 5958SOL    HW224343   1.031   2.879   0.195 -0.1253  0.7286 -2.2758
 5960SOL     OW24344   8.219   4.676   0.443 -0.1395 -0.1686 -0.0978
 5960SOL    HW124345   8.225   4.645   0.538  2.5236 -2.6906 -1.0365
 5960SOL    HW224346   8.133   4.643   0.403  0.5204 -2.4233  0.3005
 5962SOL     OW24347   3.692   4.323   1.965  0.9672  0.8747 -0.0649
 5962SOL    HW124348   3.694   4.261   2.044  1.1803  2.1363  0.9359
 5962SOL    HW224349   3.746   4.283   1.891  0.2715 -0.6059  0.2013
 5963SOL     OW24350   1.742   0.732   0.499 -0.1064 -0.0051 -0.5449
 5963SOL    HW124351   1.764   0.657   0.437 -0.7672 -1.9705  1.5425
 5963SOL    HW224352   1.826   0.783   0.521  0.5236 -0.7609 -1.1645
 5964SOL     OW24353   0.972   4.829   0.498 -0.1806 -0.0938 -0.6363
 5964SOL    HW124354   0.882   4.844   0.539 -0.1952 -1.3709 -0.1698
 5964SOL    HW224355   0.964   4.822   0.399 -0.2413  2.3254 -0.8277
 5966SOL     OW24356   2.812   8.972   2.134  0.3247  0.0502  0.2020
 5966SOL    HW124357   2.805   9.071   2.121 -0.9419  0.0711  0.8643
 5966SOL    HW224358   2.906   8.942   2.119  0.1580  0.9080 -2.8676
 5967SOL     OW24359   9.615   6.379   2.285  1.3177  0.0706 -0.6566
 5967SOL    HW124360   9.699   6.325   2.293  0.0257 -1.8119  0.9525
 5967SOL    HW224361   9.556   6.340   2.214  0.6504 -0.3150  0.0860
 5968SOL     OW24362   0.661   8.776   1.078  0.5442  0.4924 -0.4030
 5968SOL    HW124363   0.745   8.722   1.069 -0.4856 -0.7646 -2.7588
 5968SOL    HW224364   0.679   8.869   1.046  0.7388 -0.0909 -2.0138
 5969SOL     OW24365   0.269   5.127   1.963  0.5082  0.6682  0.4790
 5969SOL    HW124366   0.261   5.087   2.054 -2.9725  0.9995  0.3546
 5969SOL    HW224367   0.310   5.060   1.901  2.4159  0.2589  2.1249
 5970SOL     OW24368   0.696   3.946   2.673  0.3222 -0.0067  0.3168
 5970SOL    HW124369   0.717   3.967   2.768  1.4486  3.0859 -0.5816
 5970SOL    HW224370   0.604   3.979   2.651  0.6544  0.6370 -0.0956
 5972SOL     OW24371   3.491   5.238   2.172  0.3680 -0.2379 -0.1149
 5972SOL    HW124372   3.469   5.145   2.141 -1.9983 -0.4040  1.8600
 5972SOL    HW224373   3.566   5.234   2.238  0.0653 -0.7836  0.2001
 5974SOL     OW24374   7.621   1.953   0.937 -0.0725 -0.5066  0.8277
 5974SOL    HW124375   7.563   2.033   0.955 -0.5129 -0.7068  0.2992
 5974SOL    HW224376   7.712   1.984   0.909 -0.8223 -0.1681 -1.3159
 5975SOL     OW24377   1.464   8.806   0.382 -0.4487  0.5159  0.4519
 5975SOL    HW124378   1.466   8.807   0.282  1.0428  1.4299  0.4757
 5975SOL    HW224379   1.369   8.794   0.414 -0.8220 -0.6271 -1.0599
 5976SOL     OW24380   4.899   0.012   0.966  0.3458 -0.2999 -0.2960
 5976SOL    HW124381   4.829   0.062   1.017  0.2529  0.5606 -1.2432
 5976SOL    HW224382   4.987   0.060   0.975  0.3902 -0.3040 -0.7118
 5977SOL     OW24383   7.793   8.990   2.516 -0.1797  0.0107  0.2949
 5977SOL    HW124384   7.725   9.061   2.494 -0.5933 -0.5376 -0.2045
 5977SOL    HW224385   7.750   8.920   2.574 -0.7415 -1.6009 -2.0090
 5978SOL     OW24386   7.636   0.129   1.060  0.0491  0.2160 -0.0664
 5978SOL    HW124387   7.572   0.131   0.984  0.2808  1.4252 -0.2401
 5978SOL    HW224388   7.724   0.092   1.029 -0.2696 -0.5832 -0.0441
 5979SOL     OW24389   0.048   5.534   0.134  0.2768  0.4448 -0.0063
 5979SOL    HW124390   0.092   5.465   0.190  0.9037 -0.2417 -1.3177
 5979SOL    HW224391   0.034   5.617   0.188  1.4051  0.0054  0.9839
 5980SOL     OW24392   9.707   7.311   1.274 -0.0839  0.2891 -0.5476
 5980SOL    HW124393   9.690   7.403   1.310  2.3267 -0.6119  3.0488
 5980SOL    HW224394   9.625   7.255   1.286 -1.5958  1.9072 -2.8193
 5981SOL     OW24395   1.899   1.574   2.599  0.0270 -0.0248  0.2484
 5981SOL    HW124396   1.918   1.621   2.685  0.3889  0.0423  0.1349
 5981SOL    HW224397   1.802   1.580   2.578  0.0884  0.7650  0.1791
 5982SOL     OW24398   1.603   6.799   0.745 -0.0432 -0.6544 -1.0448
 5982SOL    HW124399   1.546   6.880   0.736  0.8313  0.1466  0.4672
 5982SOL    HW224400   1.587   6.756   0.835  1.2469 -0.7745 -0.8535
 5983SOL     OW24401   2.441   0.679   0.127 -0.0742  0.7042 -0.0016
 5983SOL    HW124402   2.512   0.654   0.061 -0.5717 -1.5736  0.3003
 5983SOL    HW224403   2.366   0.725   0.079 -0.6178 -1.2976 -1.1058
 5987SOL     OW24404   4.006   8.478   2.094  0.0356  0.3298 -0.2421
 5987SOL    HW124405   3.925   8.455   2.040 -0.7373  1.0609  0.6032
 5987SOL    HW224406   3.983   8.481   2.191  1.5045 -1.3234  0.1954
 5988SOL     OW24407   2.205   1.286   2.370  0.2051  0.1150  0.1008
 5988SOL    HW124408   2.127   1.333   2.412  0.3557  0.3703  0.0904
 5988SOL    HW224409   2.180   1.257   2.277 -0.0543 -0.2610  0.2849
 5990SOL     OW24410   9.416   9.668   0.294 -0.3061  0.0630  0.1765
 5990SOL    HW124411   9.448   9.574   0.287 -0.4924  0.0148 -0.0456
 5990SOL    HW224412   9.494   9.730   0.304 -0.1539 -0.0645 -0.2233
 5991SOL     OW24413   2.694   0.944   0.539 -0.0748 -0.2440  0.2678
 5991SOL    HW124414   2.670   0.930   0.442 -2.2931  0.1780  0.7400
 5991SOL    HW224415   2.704   1.041   0.557  1.4128 -0.3768  0.2382
 5992SOL     OW24416   3.981   4.537   0.228 -0.2229  0.0105 -0.0487
 5992SOL    HW124417   3.968   4.439   0.211 -0.6191  0.1488 -0.5375
 5992SOL    HW224418   3.988   4.586   0.141  0.4491  0.3575  0.1966
 5994SOL     OW24419   2.190   6.932   0.601  0.3607 -0.3659  0.2840
 5994SOL    HW124420   2.192   6.842   0.644 -0.1122 -0.5360 -0.0450
 5994SOL    HW224421   2.284   6.966   0.591  0.3926  0.5108  3.1613
 5995SOL     OW24422   1.058   4.040   0.797  0.4766  0.6931  0.1769
 5995SOL    HW124423   1.054   3.968   0.728 -1.1351  2.0595 -1.2267
 5995SOL    HW224424   1.075   4.000   0.887  0.2101 -1.3672 -0.6629
 5996SOL     OW24425   1.292   9.416   0.968 -0.0008  0.1231 -0.3485
 5996SOL    HW124426   1.287   9.336   0.907  0.3053 -1.6758  1.9144
 5996SOL    HW224427   1.382   9.459   0.960  1.2448 -2.1210  1.2888
 5998SOL     OW24428   3.815   9.079   0.702 -0.4396 -0.2932 -0.4716
 5998SOL    HW124429   3.817   8.997   0.759 -0.3826  0.0603  0.0401
 5998SOL    HW224430   3.720   9.102   0.681 -0.3996 -1.3888 -1.9330
 5999SOL     OW24431   1.149   8.584   1.075  0.6128 -0.2148 -0.6802
 5999SOL    HW124432   1.197   8.671   1.094  0.1279  0.5161 -2.7213
 5999SOL    HW224433   1.189   8.512   1.132  1.2700  1.2619  0.7896
 6002SOL     OW24434   7.688   9.600   1.613 -0.6296  0.1972  0.4751
 6002SOL    HW124435   7.680   9.560   1.522  0.1178  0.0243  0.4825
 6002SOL    HW224436   7.659   9.696   1.610 -2.7357 -0.3977  0.5247
 6003SOL     OW24437   0.812   5.007   1.507 -0.5902 -0.2754  0.0831
 6003SOL    HW124438   0.900   5.001   1.553  0.7549  1.1991 -2.1750
 6003SOL    HW224439   0.798   4.925   1.451 -0.0064  0.1048 -0.6283
 6004SOL     OW24440   1.134   0.248   0.697  0.2996  0.0650  0.1420
 6004SOL    HW124441   1.191   0.184   0.646  0.9633  1.6402 -1.1651
 6004SOL    HW224442   1.171   0.259   0.789  0.4277 -1.0876  0.2365
 6007SOL     OW24443   3.462   5.820   2.269 -0.5938 -0.1237  0.4602
 6007SOL    HW124444   3.560   5.807   2.283 -1.1318 -1.2057  3.6370
 6007SOL    HW224445   3.431   5.899   2.322 -1.7942 -1.0908  1.2374
 6008SOL     OW24446   1.335   3.843   2.607 -0.1071  0.6542  0.0338
 6008SOL    HW124447   1.431   3.829   2.587 -0.5494 -1.2071 -0.8290
 6008SOL    HW224448   1.320   3.837   2.706  0.6335  0.9014  0.1630
 6009SOL     OW24449   3.892   9.780   0.426  0.1460  0.1487 -0.1226
 6009SOL    HW124450   3.882   9.814   0.519  1.9915 -0.1796  0.2039
 6009SOL    HW224451   3.855   9.688   0.420 -0.5557  0.4123  0.1293
 6010SOL     OW24452   1.514   4.980   2.157 -0.3591 -0.0549 -0.2144
 6010SOL    HW124453   1.557   4.920   2.089 -1.3174 -0.8740 -0.1132
 6010SOL    HW224454   1.490   5.067   2.115 -1.1663 -0.6420 -1.0043
 6011SOL     OW24455   2.048   6.733   1.805 -0.1270 -0.4618 -0.2304
 6011SOL    HW124456   2.014   6.706   1.896  2.9308  1.4949  1.5638
 6011SOL    HW224457   2.099   6.657   1.765 -1.0118 -1.1390 -0.0891
 6012SOL     OW24458   8.694   6.720  -0.000 -0.3229  1.0651 -0.0608
 6012SOL    HW124459   8.647   6.791  -0.052  0.5222 -0.0385 -2.4095
 6012SOL    HW224460   8.763   6.762   0.059  0.4621  2.2047 -1.7286
 6013SOL     OW24461   0.735   5.957   0.303 -0.1945  0.0732 -0.0584
 6013SOL    HW124462   0.693   6.041   0.336 -0.6416 -0.3610  0.4911
 6013SOL    HW224463   0.765   5.969   0.209  1.6762  1.5629  0.6827
 6014SOL     OW24464   3.748   1.416   2.274  0.5569  0.6022 -0.0425
 6014SOL    HW124465   3.699   1.493   2.314  1.1719  0.6174  0.6953
 6014SOL    HW224466   3.690   1.371   2.206 -0.6198  0.3874  1.0888
 6015SOL     OW24467   3.312   5.956   0.395  0.3863 -0.5485  0.1717
 6015SOL    HW124468   3.294   6.054   0.404 -1.5528 -0.8029 -0.6243
 6015SOL    HW224469   3.410   5.941   0.381  0.5911  1.3575 -0.6474
 6016SOL     OW24470   1.430   4.710   0.341 -0.0242 -0.4293  0.7584
 6016SOL    HW124471   1.413   4.652   0.261  1.8560 -1.0633  0.7916
 6016SOL    HW224472   1.442   4.652   0.422 -0.2197  0.1207  1.1858
 6017SOL     OW24473   7.911   1.670   1.143 -0.5234 -0.2651  0.1930
 6017SOL    HW124474   7.981   1.612   1.186 -1.5412 -1.7123 -0.0472
 6017SOL    HW224475   7.844   1.698   1.212  0.2381  1.0742  0.4114
 6018SOL     OW24476   2.648   9.779   0.902 -0.0547 -0.7238 -0.0842
 6018SOL    HW124477   2.716   9.725   0.852 -1.8947 -2.1104 -1.1183
 6018SOL    HW224478   2.621   9.730   0.984 -1.0229 -0.9426 -0.5319
 6019SOL     OW24479   0.859   1.656   2.671 -0.3658 -0.2207  0.5080
 6019SOL    HW124480   0.775   1.707   2.654 -0.1635  0.3429  1.2170
 6019SOL    HW224481   0.853   1.567   2.626 -1.0584  0.0916 -0.0218
 6020SOL     OW24482   8.196   7.747   2.334  0.2981  0.1206  0.6812
 6020SOL    HW124483   8.209   7.739   2.235 -1.7518 -2.1838  0.5487
 6020SOL    HW224484   8.130   7.819   2.354  0.2921  0.2110  0.3347
 6021SOL     OW24485   9.527   3.989   1.881 -0.4973 -0.2936  0.3075
 6021SOL    HW124486   9.517   4.065   1.817 -0.6127 -0.5432  0.0280
 6021SOL    HW224487   9.538   3.903   1.830  0.2158 -0.3867  0.6225
 6023SOL     OW24488   0.732   5.792   1.481  0.0303  0.6779  0.2693
 6023SOL    HW124489   0.793   5.713   1.474 -1.6036 -0.7017  1.2160
 6023SOL    HW224490   0.785   5.874   1.501  1.6150 -0.4236  0.6384
 6024SOL     OW24491   3.609   4.799   0.798 -0.3441 -0.0109 -0.0911
 6024SOL    HW124492   3.647   4.838   0.714 -1.5344  0.5769 -0.3577
 6024SOL    HW224493   3.511   4.819   0.804 -0.3483 -0.3555  1.2604
 6026SOL     OW24494   8.489   8.042   2.493  0.4119  0.3448  0.4339
 6026SOL    HW124495   8.524   8.050   2.399  0.3457 -0.2437  0.3575
 6026SOL    HW224496   8.469   8.133   2.529  1.1821  0.6289  0.1576
 6027SOL     OW24497   9.916   4.449   1.252 -0.0897  0.2310 -0.6869
 6027SOL    HW124498   9.847   4.390   1.293  0.9098  1.1748  2.4982
 6027SOL    HW224499   9.993   4.393   1.220 -0.4256 -0.4492 -0.3060
 6030SOL     OW24500   9.106   6.134   2.275 -0.4656  0.7084  0.5340
 6030SOL    HW124501   9.183   6.162   2.333  1.7633  0.8293 -2.4007
 6030SOL    HW224502   9.116   6.038   2.251 -0.3697  1.1332 -1.1516
 6031SOL     OW24503   4.060   8.380   1.135 -0.4887  0.2992 -0.9777
 6031SOL    HW124504   3.997   8.307   1.108 -0.5251 -0.6761  1.5971
 6031SOL    HW224505   4.011   8.444   1.195 -0.1746  1.9169 -2.4062
 6033SOL     OW24506   8.536   2.864   0.500  0.0211 -0.5544 -0.1888
 6033SOL    HW124507   8.480   2.905   0.429 -0.5000 -0.0043  0.5349
 6033SOL    HW224508   8.490   2.872   0.588  0.1371 -2.2404  0.0537
 6035SOL     OW24509   4.212   7.511   2.701 -0.5701  0.0091  0.0704
 6035SOL    HW124510   4.309   7.534   2.712 -0.3291 -0.6413 -0.6343
 6035SOL    HW224511   4.157   7.571   2.759  0.3195 -0.2139  1.1782
 6036SOL     OW24512   4.380   3.307   0.080 -0.3967 -0.5690 -0.2283
 6036SOL    HW124513   4.401   3.402   0.056  0.9657 -1.2507 -1.7762
 6036SOL    HW224514   4.433   3.281   0.161 -0.2256 -0.2244 -0.2289
 6037SOL     OW24515   2.639   3.005   0.934 -0.5451  0.8820 -0.1690
 6037SOL    HW124516   2.723   3.053   0.960  0.3715  0.4595 -2.2143
 6037SOL    HW224517   2.582   3.066   0.878 -0.1968  0.1979 -1.2910
 6038SOL     OW24518   0.465   9.988   0.958 -0.0885 -0.3798  0.2491
 6038SOL    HW124519   0.472  10.085   0.934  1.6956 -0.5626 -0.0484
 6038SOL    HW224520   0.557   9.948   0.963 -0.8340 -2.2172 -0.3005
 6039SOL     OW24521   9.449   7.694   2.669  0.2396 -0.3319 -0.0322
 6039SOL    HW124522   9.377   7.627   2.689  0.3387 -0.7646 -1.0678
 6039SOL    HW224523   9.426   7.743   2.585 -0.4760  1.8854  1.4064
 6040SOL     OW24524   9.074   3.616   1.184 -0.4260  0.4820  0.2393
 6040SOL    HW124525   9.090   3.550   1.258  0.7892  0.1421 -0.3166
 6040SOL    HW224526   9.156   3.673   1.173 -0.4150  0.1920 -1.1857
 6041SOL     OW24527   0.689   8.958   1.554  0.0376 -0.2793  0.0509
 6041SOL    HW124528   0.748   8.938   1.632 -1.8273 -2.2049  1.0161
 6041SOL    HW224529   0.723   9.039   1.507  2.2350 -0.1316  1.7974
 6042SOL     OW24530   1.451   3.608   0.792 -0.3592  0.3094 -0.2535
 6042SOL    HW124531   1.495   3.678   0.737  0.7174  0.6805  1.0609
 6042SOL    HW224532   1.513   3.530   0.802 -0.6497  0.1380  0.2188
 6043SOL     OW24533   0.934   7.060   2.704  0.3065 -0.4477 -0.1727
 6043SOL    HW124534   0.923   6.975   2.755  0.4104 -0.0838  0.4742
 6043SOL    HW224535   0.996   7.121   2.754  0.0122  0.1191 -0.4858
 6045SOL     OW24536   3.187   2.652   2.546 -0.3516  0.2516 -0.7774
 6045SOL    HW124537   3.281   2.643   2.512  0.3790  0.1446  1.2154
 6045SOL    HW224538   3.127   2.592   2.493  0.6424  0.5066 -2.2340
 6048SOL     OW24539   2.650   5.678   1.779 -0.0536  0.4658 -0.2682
 6048SOL    HW124540   2.724   5.742   1.759 -1.1944  1.7695 -0.3972
 6048SOL    HW224541   2.656   5.600   1.718  1.2241  0.5422 -0.2623
 6049SOL     OW24542   8.579   3.616   2.565  0.1413 -0.1452  0.0364
 6049SOL    HW124543   8.576   3.613   2.665 -0.2368 -0.2910  0.0202
 6049SOL    HW224544   8.672   3.639   2.535  0.3791 -0.6158  0.4071
 6050SOL     OW24545   1.787   5.668   1.404  0.2349  0.1302 -0.5334
 6050SOL    HW124546   1.688   5.683   1.408  0.2268 -0.0731 -0.0529
 6050SOL    HW224547   1.806   5.585   1.352  0.1472  0.0937 -0.5071
 6051SOL     OW24548   0.422   1.554   2.065  0.4648  0.0711  0.3038
 6051SOL    HW124549   0.458   1.609   1.989  2.6112 -1.7216 -0.0014
 6051SOL    HW224550   0.479   1.567   2.146 -0.0396 -0.3893  0.7338
 6053SOL     OW24551   6.116   8.943   2.617  0.4094 -0.1410  0.0548
 6053SOL    HW124552   6.164   8.865   2.578 -0.4079 -1.3458  1.4165
 6053SOL    HW224553   6.084   8.920   2.709 -0.9262  1.3714 -0.0049
 6054SOL     OW24554   2.644   0.476   2.588  0.4438  0.8430  0.1569
 6054SOL    HW124555   2.732   0.519   2.568  1.1635 -1.1242 -1.0600
 6054SOL    HW224556   2.659   0.384   2.623 -1.1481  0.1491 -0.9149
 6055SOL     OW24557   1.822   3.083   0.924  0.1249  0.5412 -0.4969
 6055SOL    HW124558   1.809   3.118   1.017 -0.5184  0.7906 -0.6719
 6055SOL    HW224559   1.917   3.055   0.912 -0.0777 -0.6845  0.6352
 6056SOL     OW24560   8.744   0.157   1.545  0.4128  0.2061 -0.1817
 6056SOL    HW124561   8.691   0.079   1.512  0.6637  0.6027 -1.5541
 6056SOL    HW224562   8.839   0.128   1.559  0.2575 -0.0197  0.4178
 6057SOL     OW24563   4.855   8.796   2.118 -0.1404 -0.0515  0.5380
 6057SOL    HW124564   4.803   8.882   2.121 -0.6256 -0.3264  0.0322
 6057SOL    HW224565   4.931   8.806   2.054 -0.8160 -0.3397 -0.3172
 6058SOL     OW24566   2.196   9.571   1.252 -0.0512 -0.3674 -0.0778
 6058SOL    HW124567   2.225   9.639   1.184 -2.3004  0.5027 -0.2043
 6058SOL    HW224568   2.259   9.494   1.250  1.0316  0.5204 -1.7926
 6059SOL     OW24569   3.727   9.938   0.276  0.0869  0.0579 -0.0766
 6059SOL    HW124570   3.665   9.864   0.248 -0.2360  0.0662  0.5938
 6059SOL    HW224571   3.803   9.900   0.328  0.3191  0.1151 -0.3745
 6060SOL     OW24572   4.711   3.354   1.022  0.2598  0.3710 -0.1174
 6060SOL    HW124573   4.698   3.393   0.930  0.1789 -0.9855 -0.6902
 6060SOL    HW224574   4.743   3.260   1.014  0.0802  0.1841  1.2616
 6061SOL     OW24575   0.549   0.470   0.658 -0.4521 -0.1952  0.6311
 6061SOL    HW124576   0.454   0.476   0.688 -0.2471  0.5833  1.1399
 6061SOL    HW224577   0.590   0.561   0.659 -0.3882 -0.1805 -1.8657
 6062SOL     OW24578   4.568   3.079   0.381 -0.0124  0.4051  0.1786
 6062SOL    HW124579   4.478   3.062   0.342  0.1724 -1.9930  0.7120
 6062SOL    HW224580   4.560   3.094   0.480  0.2162 -0.4638  0.3367
 6064SOL     OW24581   1.116   3.382   2.348  0.4788  0.0945 -0.1460
 6064SOL    HW124582   1.088   3.306   2.289  0.0781 -1.5417  2.0804
 6064SOL    HW224583   1.058   3.383   2.430  1.2918  2.0469  0.4201
 6065SOL     OW24584   1.559   3.360   2.615  1.0845  0.1547  0.6452
 6065SOL    HW124585   1.610   3.304   2.550  0.2883  0.2788 -0.1054
 6065SOL    HW224586   1.553   3.454   2.580  0.4523  0.1652  0.7741
 6066SOL     OW24587   8.995   9.510   2.506 -0.1268 -0.0465 -0.2188
 6066SOL    HW124588   8.970   9.606   2.494  0.8039  0.4692  1.7657
 6066SOL    HW224589   9.093   9.502   2.525  0.3160 -1.6308 -2.9344
 6067SOL     OW24590   8.846   8.990   0.546 -0.1729 -0.1549  0.4124
 6067SOL    HW124591   8.780   8.918   0.569  0.7741 -1.1953 -0.0874
 6067SOL    HW224592   8.833   9.017   0.451  0.1533 -0.4150  0.2907
 6068SOL     OW24593   1.915   3.396   2.190 -0.3502  0.0266  0.1762
 6068SOL    HW124594   1.821   3.363   2.203 -0.1062 -1.2743 -1.2255
 6068SOL    HW224595   1.913   3.494   2.169 -1.2308  0.4765  2.1893
 6070SOL     OW24596   0.201   7.163   1.832 -0.3037  0.4743 -0.1490
 6070SOL    HW124597   0.103   7.157   1.811 -0.2816  0.9174 -0.3912
 6070SOL    HW224598   0.221   7.253   1.870  0.2540  0.8817 -1.3896
 6072SOL     OW24599   1.670   8.543   1.122  0.0164 -0.6284 -0.3489
 6072SOL    HW124600   1.614   8.497   1.191 -0.7806 -0.7470 -1.0695
 6072SOL    HW224601   1.628   8.533   1.032 -0.6777  2.2643 -0.4145
 6074SOL     OW24602   1.253   3.039   2.194  0.3604 -0.2544  0.5585
 6074SOL    HW124603   1.195   3.050   2.274  0.6919  0.8590  0.6633
 6074SOL    HW224604   1.313   2.960   2.205 -1.3685 -1.6149  0.2986
 6076SOL     OW24605   4.065   4.165   2.688  0.2523 -0.1901  0.0582
 6076SOL    HW124606   4.130   4.239   2.707 -0.3803  0.2022  0.7057
 6076SOL    HW224607   4.065   4.146   2.590  0.4664  0.6277 -0.1079
 6077SOL     OW24608   1.984   1.594   1.022  0.1368 -0.5793  0.4248
 6077SOL    HW124609   2.047   1.524   0.989  0.1429 -0.2348 -0.2915
 6077SOL    HW224610   1.974   1.666   0.953 -0.5396 -0.3071  0.8026
 6078SOL     OW24611   1.340   8.959   2.387 -0.2982  0.6913  0.0572
 6078SOL    HW124612   1.427   8.982   2.343  0.8126 -0.9291  1.3365
 6078SOL    HW224613   1.275   9.033   2.372  0.6494  1.0396 -2.6313
 6079SOL     OW24614   8.771   2.303   0.757 -0.4732  0.3136  0.0322
 6079SOL    HW124615   8.691   2.282   0.701 -1.8855 -0.1855  2.1776
 6079SOL    HW224616   8.743   2.353   0.838  1.4833  0.6301  0.5517
 6080SOL     OW24617   1.682   4.482   1.877 -0.6661  0.2994 -0.1153
 6080SOL    HW124618   1.612   4.422   1.839 -2.3681  2.9368 -1.2617
 6080SOL    HW224619   1.733   4.525   1.803  1.9420 -1.2761  0.7133
 6081SOL     OW24620   2.567   2.362   2.699 -0.0131  0.5389  0.0105
 6081SOL    HW124621   2.509   2.437   2.667 -0.3505 -0.2248 -1.2086
 6081SOL    HW224622   2.509   2.285   2.727  0.3413  0.6133  0.9661
 6082SOL     OW24623   9.019   7.271   0.386  0.1795  0.6322 -0.3035
 6082SOL    HW124624   8.984   7.188   0.342  0.8368 -0.1585  0.6552
 6082SOL    HW224625   9.005   7.265   0.484  1.8826  0.8466 -0.0408
 6083SOL     OW24626   3.263   0.287   1.736 -0.0264 -0.7204 -0.6356
 6083SOL    HW124627   3.205   0.233   1.675 -0.6548 -1.0306  0.2233
 6083SOL    HW224628   3.359   0.271   1.712 -0.2867  0.1757 -2.3798
 6084SOL     OW24629   3.586   9.717   0.217 -0.1444 -0.2087  0.1892
 6084SOL    HW124630   3.547   9.654   0.285  1.2602 -0.1125  1.0990
 6084SOL    HW224631   3.574   9.678   0.126  0.1960 -1.5540  0.6965
 6085SOL     OW24632   8.639   9.995   0.906  0.9672 -0.4934  0.9805
 6085SOL    HW124633   8.648   9.896   0.896  2.8806 -0.2165 -0.3888
 6085SOL    HW224634   8.639  10.038   0.815 -0.2338  0.7479  1.5388
 6087SOL     OW24635   8.512   6.746   1.806  0.3426 -0.0511  0.1729
 6087SOL    HW124636   8.533   6.650   1.790  0.3387  0.2524 -1.8424
 6087SOL    HW224637   8.554   6.776   1.891  2.1306 -1.2928 -0.2479
 6088SOL     OW24638   1.250   6.262   1.407  0.0626  0.1035 -0.1151
 6088SOL    HW124639   1.298   6.175   1.402  0.4580  0.3629 -0.9787
 6088SOL    HW224640   1.315   6.336   1.388  0.6491  0.8981  4.4733
 6090SOL     OW24641   2.431   4.955   2.055 -0.1268  0.6416 -0.1696
 6090SOL    HW124642   2.460   4.930   2.147 -0.1440  0.8142 -0.1181
 6090SOL    HW224643   2.386   4.876   2.012  0.8953  0.2048 -0.4513
 6091SOL     OW24644   7.938   2.337   0.190 -0.2955  0.3428  0.1554
 6091SOL    HW124645   7.863   2.274   0.207  1.0196 -1.1698  0.4697
 6091SOL    HW224646   7.915   2.427   0.227 -2.2732  0.1262 -0.4860
 6092SOL     OW24647   9.790   4.470   2.396 -0.3875 -0.1038  0.4052
 6092SOL    HW124648   9.812   4.567   2.408  1.0260 -0.4599  0.7993
 6092SOL    HW224649   9.707   4.448   2.448 -0.7322  0.8966  0.2856
 6093SOL     OW24650   4.410   9.145   1.181  0.0893 -0.0568 -0.0578
 6093SOL    HW124651   4.485   9.208   1.160 -0.8870  0.9626 -0.4963
 6093SOL    HW224652   4.374   9.166   1.272  0.0237 -0.2497 -0.0396
 6094SOL     OW24653   2.647   2.196   0.840  0.5181 -0.2291  0.4667
 6094SOL    HW124654   2.686   2.287   0.830  0.3253 -0.3030 -1.0368
 6094SOL    HW224655   2.714   2.127   0.813 -0.5914 -0.3576 -2.0515
 6095SOL     OW24656   2.609   3.680   1.095 -0.1456 -0.0302  0.1872
 6095SOL    HW124657   2.657   3.752   1.145  0.5218  0.2700 -0.8907
 6095SOL    HW224658   2.659   3.594   1.104 -0.1459 -0.0268  0.2234
 6096SOL     OW24659   4.166   4.305   0.734 -0.0873  0.4081  0.3626
 6096SOL    HW124660   4.159   4.312   0.833 -1.1808  1.7186  0.2003
 6096SOL    HW224661   4.136   4.215   0.704 -0.3944  0.2449  1.1651
 6097SOL     OW24662   3.828   3.691   0.311  0.4908 -0.2333 -0.2682
 6097SOL    HW124663   3.784   3.748   0.381  0.0526  1.0164 -1.5405
 6097SOL    HW224664   3.764   3.676   0.235  1.3330 -0.6870 -0.9000
 6098SOL     OW24665   3.212   7.837   1.893 -0.1127  0.0498 -0.3266
 6098SOL    HW124666   3.250   7.755   1.848  1.4870  0.5621  0.0533
 6098SOL    HW224667   3.252   7.846   1.984 -0.1024  1.3693 -0.4541
 6099SOL     OW24668   0.212   8.876   0.261 -0.2267  0.3946  0.2585
 6099SOL    HW124669   0.199   8.924   0.347  0.3331  0.1302  0.4926
 6099SOL    HW224670   0.162   8.923   0.188 -0.1088  1.0272  0.5868
 6100SOL     OW24671   4.465   8.889   1.113 -0.1943  0.0926  0.0210
 6100SOL    HW124672   4.449   8.988   1.120 -1.3318 -0.0459 -0.5311
 6100SOL    HW224673   4.403   8.850   1.045 -0.5540 -1.1931  1.0636
 6102SOL     OW24674   4.231   0.990   1.351 -0.1683  0.3008  0.2824
 6102SOL    HW124675   4.303   1.040   1.303 -0.5749  0.7053  0.0922
 6102SOL    HW224676   4.254   0.986   1.449 -0.3019  1.1646  0.3550
 6103SOL     OW24677   1.733   3.160   2.182 -0.3207 -0.2302  0.3271
 6103SOL    HW124678   1.795   3.104   2.127  0.3139  0.2946  0.5052
 6103SOL    HW224679   1.708   3.111   2.265  1.1811  0.2273  1.0563
 6104SOL     OW24680   9.915   7.143   1.371  0.0068 -0.7537 -0.1331
 6104SOL    HW124681   9.958   7.072   1.315 -1.2719 -0.8189 -1.0692
 6104SOL    HW224682   9.852   7.196   1.314  0.0859  0.3887  0.8321
 6105SOL     OW24683   0.236   9.125   2.590  0.1913  0.1300 -0.4811
 6105SOL    HW124684   0.216   9.142   2.493  0.9503 -0.2288 -0.7034
 6105SOL    HW224685   0.156   9.083   2.633  0.6814 -1.9592 -1.5369
 6106SOL     OW24686   1.498   8.529   0.908  0.1900 -0.3332 -0.1230
 6106SOL    HW124687   1.496   8.626   0.933 -0.7529 -0.5377  0.6477
 6106SOL    HW224688   1.494   8.519   0.809 -2.6008  0.3685 -0.1044
 6109SOL     OW24689   1.819   3.393   1.760  0.8032  0.5877  0.2812
 6109SOL    HW124690   1.801   3.454   1.838  0.6381  0.0238  0.6879
 6109SOL    HW224691   1.734   3.349   1.731  0.5089  2.2620 -1.4729
 6110SOL     OW24692   2.192   6.656   2.410 -0.6122  0.0563 -0.4481
 6110SOL    HW124693   2.110   6.603   2.388 -1.3016  1.5036 -1.4847
 6110SOL    HW224694   2.263   6.595   2.446 -2.4165 -1.0790  1.2346
 6111SOL     OW24695   9.892   3.827   2.395 -0.0112  0.2649 -0.2611
 6111SOL    HW124696   9.918   3.848   2.301  0.5285  1.5771  0.1762
 6111SOL    HW224697   9.895   3.910   2.450  1.4113 -0.8077  1.3232
 6112SOL     OW24698   4.443   1.360   2.361 -0.3550  0.3481  0.4504
 6112SOL    HW124699   4.395   1.390   2.278  1.0963 -1.5435 -1.1374
 6112SOL    HW224700   4.380   1.363   2.439 -1.7021  2.3305 -0.6804
 6113SOL     OW24701   0.685   2.103   2.032 -0.1175 -0.1210  0.0812
 6113SOL    HW124702   0.657   2.070   1.942 -0.5641 -0.9062  0.5073
 6113SOL    HW224703   0.726   2.029   2.084 -0.7910  0.0693  0.9059
 6114SOL     OW24704   1.845   6.575   1.569  0.1954  0.1369 -0.3408
 6114SOL    HW124705   1.790   6.628   1.634  0.1304  2.4520 -2.2110
 6114SOL    HW224706   1.909   6.636   1.523  0.3145 -1.4810 -2.3641
 6116SOL     OW24707   8.721   3.283   1.310  0.2507 -0.2136 -0.7294
 6116SOL    HW124708   8.688   3.198   1.349 -1.1187  0.8032  0.3851
 6116SOL    HW224709   8.706   3.282   1.211  0.1297 -1.2055 -0.7067
 6117SOL     OW24710   8.359   8.137   1.219  0.2365  0.1648 -0.0105
 6117SOL    HW124711   8.369   8.130   1.318  1.1938  0.8019 -0.0484
 6117SOL    HW224712   8.300   8.215   1.197  0.1388  0.1082  0.0496
 6120SOL     OW24713   2.501   2.995   2.482 -0.7820  0.5541 -0.0778
 6120SOL    HW124714   2.403   3.013   2.471 -1.2673 -1.0665  1.3915
 6120SOL    HW224715   2.535   3.042   2.563 -0.8770 -0.7357  0.7293
 6121SOL     OW24716   1.233   5.832   2.230 -0.2314 -0.2147 -0.1458
 6121SOL    HW124717   1.318   5.789   2.259 -0.1035 -0.3762 -0.7515
 6121SOL    HW224718   1.250   5.892   2.152 -0.3411  1.2539  0.9328
 6122SOL     OW24719   3.784   2.320   0.180 -0.0680 -0.0419 -0.3743
 6122SOL    HW124720   3.747   2.411   0.199  2.7598  0.9211  0.7307
 6122SOL    HW224721   3.798   2.310   0.081  0.7680  1.2323 -0.4056
 6123SOL     OW24722   8.527   0.932   0.130 -0.7213  0.2722 -0.2714
 6123SOL    HW124723   8.443   0.940   0.183  0.4470 -0.4053  1.7360
 6123SOL    HW224724   8.566   0.841   0.142 -0.0154  0.3816 -1.6625
 6124SOL     OW24725   9.868   8.090   1.875  0.3305  0.3731 -0.6099
 6124SOL    HW124726   9.815   8.153   1.818 -0.4202  0.5553  0.2597
 6124SOL    HW224727   9.964   8.095   1.851  0.1135  0.9608 -1.3750
 6125SOL     OW24728   1.684   5.327   0.262  0.3731  0.3957 -0.0536
 6125SOL    HW124729   1.595   5.368   0.240  0.1445  0.2348  0.5543
 6125SOL    HW224730   1.718   5.276   0.182 -0.8967 -0.9707  0.2474
 6126SOL     OW24731   2.136   3.028   0.042 -0.2007 -0.0626  0.0977
 6126SOL    HW124732   2.233   3.022   0.017 -0.3407  1.1833 -0.7521
 6126SOL    HW224733   2.097   3.112   0.006 -1.3177  0.0101  1.4388
 6127SOL     OW24734   3.117   7.908   0.195  0.5436  0.0153  0.1107
 6127SOL    HW124735   3.157   7.822   0.166  0.0793 -0.1872  0.0559
 6127SOL    HW224736   3.070   7.895   0.283  0.2156  0.1372 -0.0441
 6128SOL     OW24737   8.294   6.302   0.427  0.4506 -0.3734 -0.0056
 6128SOL    HW124738   8.267   6.227   0.367  0.4469  0.6607 -1.3024
 6128SOL    HW224739   8.371   6.351   0.387  0.2994  0.4636  0.7198
 6131SOL     OW24740   0.338   5.002   0.348 -0.0535  0.6094 -0.2098
 6131SOL    HW124741   0.362   5.099   0.342 -0.9546  0.7865 -1.2515
 6131SOL    HW224742   0.418   4.946   0.328  0.2351  1.1491 -0.5701
 6134SOL     OW24743   0.499   2.913   2.497  0.3228  0.2528  0.1093
 6134SOL    HW124744   0.507   2.815   2.481  0.1217  0.3417 -0.5535
 6134SOL    HW224745   0.556   2.939   2.575  0.5895 -0.3425  0.1161
 6136SOL     OW24746   0.029   6.553   1.994  0.4500 -0.0324  0.1870
 6136SOL    HW124747   0.008   6.468   1.945 -2.3776 -1.8181  4.1908
 6136SOL    HW224748   0.021   6.630   1.931 -2.1325 -2.2876 -2.4119
 6137SOL     OW24749   0.043   6.322   1.665 -0.1626  0.1284  0.3495
 6137SOL    HW124750   0.053   6.280   1.575 -1.1760  1.8288 -0.5723
 6137SOL    HW224751   0.123   6.299   1.722  0.2270 -1.3853 -0.7772
 6138SOL     OW24752   3.368   1.660   1.179  0.0670  0.1631 -0.2114
 6138SOL    HW124753   3.373   1.631   1.084 -0.1383 -0.0686 -0.1538
 6138SOL    HW224754   3.380   1.759   1.185 -0.3149  0.2275 -0.5139
 6140SOL     OW24755   2.811   0.771   0.699 -0.1498  0.6365 -0.1875
 6140SOL    HW124756   2.852   0.708   0.633 -1.3465  0.4991 -0.8142
 6140SOL    HW224757   2.762   0.843   0.651  0.2697  1.4202  0.5410
 6141SOL     OW24758   8.886   4.588   0.647 -0.0883  0.4007  0.4483
 6141SOL    HW124759   8.896   4.549   0.739 -1.4659 -0.1279  0.3778
 6141SOL    HW224760   8.791   4.613   0.631  0.0954  0.2657 -0.9324
 6142SOL     OW24761   1.732   1.051   1.180  0.3656 -0.3489 -0.1963
 6142SOL    HW124762   1.770   0.997   1.105  1.4239 -1.4058  1.0728
 6142SOL    HW224763   1.702   0.989   1.253  1.5706  0.7563  1.2735
 6145SOL     OW24764   8.346   2.022   2.015 -0.5178 -0.2562  0.2732
 6145SOL    HW124765   8.442   2.050   2.013 -0.1049 -1.6717  0.1285
 6145SOL    HW224766   8.307   2.031   1.924 -0.3946 -0.1159  0.2344
 6147SOL     OW24767   1.326   9.015   0.582  0.5267  0.2345  0.0527
 6147SOL    HW124768   1.384   8.985   0.657 -1.1679  0.1474  1.3527
 6147SOL    HW224769   1.274   8.938   0.547 -1.3245  0.9490  1.1591
 6148SOL     OW24770   2.284   2.295   2.515  0.7500 -0.2741 -0.5049
 6148SOL    HW124771   2.354   2.365   2.497 -1.0140  1.9974  1.1935
 6148SOL    HW224772   2.196   2.339   2.531 -0.7743 -3.0205 -1.0569
 6149SOL     OW24773   1.059   1.868   0.182 -0.0637  0.2895  0.0084
 6149SOL    HW124774   1.139   1.848   0.238  1.1076 -0.6798 -1.9545
 6149SOL    HW224775   0.983   1.810   0.212  0.8943 -1.0968 -0.1701
 6150SOL     OW24776   3.960   0.616   2.062 -0.2362  0.2734 -0.3957
 6150SOL    HW124777   4.051   0.582   2.087 -0.2568  0.4104 -0.1276
 6150SOL    HW224778   3.930   0.574   1.977 -0.4301 -0.6881  0.1419
 6151SOL     OW24779   3.986   4.718   1.044  0.1356  0.1440  0.2182
 6151SOL    HW124780   4.077   4.677   1.033 -0.9217 -2.0874 -0.5648
 6151SOL    HW224781   3.918   4.645   1.053 -1.4882  1.8037  1.6326
 6152SOL     OW24782   8.920   3.865   0.559  0.1416 -0.1076  0.2543
 6152SOL    HW124783   8.961   3.839   0.472  0.0448 -0.5304  0.3368
 6152SOL    HW224784   8.940   3.795   0.628  0.5612  0.4210  0.6747
 6153SOL     OW24785   3.896   5.527   0.277 -0.1747 -0.3555 -0.9330
 6153SOL    HW124786   3.870   5.453   0.214 -0.6091  0.0700 -1.2548
 6153SOL    HW224787   3.877   5.615   0.235 -2.5404 -0.0677  0.6402
 6154SOL     OW24788   4.525   9.940   2.619  0.0786  0.1690  0.4621
 6154SOL    HW124789   4.625   9.944   2.628  0.0263 -1.0452  1.7159
 6154SOL    HW224790   4.498   9.850   2.584 -0.6571  0.0593  1.3053
 6155SOL     OW24791   2.938   4.663   2.603  0.2456  0.0023 -0.5437
 6155SOL    HW124792   3.021   4.621   2.566  0.5979 -0.3148  0.5812
 6155SOL    HW224793   2.859   4.603   2.585  0.2118  0.3870 -1.7667
 6156SOL     OW24794   4.774   0.745   1.747  0.6431  0.5731 -0.1964
 6156SOL    HW124795   4.812   0.702   1.829 -0.7994 -0.3211  0.0203
 6156SOL    HW224796   4.785   0.844   1.753  0.7298  0.5009  0.9859
 6157SOL     OW24797   8.127   8.381   2.627  0.5366  0.2918  0.4402
 6157SOL    HW124798   8.185   8.458   2.603  0.5441 -0.0694 -0.7339
 6157SOL    HW224799   8.183   8.299   2.640  0.1204 -0.6146 -3.0561
 6158SOL     OW24800   3.870   9.011   0.413 -0.1238 -0.0134  0.2455
 6158SOL    HW124801   3.874   8.919   0.375  0.1393  0.3955 -0.7384
 6158SOL    HW224802   3.843   9.006   0.509  0.9590 -1.1894  0.5057
 6159SOL     OW24803   3.407   6.867   0.799  0.4047 -0.5096 -0.6009
 6159SOL    HW124804   3.444   6.944   0.746 -0.9487  0.0508 -0.7649
 6159SOL    HW224805   3.317   6.842   0.762  0.5046 -1.6726 -0.0592
 6160SOL     OW24806   9.915   5.058   1.605  0.6195  0.2805  0.1184
 6160SOL    HW124807  10.004   5.095   1.580  1.0952  0.2072  1.6410
 6160SOL    HW224808   9.928   4.973   1.657 -0.3595 -0.2754 -0.5376
 6161SOL     OW24809   9.238   7.295   2.468 -0.1063  0.6174  0.1767
 6161SOL    HW124810   9.205   7.212   2.423  0.9608 -0.2878  1.0225
 6161SOL    HW224811   9.168   7.329   2.532  0.1039 -0.5903  1.0651
 6163SOL     OW24812   3.069   1.867   0.498 -0.4026  0.1874 -0.2702
 6163SOL    HW124813   2.995   1.804   0.473  0.1382 -0.1144 -1.1220
 6163SOL    HW224814   3.086   1.930   0.422  0.5087 -0.0219 -0.2393
 6164SOL     OW24815   0.814   7.726   2.358 -0.5913  0.5312 -0.1060
 6164SOL    HW124816   0.750   7.649   2.356 -1.1044  0.9274  0.8719
 6164SOL    HW224817   0.830   7.759   2.265 -2.0004  0.5950 -0.3302
 6165SOL     OW24818   2.476   9.441   0.855  0.3248 -0.3829  0.2052
 6165SOL    HW124819   2.441   9.479   0.940 -3.6064  1.0199 -1.9120
 6165SOL    HW224820   2.450   9.344   0.848 -1.3390  0.0810 -0.3496
 6166SOL     OW24821   0.273   8.012   0.219 -0.1536 -0.1215 -0.3667
 6166SOL    HW124822   0.365   8.015   0.259 -0.7653  0.8934  1.0113
 6166SOL    HW224823   0.254   7.920   0.187  1.3719 -0.3260 -0.7262
 6167SOL     OW24824   0.689   1.950   0.267  0.1812  0.0605 -0.7583
 6167SOL    HW124825   0.743   1.942   0.351 -1.7210  0.2061  0.4924
 6167SOL    HW224826   0.734   2.015   0.206  2.0132 -0.6420 -0.2127
 6168SOL     OW24827   8.922   5.256   2.501  0.2707 -0.5834  0.5821
 6168SOL    HW124828   8.866   5.275   2.421 -0.0618  0.6602  1.0947
 6168SOL    HW224829   9.017   5.278   2.481 -0.0061  1.0026  0.9376
 6169SOL     OW24830   3.145   4.196   1.878  0.0074  0.3095 -0.4959
 6169SOL    HW124831   3.190   4.260   1.815 -0.4951 -0.6382 -1.8279
 6169SOL    HW224832   3.094   4.248   1.946  0.9605  1.3565 -0.5553
 6170SOL     OW24833   0.579   1.185   0.231 -0.2663  0.4265  0.1118
 6170SOL    HW124834   0.522   1.225   0.304 -2.3755  0.1521 -1.3404
 6170SOL    HW224835   0.662   1.239   0.221 -0.8244  1.5841  1.4523
 6171SOL     OW24836   6.254   8.454   2.357  0.3626  0.7087  0.4392
 6171SOL    HW124837   6.158   8.427   2.358  0.6834 -0.4694  0.1597
 6171SOL    HW224838   6.303   8.409   2.431  1.1299 -0.3532 -0.6980
 6172SOL     OW24839   2.927   2.827   1.611  0.3379 -0.0745  0.0788
 6172SOL    HW124840   2.952   2.734   1.583  2.7166  0.8514 -0.9734
 6172SOL    HW224841   2.991   2.893   1.571 -0.8580  1.9739  1.4256
 6173SOL     OW24842   8.093   0.609   1.208  0.1071  0.1183 -0.0812
 6173SOL    HW124843   8.090   0.684   1.274  1.1289  0.0097  0.0932
 6173SOL    HW224844   8.010   0.554   1.216 -0.8720  1.4856 -0.5248
 6174SOL     OW24845   9.031   0.948   0.975 -0.1184  0.1434 -0.2930
 6174SOL    HW124846   9.060   0.852   0.984 -0.6187 -0.2155 -2.1572
 6174SOL    HW224847   8.956   0.966   1.039  0.1407 -0.6403  0.2389
 6175SOL     OW24848   4.016   4.368   2.020 -0.2462 -0.5120  0.3869
 6175SOL    HW124849   3.966   4.420   1.951  2.2617 -0.3924 -1.4157
 6175SOL    HW224850   3.994   4.271   2.010  0.6286 -0.5764 -1.0872
 6176SOL     OW24851   4.642   2.174   1.652  0.1480 -0.3324  0.2364
 6176SOL    HW124852   4.658   2.123   1.736  0.1216  0.7188  0.8840
 6176SOL    HW224853   4.545   2.166   1.627  0.2303 -0.9534  0.0835
 6177SOL     OW24854   1.090   6.024   1.063  0.3243 -0.3988  0.4370
 6177SOL    HW124855   1.173   6.074   1.039 -0.0524 -1.5493 -3.5948
 6177SOL    HW224856   1.104   5.926   1.049 -2.0564 -0.5127 -1.5646
 6179SOL     OW24857   3.142   5.080   0.178  0.3440 -0.2529 -0.0106
 6179SOL    HW124858   3.193   5.160   0.209 -1.0620  0.2056  1.1505
 6179SOL    HW224859   3.114   5.094   0.083  1.2844  0.0296 -0.2525
 6180SOL     OW24860   9.897   0.623   1.867  0.2828  0.0331  0.4195
 6180SOL    HW124861   9.922   0.529   1.844  1.3774 -0.1198  2.1339
 6180SOL    HW224862   9.981   0.677   1.878 -0.2068  0.3824  2.7165
 6181SOL     OW24863   9.783   7.017   0.220  0.9200 -0.2513  0.5091
 6181SOL    HW124864   9.738   6.956   0.285 -0.1914  0.1667  0.1357
 6181SOL    HW224865   9.837   6.964   0.156 -1.9066 -1.0487 -1.2871
 6182SOL     OW24866   8.657   6.229   0.412  0.1520 -0.0196  0.9922
 6182SOL    HW124867   8.623   6.283   0.334  1.7968 -0.1891  0.1297
 6182SOL    HW224868   8.595   6.240   0.489 -0.1441  2.2437  0.4835
 6183SOL     OW24869   9.558   4.437   0.640  0.5358 -0.6315 -0.6960
 6183SOL    HW124870   9.571   4.488   0.726  0.8100  0.1527 -1.1906
 6183SOL    HW224871   9.596   4.491   0.565  0.7991 -1.5709 -1.2353
 6185SOL     OW24872   9.957   3.500   1.355 -0.4773  0.0247  0.5188
 6185SOL    HW124873   9.996   3.586   1.322 -0.1328 -0.1150  0.5580
 6185SOL    HW224874   9.909   3.516   1.441 -1.3986  0.3966 -0.0581
 6186SOL     OW24875   1.430   0.816   0.873 -0.7760  0.3263 -0.2879
 6186SOL    HW124876   1.408   0.890   0.936  0.6066 -0.2249  0.9029
 6186SOL    HW224877   1.516   0.837   0.827 -0.1039 -0.7453  0.4459
 6187SOL     OW24878   3.421   3.008   1.422  0.3327 -0.1464  0.3406
 6187SOL    HW124879   3.467   2.985   1.508 -0.3905 -0.8058  0.5575
 6187SOL    HW224880   3.454   3.097   1.389  0.8311 -0.0274  1.1477
 6189SOL     OW24881   8.826   2.420   2.042 -0.1172 -0.5176 -0.8349
 6189SOL    HW124882   8.818   2.400   2.139  0.6761 -0.7069 -0.8061
 6189SOL    HW224883   8.871   2.344   1.995  2.4925  0.9383 -0.7935
 6190SOL     OW24884   1.097   0.733   1.675  0.0076  0.1019 -0.8577
 6190SOL    HW124885   1.110   0.671   1.752 -2.2120  2.0104  1.1191
 6190SOL    HW224886   1.155   0.813   1.686 -0.2960  0.3665 -1.1636
 6191SOL     OW24887   9.291   7.673   0.050  0.0138  0.4243  0.2351
 6191SOL    HW124888   9.202   7.627   0.055  0.9544 -1.2644  2.5974
 6191SOL    HW224889   9.295   7.746   0.119  0.5564  0.3026  0.3355
 6192SOL     OW24890   9.051   3.517   0.349 -0.3848  0.3713 -0.7233
 6192SOL    HW124891   9.024   3.433   0.397 -2.1327  0.7065 -1.0763
 6192SOL    HW224892   9.108   3.573   0.410  0.2249 -0.7372 -0.2433
 6193SOL     OW24893   3.486   5.648   0.236  0.6064 -0.7719  0.4761
 6193SOL    HW124894   3.457   5.741   0.260 -1.5691 -0.7016 -2.0746
 6193SOL    HW224895   3.569   5.625   0.285 -1.5267  0.6391  5.0104
 6194SOL     OW24896   1.329   6.626   0.408  0.0728 -0.3135 -0.1952
 6194SOL    HW124897   1.285   6.715   0.420  0.9742  0.2409 -0.9327
 6194SOL    HW224898   1.342   6.584   0.498  2.0826  1.5073  0.4141
 6195SOL     OW24899   2.607   4.034   0.270  0.4524 -0.2657  0.4293
 6195SOL    HW124900   2.662   4.043   0.188 -1.0135  0.3340 -0.5114
 6195SOL    HW224901   2.539   3.961   0.258 -0.2938  0.3543  0.7886
 6196SOL     OW24902   0.740   0.823   2.412  0.0007 -0.0806 -0.7368
 6196SOL    HW124903   0.780   0.787   2.328  2.0282  1.9126 -0.7102
 6196SOL    HW224904   0.641   0.820   2.407  0.1263 -2.0336 -2.2737
 6198SOL     OW24905   0.865   2.332   1.234  0.7924  0.0167  0.0718
 6198SOL    HW124906   0.766   2.339   1.223  0.6598  1.4093  2.0446
 6198SOL    HW224907   0.887   2.323   1.331  2.7631  2.7061 -0.0800
 6199SOL     OW24908   1.939   2.692   0.730  0.2044 -0.1166 -0.4933
 6199SOL    HW124909   1.945   2.675   0.829  0.1662  0.0645 -0.4597
 6199SOL    HW224910   1.867   2.636   0.691  2.0818 -2.2960 -0.8887
 6201SOL     OW24911   0.885   6.007   1.521  0.4477  0.8389 -0.1082
 6201SOL    HW124912   0.937   6.062   1.455 -0.8841  1.0256 -1.0272
 6201SOL    HW224913   0.889   6.050   1.611  1.5939  1.0296 -0.2408
 6203SOL     OW24914   1.916   1.801   0.831  0.3147 -0.3887 -0.0391
 6203SOL    HW124915   1.901   1.894   0.865  1.2227 -0.4380  0.5449
 6203SOL    HW224916   1.836   1.744   0.850 -0.8119  0.6300 -1.6888
 6204SOL     OW24917   0.798   8.375   0.014  0.6707 -0.1570  0.3079
 6204SOL    HW124918   0.801   8.457  -0.043 -1.0414  1.3093  2.2384
 6204SOL    HW224919   0.885   8.364   0.062  0.8256  0.6760  0.2205
 6205SOL     OW24920   0.353   1.173   2.579  0.4991  0.7610 -0.1410
 6205SOL    HW124921   0.367   1.160   2.481 -0.3083  0.9855 -0.2928
 6205SOL    HW224922   0.382   1.091   2.628  0.5784  0.5114 -0.6023
 6206SOL     OW24923   5.122   9.397   2.455  0.0658  0.4075  0.1545
 6206SOL    HW124924   5.068   9.336   2.397  0.8621  0.2376 -0.4161
 6206SOL    HW224925   5.072   9.483   2.469  0.0309  0.5930 -1.0743
 6207SOL     OW24926   1.634   3.425   2.268  0.5181  0.0353  0.3083
 6207SOL    HW124927   1.674   3.333   2.271 -0.0516 -0.2613 -0.8752
 6207SOL    HW224928   1.535   3.418   2.260  0.5678  0.7330 -1.0206
 6209SOL     OW24929   7.599   1.217   1.957 -0.2580  0.3047 -0.5459
 6209SOL    HW124930   7.681   1.165   1.936 -0.2912 -0.3758  0.9322
 6209SOL    HW224931   7.572   1.200   2.052 -2.4876 -0.0161 -1.2044
 6210SOL     OW24932   3.061   0.754   0.323 -0.0511 -0.1485 -0.0982
 6210SOL    HW124933   3.149   0.785   0.358 -1.0711  0.1510  2.3161
 6210SOL    HW224934   2.992   0.825   0.339 -0.8819 -0.6551 -1.3309
 6211SOL     OW24935   8.946   7.381   1.326  0.0336  0.2686 -0.6965
 6211SOL    HW124936   8.976   7.369   1.232 -0.0477  0.1074 -0.7022
 6211SOL    HW224937   8.956   7.295   1.375  1.7933  0.8041 -0.0752
 6212SOL     OW24938   3.681   4.291   0.848 -0.1237 -0.2153  0.3395
 6212SOL    HW124939   3.754   4.351   0.880 -1.6511  2.3132 -0.7182
 6212SOL    HW224940   3.596   4.343   0.842 -1.6252 -2.6435 -0.1815
 6213SOL     OW24941   1.571   0.446   1.036 -0.6615  0.3763  0.2886
 6213SOL    HW124942   1.601   0.521   1.095  2.3037 -0.0732 -0.5825
 6213SOL    HW224943   1.571   0.476   0.941 -0.8792 -0.2795  0.0770
 6214SOL     OW24944   3.155   3.719   1.975 -0.3625 -0.0420  0.2124
 6214SOL    HW124945   3.061   3.683   1.971 -0.2764 -0.4305  1.4097
 6214SOL    HW224946   3.219   3.644   1.987 -0.1309  0.4184  2.1044
 6216SOL     OW24947   2.231   4.879   1.113 -0.2080 -0.1856  0.0501
 6216SOL    HW124948   2.175   4.819   1.057  0.6061  0.9397 -2.0376
 6216SOL    HW224949   2.175   4.918   1.187 -0.8848 -2.9354  1.0330
 6217SOL     OW24950   0.696   6.466   1.951 -0.2096  0.6812 -0.6110
 6217SOL    HW124951   0.741   6.500   2.033 -0.7057 -0.3938  0.1200
 6217SOL    HW224952   0.766   6.433   1.886  0.2176  2.2150 -0.9468
 6218SOL     OW24953   1.143   1.950   2.404 -0.0567 -0.2940  0.7216
 6218SOL    HW124954   1.150   1.920   2.499 -0.3325  4.2506  2.3217
 6218SOL    HW224955   1.062   2.008   2.394  1.2944  1.2632 -1.6919
 6219SOL     OW24956   3.980   0.458   0.606 -0.5104 -0.7280 -0.0928
 6219SOL    HW124957   4.066   0.413   0.629  0.6488  0.2923 -2.3205
 6219SOL    HW224958   3.919   0.392   0.562 -0.9591 -1.4816  1.6021
 6221SOL     OW24959   3.651   4.132   0.241 -0.1037 -0.4338  0.0502
 6221SOL    HW124960   3.750   4.135   0.225 -0.1753 -1.8210 -0.6879
 6221SOL    HW224961   3.620   4.037   0.245 -1.2278 -0.0229  1.4724
 6222SOL     OW24962   9.657   6.840   0.440  0.2184 -0.0213  0.0621
 6222SOL    HW124963   9.597   6.763   0.418  0.9146 -0.1905 -1.3321
 6222SOL    HW224964   9.716   6.815   0.516  0.1615 -0.7287 -0.1154
 6223SOL     OW24965   1.526   7.671   1.030 -0.4712 -0.2694  0.0349
 6223SOL    HW124966   1.500   7.574   1.029  1.7259 -0.8962  0.8707
 6223SOL    HW224967   1.444   7.727   1.036 -1.6754 -2.1310  1.8758
 6224SOL     OW24968   8.901   7.418   0.657  0.2115  0.1595 -0.0066
 6224SOL    HW124969   8.954   7.333   0.654  2.3912  1.5047 -0.5565
 6224SOL    HW224970   8.953   7.488   0.705 -1.6163  1.1816  0.5288
 6226SOL     OW24971   0.301   1.298   1.751  0.9142 -0.2548  0.2297
 6226SOL    HW124972   0.288   1.389   1.791  0.4299 -0.2611  0.0934
 6226SOL    HW224973   0.369   1.303   1.678  0.6929  0.0560  0.0408
 6227SOL     OW24974   2.626   1.961   1.454  0.1505 -0.2467  0.9546
 6227SOL    HW124975   2.684   1.885   1.425  0.5229 -0.0853  1.2709
 6227SOL    HW224976   2.683   2.031   1.498  0.3984  1.7764 -2.3776
 6228SOL     OW24977   3.338   2.792   1.152 -0.1626 -0.4564  0.4946
 6228SOL    HW124978   3.378   2.832   1.235  1.5962 -0.9351 -0.0980
 6228SOL    HW224979   3.258   2.845   1.126 -0.3527  0.1141  2.1235
 6230SOL     OW24980   3.177   5.099   1.812  0.2585 -0.3758  0.3913
 6230SOL    HW124981   3.087   5.127   1.778 -0.3019 -1.2826  1.0977
 6230SOL    HW224982   3.175   5.095   1.912  1.6731  1.5402  0.5287
 6231SOL     OW24983   3.937   4.612   2.333  0.3198 -0.5987 -0.3536
 6231SOL    HW124984   3.879   4.671   2.389  0.8847 -0.1708 -0.2114
 6231SOL    HW224985   3.918   4.516   2.354 -0.6950 -0.4692 -0.6793
 6232SOL     OW24986   3.917   1.697   1.050  0.3576 -0.2049  0.4646
 6232SOL    HW124987   3.844   1.629   1.040  0.2629 -0.0526  0.1016
 6232SOL    HW224988   3.937   1.737   0.960  0.1578  0.5027  0.7334
 6233SOL     OW24989   2.559   7.718   1.404 -0.2059  0.3149  0.2859
 6233SOL    HW124990   2.582   7.663   1.324 -0.1573  0.3347  0.2868
 6233SOL    HW224991   2.617   7.691   1.481 -0.8892 -0.3504  0.5696
 6235SOL     OW24992   3.411   2.382   1.941  0.2780  0.6726 -0.1826
 6235SOL    HW124993   3.392   2.316   1.868  0.9882  1.6010 -1.2234
 6235SOL    HW224994   3.359   2.466   1.924  1.5402  1.4188 -0.4006
 6236SOL     OW24995   0.924   4.984   2.615 -0.1226 -0.2239  0.5701
 6236SOL    HW124996   0.856   5.015   2.682 -1.6448  2.3971 -2.0980
 6236SOL    HW224997   0.893   4.899   2.573 -2.9120  2.1243 -2.2367
 6237SOL     OW24998   2.201   7.261   0.778 -0.1214  0.3697  0.4115
 6237SOL    HW124999   2.283   7.236   0.827 -0.0902  2.1831  1.3476
 6237SOL    HW225000   2.224   7.325   0.704 -0.2392 -1.8910 -1.6602
 6238SOL     OW25001   9.752   0.594   0.438  0.4408  0.4383 -0.0408
 6238SOL    HW125002   9.759   0.693   0.423 -1.1967  0.7186  0.9484
 6238SOL    HW225003   9.741   0.576   0.536  1.0920 -0.7499 -0.1835
 6239SOL     OW25004   4.811   0.275   1.542 -0.0570  0.4021 -0.5716
 6239SOL    HW125005   4.849   0.357   1.498  1.7454 -0.9718 -1.6101
 6239SOL    HW225006   4.750   0.228   1.478  0.1987  0.0327 -0.5409
 6240SOL     OW25007   3.466   6.907   1.961  0.6927 -0.0407  0.4952
 6240SOL    HW125008   3.435   6.953   2.044  0.3163  1.1884 -0.3098
 6240SOL    HW225009   3.387   6.888   1.902  0.9515 -0.9600  0.4312
 6241SOL     OW25010   2.962   0.288   2.233  0.3661  0.2087  0.4845
 6241SOL    HW125011   2.941   0.241   2.318  0.2045 -1.0403 -0.2355
 6241SOL    HW225012   3.050   0.336   2.242  0.3192  0.1389  1.3630
 6242SOL     OW25013   4.010   0.820   1.287 -0.1388  0.5033  0.7716
 6242SOL    HW125014   4.017   0.781   1.196  0.3098 -0.0261  1.0295
 6242SOL    HW225015   4.086   0.882   1.304  0.1176  0.1239  1.0139
 6243SOL     OW25016   9.972   9.781   2.109  0.2492 -0.7630  1.1059
 6243SOL    HW125017   9.951   9.768   2.012  2.6771  0.5038  0.3884
 6243SOL    HW225018   9.967   9.692   2.156  0.2192 -1.5696 -0.4047
 6245SOL     OW25019   4.938   3.162   0.765 -0.4523  1.0585  0.2723
 6245SOL    HW125020   4.928   3.086   0.700  0.7117  1.3592 -0.2662
 6245SOL    HW225021   4.952   3.247   0.715  0.0713  1.3520  0.9120
 6246SOL     OW25022   4.669   9.421   2.267 -0.1791 -0.6742 -0.2751
 6246SOL    HW125023   4.697   9.367   2.187 -0.4257  1.0372 -1.5334
 6246SOL    HW225024   4.736   9.493   2.285 -2.2067  1.6033 -1.5355
 6247SOL     OW25025   7.713   1.931   2.126 -0.4588 -0.3449 -0.1668
 6247SOL    HW125026   7.803   1.896   2.151 -0.5806 -0.2173  0.4646
 6247SOL    HW225027   7.700   2.022   2.164 -0.9732 -0.4859  0.0047
 6248SOL     OW25028   1.175   8.810   0.463 -0.4603  0.6397  0.0132
 6248SOL    HW125029   1.181   8.732   0.525 -1.1732 -0.9698 -1.8854
 6248SOL    HW225030   1.081   8.845   0.463 -1.0391 -0.8696 -1.9213
 6249SOL     OW25031   9.778   3.295   1.597 -0.1087 -0.2373  0.3348
 6249SOL    HW125032   9.857   3.349   1.626  2.9056 -2.7205 -2.9297
 6249SOL    HW225033   9.772   3.212   1.652  0.8678 -1.0735 -0.7913
 6251SOL     OW25034   8.056   8.762   1.953  0.0204 -0.4682  0.3068
 6251SOL    HW125035   8.150   8.795   1.964  0.2187 -1.2467  0.9379
 6251SOL    HW225036   7.992   8.831   1.987  0.5038 -1.5530  3.5140
 6252SOL     OW25037   0.604   9.572   0.714 -0.3562 -0.5663  0.2224
 6252SOL    HW125038   0.564   9.512   0.783 -1.7624  0.8998  0.7347
 6252SOL    HW225039   0.682   9.621   0.753 -1.6885  0.9186  1.0916
 6254SOL     OW25040   9.160   8.790   1.681  0.0252 -0.1996  0.2472
 6254SOL    HW125041   9.075   8.840   1.699  0.4378  0.3128  0.7801
 6254SOL    HW225042   9.236   8.854   1.675  0.2528 -0.5921 -1.0298
 6255SOL     OW25043   5.153   8.992   2.152 -0.0166  0.2149  0.0754
 6255SOL    HW125044   5.139   8.961   2.058  0.4703 -2.3159  0.7889
 6255SOL    HW225045   5.247   8.971   2.180 -0.2311  0.7355  1.2108
 6257SOL     OW25046   3.443   7.976   2.640  0.0243 -0.0496 -0.3103
 6257SOL    HW125047   3.527   7.972   2.585  0.1885  1.2127 -0.1533
 6257SOL    HW225048   3.454   8.044   2.712 -0.3555 -1.3876  1.0305
 6258SOL     OW25049   3.451   8.690   1.937  0.1973 -0.2819  0.0257
 6258SOL    HW125050   3.471   8.658   2.029 -0.4406 -0.0974  0.2328
 6258SOL    HW225051   3.408   8.615   1.884  0.8949 -0.4997 -0.2334
 6259SOL     OW25052   0.481   0.370   2.138 -0.2017  0.1613  0.3127
 6259SOL    HW125053   0.479   0.469   2.121  0.2185 -0.2896 -2.5132
 6259SOL    HW225054   0.388   0.336   2.149 -0.3849  0.7414  0.5639
 6260SOL     OW25055   0.732   9.476   1.962 -0.2421 -0.3534  0.0559
 6260SOL    HW125056   0.685   9.446   2.045 -0.7582  1.0549  0.2833
 6260SOL    HW225057   0.724   9.405   1.892 -1.6771 -0.6409  0.4916
 6262SOL     OW25058   5.116   2.945   0.940 -0.0887  0.1764  0.1931
 6262SOL    HW125059   5.097   2.965   1.036 -1.4192 -0.9477  0.1789
 6262SOL    HW225060   5.077   3.016   0.882  1.9323  1.6074  0.5371
 6264SOL     OW25061   9.830   1.174   1.780  0.1886  0.2630  0.0086
 6264SOL    HW125062   9.833   1.230   1.862 -0.1724 -0.5652  0.5959
 6264SOL    HW225063   9.770   1.217   1.712 -1.0408  0.0017  0.9125
 6265SOL     OW25064   8.049   2.527   2.629  0.0940  0.1499 -0.3378
 6265SOL    HW125065   8.011   2.614   2.599  0.6514  0.5585  0.1168
 6265SOL    HW225066   8.100   2.485   2.554  1.8930  1.3985  0.1433
 6266SOL     OW25067   3.513   7.856   1.622  0.2182 -0.1606 -0.3307
 6266SOL    HW125068   3.583   7.924   1.642 -0.1010  0.0191  0.2222
 6266SOL    HW225069   3.423   7.895   1.642  0.1053 -1.1842  1.3370
 6267SOL     OW25070   7.877   5.538   0.241  0.5193 -0.0659 -0.1280
 6267SOL    HW125071   7.914   5.625   0.207  0.1699  0.0031 -0.3267
 6267SOL    HW225072   7.933   5.507   0.318 -0.0110  0.8945  0.6676
 6268SOL     OW25073   4.005   0.867   0.261 -0.0689  0.1997 -0.3578
 6268SOL    HW125074   4.035   0.840   0.352 -0.1053 -1.3110 -0.7792
 6268SOL    HW225075   4.066   0.938   0.226  0.0620  0.6475  0.7578
 6269SOL     OW25076   2.632   0.061   0.038  0.0439 -0.0498 -0.1991
 6269SOL    HW125077   2.658   0.021  -0.050  0.6924  0.2879 -0.1719
 6269SOL    HW225078   2.611   0.158   0.025  2.2490  0.5354  0.3584
 6270SOL     OW25079   7.529   9.934   1.225  0.1120  0.7770 -0.6017
 6270SOL    HW125080   7.444   9.977   1.255 -0.7670  0.2981 -2.3511
 6270SOL    HW225081   7.577   9.996   1.163 -0.4805 -0.1801 -2.0397
 6273SOL     OW25082   9.203   6.089   0.300  0.4358 -0.1692 -0.3503
 6273SOL    HW125083   9.246   6.038   0.374 -0.1247 -0.9744 -0.5732
 6273SOL    HW225084   9.103   6.081   0.308  0.2901  1.8845  0.3152
 6274SOL     OW25085   9.714   7.716   0.097 -0.4325 -0.0739 -0.6184
 6274SOL    HW125086   9.793   7.775   0.114 -0.6391  0.7204 -2.2430
 6274SOL    HW225087   9.731   7.625   0.134  0.0432  0.8975  1.5924
 6275SOL     OW25088   9.363   0.737   0.519 -0.3122  0.1951 -0.0178
 6275SOL    HW125089   9.304   0.815   0.495 -1.2654 -0.7492 -0.7906
 6275SOL    HW225090   9.391   0.690   0.436  1.1592  0.3548  0.3824
 6276SOL     OW25091   9.693   9.434   1.376 -0.1482  0.5840  0.1230
 6276SOL    HW125092   9.752   9.369   1.328 -1.4208 -0.5863  0.0937
 6276SOL    HW225093   9.734   9.525   1.374 -0.4353  0.6778 -3.6252
 6277SOL     OW25094   1.530   8.416   1.329  0.3979  0.7830  0.1452
 6277SOL    HW125095   1.450   8.413   1.268  0.9785 -2.6169 -0.5329
 6277SOL    HW225096   1.511   8.478   1.405 -1.9141  1.9473 -1.3155
 6278SOL     OW25097   0.427   2.618   2.429  0.6827  0.1504 -0.2458
 6278SOL    HW125098   0.521   2.608   2.396  0.3571 -1.0708 -0.8577
 6278SOL    HW225099   0.368   2.553   2.380 -0.1801 -0.2603  1.3202
 6279SOL     OW25100   2.910   8.196   0.395 -0.3706  0.1419 -0.0336
 6279SOL    HW125101   2.899   8.111   0.344  0.8789  0.3989 -0.7598
 6279SOL    HW225102   2.823   8.246   0.396 -0.2666  0.4329 -2.4734
 6280SOL     OW25103   1.099   1.780   1.194 -0.0816 -0.2371 -0.2393
 6280SOL    HW125104   1.026   1.785   1.127  1.7313  4.6308 -2.0224
 6280SOL    HW225105   1.063   1.801   1.285 -1.1534  0.6520 -0.8720
 6281SOL     OW25106   3.146   8.129   0.825 -1.3647  0.5614 -0.0024
 6281SOL    HW125107   3.129   8.210   0.881  0.8821  1.3511 -0.4135
 6281SOL    HW225108   3.223   8.146   0.764 -0.2791 -2.1965  0.5218
 6282SOL     OW25109   7.494   1.156   2.494  0.0198 -0.0583  0.1270
 6282SOL    HW125110   7.456   1.064   2.505 -0.0097 -0.0488  0.1048
 6282SOL    HW225111   7.507   1.197   2.584 -0.1881  0.0056  0.1299
 6283SOL     OW25112   4.619   1.538   2.558  0.0943  0.7564 -0.7718
 6283SOL    HW125113   4.579   1.470   2.619  0.5353  1.4990  0.3529
 6283SOL    HW225114   4.632   1.497   2.467 -1.6753  0.0058 -0.7174
 6284SOL     OW25115   9.555   5.636   1.409  0.1452  0.0666 -0.4779
 6284SOL    HW125116   9.621   5.565   1.386  1.8095  0.9439  1.3795
 6284SOL    HW225117   9.488   5.600   1.475  0.5081 -0.0214 -0.1527
 6285SOL     OW25118   8.692   7.829   1.309  0.3196  0.2920  0.4622
 6285SOL    HW125119   8.615   7.794   1.362 -0.3363 -0.3080 -0.8578
 6285SOL    HW225120   8.764   7.759   1.305  0.6155  0.5601  1.0465
 6286SOL     OW25121   3.082   0.721   2.066 -0.0286 -0.0020  0.1476
 6286SOL    HW125122   3.097   0.642   2.007 -0.2301  0.3072 -0.3206
 6286SOL    HW225123   3.051   0.799   2.011 -0.6465  0.1613  0.7118
 6287SOL     OW25124   1.554   6.276   1.157 -0.3605  0.3422 -0.3451
 6287SOL    HW125125   1.469   6.224   1.154 -0.7997  1.1303 -2.0388
 6287SOL    HW225126   1.610   6.244   1.233 -3.3199  1.6098  2.4770
 6290SOL     OW25127   1.810   4.190   0.723  0.6822 -0.7131 -0.0704
 6290SOL    HW125128   1.713   4.168   0.722  0.0282  2.0474 -0.9570
 6290SOL    HW225129   1.826   4.270   0.781  2.3703 -0.9053 -0.2408
 6291SOL     OW25130   0.785   6.743   1.839  0.0841  0.2942 -1.1502
 6291SOL    HW125131   0.815   6.781   1.926  1.9523 -0.6146 -1.3792
 6291SOL    HW225132   0.688   6.719   1.845  0.8618 -2.5323  1.6779
 6292SOL     OW25133   1.421   7.025   0.695 -0.7416  0.0381  0.3958
 6292SOL    HW125134   1.440   7.050   0.600 -0.0431  0.5256  0.6599
 6292SOL    HW225135   1.448   7.100   0.755 -0.4838 -0.5691  1.0427
 6293SOL     OW25136   0.360   7.013   2.684  0.3379  0.3260 -0.4202
 6293SOL    HW125137   0.360   7.045   2.589  0.7939  0.0777 -0.5061
 6293SOL    HW225138   0.424   7.068   2.738  0.9972 -0.3240 -0.5312
 6294SOL     OW25139   2.151   8.076   0.890  0.1037  0.0723 -0.4285
 6294SOL    HW125140   2.216   8.043   0.821  0.6182 -0.0817  0.1282
 6294SOL    HW225141   2.099   7.999   0.926  1.0476 -0.0954  0.6051
 6295SOL     OW25142   3.058   6.669   2.431  0.3120  0.0410  0.2339
 6295SOL    HW125143   3.044   6.593   2.495 -1.6112 -0.9508 -1.3045
 6295SOL    HW225144   3.005   6.748   2.462  0.7006  0.0917  0.7618
 6296SOL     OW25145   0.541   5.195   0.951 -0.7077 -0.3961 -0.3987
 6296SOL    HW125146   0.563   5.292   0.952  0.8588 -0.7499  0.3832
 6296SOL    HW225147   0.563   5.156   0.862 -1.9895  0.1027 -0.9430
 6297SOL     OW25148   4.640   2.043   1.909 -0.1862  0.1011 -0.0087
 6297SOL    HW125149   4.588   1.958   1.897 -0.3916  0.2360 -0.0879
 6297SOL    HW225150   4.690   2.039   1.995 -1.1297  0.3790  0.5613
 6298SOL     OW25151   2.983   2.949   0.825  0.0022 -0.8439  0.2177
 6298SOL    HW125152   2.987   3.046   0.801 -1.4065 -0.6727  0.6093
 6298SOL    HW225153   2.981   2.894   0.742 -2.8551 -0.3464 -0.1069
 6299SOL     OW25154   9.613   3.422   2.675  0.0162  0.2668 -0.1609
 6299SOL    HW125155   9.694   3.363   2.675 -0.0720  0.1387 -0.5998
 6299SOL    HW225156   9.633   3.506   2.624 -0.6476 -0.5179 -1.7774
 6300SOL     OW25157   2.552   2.839   2.260  0.7104  0.2620 -0.0820
 6300SOL    HW125158   2.620   2.767   2.274  0.7756  0.0844 -1.2761
 6300SOL    HW225159   2.549   2.898   2.341 -0.1571 -1.7421  1.4075
 6301SOL     OW25160   8.627   5.163   2.581 -0.2408  0.0333  0.2009
 6301SOL    HW125161   8.638   5.153   2.680 -0.5219  0.1649  0.2468
 6301SOL    HW225162   8.678   5.091   2.534  0.2376  0.2238  0.4273
 6302SOL     OW25163   0.624   9.782   1.856  0.1768 -0.3281  0.0726
 6302SOL    HW125164   0.722   9.772   1.840  0.2037  2.4163 -1.7286
 6302SOL    HW225165   0.608   9.850   1.927 -0.4461  0.4840 -0.8308
 6303SOL     OW25166   1.934   0.936   0.588 -0.1837  0.4725 -0.3088
 6303SOL    HW125167   1.997   0.933   0.666 -0.3869 -2.1223 -0.1936
 6303SOL    HW225168   1.978   0.897   0.507 -0.2050  2.5540 -1.3417
 6304SOL     OW25169   3.933   2.884   2.562 -0.7510  0.1068  0.0467
 6304SOL    HW125170   3.914   2.968   2.612  0.2017 -0.2653  1.0474
 6304SOL    HW225171   3.932   2.806   2.625  0.9732 -0.3073 -0.4004
 6305SOL     OW25172   1.646   1.622   0.267 -0.7208  0.0707  0.3629
 6305SOL    HW125173   1.618   1.526   0.257  1.1350 -0.4645  0.1842
 6305SOL    HW225174   1.690   1.635   0.356  0.9002  0.2712 -0.4523
 6306SOL     OW25175   0.497   8.505   1.113  0.4602 -0.2147 -0.2801
 6306SOL    HW125176   0.486   8.519   1.212 -3.3691  2.2711 -0.9410
 6306SOL    HW225177   0.547   8.582   1.074 -0.1798  0.0346 -0.6126
 6307SOL     OW25178   8.629   3.936   2.132 -0.3938  0.0276  0.0643
 6307SOL    HW125179   8.669   3.855   2.176 -0.1244  0.5644  0.8217
 6307SOL    HW225180   8.694   3.973   2.066  0.5769  1.1505  1.5977
 6308SOL     OW25181   1.599   1.956   0.518  0.1723 -0.4814  0.3364
 6308SOL    HW125182   1.682   1.928   0.565 -0.8251  0.7438  2.9018
 6308SOL    HW225183   1.573   2.048   0.546 -2.0366 -0.8314 -0.4417
 6309SOL     OW25184   1.478   7.381   1.053  0.4773 -0.0195  0.3742
 6309SOL    HW125185   1.516   7.321   0.983  1.7593  0.1631  0.9000
 6309SOL    HW225186   1.378   7.377   1.050  0.5290 -2.4876  0.6642
 6310SOL     OW25187   1.358   8.319   2.005 -0.3618  0.4244 -0.1476
 6310SOL    HW125188   1.263   8.349   1.997 -0.7335 -1.1480 -1.9653
 6310SOL    HW225189   1.377   8.290   2.098 -1.2310  2.1346  0.5852
 6312SOL     OW25190   8.606   7.485   1.083 -0.4735  0.7064  0.6857
 6312SOL    HW125191   8.520   7.493   1.033 -0.0639 -1.8878 -0.5285
 6312SOL    HW225192   8.590   7.438   1.170 -0.1984 -0.3577  0.1687
 6313SOL     OW25193   4.010   7.958   0.935 -0.0317  0.0912  0.6266
 6313SOL    HW125194   4.105   7.983   0.915 -0.4344  0.6437 -0.6338
 6313SOL    HW225195   3.982   8.000   1.021  0.4600  0.9898  0.3505
 6314SOL     OW25196   0.399   3.422   0.774 -0.1255  0.7911  0.8939
 6314SOL    HW125197   0.465   3.374   0.832  1.4606  2.4068  0.4521
 6314SOL    HW225198   0.404   3.520   0.791  0.3293  1.2854 -1.9170
 6315SOL     OW25199   7.850   2.625   0.578 -0.0901  0.1131  0.1554
 6315SOL    HW125200   7.820   2.720   0.569  1.4209  0.6781  0.9484
 6315SOL    HW225201   7.938   2.622   0.625 -0.5252 -1.7369  0.8909
 6316SOL     OW25202   3.744   0.357   2.153  0.1586 -0.4535 -0.6965
 6316SOL    HW125203   3.838   0.328   2.136  0.8924  2.2794 -1.7245
 6316SOL    HW225204   3.684   0.316   2.085  0.2457 -3.7229  1.0955
 6318SOL     OW25205   1.584   7.890   1.275 -0.2094  0.2119  0.4697
 6318SOL    HW125206   1.646   7.960   1.311  0.9761  0.3934 -1.8077
 6318SOL    HW225207   1.518   7.933   1.213 -1.7540 -0.1960  1.7900
 6319SOL     OW25208   2.799   8.345   1.962 -0.6563  0.3418  0.2084
 6319SOL    HW125209   2.804   8.266   2.023 -0.3902 -0.2635 -0.5959
 6319SOL    HW225210   2.781   8.427   2.016 -1.9851 -0.4062  0.9334
 6320SOL     OW25211   3.979   2.463   1.474  0.0344 -0.3775  0.1735
 6320SOL    HW125212   3.957   2.430   1.382 -0.4332 -1.8988  0.8278
 6320SOL    HW225213   3.897   2.459   1.531  0.4316  0.1539  0.7834
 6321SOL     OW25214   0.474   0.897   1.871  0.3490  1.0066  0.8496
 6321SOL    HW125215   0.543   0.911   1.801 -1.3231  0.3487 -0.9738
 6321SOL    HW225216   0.461   0.982   1.922  0.1466  2.1027 -0.9856
 6322SOL     OW25217   3.186   3.541   0.128  0.2313 -0.5571  0.3516
 6322SOL    HW125218   3.246   3.470   0.166  1.0159 -0.7081 -1.1082
 6322SOL    HW225219   3.098   3.502   0.104 -1.3633  0.1453  4.6876
 6323SOL     OW25220   9.700   2.830   0.610 -0.4875 -0.0051 -0.1216
 6323SOL    HW125221   9.660   2.922   0.604  1.3229  0.7899 -0.2129
 6323SOL    HW225222   9.767   2.818   0.538 -0.0807 -1.0916  0.4294
 6324SOL     OW25223   1.056   0.403   0.476  0.4120  0.6866  0.2569
 6324SOL    HW125224   0.984   0.471   0.485 -2.3137 -2.0466 -0.1100
 6324SOL    HW225225   1.073   0.360   0.564  0.2914  0.0801 -0.0093
 6328SOL     OW25226   8.157   7.520   2.434 -0.3796 -0.1814  0.1565
 6328SOL    HW125227   8.066   7.522   2.475 -0.0137  0.1388  0.9621
 6328SOL    HW225228   8.172   7.605   2.382  0.4007  0.8943  2.0956
 6329SOL     OW25229   0.657   2.553   0.564  0.0654  0.2971  0.1142
 6329SOL    HW125230   0.737   2.572   0.621  0.3407 -0.1981 -0.1049
 6329SOL    HW225231   0.671   2.589   0.472  0.0321  0.2215  0.0789
 6330SOL     OW25232   4.112   4.373   2.294 -0.2111  0.1117  0.1092
 6330SOL    HW125233   4.178   4.443   2.321  0.1235 -0.0209 -0.3415
 6330SOL    HW225234   4.090   4.385   2.197  0.7159 -1.0932 -0.2675
 6331SOL     OW25235   7.956   1.565   0.571  0.2519 -0.0124  0.0174
 6331SOL    HW125236   7.979   1.650   0.619  0.1183  0.0638 -0.0542
 6331SOL    HW225237   7.969   1.488   0.632 -0.1955  0.1083  0.2650
 6332SOL     OW25238   8.562   5.987   1.875 -0.4950  0.0903  0.1563
 6332SOL    HW125239   8.505   5.950   1.948 -0.1701  0.6328  0.6901
 6332SOL    HW225240   8.506   6.002   1.793 -1.2043  0.9938  0.7983
 6333SOL     OW25241   1.064   2.290   2.585  0.6658  1.0286  0.2684
 6333SOL    HW125242   1.156   2.255   2.568  1.0141  1.7149  0.7175
 6333SOL    HW225243   1.032   2.341   2.505 -0.1927 -1.0164 -0.7369
 6334SOL     OW25244   3.027   3.546   0.492 -0.1612 -0.4794 -0.1915
 6334SOL    HW125245   3.013   3.569   0.589 -2.3016  0.4326 -0.6786
 6334SOL    HW225246   3.102   3.601   0.455 -0.8169  0.8240  0.3835
 6335SOL     OW25247   0.497   3.362   2.044 -0.0895  0.3098  0.9066
 6335SOL    HW125248   0.577   3.358   1.985  0.2110 -1.1325  1.4084
 6335SOL    HW225249   0.515   3.312   2.129 -1.6274 -0.2978  0.8951
 6337SOL     OW25250   9.170   1.747   1.128 -0.0879 -0.1891 -0.0631
 6337SOL    HW125251   9.199   1.709   1.216 -1.2398 -0.2235  0.3156
 6337SOL    HW225252   9.110   1.681   1.082  0.1901 -0.0033 -0.6913
 6338SOL     OW25253   4.460   8.903   1.373  0.3399  0.1562 -0.3040
 6338SOL    HW125254   4.473   8.890   1.275 -1.1357  0.9641 -0.6384
 6338SOL    HW225255   4.542   8.943   1.413  1.4787 -1.5270 -0.9347
 6339SOL     OW25256   8.416   9.670   0.184  0.3468 -0.2207 -0.3323
 6339SOL    HW125257   8.398   9.578   0.152 -2.0204 -0.0692  0.4740
 6339SOL    HW225258   8.495   9.669   0.245  0.7367 -1.5945 -0.8452
 6340SOL     OW25259   3.035   5.882   1.317  0.5670  0.0158  0.0340
 6340SOL    HW125260   3.084   5.915   1.398  0.9598  1.3086 -0.7135
 6340SOL    HW225261   3.095   5.889   1.237 -0.5235  0.7182 -0.7299
 6341SOL     OW25262   4.152   2.784   0.280 -0.1276 -0.0421 -0.0109
 6341SOL    HW125263   4.095   2.722   0.225 -1.1302  0.8920 -0.0422
 6341SOL    HW225264   4.175   2.864   0.225  1.0366 -0.3133  0.0806
 6343SOL     OW25265   1.403   9.996   1.586 -0.4456  0.4141 -0.0279
 6343SOL    HW125266   1.380   9.899   1.593 -0.8040  0.6011  1.4014
 6343SOL    HW225267   1.402  10.038   1.676 -1.1007  1.9450 -0.7203
 6345SOL     OW25268   0.344   5.005   0.983  0.0941 -0.4661  0.3883
 6345SOL    HW125269   0.273   5.046   0.925  0.1019 -1.7281 -0.5427
 6345SOL    HW225270   0.423   5.066   0.988  0.4235 -0.6972 -1.6194
 6347SOL     OW25271   2.861   7.182   2.203  0.4102  0.0133 -0.4806
 6347SOL    HW125272   2.795   7.193   2.128  1.0539 -0.7594 -1.1801
 6347SOL    HW225273   2.847   7.093   2.246 -0.3913  0.7358  0.7567
 6348SOL     OW25274   2.792   0.614   0.921  0.3193 -0.0881 -0.2756
 6348SOL    HW125275   2.803   0.665   0.835  1.7150 -1.3934 -0.8940
 6348SOL    HW225276   2.869   0.551   0.932  0.2718  0.2245  2.0590
 6350SOL     OW25277   0.191   0.722   2.598  0.1814  1.0320 -0.1877
 6350SOL    HW125278   0.165   0.706   2.503  3.6118  1.1243 -1.2066
 6350SOL    HW225279   0.159   0.813   2.626 -0.8286  1.0153 -1.2583
 6351SOL     OW25280   8.320   8.841   1.984  0.2545  0.3075 -0.1388
 6351SOL    HW125281   8.363   8.924   1.951 -1.0217  0.3753 -1.6640
 6351SOL    HW225282   8.390   8.776   2.014  1.4589  0.2166 -3.0084
 6353SOL     OW25283   7.895   9.954   1.333  0.1003  0.1747  0.0014
 6353SOL    HW125284   7.978   9.993   1.374 -0.2730  0.7611  0.1926
 6353SOL    HW225285   7.828  10.026   1.319 -0.4960 -0.3576  0.1242
 6354SOL     OW25286   1.983   2.164   1.087 -0.1553  0.1327 -0.1705
 6354SOL    HW125287   1.912   2.175   1.157 -0.5086  0.4141 -0.5733
 6354SOL    HW225288   2.022   2.254   1.065 -1.2067  0.2653 -1.5466
 6355SOL     OW25289   9.449   3.844   0.950 -0.0101  0.2713  0.0397
 6355SOL    HW125290   9.490   3.935   0.944 -1.3574  0.8629 -0.2714
 6355SOL    HW225291   9.442   3.804   0.859 -2.0646  1.0439 -0.1506
 6356SOL     OW25292   0.947   8.043   0.181 -0.0198 -0.0971 -0.3714
 6356SOL    HW125293   0.902   8.047   0.270  0.6579  2.1573 -0.0971
 6356SOL    HW225294   0.879   8.028   0.110 -0.7408 -0.4646  0.3879
 6357SOL     OW25295   1.313   0.533   0.367  0.3443 -0.4323  1.0599
 6357SOL    HW125296   1.376   0.587   0.423 -0.7645  0.0743  1.8411
 6357SOL    HW225297   1.253   0.480   0.427 -0.1807 -0.6661  0.3232
 6359SOL     OW25298   0.829   6.536   0.935  0.4438 -0.7294 -0.0556
 6359SOL    HW125299   0.794   6.486   1.015  0.0794 -0.5482 -0.1017
 6359SOL    HW225300   0.915   6.495   0.906 -0.3744 -2.0175 -0.7449
 6360SOL     OW25301   3.862   8.901   0.944 -0.0423  0.4766 -0.1785
 6360SOL    HW125302   3.776   8.890   0.994  1.0243  0.3458  1.6761
 6360SOL    HW225303   3.915   8.976   0.985  0.4283  1.0223 -1.7433
 6362SOL     OW25304   5.063   8.855   1.913 -0.4882  0.0926  0.1245
 6362SOL    HW125305   5.095   8.899   1.828  0.7262  0.2901  0.6756
 6362SOL    HW225306   5.044   8.758   1.895  0.9923 -0.1669 -0.0759
 6363SOL     OW25307   8.822   7.513   0.412  0.1912  0.3378  0.4046
 6363SOL    HW125308   8.723   7.517   0.405  0.2069  0.0305 -0.0351
 6363SOL    HW225309   8.848   7.459   0.492 -0.0058 -1.9937 -1.0579
 6364SOL     OW25310   8.580   3.701   1.776 -0.2030  0.0426 -1.0217
 6364SOL    HW125311   8.646   3.706   1.851 -0.1285 -0.0717 -1.0802
 6364SOL    HW225312   8.487   3.707   1.814 -0.1199  1.8461 -1.0860
 6366SOL     OW25313   9.255   5.465   0.157 -0.1923 -0.5990  0.1043
 6366SOL    HW125314   9.245   5.555   0.198  0.5299 -1.2973  1.8666
 6366SOL    HW225315   9.322   5.411   0.209 -0.1210 -1.9199 -1.3060
 6368SOL     OW25316   0.787   3.047   0.353 -0.1866  0.1384 -0.5423
 6368SOL    HW125317   0.745   2.995   0.427 -0.1930 -0.8569 -1.2352
 6368SOL    HW225318   0.861   2.993   0.312  1.6750  1.7753  0.5433
 6369SOL     OW25319   8.854   9.273   0.098  0.1673  0.3676  0.7235
 6369SOL    HW125320   8.895   9.331   0.028  0.6615 -0.2540  0.4846
 6369SOL    HW225321   8.811   9.194   0.054  0.0372  0.2358  1.0832
 6370SOL     OW25322   1.638   3.838   2.068 -0.2823 -0.2935  1.1011
 6370SOL    HW125323   1.571   3.911   2.086 -0.9141 -0.9003  1.2177
 6370SOL    HW225324   1.724   3.879   2.039 -1.0596  0.4447 -0.2071
 6371SOL     OW25325   2.218   9.583   0.711  0.2902  1.0358 -0.3094
 6371SOL    HW125326   2.193   9.600   0.616  0.2439  2.1970 -0.0948
 6371SOL    HW225327   2.318   9.580   0.719  0.2827 -0.1057 -0.5669
 6372SOL     OW25328   3.220   0.090   1.493  0.2141 -0.0152 -0.1242
 6372SOL    HW125329   3.138   0.083   1.436  1.2230 -0.5845 -1.5367
 6372SOL    HW225330   3.291   0.141   1.443  0.8565  0.1419  0.9346
 6373SOL     OW25331   2.782   4.798   2.270 -0.4287  0.8941 -0.2910
 6373SOL    HW125332   2.831   4.786   2.183 -0.8126 -1.5197 -0.2143
 6373SOL    HW225333   2.684   4.788   2.254 -0.4648 -0.0894  0.4814
 6374SOL     OW25334   9.267   9.947   0.818 -0.0498  0.3390 -0.5024
 6374SOL    HW125335   9.344  10.009   0.832  1.1867 -1.2255 -0.1794
 6374SOL    HW225336   9.248   9.898   0.903 -0.1235 -0.7119 -1.1175
 6375SOL     OW25337   1.179   6.384   1.649  0.7952 -0.2614 -0.4763
 6375SOL    HW125338   1.218   6.347   1.564  2.1752  0.3470 -0.1370
 6375SOL    HW225339   1.166   6.483   1.639  0.7311 -0.2270 -0.0701
 6376SOL     OW25340   1.893   3.022   2.030 -0.2652 -0.1850  0.3932
 6376SOL    HW125341   1.968   2.979   2.081 -0.2478  2.4989  2.7355
 6376SOL    HW225342   1.930   3.082   1.959 -0.1970  0.5875  1.0787
 6377SOL     OW25343   1.041   5.283   2.545  0.2872 -0.0076 -0.2906
 6377SOL    HW125344   1.030   5.249   2.639 -2.6032  0.9070 -0.2589
 6377SOL    HW225345   1.084   5.213   2.489 -0.3615 -1.5599  1.1222
 6379SOL     OW25346   4.029   0.179   1.429 -0.6651  0.0022 -0.3718
 6379SOL    HW125347   4.053   0.271   1.396 -0.6419  0.7350  1.6054
 6379SOL    HW225348   3.942   0.184   1.479 -0.7393 -1.0942 -0.3949
 6380SOL     OW25349   8.355   0.694   0.728 -0.5213  0.2133 -0.2303
 6380SOL    HW125350   8.387   0.785   0.755 -0.3070  0.2940 -0.7593
 6380SOL    HW225351   8.273   0.671   0.781 -2.0485  1.7482 -1.8780
 6383SOL     OW25352   1.252   5.580   0.589 -0.4327 -0.2475  0.4648
 6383SOL    HW125353   1.312   5.612   0.516 -1.5202 -0.7056 -0.6523
 6383SOL    HW225354   1.306   5.535   0.659  0.5860 -0.1612 -0.2517
 6384SOL     OW25355   2.965   0.077   0.615 -0.0082 -0.3792  0.5443
 6384SOL    HW125356   2.903   0.080   0.537  1.0623 -4.2109 -0.5483
 6384SOL    HW225357   2.920   0.117   0.695 -2.2597  0.8013 -1.2508
 6385SOL     OW25358   1.870   9.824   0.899  0.5613 -0.1617 -0.2813
 6385SOL    HW125359   1.966   9.837   0.875  0.1850  2.1944 -0.6288
 6385SOL    HW225360   1.859   9.830   0.998  0.2854  3.1909 -0.4885
 6386SOL     OW25361   1.979   7.405   2.075 -0.1606 -0.1512  0.0074
 6386SOL    HW125362   1.995   7.481   2.013  0.7785 -1.0532 -0.8748
 6386SOL    HW225363   1.911   7.343   2.037 -0.8021  0.1487  0.6468
 6388SOL     OW25364   1.208   2.172   0.271 -0.6707  0.2388  0.5812
 6388SOL    HW125365   1.162   2.116   0.340 -1.5346 -2.1322 -1.8478
 6388SOL    HW225366   1.140   2.224   0.219 -0.1358  0.9903  0.6237
 6389SOL     OW25367   0.085   7.989   1.502 -0.2386  0.7588 -0.0729
 6389SOL    HW125368   0.163   7.926   1.496 -0.4030  0.4689  0.7973
 6389SOL    HW225369   0.040   7.995   1.413  0.5882  0.6810 -0.5008
 6390SOL     OW25370   9.825   5.755   2.562  0.1499  0.0239  0.2176
 6390SOL    HW125371   9.751   5.720   2.621 -0.5860  1.2912  0.0508
 6390SOL    HW225372   9.885   5.814   2.616 -0.5722  1.2543 -0.3139
 6391SOL     OW25373   5.764   8.467   2.080  0.1273  0.1964 -0.6254
 6391SOL    HW125374   5.834   8.420   2.133  1.8179  3.1443 -0.1589
 6391SOL    HW225375   5.796   8.479   1.986  0.6206  2.2343 -0.2209
 6393SOL     OW25376   7.687   1.909   0.215 -0.1765 -0.3785  0.3008
 6393SOL    HW125377   7.656   1.848   0.288 -0.1185  0.7374  1.2704
 6393SOL    HW225378   7.650   1.878   0.128 -0.5432 -1.5197  0.8564
 6394SOL     OW25379   3.013   4.436   0.199 -0.7612 -0.0160 -0.2037
 6394SOL    HW125380   2.963   4.448   0.113 -1.4196  0.6393  0.2601
 6394SOL    HW225381   3.000   4.343   0.233 -0.4253 -0.3061 -0.8529
 6395SOL     OW25382   0.690   6.194   0.426  0.4722 -0.2413 -0.3475
 6395SOL    HW125383   0.658   6.192   0.521 -0.2011  0.7482 -0.5383
 6395SOL    HW225384   0.637   6.262   0.375 -0.6565 -2.2648 -1.9609
 6396SOL     OW25385   0.655   8.975   0.433  0.3109  0.2231  0.4086
 6396SOL    HW125386   0.580   8.939   0.377  1.4818 -0.3039 -0.8503
 6396SOL    HW225387   0.617   9.019   0.514 -1.3967  0.3631 -0.4280
 6397SOL     OW25388   8.158   0.614   2.504 -0.1089 -0.3258  0.1309
 6397SOL    HW125389   8.084   0.669   2.465  0.5924  1.1646  0.8429
 6397SOL    HW225390   8.131   0.582   2.595 -1.0430 -2.2984 -0.8324
 6399SOL     OW25391   1.401   3.691   2.215 -0.0271  0.5893 -0.8778
 6399SOL    HW125392   1.478   3.755   2.213 -2.8424  4.1393 -1.0968
 6399SOL    HW225393   1.403   3.639   2.300  1.7944  1.6939 -0.2212
 6400SOL     OW25394   9.052   7.340   2.662  0.0517 -0.4095  0.5661
 6400SOL    HW125395   8.995   7.283   2.721 -0.2422 -2.2910 -1.4637
 6400SOL    HW225396   8.997   7.416   2.627 -1.3658 -2.2964 -1.5112
 6401SOL     OW25397   8.177   5.976   0.551  0.0781  0.2177  0.6273
 6401SOL    HW125398   8.238   5.913   0.503 -1.1272  0.7361 -1.6408
 6401SOL    HW225399   8.231   6.044   0.600  1.3331 -0.0746 -0.3294
 6402SOL     OW25400   8.312   6.911   0.318 -0.0039 -0.3883 -0.1163
 6402SOL    HW125401   8.370   6.989   0.341 -1.8452  0.5966  1.2956
 6402SOL    HW225402   8.298   6.908   0.219  0.2555  0.9428 -0.1972
 6403SOL     OW25403   7.340   9.632   1.816 -0.0771 -0.0162 -0.1181
 6403SOL    HW125404   7.436   9.651   1.833 -0.4406  1.4547  0.3741
 6403SOL    HW225405   7.289   9.637   1.902 -0.1415 -3.7825  0.1311
 6404SOL     OW25406   9.154   8.555   1.491 -0.2244  0.1435 -0.1455
 6404SOL    HW125407   9.126   8.650   1.504 -0.7090 -0.1137  0.7469
 6404SOL    HW225408   9.252   8.551   1.475  0.4083  0.5198  3.3082
 6406SOL     OW25409   2.005   0.460   0.478  0.0983  0.1586  0.3139
 6406SOL    HW125410   2.060   0.520   0.535 -0.2548  1.3851 -0.6187
 6406SOL    HW225411   2.064   0.391   0.435  0.3395 -0.8765  2.2592
 6409SOL     OW25412   2.874   6.954   1.596 -0.2533 -0.1848 -0.2658
 6409SOL    HW125413   2.865   6.951   1.497  2.6778 -1.2744 -0.5474
 6409SOL    HW225414   2.919   6.870   1.628  0.3728  0.9016  1.7749
 6411SOL     OW25415   4.041   1.709   0.447  0.0240 -0.2762 -0.6461
 6411SOL    HW125416   4.040   1.675   0.541 -0.3221 -1.1029 -0.9417
 6411SOL    HW225417   4.013   1.805   0.446  1.1992  0.0875  0.2217
 6412SOL     OW25418   2.374   6.911   1.399  0.5508 -0.2031  0.5931
 6412SOL    HW125419   2.418   6.931   1.486 -2.6639 -1.1025  2.5081
 6412SOL    HW225420   2.347   6.996   1.354 -0.4714  0.2025  1.9468
 6413SOL     OW25421   3.583   1.936   1.317 -0.5193 -0.3440 -0.3855
 6413SOL    HW125422   3.671   1.974   1.288 -0.0116 -1.3315 -0.1767
 6413SOL    HW225423   3.514   1.956   1.249  0.1226 -0.5312 -1.1025
 6414SOL     OW25424   3.543   1.666   1.412 -0.1090  0.1609 -0.5967
 6414SOL    HW125425   3.565   1.762   1.394 -0.5820  0.2683 -0.6239
 6414SOL    HW225426   3.495   1.627   1.333  0.1018 -0.1011 -0.5939
 6415SOL     OW25427   8.931   0.977   0.714  0.2757  0.1238 -0.1863
 6415SOL    HW125428   8.965   0.951   0.804 -1.3231  0.6724  0.5980
 6415SOL    HW225429   8.918   1.076   0.711 -1.7078 -0.1243 -0.2878
 6416SOL     OW25430   8.434   9.682   2.192 -0.0708  0.0853 -0.1524
 6416SOL    HW125431   8.387   9.627   2.123  2.0181 -1.3094 -0.4977
 6416SOL    HW225432   8.515   9.725   2.150  0.5151  0.2259  1.1190
 6419SOL     OW25433   8.060   9.527   0.673 -0.1912 -0.1991  0.4943
 6419SOL    HW125434   8.032   9.476   0.591  1.7246 -0.4708 -0.0244
 6419SOL    HW225435   7.985   9.529   0.738 -0.0007 -4.7398  1.0563
 6420SOL     OW25436   3.858   5.772   0.143 -0.0769 -0.0788  0.7457
 6420SOL    HW125437   3.838   5.813   0.054 -0.8906  1.3498  1.5788
 6420SOL    HW225438   3.935   5.820   0.185 -0.0982 -0.3520  1.0960
 6421SOL     OW25439   3.732   1.176   1.476 -0.0074 -0.1654  0.2841
 6421SOL    HW125440   3.823   1.190   1.514  1.0680 -1.7031 -1.6105
 6421SOL    HW225441   3.733   1.096   1.416 -2.7075 -0.4296  0.5353
 6422SOL     OW25442   1.475   5.503   1.534  0.0512  0.1958 -0.3479
 6422SOL    HW125443   1.463   5.559   1.452  0.2755  1.6122  0.5741
 6422SOL    HW225444   1.471   5.406   1.509 -2.6900  0.6030 -1.6270
 6424SOL     OW25445   8.177   7.776   0.552 -0.2051  0.5103  0.6087
 6424SOL    HW125446   8.192   7.866   0.512 -0.4230  0.7488  1.0692
 6424SOL    HW225447   8.104   7.729   0.501 -0.5160  0.8320  0.7532
 6425SOL     OW25448   9.133   6.848   2.392  0.1731  0.0354  0.1092
 6425SOL    HW125449   9.206   6.829   2.326 -0.4640 -1.1318 -0.2866
 6425SOL    HW225450   9.057   6.784   2.377 -0.9575  1.2594  0.4769
 6426SOL     OW25451   0.547   8.420   0.581  0.3268  0.6279  0.0280
 6426SOL    HW125452   0.492   8.429   0.664  0.1764  2.0188 -0.2210
 6426SOL    HW225453   0.621   8.487   0.582  0.6760  0.2640 -0.6997
 6427SOL     OW25454   8.661   3.820   0.488  0.2999 -0.0008  0.2976
 6427SOL    HW125455   8.746   3.856   0.527  0.0573 -1.3016  2.1034
 6427SOL    HW225456   8.673   3.724   0.463 -0.2536  0.1772 -0.6774
 6428SOL     OW25457   2.351   1.186   0.690 -0.4715  0.6655 -0.0342
 6428SOL    HW125458   2.385   1.273   0.653  0.9460  1.1780  2.3864
 6428SOL    HW225459   2.326   1.126   0.614 -0.3669  2.7412 -1.7720
 6429SOL     OW25460   7.568   8.710   1.634 -0.3719 -0.5008 -0.1842
 6429SOL    HW125461   7.622   8.793   1.620 -0.1265 -0.6139  0.0647
 6429SOL    HW225462   7.608   8.634   1.582 -0.4003 -0.5387 -0.1513
 6432SOL     OW25463   2.493   2.412   0.727 -0.3905 -0.3570  0.3513
 6432SOL    HW125464   2.501   2.314   0.749 -2.3263 -0.7399 -0.6184
 6432SOL    HW225465   2.481   2.464   0.811  1.5136 -0.8309  0.9566
 6433SOL     OW25466   8.326   1.748   0.918  0.4329  0.1186  0.2420
 6433SOL    HW125467   8.357   1.839   0.945 -0.1927  0.6894 -0.8838
 6433SOL    HW225468   8.355   1.681   0.986  0.6463  1.1976  1.2378
 6434SOL     OW25469   1.856   9.078   0.194  0.5628  0.2139 -0.4710
 6434SOL    HW125470   1.762   9.056   0.168 -0.0163  2.0280  0.0633
 6434SOL    HW225471   1.866   9.069   0.293  0.5593  1.4700 -0.3557
 6438SOL     OW25472   8.055   8.912   3.437 -0.2250 -0.0384 -0.1403
 6438SOL    HW125473   7.991   8.930   3.512  0.6964 -2.0041  1.1516
 6438SOL    HW225474   8.008   8.926   3.349 -2.1606 -0.5817  0.7749
 6439SOL     OW25475   0.730   3.940   0.725  0.2940 -0.1078  0.2025
 6439SOL    HW125476   0.707   3.966   0.632  1.2131 -1.3672 -0.3952
 6439SOL    HW225477   0.766   4.019   0.774  1.8372  0.0760 -1.1819
 6440SOL     OW25478   0.655   1.372   1.221 -0.7069 -0.0259 -0.5508
 6440SOL    HW125479   0.666   1.300   1.290  0.1291  2.1371  1.6953
 6440SOL    HW225480   0.559   1.378   1.194 -0.9992 -1.1452  0.1970
 6441SOL     OW25481   0.388   9.192   1.089 -0.0540 -0.2361 -0.1786
 6441SOL    HW125482   0.316   9.167   1.024  0.8699 -0.6962 -1.0604
 6441SOL    HW225483   0.348   9.228   1.173 -1.2735  0.6369 -1.1230
 6442SOL     OW25484   1.815   6.454   0.796 -0.3758  0.1230 -0.2671
 6442SOL    HW125485   1.843   6.461   0.892 -2.4800  0.3232  0.3641
 6442SOL    HW225486   1.827   6.360   0.765  2.3939  0.5076 -0.5105
 6443SOL     OW25487   1.235   5.864   1.349  0.1387  0.7496  0.2958
 6443SOL    HW125488   1.189   5.864   1.438  1.1785  1.3852  0.8302
 6443SOL    HW225489   1.168   5.843   1.278 -0.5411 -0.5584  1.3036
 6444SOL     OW25490   1.791   3.952   0.042 -0.2400  0.2578 -0.3121
 6444SOL    HW125491   1.773   3.937  -0.056 -1.3028  0.6285 -0.1866
 6444SOL    HW225492   1.799   4.051   0.058  1.0971  0.1404 -0.2118
 6445SOL     OW25493   9.901   2.574   0.118  0.1283 -0.2770  0.0789
 6445SOL    HW125494   9.886   2.480   0.086  1.2067 -1.0500  1.7589
 6445SOL    HW225495   9.913   2.573   0.217 -0.0064  1.6701  0.1226
 6446SOL     OW25496   3.169   8.421   2.031 -0.0602  0.5588  0.3307
 6446SOL    HW125497   3.130   8.336   1.996  0.9165  0.4129 -0.4114
 6446SOL    HW225498   3.174   8.488   1.958  3.4223 -0.2452 -0.2578
 6447SOL     OW25499   1.181   7.429   0.370  0.3927  0.5826 -0.0484
 6447SOL    HW125500   1.253   7.465   0.311  1.3393 -0.0989  0.6611
 6447SOL    HW225501   1.101   7.406   0.316  1.6323 -1.0580 -1.2311
 6448SOL     OW25502   1.935   2.377   1.762 -0.4718  0.3670  0.3937
 6448SOL    HW125503   1.920   2.290   1.809 -0.0317  0.8355  1.4300
 6448SOL    HW225504   1.927   2.452   1.828  0.7477  1.0016 -0.1585
 6449SOL     OW25505   3.050   3.400   2.250 -0.0098 -0.0598  0.0813
 6449SOL    HW125506   3.096   3.447   2.175 -0.0997 -0.2188 -0.0753
 6449SOL    HW225507   3.037   3.304   2.225  0.6221 -0.2766  0.6068
 6450SOL     OW25508   3.219   5.374   1.168  0.9317  0.3287 -0.0426
 6450SOL    HW125509   3.127   5.397   1.136  1.4596  1.8643 -0.4704
 6450SOL    HW225510   3.215   5.290   1.222 -0.5351 -0.2980 -1.0841
 6451SOL     OW25511   1.810   7.655   1.539 -0.5554  0.6682 -0.1325
 6451SOL    HW125512   1.801   7.704   1.626 -2.9923  1.9734 -1.0945
 6451SOL    HW225513   1.823   7.721   1.465 -1.5736 -0.2697 -1.1584
 6453SOL     OW25514  -0.000   2.862   1.022  0.4669 -0.5770 -0.5140
 6453SOL    HW125515   0.036   2.887   1.112  1.4296  0.2999 -1.1270
 6453SOL    HW225516   0.018   2.936   0.957 -0.1545 -1.2282 -1.4472
 6454SOL     OW25517   2.272   2.421   0.152 -0.0203  0.1364 -0.3660
 6454SOL    HW125518   2.308   2.401   0.061 -0.3191  0.5921 -0.5845
 6454SOL    HW225519   2.185   2.469   0.143 -0.9853 -1.4787  0.1572
 6455SOL     OW25520   2.399   6.402   2.330 -0.0685  0.3499 -0.1957
 6455SOL    HW125521   2.437   6.312   2.309 -0.5271 -0.2610  1.4169
 6455SOL    HW225522   2.420   6.424   2.426 -0.8535  1.4874 -0.2867
 6457SOL     OW25523   1.385   9.601   1.357  0.3987 -0.8094  0.6300
 6457SOL    HW125524   1.398   9.640   1.266 -0.2329 -0.7344  0.5702
 6457SOL    HW225525   1.337   9.667   1.415 -0.1912 -1.2870  0.6877
 6459SOL     OW25526   2.443   1.590   0.394  0.2029  0.0988  0.3174
 6459SOL    HW125527   2.495   1.663   0.351 -1.6566  1.5755  0.5094
 6459SOL    HW225528   2.427   1.613   0.491  0.5382 -1.0827  0.6633
 6460SOL     OW25529   1.871   7.891   1.746 -0.3036 -0.9319 -0.5262
 6460SOL    HW125530   1.922   7.930   1.823  1.4220 -1.0181 -1.5860
 6460SOL    HW225531   1.934   7.874   1.670 -1.8389 -1.5862 -1.6790
 6463SOL     OW25532   0.736   5.138   0.423  0.3914  0.2673  0.4165
 6463SOL    HW125533   0.827   5.108   0.395 -0.4272 -2.0521  0.1407
 6463SOL    HW225534   0.692   5.186   0.347  1.0284  0.5704  0.2395
 6464SOL     OW25535   1.367   9.077   0.241 -0.2243  0.2483  0.6417
 6464SOL    HW125536   1.398   8.993   0.197 -0.3632 -0.7631  2.4448
 6464SOL    HW225537   1.307   9.055   0.318  0.3548  1.9751  1.6150
 6466SOL     OW25538   8.525   1.151   1.226 -0.4399  0.3161  0.0187
 6466SOL    HW125539   8.439   1.151   1.175  0.1800  2.7762 -1.1221
 6466SOL    HW225540   8.536   1.240   1.271  1.2154 -0.2039  0.6801
 6468SOL     OW25541   4.111   0.525   1.105  0.3488  0.1228  0.1065
 6468SOL    HW125542   4.052   0.598   1.071 -0.5688 -0.7519 -0.2066
 6468SOL    HW225543   4.137   0.465   1.029  2.4497  1.0397  0.0567
 6469SOL     OW25544   8.844   4.060   0.780 -0.1954  0.4089 -0.1977
 6469SOL    HW125545   8.862   3.992   0.710  0.9266 -0.1702  0.6266
 6469SOL    HW225546   8.930   4.102   0.809 -0.8218  1.8357 -0.3543
 6470SOL     OW25547   1.398   8.343   0.246  0.5996  0.1454  0.2501
 6470SOL    HW125548   1.318   8.388   0.208 -0.1564  2.0247  3.8172
 6470SOL    HW225549   1.381   8.245   0.252 -0.6488  0.2775 -0.8590
 6471SOL     OW25550   0.992   7.243   1.572  0.2955 -0.1841 -0.2384
 6471SOL    HW125551   1.022   7.242   1.667 -1.5131  1.3035  0.3770
 6471SOL    HW225552   1.069   7.264   1.512  0.5644  3.3605  1.2678
 6472SOL     OW25553   1.159   9.790   0.761  0.1457  0.1359  0.1596
 6472SOL    HW125554   1.135   9.748   0.849 -0.2225 -0.8595 -0.3995
 6472SOL    HW225555   1.252   9.825   0.765  0.4317 -0.6641  0.6797
 6473SOL     OW25556   4.133   4.395   1.211 -0.3755 -0.2946 -0.3491
 6473SOL    HW125557   4.185   4.460   1.155 -0.2516  0.3585  0.5181
 6473SOL    HW225558   4.044   4.434   1.233  0.1914  0.1290  1.2488
 6475SOL     OW25559   2.685   3.941   1.895 -0.1406  0.5521 -0.1180
 6475SOL    HW125560   2.653   3.881   1.968  1.8186 -2.5729 -1.7042
 6475SOL    HW225561   2.774   3.980   1.920 -1.2039  2.4884  0.7190
 6476SOL     OW25562   1.609   9.235   0.658 -0.6126 -0.0725 -0.1545
 6476SOL    HW125563   1.543   9.293   0.706 -1.0475  0.2106 -1.0792
 6476SOL    HW225564   1.578   9.220   0.564  0.1634 -0.7245 -0.3118
 6477SOL     OW25565   3.513   3.117   0.626 -0.2337 -0.5676 -0.4381
 6477SOL    HW125566   3.429   3.076   0.662 -0.3185 -0.5844 -0.6546
 6477SOL    HW225567   3.490   3.199   0.573 -0.0681 -0.2714 -0.0520
 6479SOL     OW25568   1.853   6.488   1.077 -0.4590  0.6289  0.1655
 6479SOL    HW125569   1.821   6.568   1.127 -0.6429 -0.3341  1.6096
 6479SOL    HW225570   1.952   6.477   1.091  0.0824  2.1232 -2.2087
 6480SOL     OW25571   1.489   4.101   2.118 -0.2048 -0.1425  0.0673
 6480SOL    HW125572   1.464   4.094   2.214  1.6822 -2.0348  0.4522
 6480SOL    HW225573   1.425   4.047   2.063 -1.4927  1.2209  0.1933
 6482SOL     OW25574   2.787   3.557   1.924  0.5497  0.0073 -0.2427
 6482SOL    HW125575   2.802   3.566   1.825  0.5037  1.6305 -0.1179
 6482SOL    HW225576   2.859   3.501   1.964  0.8774 -0.1949 -1.1145
 6484SOL     OW25577   9.100   2.560   1.891  0.5520  0.5623  0.1190
 6484SOL    HW125578   9.106   2.580   1.793  0.2842 -0.1650 -0.0515
 6484SOL    HW225579   9.092   2.645   1.942  0.5826  0.9424 -0.5026
 6485SOL     OW25580   4.610   3.124   0.695  0.2323 -0.2665  0.1773
 6485SOL    HW125581   4.592   3.099   0.790  1.3791  0.4670  0.6092
 6485SOL    HW225582   4.698   3.086   0.667 -0.6657 -1.4902 -0.9811
 6486SOL     OW25583   8.782   1.557   1.972 -0.2325 -0.1895 -0.2144
 6486SOL    HW125584   8.771   1.467   1.931  1.2980 -0.5217  0.0794
 6486SOL    HW225585   8.875   1.590   1.956  0.3048 -0.1811  2.7120
 6487SOL     OW25586   4.476   1.641   1.418 -0.0187  0.4851  0.3509
 6487SOL    HW125587   4.523   1.675   1.337 -1.4491 -0.3070 -0.8364
 6487SOL    HW225588   4.496   1.544   1.430 -2.2185 -0.1641 -0.8499
 6488SOL     OW25589   0.232   4.924   2.187  0.3553 -0.1262  0.4449
 6488SOL    HW125590   0.207   4.872   2.269  0.3620 -1.1354 -0.1905
 6488SOL    HW225591   0.332   4.922   2.175  0.3674  0.1482  0.4923
 6489SOL     OW25592   3.897   1.945   0.434  0.1664 -0.1954 -0.0214
 6489SOL    HW125593   3.935   2.015   0.374  1.1430 -0.4887  0.2539
 6489SOL    HW225594   3.825   1.895   0.386 -0.2782  0.7439 -0.3479
 6490SOL     OW25595   8.990   5.575   2.189  0.5241  0.1371 -0.1423
 6490SOL    HW125596   9.079   5.558   2.231  0.7346 -1.0322 -1.0420
 6490SOL    HW225597   8.941   5.644   2.242  2.2771  1.3530 -0.0844
 6491SOL     OW25598   4.366   1.021   2.401 -0.3083  0.3419 -0.2945
 6491SOL    HW125599   4.317   1.098   2.362 -1.5753 -0.8140 -1.0180
 6491SOL    HW225600   4.438   1.055   2.462 -0.4181  2.0891 -1.1060
 6492SOL     OW25601   8.472   7.378   0.697  0.1109  0.1700  0.1265
 6492SOL    HW125602   8.429   7.378   0.607 -0.2964  1.1158  0.3243
 6492SOL    HW225603   8.404   7.356   0.767 -0.4283  3.1755  0.6086
 6493SOL     OW25604   9.969   7.140   1.089 -0.0918  0.3384 -0.4952
 6493SOL    HW125605   9.908   7.064   1.113  1.1108 -0.7361 -0.7830
 6493SOL    HW225606   9.916   7.224   1.079 -2.0327 -1.2573 -4.2154
 6494SOL     OW25607   7.057   9.652   2.284 -0.1281 -0.8653 -0.0644
 6494SOL    HW125608   7.051   9.567   2.335  1.1398 -0.1856  1.2546
 6494SOL    HW225609   6.995   9.719   2.325 -1.2056 -1.1653 -1.1656
 6497SOL     OW25610   3.695   4.384   2.402 -0.3866 -0.0072  0.2346
 6497SOL    HW125611   3.738   4.420   2.485  0.6879  0.1719 -0.3797
 6497SOL    HW225612   3.667   4.461   2.344 -0.3910 -0.1336  0.0691
 6498SOL     OW25613   2.206   7.903   2.684 -0.1236 -0.4143  0.1209
 6498SOL    HW125614   2.195   7.807   2.711  1.4451 -1.0814 -1.4756
 6498SOL    HW225615   2.262   7.908   2.601  1.3705  1.9664  1.1949
 6499SOL     OW25616   3.458   4.168   1.577  0.0930  0.2634 -0.0742
 6499SOL    HW125617   3.453   4.123   1.488 -0.4080 -0.5032  0.3418
 6499SOL    HW225618   3.494   4.104   1.645  0.2789  0.7822  0.3212
 6500SOL     OW25619   0.393   2.952   0.966 -0.2049  0.4560 -0.2062
 6500SOL    HW125620   0.436   2.925   0.880 -0.3086  1.2040 -0.4956
 6500SOL    HW225621   0.460   2.947   1.040 -0.0691 -0.0205 -0.3597
 6501SOL     OW25622   1.347   5.445   0.017  0.6056  0.6968 -0.5342
 6501SOL    HW125623   1.285   5.424  -0.058 -0.2530 -2.1170  0.8696
 6501SOL    HW225624   1.428   5.386   0.010  0.1680 -0.1321  1.1420
 6502SOL     OW25625   2.739   7.770   2.556  0.1176  0.2064 -0.3808
 6502SOL    HW125626   2.678   7.812   2.624  0.6444 -0.9853  0.8699
 6502SOL    HW225627   2.701   7.682   2.528  0.6115  0.0524 -0.5741
 6503SOL     OW25628   1.315   5.596   1.951  0.1462  0.4336  0.6557
 6503SOL    HW125629   1.268   5.514   1.984 -0.6794 -0.4574 -2.5651
 6503SOL    HW225630   1.291   5.612   1.856  3.5415  2.0934  0.0145
 6505SOL     OW25631   9.569   2.927   1.549  0.1834  0.1759  0.4065
 6505SOL    HW125632   9.626   2.964   1.622 -0.5049  1.5386  0.2802
 6505SOL    HW225633   9.576   2.827   1.547  0.0470  0.1130  2.4755
 6507SOL     OW25634   2.189   6.138   0.696  0.0766  0.1467  0.8025
 6507SOL    HW125635   2.229   6.048   0.679  0.5045  0.5510 -0.4249
 6507SOL    HW225636   2.231   6.179   0.777  2.0681  0.4962 -0.3786
 6508SOL     OW25637   1.691   5.936   1.218 -0.5066 -0.3622  0.0345
 6508SOL    HW125638   1.679   6.034   1.204 -0.1719 -0.0255  1.9742
 6508SOL    HW225639   1.777   5.907   1.176  0.8908  0.7778  1.9942
 6509SOL     OW25640   8.631   0.338   0.835 -0.0319  0.1334 -0.4574
 6509SOL    HW125641   8.586   0.386   0.910  1.3440  1.3165 -0.3585
 6509SOL    HW225642   8.684   0.262   0.870  1.4075  1.2811 -0.0922
 6510SOL     OW25643   3.991   3.297   2.057  0.1416 -0.1510 -0.1547
 6510SOL    HW125644   4.089   3.312   2.074  0.3311 -1.1306 -0.3376
 6510SOL    HW225645   3.971   3.313   1.961  0.0356  0.4791 -0.0290
 6511SOL     OW25646   4.215   2.968   1.914 -0.2662  0.6021  0.1861
 6511SOL    HW125647   4.256   2.877   1.916 -0.4725  0.5226  0.6750
 6511SOL    HW225648   4.238   3.017   1.998 -1.9814  0.2126  0.9002
 6512SOL     OW25649   8.382   6.637   0.244  0.0421 -0.0991  0.4474
 6512SOL    HW125650   8.356   6.728   0.278 -0.8504 -0.4112  0.5994
 6512SOL    HW225651   8.344   6.624   0.153  0.4087 -0.2126  0.3108
 6513SOL     OW25652   9.833   6.381   1.815 -0.2475  0.0544  0.9000
 6513SOL    HW125653   9.772   6.313   1.855 -0.8033 -0.1735 -0.3116
 6513SOL    HW225654   9.905   6.334   1.764 -0.5258  0.3716  0.2166
 6514SOL     OW25655   0.273   0.862   1.650 -0.2045 -0.4560 -0.4438
 6514SOL    HW125656   0.336   0.851   1.727 -1.2107 -0.1770  0.4353
 6514SOL    HW225657   0.203   0.929   1.675 -1.0072 -0.9727 -1.3069
 6515SOL     OW25658   7.665   8.183   2.303  0.2153 -0.0784 -0.0174
 6515SOL    HW125659   7.674   8.279   2.274 -0.1583 -0.1998 -0.5417
 6515SOL    HW225660   7.756   8.144   2.316  0.3995 -0.1130 -1.3605
 6516SOL     OW25661   1.899   0.756   1.985  0.0590  0.4482 -0.7060
 6516SOL    HW125662   1.947   0.839   1.957 -0.0087 -0.0659 -2.4056
 6516SOL    HW225663   1.894   0.693   1.907 -0.4393 -0.8828  0.3951
 6517SOL     OW25664   9.901   7.656   2.469  0.1093 -0.1881 -0.4863
 6517SOL    HW125665   9.838   7.696   2.535 -1.2509 -0.2412 -1.7102
 6517SOL    HW225666   9.978   7.614   2.516 -0.7735 -0.1141  1.0382
 6518SOL     OW25667   2.348   9.521   0.269 -0.4714  0.0697  0.0583
 6518SOL    HW125668   2.296   9.446   0.227 -1.4176  0.8351 -0.1435
 6518SOL    HW225669   2.376   9.586   0.198  2.3532 -1.2422 -0.1269
 6519SOL     OW25670   1.448   5.073   0.133 -0.0589  0.1964 -0.3101
 6519SOL    HW125671   1.438   5.024   0.220  2.2991  0.4753  0.1623
 6519SOL    HW225672   1.537   5.119   0.131 -1.7947  3.6631 -1.1738
 6520SOL     OW25673   0.976   5.265   1.750  0.1880 -0.2000  0.3834
 6520SOL    HW125674   0.942   5.358   1.736 -3.8398 -1.3841  1.6143
 6520SOL    HW225675   1.035   5.239   1.674 -0.5197  2.5154 -1.1590
 6522SOL     OW25676   3.260   3.223   0.949 -0.2526  0.2618 -0.0098
 6522SOL    HW125677   3.239   3.298   1.012 -1.0545  0.3265 -0.3446
 6522SOL    HW225678   3.351   3.187   0.969 -0.1458  0.8632  0.6092
 6523SOL     OW25679   8.996   2.136   0.730 -0.7147  0.6124  0.5873
 6523SOL    HW125680   8.907   2.182   0.733 -1.2459 -0.3819  0.1283
 6523SOL    HW225681   8.984   2.039   0.711  0.6379  0.9569 -2.2706
 6524SOL     OW25682   7.529   1.555   2.681 -0.1755  0.2478  0.0902
 6524SOL    HW125683   7.571   1.551   2.772  1.0777  0.5008 -0.4712
 6524SOL    HW225684   7.568   1.484   2.623  1.3641  2.1032 -1.2088
 6526SOL     OW25685   9.708   4.365   0.145 -0.1215 -0.5765 -0.4155
 6526SOL    HW125686   9.759   4.435   0.195 -0.4675 -1.6624  1.5043
 6526SOL    HW225687   9.611   4.370   0.171 -0.4238 -0.6986 -1.5153
 6528SOL     OW25688   1.171   3.012   2.614 -0.0968  0.6086 -0.1893
 6528SOL    HW125689   1.124   3.097   2.637 -0.6501  0.4918 -0.8686
 6528SOL    HW225690   1.131   2.973   2.531  0.2165 -0.2609  0.0585
 6529SOL     OW25691   2.648   6.626   2.637  0.1491 -0.3405  0.1616
 6529SOL    HW125692   2.682   6.656   2.726  1.2545  1.3046 -0.8060
 6529SOL    HW225693   2.683   6.534   2.617  1.2722 -0.0282  0.6765
 6531SOL     OW25694   1.593   7.243   1.259  0.4174 -0.4519  0.1154
 6531SOL    HW125695   1.557   7.291   1.179  0.7787  0.4116  0.4684
 6531SOL    HW225696   1.582   7.145   1.246  0.6148 -0.3265 -1.0706
 6532SOL     OW25697   4.364   1.718   0.677  0.8049  0.3930 -0.3199
 6532SOL    HW125698   4.349   1.660   0.597  1.6951 -0.3791  0.0677
 6532SOL    HW225699   4.308   1.800   0.669 -0.1844 -0.3373 -1.0626
 6533SOL     OW25700   3.303   1.236   0.660 -0.0587  0.3219  0.0611
 6533SOL    HW125701   3.238   1.304   0.691  0.9382  2.1138 -1.6793
 6533SOL    HW225702   3.257   1.170   0.600 -0.4932  0.9153 -0.2551
 6534SOL     OW25703   0.533   8.582   0.117 -0.5894  0.2889 -0.2629
 6534SOL    HW125704   0.561   8.491   0.150 -1.8631  0.1636  0.5233
 6534SOL    HW225705   0.485   8.572   0.030 -0.2987  0.2516 -0.4179
 6535SOL     OW25706   0.853   8.096   0.420  0.1540  0.3201  0.1373
 6535SOL    HW125707   0.771   8.124   0.470  0.4533 -0.0199  0.8239
 6535SOL    HW225708   0.934   8.125   0.470  0.4608 -0.6858  0.2327
 6536SOL     OW25709   1.127   2.539   1.084 -0.1875  0.0691 -0.4433
 6536SOL    HW125710   1.122   2.608   1.011 -1.2672  0.7568  0.2652
 6536SOL    HW225711   1.213   2.489   1.076  1.3521  2.5220 -0.0660
 6537SOL     OW25712   9.399   1.168   1.358 -0.2482 -0.4173 -0.6764
 6537SOL    HW125713   9.358   1.201   1.443  0.7864 -0.1456 -0.2643
 6537SOL    HW225714   9.395   1.239   1.289  0.0250 -0.1958 -0.4652
 6538SOL     OW25715   8.274   6.733   1.344 -0.0736  0.5459  0.4615
 6538SOL    HW125716   8.348   6.728   1.277  1.3394 -0.6864  2.0888
 6538SOL    HW225717   8.220   6.649   1.341 -0.8590  1.0580 -0.0727
 6540SOL     OW25718   2.208   0.876   1.804  0.1439  0.2260  0.5069
 6540SOL    HW125719   2.197   0.905   1.898  0.4625  0.4132  0.4882
 6540SOL    HW225720   2.224   0.777   1.801  0.6010  0.2908  0.6859
 6542SOL     OW25721   2.867   9.952   0.155 -0.6982  0.1445 -0.5996
 6542SOL    HW125722   2.927   9.967   0.077  0.3118  0.1017  0.1599
 6542SOL    HW225723   2.774   9.935   0.123 -0.1169 -0.7849 -1.8223
 6544SOL     OW25724   8.301   1.445   2.319 -0.2597 -0.2735  0.1445
 6544SOL    HW125725   8.276   1.478   2.227 -1.3634 -0.1445  0.4884
 6544SOL    HW225726   8.276   1.514   2.387  0.3209 -0.4798  0.5682
 6545SOL     OW25727   4.272   1.846   2.556 -0.6825  0.2785 -0.0472
 6545SOL    HW125728   4.368   1.832   2.578 -0.9080 -1.8650 -0.2963
 6545SOL    HW225729   4.260   1.849   2.457 -0.7900  1.1246 -0.0065
 6546SOL     OW25730   7.204   8.750   2.017  0.6305 -0.2919  0.0246
 6546SOL    HW125731   7.251   8.740   1.930  0.1422 -1.0913 -0.1558
 6546SOL    HW225732   7.167   8.843   2.025  2.6365  0.5050  0.3897
 6547SOL     OW25733   0.563   8.011   0.328  0.3425  0.1115 -0.6324
 6547SOL    HW125734   0.584   8.048   0.418 -1.5092 -0.6069  0.1138
 6547SOL    HW225735   0.598   8.073   0.257  2.2754  0.4133  0.5564
 6549SOL     OW25736   1.924   3.210   1.403  0.3197  0.3693  0.2956
 6549SOL    HW125737   1.978   3.271   1.346  1.3033 -2.8044 -2.2923
 6549SOL    HW225738   1.981   3.173   1.476  0.2646  1.0093  0.6607
 6550SOL     OW25739   4.174   8.367   0.877  0.3323  0.1168 -0.2992
 6550SOL    HW125740   4.125   8.385   0.962 -0.0545 -2.0442 -0.0311
 6550SOL    HW225741   4.263   8.325   0.898 -0.1334 -1.2308 -0.9598
 6551SOL     OW25742   0.175   1.181   2.267 -0.6404 -0.4592 -0.5178
 6551SOL    HW125743   0.207   1.256   2.209  2.0450 -0.3198  1.0437
 6551SOL    HW225744   0.242   1.107   2.265 -0.6106 -0.5618  2.1332
 6552SOL     OW25745   3.132   3.534   2.469 -0.6281 -0.4115 -0.0808
 6552SOL    HW125746   3.232   3.542   2.467 -0.5825 -0.7987  0.4931
 6552SOL    HW225747   3.102   3.471   2.398 -0.5152  0.2232 -0.6914
 6553SOL     OW25748   8.276   8.323   1.036  0.0251 -0.5052  0.1152
 6553SOL    HW125749   8.311   8.253   0.975  1.8485  1.0962 -0.7254
 6553SOL    HW225750   8.289   8.413   0.995  0.6054  0.5605  2.5190
 6554SOL     OW25751   9.341   3.794   2.387 -0.0693 -0.6729 -0.1665
 6554SOL    HW125752   9.254   3.843   2.393  0.0706 -0.3573 -0.7218
 6554SOL    HW225753   9.364   3.778   2.291  1.1118  0.3781 -0.0654
 6555SOL     OW25754   9.450   3.429   0.670  0.6196 -0.6049  0.8816
 6555SOL    HW125755   9.442   3.469   0.579 -0.6495  2.3581  2.2217
 6555SOL    HW225756   9.383   3.356   0.680  1.3267 -1.5220 -0.8106
 6556SOL     OW25757   3.479   3.064   0.988 -0.3485 -0.0907 -0.1940
 6556SOL    HW125758   3.564   3.091   1.034  1.1924 -1.5853 -2.0385
 6556SOL    HW225759   3.480   2.965   0.974 -0.2987  0.4113 -4.2631
 6557SOL     OW25760   9.499   2.975   0.963 -0.1312 -0.4390 -0.1551
 6557SOL    HW125761   9.544   2.899   1.009 -1.3012 -0.7999  0.4244
 6557SOL    HW225762   9.433   2.940   0.896 -1.3368  0.0296  0.7619
 6558SOL     OW25763   2.775   6.674   0.630  0.1075 -0.6219  0.8224
 6558SOL    HW125764   2.688   6.642   0.592 -0.4045  1.0812  0.5074
 6558SOL    HW225765   2.784   6.772   0.613  2.5192 -0.9628  0.0513
 6559SOL     OW25766   0.249   3.564   1.783 -0.3334 -0.0415  0.0264
 6559SOL    HW125767   0.259   3.561   1.683 -0.9077 -2.2614  0.0090
 6559SOL    HW225768   0.152   3.555   1.806 -0.1840  0.3304  0.8056
 6561SOL     OW25769   2.515   6.853   2.220  0.1488 -0.3794 -0.3421
 6561SOL    HW125770   2.486   6.762   2.190  0.7576 -0.3159 -1.1638
 6561SOL    HW225771   2.452   6.887   2.290 -1.3266 -0.5303 -1.5730
 6562SOL     OW25772   3.297   1.659   0.352  1.0276  0.0631 -0.6430
 6562SOL    HW125773   3.316   1.749   0.313 -0.2748  0.0645 -1.3209
 6562SOL    HW225774   3.343   1.650   0.440  2.4726  0.7787 -1.3108
 6563SOL     OW25775   1.311   2.182   1.531 -0.1943  0.7128  0.1234
 6563SOL    HW125776   1.352   2.196   1.621 -0.9642  0.1202  0.5761
 6563SOL    HW225777   1.230   2.123   1.540  1.4740 -1.8845 -1.3969
 6565SOL     OW25778   6.461   9.450   1.605 -0.4672 -0.1590  0.6642
 6565SOL    HW125779   6.473   9.416   1.698  2.8919 -0.2219  0.2712
 6565SOL    HW225780   6.498   9.543   1.599 -0.0913 -0.3997 -0.7668
 6566SOL     OW25781   9.202   1.069   1.151  1.0695  0.4252  0.8550
 6566SOL    HW125782   9.289   1.035   1.189  1.2886 -0.3988 -0.3600
 6566SOL    HW225783   9.167   1.003   1.084  0.1215  1.3434  0.4381
 6567SOL     OW25784   2.640   2.517   1.929 -0.4608  0.4242  0.1982
 6567SOL    HW125785   2.686   2.520   1.840  0.2532 -0.9352  0.5057
 6567SOL    HW225786   2.554   2.566   1.924 -0.2542  0.6609 -1.1541
 6568SOL     OW25787   9.481   8.488   0.378 -0.2400  0.3673 -0.1041
 6568SOL    HW125788   9.457   8.422   0.306 -0.9616  0.4734  0.0351
 6568SOL    HW225789   9.515   8.439   0.458  0.2475  0.2302 -0.3910
 6569SOL     OW25790   2.825   1.466   1.152 -0.2501 -1.0373 -0.1711
 6569SOL    HW125791   2.750   1.517   1.109  0.2602 -1.5395 -1.7009
 6569SOL    HW225792   2.824   1.482   1.251 -0.3436  1.6334 -0.5702
 6571SOL     OW25793   1.035   2.993   1.481 -0.3822 -0.0645 -0.2513
 6571SOL    HW125794   1.091   3.043   1.415 -1.1091  0.1756 -0.6918
 6571SOL    HW225795   1.090   2.919   1.522  0.2187  0.0957 -0.7541
 6572SOL     OW25796   9.547   7.769   1.162 -0.7910 -0.4090  0.1890
 6572SOL    HW125797   9.576   7.830   1.235 -1.3924 -0.0503  0.1334
 6572SOL    HW225798   9.507   7.822   1.088 -0.6884 -0.8154 -0.1626
 6573SOL     OW25799   4.472   3.650   2.065  0.4778 -0.2411 -0.0306
 6573SOL    HW125800   4.375   3.633   2.050 -0.0215  1.2252  1.3602
 6573SOL    HW225801   4.495   3.629   2.160  1.1575  1.0150  0.0911
 6574SOL     OW25802   8.055   9.801   0.588 -0.4627 -0.0075  0.0586
 6574SOL    HW125803   8.055   9.707   0.620 -1.5528 -0.4258 -1.1148
 6574SOL    HW225804   8.131   9.815   0.524  0.3974  0.2290  1.1329
 6575SOL     OW25805   0.425   7.726   1.741  0.2353 -0.5941  0.0828
 6575SOL    HW125806   0.493   7.749   1.811  0.3280  1.0129 -0.5075
 6575SOL    HW225807   0.336   7.762   1.769 -0.3090 -2.3131  0.6447
 6577SOL     OW25808   0.255   8.855   2.183 -0.3693  0.0681  0.6912
 6577SOL    HW125809   0.175   8.876   2.127 -0.1343 -0.1824  0.2625
 6577SOL    HW225810   0.332   8.911   2.154  0.4820 -1.9299 -0.9930
 6579SOL     OW25811   4.192   1.949   0.691 -0.4076  0.2886 -0.0462
 6579SOL    HW125812   4.204   2.002   0.607  1.5490  0.7461  0.5033
 6579SOL    HW225813   4.177   2.010   0.768  0.0500 -0.0301  0.2977
 6580SOL     OW25814   9.557   8.498   0.891 -0.1659  0.1845  0.1355
 6580SOL    HW125815   9.538   8.576   0.831 -0.0922 -1.5678 -2.2393
 6580SOL    HW225816   9.655   8.480   0.893 -0.1461  0.3665  0.9701
 6581SOL     OW25817   0.140   3.359   0.045 -0.1574 -0.0330  0.2721
 6581SOL    HW125818   0.041   3.349   0.056 -0.3316 -0.1823 -1.2285
 6581SOL    HW225819   0.161   3.449   0.007  0.3004  0.0640  0.7466
 6583SOL     OW25820   0.139   6.973   0.517  0.5768  0.6213  0.4232
 6583SOL    HW125821   0.151   7.072   0.510 -1.2713  0.7651 -1.1112
 6583SOL    HW225822   0.102   6.950   0.606 -0.8362  1.5167  0.0762
 6585SOL     OW25823   2.098   7.794   1.639  0.4342  0.2599 -0.2757
 6585SOL    HW125824   2.094   7.773   1.541 -0.6146 -3.0409  0.4007
 6585SOL    HW225825   2.185   7.763   1.676  0.2484  0.1836  0.1029
 6587SOL     OW25826   0.493   8.073   2.675  0.1957  0.2920 -0.0383
 6587SOL    HW125827   0.483   8.166   2.642 -1.1709 -0.0911 -0.7497
 6587SOL    HW225828   0.557   8.023   2.617  1.3954  0.9502  0.7056
 6588SOL     OW25829   1.115   2.749   0.925  0.0032 -0.0448 -0.4161
 6588SOL    HW125830   1.157   2.772   0.838  1.1800 -0.0586  0.1340
 6588SOL    HW225831   1.120   2.828   0.986  1.7372 -0.8822  0.5919
 6589SOL     OW25832   8.760   9.250   2.308  0.1390 -0.1711 -0.2411
 6589SOL    HW125833   8.825   9.200   2.366 -0.1680  0.5803  0.7459
 6589SOL    HW225834   8.718   9.324   2.360  2.5002  2.8206 -2.3728
 6590SOL     OW25835   0.841   5.532   0.003  0.3108 -0.2815 -0.1147
 6590SOL    HW125836   0.797   5.444  -0.014 -0.3330 -0.1485  0.8245
 6590SOL    HW225837   0.879   5.533   0.096  0.8393  0.2185 -0.3293
 6591SOL     OW25838   2.006   3.189   1.828  0.0212 -0.3542 -0.1443
 6591SOL    HW125839   2.069   3.149   1.761  0.5324 -0.5331  0.4354
 6591SOL    HW225840   1.947   3.255   1.782  1.1099  0.3364 -0.5652
 6592SOL     OW25841   3.695   9.375   0.884 -0.3879  0.4730  0.3535
 6592SOL    HW125842   3.615   9.398   0.940 -2.1003  0.0989 -1.8577
 6592SOL    HW225843   3.748   9.303   0.929 -2.0412 -0.2423  1.2098
 6593SOL     OW25844   8.928   4.963   1.921  0.0531 -0.0867 -0.3476
 6593SOL    HW125845   9.005   4.947   1.860  0.5463  0.1486  0.2100
 6593SOL    HW225846   8.849   4.909   1.890  1.2275 -2.4677  0.6262
 6595SOL     OW25847   0.852   4.833   1.977  0.2049 -0.1198 -0.8749
 6595SOL    HW125848   0.843   4.733   1.970  2.8646 -0.3454 -1.2714
 6595SOL    HW225849   0.919   4.866   1.912  2.3783  1.4381  2.0412
 6596SOL     OW25850   0.475   0.671   2.130 -0.8848  0.3052  0.4883
 6596SOL    HW125851   0.477   0.693   2.228  0.0482 -0.6438  0.6973
 6596SOL    HW225852   0.551   0.716   2.084 -1.9200  1.5816  0.0008
 6597SOL     OW25853   1.152   4.157   2.030  0.5550 -0.0491  0.5143
 6597SOL    HW125854   1.122   4.148   2.124  2.1945  0.7591  1.1419
 6597SOL    HW225855   1.219   4.086   2.009 -1.4709 -1.6311 -0.7616
 6599SOL     OW25856   2.509   2.959   1.425  0.2761 -0.0023 -0.0074
 6599SOL    HW125857   2.587   3.007   1.386  0.6912  0.4786  1.3560
 6599SOL    HW225858   2.425   2.989   1.381  0.6145  1.4046  0.2897
 6600SOL     OW25859   2.106   4.168   2.365 -0.1696  0.1473 -0.2094
 6600SOL    HW125860   2.038   4.192   2.435 -0.3548 -2.0074  0.3796
 6600SOL    HW225861   2.194   4.208   2.388 -0.2183 -0.6025  1.2976
 6601SOL     OW25862   8.368   9.595   2.440  0.6326  0.3409  0.4697
 6601SOL    HW125863   8.284   9.545   2.459 -0.4709  2.8802  2.5947
 6601SOL    HW225864   8.378   9.608   2.342 -2.2086  1.2006  0.2533
 6602SOL     OW25865   8.260   2.827   2.241 -0.0843 -0.0966 -0.1271
 6602SOL    HW125866   8.191   2.762   2.273  0.3436 -0.5422 -0.1049
 6602SOL    HW225867   8.266   2.904   2.305 -0.1224 -0.3612  0.1938
 6603SOL     OW25868   2.752   8.533   2.143  0.2909  0.6505 -0.0864
 6603SOL    HW125869   2.706   8.619   2.163 -1.2700 -0.2290  0.2610
 6603SOL    HW225870   2.834   8.524   2.201 -1.3061  0.4862  2.2390
 6604SOL     OW25871   3.582   0.773   0.453  0.1746 -0.0618  0.0659
 6604SOL    HW125872   3.621   0.786   0.543  1.4463  0.8965 -0.6168
 6604SOL    HW225873   3.643   0.810   0.383 -0.9241 -0.5145 -1.1787
 6605SOL     OW25874   3.394   7.798   2.200  0.2022  0.0335 -0.3319
 6605SOL    HW125875   3.306   7.779   2.243 -0.9343  0.5880 -2.3511
 6605SOL    HW225876   3.460   7.729   2.227 -0.7926 -0.2733  1.3796
 6606SOL     OW25877   3.614   2.995   2.297  0.6330  0.3777  0.0622
 6606SOL    HW125878   3.669   3.002   2.381 -1.5178  1.3688  1.4190
 6606SOL    HW225879   3.613   2.900   2.266  0.2691 -0.2763  1.9889
 6607SOL     OW25880   8.541   8.237   0.704  0.3378  0.7823  0.2910
 6607SOL    HW125881   8.613   8.179   0.666  0.1185  0.9224 -0.3627
 6607SOL    HW225882   8.489   8.187   0.772  0.4901  0.3899  0.1197
 6610SOL     OW25883   8.101   0.674   0.197  0.1191  0.1254 -0.3418
 6610SOL    HW125884   8.156   0.602   0.154  0.5609  0.3928 -0.2247
 6610SOL    HW225885   8.005   0.646   0.198  0.1502 -0.0227 -1.2058
 6611SOL     OW25886   9.180   9.389   1.505 -0.2518 -0.5668  0.6167
 6611SOL    HW125887   9.276   9.416   1.495 -0.4491 -0.7444 -1.9004
 6611SOL    HW225888   9.140   9.370   1.415 -2.6024 -0.6993  1.6437
 6612SOL     OW25889   8.824   3.703   0.804 -0.3799 -0.5874  0.2475
 6612SOL    HW125890   8.880   3.752   0.871  0.2477 -0.1848 -0.5591
 6612SOL    HW225891   8.737   3.678   0.845  0.2649 -0.9266  1.4160
 6613SOL     OW25892   2.350   5.930   2.141 -0.0114  0.0599  0.5284
 6613SOL    HW125893   2.328   5.963   2.050  1.9561 -0.7668 -0.2607
 6613SOL    HW225894   2.386   6.005   2.196 -0.5931  0.4182  0.4144
 6614SOL     OW25895   9.028   4.293   2.550  0.1991 -0.0689 -0.3109
 6614SOL    HW125896   9.126   4.293   2.533  0.3933  0.4110  0.8038
 6614SOL    HW225897   8.980   4.265   2.466  1.2813 -0.4489 -0.8094
 6615SOL     OW25898   3.866   5.379   0.989 -0.1929  0.1713 -0.3233
 6615SOL    HW125899   3.771   5.408   0.987 -0.3488 -0.2718  0.6586
 6615SOL    HW225900   3.900   5.370   0.895 -1.1645  0.1466 -0.6765
 6616SOL     OW25901   8.725   4.999   0.025 -0.1313  0.4515  0.0229
 6616SOL    HW125902   8.730   5.015  -0.074 -0.8132  3.0223  0.3849
 6616SOL    HW225903   8.817   4.994   0.063  0.1146  0.8851 -0.5199
 6617SOL     OW25904   1.229   3.517   2.637 -0.0379 -0.6101  0.5117
 6617SOL    HW125905   1.149   3.525   2.576  0.3504 -1.5897 -0.1414
 6617SOL    HW225906   1.223   3.432   2.688  1.6111 -1.6861 -1.0383
 6618SOL     OW25907   3.983   1.275   1.563 -0.3043  0.0794 -0.1591
 6618SOL    HW125908   4.037   1.359   1.569 -0.4684  0.2124 -0.5760
 6618SOL    HW225909   4.014   1.211   1.634  0.1616  0.2928 -0.1676
 6619SOL     OW25910   2.643   9.044   1.009 -0.0107  0.5468 -0.4556
 6619SOL    HW125911   2.571   9.062   1.077 -1.5737  0.2904 -2.0126
 6619SOL    HW225912   2.706   9.122   1.007 -0.1992  0.7557  0.9654
 6620SOL     OW25913   9.598   9.992   1.500  0.1157  0.5970  0.1096
 6620SOL    HW125914   9.590   9.919   1.433  1.0335  0.0937  0.5332
 6620SOL    HW225915   9.671  10.055   1.473 -0.3797  1.1154 -0.0299
 6621SOL     OW25916   8.632   1.897   2.595 -0.2473  0.4678  0.4826
 6621SOL    HW125917   8.646   1.988   2.634 -1.6125  1.7954 -2.0614
 6621SOL    HW225918   8.719   1.846   2.598  0.3761  1.5554  2.5140
 6622SOL     OW25919   9.355   7.729   2.402 -0.3250  0.3227  0.3927
 6622SOL    HW125920   9.372   7.631   2.412  1.0206  0.5049 -0.0071
 6622SOL    HW225921   9.364   7.755   2.306  1.0475  1.1372  0.7227
 6623SOL     OW25922   0.206   5.914   0.840 -0.5085 -0.0407  0.0758
 6623SOL    HW125923   0.155   5.858   0.774 -1.1787  0.8945 -0.2166
 6623SOL    HW225924   0.198   6.010   0.815 -1.6762  0.4328  2.1276
 6625SOL     OW25925   0.433   2.150   0.832  0.4817  0.1766  0.1241
 6625SOL    HW125926   0.487   2.232   0.811  0.0247  0.4725  0.0902
 6625SOL    HW225927   0.340   2.162   0.797  0.2754 -0.1504  0.5565
 6628SOL     OW25928   5.467   9.056   1.897  0.4870 -0.7750 -0.5791
 6628SOL    HW125929   5.510   9.046   1.808  1.5906  0.2786 -0.1855
 6628SOL    HW225930   5.523   9.118   1.954 -0.9469 -0.3048  0.3342
 6629SOL     OW25931   8.709   7.803   0.544  0.2535  0.3279 -0.0944
 6629SOL    HW125932   8.655   7.792   0.461  0.0876  0.8779 -0.0658
 6629SOL    HW225933   8.673   7.742   0.615  1.8094 -1.7517 -1.0918
 6630SOL     OW25934   4.769   1.927   1.521 -0.0042  0.6302 -0.5145
 6630SOL    HW125935   4.745   1.899   1.428  1.6137  1.3195 -1.1509
 6630SOL    HW225936   4.715   2.007   1.547  0.4047  1.1725 -1.3231
 6631SOL     OW25937   2.594   4.289   0.365 -1.1272  0.0456  0.0543
 6631SOL    HW125938   2.617   4.207   0.312 -0.3242  0.6678 -0.5851
 6631SOL    HW225939   2.608   4.370   0.308 -0.4208  0.7123  1.1588
 6632SOL     OW25940   0.296   3.967   0.891 -0.0696 -0.4070  0.1638
 6632SOL    HW125941   0.345   4.035   0.947 -0.4946 -0.0350  0.0854
 6632SOL    HW225942   0.253   4.012   0.813 -0.1069 -0.8152 -0.0547
 6633SOL     OW25943   8.980   4.585   1.224 -0.4418  0.0181  0.1870
 6633SOL    HW125944   8.909   4.651   1.200 -1.9625 -2.2415 -1.8178
 6633SOL    HW225945   8.947   4.525   1.297  1.1943  1.8322  2.4934
 6634SOL     OW25946   1.593   8.764   2.106  0.2415 -0.2276 -0.5572
 6634SOL    HW125947   1.506   8.810   2.093  1.3028  1.2937 -2.6005
 6634SOL    HW225948   1.605   8.694   2.035  0.8226 -0.2026 -0.4857
 6635SOL     OW25949   4.947   0.245   2.306  0.0593 -0.0249 -0.4366
 6635SOL    HW125950   4.889   0.289   2.374 -0.3512 -2.6874  0.9990
 6635SOL    HW225951   5.037   0.288   2.307  0.2256 -0.3421  2.1846
 6636SOL     OW25952   1.407   6.046   1.217  0.1019 -0.4317 -0.3129
 6636SOL    HW125953   1.456   5.993   1.147  1.1817 -0.2491  0.2968
 6636SOL    HW225954   1.349   5.985   1.271  1.5699 -1.0656  0.5815
 6637SOL     OW25955   3.305   2.963   2.585 -0.5930 -0.7045  0.1488
 6637SOL    HW125956   3.252   2.879   2.586 -0.9252 -0.4984  0.9096
 6637SOL    HW225957   3.262   3.030   2.646 -0.6562  0.2153 -0.8981
 6638SOL     OW25958   3.333   2.159   0.164  0.2037  0.1483 -0.6650
 6638SOL    HW125959   3.386   2.163   0.079 -2.5171 -1.2156 -2.4874
 6638SOL    HW225960   3.308   2.252   0.192  0.4991  0.5619 -1.7426
 6639SOL     OW25961   4.493   3.053   0.936 -0.4277 -0.1903  0.4378
 6639SOL    HW125962   4.505   2.964   0.979  0.6345 -0.2440  0.0549
 6639SOL    HW225963   4.455   3.117   1.003  0.5067 -0.4661  1.2615
 6641SOL     OW25964   8.079   0.433   1.528  0.1986  0.1984  0.2558
 6641SOL    HW125965   8.136   0.499   1.577 -1.0170 -0.1192  2.1397
 6641SOL    HW225966   8.131   0.395   1.452  1.5338  1.9818  0.2317
 6642SOL     OW25967   8.806   6.053   1.442 -0.1154 -0.6313 -0.3413
 6642SOL    HW125968   8.881   6.014   1.388  0.0621 -2.0128  0.8573
 6642SOL    HW225969   8.838   6.068   1.535 -1.8277 -2.9850  0.6754
 6643SOL     OW25970   2.566   0.278   2.051 -0.1997  0.0941  0.5969
 6643SOL    HW125971   2.533   0.184   2.055 -0.2924  0.1826  2.2403
 6643SOL    HW225972   2.642   0.284   1.987 -0.5927 -0.9638  0.0165
 6645SOL     OW25973   4.110   9.975   2.664 -0.0332  0.4495  0.5667
 6645SOL    HW125974   4.069   9.888   2.688 -0.2968  0.4508  0.1229
 6645SOL    HW225975   4.113   9.985   2.564 -0.9161  1.3730  0.6196
 6646SOL     OW25976   0.749   3.088   1.424  0.4023  0.1631 -0.0709
 6646SOL    HW125977   0.685   3.064   1.497  0.3439  0.0620 -0.1559
 6646SOL    HW225978   0.822   3.020   1.420 -0.3319 -0.5688 -1.0011
 6647SOL     OW25979   4.001   5.293   1.240 -0.4544  0.2959  0.2699
 6647SOL    HW125980   3.986   5.348   1.157  1.2928  1.8178  0.9415
 6647SOL    HW225981   3.925   5.309   1.303 -0.3372  1.3643  0.1499
 6648SOL     OW25982   8.545   6.886   1.580  0.0847  0.0745  0.4094
 6648SOL    HW125983   8.591   6.818   1.524 -0.1440 -0.1067  0.4394
 6648SOL    HW225984   8.529   6.849   1.672  0.2864  0.3001  0.5353
 6650SOL     OW25985   1.903   9.839   2.468 -0.1604  0.2795 -0.1162
 6650SOL    HW125986   1.871   9.921   2.420  1.1967  0.6587 -0.3898
 6650SOL    HW225987   2.000   9.848   2.489 -0.0920 -1.0942  0.2221
 6651SOL     OW25988   2.882   8.171   0.716 -0.1323 -0.0948  0.6245
 6651SOL    HW125989   2.880   8.140   0.621  0.4048  1.0182  0.2488
 6651SOL    HW225990   2.976   8.170   0.749 -0.2400  0.1872  0.9374
 6652SOL     OW25991   0.743   9.005   2.595 -0.0716 -0.2172 -0.4534
 6652SOL    HW125992   0.691   8.919   2.602 -1.0966  0.3729 -0.7676
 6652SOL    HW225993   0.838   8.984   2.576 -0.2378 -1.3102 -0.1171
 6653SOL     OW25994   4.403   8.630   1.365  0.1010  0.2503  0.7881
 6653SOL    HW125995   4.400   8.729   1.379  0.7832  0.4886 -0.6008
 6653SOL    HW225996   4.497   8.602   1.343 -0.1883 -0.6159  0.6070
 6654SOL     OW25997   3.393   8.273   2.086 -0.0886  0.2201 -0.1150
 6654SOL    HW125998   3.414   8.192   2.031 -0.8381  0.2089 -0.3902
 6654SOL    HW225999   3.314   8.320   2.047 -0.7956  0.0611  1.1042
 6655SOL     OW26000   2.020   8.829   0.222  0.5916  0.1381  0.1033
 6655SOL    HW126001   2.090   8.809   0.153  1.7661  0.5798  1.1610
 6655SOL    HW226002   1.981   8.919   0.204 -0.2751 -0.4268 -0.9449
 6656SOL     OW26003   9.324   6.347   0.328  0.1576 -0.0409 -0.1636
 6656SOL    HW126004   9.258   6.273   0.312 -0.3986  0.4888 -0.3278
 6656SOL    HW226005   9.410   6.324   0.283  0.0292 -0.6492 -0.1131
 6657SOL     OW26006   0.226   1.678   0.633 -0.1481 -0.2522 -0.1179
 6657SOL    HW126007   0.299   1.705   0.571  0.0235  1.6183  0.8625
 6657SOL    HW226008   0.172   1.604   0.591  0.0295  0.8781 -2.4163
 6659SOL     OW26009   4.905   2.304   1.773  0.5166 -0.1587  0.0363
 6659SOL    HW126010   4.927   2.398   1.799 -0.3771  0.0496  0.0320
 6659SOL    HW226011   4.888   2.300   1.674  1.7534 -0.5503 -0.1658
 6660SOL     OW26012   2.715   8.478   1.630 -0.6964  0.2067 -0.7587
 6660SOL    HW126013   2.726   8.393   1.681  1.8174 -0.2018 -1.8822
 6660SOL    HW226014   2.657   8.461   1.550 -0.5678 -0.3313 -0.7410
 6661SOL     OW26015   1.244   5.565   1.667 -0.1620  0.1000  0.2196
 6661SOL    HW126016   1.339   5.553   1.637  0.0045  1.0581  0.3646
 6661SOL    HW226017   1.197   5.476   1.664 -0.0007  0.0677 -2.3092
 6662SOL     OW26018   2.508   5.834   0.769  0.0836  0.0233  0.5737
 6662SOL    HW126019   2.568   5.895   0.821 -0.9272  0.0484  1.7332
 6662SOL    HW226020   2.546   5.819   0.678  0.4737  2.1953  0.3480
 6663SOL     OW26021   3.137   2.631   2.149  0.0638  0.5420  0.8108
 6663SOL    HW126022   3.203   2.617   2.075 -0.6188  0.8473  0.1463
 6663SOL    HW226023   3.044   2.628   2.113 -0.4712 -3.0024  2.2030
 6664SOL     OW26024   3.992   9.222   1.744  0.7822  0.0216  0.4121
 6664SOL    HW126025   3.898   9.189   1.756  0.6259 -0.4832 -1.9753
 6664SOL    HW226026   3.996   9.320   1.762 -0.4995  0.3173 -0.8097
 6665SOL     OW26027   9.483   3.635   1.978 -0.4404 -1.3154 -0.5414
 6665SOL    HW126028   9.549   3.676   2.041 -0.5816 -0.4293 -0.9549
 6665SOL    HW226029   9.502   3.666   1.885 -1.8480 -0.4943 -0.5749
 6666SOL     OW26030   1.735   4.304   1.044 -0.5406 -0.1408  0.0985
 6666SOL    HW126031   1.823   4.331   1.006 -0.6867 -1.0062 -0.8677
 6666SOL    HW226032   1.684   4.385   1.072 -0.0787  0.4453 -0.7609
 6667SOL     OW26033   3.362   0.160   1.263 -0.1502  0.6956 -0.3828
 6667SOL    HW126034   3.454   0.155   1.224  1.3006 -0.5804  2.9958
 6667SOL    HW226035   3.318   0.071   1.256 -0.4151  0.8287 -0.3866
 6668SOL     OW26036   2.494   1.165   1.067  0.2759 -0.0113 -0.2564
 6668SOL    HW126037   2.448   1.104   1.131 -1.6814  0.5667 -1.0782
 6668SOL    HW226038   2.593   1.150   1.072 -0.0408 -1.8708  0.9279
 6670SOL     OW26039   3.405   2.060   0.876  0.7696  0.7052 -0.0366
 6670SOL    HW126040   3.408   2.074   0.777 -0.6618  0.8431 -0.0760
 6670SOL    HW226041   3.439   1.969   0.898 -0.0913  0.1976 -0.7787
 6671SOL     OW26042   8.213   0.174   2.470  0.2843 -0.4149 -0.0867
 6671SOL    HW126043   8.271   0.253   2.454 -0.7556  0.6622  1.4299
 6671SOL    HW226044   8.238   0.130   2.556 -1.6904  0.5652  1.0066
 6672SOL     OW26045   7.735   9.478   1.371  0.6326 -0.1159  0.5080
 6672SOL    HW126046   7.796   9.556   1.385 -0.4881  0.6759  1.1672
 6672SOL    HW226047   7.660   9.506   1.311 -0.0565 -0.5301  1.1618
 6673SOL     OW26048   4.119   2.010   2.201 -0.0352  0.0863  0.1796
 6673SOL    HW126049   4.103   1.949   2.123 -0.1221  0.0772  0.2043
 6673SOL    HW226050   4.122   2.105   2.168 -0.1306  0.0870  0.1740
 6674SOL     OW26051   3.428   7.191   1.885 -0.2407 -0.5542 -0.4618
 6674SOL    HW126052   3.412   7.190   1.787  2.0812  0.2533 -0.8895
 6674SOL    HW226053   3.435   7.097   1.919  0.6314 -0.8354 -1.3878
 6675SOL     OW26054   4.431   3.277   2.238 -0.0450  0.8398  0.2894
 6675SOL    HW126055   4.462   3.260   2.332  0.9525  0.4981 -0.0921
 6675SOL    HW226056   4.509   3.309   2.183 -0.1829 -0.8368 -0.9010
 6676SOL     OW26057   8.367   2.561   0.710 -0.0887 -0.3891 -0.0876
 6676SOL    HW126058   8.401   2.557   0.616 -0.9542 -1.0274 -0.3805
 6676SOL    HW226059   8.438   2.597   0.770  0.4215  0.1587 -1.0147
 6677SOL     OW26060   2.778   6.440   1.525 -0.2657 -0.6022 -0.6125
 6677SOL    HW126061   2.856   6.449   1.463 -0.3572  1.3140 -0.4942
 6677SOL    HW226062   2.775   6.348   1.563  1.3997 -0.9649 -1.3381
 6678SOL     OW26063   0.772   3.342   0.085 -0.3689 -0.2521 -0.1908
 6678SOL    HW126064   0.739   3.313   0.174 -1.9692  2.5336  0.1688
 6678SOL    HW226065   0.843   3.279   0.054  2.1694  0.2284  4.2632
 6679SOL     OW26066   1.494   2.854   1.393 -0.0364  0.1703  0.0116
 6679SOL    HW126067   1.502   2.883   1.297 -1.9870  0.2635 -0.1364
 6679SOL    HW226068   1.521   2.929   1.453  1.0393  0.1676 -0.4547
 6682SOL     OW26069   0.628   3.998   2.284  0.1998 -0.2977 -0.1055
 6682SOL    HW126070   0.625   4.069   2.214  1.6792 -0.9616 -0.8610
 6682SOL    HW226071   0.688   3.924   2.255 -1.5020 -2.0089  0.5656
 6686SOL     OW26072   2.104   6.678   1.459 -0.4323 -0.4756  0.0001
 6686SOL    HW126073   2.138   6.618   1.532  2.3391  2.4444  1.2066
 6686SOL    HW226074   2.156   6.660   1.375  2.2550  1.9158  1.0556
 6687SOL     OW26075   3.696   9.422   2.713  0.2860 -0.7868  0.1733
 6687SOL    HW126076   3.658   9.444   2.623 -1.1295 -0.1900  0.8934
 6687SOL    HW226077   3.675   9.327   2.736  1.9101 -1.3805 -0.7321
 6688SOL     OW26078   1.540   4.429   2.414 -0.2645  0.5052  0.1799
 6688SOL    HW126079   1.560   4.520   2.452  2.0394  0.4259 -0.8246
 6688SOL    HW226080   1.620   4.371   2.423 -1.4545 -1.1903  0.0126
 6689SOL     OW26081   2.932   8.698   0.957  0.2920 -0.0966  0.1155
 6689SOL    HW126082   3.016   8.748   0.977  1.0733 -0.5352 -1.9946
 6689SOL    HW226083   2.873   8.752   0.898  0.6632 -1.2115 -1.2979
 6690SOL     OW26084   1.161   1.526   0.809  0.4891  0.3754 -0.3071
 6690SOL    HW126085   1.180   1.615   0.852  0.1740  0.7531 -0.9444
 6690SOL    HW226086   1.062   1.518   0.793  0.5079 -0.1266 -0.1792
 6691SOL     OW26087   8.519   4.086   1.156  0.2673  0.4370 -0.0236
 6691SOL    HW126088   8.614   4.057   1.146  0.2668  1.0478 -1.9745
 6691SOL    HW226089   8.512   4.185   1.142 -0.3285  0.7884  2.4736
 6692SOL     OW26090   9.769   1.420   2.153 -0.3373  0.4876 -1.3332
 6692SOL    HW126091   9.840   1.423   2.224 -1.3816 -0.1215 -0.2550
 6692SOL    HW226092   9.721   1.508   2.150  0.3123  0.8278 -1.9198
 6693SOL     OW26093   9.445   6.457   1.791 -0.0708  0.3495 -0.1504
 6693SOL    HW126094   9.348   6.456   1.768  0.0023 -1.8603 -0.4300
 6693SOL    HW226095   9.498   6.478   1.708 -0.2119 -0.3127 -0.4113
 6695SOL     OW26096   4.154   9.109   0.515 -0.1334  0.1234  0.2643
 6695SOL    HW126097   4.084   9.168   0.555 -0.0676  1.2442 -1.2544
 6695SOL    HW226098   4.241   9.158   0.511  0.5240 -0.9375  1.2600
 6697SOL     OW26099   9.280   2.931   0.774  0.1002 -0.1799 -0.2125
 6697SOL    HW126100   9.208   2.941   0.706 -0.9142  2.0592  1.0925
 6697SOL    HW226101   9.264   2.849   0.829 -1.5723  0.3782  0.1638
 6698SOL     OW26102   3.163   4.700   0.010  0.1070  0.7819  0.2671
 6698SOL    HW126103   3.107   4.686   0.092 -1.1332 -1.0009 -0.8580
 6698SOL    HW226104   3.230   4.626   0.003 -1.4285 -0.4819 -1.6249
 6701SOL     OW26105   7.768   1.578   0.126 -0.0965 -0.1916 -0.3615
 6701SOL    HW126106   7.754   1.575   0.225 -0.8529  1.1126 -0.4281
 6701SOL    HW226107   7.718   1.655   0.087  2.1778  0.7881 -1.4433
 6702SOL     OW26108   6.952   8.877   2.319 -0.8650 -0.1719 -0.2635
 6702SOL    HW126109   6.973   8.918   2.230  3.5963 -2.7111 -0.4888
 6702SOL    HW226110   6.885   8.804   2.306 -0.1505 -0.6168 -1.5945
 6703SOL     OW26111   4.516   8.246   2.165 -0.4770  0.0121  0.4056
 6703SOL    HW126112   4.577   8.171   2.138 -0.1920  0.3828  0.0082
 6703SOL    HW226113   4.428   8.209   2.194 -0.9326 -0.3859 -1.4200
 6704SOL     OW26114   2.349   1.969   1.405  0.0016  0.3283 -0.3994
 6704SOL    HW126115   2.326   1.930   1.493 -0.3309 -0.2939 -0.7621
 6704SOL    HW226116   2.449   1.968   1.393  0.0681  0.6776  0.0794
 6705SOL     OW26117   0.798   7.948   1.138  0.1813  0.1524  0.1526
 6705SOL    HW126118   0.820   7.851   1.152 -0.7220 -0.2171 -0.9090
 6705SOL    HW226119   0.708   7.968   1.177  0.9369  0.8815  1.5416
 6706SOL     OW26120   4.118   8.262   2.500  0.6263  0.0645 -0.3663
 6706SOL    HW126121   4.117   8.222   2.592  3.1451 -1.0959 -0.8033
 6706SOL    HW226122   4.076   8.353   2.503 -0.3665 -0.4207  1.6885
 6707SOL     OW26123   3.560   9.202   0.671 -0.7795  0.3910 -0.1842
 6707SOL    HW126124   3.540   9.156   0.758 -0.9067  0.5137 -0.1498
 6707SOL    HW226125   3.624   9.277   0.687 -0.6305  0.2747 -0.2301
 6708SOL     OW26126   1.804   7.176   1.823 -0.1022  0.7061 -0.1630
 6708SOL    HW126127   1.777   7.161   1.918 -1.4919  1.9794 -0.3308
 6708SOL    HW226128   1.837   7.270   1.813 -0.6146  0.7929 -1.0765
 6709SOL     OW26129   8.786   7.205   2.204  0.2412  0.0584 -0.2126
 6709SOL    HW126130   8.883   7.227   2.214  0.1516 -0.2643  1.4573
 6709SOL    HW226131   8.735   7.288   2.183  0.8278  0.2780 -0.7991
 6710SOL     OW26132   0.858   3.868   0.271 -0.2008  0.1685  0.0361
 6710SOL    HW126133   0.873   3.786   0.215 -0.1330 -1.5564  2.5137
 6710SOL    HW226134   0.946   3.908   0.295 -0.1382 -0.4277  0.8181
 6711SOL     OW26135   4.807   9.899   1.671 -0.2285 -0.0338  0.1716
 6711SOL    HW126136   4.779   9.923   1.764 -1.1960  0.2255 -0.1784
 6711SOL    HW226137   4.891   9.845   1.674  0.2915  0.8202  1.1410
 6712SOL     OW26138   1.085   8.406   0.425 -0.1762 -0.6782  0.2424
 6712SOL    HW126139   1.085   8.323   0.480 -1.5528  0.5365  2.1085
 6712SOL    HW226140   1.119   8.483   0.479 -1.8720  0.6055 -0.4422
 6713SOL     OW26141   4.127   3.568   1.310  0.3343  0.3043  0.4936
 6713SOL    HW126142   4.126   3.496   1.379  2.3870 -0.2679 -0.0229
 6713SOL    HW226143   4.081   3.535   1.227 -0.9382  0.4974  1.1323
 6714SOL     OW26144   0.700   9.553   1.325 -0.1189 -0.4723  0.4117
 6714SOL    HW126145   0.786   9.557   1.377  0.3132  0.6426 -0.3414
 6714SOL    HW226146   0.647   9.474   1.353  0.6496 -0.5458  1.6976
 6715SOL     OW26147   1.262   2.404   2.304  0.0641  0.5958 -0.4308
 6715SOL    HW126148   1.280   2.381   2.209  1.4571 -0.3711  0.0459
 6715SOL    HW226149   1.310   2.339   2.364  1.0497  2.5166  0.9352
 6716SOL     OW26150   3.294   4.965   1.506 -0.4238  0.1496  0.3599
 6716SOL    HW126151   3.386   4.928   1.492 -0.8023 -0.1233 -1.5317
 6716SOL    HW226152   3.239   4.899   1.558  0.1090 -0.1740  0.5121
 6717SOL     OW26153   3.400   6.136   0.118 -0.6251  0.4295  0.6220
 6717SOL    HW126154   3.355   6.051   0.090 -1.3453  0.6957  0.9553
 6717SOL    HW226155   3.332   6.199   0.155  0.1951  0.3993  2.2181
 6718SOL     OW26156   4.723   3.954   0.709 -0.5889  0.2670  0.4553
 6718SOL    HW126157   4.788   3.879   0.720 -0.2059  0.6661  0.9463
 6718SOL    HW226158   4.733   4.018   0.785 -0.2183  1.3308 -0.4690
 6719SOL     OW26159   9.540   3.749   1.721 -0.4484  0.4860 -0.2519
 6719SOL    HW126160   9.639   3.767   1.717 -0.5087  1.3227  1.2774
 6719SOL    HW226161   9.520   3.664   1.673  1.0719  0.1335 -0.3124
 6720SOL     OW26162   3.044   5.058   2.075 -0.3370  0.4361 -0.3450
 6720SOL    HW126163   3.105   5.056   2.154  0.3443  0.8159 -0.8562
 6720SOL    HW226164   2.968   5.120   2.092 -0.8292 -0.3671  0.4685
 6721SOL     OW26165   0.981   0.215   0.287 -0.2456 -0.3863  0.2157
 6721SOL    HW126166   1.022   0.284   0.347 -0.7273  1.2643 -1.2914
 6721SOL    HW226167   1.045   0.193   0.213 -1.5439  1.3400 -1.4856
 6723SOL     OW26168   7.844   9.797   2.407  0.4372 -0.0312  0.1700
 6723SOL    HW126169   7.799   9.713   2.437  1.1243 -0.4926 -0.0689
 6723SOL    HW226170   7.796   9.877   2.445 -1.2064 -0.4652 -0.8912
 6724SOL     OW26171   3.140   3.780   0.002 -0.3003 -0.4934  0.2001
 6724SOL    HW126172   3.097   3.755  -0.085 -0.2688 -1.7306  0.5382
 6724SOL    HW226173   3.144   3.700   0.061 -0.7188  0.4559  1.5190
 6725SOL     OW26174   2.725   4.337   0.921 -0.1095  0.6986  0.1415
 6725SOL    HW126175   2.701   4.271   0.850 -1.1621  0.0566  1.0707
 6725SOL    HW226176   2.650   4.343   0.987 -0.7108  3.9787 -0.7721
 6726SOL     OW26177   9.065   3.052   1.629 -0.4936 -0.2435 -0.2177
 6726SOL    HW126178   9.021   3.120   1.571 -1.3264 -1.2077 -0.7327
 6726SOL    HW226179   9.153   3.026   1.589 -1.0593 -0.9011 -1.0559
 6728SOL     OW26180   3.643   5.242   1.731  0.0076 -0.6144  0.0118
 6728SOL    HW126181   3.610   5.282   1.645  1.8710  1.1891  0.1113
 6728SOL    HW226182   3.570   5.189   1.773 -1.1352 -1.0035 -2.3696
 6729SOL     OW26183   3.872   0.599   0.813 -0.4263 -0.0795 -0.2248
 6729SOL    HW126184   3.842   0.527   0.876  0.1650 -0.2531 -0.1451
 6729SOL    HW226185   3.908   0.558   0.730 -0.0261  0.1221 -0.1510
 6730SOL     OW26186   1.122   8.886   2.222  0.3907 -0.0618  0.6455
 6730SOL    HW126187   1.090   8.880   2.127 -0.2630  0.6371  0.8233
 6730SOL    HW226188   1.092   8.806   2.273  1.1297 -0.6636  0.1472
 6732SOL     OW26189   9.854   9.906   1.623  0.3076  0.3005  0.6604
 6732SOL    HW126190   9.916   9.922   1.547  2.4429 -0.4665  2.1844
 6732SOL    HW226191   9.773   9.963   1.613  1.0462  0.9975 -1.6043
 6733SOL     OW26192   3.302   2.281   1.011  0.3203 -0.4469 -0.3925
 6733SOL    HW126193   3.333   2.199   0.962  1.4264 -0.9854  1.1604
 6733SOL    HW226194   3.382   2.329   1.049 -0.3506  1.1104 -0.9062
 6734SOL     OW26195   2.449   7.680   2.003  0.1410 -0.1061 -0.2401
 6734SOL    HW126196   2.469   7.776   2.024  3.3479 -0.1518 -2.8042
 6734SOL    HW226197   2.528   7.637   1.960 -1.7754 -3.5102 -0.6012
 6735SOL     OW26198   1.354   1.794   0.884 -0.2320 -0.1370  0.1169
 6735SOL    HW126199   1.446   1.824   0.910 -0.6329  0.1578  1.2315
 6735SOL    HW226200   1.350   1.780   0.785  2.0434 -3.7983  0.4744
 6736SOL     OW26201   8.993   4.614   0.033 -0.2459  0.3045  0.3866
 6736SOL    HW126202   8.926   4.618   0.108 -1.2996  0.6166 -0.5628
 6736SOL    HW226203   9.001   4.705  -0.008 -1.2534 -0.3357 -1.2523
 6737SOL     OW26204   2.967   3.270   1.118 -0.4037  0.4404  0.1379
 6737SOL    HW126205   2.956   3.192   1.180 -0.8227  0.4729  0.1042
 6737SOL    HW226206   2.990   3.237   1.027 -0.2931  0.3679  0.1927
 6739SOL     OW26207   0.640   6.496   0.497 -0.1435  0.2323 -0.0486
 6739SOL    HW126208   0.723   6.547   0.517 -0.0670 -0.1891  0.7493
 6739SOL    HW226209   0.643   6.464   0.403  1.1931 -0.8609  0.3413
 6740SOL     OW26210   3.312   4.173   0.859 -0.1491 -0.1478 -0.6492
 6740SOL    HW126211   3.363   4.120   0.791  1.6229  1.1693 -0.3866
 6740SOL    HW226212   3.297   4.265   0.824 -0.8957 -0.0243 -0.0114
 6741SOL     OW26213   2.322   4.987   0.864 -0.1979  0.5227  0.0452
 6741SOL    HW126214   2.420   4.989   0.883 -0.2960 -0.2072  0.6678
 6741SOL    HW226215   2.272   4.964   0.948 -0.7238 -1.5849 -0.8199
 6742SOL     OW26216   9.492   9.169   0.154 -0.1128 -0.2584 -0.4427
 6742SOL    HW126217   9.557   9.130   0.219  1.7614  1.6003 -1.1451
 6742SOL    HW226218   9.427   9.098   0.125  0.4831 -1.6955  1.6240
 6743SOL     OW26219   1.862   6.738   0.823  0.9789  0.1338 -0.5402
 6743SOL    HW126220   1.846   6.639   0.818  0.5866  0.2613 -2.3133
 6743SOL    HW226221   1.778   6.786   0.799  0.9338  0.9227  1.1436
 6746SOL     OW26222   8.829   8.720   1.632  0.5336  0.0144  0.4021
 6746SOL    HW126223   8.730   8.736   1.635  0.2538 -0.9135 -2.3056
 6746SOL    HW226224   8.866   8.762   1.549  2.4021  0.1860  1.3075
 6748SOL     OW26225   2.435   7.884   2.480  0.1345 -0.0114 -0.3469
 6748SOL    HW126226   2.455   7.793   2.517  0.7493 -0.2792 -1.3148
 6748SOL    HW226227   2.520   7.936   2.473 -0.3174  0.8852  0.8505
 6749SOL     OW26228   8.604   3.377   1.684 -0.1064 -0.1749  0.1648
 6749SOL    HW126229   8.636   3.282   1.674 -2.0126 -0.9738  1.4768
 6749SOL    HW226230   8.671   3.439   1.642  1.3437 -2.0662 -0.3858
 6750SOL     OW26231   7.718   9.642   2.168 -0.2917  0.1055  0.0313
 6750SOL    HW126232   7.634   9.654   2.221 -0.4050  2.6626 -0.6600
 6750SOL    HW226233   7.703   9.671   2.074  1.4192  0.7802 -0.0521
 6751SOL     OW26234   9.890   0.409   1.512 -0.0564 -0.9334 -0.4831
 6751SOL    HW126235   9.943   0.370   1.587 -1.2548  0.5473  1.1955
 6751SOL    HW226236   9.835   0.485   1.547 -0.7114 -0.2745 -2.8615
 6752SOL     OW26237   2.170   9.875   2.500  0.0260 -0.3105 -0.1246
 6752SOL    HW126238   2.216   9.932   2.432  1.0920 -0.3063  0.5988
 6752SOL    HW226239   2.177   9.918   2.590 -0.0985 -1.0491  0.2431
 6753SOL     OW26240   8.718   6.729   1.455 -0.1290 -0.3711 -0.1645
 6753SOL    HW126241   8.797   6.707   1.512 -1.3545 -0.7683  1.4021
 6753SOL    HW226242   8.749   6.749   1.362  1.7952 -0.6712  0.3903
 6754SOL     OW26243   0.252   9.694   1.461  0.5682 -0.0995  0.0253
 6754SOL    HW126244   0.280   9.692   1.557 -0.2107 -1.4808  0.2193
 6754SOL    HW226245   0.272   9.606   1.418 -2.2193 -0.6591 -0.1913
 6755SOL     OW26246   9.042   7.591   0.795 -0.3630  0.0965 -0.8585
 6755SOL    HW126247   9.137   7.621   0.807 -0.0049 -1.5604  0.5503
 6755SOL    HW226248   8.982   7.645   0.854  0.1879 -1.3790  1.1071
 6756SOL     OW26249   0.408   7.080   0.963  0.0153  0.8148 -0.0479
 6756SOL    HW126250   0.351   7.113   1.039 -0.1066  3.3185 -1.1989
 6756SOL    HW226251   0.393   7.137   0.882  0.7806 -1.3055 -1.7316
 6757SOL     OW26252   8.600   9.221   0.597  0.1776 -0.5161  0.4548
 6757SOL    HW126253   8.512   9.224   0.551  0.5246 -1.7323 -0.3111
 6757SOL    HW226254   8.601   9.147   0.664  1.6386 -2.5174 -1.7052
 6758SOL     OW26255   4.550   8.777   0.103  0.1471  0.2035  0.3751
 6758SOL    HW126256   4.522   8.757   0.197 -3.2568  0.8948 -0.4070
 6758SOL    HW226257   4.540   8.695   0.048 -0.3865  0.4602  0.0850
 6759SOL     OW26258   9.495   0.471   0.796  0.1871  0.1301  0.6808
 6759SOL    HW126259   9.420   0.457   0.731  0.8052  0.4512 -0.0975
 6759SOL    HW226260   9.487   0.405   0.870 -0.3633 -0.4114  0.1405
 6760SOL     OW26261   0.900   4.392   2.127  0.8719 -0.1159 -0.0584
 6760SOL    HW126262   0.805   4.366   2.109  1.2561 -0.6995 -1.2692
 6760SOL    HW226263   0.938   4.334   2.200 -0.3427  1.5204  1.9338
 6761SOL     OW26264   4.251   2.113   0.471 -0.3184 -0.0899 -0.0359
 6761SOL    HW126265   4.190   2.157   0.405  0.8703  1.4914 -0.1249
 6761SOL    HW226266   4.321   2.179   0.500  0.7502 -1.5697  0.8109
 6763SOL     OW26267   9.713   7.756   2.692  0.2163  0.2593  0.5038
 6763SOL    HW126268   9.615   7.751   2.674  0.2335  0.2730  0.4042
 6763SOL    HW226269   9.738   7.689   2.762  0.3044 -0.4421 -0.1869
 6764SOL     OW26270   1.539   5.598   2.107  0.4273  0.2416  0.1532
 6764SOL    HW126271   1.523   5.524   2.173 -0.0402  0.5860  0.4289
 6764SOL    HW226272   1.465   5.597   2.039 -0.1097  1.0619  0.7170
 6765SOL     OW26273   3.673   3.707   1.039  0.0199  0.0356 -0.0589
 6765SOL    HW126274   3.769   3.733   1.039  0.0084  0.0781 -0.4822
 6765SOL    HW226275   3.623   3.763   1.105  0.3263 -0.1396  0.3210
 6766SOL     OW26276   4.750   0.343   2.470 -0.1506  0.2872 -0.3151
 6766SOL    HW126277   4.661   0.375   2.439 -0.0526 -0.6379 -1.5969
 6766SOL    HW226278   4.744   0.313   2.565 -0.7833  1.8903  0.1612
 6767SOL     OW26279   2.068   1.988   2.310  0.1650 -0.1945 -0.2242
 6767SOL    HW126280   2.110   2.060   2.255  2.7062 -0.2875  1.5048
 6767SOL    HW226281   2.133   1.956   2.379 -2.0285 -1.9081  1.1366
 6768SOL     OW26282   2.289   9.468   1.509  0.1403  0.4142  0.3581
 6768SOL    HW126283   2.276   9.550   1.454  1.1036  1.0680  1.0894
 6768SOL    HW226284   2.314   9.494   1.602  2.5434 -0.7192  0.0702
 6769SOL     OW26285   1.191   9.681   1.823  0.2229 -0.7581  0.1458
 6769SOL    HW126286   1.130   9.614   1.865  0.6377 -2.3778 -1.7844
 6769SOL    HW226287   1.280   9.639   1.806  0.2115 -0.0110 -1.9113
 6770SOL     OW26288   8.470   8.882   1.380 -0.2059 -0.1114 -0.2523
 6770SOL    HW126289   8.514   8.813   1.321  0.9328  0.7913 -0.4636
 6770SOL    HW226290   8.448   8.840   1.468  1.4826 -0.4602  0.0195
 6771SOL     OW26291   7.530   1.883   2.359  0.3219  0.3529 -0.6596
 6771SOL    HW126292   7.549   1.982   2.360 -2.0653  0.8674 -2.7494
 6771SOL    HW226293   7.593   1.839   2.295 -0.1076  0.8773 -1.4609
 6772SOL     OW26294   8.482   0.067   0.261  0.0405 -0.0417 -0.2611
 6772SOL    HW126295   8.567   0.053   0.312  0.3158  0.0447 -0.6969
 6772SOL    HW226296   8.474   0.164   0.235 -1.8212  0.6677  2.6749
 6773SOL     OW26297   1.600   1.242   1.677  0.4837  0.5179  0.7903
 6773SOL    HW126298   1.659   1.315   1.712 -0.7895  1.3735  1.1907
 6773SOL    HW226299   1.567   1.266   1.586  0.9924 -0.1080  0.4323
 6774SOL     OW26300   4.814   1.033   1.730 -0.1312 -0.2216 -0.2230
 6774SOL    HW126301   4.890   1.084   1.771 -0.7568  0.4987  0.0543
 6774SOL    HW226302   4.735   1.035   1.792 -0.1424 -1.5819 -0.1849
 6775SOL     OW26303   2.470   3.341   2.600  0.1846 -0.0682 -0.4445
 6775SOL    HW126304   2.534   3.416   2.585  3.5276 -2.6806  0.0517
 6775SOL    HW226305   2.383   3.377   2.632  1.8943  3.5030  0.4536
 6777SOL     OW26306   8.206   0.088   0.180  0.5093  0.2021 -0.3502
 6777SOL    HW126307   8.228   0.020   0.109 -1.7121 -0.0621 -0.8068
 6777SOL    HW226308   8.287   0.103   0.236  2.0459 -0.3000 -2.3386
 6778SOL     OW26309   2.313   2.743   2.170 -0.2457  0.2953  0.1031
 6778SOL    HW126310   2.347   2.716   2.080 -1.4753  0.6152 -0.4705
 6778SOL    HW226311   2.387   2.784   2.223  0.7840 -1.0362 -0.2941
 6779SOL     OW26312   0.909   9.321   2.287  0.4780  0.4425  0.4532
 6779SOL    HW126313   0.813   9.341   2.308  0.4102 -1.3161  2.0413
 6779SOL    HW226314   0.913   9.263   2.206  0.0815 -0.4151  1.0228
 6781SOL     OW26315   0.179   7.516   0.306 -0.3050 -0.2881 -0.5495
 6781SOL    HW126316   0.278   7.517   0.316 -0.4725  1.2638  1.1432
 6781SOL    HW226317   0.141   7.602   0.339 -2.1888 -0.6797 -1.6113
 6784SOL     OW26318   0.067   0.400   2.084 -0.7466  0.0637 -0.5218
 6784SOL    HW126319   0.140   0.349   2.130 -2.2105 -1.3701  0.2510
 6784SOL    HW226320   0.080   0.395   1.985  0.3414  0.0431 -0.3853
 6785SOL     OW26321   7.170   9.034   2.035 -0.1795 -0.1544 -0.3802
 6785SOL    HW126322   7.268   9.026   2.056 -0.6576  0.2097  2.1773
 6785SOL    HW226323   7.157   9.033   1.936  2.3201 -1.2969 -0.7448
 6786SOL     OW26324   9.940   8.340   1.063 -0.4169 -0.5121  0.0947
 6786SOL    HW126325   9.987   8.411   1.010 -3.3249  2.8694  1.7964
 6786SOL    HW226326   9.904   8.270   1.001  1.8198 -0.0987 -1.7279
 6787SOL     OW26327   1.458   7.029   0.406 -0.5134  0.5208 -0.3241
 6787SOL    HW126328   1.389   7.060   0.340 -0.0086  0.5913 -0.8153
 6787SOL    HW226329   1.473   6.931   0.396  2.1713  1.1311 -2.7574
 6789SOL     OW26330   1.284   4.803   1.070 -0.1467  0.4861  0.2043
 6789SOL    HW126331   1.278   4.725   1.133 -0.8410  0.6872  0.3807
 6789SOL    HW226332   1.282   4.888   1.123 -1.0454  0.6618 -0.1104
 6790SOL     OW26333   4.640   9.434   1.894  0.8181  0.9508  0.0765
 6790SOL    HW126334   4.697   9.370   1.946  1.5339  0.1803 -1.6138
 6790SOL    HW226335   4.650   9.526   1.932 -1.5724 -0.1499  3.6547
 6791SOL     OW26336   3.761   3.130   0.740 -0.1983 -0.2899 -0.1079
 6791SOL    HW126337   3.814   3.122   0.655 -0.5758 -0.2754 -0.3471
 6791SOL    HW226338   3.663   3.134   0.718 -0.3760 -1.6912  0.4252
 6793SOL     OW26339   1.722   4.277   2.114  0.0179  0.6732 -0.1152
 6793SOL    HW126340   1.714   4.358   2.057 -0.4196 -0.0931 -1.1556
 6793SOL    HW226341   1.659   4.206   2.081  0.4692 -0.1268  0.7111
 6794SOL     OW26342   4.156   3.266   1.221 -0.7147  0.2180 -0.6086
 6794SOL    HW126343   4.152   3.324   1.303 -1.1748  1.7947 -1.7276
 6794SOL    HW226344   4.210   3.311   1.150 -0.6652 -0.9518 -1.3380
 6795SOL     OW26345   9.814   7.295   0.779 -0.0513  0.1538  0.1764
 6795SOL    HW126346   9.824   7.321   0.875  1.5462 -0.6093  0.2368
 6795SOL    HW226347   9.882   7.345   0.724  0.0564 -0.5530 -0.3334
 6796SOL     OW26348   0.290   2.905   2.133  0.3823 -0.1819  0.0666
 6796SOL    HW126349   0.262   2.881   2.226  0.8002  1.0551  0.5185
 6796SOL    HW226350   0.246   2.991   2.106 -1.4121 -1.6200 -1.6761
 6797SOL     OW26351   1.609   9.066   0.418  0.0528  1.0214 -0.0890
 6797SOL    HW126352   1.546   8.995   0.452  0.6979  0.0220 -0.9449
 6797SOL    HW226353   1.560   9.125   0.354  0.2205 -0.3842 -1.5552
 6798SOL     OW26354   3.858   8.140   0.249 -0.0564  0.8860 -0.2480
 6798SOL    HW126355   3.822   8.205   0.316  1.0314  0.6737  0.5421
 6798SOL    HW226356   3.788   8.123   0.179 -1.0528  1.4053  0.6051
 6799SOL     OW26357   9.651   7.923   0.910 -0.0985  0.2530  0.1317
 6799SOL    HW126358   9.655   7.833   0.869  0.7376  0.7914 -0.9868
 6799SOL    HW226359   9.555   7.949   0.926 -0.3347 -0.8187  0.4751
 6800SOL     OW26360   2.205   4.558   1.289  0.0651  0.0916  0.5791
 6800SOL    HW126361   2.246   4.604   1.210  0.4602 -0.0811  0.6809
 6800SOL    HW226362   2.278   4.528   1.351 -0.1702 -0.9085  0.3823
 6802SOL     OW26363   2.932   3.719   2.239 -1.4355  0.1572 -0.0781
 6802SOL    HW126364   3.030   3.733   2.224 -1.6204  1.7198  0.0589
 6802SOL    HW226365   2.918   3.690   2.334 -1.2907  2.5452  0.7267
 6803SOL     OW26366   2.420   1.759   0.629  0.0834  0.1604 -0.2339
 6803SOL    HW126367   2.439   1.825   0.701  1.1557  0.2150 -0.5518
 6803SOL    HW226368   2.324   1.733   0.631 -0.0114  0.5928  0.8513
 6804SOL     OW26369   1.938   7.359   0.797  0.1951  0.3616 -0.6768
 6804SOL    HW126370   1.873   7.297   0.840  0.4881 -0.8642 -1.9756
 6804SOL    HW226371   2.028   7.315   0.792  0.0370  0.2184 -3.0537
 6806SOL     OW26372   3.986   4.925   0.830  0.6589 -0.0623 -0.1764
 6806SOL    HW126373   3.942   4.908   0.742  1.0826 -2.1185 -0.0186
 6806SOL    HW226374   3.962   4.852   0.895  0.2085  1.5156  1.4881
 6807SOL     OW26375   0.875   0.665   2.195 -0.3222 -0.6357 -0.2397
 6807SOL    HW126376   0.973   0.674   2.210 -0.2697 -0.8936 -0.4174
 6807SOL    HW226377   0.850   0.568   2.192 -0.9151 -0.5770  1.9322
 6808SOL     OW26378   1.704   1.608   0.847  0.5499 -0.0751  0.2419
 6808SOL    HW126379   1.708   1.550   0.928  2.9254 -0.9167 -0.4420
 6808SOL    HW226380   1.651   1.562   0.776  1.5601 -0.9602  0.0547
 6809SOL     OW26381   2.659   2.331   0.313 -0.0155  0.2787  0.2408
 6809SOL    HW126382   2.599   2.260   0.276 -0.9303  2.0953 -1.9324
 6809SOL    HW226383   2.607   2.417   0.321  0.9140  0.6163  3.2822
 6811SOL     OW26384   3.037   6.810   0.355 -0.0213  0.5096  0.0391
 6811SOL    HW126385   3.087   6.880   0.406 -1.9704  1.3695  0.8057
 6811SOL    HW226386   2.941   6.836   0.348 -0.3012 -0.9263 -1.7638
 6813SOL     OW26387   2.745   7.935   0.766  0.0461  0.5971  0.2020
 6813SOL    HW126388   2.826   7.884   0.737 -0.0918  0.5477 -0.1025
 6813SOL    HW226389   2.773   8.017   0.817  0.2263 -0.7516  2.3116
 6814SOL     OW26390   8.276   8.497   1.961  0.3481  0.2618  0.3416
 6814SOL    HW126391   8.348   8.429   1.974  0.3232 -0.3667 -2.5242
 6814SOL    HW226392   8.250   8.535   2.050  3.1606 -0.5623  1.5862
 6815SOL     OW26393   7.872   0.451   1.330 -0.2478 -0.0278 -0.3986
 6815SOL    HW126394   7.774   0.450   1.348 -0.3320 -1.8676 -0.8727
 6815SOL    HW226395   7.922   0.451   1.417 -0.6791 -3.2156 -0.0906
 6816SOL     OW26396   8.800   2.334   0.130  0.2133 -0.1221  0.2338
 6816SOL    HW126397   8.714   2.378   0.105  1.0592  0.3625 -1.8855
 6816SOL    HW226398   8.867   2.404   0.156  0.2546 -0.4450  1.0185
 6817SOL     OW26399   9.636   2.773   1.100  0.7682  0.4498 -0.0657
 6817SOL    HW126400   9.682   2.750   1.014  0.5243 -0.3215  0.0116
 6817SOL    HW226401   9.704   2.791   1.171  0.9782  1.4448 -0.5028
 6819SOL     OW26402   1.396   9.720   0.379 -0.4491 -0.3975  0.0712
 6819SOL    HW126403   1.453   9.668   0.317 -0.9721  0.8630 -1.4973
 6819SOL    HW226404   1.388   9.671   0.466  2.0344 -1.1560 -0.0778
 6820SOL     OW26405   3.352   7.288   2.424  0.3223  0.1599 -0.6193
 6820SOL    HW126406   3.315   7.273   2.332  0.3477 -0.8219 -0.4642
 6820SOL    HW226407   3.432   7.348   2.417  0.0415  0.4843 -1.1806
 6822SOL     OW26408   0.134   4.612   1.326  0.5410 -0.2868  0.2656
 6822SOL    HW126409   0.055   4.553   1.309  0.0994 -0.3334  2.3718
 6822SOL    HW226410   0.215   4.556   1.342  0.1041 -0.3494  2.3504
 6823SOL     OW26411   3.375   7.057   2.178 -0.2144 -0.2500  0.1083
 6823SOL    HW126412   3.352   7.155   2.175 -0.2928 -0.2102  1.6512
 6823SOL    HW226413   3.292   7.004   2.197 -0.0310 -0.5483  0.0841
 6824SOL     OW26414   2.730   1.699   2.688  0.4090  0.0428  0.4144
 6824SOL    HW126415   2.783   1.703   2.603 -1.1784 -0.3337 -0.6185
 6824SOL    HW226416   2.779   1.748   2.760  2.2694 -0.5068 -0.4397
 6825SOL     OW26417   7.932   8.335   2.439  0.3748  0.1036  0.1279
 6825SOL    HW126418   7.921   8.237   2.428  0.6235 -0.0000  0.8156
 6825SOL    HW226419   7.995   8.354   2.515 -0.4249  0.8065  0.6246
 6826SOL     OW26420   0.144   2.160   1.467 -0.2640  0.6807  0.2624
 6826SOL    HW126421   0.145   2.079   1.408  1.3579  0.4218  0.6186
 6826SOL    HW226422   0.102   2.236   1.419  0.5124  0.3160 -1.0184
 6827SOL     OW26423   9.808   5.514   1.339 -0.2871  0.7862 -0.9122
 6827SOL    HW126424   9.842   5.594   1.389 -2.1748 -0.2522  2.1937
 6827SOL    HW226425   9.870   5.437   1.354 -0.3333  0.7362 -0.9821
 6828SOL     OW26426   9.852   8.323   0.255 -0.0766 -0.1390 -0.5660
 6828SOL    HW126427   9.892   8.410   0.228  0.9183 -0.5674 -0.4797
 6828SOL    HW226428   9.755   8.336   0.275  0.1616  1.0300 -0.1571
 6829SOL     OW26429   7.275   0.297   0.050  0.0761 -0.0311 -0.5570
 6829SOL    HW126430   7.287   0.389   0.088  2.8131 -0.9929  1.0735
 6829SOL    HW226431   7.235   0.238   0.120 -2.1254 -0.0231 -1.7569
 6830SOL     OW26432   3.626   5.344   0.510 -0.1525  0.2521 -0.2098
 6830SOL    HW126433   3.646   5.321   0.605 -0.8595 -1.1360 -0.3887
 6830SOL    HW226434   3.642   5.264   0.451 -2.0611  0.3574 -0.9130
 6831SOL     OW26435   1.044   3.006   2.379  0.1470 -0.2424  0.0360
 6831SOL    HW126436   0.990   3.044   2.304  0.0109  1.1386  0.8197
 6831SOL    HW226437   1.028   2.907   2.384  1.3786 -0.6459 -2.7372
 6832SOL     OW26438   8.146   3.471   1.900  0.1733 -0.4519  0.2030
 6832SOL    HW126439   8.227   3.444   1.848 -0.2125 -2.2988  0.5351
 6832SOL    HW226440   8.065   3.462   1.843 -0.0195 -0.4453  0.4749
 6835SOL     OW26441   8.598   2.266   1.132  0.5194 -0.0806 -0.2315
 6835SOL    HW126442   8.635   2.297   1.219 -1.0286 -0.6941  0.6690
 6835SOL    HW226443   8.628   2.172   1.113 -0.0250 -0.3429  0.1843
 6837SOL     OW26444   8.772   9.101   0.303 -0.2331 -0.4821  0.1977
 6837SOL    HW126445   8.678   9.120   0.331  0.0585  0.6827  0.4278
 6837SOL    HW226446   8.803   9.174   0.242  0.8344 -0.3854  0.8522
 6839SOL     OW26447   3.963   0.575   1.390  0.0823  0.4026  0.5061
 6839SOL    HW126448   4.014   0.501   1.347 -1.7337 -0.7186  0.2053
 6839SOL    HW226449   3.989   0.663   1.349  0.3065 -0.3674 -1.0317
 6840SOL     OW26450   2.875   3.379   0.313 -0.5407  0.2181 -0.2145
 6840SOL    HW126451   2.957   3.421   0.352  1.4448 -0.6985 -3.1606
 6840SOL    HW226452   2.826   3.447   0.258  0.2974 -0.1647 -1.4554
 6842SOL     OW26453   8.483   8.665   0.500 -0.2135 -0.0567 -0.1553
 6842SOL    HW126454   8.426   8.617   0.435  0.6525 -3.0332  1.2137
 6842SOL    HW226455   8.478   8.620   0.589  2.0255  1.3272  0.7182
 6844SOL     OW26456   1.530   7.032   2.043  0.4418 -0.0647 -0.0701
 6844SOL    HW126457   1.578   7.108   2.087  1.1878  0.4372 -1.7243
 6844SOL    HW226458   1.442   7.064   2.007  0.4895 -0.1340 -0.2461
 6845SOL     OW26459   9.669   1.162   2.324  0.1572 -0.2442 -0.2554
 6845SOL    HW126460   9.578   1.163   2.283  0.5795  1.1423 -1.2280
 6845SOL    HW226461   9.736   1.135   2.254  0.7421  0.8989 -0.1447
 6849SOL     OW26462   2.493   1.711   2.076  0.0062  0.8374 -0.1944
 6849SOL    HW126463   2.523   1.689   2.169  0.7534  1.5230 -0.2633
 6849SOL    HW226464   2.462   1.627   2.031 -0.5783  0.5362  0.7439
 6850SOL     OW26465   1.592   9.408   1.275  0.2240 -0.3911 -0.4579
 6850SOL    HW126466   1.505   9.456   1.265  0.5748  0.1034 -1.1348
 6850SOL    HW226467   1.634   9.396   1.185  0.0556 -2.1122 -0.3206
 6855SOL     OW26468   7.708   9.329   0.357  0.0119 -0.0148 -0.1551
 6855SOL    HW126469   7.744   9.368   0.442  0.9631  0.7519 -0.8948
 6855SOL    HW226470   7.685   9.403   0.294 -0.7258 -0.5834 -0.5515
 6856SOL     OW26471   1.473   9.765   1.903 -0.5708 -0.1359 -0.0309
 6856SOL    HW126472   1.440   9.671   1.903  1.2106 -0.7820  0.4684
 6856SOL    HW226473   1.419   9.819   1.968 -0.8316 -1.1068  0.5681
 6857SOL     OW26474   8.871   7.636   1.264  0.0793 -0.3061 -0.2783
 6857SOL    HW126475   8.902   7.548   1.301 -1.6427 -0.9708 -0.3570
 6857SOL    HW226476   8.856   7.626   1.165 -1.7756 -0.4250 -0.0009
 6858SOL     OW26477   1.834   3.721   0.431 -0.2619 -0.5466  0.0315
 6858SOL    HW126478   1.753   3.752   0.381 -0.2247 -1.0798 -0.3684
 6858SOL    HW226479   1.916   3.762   0.391 -0.1654 -1.5502 -0.8364
 6860SOL     OW26480   4.647   0.148   1.333 -0.9136  0.0164  0.1882
 6860SOL    HW126481   4.651   0.055   1.369 -2.3531 -0.0092  0.3233
 6860SOL    HW226482   4.638   0.145   1.233 -2.8106 -0.0411  0.3467
 6861SOL     OW26483   1.743   4.471   0.021  0.2222 -0.4158 -0.1390
 6861SOL    HW126484   1.765   4.517  -0.066  0.4719 -1.4701 -0.6377
 6861SOL    HW226485   1.796   4.513   0.095  0.5562  0.0052 -0.6076
 6862SOL     OW26486   9.928   7.243   1.769 -0.1382 -0.4709  0.4476
 6862SOL    HW126487   9.852   7.228   1.706 -0.4710  1.7890  0.2838
 6862SOL    HW226488   9.894   7.239   1.863  0.3976 -4.0718  0.5658
 6863SOL     OW26489   0.987   8.247   2.181 -0.3183  0.3810  0.3013
 6863SOL    HW126490   1.031   8.326   2.223  0.2569 -0.1295  0.6534
 6863SOL    HW226491   0.995   8.254   2.081  0.3026  0.4400  0.3529
 6864SOL     OW26492   4.712   8.840   0.927  0.0446  0.3136  0.0901
 6864SOL    HW126493   4.691   8.937   0.923 -0.0067  0.2748 -0.6480
 6864SOL    HW226494   4.637   8.791   0.972 -0.5899  0.4262 -0.8379
 6865SOL     OW26495   1.420   6.502   1.095 -0.1627 -0.5154 -0.1459
 6865SOL    HW126496   1.482   6.423   1.085  3.0714  2.1057 -1.8619
 6865SOL    HW226497   1.407   6.522   1.192  2.1860 -0.7917  0.2627
 6866SOL     OW26498   1.093   9.441   0.744  0.7839 -0.6120 -0.5187
 6866SOL    HW126499   1.163   9.504   0.710  1.9076  0.0578  2.8776
 6866SOL    HW226500   1.007   9.490   0.755  0.9186 -0.3490 -0.6188
 6867SOL     OW26501   3.236   3.700   0.345 -0.7269  0.7883  0.2902
 6867SOL    HW126502   3.224   3.646   0.262  0.0398  0.0141  0.6712
 6867SOL    HW226503   3.168   3.773   0.347 -2.4665 -0.7806  0.2710
 6870SOL     OW26504   9.121   2.856   2.464  0.3472 -0.4916 -0.3246
 6870SOL    HW126505   9.070   2.771   2.456 -1.0121  0.1471  1.1716
 6870SOL    HW226506   9.149   2.888   2.374  0.4117 -2.2331 -0.9349
 6871SOL     OW26507   0.953   6.339   0.196 -0.0436 -0.6988 -0.0080
 6871SOL    HW126508   1.043   6.339   0.240  0.5422 -1.9968 -1.1814
 6871SOL    HW226509   0.911   6.429   0.207  0.3946 -0.7627  2.5589
 6872SOL     OW26510   8.611   3.872   1.371  0.5801  0.3431  0.1256
 6872SOL    HW126511   8.562   3.797   1.416 -0.8919  2.2021  1.7351
 6872SOL    HW226512   8.583   3.877   1.275 -2.0790  1.0476  0.8968
 6873SOL     OW26513   1.537   6.714   2.384 -0.2399  0.1719 -0.3812
 6873SOL    HW126514   1.630   6.689   2.358 -0.7573 -1.8679 -0.3583
 6873SOL    HW226515   1.538   6.804   2.428  1.6031  0.5130 -1.0756
 6874SOL     OW26516   8.958   6.063   0.795 -0.0154 -0.2258  0.5385
 6874SOL    HW126517   9.013   6.142   0.769 -2.5986  1.2214 -0.6947
 6874SOL    HW226518   8.957   5.997   0.719  0.0096 -0.2764  0.5809
 6875SOL     OW26519   9.671   5.563   1.917  0.2856 -0.3337  0.1426
 6875SOL    HW126520   9.608   5.609   1.980  0.5312 -0.2756  0.3442
 6875SOL    HW226521   9.711   5.630   1.854  0.3143 -0.3389  0.1556
 6877SOL     OW26522   1.013   7.512   1.314 -0.0948  0.3728  0.1507
 6877SOL    HW126523   0.954   7.498   1.394  0.1444 -1.8465 -0.0207
 6877SOL    HW226524   1.095   7.455   1.322 -0.5842 -0.7384 -2.1667
 6880SOL     OW26525   9.848   0.033   1.918 -0.3755  0.1986 -0.2557
 6880SOL    HW126526   9.789   0.077   1.849  0.0727 -0.5532 -1.1237
 6880SOL    HW226527   9.851  -0.065   1.902  1.0311  0.2123 -0.1532
 6881SOL     OW26528   2.840   9.998   2.122  0.3940  0.1439  0.5472
 6881SOL    HW126529   2.859  10.078   2.066  0.3700 -0.2925 -0.0906
 6881SOL    HW226530   2.791   9.930   2.068  0.5626 -0.3684  1.0344
 6883SOL     OW26531   3.347   1.978   1.158  0.2253  0.0846  0.1729
 6883SOL    HW126532   3.275   2.012   1.219 -1.7753 -0.7120 -1.6791
 6883SOL    HW226533   3.331   2.012   1.066  1.7416 -0.8365 -0.4377
 6884SOL     OW26534   8.346   9.935   0.559  0.0496 -0.0307 -0.2149
 6884SOL    HW126535   8.303   9.921   0.470  1.0769 -2.0768 -0.4223
 6884SOL    HW226536   8.438   9.897   0.558 -0.1468 -0.6574  1.9096
 6885SOL     OW26537   8.697   3.220   2.629 -0.1157 -0.6357 -0.0031
 6885SOL    HW126538   8.777   3.178   2.585 -0.5731 -0.5058 -0.9852
 6885SOL    HW226539   8.664   3.296   2.573  0.9521  1.3336  1.9799
 6887SOL     OW26540   0.339   0.105   1.224  0.4560 -0.4237 -0.5761
 6887SOL    HW126541   0.432   0.070   1.211  0.5760  0.1094 -1.1797
 6887SOL    HW226542   0.335   0.199   1.191 -0.7233 -0.9867 -2.0479
 6888SOL     OW26543   9.316   5.064   2.647  0.1329 -0.3505  0.9342
 6888SOL    HW126544   9.373   5.122   2.589  0.2795 -0.5167  0.9126
 6888SOL    HW226545   9.268   4.997   2.590 -0.6840  0.2781  0.8594
 6889SOL     OW26546   1.614   7.601   2.067  0.3401  0.0599 -0.2438
 6889SOL    HW126547   1.606   7.514   2.116 -1.2025 -0.1972 -0.9219
 6889SOL    HW226548   1.554   7.601   1.987  0.5448  1.6436 -0.4313
 6890SOL     OW26549   3.202   6.999   0.421  0.8117  0.4381  0.0707
 6890SOL    HW126550   3.129   7.029   0.482  1.2441 -0.4974  1.0835
 6890SOL    HW226551   3.284   7.054   0.437  0.3656  1.4400 -1.0144
 6891SOL     OW26552   0.616   9.327   0.559 -0.0283  0.3410  0.2823
 6891SOL    HW126553   0.614   9.422   0.530  0.3936 -0.0660 -1.1149
 6891SOL    HW226554   0.524   9.299   0.587 -0.3424  0.8907 -0.1873
 6893SOL     OW26555   8.565   7.507   1.635  0.8019  0.3497  0.1844
 6893SOL    HW126556   8.664   7.514   1.622  0.7505 -0.6942 -0.7872
 6893SOL    HW226557   8.545   7.439   1.706  0.7599  0.4399  0.2605
 6894SOL     OW26558   1.290   4.997   1.247  0.5167 -0.1547 -0.2197
 6894SOL    HW126559   1.228   5.072   1.267  0.3664  0.0008 -1.2083
 6894SOL    HW226560   1.385   5.027   1.262  0.3805 -0.2609  0.8791
 6895SOL     OW26561   1.693   1.060   0.097  0.0385  0.0474 -0.1863
 6895SOL    HW126562   1.622   1.030   0.033  1.4879  1.4456 -2.5411
 6895SOL    HW226563   1.664   1.041   0.191 -1.6102 -3.2332 -1.2812
 6896SOL     OW26564   0.462   4.160   0.134  0.3462  0.7534  0.4691
 6896SOL    HW126565   0.447   4.246   0.085 -0.5288 -0.1471 -0.8543
 6896SOL    HW226566   0.461   4.084   0.069  2.5510 -0.1428  1.4288
 6897SOL     OW26567   2.118   4.532   1.829  0.1650 -0.1333  0.6224
 6897SOL    HW126568   2.027   4.529   1.788 -0.6152  1.1433  2.1975
 6897SOL    HW226569   2.180   4.582   1.769 -0.2583 -0.6705 -0.2739
 6898SOL     OW26570   1.947   9.536   1.109 -0.3013 -0.4609 -0.0045
 6898SOL    HW126571   2.017   9.549   1.179  0.6895 -0.0754 -1.0497
 6898SOL    HW226572   1.954   9.443   1.072  0.1209 -0.1990 -0.5942
 6899SOL     OW26573   1.468   4.767   0.882 -0.1018 -0.4480 -0.3465
 6899SOL    HW126574   1.440   4.810   0.796  1.9155  0.7400 -0.4512
 6899SOL    HW226575   1.404   4.793   0.955 -0.6607  0.2178 -1.0675
 6900SOL     OW26576   0.651   7.509   2.396  0.0728  1.1608  0.0839
 6900SOL    HW126577   0.618   7.432   2.451 -1.2747  1.5447 -0.1787
 6900SOL    HW226578   0.635   7.491   2.299  1.6140  0.8921 -0.1453
 6901SOL     OW26579   3.508   0.254   1.666 -0.0860 -0.6214 -0.4603
 6901SOL    HW126580   3.575   0.198   1.619  1.4238 -0.5736  1.5685
 6901SOL    HW226581   3.539   0.350   1.666 -0.7255 -0.4120 -0.5089
 6903SOL     OW26582   0.358   5.458   1.800  0.1453 -0.5231 -0.4690
 6903SOL    HW126583   0.443   5.510   1.792 -1.2924  1.9862  0.3374
 6903SOL    HW226584   0.349   5.422   1.892 -0.3969  0.5358 -0.0989
 6904SOL     OW26585   0.219   2.807   2.385  0.1228 -0.7671 -0.2226
 6904SOL    HW126586   0.294   2.746   2.409  0.5964 -0.3139 -0.5254
 6904SOL    HW226587   0.167   2.830   2.467  0.4519 -0.9051  0.0253
 6905SOL     OW26588   7.641   0.606   0.874 -0.1954 -0.1047 -0.0138
 6905SOL    HW126589   7.572   0.542   0.840  0.4113 -0.3995 -0.7161
 6905SOL    HW226590   7.684   0.567   0.956 -0.9952  0.1719  0.5423
 6906SOL     OW26591   3.354   2.190   0.604  0.3706  0.0907 -0.3236
 6906SOL    HW126592   3.425   2.185   0.533  1.1174 -2.4161  0.5438
 6906SOL    HW226593   3.264   2.182   0.563  0.8287 -2.0844 -0.9616
 6907SOL     OW26594   9.131   0.239   0.511 -0.4443 -0.0045  0.0115
 6907SOL    HW126595   9.152   0.151   0.554 -0.1948 -0.1075 -0.3156
 6907SOL    HW226596   9.036   0.263   0.529 -0.7256 -0.6945 -0.5030
 6909SOL     OW26597   3.334   4.461   2.190  0.1953 -0.4873 -0.3635
 6909SOL    HW126598   3.369   4.513   2.268  1.2365 -0.6606 -0.6938
 6909SOL    HW226599   3.385   4.488   2.107 -2.1231  1.0263 -1.3443
 6910SOL     OW26600   7.493   1.072   1.398  0.6200 -0.3889  0.2292
 6910SOL    HW126601   7.542   1.042   1.480 -0.8692 -1.8682  0.5842
 6910SOL    HW226602   7.557   1.076   1.321  1.9061  0.4774  1.3169
 6911SOL     OW26603   1.877   3.148   0.665 -0.0865  0.3420  0.5535
 6911SOL    HW126604   1.794   3.135   0.720  0.0429 -1.3698  0.3664
 6911SOL    HW226605   1.852   3.152   0.568 -0.0011  0.3046  0.5301
 6912SOL     OW26606   0.785   6.389   1.411  0.2634  0.2965  0.4494
 6912SOL    HW126607   0.727   6.367   1.490 -0.4331 -0.6078 -0.3029
 6912SOL    HW226608   0.863   6.326   1.408 -0.5760 -0.7274 -0.4817
 6913SOL     OW26609   0.392   0.474   1.447 -0.0346  0.3528 -0.0551
 6913SOL    HW126610   0.424   0.392   1.494  0.0786  0.5593  0.2298
 6913SOL    HW226611   0.310   0.509   1.493  0.0637  0.5421 -0.0221
 6914SOL     OW26612   3.543   1.215   0.782 -0.3991 -0.2093 -0.4925
 6914SOL    HW126613   3.559   1.138   0.843  0.0590  0.5979  0.4283
 6914SOL    HW226614   3.457   1.202   0.733 -0.2891 -1.3283 -0.3948
 6915SOL     OW26615   1.769   8.678   1.360 -0.0015 -0.0897 -0.3241
 6915SOL    HW126616   1.807   8.769   1.375  0.8864 -0.4538 -0.3097
 6915SOL    HW226617   1.735   8.671   1.266  0.1027  0.1906 -0.3822
 6916SOL     OW26618   2.189   2.459   1.376 -0.1676 -0.4369 -0.3491
 6916SOL    HW126619   2.196   2.413   1.287  0.6574  0.0402 -0.5398
 6916SOL    HW226620   2.221   2.554   1.367 -1.7967  0.1578  0.0541
 6917SOL     OW26621   1.552   9.363   2.121  0.6899 -0.0767  0.2926
 6917SOL    HW126622   1.603   9.339   2.204  0.3691  0.7553  0.7368
 6917SOL    HW226623   1.463   9.401   2.146  0.9124  0.9322 -0.4051
 6918SOL     OW26624   7.582   2.190   0.477  0.4187  0.0748  0.1752
 6918SOL    HW126625   7.663   2.241   0.506  2.8279 -2.9241 -1.0905
 6918SOL    HW226626   7.585   2.174   0.378 -2.4100  1.0439 -0.1192
 6919SOL     OW26627   3.478   5.194   0.968 -0.1628 -0.0483  0.4824
 6919SOL    HW126628   3.456   5.190   1.065  0.9264  0.3865  0.7467
 6919SOL    HW226629   3.577   5.199   0.955 -0.2853 -0.2958 -0.6533
 6920SOL     OW26630   2.506   4.400   1.106  0.1250  0.3082 -0.2156
 6920SOL    HW126631   2.578   4.396   1.176  0.1071 -1.3558 -0.2735
 6920SOL    HW226632   2.488   4.495   1.082  0.2461  0.8949  1.9379
 6921SOL     OW26633   8.156   1.369   1.682 -0.7661 -0.2172 -0.3802
 6921SOL    HW126634   8.201   1.303   1.743 -0.4824 -0.5565 -0.9522
 6921SOL    HW226635   8.136   1.453   1.732 -0.1305 -0.3272  0.0631
 6923SOL     OW26636   9.804   3.223   2.681  0.1493 -0.2215  0.3598
 6923SOL    HW126637   9.757   3.135   2.685  1.0982 -0.7131  0.7248
 6923SOL    HW226638   9.869   3.230   2.757  1.4857 -0.0122 -0.7909
 6925SOL     OW26639   2.225   5.863   0.456 -0.0469 -0.2261 -0.2495
 6925SOL    HW126640   2.306   5.810   0.430  0.4298  0.4992 -0.2895
 6925SOL    HW226641   2.142   5.813   0.433  0.3992 -1.1755  0.2114
 6926SOL     OW26642   8.360   0.972   0.417 -0.0357  0.2025  0.0343
 6926SOL    HW126643   8.298   0.981   0.339  1.8078  0.7813 -1.3961
 6926SOL    HW226644   8.397   0.879   0.420  0.5905  0.4374 -0.3273
 6928SOL     OW26645   2.357   0.633   1.039  0.4896  0.1736 -0.7827
 6928SOL    HW126646   2.389   0.718   0.996 -1.6376 -0.1100 -3.0611
 6928SOL    HW226647   2.258   0.625   1.028 -0.0505 -0.3843  3.4955
 6929SOL     OW26648   0.050   6.579   0.275  0.0348 -0.0253 -0.0737
 6929SOL    HW126649   0.147   6.571   0.300  0.3126  1.2831 -0.6924
 6929SOL    HW226650   0.004   6.638   0.341  0.3716  1.9498 -1.5743
 6930SOL     OW26651   0.527   4.546   0.175  0.2010 -0.3330 -0.2427
 6930SOL    HW126652   0.551   4.525   0.270  0.5592 -0.3115 -0.3276
 6930SOL    HW226653   0.590   4.615   0.139 -0.4371  0.2482 -0.2417
 6931SOL     OW26654   4.217   4.566   0.355  0.5838  0.3878 -0.0366
 6931SOL    HW126655   4.311   4.548   0.325  1.3264  1.9201  1.2548
 6931SOL    HW226656   4.153   4.541   0.283  2.0739  0.4545 -1.4028
 6932SOL     OW26657   8.284   4.912   0.248 -0.0606 -0.0329 -0.2488
 6932SOL    HW126658   8.200   4.858   0.248 -0.1223  0.0571 -0.9966
 6932SOL    HW226659   8.325   4.910   0.339 -0.9021 -0.0284  0.1331
 6933SOL     OW26660   9.423   7.673   1.622 -0.1752  0.9276 -0.1062
 6933SOL    HW126661   9.389   7.689   1.530  1.7399 -0.1795 -1.0413
 6933SOL    HW226662   9.448   7.577   1.632  0.4329  1.2195  1.3051
 6934SOL     OW26663   2.269   0.883   2.088  0.1013  0.2464  0.3971
 6934SOL    HW126664   2.364   0.888   2.119  0.2513 -1.3588  0.2151
 6934SOL    HW226665   2.220   0.813   2.139 -0.1282 -1.1941 -1.7222
 6935SOL     OW26666   9.101   3.384   2.546 -0.3547  0.0745  0.0268
 6935SOL    HW126667   9.101   3.320   2.624  1.5409  1.0680  0.8601
 6935SOL    HW226668   9.098   3.332   2.461 -2.4337 -1.0344  0.7211
 6936SOL     OW26669   9.010   8.950   2.020 -0.1580 -0.1436 -0.4353
 6936SOL    HW126670   8.911   8.944   2.029 -0.0282 -0.9273  0.5765
 6936SOL    HW226671   9.050   8.860   2.035  0.9188  0.7042  1.9781
 6937SOL     OW26672   0.082   9.077   2.280 -0.1380 -0.2432 -0.3564
 6937SOL    HW126673   0.055   9.051   2.187  1.6083 -3.4879 -0.0294
 6937SOL    HW226674   0.002   9.071   2.340 -1.3086  1.9691 -1.5709
 6938SOL     OW26675   1.496   6.083   1.825 -0.4842  1.0800 -0.3385
 6938SOL    HW126676   1.532   5.991   1.840 -2.4719  0.3762  0.2945
 6938SOL    HW226677   1.568   6.150   1.841  0.9394 -0.3460 -0.6177
 6939SOL     OW26678   9.331   0.376   0.160 -0.2045 -0.1237  0.0822
 6939SOL    HW126679   9.241   0.345   0.190 -0.2335  0.1647  0.2964
 6939SOL    HW226680   9.365   0.445   0.224 -0.9755  1.6886 -1.4155
 6940SOL     OW26681   2.742   1.309   2.431 -0.5621 -0.3160  0.5634
 6940SOL    HW126682   2.695   1.345   2.512 -0.4131  1.1555  0.0217
 6940SOL    HW226683   2.840   1.331   2.436 -0.6528  0.3457 -0.2986
 6942SOL     OW26684   4.163   2.376   1.653  1.0713 -0.3459 -0.3252
 6942SOL    HW126685   4.108   2.403   1.574 -1.6109  0.0985  1.6096
 6942SOL    HW226686   4.190   2.458   1.705  0.3781 -0.8032  0.7702
 6943SOL     OW26687   9.218   8.829   1.381 -0.3835 -0.2764 -0.2579
 6943SOL    HW126688   9.123   8.801   1.369 -0.7957  1.1459 -0.4712
 6943SOL    HW226689   9.226   8.927   1.360  1.1797 -0.4571 -0.5283
 6945SOL     OW26690   0.677   2.615   0.974  0.3214 -0.1043  0.6006
 6945SOL    HW126691   0.755   2.552   0.969  0.1864 -0.1662 -0.9950
 6945SOL    HW226692   0.595   2.563   0.996  0.1810 -0.5548 -0.8734
 6946SOL     OW26693   9.900   6.527   0.713 -0.8920 -0.6978  0.1416
 6946SOL    HW126694   9.914   6.453   0.779 -1.7102 -1.4750 -0.5545
 6946SOL    HW226695   9.985   6.543   0.663 -0.4307 -0.4930  0.9792
 6947SOL     OW26696   8.428   4.125   0.711 -0.7991 -0.3514  0.0398
 6947SOL    HW126697   8.432   4.026   0.724 -1.0121 -0.5296 -1.1688
 6947SOL    HW226698   8.508   4.168   0.751  1.5010 -1.4544 -3.1603
 6948SOL     OW26699   1.752   6.223   2.018  0.1226  0.4965  0.2759
 6948SOL    HW126700   1.768   6.275   2.102 -0.5927 -0.8513  1.2642
 6948SOL    HW226701   1.807   6.139   2.019 -1.6353 -0.6645  0.4633
 6949SOL     OW26702   2.469   4.153   0.581 -0.0669  0.1526  0.6090
 6949SOL    HW126703   2.457   4.055   0.563 -0.8121  0.3320  0.0886
 6949SOL    HW226704   2.473   4.203   0.495  1.1196  0.4997  0.8572
 6950SOL     OW26705   3.984   3.901   1.644 -0.5073  0.5580 -0.4632
 6950SOL    HW126706   3.895   3.892   1.601 -2.0251  0.5206  2.5773
 6950SOL    HW226707   3.996   3.994   1.678  0.1283  0.2459  0.1751
 6952SOL     OW26708   1.927   1.088   2.216  0.1763  0.2275  0.1340
 6952SOL    HW126709   1.835   1.055   2.197 -0.1729  1.5379 -0.4951
 6952SOL    HW226710   1.965   1.130   2.133  1.1828  0.0397  0.4979
 6953SOL     OW26711   3.798   2.541   2.330  0.3583  0.0574 -0.5118
 6953SOL    HW126712   3.706   2.569   2.357  0.1938  0.1978 -1.2182
 6953SOL    HW226713   3.859   2.620   2.329  0.5505 -0.0776  0.2047
 6954SOL     OW26714   4.229   3.642   1.886  0.5333  0.0149 -0.0514
 6954SOL    HW126715   4.138   3.678   1.906  1.2138  0.6954  1.9730
 6954SOL    HW226716   4.240   3.632   1.787 -1.8881 -0.5207 -0.2995
 6955SOL     OW26717   3.011   6.498   0.296  0.2310 -0.7638  0.1505
 6955SOL    HW126718   2.948   6.493   0.218 -1.1406  0.0944  1.1706
 6955SOL    HW226719   3.036   6.594   0.312 -0.9254 -0.7270  1.8493
 6956SOL     OW26720   1.762   6.329   2.658 -0.3684  0.3654  0.3365
 6956SOL    HW126721   1.701   6.353   2.583  0.8112  0.1591 -0.7139
 6956SOL    HW226722   1.742   6.237   2.690 -1.4307  0.7693  0.8460
 6958SOL     OW26723   3.207   1.344   1.195  0.9262  0.4724  0.3989
 6958SOL    HW126724   3.238   1.331   1.101  1.7777  1.1746  0.5638
 6958SOL    HW226725   3.286   1.334   1.257  0.5102  0.7020  0.9686
 6959SOL     OW26726   4.264   9.120   2.335  0.1502  0.1790 -0.5114
 6959SOL    HW126727   4.287   9.193   2.272  0.4440  1.4323  1.0230
 6959SOL    HW226728   4.313   9.037   2.309 -0.5837  0.3626 -2.5565
 6960SOL     OW26729   1.477   2.131   0.214 -0.1217  0.5465 -0.4848
 6960SOL    HW126730   1.495   2.033   0.212  2.8596  1.0546  0.2155
 6960SOL    HW226731   1.378   2.146   0.225 -0.5184 -2.3470  0.2776
 6961SOL     OW26732   0.362   0.613   1.219  0.3613  0.3256  0.5945
 6961SOL    HW126733   0.401   0.537   1.271  0.4471  0.7430  1.1438
 6961SOL    HW226734   0.322   0.679   1.281 -3.3443 -1.2044 -0.0273
 6962SOL     OW26735   1.849   2.155   1.885 -0.7369  0.1749 -0.0954
 6962SOL    HW126736   1.867   2.083   1.952 -0.8401 -1.5683 -1.9035
 6962SOL    HW226737   1.773   2.128   1.827  0.6323  0.7590 -2.2114
 6963SOL     OW26738   0.892   3.162   1.679 -0.2839 -0.1918  0.2814
 6963SOL    HW126739   0.814   3.107   1.708  0.2658 -1.2354 -0.1919
 6963SOL    HW226740   0.922   3.133   1.588  0.7409  0.0950  0.5121
 6964SOL     OW26741   1.428   2.879   0.384  0.3952 -0.6130  0.1937
 6964SOL    HW126742   1.491   2.879   0.306  0.8630 -1.2421  0.5733
 6964SOL    HW226743   1.358   2.948   0.369  0.5699 -0.6216 -0.7249
 6965SOL     OW26744   0.513   6.921   1.987 -0.5739  0.0481 -0.3145
 6965SOL    HW126745   0.542   6.919   1.891  0.3589  0.3299 -0.0469
 6965SOL    HW226746   0.463   6.837   2.008 -0.1008 -0.3742 -0.8410
 6966SOL     OW26747   1.084   9.863   0.037 -0.5989  0.0174 -0.4271
 6966SOL    HW126748   1.001   9.893   0.084 -0.7629  0.8059 -1.2301
 6966SOL    HW226749   1.076   9.765   0.016 -0.5208 -0.3569  1.1813
 6967SOL     OW26750   9.531   8.914   1.701  0.2474  0.1691  0.5177
 6967SOL    HW126751   9.531   9.014   1.707  0.0179  0.2591 -0.9006
 6967SOL    HW226752   9.498   8.876   1.787 -0.8411  1.3465  0.6426
 6968SOL     OW26753   8.527   9.459   1.927 -0.0114 -0.3123 -0.3709
 6968SOL    HW126754   8.439   9.492   1.960  1.1041  4.8023 -2.0720
 6968SOL    HW226755   8.517   9.423   1.834 -0.2457  0.5539 -0.6801
 6969SOL     OW26756   1.748   3.586   2.001  0.1452 -0.0445 -0.2455
 6969SOL    HW126757   1.700   3.518   2.056 -1.1289 -0.2328 -1.5502
 6969SOL    HW226758   1.703   3.675   2.011  0.1491  0.0068 -0.6486
 6970SOL     OW26759   1.562   1.937   1.968  0.5165  0.0785 -0.2904
 6970SOL    HW126760   1.646   1.930   2.023  0.3049  2.3909  0.3819
 6970SOL    HW226761   1.582   1.986   1.883  0.2294 -1.0043 -0.9894
 6971SOL     OW26762   3.192   1.068   0.130 -0.0809  0.1926 -0.1122
 6971SOL    HW126763   3.240   0.983   0.106 -1.0696 -0.5578  0.5502
 6971SOL    HW226764   3.258   1.133   0.168  0.3912 -0.9202  1.0272
 6973SOL     OW26765   9.141   6.940   2.666 -0.1158  0.0675 -0.0365
 6973SOL    HW126766   9.160   6.893   2.580 -1.3330  3.4293 -2.2269
 6973SOL    HW226767   9.043   6.951   2.678 -0.2066 -3.4449  3.6095
 6974SOL     OW26768   0.846   9.757   0.546 -0.3878  0.4166 -0.0765
 6974SOL    HW126769   0.853   9.788   0.641  1.6624  0.1938 -0.1219
 6974SOL    HW226770   0.897   9.821   0.487 -0.0528 -0.4852 -0.7684
 6976SOL     OW26771   0.731   3.281   1.231 -0.3167 -0.5215  0.2046
 6976SOL    HW126772   0.732   3.209   1.300  1.1911  0.0334  0.7837
 6976SOL    HW226773   0.815   3.276   1.177 -1.0555 -0.3496 -0.9608
 6977SOL     OW26774   3.358   5.393   0.548 -0.1934  0.6999  0.3692
 6977SOL    HW126775   3.454   5.377   0.527 -0.8280 -0.4971 -1.7701
 6977SOL    HW226776   3.333   5.343   0.631  0.7049 -0.0617  0.1854
 6978SOL     OW26777   2.784   7.304   1.053 -0.0793  0.1772 -0.2977
 6978SOL    HW126778   2.843   7.235   1.096 -0.1442  0.2706 -0.0583
 6978SOL    HW226779   2.826   7.394   1.060 -1.0322  0.5232  1.4133
 6979SOL     OW26780   9.211   5.727   1.269  0.1294 -0.2717  0.2527
 6979SOL    HW126781   9.256   5.761   1.187 -0.1552 -0.2583  0.0981
 6979SOL    HW226782   9.127   5.679   1.243  0.4761 -1.0050  0.4778
 6980SOL     OW26783   8.114   9.215   1.067 -0.1428  0.2650 -0.1036
 6980SOL    HW126784   8.203   9.218   1.112  0.3583 -0.9390 -0.9589
 6980SOL    HW226785   8.112   9.137   1.003 -1.1277  1.4054 -1.4959
 6982SOL     OW26786   9.607   8.060   2.361 -0.2754 -0.6167 -0.1995
 6982SOL    HW126787   9.629   7.967   2.333 -0.6498 -0.3403 -1.4813
 6982SOL    HW226788   9.532   8.095   2.304  0.1945  0.6434 -0.0665
 6983SOL     OW26789   2.212   2.319   1.143 -0.2730 -0.4463  0.0341
 6983SOL    HW126790   2.200   2.220   1.145  1.1568 -0.6174  2.2917
 6983SOL    HW226791   2.305   2.340   1.111  0.2903  0.0276  1.8957
 6984SOL     OW26792   8.059   1.125   0.511  0.3532  0.2571  0.2478
 6984SOL    HW126793   8.149   1.160   0.537 -0.5737  2.4067  0.6504
 6984SOL    HW226794   8.016   1.188   0.447 -0.0038 -1.8405 -1.6414
 6985SOL     OW26795   3.667   9.157   0.260 -0.3306  0.0739 -1.1438
 6985SOL    HW126796   3.746   9.122   0.311 -0.9436 -0.1781 -0.3427
 6985SOL    HW226797   3.694   9.234   0.204 -0.0814  1.8638  1.3600
 6986SOL     OW26798   8.397   9.394   1.250  0.5857  0.2069  0.5275
 6986SOL    HW126799   8.399   9.494   1.256 -0.1101  0.3385 -1.3180
 6986SOL    HW226800   8.321   9.359   1.304 -0.3174  0.8034 -0.3423
 6988SOL     OW26801   1.998   1.755   2.066  0.2822 -0.2237  0.7921
 6988SOL    HW126802   1.996   1.848   2.103 -1.0186 -0.8935  2.4334
 6988SOL    HW226803   2.039   1.693   2.132 -0.1401 -1.0748  0.2623
 6989SOL     OW26804   3.395   5.552   2.391  0.2253  0.1248  0.4102
 6989SOL    HW126805   3.308   5.512   2.418  0.8789 -0.8105  1.1788
 6989SOL    HW226806   3.381   5.646   2.361 -1.0476 -0.0333  0.4887
 6990SOL     OW26807   8.897   4.956   1.428 -0.5261  0.3689  0.4147
 6990SOL    HW126808   8.992   4.985   1.425 -0.6321  0.5716 -1.8930
 6990SOL    HW226809   8.889   4.872   1.481  0.9366  0.3389  0.5922
 6991SOL     OW26810   1.464   8.950   0.803 -0.4390 -0.9375  0.0869
 6991SOL    HW126811   1.560   8.979   0.795 -0.8050  0.5639  0.9680
 6991SOL    HW226812   1.459   8.870   0.864  0.4409 -2.1356 -1.3757
 6992SOL     OW26813   3.280   8.938   1.897 -0.0075  0.3091  0.2106
 6992SOL    HW126814   3.311   9.031   1.878 -0.8201  0.6704  0.6280
 6992SOL    HW226815   3.359   8.879   1.911  0.5100  1.3358  1.8320
 6993SOL     OW26816   0.846   6.802   0.893  0.3953  0.0067  0.0325
 6993SOL    HW126817   0.772   6.857   0.853  1.1424  0.3723 -0.8845
 6993SOL    HW226818   0.824   6.705   0.885  0.4678  0.0772 -1.1669
 6994SOL     OW26819   0.024   7.958   2.133 -0.5970  0.3015  0.1485
 6994SOL    HW126820   0.117   7.959   2.170 -0.0398  0.0407 -1.1898
 6994SOL    HW226821   0.014   7.877   2.074 -1.7761  0.1558  0.5511
 6995SOL     OW26822   8.747   8.495   2.044 -0.3180  0.3280 -0.3888
 6995SOL    HW126823   8.781   8.553   1.971  0.0915  0.0316 -0.4307
 6995SOL    HW226824   8.664   8.448   2.013 -0.0783  0.1121 -0.6983
 6996SOL     OW26825   0.173   0.104   1.455  0.0163 -0.0330  0.0039
 6996SOL    HW126826   0.243   0.124   1.387  0.5832  0.6143  0.7628
 6996SOL    HW226827   0.109   0.037   1.419  0.2508  0.3857 -1.2083
 6997SOL     OW26828   0.625   7.752   0.263 -0.4099  0.1080  0.3829
 6997SOL    HW126829   0.724   7.751   0.281 -0.5384  0.1233  1.1128
 6997SOL    HW226830   0.587   7.841   0.289 -0.4325  0.5075 -0.9608
 6998SOL     OW26831   7.682   0.866   0.168  0.0014  0.1402  0.1099
 6998SOL    HW126832   7.679   0.848   0.267  0.0410 -0.0869  0.0700
 6998SOL    HW226833   7.634   0.951   0.148 -0.3835 -0.0366  0.2720
 6999SOL     OW26834   6.968   9.912   1.638 -0.2739  0.1887 -0.0452
 6999SOL    HW126835   7.034   9.902   1.564  0.9964 -1.0180  1.2211
 6999SOL    HW226836   6.996   9.988   1.697  1.5095 -1.9697  1.9890
 7000SOL     OW26837   9.889   7.720   0.797 -0.0414  0.5297 -0.2301
 7000SOL    HW126838   9.914   7.664   0.876 -0.8530  0.1938 -0.2037
 7000SOL    HW226839   9.797   7.696   0.767  0.0985  0.9538 -1.0194
 7001SOL     OW26840   1.072   3.586   2.150 -0.7716  0.3547  0.0323
 7001SOL    HW126841   1.109   3.543   2.232 -0.5712 -0.8843 -0.7093
 7001SOL    HW226842   0.983   3.547   2.128  1.0103 -2.4001 -2.7535
 7002SOL     OW26843   3.216   6.331   0.241  0.5133 -0.2729  0.7632
 7002SOL    HW126844   3.150   6.406   0.240 -0.4156 -1.0861  0.1425
 7002SOL    HW226845   3.296   6.358   0.294  1.1101  1.9326 -1.1948
 7003SOL     OW26846   0.705   3.487   2.409  0.6142  0.1680  0.0291
 7003SOL    HW126847   0.749   3.418   2.351 -1.3828 -1.1982  0.0501
 7003SOL    HW226848   0.616   3.511   2.369 -0.8668 -0.9000  2.5752
 7004SOL     OW26849   3.047   6.148   1.575  0.3189 -0.4482  0.1577
 7004SOL    HW126850   3.065   6.191   1.664  2.9264 -2.1513  0.5157
 7004SOL    HW226851   3.093   6.059   1.571  1.1535  0.0588 -3.3110
 7005SOL     OW26852   5.547   8.301   2.188  0.5078  0.3669  0.0168
 7005SOL    HW126853   5.501   8.387   2.209 -0.0786  0.2244 -0.6738
 7005SOL    HW226854   5.601   8.311   2.105 -2.3001 -0.8839 -2.0300
 7006SOL     OW26855   0.497   8.762   0.608 -0.3490 -0.4270 -0.6847
 7006SOL    HW126856   0.526   8.758   0.512  2.9934 -0.4200  0.2446
 7006SOL    HW226857   0.519   8.852   0.646 -0.4972 -0.8509  0.4209
 7007SOL     OW26858   4.338   3.644   2.381 -0.1915  0.0795 -0.7152
 7007SOL    HW126859   4.429   3.631   2.340 -0.9217 -1.5979 -1.8657
 7007SOL    HW226860   4.331   3.736   2.419  2.0041  0.2197 -0.5872
 7008SOL     OW26861   1.491   6.665   1.868  0.7747 -0.5390 -0.0051
 7008SOL    HW126862   1.463   6.577   1.831  0.6424 -0.6966  0.4680
 7008SOL    HW226863   1.470   6.669   1.966  0.5089  0.1300 -0.0837
 7009SOL     OW26864   4.252   4.992   0.733 -0.1336 -0.2260  0.0569
 7009SOL    HW126865   4.163   4.949   0.747 -0.9510  1.5202  0.3849
 7009SOL    HW226866   4.278   5.040   0.817  1.2938 -1.0353  0.0813
 7011SOL     OW26867   8.963   7.784   2.431  0.2137 -0.0538 -0.1218
 7011SOL    HW126868   9.013   7.856   2.383  1.1997 -0.8419 -0.2939
 7011SOL    HW226869   8.891   7.825   2.488  1.7377  1.1759  0.9610
 7012SOL     OW26870   9.906   3.981   1.372 -0.0870  0.0811  0.3151
 7012SOL    HW126871   9.871   4.004   1.281  2.0586 -1.5652 -0.9710
 7012SOL    HW226872   9.975   4.049   1.398  0.7392 -0.5567 -0.1759
 7013SOL     OW26873   2.701   7.822   2.235 -0.6886 -0.1043 -0.0792
 7013SOL    HW126874   2.689   7.785   2.328 -1.2020  0.1390 -0.0477
 7013SOL    HW226875   2.758   7.760   2.182  0.9343  0.5321  0.8777
 7014SOL     OW26876   2.139   4.205   0.925  0.2064 -0.1267  0.0732
 7014SOL    HW126877   2.101   4.113   0.937  0.9052 -0.5109 -0.6605
 7014SOL    HW226878   2.167   4.241   1.014 -1.2703 -0.0959  0.5439
 7016SOL     OW26879   8.352   1.142   0.990  0.0728 -0.2834 -0.2634
 7016SOL    HW126880   8.448   1.170   0.979 -0.0660  0.3666  0.1192
 7016SOL    HW226881   8.294   1.203   0.935 -0.1149 -0.6980 -0.5211
 7018SOL     OW26882   0.633   9.668   0.157 -0.1122  0.1906 -0.5596
 7018SOL    HW126883   0.611   9.624   0.245  0.5425  2.5318  0.8178
 7018SOL    HW226884   0.730   9.653   0.136  0.4425  1.9396  0.5546
 7019SOL     OW26885   1.598   1.740   1.299  0.1806 -0.5366 -0.3334
 7019SOL    HW126886   1.505   1.710   1.317  0.6371 -1.4799  0.4986
 7019SOL    HW226887   1.638   1.778   1.382  1.2136 -2.0077 -0.1263
 7020SOL     OW26888   0.744   5.280   1.901  0.4330  0.6748  0.5515
 7020SOL    HW126889   0.819   5.281   1.836 -1.5451  1.8670 -1.8010
 7020SOL    HW226890   0.701   5.371   1.903 -0.8941  0.0317  1.8993
 7021SOL     OW26891   2.770   2.764   0.493  0.6728 -0.1641  0.1383
 7021SOL    HW126892   2.781   2.669   0.465 -2.3798 -0.7820  0.8344
 7021SOL    HW226893   2.761   2.768   0.592  0.4008  0.8194  0.0762
 7022SOL     OW26894   8.303   3.932   1.167  0.4757  0.5271 -0.0959
 7022SOL    HW126895   8.375   4.001   1.161 -0.3789  1.5455  0.8821
 7022SOL    HW226896   8.294   3.884   1.080  1.4932  1.2411 -0.6006
 7023SOL     OW26897   9.225   2.364   2.555  0.2539 -0.0116  0.3146
 7023SOL    HW126898   9.155   2.410   2.500 -1.0843 -3.0040 -0.5655
 7023SOL    HW226899   9.313   2.370   2.508 -0.1073  0.7679 -0.2834
 7024SOL     OW26900   3.458   6.868   1.049 -0.0030  0.0432 -0.2750
 7024SOL    HW126901   3.467   6.778   1.091  0.0037  0.5970  0.9119
 7024SOL    HW226902   3.442   6.857   0.951  0.9894 -1.2300 -0.3095
 7025SOL     OW26903   1.520   2.074   2.234 -0.1525  1.1655 -0.2058
 7025SOL    HW126904   1.597   2.083   2.298  0.2529  0.3858 -0.5782
 7025SOL    HW226905   1.549   2.019   2.155 -0.8214  1.6376 -0.7867
 7026SOL     OW26906   3.641   2.751   1.496  0.1737 -0.4149  0.0653
 7026SOL    HW126907   3.639   2.824   1.565 -0.4062  1.5171 -1.9368
 7026SOL    HW226908   3.698   2.780   1.419 -0.4106 -1.9198 -0.9444
 7027SOL     OW26909   8.614   8.259   2.659 -0.7452  0.0361 -0.5260
 7027SOL    HW126910   8.605   8.231   2.755 -1.5752 -1.1000 -0.9319
 7027SOL    HW226911   8.680   8.201   2.613  0.7174  1.4888 -0.2993
 7029SOL     OW26912   9.528   6.609   2.373  0.2106  0.0799  0.0249
 7029SOL    HW126913   9.596   6.641   2.439  0.7780 -2.1454  0.5583
 7029SOL    HW226914   9.563   6.528   2.327 -1.3453 -0.0095 -1.0245
 7030SOL     OW26915   2.661   9.530   0.172  0.0616 -1.0374 -0.3216
 7030SOL    HW126916   2.697   9.557   0.261 -0.6711 -0.3650 -0.2189
 7030SOL    HW226917   2.684   9.435   0.154 -0.2464 -1.3414  0.8301
 7031SOL     OW26918   6.005   9.181   1.868 -0.4976 -0.2392 -0.0474
 7031SOL    HW126919   5.991   9.246   1.943  0.0983  1.8439 -1.6891
 7031SOL    HW226920   6.103   9.166   1.854 -0.5784 -0.0122 -0.9009
 7033SOL     OW26921   1.622   1.287   1.053  0.3185 -0.2579 -0.0599
 7033SOL    HW126922   1.647   1.201   1.097 -0.7631 -0.8830 -0.6378
 7033SOL    HW226923   1.656   1.364   1.108 -2.0904 -0.9799  2.5697
 7035SOL     OW26924   8.041   4.472   0.316  0.0793  0.1991  0.0520
 7035SOL    HW126925   8.087   4.462   0.228  0.8051  0.2575  0.4201
 7035SOL    HW226926   8.052   4.388   0.369  0.3462  0.4661  0.4191
 7036SOL     OW26927   8.956   9.861   1.198 -0.2091  0.1890 -0.5898
 7036SOL    HW126928   8.992   9.953   1.181  2.0694 -0.1178  2.1997
 7036SOL    HW226929   8.919   9.856   1.291  1.7344 -2.2963  0.0954
 7037SOL     OW26930   0.801   5.479   1.671  0.2118  0.2710  0.5605
 7037SOL    HW126931   0.746   5.527   1.740  1.1325 -0.3682  1.7492
 7037SOL    HW226932   0.740   5.435   1.605 -0.6644  1.5722  0.4694
 7038SOL     OW26933   4.040   2.679   1.948 -0.3379  0.2965  0.1405
 7038SOL    HW126934   3.971   2.752   1.954  0.8999  1.5660 -0.8930
 7038SOL    HW226935   4.096   2.693   1.867  0.4058 -1.3973  0.3520
 7039SOL     OW26936   4.046   2.890   1.685  0.2099  0.1522  0.2071
 7039SOL    HW126937   4.063   2.926   1.777 -0.2573  1.3872 -0.1813
 7039SOL    HW226938   4.116   2.822   1.663 -0.9222 -1.7630  2.2985
 7044SOL     OW26939   9.654   4.762   1.341 -0.0195  0.2418  0.7298
 7044SOL    HW126940   9.603   4.838   1.381  0.0227  0.8699 -0.3948
 7044SOL    HW226941   9.715   4.796   1.269  0.8395 -0.7048  0.9956
 7045SOL     OW26942   3.412   7.465   1.683 -0.0651 -0.4926 -0.4854
 7045SOL    HW126943   3.388   7.369   1.667 -1.4767 -0.2062 -0.1635
 7045SOL    HW226944   3.329   7.520   1.681  0.4950  0.4425  1.3309
 7046SOL     OW26945   9.658   7.557   1.345 -0.0384 -0.1418  0.3743
 7046SOL    HW126946   9.616   7.603   1.267  1.0528 -0.8845 -0.6538
 7046SOL    HW226947   9.649   7.615   1.426 -0.4154  1.0152 -0.4755
 7049SOL     OW26948   1.565   8.291   2.598 -0.3631 -0.3383 -0.3706
 7049SOL    HW126949   1.526   8.354   2.531 -2.1827 -1.2132 -0.1453
 7049SOL    HW226950   1.635   8.234   2.554  0.8256  1.3696 -0.7241
 7050SOL     OW26951   0.182   0.818   0.547 -0.0374 -0.1195 -0.1138
 7050SOL    HW126952   0.120   0.835   0.471 -1.3791 -3.0370  0.2732
 7050SOL    HW226953   0.276   0.838   0.518 -1.0420  4.2570 -0.7167
 7051SOL     OW26954   8.287   0.489   0.058 -0.4755 -0.4117  0.1964
 7051SOL    HW126955   8.378   0.507   0.020 -0.8483  0.6107 -0.2265
 7051SOL    HW226956   8.223   0.467  -0.015 -0.7313 -0.4312  0.4219
 7052SOL     OW26957   1.744   3.827   1.286  0.1113 -0.5690  0.6093
 7052SOL    HW126958   1.740   3.768   1.366  0.4708 -1.6624 -0.1656
 7052SOL    HW226959   1.797   3.782   1.214  2.2063  1.5683  0.7509
 7053SOL     OW26960   8.559   1.899   1.831  0.1880  0.1465  1.0520
 7053SOL    HW126961   8.589   1.949   1.912 -0.6291 -1.0064  2.1065
 7053SOL    HW226962   8.503   1.821   1.860 -1.5556  0.6980 -0.6999
 7054SOL     OW26963   1.161   5.033   2.495 -0.2839  0.5942  1.2309
 7054SOL    HW126964   1.233   5.055   2.561 -0.6517  2.3485  1.0659
 7054SOL    HW226965   1.075   5.018   2.544 -0.0967 -0.2782  1.3160
 7055SOL     OW26966   0.690   7.242   1.070  0.3373 -0.2126  0.5446
 7055SOL    HW126967   0.688   7.330   1.116 -0.5886 -0.2130  0.5158
 7055SOL    HW226968   0.603   7.196   1.083 -0.1712  0.0572 -1.7499
 7056SOL     OW26969   0.136   8.524   0.961  0.0337 -0.3402 -0.0435
 7056SOL    HW126970   0.143   8.580   0.878 -0.8362 -0.3392 -0.1252
 7056SOL    HW226971   0.200   8.448   0.956  1.5053  0.8649  0.2405
 7057SOL     OW26972   9.308   1.966   0.543 -0.1358  0.8003 -0.3844
 7057SOL    HW126973   9.245   2.043   0.537 -1.2669 -0.1126 -0.1918
 7057SOL    HW226974   9.400   1.996   0.515 -0.8054  1.9250 -1.4054
 7058SOL     OW26975   0.030   0.982   1.206 -0.5196 -0.5721 -0.2136
 7058SOL    HW126976  -0.007   1.019   1.292 -1.3376 -0.8305 -0.4526
 7058SOL    HW226977  -0.018   1.024   1.129 -0.7876 -1.4247 -0.5122
 7059SOL     OW26978   2.768   5.657   0.397  0.6679  0.7036 -0.0917
 7059SOL    HW126979   2.805   5.710   0.321 -0.9251  2.8126  0.5465
 7059SOL    HW226980   2.800   5.696   0.484  0.6172 -0.2599  0.3707
 7060SOL     OW26981   4.541   9.930   0.523 -0.0168 -0.0755  0.1355
 7060SOL    HW126982   4.475   9.877   0.468 -0.7496  0.1835  0.7571
 7060SOL    HW226983   4.516  10.027   0.521 -0.3313 -0.1273  1.3214
 7062SOL     OW26984   3.177   4.215   2.260 -0.5278  0.6527  0.5032
 7062SOL    HW126985   3.136   4.258   2.179 -0.0381 -0.9657 -0.6390
 7062SOL    HW226986   3.266   4.255   2.277  0.6881 -1.0053 -1.5937
 7063SOL     OW26987   8.904   1.991   2.303 -0.4942 -0.1275 -0.0819
 7063SOL    HW126988   8.887   1.893   2.312  0.5925 -0.4727 -1.6120
 7063SOL    HW226989   8.999   2.010   2.329 -1.3159  0.8627  2.3588
 7064SOL     OW26990   2.630   4.498   0.202  0.4214  0.8843 -0.2385
 7064SOL    HW126991   2.620   4.515   0.104 -0.2480  0.7404 -0.1985
 7064SOL    HW226992   2.710   4.547   0.237  1.2974  0.0792 -1.0656
 7065SOL     OW26993   7.150   9.909   1.414 -0.1483  0.2909 -0.1349
 7065SOL    HW126994   7.187   9.982   1.357  0.7430  0.3500  0.4976
 7065SOL    HW226995   7.200   9.824   1.396 -0.2069  0.1893  0.1795
 7066SOL     OW26996   2.850   1.940   2.381  0.0210  0.2469  0.5340
 7066SOL    HW126997   2.791   1.860   2.373  1.0683 -0.9333  4.0211
 7066SOL    HW226998   2.802   2.013   2.430  0.2237  0.5789  0.2483
 7069SOL     OW26999   0.921   7.905   2.060  0.0238  1.1058 -0.5666
 7069SOL    HW127000   0.995   7.875   2.121  0.1441  0.8919 -0.8143
 7069SOL    HW227001   0.917   8.004   2.059  0.4374  1.1243 -0.7027
 7070SOL     OW27002   3.562   1.856   2.204 -0.3949  0.1499  0.5319
 7070SOL    HW127003   3.553   1.859   2.105  1.1056  1.0160  0.4173
 7070SOL    HW227004   3.500   1.923   2.245 -2.7005 -1.7857  0.3204
 7071SOL     OW27005   1.272   4.452   1.068 -0.3059  0.8880  0.1975
 7071SOL    HW127006   1.283   4.498   0.980 -1.9415  0.0294 -0.4815
 7071SOL    HW227007   1.202   4.500   1.122  0.6942  1.4139  1.0336
 7072SOL     OW27008   8.330   1.202   0.547  0.2156  0.0787 -0.2755
 7072SOL    HW127009   8.355   1.121   0.494 -1.4154  0.8871 -2.3750
 7072SOL    HW227010   8.411   1.237   0.594  1.1243 -2.2347 -0.0498
 7073SOL     OW27011   8.682   3.549   0.477  0.3597  0.0055 -0.0610
 7073SOL    HW127012   8.745   3.488   0.526 -0.3069  0.5094  1.4526
 7073SOL    HW227013   8.640   3.500   0.401  1.5518 -0.7365 -0.2529
 7074SOL     OW27014   8.002   7.298   2.601 -0.3443  0.4279 -0.2460
 7074SOL    HW127015   7.985   7.202   2.578  2.5523 -0.3244  0.6071
 7074SOL    HW227016   8.099   7.319   2.592 -0.8170  3.1020  0.3318
 7075SOL     OW27017   4.307   9.660   2.249 -0.5255 -0.4010 -0.3508
 7075SOL    HW127018   4.302   9.669   2.149  1.5913 -0.3710 -0.4741
 7075SOL    HW227019   4.262   9.575   2.277 -0.1172 -0.9901 -1.4378
 7076SOL     OW27020   1.869   9.706   0.378  0.0400 -0.0565  0.0360
 7076SOL    HW127021   1.917   9.793   0.370  0.1348 -0.1529 -0.4390
 7076SOL    HW227022   1.818   9.688   0.294 -2.1590  0.8282  1.1586
 7077SOL     OW27023   1.255   3.798   0.175 -0.2457  0.4608 -0.1022
 7077SOL    HW127024   1.202   3.840   0.248 -0.1296  0.5138 -0.0497
 7077SOL    HW227025   1.192   3.758   0.108 -0.3463 -0.0999  0.3219
 7078SOL     OW27026   1.919   8.560   2.576 -0.1077  0.0579 -0.4856
 7078SOL    HW127027   1.876   8.530   2.661  1.7282  0.2537  0.5530
 7078SOL    HW227028   1.966   8.483   2.533  0.7606  0.4027 -0.1858
 7079SOL     OW27029   8.621   7.020   0.641  0.2326  0.3755  0.0960
 7079SOL    HW127030   8.686   6.945   0.648 -0.3732 -0.0832  0.8227
 7079SOL    HW227031   8.645   7.092   0.706  0.4372  0.5319 -0.1502
 7080SOL     OW27032   1.589   3.765   0.608  0.2589 -0.0574  0.1909
 7080SOL    HW127033   1.680   3.725   0.598  0.7390  0.6945  1.4921
 7080SOL    HW227034   1.591   3.860   0.579  0.3125  0.4692  1.8716
 7082SOL     OW27035   9.092   7.697   2.689  0.0068  0.3139 -0.0245
 7082SOL    HW127036   9.016   7.654   2.640 -1.7790  0.5207  2.4975
 7082SOL    HW227037   9.120   7.780   2.642 -0.7827 -0.1872 -1.3951
 7083SOL     OW27038   1.213   0.720   2.613  0.1944  0.2720  0.1452
 7083SOL    HW127039   1.163   0.669   2.682 -1.1183  0.1210 -0.8934
 7083SOL    HW227040   1.285   0.662   2.574  0.6612  0.2205  1.0736
 7085SOL     OW27041   8.465   3.743   0.684 -0.0411  0.5250  0.2535
 7085SOL    HW127042   8.538   3.772   0.622  0.5565  0.3188  0.8480
 7085SOL    HW227043   8.506   3.709   0.769 -0.8180 -0.0644  0.3943
 7086SOL     OW27044   1.687   9.754   1.703 -0.1991  0.0708 -0.0299
 7086SOL    HW127045   1.617   9.781   1.770  0.8327  0.8449  0.7508
 7086SOL    HW227046   1.772   9.732   1.751  0.2845 -0.2421 -1.0237
 7087SOL     OW27047   3.980   1.912   1.680 -0.0656 -0.2222  0.1007
 7087SOL    HW127048   4.063   1.877   1.725  0.5599  0.2064 -0.7123
 7087SOL    HW227049   3.978   2.012   1.687 -1.3824 -0.3224  1.6009
 7088SOL     OW27050   2.043   8.322   1.397 -0.0786 -0.0438  0.3358
 7088SOL    HW127051   2.001   8.381   1.328 -0.4391 -1.1081 -0.3659
 7088SOL    HW227052   2.011   8.228   1.385  0.4893 -0.3918  1.4404
 7089SOL     OW27053   2.923   5.037   1.440  0.3331  0.4575 -0.1389
 7089SOL    HW127054   2.933   4.949   1.394  0.3894  1.1009 -1.3599
 7089SOL    HW227055   2.972   5.108   1.389  0.3965  1.1751  0.9042
 7090SOL     OW27056   3.354   3.201   2.011  0.4495  0.3891 -0.1691
 7090SOL    HW127057   3.292   3.180   1.935 -1.3005  0.1936  1.2815
 7090SOL    HW227058   3.366   3.120   2.068  0.5635  0.9302  0.5933
 7091SOL     OW27059   0.408   6.710   2.100 -0.5450  0.3938 -0.4768
 7091SOL    HW127060   0.339   6.717   2.171  0.0080  0.1059  0.0937
 7091SOL    HW227061   0.499   6.718   2.141 -0.2082 -0.3036 -1.0722
 7092SOL     OW27062   4.336   9.089   1.931  0.2618  0.0429 -0.5273
 7092SOL    HW127063   4.405   9.047   1.989  2.0739  0.0330 -2.6019
 7092SOL    HW227064   4.245   9.062   1.961  1.2002 -0.7515  1.6529
 7093SOL     OW27065   6.446   8.828   1.850 -0.4206 -0.1482 -0.0922
 7093SOL    HW127066   6.501   8.909   1.870 -0.3096 -0.0297 -0.8634
 7093SOL    HW227067   6.372   8.819   1.918 -2.2379  2.2438 -1.6820
 7094SOL     OW27068   8.319   9.442   0.037  0.2288  0.1826 -0.0127
 7094SOL    HW127069   8.269   9.519  -0.003  1.4438  0.5285 -0.8675
 7094SOL    HW227070   8.314   9.364  -0.025 -2.6159 -1.0874  1.6863
 7095SOL     OW27071   9.557   6.348   0.751 -0.1447  0.2796  0.5699
 7095SOL    HW127072   9.629   6.374   0.815 -0.7613 -0.0858  1.4112
 7095SOL    HW227073   9.595   6.346   0.658  1.2584 -1.2093  1.1502
 7096SOL     OW27074   0.085   2.945   0.575 -0.1537  0.1796 -0.3325
 7096SOL    HW127075   0.027   2.955   0.656  0.1252 -0.3734 -0.0670
 7096SOL    HW227076   0.179   2.971   0.597  0.5814 -2.9081  0.3515
 7097SOL     OW27077   9.428   6.088   1.843 -0.4371 -0.3152 -0.3483
 7097SOL    HW127078   9.404   6.079   1.746  0.3333 -0.7157 -0.5078
 7097SOL    HW227079   9.360   6.145   1.889  0.2980  1.5607 -1.5480
 7098SOL     OW27080   4.466   1.522   0.830  0.3058  0.1952  0.7338
 7098SOL    HW127081   4.557   1.563   0.823 -0.1233  0.8202 -1.3436
 7098SOL    HW227082   4.398   1.584   0.793 -0.5861 -1.6130 -0.7417
 7099SOL     OW27083   9.450   4.235   1.730  0.4200  0.0011  0.0272
 7099SOL    HW127084   9.413   4.256   1.639  0.6827 -2.4877 -0.6985
 7099SOL    HW227085   9.403   4.291   1.798 -1.0120  0.6644 -1.4460
 7100SOL     OW27086   4.183   9.775   0.611  0.7232 -0.0334  0.3500
 7100SOL    HW127087   4.122   9.727   0.547 -0.3075  0.7904  0.6965
 7100SOL    HW227088   4.277   9.771   0.576  0.2408  0.0454 -1.0167
 7101SOL     OW27089   8.415   0.738   2.496  0.6756 -0.4383  0.1556
 7101SOL    HW127090   8.432   0.714   2.591  1.4588 -0.7373 -0.0493
 7101SOL    HW227091   8.338   0.686   2.461  1.5157 -1.6554  0.1051
 7103SOL     OW27092   2.543   7.990   1.442  0.0283  0.1083 -0.3315
 7103SOL    HW127093   2.554   7.991   1.541 -1.2845  3.0607 -0.1837
 7103SOL    HW227094   2.561   7.897   1.408 -0.6488 -1.2193  2.7638
 7104SOL     OW27095   2.429   5.714   2.495  0.6548  0.2825  0.1539
 7104SOL    HW127096   2.464   5.699   2.402  0.9742 -2.9162  0.7429
 7104SOL    HW227097   2.334   5.685   2.500  1.0476 -0.8724  1.1464
 7105SOL     OW27098   7.405   1.890   1.542  0.4335 -0.2765 -0.2100
 7105SOL    HW127099   7.447   1.967   1.495  3.0865 -1.3773  0.2390
 7105SOL    HW227100   7.400   1.812   1.479  0.6828 -0.6700  0.2513
 7106SOL     OW27101   2.573   5.420   2.484  0.1167 -0.0502 -0.0618
 7106SOL    HW127102   2.618   5.393   2.399 -0.1190  0.8883 -0.4839
 7106SOL    HW227103   2.542   5.514   2.477 -2.3619 -0.8319  0.0314
 7107SOL     OW27104   4.985   2.129   1.967 -0.4763 -0.1891 -0.4558
 7107SOL    HW127105   4.927   2.160   1.891 -0.7385 -1.3159 -0.7415
 7107SOL    HW227106   5.080   2.155   1.949 -0.5622 -0.2983 -1.0965
 7108SOL     OW27107   0.876   5.058   0.080  0.1144  0.5773 -0.3707
 7108SOL    HW127108   0.806   5.126   0.056  0.5212  2.0109  2.3074
 7108SOL    HW227109   0.965   5.103   0.086  0.4589 -0.2653  0.9611
 7109SOL     OW27110   7.769   9.085   0.699 -0.3551  0.0928  0.3474
 7109SOL    HW127111   7.679   9.062   0.662  0.1351 -1.1034 -0.1228
 7109SOL    HW227112   7.835   9.095   0.624  0.0290  0.4262  0.7253
 7110SOL     OW27113   4.005   4.102   2.026  0.4850 -0.2606 -0.1910
 7110SOL    HW127114   4.087   4.046   2.033  0.1343 -0.8864 -1.1260
 7110SOL    HW227115   3.941   4.061   1.961 -0.9005 -0.1966  1.0919
 7111SOL     OW27116   0.166   0.697   1.056  0.9879  0.2795 -0.6749
 7111SOL    HW127117   0.244   0.688   1.119  1.8249  1.8468 -1.4614
 7111SOL    HW227118   0.085   0.723   1.107  1.5353  1.0014 -0.1697
 7112SOL     OW27119   9.233   5.020   2.262 -0.1813  0.4361  0.3338
 7112SOL    HW127120   9.327   5.055   2.263 -0.1105  0.4235 -2.6367
 7112SOL    HW227121   9.174   5.082   2.210 -1.1513 -1.1476 -0.5004
 7114SOL     OW27122   2.181   1.782   1.853  0.1303  0.0751 -0.2578
 7114SOL    HW127123   2.125   1.784   1.935 -0.4504 -1.1343 -0.6065
 7114SOL    HW227124   2.218   1.690   1.840  0.9337  0.4767 -0.8750
 7115SOL     OW27125   3.727   7.729   0.165  0.0058 -0.0015  0.0565
 7115SOL    HW127126   3.683   7.767   0.246 -0.1150 -1.4318  0.6619
 7115SOL    HW227127   3.734   7.800   0.095  0.0617  1.2292  1.2898
 7116SOL     OW27128   9.439   9.310   0.487  0.1146  0.4017  0.5978
 7116SOL    HW127129   9.499   9.246   0.439 -0.7458  2.5854 -3.5950
 7116SOL    HW227130   9.370   9.259   0.538  1.9134 -2.0411  0.6978
 7118SOL     OW27131   7.898   8.521   1.965 -0.4048 -0.1822  0.3289
 7118SOL    HW127132   7.962   8.597   1.962  0.0945 -0.5477  1.2025
 7118SOL    HW227133   7.941   8.443   2.012 -0.7068 -1.1869 -1.0390
 7119SOL     OW27134   4.146   1.520   1.499  0.0827  0.4067 -0.1070
 7119SOL    HW127135   4.062   1.567   1.473  0.3089  0.4681 -0.7212
 7119SOL    HW227136   4.171   1.546   1.593  1.0414  2.7294 -0.9771
 7120SOL     OW27137   3.542   2.400   1.057  0.1907  0.6556  0.3550
 7120SOL    HW127138   3.572   2.347   0.978  0.1292  0.2355  0.6148
 7120SOL    HW227139   3.542   2.497   1.033 -1.8373  0.4006 -0.8222
 7121SOL     OW27140   1.788   9.705   0.114  0.3393 -0.3956 -0.0560
 7121SOL    HW127141   1.850   9.691   0.037 -1.5187  0.3856 -1.7293
 7121SOL    HW227142   1.744   9.794   0.105  0.7606  0.0831  2.4026
 7123SOL     OW27143   8.538   2.717   1.163  0.2847  0.1759  0.0087
 7123SOL    HW127144   8.617   2.754   1.212 -0.6287  3.2365 -0.6783
 7123SOL    HW227145   8.555   2.721   1.064  0.1037 -1.1747 -0.0859
 7124SOL     OW27146   2.828   9.609   0.755  0.7768 -0.3210 -0.6152
 7124SOL    HW127147   2.826   9.518   0.715  0.2521  0.0006 -1.3336
 7124SOL    HW227148   2.873   9.672   0.692  0.5469  0.0463 -0.4151
 7126SOL     OW27149   0.604   5.216   0.140  0.0695 -0.1940 -0.4695
 7126SOL    HW127150   0.535   5.289   0.129  0.1969 -0.2359 -1.5499
 7126SOL    HW227151   0.591   5.147   0.070  0.4729 -0.8120  0.0594
 7127SOL     OW27152   0.207   1.541   2.521 -0.1825 -0.7331 -0.3898
 7127SOL    HW127153   0.244   1.622   2.568 -1.3958 -0.4867  0.1528
 7127SOL    HW227154   0.212   1.555   2.422 -1.2749  0.4364 -0.3001
 7129SOL     OW27155   1.828   2.838   0.502  0.1278 -0.0578  0.2941
 7129SOL    HW127156   1.830   2.773   0.578  2.8310  0.1484  0.4583
 7129SOL    HW227157   1.918   2.843   0.460  0.2565  4.2112  0.8432
 7130SOL     OW27158   0.185   2.412   1.752  0.1542 -0.1554  0.0506
 7130SOL    HW127159   0.107   2.352   1.772 -0.2562 -0.0732 -1.2358
 7130SOL    HW227160   0.226   2.444   1.838  0.1197 -1.9310  0.7362
 7131SOL     OW27161   9.510   6.387   1.060 -0.0496  0.5734  0.5094
 7131SOL    HW127162   9.411   6.370   1.061 -0.3096  2.0907  1.1767
 7131SOL    HW227163   9.530   6.460   0.994  0.7496 -0.3926 -0.3332
 7133SOL     OW27164   2.799   2.897   0.067 -0.4687 -0.5583  0.6808
 7133SOL    HW127165   2.863   2.821   0.051  0.0960 -0.0718  0.5883
 7133SOL    HW227166   2.788   2.911   0.165 -2.9705 -2.7444  0.7591
 7134SOL     OW27167   9.509   5.220   0.228 -0.2107 -0.0201 -0.1804
 7134SOL    HW127168   9.441   5.249   0.296 -0.7689  0.0159 -0.7434
 7134SOL    HW227169   9.552   5.135   0.258 -1.3015 -0.6378 -0.3415
 7135SOL     OW27170   3.344   1.302   1.999  0.0587 -0.3363  0.0966
 7135SOL    HW127171   3.391   1.390   1.998 -0.4586 -0.0610 -0.1922
 7135SOL    HW227172   3.294   1.290   1.913 -3.2697  0.9576  1.7472
 7136SOL     OW27173   8.159   2.919   0.800  0.1951 -0.2718  0.1834
 7136SOL    HW127174   8.077   2.940   0.854 -1.3430 -2.2467 -1.3285
 7136SOL    HW227175   8.181   2.998   0.742  1.2907  1.4949  2.9014
 7137SOL     OW27176   9.938   8.586   0.171  0.2955  0.0524 -0.4339
 7137SOL    HW127177  10.016   8.596   0.108  0.5485 -0.5726 -0.2236
 7137SOL    HW227178   9.947   8.652   0.245  0.0631  0.7127 -0.9845
 7138SOL     OW27179   0.268   8.084   1.179 -0.5741  0.3533 -0.0435
 7138SOL    HW127180   0.317   8.126   1.255  0.0088 -1.7624  0.7708
 7138SOL    HW227181   0.178   8.052   1.210 -0.9187  0.7680 -0.5980
 7139SOL     OW27182   9.297   4.043   2.073 -0.0499  0.4917 -0.7510
 7139SOL    HW127183   9.364   4.032   1.999 -0.7505 -1.5022 -1.1183
 7139SOL    HW227184   9.211   4.078   2.035 -0.2793 -0.1441 -0.8197
 7140SOL     OW27185   9.742   7.213   1.568  0.0614  0.1766 -0.3143
 7140SOL    HW127186   9.810   7.185   1.499 -0.4891 -0.2426 -0.6997
 7140SOL    HW227187   9.659   7.158   1.556 -0.8677  1.6377 -0.7569
 7143SOL     OW27188   1.049   6.931   0.802 -0.3490  0.5281 -0.2898
 7143SOL    HW127189   1.056   6.999   0.876  1.6844  0.1430 -0.1174
 7143SOL    HW227190   0.973   6.869   0.822 -0.3624  0.9515  1.0525
 7144SOL     OW27191   3.708   9.095   2.496 -0.1502 -0.6883 -0.0148
 7144SOL    HW127192   3.612   9.068   2.492 -0.4137 -0.0167  1.4033
 7144SOL    HW227193   3.744   9.078   2.588  0.7567  0.1609 -0.1969
 7145SOL     OW27194   2.849   0.486   1.594 -0.1894 -0.3575 -0.4458
 7145SOL    HW127195   2.934   0.531   1.624 -0.3111 -1.1028  1.0721
 7145SOL    HW227196   2.869   0.428   1.515  0.2945  1.0748 -1.3937
 7148SOL     OW27197   9.942   8.225   2.139  0.2945  0.1015  0.3344
 7148SOL    HW127198   9.937   8.126   2.155 -2.4819  0.0618 -0.5633
 7148SOL    HW227199   9.952   8.242   2.041 -0.6502  0.7499  0.3535
 7149SOL     OW27200   1.433   3.511   1.483 -0.0186  0.2958 -0.3659
 7149SOL    HW127201   1.380   3.563   1.416 -0.7519 -0.7179 -0.5889
 7149SOL    HW227202   1.399   3.531   1.575 -0.3419  0.1707 -0.4563
 7150SOL     OW27203   4.488   0.680   1.827 -0.2895 -0.2468 -0.1934
 7150SOL    HW127204   4.469   0.583   1.840  0.3920 -0.1635  1.6028
 7150SOL    HW227205   4.581   0.692   1.792  0.2120 -0.1896  1.1218
 7151SOL     OW27206   1.572   7.258   1.706  0.1493 -0.1652 -0.8156
 7151SOL    HW127207   1.655   7.233   1.756  0.6369  0.4958 -1.2880
 7151SOL    HW227208   1.574   7.355   1.684 -0.5937 -0.2183 -1.1346
 7152SOL     OW27209   2.457   4.128   2.584  0.0989  0.3080  0.0920
 7152SOL    HW127210   2.446   4.160   2.490 -0.4626  2.0743  0.7401
 7152SOL    HW227211   2.457   4.028   2.585 -0.7926  0.2620 -1.6841
 7153SOL     OW27212   2.703   0.943   0.928 -0.9125  0.3764  0.7882
 7153SOL    HW127213   2.743   0.954   1.019 -0.7559  1.2864  0.6164
 7153SOL    HW227214   2.773   0.909   0.865 -0.3481  2.0583  0.4672
 7154SOL     OW27215   9.582   7.682   0.737  0.5048  0.8388  0.0823
 7154SOL    HW127216   9.552   7.715   0.647 -1.2588 -0.0345  0.3215
 7154SOL    HW227217   9.504   7.640   0.784  1.7431  0.0735  1.4696
 7155SOL     OW27218   8.185   2.764   0.416  0.1279 -0.6416  0.4964
 7155SOL    HW127219   8.196   2.673   0.376  2.4517 -0.9306  1.6900
 7155SOL    HW227220   8.147   2.755   0.508 -1.2876 -0.2509 -0.0269
 7156SOL     OW27221   2.035   3.968   0.735  0.8419 -0.5147  0.3635
 7156SOL    HW127222   1.980   4.050   0.753  0.2908 -0.7154 -0.3982
 7156SOL    HW227223   1.984   3.887   0.763  1.1454 -0.6430  0.5535
 7157SOL     OW27224   9.894   2.044   2.461  1.0626 -0.3284 -0.5835
 7157SOL    HW127225   9.963   2.099   2.507 -1.2986  0.7459  1.8107
 7157SOL    HW227226   9.804   2.083   2.478 -0.9205 -5.7657  2.6472
 7158SOL     OW27227   1.382   5.229   0.442  0.1111 -0.4525 -0.2333
 7158SOL    HW127228   1.367   5.303   0.376 -2.2144  1.0339  1.8836
 7158SOL    HW227229   1.394   5.143   0.393  0.3736  0.9071 -2.6441
 7159SOL     OW27230   9.285   1.658   1.558  0.2580 -0.5844  0.1198
 7159SOL    HW127231   9.307   1.583   1.620  0.0681 -0.6666  0.0872
 7159SOL    HW227232   9.207   1.633   1.502  0.0158 -0.2451  0.3075
 7160SOL     OW27233   4.080   2.697   1.032 -0.2439 -0.0353  0.5704
 7160SOL    HW127234   4.130   2.612   1.050  2.0632  1.1103 -0.2396
 7160SOL    HW227235   4.106   2.732   0.942 -0.2033  2.1886  1.4185
 7161SOL     OW27236   1.526   1.082   0.316 -0.2928  0.3859 -0.0933
 7161SOL    HW127237   1.436   1.073   0.273  0.4071 -1.2158 -1.2505
 7161SOL    HW227238   1.515   1.083   0.415 -1.4824 -0.9646 -0.1982
 7162SOL     OW27239   8.416   8.991   1.056 -0.1045  0.1725 -0.2352
 7162SOL    HW127240   8.492   8.960   0.999  0.5651  1.0582  0.1791
 7162SOL    HW227241   8.420   9.090   1.066  0.0248 -0.0126  1.7115
 7163SOL     OW27242   1.547   7.222   2.438  0.1544 -0.5741 -0.1703
 7163SOL    HW127243   1.482   7.239   2.512  0.1494  0.9913 -0.5281
 7163SOL    HW227244   1.636   7.262   2.462  1.1923 -3.2278  0.5852
 7164SOL     OW27245   9.295   5.787   0.194 -0.4814  0.0740 -0.7157
 7164SOL    HW127246   9.373   5.818   0.249  0.4263 -1.5397 -1.0808
 7164SOL    HW227247   9.304   5.824   0.102 -0.2652  0.0803 -0.6940
 7165SOL     OW27248   2.609   7.115   0.929  0.7312 -0.0923  0.1200
 7165SOL    HW127249   2.581   7.090   1.022  1.0197 -2.7989 -0.4757
 7165SOL    HW227250   2.680   7.186   0.934  1.2096 -0.6643  1.9988
 7166SOL     OW27251   3.721   5.309   2.610 -0.6003 -0.4818 -0.2324
 7166SOL    HW127252   3.794   5.328   2.676  1.6248 -0.3865 -2.6388
 7166SOL    HW227253   3.660   5.240   2.648 -0.3351  0.7316  2.5726
 7167SOL     OW27254   2.806   9.352   0.371 -0.3313 -0.0737 -0.1188
 7167SOL    HW127255   2.734   9.285   0.353 -0.0221 -0.6879  0.8899
 7167SOL    HW227256   2.891   9.322   0.328 -0.2557 -0.2068  0.1220
 7168SOL     OW27257   4.379   2.517   1.497 -0.1033 -0.0009 -0.3527
 7168SOL    HW127258   4.460   2.524   1.438  0.4366  0.3303  0.4236
 7168SOL    HW227259   4.304   2.475   1.446  1.1935 -2.2767 -0.4523
 7169SOL     OW27260   3.248   0.383   2.240 -0.0071 -0.3043 -0.1961
 7169SOL    HW127261   3.280   0.351   2.329 -1.9600 -1.8690 -0.0269
 7169SOL    HW227262   3.278   0.319   2.169  0.3654  0.1985 -0.4954
 7170SOL     OW27263   2.127   2.945   2.554  0.3562  0.1568  0.8957
 7170SOL    HW127264   2.196   2.875   2.572  1.2461  1.2516  1.8009
 7170SOL    HW227265   2.046   2.927   2.611  0.2891 -0.5573  0.5755
 7171SOL     OW27266   2.158   3.554   1.800  0.0012 -0.1949  0.0146
 7171SOL    HW127267   2.116   3.512   1.880 -1.1921  1.2906  0.1894
 7171SOL    HW227268   2.258   3.553   1.810 -0.1610  1.9334  2.5794
 7173SOL     OW27269   0.938   6.847   2.501 -0.0626 -0.3749 -0.2236
 7173SOL    HW127270   0.949   6.942   2.529  0.2123 -0.3919 -0.2750
 7173SOL    HW227271   0.860   6.807   2.549  0.2245 -0.3156  0.3008
 7174SOL     OW27272   4.243   1.346   2.540 -0.0411  0.5675  0.3508
 7174SOL    HW127273   4.176   1.276   2.564 -0.2673  0.8027  0.4068
 7174SOL    HW227274   4.196   1.430   2.513  0.1844  0.0019 -1.9403
 7175SOL     OW27275   4.554   9.477   0.077  0.2765 -0.0288  0.3126
 7175SOL    HW127276   4.460   9.483   0.043  0.3680  1.7355  0.2854
 7175SOL    HW227277   4.612   9.434   0.008 -0.8531 -2.9826  1.1205
 7177SOL     OW27278   0.853   2.115   0.149 -0.0335 -0.0789 -0.2563
 7177SOL    HW127279   0.919   2.045   0.175 -0.3681 -0.0938  0.5770
 7177SOL    HW227280   0.898   2.186   0.096  0.5221 -0.3894 -0.2009
 7178SOL     OW27281   9.853   4.049   2.566 -0.4851 -0.2411  0.1319
 7178SOL    HW127282   9.753   4.041   2.562 -0.5035 -1.7691  2.3058
 7178SOL    HW227283   9.883   4.125   2.510 -2.8936  0.2798 -0.5066
 7180SOL     OW27284   8.657   1.546   0.448  0.2706  0.2739  0.2644
 7180SOL    HW127285   8.667   1.455   0.408 -0.1475  0.9530 -1.4348
 7180SOL    HW227286   8.693   1.546   0.541  0.5098 -1.5576  0.1844
 7182SOL     OW27287   3.986   7.426   1.024 -0.3642 -0.5006 -0.2731
 7182SOL    HW127288   4.027   7.447   0.936 -1.7588 -0.4749 -0.9306
 7182SOL    HW227289   3.957   7.511   1.069 -1.3181 -0.6337 -0.6215
 7183SOL     OW27290   1.037   7.385   0.789 -0.5077  0.2967 -0.2134
 7183SOL    HW127291   1.079   7.340   0.710 -0.8774 -0.4274 -0.0007
 7183SOL    HW227292   0.957   7.332   0.819  0.2975 -0.0471  1.3502
 7184SOL     OW27293   2.101   1.573   0.234  0.3305 -0.1604  0.2084
 7184SOL    HW127294   2.023   1.567   0.172  0.3338  0.9015  0.0991
 7184SOL    HW227295   2.073   1.543   0.326  0.4777 -2.3104 -0.4138
 7185SOL     OW27296   8.212   9.798   0.357  0.3024  0.0066 -0.1144
 7185SOL    HW127297   8.193   9.834   0.266 -0.0085 -0.1280 -0.1040
 7185SOL    HW227298   8.268   9.715   0.348  1.1792  0.5885 -0.1281
 7187SOL     OW27299   9.055   3.871   2.464 -0.1066 -0.2781 -0.4465
 7187SOL    HW127300   8.974   3.817   2.488  1.3576 -2.2863  0.1501
 7187SOL    HW227301   9.112   3.882   2.546  1.9220 -1.8976 -1.6014
 7188SOL     OW27302   2.155   4.386   0.021 -0.1097  0.3532  0.1760
 7188SOL    HW127303   2.108   4.329  -0.046  0.7416  0.6099 -0.6559
 7188SOL    HW227304   2.238   4.339   0.052 -0.3940  0.3251  0.8921
 7189SOL     OW27305   9.653   5.206   0.638 -0.1614  0.3294 -0.0870
 7189SOL    HW127306   9.708   5.131   0.675  1.6263  2.9751  2.8055
 7189SOL    HW227307   9.700   5.246   0.559 -0.3927 -0.6047 -0.7078
 7190SOL     OW27308   7.990   0.778   1.683  0.4783 -0.4484 -0.2247
 7190SOL    HW127309   8.047   0.856   1.708 -0.1782  0.1500 -0.5644
 7190SOL    HW227310   7.957   0.733   1.766  1.0643 -0.5239 -0.0290
 7191SOL     OW27311   9.498   2.944   2.196 -0.1875 -0.0969  0.1140
 7191SOL    HW127312   9.586   2.961   2.152  0.6508 -0.4672  1.6067
 7191SOL    HW227313   9.457   3.031   2.224 -0.7782  0.1473 -1.4776
 7192SOL     OW27314   5.412   8.804   1.910  0.7000 -0.1661  0.0391
 7192SOL    HW127315   5.348   8.760   1.972 -2.4383  2.2581 -1.2965
 7192SOL    HW227316   5.411   8.903   1.926 -0.3980  0.5494 -3.9371
 7193SOL     OW27317   2.766   4.215   0.082 -0.2573  0.0100 -0.0252
 7193SOL    HW127318   2.790   4.279   0.155  1.0649 -0.4452 -0.0496
 7193SOL    HW227319   2.738   4.266   0.001  0.9718  0.5642 -0.1063
 7194SOL     OW27320   1.397   2.079   0.982  0.6605  0.0101 -0.1309
 7194SOL    HW127321   1.340   1.997   0.974  0.7619  0.0810 -1.8235
 7194SOL    HW227322   1.480   2.057   1.032  0.1219 -0.6170  0.4974
 7195SOL     OW27323   4.394   8.852   2.095  0.5330 -0.4785 -0.2027
 7195SOL    HW127324   4.409   8.856   2.194 -0.2236 -1.3784 -0.0388
 7195SOL    HW227325   4.334   8.774   2.074  1.3502 -0.7842 -1.4476
 7196SOL     OW27326   2.100   5.740   0.951  0.4759  0.1099 -0.1447
 7196SOL    HW127327   2.072   5.813   1.013  5.6850  2.1457  0.0740
 7196SOL    HW227328   2.105   5.776   0.857 -0.5252 -1.0158 -0.6419
 7197SOL     OW27329   0.106   9.535   0.378 -0.1379  0.2739  0.5665
 7197SOL    HW127330   0.008   9.526   0.361 -0.2548  1.1438  0.7506
 7197SOL    HW227331   0.136   9.627   0.353  0.3483  0.4894  1.8613
 7199SOL     OW27332   0.644   5.438   1.097  0.2086 -0.1851 -0.5492
 7199SOL    HW127333   0.739   5.414   1.079 -0.1739 -1.7003 -0.6440
 7199SOL    HW227334   0.629   5.443   1.196  0.0255 -1.5595 -0.4924
 7200SOL     OW27335   3.241   7.140   0.207 -0.3124  0.0883 -0.0619
 7200SOL    HW127336   3.317   7.194   0.242  0.2530 -0.5684 -0.2556
 7200SOL    HW227337   3.220   7.066   0.271 -1.2753  0.7064  0.3471
 7201SOL     OW27338   2.125   5.780   2.581 -0.0284 -0.1248  0.2882
 7201SOL    HW127339   2.129   5.814   2.487 -1.2629 -3.0214 -0.8828
 7201SOL    HW227340   2.069   5.841   2.637  0.0283  1.1783 -1.0641
 7203SOL     OW27341   9.436   0.556   1.822  0.8902  0.0195  0.0726
 7203SOL    HW127342   9.470   0.525   1.911 -0.7452 -0.1517  0.6553
 7203SOL    HW227343   9.451   0.654   1.813  3.1589 -0.3265 -0.4455
 7204SOL     OW27344   1.132   0.144   0.072  0.0211  0.3560 -0.3409
 7204SOL    HW127345   1.228   0.161   0.050  0.6955  0.1299  2.2725
 7204SOL    HW227346   1.110   0.048   0.057  0.7758 -0.0383  1.0222
 7205SOL     OW27347   3.497   4.520   1.954  0.5170  0.1749  0.1284
 7205SOL    HW127348   3.549   4.434   1.963 -0.8329 -0.4017  3.1829
 7205SOL    HW227349   3.560   4.597   1.952  1.6274 -0.6843  1.1609
 7206SOL     OW27350   1.712   8.591   2.296  0.2718  0.6562 -0.7783
 7206SOL    HW127351   1.799   8.629   2.329  0.5951  0.9793 -1.9620
 7206SOL    HW227352   1.680   8.645   2.218 -1.8207  1.5320  0.6205
 7207SOL     OW27353   3.286   3.465   1.999  0.0057 -0.6251 -0.4674
 7207SOL    HW127354   3.349   3.387   2.001  0.5960 -0.2526 -2.9725
 7207SOL    HW227355   3.193   3.432   1.985  0.0983 -0.9492 -0.3223
 7209SOL     OW27356   1.197   8.846   1.093 -0.3745  0.1529  0.2858
 7209SOL    HW127357   1.208   8.920   1.159 -1.6121  0.5717  0.0318
 7209SOL    HW227358   1.110   8.856   1.045  0.0411 -0.7281 -0.6828
 7210SOL     OW27359   8.870   8.137   1.883  0.0263 -0.2772 -0.6475
 7210SOL    HW127360   8.833   8.219   1.839  1.8247  0.8694 -0.1143
 7210SOL    HW227361   8.854   8.058   1.825  1.6664  1.0813 -3.0754
 7212SOL     OW27362   8.265   1.900   1.476 -0.0740  0.3092  0.7650
 7212SOL    HW127363   8.284   1.802   1.466  1.2863  0.7224 -0.9661
 7212SOL    HW227364   8.167   1.917   1.465 -0.1692 -0.7301 -0.0499
 7213SOL     OW27365   7.109   9.957   2.285  0.2564  0.2585 -0.4548
 7213SOL    HW127366   7.040  10.012   2.238 -0.1426 -1.1629 -1.5441
 7213SOL    HW227367   7.165   9.909   2.218  1.2903  0.1556  0.4723
 7214SOL     OW27368   3.439   6.633   1.485  0.3000 -0.3158  0.3222
 7214SOL    HW127369   3.342   6.617   1.501 -0.1770  0.7300 -1.3718
 7214SOL    HW227370   3.491   6.615   1.569 -1.5249  0.5788  1.6789
 7216SOL     OW27371   3.648   0.352   0.113  0.9720 -0.6227  0.2215
 7216SOL    HW127372   3.586   0.384   0.184  3.7811 -0.6379  2.7777
 7216SOL    HW227373   3.615   0.264   0.078 -0.1699 -0.8648  1.8458
 7217SOL     OW27374   8.598   5.922   1.083  0.1427  0.2973 -0.3219
 7217SOL    HW127375   8.551   5.951   1.000 -0.1416  0.5852 -0.0672
 7217SOL    HW227376   8.552   5.963   1.163  0.1681 -0.2965 -0.0011
 7218SOL     OW27377   0.329   6.133   0.016  0.0361 -0.0934  0.3913
 7218SOL    HW127378   0.253   6.185   0.054 -1.0049 -0.5589 -0.9898
 7218SOL    HW227379   0.329   6.142  -0.084  1.3090 -0.7503  0.3198
 7219SOL     OW27380   2.862   9.232   2.078  0.1173  0.4734 -0.2751
 7219SOL    HW127381   2.781   9.286   2.102 -0.3885 -1.0554  1.5801
 7219SOL    HW227382   2.919   9.284   2.014 -1.9618  1.8555 -1.0546
 7220SOL     OW27383   3.258   5.094   0.476  0.4626  0.2299  0.0873
 7220SOL    HW127384   3.315   5.152   0.417  0.7928  0.0756  0.2517
 7220SOL    HW227385   3.228   5.013   0.425  0.7973  0.0666  0.1495
 7221SOL     OW27386   0.539   1.059   1.224 -0.4925 -0.0330  0.2680
 7221SOL    HW127387   0.553   0.967   1.187 -0.2384  0.4564 -0.8771
 7221SOL    HW227388   0.628   1.101   1.244 -0.6059 -0.0078  0.7232
 7223SOL     OW27389   1.751   6.626   1.857 -0.0372 -0.1048 -0.0319
 7223SOL    HW127390   1.652   6.637   1.848 -0.2769 -0.7025  1.5373
 7223SOL    HW227391   1.796   6.715   1.851 -0.7301  0.2376 -0.1982
 7224SOL     OW27392   4.021   4.876   2.496  0.1066 -0.0590 -0.4279
 7224SOL    HW127393   4.085   4.952   2.507 -1.1994  1.0174 -0.1715
 7224SOL    HW227394   4.065   4.791   2.524  1.5831  0.5977 -0.7280
 7225SOL     OW27395   2.983   0.081   1.352 -0.3611 -0.0409  0.3488
 7225SOL    HW127396   2.985   0.035   1.263  1.6927  1.4651 -0.4281
 7225SOL    HW227397   2.891   0.078   1.389 -0.5378 -3.8509 -0.1428
 7226SOL     OW27398   0.434   6.634   1.403  0.3149  0.7247  0.6666
 7226SOL    HW127399   0.365   6.575   1.362  1.7743 -0.2347 -0.4509
 7226SOL    HW227400   0.392   6.690   1.475 -1.7243  0.5716 -0.3824
 7228SOL     OW27401   8.301   2.096   1.013  0.0143 -0.6008 -0.4674
 7228SOL    HW127402   8.351   2.051   1.086  1.0547 -0.5583 -1.1406
 7228SOL    HW227403   8.299   2.195   1.030  2.1716 -0.3339 -1.6085
 7229SOL     OW27404   1.406   3.219   1.461  0.0887 -0.5079  0.1560
 7229SOL    HW127405   1.492   3.199   1.508 -0.3874  0.7792  1.6080
 7229SOL    HW227406   1.377   3.313   1.482 -0.6000 -0.1905 -2.0081
 7230SOL     OW27407   8.639   9.720   0.959 -0.1564 -0.3307 -0.0352
 7230SOL    HW127408   8.730   9.704   0.922 -0.5631 -2.7397 -0.0526
 7230SOL    HW227409   8.575   9.652   0.922 -1.5466  0.0858  1.5264
 7231SOL     OW27410  10.002   8.797   2.544 -0.2570  0.2034 -0.2278
 7231SOL    HW127411   9.966   8.783   2.636 -0.7316 -0.7395 -0.5476
 7231SOL    HW227412   9.967   8.883   2.506 -0.4961  0.3230  0.2652
 7234SOL     OW27413   4.171   9.906   2.351  0.0481  0.5007  0.0647
 7234SOL    HW127414   4.127   9.945   2.270  0.4568 -0.7286 -0.7556
 7234SOL    HW227415   4.224   9.826   2.325  0.3565  0.2193  1.5238
 7235SOL     OW27416   0.020   9.591   2.312  0.2792 -0.0689  0.0819
 7235SOL    HW127417  -0.026   9.514   2.357  1.1162 -0.4720  0.2464
 7235SOL    HW227418   0.114   9.566   2.290  0.7366  1.0921  0.6531
 7237SOL     OW27419   1.761   5.730   2.162 -0.5668  0.6723 -0.7707
 7237SOL    HW127420   1.755   5.775   2.252  1.6616 -1.6851  0.6182
 7237SOL    HW227421   1.679   5.676   2.146  0.0138 -0.7174  0.8826
 7238SOL     OW27422   0.750   7.205   0.562 -0.0389  0.6259 -0.4595
 7238SOL    HW127423   0.777   7.243   0.650 -1.0978  0.5512 -0.0851
 7238SOL    HW227424   0.718   7.111   0.575  0.6710  0.2999 -1.0678
 7239SOL     OW27425   3.581   9.967   2.352  0.2895  0.4266  0.9160
 7239SOL    HW127426   3.483   9.985   2.338  0.4228 -0.3073 -1.1955
 7239SOL    HW227427   3.592   9.874   2.386  0.3333 -0.0411 -0.3599
 7240SOL     OW27428   3.670   3.842   2.663 -0.3035  0.3486  0.1991
 7240SOL    HW127429   3.588   3.784   2.668  0.3767 -0.5499  0.9565
 7240SOL    HW227430   3.676   3.883   2.572 -0.5499 -1.1279 -0.4846
 7241SOL     OW27431   3.815   0.639   2.298 -0.4415 -0.0996  0.6672
 7241SOL    HW127432   3.779   0.558   2.343  1.5720 -0.6794  1.2911
 7241SOL    HW227433   3.854   0.614   2.210 -0.6963  0.3608  0.4200
 7242SOL     OW27434   0.750   1.425   2.188 -0.5539 -0.6561  0.2258
 7242SOL    HW127435   0.704   1.506   2.224 -1.3392 -1.4124  0.9684
 7242SOL    HW227436   0.847   1.444   2.174 -0.4666 -0.0083  1.6668
 7243SOL     OW27437   3.402   5.923   1.442  0.0714 -0.0633 -0.1970
 7243SOL    HW127438   3.484   5.913   1.498 -0.9049 -0.4482  1.1932
 7243SOL    HW227439   3.419   5.989   1.369  1.5759 -0.0584  0.1365
 7244SOL     OW27440   3.317   0.114   0.889  0.1998 -0.2562  0.1059
 7244SOL    HW127441   3.385   0.121   0.816  1.3076 -0.6324  1.0914
 7244SOL    HW227442   3.306   0.018   0.917  1.5978  0.1292  2.1055
 7245SOL     OW27443   7.705   0.460   1.880  0.6215  0.2880 -0.4097
 7245SOL    HW127444   7.612   0.421   1.879  0.7877 -0.1122 -1.4375
 7245SOL    HW227445   7.758   0.420   1.805  1.8329  0.0316  0.5791
 7246SOL     OW27446   8.800   0.987   0.082  0.1399 -0.3234  1.0235
 7246SOL    HW127447   8.701   0.989   0.074  0.1435  0.7400  1.0901
 7246SOL    HW227448   8.826   0.985   0.179  0.1704 -2.3217  0.9790
 7247SOL     OW27449   0.420   1.700   0.929 -0.4194  0.6273 -0.3182
 7247SOL    HW127450   0.456   1.754   0.853 -0.8887  0.3488 -0.7378
 7247SOL    HW227451   0.337   1.653   0.900 -0.4766  0.3458  0.3014
 7248SOL     OW27452   7.518   0.413   0.696  0.1244 -0.4841  0.1395
 7248SOL    HW127453   7.590   0.349   0.723  1.7291  1.5426  0.7975
 7248SOL    HW227454   7.475   0.380   0.611  1.4976 -1.9705 -0.0104
 7249SOL     OW27455   9.187   7.151   1.288 -0.6187 -0.0921 -0.5507
 7249SOL    HW127456   9.088   7.157   1.302 -0.5760 -1.5621  0.5024
 7249SOL    HW227457   9.206   7.089   1.212 -0.4742 -0.8155  0.0681
 7250SOL     OW27458   3.918   0.463   1.835 -0.3651 -0.1108  0.4725
 7250SOL    HW127459   3.904   0.368   1.806  2.0825 -0.3187 -0.0765
 7250SOL    HW227460   3.919   0.523   1.755  0.2726  0.0962  0.6340
 7251SOL     OW27461   2.873   6.953   1.323 -0.5306  0.2471  0.4785
 7251SOL    HW127462   2.802   6.928   1.258 -1.6745 -0.6148  2.0367
 7251SOL    HW227463   2.877   7.053   1.332 -1.0242  0.3278 -0.1499
 7252SOL     OW27464   0.279   0.574   0.370  0.2773 -0.2586 -1.5128
 7252SOL    HW127465   0.187   0.615   0.378  0.9895  1.6354 -2.6407
 7252SOL    HW227466   0.288   0.501   0.437 -1.4617  0.6895 -0.1794
 7253SOL     OW27467   7.762   1.730   1.367 -0.0262  0.1938  0.2231
 7253SOL    HW127468   7.745   1.659   1.436 -0.8136 -0.9640 -1.1248
 7253SOL    HW227469   7.677   1.748   1.318  0.4590  1.2338 -0.2309
 7254SOL     OW27470   2.755   3.891   0.785  0.2134 -0.7057  0.0046
 7254SOL    HW127471   2.657   3.874   0.799  0.0483  1.6509  2.1375
 7254SOL    HW227472   2.807   3.844   0.857  0.4966 -0.2514  0.0960
 7255SOL     OW27473   3.934   3.335   1.806  0.1204 -0.0334  0.2069
 7255SOL    HW127474   4.011   3.291   1.761 -0.4293  0.1597 -0.9393
 7255SOL    HW227475   3.851   3.320   1.752 -0.4622  0.6106  0.9078
 7256SOL     OW27476   3.761   0.117   0.712 -0.0884  0.5185  0.2428
 7256SOL    HW127477   3.756   0.193   0.776 -0.6027  1.3866 -0.8171
 7256SOL    HW227478   3.771   0.152   0.619  0.1127 -0.7184 -0.2181
 7257SOL     OW27479   1.216   5.513   2.530  0.4908 -0.0751 -0.0080
 7257SOL    HW127480   1.149   5.441   2.546 -0.9914  1.1153 -0.6278
 7257SOL    HW227481   1.184   5.598   2.574  2.0000  0.3012  0.3723
 7258SOL     OW27482   4.234   2.999   1.165 -0.4805  0.2428  0.2268
 7258SOL    HW127483   4.174   2.949   1.102 -1.3509 -0.1698  1.3514
 7258SOL    HW227484   4.226   3.097   1.148  0.3531  0.0660 -1.2286
 7259SOL     OW27485   2.457   5.888   1.119  0.2743 -0.2466 -0.1683
 7259SOL    HW127486   2.412   5.931   1.197  2.2713  1.0979  0.2875
 7259SOL    HW227487   2.395   5.888   1.040 -1.1676 -0.1442  0.9470
 7260SOL     OW27488   3.210   1.182   0.948 -0.5969  0.2085  0.6429
 7260SOL    HW127489   3.154   1.100   0.938 -0.9051  0.3690  0.9915
 7260SOL    HW227490   3.202   1.239   0.866 -2.0056  0.8634  1.2108
 7261SOL     OW27491   0.168   9.033   0.484  0.0298 -0.3403  0.9079
 7261SOL    HW127492   0.127   9.103   0.426  0.3923 -1.0053 -0.1456
 7261SOL    HW227493   0.096   8.985   0.535 -0.1317  1.6809  2.6536
 7263SOL     OW27494   4.269   9.649   1.406 -0.5216  0.0328 -0.0368
 7263SOL    HW127495   4.191   9.633   1.345 -0.1507  0.3665 -0.6051
 7263SOL    HW227496   4.242   9.710   1.480 -0.5920  0.8208 -0.6966
 7264SOL     OW27497   6.581   9.597   2.217 -0.1458 -0.1478 -0.1960
 7264SOL    HW127498   6.533   9.635   2.296  0.1260 -3.0300  1.4215
 7264SOL    HW227499   6.649   9.663   2.184 -0.3195  1.1114  1.9038
 7265SOL     OW27500   2.124   4.091   0.016  0.0567  0.0387 -0.6792
 7265SOL    HW127501   2.089   4.139   0.097  1.2783 -0.4018  0.1313
 7265SOL    HW227502   2.089   4.135  -0.067 -0.1154  1.3378  0.0750
 7266SOL     OW27503   7.351   1.349   0.564 -0.2570 -0.0694  0.2611
 7266SOL    HW127504   7.375   1.371   0.469 -2.0858  2.6748  0.3701
 7266SOL    HW227505   7.429   1.370   0.623  0.6396 -1.0836 -0.5498
 7268SOL     OW27506   0.599   3.939   1.580  0.4297  0.0849  0.0330
 7268SOL    HW127507   0.602   3.843   1.553 -2.0939 -0.4770  1.6486
 7268SOL    HW227508   0.507   3.976   1.565  1.4949  2.4513 -1.0976
 7269SOL     OW27509   2.102   8.472   0.097 -0.0977  0.8547  0.1005
 7269SOL    HW127510   2.126   8.532   0.174  0.8649  0.2715  0.2699
 7269SOL    HW227511   2.044   8.521   0.033  1.6125  2.3448 -0.3369
 7270SOL     OW27512   9.689   6.451   1.258 -0.6874  0.5041 -0.4414
 7270SOL    HW127513   9.672   6.514   1.333 -1.2831  1.3145 -1.2443
 7270SOL    HW227514   9.606   6.441   1.203 -1.0155 -2.0950  0.5002
 7271SOL     OW27515   2.858   5.932   2.278  0.2796  0.4890  0.2039
 7271SOL    HW127516   2.849   5.965   2.371 -0.3917  1.6644 -0.2680
 7271SOL    HW227517   2.955   5.917   2.256  0.6114  2.3731  0.3521
 7272SOL     OW27518   9.548   3.473   0.129  0.0459  0.0491 -0.4646
 7272SOL    HW127519   9.455   3.482   0.093 -0.1888 -0.0957  0.1047
 7272SOL    HW227520   9.612   3.458   0.053 -0.6107 -1.5125 -0.7222
 7273SOL     OW27521   8.079   0.074   0.635 -0.1936  0.0814  0.1109
 7273SOL    HW127522   8.074  -0.026   0.641  1.1910 -0.0164 -0.2191
 7273SOL    HW227523   8.174   0.103   0.646 -0.6062  1.3717  0.2974
 7274SOL     OW27524   3.500   6.646   2.375 -0.2880  0.4400  0.0625
 7274SOL    HW127525   3.542   6.736   2.360 -0.8903  0.5334 -1.1157
 7274SOL    HW227526   3.466   6.640   2.468  0.9902  0.9238  0.5795
 7275SOL     OW27527   3.395   4.056   1.298 -1.0709  0.6824  0.0971
 7275SOL    HW127528   3.464   4.088   1.233 -0.5087  1.0276  0.8581
 7275SOL    HW227529   3.313   4.114   1.290 -0.7406  1.1637  0.1874
 7276SOL     OW27530   0.128   9.487   1.776  0.4302  0.2027 -0.3577
 7276SOL    HW127531   0.212   9.541   1.771  0.7258 -0.2967 -0.7453
 7276SOL    HW227532   0.128   9.418   1.704  0.0650 -0.3425  0.1614
 7278SOL     OW27533   4.354   9.763   0.364 -0.1923 -0.2068  0.1470
 7278SOL    HW127534   4.311   9.794   0.279  3.4783  0.8855 -1.4002
 7278SOL    HW227535   4.415   9.686   0.344  0.4542 -0.1511  1.8508
 7279SOL     OW27536   0.452   7.547   0.356 -0.7219  0.9724  0.3446
 7279SOL    HW127537   0.490   7.629   0.314  0.7049  1.5613  2.7024
 7279SOL    HW227538   0.413   7.570   0.445 -0.0195 -0.9690  1.1641
 7281SOL     OW27539   1.493   1.469   2.373 -0.6544 -0.2901 -0.2308
 7281SOL    HW127540   1.494   1.369   2.370 -1.3784 -0.2765 -0.8105
 7281SOL    HW227541   1.399   1.502   2.368 -0.4069  0.4287 -0.2065
 7283SOL     OW27542   3.873   8.141   1.473  0.2642  0.5043 -0.1277
 7283SOL    HW127543   3.969   8.169   1.463  1.1743 -2.6074 -0.7394
 7283SOL    HW227544   3.856   8.111   1.566  1.3174 -3.5654 -1.1121
 7284SOL     OW27545   9.185   8.574   1.861  0.1944 -0.2746 -0.4149
 7284SOL    HW127546   9.177   8.635   1.783 -0.7326 -0.0511 -0.1441
 7284SOL    HW227547   9.265   8.515   1.849  1.2629  1.1790 -0.5396
 7285SOL     OW27548   8.942   9.770   2.464 -0.5015 -0.9061 -0.3312
 7285SOL    HW127549   8.861   9.785   2.407 -1.7750  0.2655  1.7129
 7285SOL    HW227550   9.008   9.843   2.446 -2.2166  1.3132  1.8454
 7286SOL     OW27551   4.185   1.518   1.163 -0.1281 -0.2748 -0.1201
 7286SOL    HW127552   4.207   1.485   1.255 -0.5612  2.1430  0.8875
 7286SOL    HW227553   4.100   1.569   1.166 -0.5355 -0.8114 -2.0412
 7287SOL     OW27554   4.502   0.021   2.088  0.2268  0.3281 -0.3306
 7287SOL    HW127555   4.406   0.024   2.060  0.1878  1.3834 -0.1071
 7287SOL    HW227556   4.555   0.085   2.031  0.6147  0.4904  0.2153
 7289SOL     OW27557   8.836   4.859   2.178  0.5746  0.1832 -0.2064
 7289SOL    HW127558   8.840   4.911   2.264 -0.1765  0.1437 -0.1436
 7289SOL    HW227559   8.912   4.885   2.120  1.2366  0.0261  0.5857
 7290SOL     OW27560   2.734   1.984   0.405 -0.3901 -0.1629  0.1242
 7290SOL    HW127561   2.652   2.038   0.382  0.6871  1.3001 -0.3389
 7290SOL    HW227562   2.762   1.932   0.325 -1.3700 -1.3543  0.5405
 7291SOL     OW27563   2.137   6.542   1.025 -0.0777  0.2309  0.4921
 7291SOL    HW127564   2.130   6.586   0.935 -2.1690 -0.4157  0.3106
 7291SOL    HW227565   2.173   6.608   1.091 -0.1789  1.2506 -0.4545
 7293SOL     OW27566   2.168   4.918   0.662  0.0174 -0.1746 -0.3196
 7293SOL    HW127567   2.134   5.004   0.623 -0.2883 -0.7025 -1.2385
 7293SOL    HW227568   2.228   4.938   0.740 -2.4743  0.7643  1.4092
 7294SOL     OW27569   8.499   3.619   2.298  0.2062  0.0625 -0.1743
 7294SOL    HW127570   8.461   3.656   2.383 -1.0249  0.6523 -0.9711
 7294SOL    HW227571   8.426   3.575   2.245  1.0850 -0.8665 -0.6431
 7297SOL     OW27572   8.845   5.897   0.552  0.9139  0.1701 -0.0754
 7297SOL    HW127573   8.917   5.829   0.562  1.0492  0.4856  1.2608
 7297SOL    HW227574   8.784   5.892   0.631  0.2286  0.7810 -0.5617
 7298SOL     OW27575   9.178   9.807   0.244  0.2379  0.4079 -0.6795
 7298SOL    HW127576   9.113   9.755   0.300 -0.6733  1.1055 -1.0599
 7298SOL    HW227577   9.271   9.781   0.267 -0.1340  0.4446  0.9282
 7299SOL     OW27578   8.542   5.020   2.102  0.1077  0.0841 -0.0131
 7299SOL    HW127579   8.492   5.040   2.186  1.2733  1.4129  0.3746
 7299SOL    HW227580   8.608   4.947   2.119 -1.0910 -1.1097 -0.3253
 7300SOL     OW27581   3.103   3.920   2.499 -0.4648 -0.1740 -0.0106
 7300SOL    HW127582   3.105   3.941   2.402 -1.2497  1.9301  0.4118
 7300SOL    HW227583   3.011   3.890   2.525 -0.1270 -1.2272 -0.0109
 7301SOL     OW27584   4.344   0.098   2.479  0.2302  0.4952 -0.3921
 7301SOL    HW127585   4.297   0.041   2.412  0.5809  0.5747 -0.7084
 7301SOL    HW227586   4.393   0.040   2.544  1.3356  0.4301 -1.2484
 7302SOL     OW27587   1.802   1.875   2.623 -0.2391 -0.3988 -0.0136
 7302SOL    HW127588   1.740   1.801   2.596 -1.4660  0.3067  0.7894
 7302SOL    HW227589   1.786   1.898   2.719 -1.8758  2.7793 -0.9836
 7303SOL     OW27590   2.022   0.595   1.121  0.3137  0.1615  0.3457
 7303SOL    HW127591   2.052   0.500   1.118  1.1743  0.4068  0.9809
 7303SOL    HW227592   1.998   0.620   1.215  0.9883  0.8408  0.3402
 7304SOL     OW27593   4.373   7.941   1.129 -0.1543 -0.5354  0.0953
 7304SOL    HW127594   4.277   7.957   1.152  0.0447  0.4575  0.2611
 7304SOL    HW227595   4.431   7.997   1.188  0.6057 -2.2818  1.0448
 7305SOL     OW27596   0.589   7.714   0.684 -0.1046 -0.1037 -0.2808
 7305SOL    HW127597   0.609   7.626   0.727  0.7330 -0.9799 -2.3852
 7305SOL    HW227598   0.675   7.755   0.652 -0.8598 -0.1976 -2.4621
 7306SOL     OW27599   1.621   8.392   1.612 -0.0531  0.3776  0.0153
 7306SOL    HW127600   1.687   8.428   1.679  0.6911 -1.1002  0.1025
 7306SOL    HW227601   1.635   8.294   1.601 -0.0487  0.6121 -2.4377
 7307SOL     OW27602   9.988   1.827   2.273  0.5636 -0.2589 -0.0326
 7307SOL    HW127603  10.012   1.913   2.318 -0.3626 -0.0159  0.0256
 7307SOL    HW227604   9.968   1.758   2.342  1.1593 -0.4767 -0.0787
 7308SOL     OW27605   8.509   9.894   0.056 -0.0170 -0.0917 -0.4420
 7308SOL    HW127606   8.511   9.967   0.125  0.6050  1.9449 -2.5200
 7308SOL    HW227607   8.446   9.822   0.085 -0.3394  1.0693  1.8833
 7309SOL     OW27608   7.758   0.155   0.358 -0.2382  0.0366 -0.5680
 7309SOL    HW127609   7.822   0.227   0.384 -2.7485  1.5623  1.6457
 7309SOL    HW227610   7.750   0.089   0.432  0.5995 -1.4805 -1.8214
 7311SOL     OW27611   9.195   5.021   1.389  0.1194 -0.4868 -0.4545
 7311SOL    HW127612   9.216   5.112   1.425  1.2550 -1.2099  0.7625
 7311SOL    HW227613   9.208   5.021   1.290  1.3228  0.3535 -0.3112
 7312SOL     OW27614   2.676   1.668   1.695 -0.0827 -0.1178  0.0959
 7312SOL    HW127615   2.771   1.689   1.718  0.6781 -1.1374 -1.8915
 7312SOL    HW227616   2.669   1.570   1.673 -1.8592 -0.3055  1.4653
 7314SOL     OW27617   0.736   9.852   2.428 -0.0509 -0.6489 -0.1575
 7314SOL    HW127618   0.733   9.771   2.488  1.1774  0.1160  0.9668
 7314SOL    HW227619   0.646   9.896   2.428  0.0230 -0.4508  1.4471
 7315SOL     OW27620   7.193   0.247   2.474 -0.1654 -0.6001 -0.1141
 7315SOL    HW127621   7.229   0.178   2.410 -0.1969 -0.7972  0.0781
 7315SOL    HW227622   7.269   0.295   2.517 -0.1465  0.6729 -1.5124
 7317SOL     OW27623   1.866   5.773   0.726  0.6759  0.4745 -0.5849
 7317SOL    HW127624   1.886   5.871   0.730 -1.6835  1.0919 -2.6386
 7317SOL    HW227625   1.911   5.734   0.646  1.5501 -0.1289  0.1898
 7318SOL     OW27626   7.627   8.415   2.520  0.7423  0.1741 -0.0576
 7318SOL    HW127627   7.684   8.337   2.547 -0.4840 -1.7671 -2.7502
 7318SOL    HW227628   7.655   8.446   2.429 -1.5870 -0.0033 -0.8767
 7319SOL     OW27629   9.622   5.620   0.012 -0.0720 -0.4178  0.1272
 7319SOL    HW127630   9.689   5.561  -0.034  1.1606  0.3068  0.9363
 7319SOL    HW227631   9.556   5.654  -0.055  0.5827 -0.8626 -0.7655
 7321SOL     OW27632   4.415   3.500   1.598  0.4299 -0.2519  0.3292
 7321SOL    HW127633   4.413   3.597   1.574 -0.0327  0.0125  1.4186
 7321SOL    HW227634   4.501   3.460   1.566  0.5660  0.4783 -0.2428
 7322SOL     OW27635   2.491   3.488   0.188 -0.1555  0.7563 -0.1816
 7322SOL    HW127636   2.469   3.446   0.276  0.0168 -1.0303 -0.9831
 7322SOL    HW227637   2.588   3.512   0.186  0.2326 -0.8015 -0.5301
 7325SOL     OW27638   7.872   2.577   0.300  0.5424 -1.0496 -0.0277
 7325SOL    HW127639   7.911   2.667   0.283 -0.9697 -0.9228 -3.2298
 7325SOL    HW227640   7.818   2.579   0.384  0.1988  1.1541 -0.2803
 7326SOL     OW27641   0.188   1.419   2.044 -0.5331  0.4546 -0.7157
 7326SOL    HW127642   0.272   1.473   2.044 -0.1236 -0.1693  0.0873
 7326SOL    HW227643   0.117   1.467   2.095  0.3989 -0.6063  1.6453
 7327SOL     OW27644   1.652   3.327   0.861 -0.1978  0.0979  0.0007
 7327SOL    HW127645   1.658   3.351   0.764  1.4502  0.2262  0.1109
 7327SOL    HW227646   1.728   3.371   0.910 -0.3543 -0.8949  1.1412
 7328SOL     OW27647   5.537   9.631   2.635 -0.3185 -0.3678 -0.2248
 7328SOL    HW127648   5.494   9.609   2.722 -0.2346 -0.3630 -0.1823
 7328SOL    HW227649   5.526   9.554   2.572  0.3973 -0.7215  0.0810
 7329SOL     OW27650   8.819   3.858   2.624 -0.3616 -0.4937 -0.2462
 7329SOL    HW127651   8.836   3.957   2.629  1.7036 -0.8641  0.6324
 7329SOL    HW227652   8.825   3.819   2.716  0.5038 -1.6916 -0.8114
 7330SOL     OW27653   2.400   3.401   2.336  0.2951 -0.1046 -0.0869
 7330SOL    HW127654   2.399   3.320   2.277  1.4118 -0.2601  0.0980
 7330SOL    HW227655   2.425   3.374   2.429  0.2505  0.3990  0.0723
 7331SOL     OW27656   3.284   1.485   1.473 -1.1544  0.3052  0.0261
 7331SOL    HW127657   3.230   1.559   1.433  0.1960  2.2457  1.6632
 7331SOL    HW227658   3.341   1.442   1.403 -0.8598  1.8106 -0.6574
 7333SOL     OW27659   8.729   3.233   0.128  0.0030 -0.0796  0.0915
 7333SOL    HW127660   8.733   3.177   0.045 -1.3258 -0.1328  0.0509
 7333SOL    HW227661   8.786   3.314   0.117  1.1714 -0.9352 -0.2219
 7334SOL     OW27662   9.910   9.792   2.457  0.4395  0.4279  0.0111
 7334SOL    HW127663   9.960   9.727   2.400 -1.1800  0.1104 -1.0835
 7334SOL    HW227664   9.920   9.884   2.418 -0.6357  0.2170 -0.7818
 7335SOL     OW27665   9.293   6.857   0.250 -0.2129  0.1849 -0.1388
 7335SOL    HW127666   9.220   6.880   0.186 -1.0671  0.5227  0.9339
 7335SOL    HW227667   9.287   6.916   0.330  1.9596  1.0087 -0.5426
 7336SOL     OW27668   9.658   1.251   1.586 -0.0099  0.1212  0.6321
 7336SOL    HW127669   9.656   1.344   1.550 -0.7751 -0.8958 -2.0744
 7336SOL    HW227670   9.566   1.221   1.608  0.1120 -0.3567  0.5046
 7338SOL     OW27671   2.483   5.677   0.443 -0.1319 -0.0901  0.1758
 7338SOL    HW127672   2.462   5.629   0.528  0.5202  0.5700  0.7134
 7338SOL    HW227673   2.572   5.647   0.408  0.1254  0.4867  0.3367
 7339SOL     OW27674   4.421   2.218   2.239 -0.2306 -0.1372  0.0948
 7339SOL    HW127675   4.396   2.181   2.150 -0.8422  1.7139 -0.5416
 7339SOL    HW227676   4.489   2.159   2.283 -1.1725 -1.9564 -0.8430
 7340SOL     OW27677   3.574   4.383   0.464  0.6408  0.3219 -0.3929
 7340SOL    HW127678   3.530   4.463   0.506  1.8635  0.5905  0.4362
 7340SOL    HW227679   3.658   4.412   0.418  1.6048 -0.6123  0.7443
 7341SOL     OW27680   4.164   0.563   2.453  0.3411  0.1209  0.1857
 7341SOL    HW127681   4.234   0.541   2.385  0.6077 -0.4829  0.6452
 7341SOL    HW227682   4.097   0.488   2.457  1.6466 -0.9789  2.2716
 7342SOL     OW27683   9.658   8.949   2.262  0.2066  0.6517  0.3435
 7342SOL    HW127684   9.708   8.875   2.216  1.5010  0.7275  1.5854
 7342SOL    HW227685   9.616   9.008   2.193  0.9371 -0.0307 -0.7162
 7343SOL     OW27686   8.921   3.907   1.878  0.0221 -0.0919 -0.6613
 7343SOL    HW127687   8.989   3.898   1.805  1.9837  1.0359  0.9525
 7343SOL    HW227688   8.853   3.974   1.851  0.5663  0.1162 -1.5679
 7344SOL     OW27689   3.131   4.685   1.170 -0.7321 -0.0586  0.0889
 7344SOL    HW127690   3.218   4.653   1.132 -1.0241  0.5264 -1.1247
 7344SOL    HW227691   3.056   4.646   1.118 -1.1329  0.9717 -0.1319
 7345SOL     OW27692   1.283   3.560   1.983  0.3694  0.1749 -0.0619
 7345SOL    HW127693   1.195   3.574   2.029 -0.4665  0.5490 -1.7377
 7345SOL    HW227694   1.357   3.580   2.047 -0.7678  2.0601  0.7320
 7346SOL     OW27695   2.703   1.385   1.682  0.0730  0.0848 -0.4439
 7346SOL    HW127696   2.624   1.336   1.645 -0.7172  1.8458 -1.1488
 7346SOL    HW227697   2.787   1.339   1.653 -0.6731 -2.0664  0.6828
 7347SOL     OW27698   8.079   5.641   0.718 -0.3842 -0.1047  0.1877
 7347SOL    HW127699   8.109   5.719   0.664 -0.3826  1.0009  1.7654
 7347SOL    HW227700   7.986   5.615   0.691  0.2922 -0.7352 -1.6079
 7348SOL     OW27701   9.565   6.219   0.218  0.4037  0.0415  0.7508
 7348SOL    HW127702   9.625   6.160   0.163 -0.8143 -0.3219 -0.2092
 7348SOL    HW227703   9.601   6.312   0.218  1.6344 -0.4218  1.2012
 7349SOL     OW27704   3.687   5.203   2.351 -0.1275  0.4323 -0.2012
 7349SOL    HW127705   3.758   5.140   2.319 -0.1219  1.2022 -1.7194
 7349SOL    HW227706   3.720   5.250   2.433  0.0509 -1.1672  0.6754
 7350SOL     OW27707   3.825   2.701   1.140 -0.1102  0.8075  1.0148
 7350SOL    HW127708   3.916   2.690   1.101 -0.1766  0.5818  0.9218
 7350SOL    HW227709   3.828   2.767   1.215  0.2626  0.2938  1.4512
 7353SOL     OW27710   2.279   3.829   1.623  0.1785 -0.3825 -0.1292
 7353SOL    HW127711   2.229   3.904   1.667 -0.9877 -0.5561 -1.1153
 7353SOL    HW227712   2.269   3.746   1.677  1.1414  0.0822  0.7609
 7354SOL     OW27713   2.589   5.991   1.608 -0.6122 -0.0092  0.2485
 7354SOL    HW127714   2.617   5.905   1.567 -1.2164  0.2306 -0.7113
 7354SOL    HW227715   2.632   6.067   1.558 -0.7414  0.2636  0.5507
 7355SOL     OW27716   9.787   5.554   0.702  0.1851 -0.2793 -0.2909
 7355SOL    HW127717   9.870   5.499   0.707  0.6881  0.4161 -0.8754
 7355SOL    HW227718   9.801   5.641   0.750 -0.2247 -0.1832 -0.3420
 7358SOL     OW27719   1.914   8.076   0.177 -0.1145  0.2645  0.2518
 7358SOL    HW127720   1.860   8.126   0.110 -0.5310 -0.6032 -0.0733
 7358SOL    HW227721   1.885   7.980   0.178 -1.0159  0.5093  2.5714
 7359SOL     OW27722   1.790   6.356   0.256 -0.2262 -0.0275  0.0902
 7359SOL    HW127723   1.787   6.301   0.173 -0.5010  1.5033 -0.9415
 7359SOL    HW227724   1.760   6.449   0.235 -1.7715 -0.0058  2.2143
 7360SOL     OW27725   1.224   2.431   0.615 -0.0646  0.1304 -0.4691
 7360SOL    HW127726   1.278   2.434   0.530 -0.5194  0.8418 -0.7447
 7360SOL    HW227727   1.280   2.466   0.690  0.0986  0.1980 -0.6189
 7361SOL     OW27728   7.964   2.836   0.259  0.0089 -0.0658  0.1959
 7361SOL    HW127729   8.055   2.847   0.298  0.4252  1.6771 -1.1955
 7361SOL    HW227730   7.895   2.854   0.329  0.7380 -0.0365  0.9116
 7363SOL     OW27731   2.027   6.229   0.302 -0.4354 -0.4084  0.0433
 7363SOL    HW127732   1.941   6.279   0.297 -0.1998 -0.0024  0.0903
 7363SOL    HW227733   2.096   6.274   0.246 -0.4272 -1.0837 -0.5050
 7364SOL     OW27734   8.825   1.187   1.511 -0.0686 -0.3371 -0.1911
 7364SOL    HW127735   8.850   1.192   1.608  0.1175  0.2869 -0.2690
 7364SOL    HW227736   8.746   1.127   1.500  0.7658 -1.5086  0.1861
 7365SOL     OW27737   3.924   4.995   2.295  0.6413 -0.1418  0.3571
 7365SOL    HW127738   3.965   4.962   2.209 -0.7372 -2.4570  0.5346
 7365SOL    HW227739   3.963   4.944   2.371  0.0659  0.1706  0.8605
 7366SOL     OW27740   3.112   5.206   2.609  0.5615 -0.2648 -0.2059
 7366SOL    HW127741   3.158   5.156   2.536 -0.5174 -0.8703 -0.4864
 7366SOL    HW227742   3.027   5.246   2.574  0.1656 -0.3443  0.6429
 7368SOL     OW27743   2.699   0.741   0.255  0.2170 -0.1065  0.2156
 7368SOL    HW127744   2.665   0.692   0.175  0.6315 -1.6607  0.9877
 7368SOL    HW227745   2.685   0.686   0.337 -1.0416  1.8414  1.3618
 7369SOL     OW27746   2.073   8.730   1.288 -0.1433  0.1463  0.0775
 7369SOL    HW127747   2.155   8.677   1.308 -0.0175  0.7328  1.1547
 7369SOL    HW227748   1.998   8.669   1.262 -0.1353 -0.6045  1.7596
 7371SOL     OW27749   8.859   7.551   2.640 -0.0826  0.0381  0.7498
 7371SOL    HW127750   8.838   7.477   2.704 -0.3725 -1.4605 -1.0659
 7371SOL    HW227751   8.781   7.568   2.580  0.8147  0.2388 -0.3830
 7372SOL     OW27752   2.953   8.388   1.232 -0.0292 -0.2698  0.2465
 7372SOL    HW127753   2.974   8.319   1.301 -0.0924 -0.0815  0.4526
 7372SOL    HW227754   2.919   8.471   1.276 -0.2356 -0.2103 -0.0205
 7373SOL     OW27755   6.954   9.114   2.149 -0.0324  0.0295  0.2919
 7373SOL    HW127756   6.976   9.195   2.203  0.0639  0.0853  0.1713
 7373SOL    HW227757   7.038   9.074   2.113 -0.1727  0.6363 -0.7333
 7374SOL     OW27758   9.195   4.831   2.056 -0.2514 -0.0034  0.1508
 7374SOL    HW127759   9.200   4.905   2.123 -0.7156 -0.5597  0.8116
 7374SOL    HW227760   9.284   4.818   2.013  0.1300  0.1468  0.8959
 7375SOL     OW27761   2.843   2.071   1.853 -0.2227 -0.3362 -0.2654
 7375SOL    HW127762   2.784   2.146   1.881  0.0820  0.0207 -0.5691
 7375SOL    HW227763   2.868   2.016   1.933  1.2002  1.0787  0.2711
 7377SOL     OW27764   3.393   0.589   2.081  0.5994 -0.2376 -0.3997
 7377SOL    HW127765   3.481   0.542   2.078  1.2392  0.9493 -0.5966
 7377SOL    HW227766   3.349   0.572   2.169  1.2858 -0.3809 -0.0822
 7378SOL     OW27767   2.332   9.135   0.181  0.5633  0.0710  0.2062
 7378SOL    HW127768   2.267   9.116   0.254 -0.2033 -1.5653 -0.8681
 7378SOL    HW227769   2.305   9.218   0.133 -0.4907 -0.3611  0.0418
 7379SOL     OW27770   8.211   0.365   1.105  0.0505  0.3876  0.1774
 7379SOL    HW127771   8.142   0.436   1.094  1.2616  1.4119 -0.9849
 7379SOL    HW227772   8.203   0.299   1.030 -0.6288 -0.3541  0.8810
 7380SOL     OW27773   2.892   6.888   2.521  0.1061  0.3548  0.1562
 7380SOL    HW127774   2.915   6.913   2.615  0.0226  0.2534  0.2034
 7380SOL    HW227775   2.799   6.919   2.501 -0.1621 -0.3194  0.3602
 7381SOL     OW27776   0.509   6.762   1.731 -0.5010  0.2246 -0.0304
 7381SOL    HW127777   0.411   6.744   1.725 -0.1625 -1.3765 -1.4217
 7381SOL    HW227778   0.533   6.842   1.676 -0.6324 -1.2266 -2.3035
 7382SOL     OW27779   1.080   9.594   1.016  0.3671 -0.0826 -0.4945
 7382SOL    HW127780   1.090   9.628   1.109 -3.7769 -2.1410  0.8766
 7382SOL    HW227781   1.160   9.540   0.991  1.4126  0.2608  2.0062
 7383SOL     OW27782   6.132   8.908   2.243 -0.1678  0.3222 -0.6002
 7383SOL    HW127783   6.179   8.836   2.294  0.6088  0.3842 -1.2203
 7383SOL    HW227784   6.131   8.992   2.297  0.4508  0.3257 -0.5956
 7387SOL     OW27785   1.811   6.990   1.488  0.0836  0.5822  0.0884
 7387SOL    HW127786   1.855   6.982   1.577  1.4914  1.3535 -0.5132
 7387SOL    HW227787   1.840   6.914   1.430  0.5332  1.0286 -0.2727
 7388SOL     OW27788   4.868   7.729   2.204  0.0915  0.4174  0.0375
 7388SOL    HW127789   4.913   7.746   2.292  1.2891 -0.2913 -0.4200
 7388SOL    HW227790   4.797   7.659   2.217  0.0825  0.5061  0.4955
 7391SOL     OW27791   9.399   5.707   0.565  0.2426 -0.4167 -0.1164
 7391SOL    HW127792   9.417   5.620   0.612 -1.9897 -0.8537 -0.0110
 7391SOL    HW227793   9.464   5.718   0.489  0.8977 -1.9187  0.2036
 7392SOL     OW27794   2.120   8.607   0.353 -0.7845 -0.3622 -0.3121
 7392SOL    HW127795   2.080   8.591   0.444 -2.0951  0.3444 -0.7517
 7392SOL    HW227796   2.080   8.690   0.313  0.6308 -0.0163 -1.0624
 7393SOL     OW27797   2.382   5.530   0.664 -0.5018  0.0147 -0.2363
 7393SOL    HW127798   2.283   5.528   0.677 -0.5381  2.6006  0.2524
 7393SOL    HW227799   2.427   5.516   0.753 -0.5239  2.7172  0.2437
 7394SOL     OW27800   2.143   8.489   1.596  0.2855 -0.5939 -0.2280
 7394SOL    HW127801   2.137   8.471   1.498  1.4542 -1.5025 -0.1428
 7394SOL    HW227802   2.212   8.430   1.637 -2.2535 -2.3750  1.6805
 7395SOL     OW27803   4.926   3.012   1.581 -0.6262 -0.0256  0.4770
 7395SOL    HW127804   4.836   3.044   1.551 -0.8598 -1.2102 -0.1167
 7395SOL    HW227805   4.973   2.969   1.504  0.4101  0.4904  0.8098
 7396SOL     OW27806   8.991   4.952   0.735 -0.1246 -0.2832  0.1087
 7396SOL    HW127807   8.944   4.941   0.648  0.2652 -0.7764 -0.0459
 7396SOL    HW227808   9.088   4.927   0.724  0.0216  0.0659  0.5783
 7397SOL     OW27809   9.736   1.843   0.490  0.0495  0.1680  0.2927
 7397SOL    HW127810   9.774   1.784   0.419 -2.8376  1.4775 -2.5214
 7397SOL    HW227811   9.670   1.791   0.545 -0.3524  0.0095 -0.3284
 7398SOL     OW27812   2.680   5.333   2.253 -0.1264 -0.2893 -0.4828
 7398SOL    HW127813   2.634   5.282   2.180 -0.1505 -0.2178 -0.5187
 7398SOL    HW227814   2.771   5.362   2.221  0.4256 -1.4489  0.0112
 7399SOL     OW27815   8.960   2.590   0.856  0.2890  0.4718  0.5925
 7399SOL    HW127816   8.997   2.497   0.847 -1.3310 -0.3593  2.3631
 7399SOL    HW227817   8.883   2.601   0.793  1.5980  1.2240 -0.9123
 7400SOL     OW27818   2.921   3.155   2.132 -0.1698 -0.0182  0.4585
 7400SOL    HW127819   2.958   3.092   2.201 -1.1760 -0.6807  0.4075
 7400SOL    HW227820   2.822   3.164   2.145  0.0820  2.3327  1.0820
 7401SOL     OW27821   3.900   7.898   0.695 -0.4128  0.0910  0.0544
 7401SOL    HW127822   3.987   7.875   0.652  0.1707  1.0653  0.7001
 7401SOL    HW227823   3.914   7.914   0.793 -1.4372 -0.4425  0.2884
 7403SOL     OW27824   2.606   2.615   1.492 -0.1771 -0.0140 -0.1195
 7403SOL    HW127825   2.520   2.624   1.543  0.5537  4.4510  0.5629
 7403SOL    HW227826   2.677   2.579   1.552 -0.6974 -0.2103  0.3829
 7404SOL     OW27827   3.345   8.597   0.175 -0.2468 -0.5183 -0.4744
 7404SOL    HW127828   3.416   8.655   0.216  0.0449  0.7008 -2.6338
 7404SOL    HW227829   3.339   8.616   0.077 -1.4592 -2.8258 -0.8739
 7405SOL     OW27830   2.116   3.723   0.394 -0.3217  0.9968 -0.1355
 7405SOL    HW127831   2.069   3.762   0.314 -3.6727  0.2770  1.3668
 7405SOL    HW227832   2.113   3.624   0.388  1.6158  0.9288 -0.2842
 7406SOL     OW27833   9.676   4.270   1.964 -0.3329  0.3637  0.2466
 7406SOL    HW127834   9.614   4.317   2.026 -1.7062 -0.5727 -0.3889
 7406SOL    HW227835   9.626   4.199   1.914  1.6161 -1.6254  1.0252
 7407SOL     OW27836   1.993   8.772   2.443  0.3532  0.2556 -0.1072
 7407SOL    HW127837   1.958   8.701   2.504  0.7440  1.4298  1.5021
 7407SOL    HW227838   1.985   8.862   2.487  2.1688  0.9445 -1.1303
 7408SOL     OW27839   2.496   2.449   2.206  0.0486  0.1193  0.1643
 7408SOL    HW127840   2.559   2.478   2.134  0.0028  1.5720  0.6921
 7408SOL    HW227841   2.403   2.446   2.169  0.4125 -2.1033 -0.6344
 7409SOL     OW27842   0.861   4.220   0.776 -0.2412  0.0907 -0.0315
 7409SOL    HW127843   0.943   4.162   0.778 -1.8878 -2.4597 -2.2879
 7409SOL    HW227844   0.863   4.277   0.694 -0.5560  0.2747  0.0884
 7412SOL     OW27845   8.401   7.489   2.270  0.1854  0.6517 -0.7323
 7412SOL    HW127846   8.325   7.440   2.229  0.3393 -0.6007  0.4194
 7412SOL    HW227847   8.379   7.510   2.365  0.7139  1.5153 -0.8006
 7413SOL     OW27848   0.902   2.331   1.498 -0.3710  0.2091  0.1179
 7413SOL    HW127849   0.883   2.354   1.593  1.6212  1.3890  0.2642
 7413SOL    HW227850   0.998   2.350   1.478 -0.2044 -2.1771 -1.5086
 7414SOL     OW27851   9.590   3.161   1.408 -0.0175 -0.2022 -0.2178
 7414SOL    HW127852   9.640   3.224   1.468  1.9031 -0.7598 -1.2098
 7414SOL    HW227853   9.605   3.067   1.439  0.6987 -0.4678 -1.3759
 7415SOL     OW27854   4.307   1.524   0.458  0.0500 -0.0371 -0.4630
 7415SOL    HW127855   4.349   1.437   0.483  0.0319 -0.5257 -2.0392
 7415SOL    HW227856   4.210   1.523   0.482 -0.1193 -0.7529 -1.1424
 7416SOL     OW27857   2.729   4.195   1.603 -0.1153  0.8417 -0.0799
 7416SOL    HW127858   2.717   4.279   1.551  0.9063  2.0118  1.5307
 7416SOL    HW227859   2.658   4.189   1.673 -1.4761 -0.7216 -1.5325
 7417SOL     OW27860   9.964   8.896   0.615  0.0246 -0.1024  0.1094
 7417SOL    HW127861   9.915   8.850   0.688 -1.2739 -1.3332 -1.4970
 7417SOL    HW227862   9.910   8.974   0.583 -0.4792 -0.8892 -1.0098
 7422SOL     OW27863   3.469   3.649   2.642  0.6027 -0.5348  0.3132
 7422SOL    HW127864   3.408   3.597   2.702 -0.1719  0.5776  0.4989
 7422SOL    HW227865   3.453   3.622   2.547 -0.0513 -0.3812  0.3779
 7423SOL     OW27866   1.969   7.447   1.498  0.0124  0.0218  0.1564
 7423SOL    HW127867   1.913   7.368   1.474 -1.1159  0.1618  2.2116
 7423SOL    HW227868   1.912   7.528   1.507  0.8283  0.5922  0.2911
 7424SOL     OW27869   1.183   1.266   2.450  0.3341 -0.2009  0.4459
 7424SOL    HW127870   1.220   1.284   2.541 -1.6944  2.4437  0.7775
 7424SOL    HW227871   1.089   1.298   2.444  0.0902 -1.2589 -2.2868
 7425SOL     OW27872   8.791   8.153   2.500  0.0393 -0.5778  0.5846
 7425SOL    HW127873   8.787   8.229   2.436  0.6995  0.6065  1.9141
 7425SOL    HW227874   8.885   8.141   2.532 -0.2787 -1.1640  1.3216
 7426SOL     OW27875   3.116   6.256   0.693 -0.2867  0.2279 -0.0147
 7426SOL    HW127876   3.156   6.324   0.755 -1.2378  0.4813  0.3410
 7426SOL    HW227877   3.025   6.287   0.664  0.4600  0.4889 -2.1790
 7427SOL     OW27878   3.471   1.288   1.279  0.2936  0.0130  0.1271
 7427SOL    HW127879   3.435   1.197   1.258 -0.6248  0.3594  0.1662
 7427SOL    HW227880   3.570   1.290   1.264  0.6886 -1.6298  2.2670
 7428SOL     OW27881   2.595   9.255   1.398  0.3310  0.1445  0.3718
 7428SOL    HW127882   2.547   9.172   1.368 -0.8627  0.2323  2.0135
 7428SOL    HW227883   2.577   9.272   1.495  2.4947  1.0159  0.6581
 7429SOL     OW27884   3.275   1.949   0.305  0.3405  0.3629  0.0874
 7429SOL    HW127885   3.344   1.939   0.376 -0.6342  0.8926  1.1500
 7429SOL    HW227886   3.301   2.023   0.243  1.3389 -0.2935 -0.2802
 7434SOL     OW27887   9.079   1.259   2.341  0.2303  0.1030  0.5909
 7434SOL    HW127888   9.020   1.334   2.372  0.3880  0.4611  0.0325
 7434SOL    HW227889   9.151   1.244   2.408  0.1419  0.3944  0.7536
 7435SOL     OW27890   1.157   1.600   2.635  0.2441 -0.3225  0.5211
 7435SOL    HW127891   1.169   1.568   2.541  0.7390 -0.2772  0.5673
 7435SOL    HW227892   1.063   1.582   2.665 -0.3743  1.0483 -0.5199
 7436SOL     OW27893   9.455   7.808   2.141  0.1026  0.4370  0.7500
 7436SOL    HW127894   9.448   7.903   2.110  2.0372  0.6518  0.8849
 7436SOL    HW227895   9.525   7.802   2.212  0.7448 -1.2799 -0.0047
 7437SOL     OW27896   2.732   4.422   2.147 -0.3975  0.0269 -0.1396
 7437SOL    HW127897   2.788   4.468   2.078 -1.2064  0.2052 -0.6781
 7437SOL    HW227898   2.749   4.323   2.144 -2.0738 -0.2218 -2.1053
 7438SOL     OW27899   9.127   6.689   1.681 -0.3394 -0.0337  0.1633
 7438SOL    HW127900   9.208   6.746   1.667  0.9039 -1.0302  2.9918
 7438SOL    HW227901   9.155   6.600   1.716 -2.4637 -1.4820 -1.6766
 7439SOL     OW27902   1.694   7.578   2.569 -0.0351  0.2954 -0.5341
 7439SOL    HW127903   1.738   7.500   2.526 -0.1469 -0.4576  0.6941
 7439SOL    HW227904   1.599   7.585   2.537  0.5623  1.1515 -2.1853
  10.00000  10.00000   3.43667
