chitosan Film  in water:acetic acid 2%
38571
    1CHTO  H203    1   5.891   6.361   3.198
    1CHTO   O82    2   5.873   6.285   3.250
    1CHTO  C123    3   5.981   6.192   3.241
    1CHTO  H227    4   6.073   6.241   3.277
    1CHTO   O77    5   5.942   6.085   3.332
    1CHTO  C118    6   6.045   5.987   3.351
    1CHTO  H222    7   6.138   6.036   3.384
    1CHTO  C125    8   5.999   5.888   3.464
    1CHTO   O84    9   5.991   5.957   3.589
    1CHTO  H205   10   5.963   5.897   3.656
    1CHTO  C114   11   6.073   5.911   3.219
    1CHTO  H218   12   5.983   5.856   3.192
    1CHTO  C116   13   6.105   6.011   3.103
    1CHTO  H220   14   6.208   6.051   3.118
    1CHTO   O79   15   6.108   5.939   2.978
    1CHTO  H201   16   6.136   5.995   2.909
    1CHTO  C120   17   6.002   6.132   3.097
    1CHTO  H224   18   5.906   6.088   3.060
    1CHTO   N21   19   6.043   6.235   2.998
    1CHTO  H211   20   6.107   6.308   3.044
    1CHTO  H212   21   5.956   6.283   2.955
    1CHTO   O75   22   6.179   5.820   3.253
    1CHTO  C112   23   6.207   5.694   3.149
    1CHTO  H216   24   6.179   5.723   3.046
    1CHTO   O73   25   6.130   5.581   3.195
    1CHTO  C113   26   6.142   5.466   3.110
    1CHTO  H217   27   6.106   5.492   3.008
    1CHTO  C124   28   6.048   5.356   3.163
    1CHTO   O83   29   6.075   5.318   3.298
    1CHTO  H204   30   6.014   5.251   3.324
    1CHTO  C109   31   6.289   5.415   3.101
    1CHTO  H213   32   6.316   5.377   3.201
    1CHTO  C110   33   6.385   5.532   3.061
    1CHTO  H214   34   6.368   5.557   2.957
    1CHTO   O78   35   6.521   5.485   3.073
    1CHTO  H200   36   6.538   5.419   3.008
    1CHTO  C111   37   6.360   5.657   3.150
    1CHTO  H215   38   6.387   5.631   3.254
    1CHTO   N19   39   6.444   5.774   3.113
    1CHTO  H207   40   6.508   5.751   3.029
    1CHTO  H208   41   6.383   5.860   3.089
    1CHTO   O74   42   6.299   5.307   3.004
    1CHTO  C115   43   6.381   5.178   3.054
    1CHTO  H219   44   6.429   5.195   3.151
    1CHTO   O76   45   6.286   5.058   3.078
    1CHTO  C122   46   6.226   5.016   2.955
    1CHTO  H226   47   6.179   5.104   2.911
    1CHTO  C126   48   6.109   4.916   2.985
    1CHTO   O85   49   6.150   4.801   3.060
    1CHTO  H206   50   6.176   4.826   3.146
    1CHTO  C121   51   6.333   4.956   2.855
    1CHTO  H225   52   6.325   4.846   2.858
    1CHTO   O81   53   6.303   5.001   2.722
    1CHTO  H202   54   6.221   4.967   2.694
    1CHTO  C119   55   6.479   4.996   2.892
    1CHTO  H223   56   6.507   4.930   2.974
    1CHTO  C117   57   6.491   5.145   2.944
    1CHTO  H221   58   6.475   5.220   2.867
    1CHTO   N20   59   6.629   5.171   2.996
    1CHTO  H209   60   6.640   5.276   3.022
    1CHTO  H210   61   6.649   5.109   3.082
    1CHTO   O80   62   6.587   4.954   2.778
    1CHTO  C103   63   6.617   4.803   2.751
    1CHTO  H190   64   6.593   4.744   2.839
    1CHTO  C101   65   6.548   4.739   2.624
    1CHTO  H188   66   6.564   4.804   2.538
    1CHTO   O68   67   6.395   4.729   2.648
    1CHTO  H168   68   6.359   4.814   2.659
    1CHTO   C99   69   6.611   4.596   2.592
    1CHTO  H186   70   6.594   4.528   2.678
    1CHTO   N17   71   6.553   4.530   2.470
    1CHTO  H174   72   6.575   4.588   2.382
    1CHTO  H175   73   6.592   4.429   2.461
    1CHTO   C97   74   6.765   4.611   2.581
    1CHTO  H184   75   6.787   4.679   2.496
    1CHTO   O64   76   6.817   4.663   2.705
    1CHTO  C104   77   6.774   4.798   2.733
    1CHTO  H191   78   6.803   4.865   2.652
    1CHTO  C108   79   6.845   4.849   2.859
    1CHTO   O71   80   6.985   4.863   2.837
    1CHTO  H171   81   7.026   4.893   2.916
    1CHTO   O62   82   6.834   4.485   2.562
    1CHTO   C91   83   6.967   4.498   2.508
    1CHTO  H178   84   7.009   4.591   2.545
    1CHTO   C92   85   6.961   4.510   2.351
    1CHTO  H179   86   6.870   4.563   2.320
    1CHTO   O66   87   7.070   4.593   2.307
    1CHTO  H166   88   7.059   4.681   2.338
    1CHTO   C93   89   6.976   4.373   2.275
    1CHTO  H180   90   6.994   4.397   2.169
    1CHTO   N16   91   6.851   4.292   2.275
    1CHTO  H172   92   6.867   4.201   2.218
    1CHTO  H173   93   6.822   4.269   2.376
    1CHTO   C94   94   7.101   4.291   2.330
    1CHTO  H181   95   7.074   4.189   2.357
    1CHTO   O61   96   7.158   4.349   2.449
    1CHTO   C95   97   7.064   4.380   2.552
    1CHTO  H182   98   7.005   4.291   2.574
    1CHTO  C106   99   7.141   4.416   2.684
    1CHTO   O69  100   7.218   4.305   2.732
    1CHTO  H169  101   7.289   4.288   2.674
    1CHTO   O63  102   7.210   4.291   2.221
    1CHTO   C96  103   7.310   4.171   2.237
    1CHTO  H183  104   7.249   4.082   2.254
    1CHTO   C98  105   7.411   4.183   2.356
    1CHTO  H185  106   7.359   4.215   2.448
    1CHTO   O67  107   7.462   4.052   2.386
    1CHTO  H167  108   7.394   3.997   2.420
    1CHTO  C102  109   7.533   4.281   2.324
    1CHTO  H189  110   7.605   4.266   2.405
    1CHTO   N18  111   7.502   4.427   2.326
    1CHTO  H176  112   7.467   4.455   2.424
    1CHTO  H177  113   7.425   4.449   2.253
    1CHTO  C105  114   7.600   4.238   2.191
    1CHTO  H192  115   7.674   4.313   2.162
    1CHTO   O65  116   7.508   4.224   2.081
    1CHTO  C100  117   7.383   4.153   2.097
    1CHTO  H187  118   7.316   4.195   2.021
    1CHTO  C107  119   7.400   4.003   2.062
    1CHTO   O70  120   7.425   3.986   1.922
    1CHTO  H170  121   7.347   4.007   1.873
    1CHTO   O57  122   7.674   4.105   2.227
    1CHTO   C85  123   7.816   4.086   2.239
    1CHTO  H157  124   7.861   4.121   2.144
    1CHTO   C83  125   7.836   3.931   2.244
    1CHTO  H155  126   7.805   3.891   2.147
    1CHTO   O56  127   7.749   3.872   2.342
    1CHTO  H135  128   7.659   3.886   2.319
    1CHTO   C81  129   7.986   3.897   2.267
    1CHTO  H153  130   8.044   3.944   2.187
    1CHTO   N14  131   8.017   3.752   2.252
    1CHTO  H141  132   8.069   3.714   2.337
    1CHTO  H142  133   7.927   3.695   2.238
    1CHTO   C79  134   8.034   3.958   2.404
    1CHTO  H151  135   8.140   3.936   2.413
    1CHTO   O52  136   8.020   4.103   2.399
    1CHTO   C86  137   7.886   4.153   2.367
    1CHTO  H158  138   7.827   4.134   2.459
    1CHTO   C90  139   7.897   4.306   2.353
    1CHTO   O60  140   7.935   4.367   2.478
    1CHTO  H138  141   7.943   4.459   2.466
    1CHTO   O50  142   7.967   3.906   2.520
    1CHTO   C73  143   7.957   3.871   2.659
    1CHTO  H145  144   8.023   3.786   2.681
    1CHTO   C74  145   7.810   3.828   2.692
    1CHTO  H146  146   7.784   3.746   2.623
    1CHTO   O54  147   7.807   3.773   2.825
    1CHTO  H133  148   7.830   3.838   2.889
    1CHTO   C75  149   7.714   3.952   2.675
    1CHTO  H147  150   7.721   3.988   2.571
    1CHTO   N13  151   7.571   3.922   2.697
    1CHTO  H139  152   7.538   3.848   2.625
    1CHTO  H140  153   7.556   3.883   2.796
    1CHTO   C76  154   7.768   4.069   2.770
    1CHTO  H148  155   7.762   4.032   2.872
    1CHTO   O49  156   7.907   4.102   2.737
    1CHTO   C77  157   7.997   3.991   2.752
    1CHTO  H149  158   7.994   3.957   2.856
    1CHTO   C88  159   8.140   4.040   2.728
    1CHTO   O58  160   8.241   3.931   2.753
    1CHTO  H136  161   8.231   3.863   2.689
    1CHTO   O51  162   7.684   4.204   2.751
    1CHTO   C78  163   7.701   4.322   2.867
    1CHTO  H150  164   7.799   4.374   2.855
    1CHTO   C80  165   7.691   4.268   3.012
    1CHTO  H152  166   7.607   4.195   3.016
    1CHTO   O55  167   7.813   4.197   3.041
    1CHTO  H134  168   7.818   4.118   2.989
    1CHTO   C84  169   7.668   4.381   3.120
    1CHTO  H156  170   7.760   4.439   3.128
    1CHTO   N15  171   7.641   4.325   3.257
    1CHTO  H143  172   7.552   4.266   3.256
    1CHTO  H144  173   7.629   4.405   3.328
    1CHTO   C87  174   7.555   4.476   3.074
    1CHTO  H159  175   7.460   4.422   3.070
    1CHTO   O53  176   7.592   4.529   2.937
    1CHTO   C82  177   7.591   4.426   2.838
    1CHTO  H154  178   7.493   4.378   2.835
    1CHTO   C89  179   7.614   4.490   2.699
    1CHTO   O59  180   7.507   4.578   2.663
    1CHTO  H137  181   7.508   4.654   2.719
    1CHTO   O45  182   7.539   4.607   3.175
    1CHTO   C67  183   7.412   4.672   3.160
    1CHTO  H124  184   7.337   4.602   3.121
    1CHTO   C65  185   7.363   4.728   3.297
    1CHTO  H122  186   7.381   4.648   3.369
    1CHTO   O44  187   7.222   4.755   3.291
    1CHTO  H102  188   7.174   4.676   3.278
    1CHTO   C63  189   7.454   4.848   3.340
    1CHTO  H120  190   7.558   4.816   3.337
    1CHTO   N11  191   7.440   4.890   3.483
    1CHTO  H108  192   7.343   4.933   3.499
    1CHTO  H109  193   7.515   4.962   3.508
    1CHTO   C61  194   7.439   4.965   3.236
    1CHTO  H118  195   7.517   5.038   3.262
    1CHTO   O40  196   7.470   4.919   3.101
    1CHTO   C68  197   7.424   4.788   3.051
    1CHTO  H125  198   7.501   4.756   2.979
    1CHTO   C72  199   7.293   4.807   2.970
    1CHTO   O48  200   7.259   4.690   2.895
    1CHTO  H105  201   7.180   4.705   2.848
    1CHTO   O38  202   7.309   5.029   3.235
    1CHTO   C55  203   7.308   5.173   3.220
    1CHTO  H112  204   7.401   5.207   3.173
    1CHTO   C56  205   7.283   5.243   3.361
    1CHTO  H113  206   7.193   5.197   3.404
    1CHTO   O42  207   7.391   5.213   3.450
    1CHTO  H100  208   7.472   5.246   3.415
    1CHTO   C57  209   7.263   5.400   3.346
    1CHTO  H114  210   7.360   5.441   3.318
    1CHTO   N10  211   7.223   5.466   3.473
    1CHTO  H106  212   7.259   5.568   3.475
    1CHTO  H107  213   7.116   5.466   3.485
    1CHTO   C58  214   7.162   5.431   3.233
    1CHTO  H115  215   7.059   5.402   3.266
    1CHTO   O37  216   7.195   5.362   3.112
    1CHTO   C59  217   7.194   5.219   3.123
    1CHTO  H116  218   7.097   5.186   3.160
    1CHTO   C70  219   7.213   5.161   2.983
    1CHTO   O46  220   7.100   5.186   2.899
    1CHTO  H103  221   7.113   5.144   2.816
    1CHTO   O39  222   7.166   5.590   3.195
    1CHTO   C60  223   7.040   5.646   3.156
    1CHTO  H117  224   6.971   5.567   3.128
    1CHTO   C62  225   6.977   5.727   3.274
    1CHTO  H119  226   6.959   5.653   3.356
    1CHTO   O43  227   7.072   5.824   3.320
    1CHTO  H101  228   7.038   5.868   3.396
    1CHTO   C66  229   6.836   5.791   3.227
    1CHTO  H123  230   6.770   5.711   3.194
    1CHTO   N12  231   6.766   5.859   3.339
    1CHTO  H110  232   6.747   5.788   3.418
    1CHTO  H111  233   6.674   5.903   3.304
    1CHTO   C69  234   6.862   5.885   3.106
    1CHTO  H126  235   6.933   5.966   3.136
    1CHTO   O41  236   6.925   5.800   2.991
    1CHTO   C64  237   7.058   5.737   3.032
    1CHTO  H121  238   7.130   5.817   3.057
    1CHTO   C71  239   7.114   5.657   2.912
    1CHTO   O47  240   7.142   5.742   2.801
    1CHTO  H104  241   7.214   5.798   2.820
    1CHTO   O34  242   6.728   5.953   3.051
    1CHTO   C49  243   6.731   6.085   2.966
    1CHTO   H91  244   6.780   6.161   3.027
    1CHTO   C47  245   6.587   6.128   2.934
    1CHTO   H89  246   6.593   6.228   2.885
    1CHTO   O33  247   6.516   6.142   3.058
    1CHTO   H70  248   6.549   6.214   3.108
    1CHTO   C45  249   6.518   6.021   2.835
    1CHTO   H87  250   6.519   5.924   2.884
    1CHTO    N8  251   6.377   6.056   2.803
    1CHTO   H75  252   6.320   6.066   2.894
    1CHTO   H76  253   6.374   6.149   2.748
    1CHTO   C43  254   6.608   5.999   2.703
    1CHTO   H85  255   6.566   5.911   2.654
    1CHTO   O29  256   6.747   5.979   2.737
    1CHTO   C50  257   6.810   6.067   2.833
    1CHTO   H92  258   6.907   6.021   2.858
    1CHTO   C54  259   6.852   6.202   2.768
    1CHTO   O36  260   6.923   6.287   2.858
    1CHTO   H72  261   6.866   6.317   2.926
    1CHTO   O27  262   6.597   6.106   2.607
    1CHTO   C37  263   6.610   6.156   2.473
    1CHTO   H79  264   6.526   6.120   2.412
    1CHTO   C38  265   6.601   6.312   2.475
    1CHTO   H80  266   6.659   6.348   2.561
    1CHTO   O31  267   6.463   6.346   2.498
    1CHTO   H68  268   6.409   6.318   2.426
    1CHTO   C39  269   6.657   6.379   2.344
    1CHTO   H81  270   6.592   6.349   2.261
    1CHTO    N7  271   6.659   6.529   2.348
    1CHTO   H73  272   6.598   6.569   2.268
    1CHTO   H74  273   6.623   6.566   2.443
    1CHTO   C40  274   6.800   6.319   2.316
    1CHTO   H82  275   6.864   6.338   2.402
    1CHTO   O26  276   6.783   6.178   2.293
    1CHTO   C41  277   6.743   6.102   2.410
    1CHTO   H83  278   6.824   6.104   2.485
    1CHTO   C52  279   6.728   5.958   2.358
    1CHTO   O35  280   6.716   5.859   2.459
    1CHTO   H71  281   6.710   5.774   2.419
    1CHTO   O28  282   6.864   6.368   2.197
    1CHTO   C42  283   7.007   6.344   2.174
    1CHTO   H84  284   7.027   6.249   2.222
    1CHTO   C44  285   7.105   6.448   2.239
    1CHTO   H86  286   7.069   6.548   2.215
    1CHTO   O32  287   7.097   6.431   2.382
    1CHTO   H69  288   7.012   6.458   2.413
    1CHTO   C48  289   7.254   6.436   2.189
    1CHTO   H90  290   7.297   6.344   2.229
    1CHTO    N9  291   7.341   6.547   2.242
    1CHTO   H77  292   7.423   6.507   2.300
    1CHTO   H78  293   7.378   6.609   2.162
    1CHTO   C51  294   7.256   6.425   2.032
    1CHTO   H93  295   7.211   6.516   1.992
    1CHTO   O30  296   7.182   6.308   1.994
    1CHTO   C46  297   7.034   6.324   2.022
    1CHTO   H88  298   6.998   6.411   1.968
    1CHTO   C53  299   6.962   6.197   1.969
    1CHTO   O72  300   7.010   6.076   2.029
    1CHTO  H199  301   6.986   6.074   2.120
    1CHTO   O22  302   7.387   6.404   1.977
    1CHTO   C31  303   7.417   6.462   1.845
    1CHTO   H59  304   7.319   6.475   1.794
    1CHTO   C29  305   7.484   6.601   1.850
    1CHTO   H57  306   7.585   6.588   1.892
    1CHTO   O21  307   7.411   6.685   1.940
    1CHTO   H37  308   7.457   6.766   1.953
    1CHTO   C27  309   7.496   6.663   1.705
    1CHTO   H55  310   7.395   6.681   1.667
    1CHTO    N5  311   7.571   6.791   1.703
    1CHTO   H43  312   7.569   6.833   1.604
    1CHTO   H44  313   7.673   6.775   1.735
    1CHTO   C25  314   7.562   6.557   1.608
    1CHTO   H53  315   7.669   6.547   1.632
    1CHTO   O17  316   7.502   6.425   1.619
    1CHTO   C32  317   7.502   6.370   1.752
    1CHTO   H60  318   7.604   6.366   1.790
    1CHTO   C36  319   7.446   6.226   1.747
    1CHTO   O25  320   7.531   6.141   1.670
    1CHTO   H40  321   7.494   6.054   1.667
    1CHTO   O15  322   7.547   6.604   1.460
    1CHTO   C19  323   7.471   6.638   1.341
    1CHTO   H47  324   7.419   6.731   1.368
    1CHTO   C20  325   7.562   6.667   1.217
    1CHTO   H48  326   7.636   6.587   1.201
    1CHTO   O19  327   7.637   6.786   1.248
    1CHTO   H35  328   7.699   6.770   1.317
    1CHTO   C21  329   7.481   6.686   1.083
    1CHTO   H49  330   7.424   6.778   1.089
    1CHTO    N4  331   7.569   6.698   0.964
    1CHTO   H41  332   7.510   6.711   0.874
    1CHTO   H42  333   7.635   6.783   0.975
    1CHTO   C22  334   7.379   6.569   1.070
    1CHTO   H50  335   7.435   6.475   1.062
    1CHTO   O14  336   7.294   6.567   1.185
    1CHTO   C23  337   7.360   6.533   1.308
    1CHTO   H51  338   7.400   6.432   1.297
    1CHTO   C34  339   7.252   6.531   1.418
    1CHTO   O23  340   7.153   6.431   1.392
    1CHTO   H38  341   7.088   6.434   1.459
    1CHTO   O16  342   7.288   6.585   0.959
    1CHTO   C24  343   7.249   6.445   0.885
    1CHTO   H52  344   7.297   6.359   0.932
    1CHTO   C26  345   7.294   6.454   0.738
    1CHTO   H54  346   7.253   6.548   0.694
    1CHTO   O20  347   7.438   6.464   0.736
    1CHTO   H36  348   7.468   6.481   0.649
    1CHTO   C30  349   7.244   6.333   0.653
    1CHTO   H58  350   7.297   6.242   0.685
    1CHTO    N6  351   7.272   6.350   0.508
    1CHTO   H45  352   7.337   6.271   0.472
    1CHTO   H46  353   7.319   6.445   0.487
    1CHTO   C33  354   7.093   6.305   0.679
    1CHTO   H61  355   7.032   6.387   0.636
    1CHTO   O18  356   7.067   6.300   0.820
    1CHTO   C28  357   7.096   6.421   0.892
    1CHTO   H56  358   7.045   6.505   0.846
    1CHTO   C35  359   7.048   6.406   1.038
    1CHTO   O24  360   6.907   6.383   1.048
    1CHTO   H39  361   6.861   6.460   1.021
    1CHTO    O9  362   7.049   6.184   0.613
    1CHTO   C13  363   6.893   6.182   0.574
    1CHTO   H26  364   6.868   6.280   0.528
    1CHTO   C11  365   6.807   6.155   0.705
    1CHTO   H24  366   6.805   6.248   0.765
    1CHTO    O8  367   6.867   6.052   0.786
    1CHTO    H3  368   6.951   6.080   0.817
    1CHTO    C9  369   6.662   6.120   0.660
    1CHTO   H22  370   6.632   6.201   0.592
    1CHTO    N2  371   6.562   6.126   0.770
    1CHTO   H10  372   6.566   6.222   0.819
    1CHTO   H11  373   6.581   6.047   0.841
    1CHTO    C7  374   6.665   5.984   0.578
    1CHTO   H20  375   6.588   6.000   0.500
    1CHTO    O4  376   6.793   5.959   0.515
    1CHTO   C14  377   6.862   6.073   0.461
    1CHTO   H27  378   6.796   6.120   0.385
    1CHTO   C18  379   6.987   6.021   0.387
    1CHTO   O13  380   7.055   6.125   0.317
    1CHTO    H7  381   7.004   6.154   0.244
    1CHTO    O2  382   6.626   5.851   0.667
    1CHTO    C1  383   6.595   5.738   0.584
    1CHTO   H14  384   6.629   5.757   0.480
    1CHTO    C2  385   6.441   5.703   0.581
    1CHTO   H15  386   6.410   5.689   0.686
    1CHTO    O6  387   6.369   5.815   0.525
    1CHTO    H1  388   6.374   5.889   0.582
    1CHTO    C3  389   6.414   5.569   0.497
    1CHTO   H16  390   6.432   5.590   0.390
    1CHTO    N1  391   6.271   5.524   0.507
    1CHTO    H8  392   6.245   5.505   0.611
    1CHTO    H9  393   6.205   5.600   0.467
    1CHTO    C4  394   6.516   5.455   0.536
    1CHTO   H17  395   6.491   5.417   0.635
    1CHTO    O1  396   6.651   5.507   0.537
    1CHTO    C5  397   6.674   5.612   0.631
    1CHTO   H18  398   6.638   5.584   0.730
    1CHTO   C16  399   6.827   5.634   0.637
    1CHTO   O11  400   6.865   5.718   0.747
    1CHTO    H5  401   6.958   5.730   0.747
    1CHTO    O3  402   6.509   5.346   0.441
    1CHTO    C6  403   6.625   5.258   0.419
    1CHTO   H19  404   6.719   5.313   0.414
    1CHTO    C8  405   6.640   5.150   0.531
    1CHTO   H21  406   6.545   5.098   0.543
    1CHTO    O7  407   6.673   5.220   0.653
    1CHTO    H2  408   6.675   5.160   0.725
    1CHTO   C12  409   6.752   5.045   0.492
    1CHTO   H25  410   6.849   5.100   0.493
    1CHTO    N3  411   6.764   4.935   0.594
    1CHTO   H12  412   6.670   4.883   0.603
    1CHTO   H13  413   6.793   4.977   0.690
    1CHTO   C15  414   6.727   4.991   0.347
    1CHTO   H28  415   6.637   4.929   0.343
    1CHTO   O10  416   6.847   4.910   0.290
    1CHTO    H4  417   6.926   4.961   0.294
    1CHTO    O5  418   6.716   5.099   0.254
    1CHTO   C10  419   6.607   5.189   0.281
    1CHTO   H23  420   6.513   5.132   0.279
    1CHTO   C17  421   6.600   5.292   0.168
    1CHTO   O12  422   6.579   5.229   0.041
    1CHTO    H6  423   6.575   5.295   4.755
    2CHTO  H203  424   5.945   3.355   0.078
    2CHTO   O82  425   5.884   3.331   0.010
    2CHTO  C123  426   5.919   3.396   4.669
    2CHTO  H227  427   6.021   3.366   4.640
    2CHTO   O77  428   5.822   3.342   4.574
    2CHTO  C118  429   5.839   3.386   4.439
    2CHTO  H222  430   5.941   3.361   4.405
    2CHTO  C125  431   5.735   3.310   4.348
    2CHTO   O84  432   5.600   3.333   4.388
    2CHTO  H205  433   5.584   3.294   4.471
    2CHTO  C114  434   5.820   3.539   4.431
    2CHTO  H218  435   5.718   3.563   4.463
    2CHTO  C116  436   5.917   3.613   4.529
    2CHTO  H220  437   6.021   3.602   4.491
    2CHTO   O79  438   5.887   3.754   4.525
    2CHTO  H201  439   5.948   3.801   4.578
    2CHTO  C120  440   5.905   3.553   4.675
    2CHTO  H224  441   5.804   3.580   4.712
    2CHTO   N21  442   6.004   3.614   4.768
    2CHTO  H211  443   6.094   3.641   4.715
    2CHTO  H212  444   5.961   3.700   0.036
    2CHTO   O75  445   5.839   3.572   4.292
    2CHTO  C112  446   5.745   3.695   4.240
    2CHTO  H216  447   5.758   3.781   4.308
    2CHTO   O73  448   5.609   3.648   4.240
    2CHTO  C113  449   5.515   3.751   4.205
    2CHTO  H217  450   5.529   3.837   4.273
    2CHTO  C124  451   5.372   3.698   4.230
    2CHTO   O83  452   5.340   3.579   4.158
    2CHTO  H204  453   5.337   3.597   4.066
    2CHTO  C109  454   5.537   3.798   4.058
    2CHTO  H213  455   5.515   3.711   3.993
    2CHTO  C110  456   5.685   3.844   4.039
    2CHTO  H214  457   5.699   3.939   4.091
    2CHTO   O78  458   5.708   3.869   3.899
    2CHTO  H200  459   5.794   3.907   3.886
    2CHTO  C111  460   5.786   3.738   4.094
    2CHTO  H215  461   5.781   3.648   4.030
    2CHTO   N19  462   5.927   3.785   4.091
    2CHTO  H207  463   5.939   3.873   4.153
    2CHTO  H208  464   5.993   3.707   4.126
    2CHTO   O74  465   5.443   3.905   4.027
    2CHTO  C115  466   5.401   3.914   3.874
    2CHTO  H219  467   5.471   3.861   3.810
    2CHTO   O76  468   5.265   3.845   3.848
    2CHTO  C122  469   5.159   3.905   3.923
    2CHTO  H226  470   5.180   3.888   4.029
    2CHTO  C126  471   5.026   3.827   3.893
    2CHTO   O85  472   5.030   3.691   3.938
    2CHTO  H206  473   5.091   3.642   3.887
    2CHTO  C121  474   5.143   4.061   3.895
    2CHTO  H225  475   5.043   4.079   3.851
    2CHTO   O81  476   5.150   4.132   4.019
    2CHTO  H202  477   5.126   4.222   4.007
    2CHTO  C119  478   5.252   4.113   3.796
    2CHTO  H223  479   5.229   4.067   3.699
    2CHTO  C117  480   5.398   4.068   3.837
    2CHTO  H221  481   5.436   4.119   3.925
    2CHTO   N20  482   5.497   4.100   3.728
    2CHTO  H209  483   5.448   4.138   3.640
    2CHTO  H210  484   5.569   4.172   3.764
    2CHTO   O80  485   5.238   4.271   3.761
    2CHTO  C103  486   5.117   4.325   3.668
    2CHTO  H190  487   5.152   4.411   3.612
    2CHTO  C101  488   5.052   4.224   3.566
    2CHTO  H188  489   5.019   4.135   3.620
    2CHTO   O68  490   5.160   4.181   3.461
    2CHTO  H168  491   5.229   4.133   3.504
    2CHTO   C99  492   4.925   4.292   3.495
    2CHTO  H186  493   4.960   4.377   3.433
    2CHTO   N17  494   4.851   4.199   3.404
    2CHTO  H174  495   4.918   4.157   3.331
    2CHTO  H175  496   4.770   4.252   3.355
    2CHTO   C97  497   4.831   4.354   3.602
    2CHTO  H184  498   4.780   4.272   3.656
    2CHTO   O64  499   4.902   4.440   3.692
    2CHTO  C104  500   5.006   4.376   3.767
    2CHTO  H191  501   4.967   4.291   3.824
    2CHTO  C108  502   5.063   4.474   3.870
    2CHTO   O71  503   4.964   4.511   3.967
    2CHTO  H171  504   5.000   4.573   4.027
    2CHTO   O62  505   4.733   4.442   3.543
    2CHTO   C91  506   4.614   4.466   3.619
    2CHTO  H178  507   4.620   4.411   3.714
    2CHTO   C92  508   4.492   4.404   3.542
    2CHTO  H179  509   4.514   4.299   3.516
    2CHTO   O66  510   4.380   4.398   3.631
    2CHTO  H166  511   4.395   4.337   3.700
    2CHTO   C93  512   4.451   4.489   3.416
    2CHTO  H180  513   4.346   4.465   3.395
    2CHTO   N16  514   4.525   4.449   3.293
    2CHTO  H172  515   4.456   4.421   3.215
    2CHTO  H173  516   4.590   4.529   3.259
    2CHTO   C94  517   4.463   4.644   3.445
    2CHTO  H181  518   4.554   4.687   3.403
    2CHTO   O61  519   4.468   4.671   3.586
    2CHTO   C95  520   4.587   4.620   3.650
    2CHTO  H182  521   4.673   4.678   3.615
    2CHTO  C106  522   4.574   4.649   3.804
    2CHTO   O69  523   4.693   4.614   3.875
    2CHTO  H169  524   4.762   4.673   3.851
    2CHTO   O63  525   4.338   4.715   3.387
    2CHTO   C96  526   4.369   4.855   3.323
    2CHTO  H183  527   4.469   4.851   3.279
    2CHTO   C98  528   4.365   4.972   3.425
    2CHTO  H185  529   4.273   4.964   3.486
    2CHTO   O67  530   4.473   4.955   3.518
    2CHTO  H167  531   4.556   4.962   3.474
    2CHTO  C102  532   4.371   5.117   3.355
    2CHTO  H189  533   4.472   5.126   3.314
    2CHTO   N18  534   4.354   5.231   3.448
    2CHTO  H176  535   4.362   5.325   3.394
    2CHTO  H177  536   4.430   5.228   3.524
    2CHTO  C105  537   4.269   5.120   3.237
    2CHTO  H192  538   4.168   5.114   3.277
    2CHTO   O65  539   4.290   5.010   3.147
    2CHTO  C100  540   4.267   4.881   3.205
    2CHTO  H187  541   4.165   4.877   3.244
    2CHTO  C107  542   4.279   4.777   3.091
    2CHTO   O70  543   4.234   4.647   3.132
    2CHTO  H170  544   4.243   4.587   3.060
    2CHTO   O57  545   4.290   5.260   3.158
    2CHTO   C85  546   4.196   5.298   3.056
    2CHTO  H157  547   4.110   5.227   3.062
    2CHTO   C83  548   4.261   5.275   2.916
    2CHTO  H155  549   4.282   5.168   2.906
    2CHTO   O56  550   4.389   5.342   2.912
    2CHTO  H135  551   4.377   5.435   2.916
    2CHTO   C81  552   4.162   5.317   2.804
    2CHTO  H153  553   4.071   5.257   2.815
    2CHTO   N14  554   4.211   5.283   2.668
    2CHTO  H141  555   4.135   5.303   2.595
    2CHTO  H142  556   4.298   5.341   2.645
    2CHTO   C79  557   4.122   5.469   2.820
    2CHTO  H151  558   4.043   5.489   2.748
    2CHTO   O52  559   4.065   5.491   2.953
    2CHTO   C86  560   4.148   5.449   3.065
    2CHTO  H158  561   4.234   5.518   3.066
    2CHTO   C90  562   4.069   5.477   3.196
    2CHTO   O60  563   4.152   5.468   3.312
    2CHTO  H138  564   4.100   5.485   3.388
    2CHTO   O50  565   4.229   5.562   2.794
    2CHTO   C73  566   4.279   5.693   2.760
    2CHTO  H145  567   4.198   5.756   2.720
    2CHTO   C74  568   4.392   5.679   2.653
    2CHTO  H146  569   4.346   5.632   2.565
    2CHTO   O54  570   4.432   5.812   2.612
    2CHTO  H133  571   4.496   5.806   2.544
    2CHTO   C75  572   4.509   5.592   2.713
    2CHTO  H147  573   4.471   5.489   2.726
    2CHTO   N13  574   4.625   5.574   2.623
    2CHTO  H139  575   4.609   5.623   2.528
    2CHTO  H140  576   4.715   5.614   2.666
    2CHTO   C76  577   4.552   5.645   2.859
    2CHTO  H148  578   4.615   5.733   2.847
    2CHTO   O49  579   4.439   5.677   2.946
    2CHTO   C77  580   4.339   5.762   2.886
    2CHTO  H149  581   4.385   5.856   2.856
    2CHTO   C88  582   4.232   5.799   2.989
    2CHTO   O58  583   4.290   5.876   3.100
    2CHTO  H136  584   4.222   5.898   3.161
    2CHTO   O51  585   4.624   5.528   2.935
    2CHTO   C78  586   4.720   5.575   3.047
    2CHTO  H150  587   4.704   5.683   3.071
    2CHTO   C80  588   4.866   5.555   3.000
    2CHTO  H152  589   4.877   5.450   2.965
    2CHTO   O55  590   4.886   5.641   2.886
    2CHTO  H134  591   4.971   5.627   2.849
    2CHTO   C84  592   4.969   5.584   3.116
    2CHTO  H156  593   4.962   5.689   3.142
    2CHTO   N15  594   5.111   5.557   3.076
    2CHTO  H143  595   5.177   5.579   3.157
    2CHTO  H144  596   5.136   5.619   2.992
    2CHTO   C87  597   4.930   5.501   3.241
    2CHTO  H159  598   4.942   5.394   3.222
    2CHTO   O53  599   4.782   5.532   3.278
    2CHTO   C82  600   4.691   5.493   3.174
    2CHTO  H154  601   4.702   5.387   3.154
    2CHTO   C89  602   4.546   5.514   3.225
    2CHTO   O59  603   4.520   5.651   3.261
    2CHTO  H137  604   4.432   5.658   3.294
    2CHTO   O45  605   5.020   5.542   3.369
    2CHTO   C67  606   5.000   5.457   3.482
    2CHTO  H124  607   4.903   5.407   3.474
    2CHTO   C65  608   5.112   5.347   3.493
    2CHTO  H122  609   5.197   5.385   3.437
    2CHTO   O44  610   5.060   5.230   3.426
    2CHTO  H102  611   5.128   5.165   3.418
    2CHTO   C63  612   5.166   5.328   3.640
    2CHTO  H120  613   5.227   5.415   3.665
    2CHTO   N11  614   5.263   5.215   3.661
    2CHTO  H108  615   5.266   5.151   3.576
    2CHTO  H109  616   5.362   5.253   3.680
    2CHTO   C61  617   5.046   5.331   3.741
    2CHTO  H118  618   5.090   5.333   3.842
    2CHTO   O40  619   4.966   5.453   3.729
    2CHTO   C68  620   4.992   5.541   3.615
    2CHTO  H125  621   5.090   5.592   3.631
    2CHTO   C72  622   4.885   5.653   3.609
    2CHTO   O48  623   4.751   5.605   3.591
    2CHTO  H105  624   4.724   5.556   3.666
    2CHTO   O38  625   4.964   5.213   3.727
    2CHTO   C55  626   4.844   5.202   3.806
    2CHTO  H112  627   4.802   5.302   3.825
    2CHTO   C56  628   4.869   5.123   3.941
    2CHTO  H113  629   4.909   5.024   3.915
    2CHTO   O42  630   4.971   5.189   4.019
    2CHTO  H100  631   5.053   5.186   3.975
    2CHTO   C57  632   4.733   5.109   4.021
    2CHTO  H114  633   4.704   5.209   4.052
    2CHTO   N10  634   4.745   5.027   4.145
    2CHTO  H106  635   4.651   4.980   4.169
    2CHTO  H107  636   4.821   4.951   4.133
    2CHTO   C58  637   4.623   5.052   3.928
    2CHTO  H115  638   4.645   4.945   3.906
    2CHTO   O37  639   4.614   5.123   3.803
    2CHTO   C59  640   4.735   5.126   3.726
    2CHTO  H116  641   4.768   5.023   3.705
    2CHTO   C70  642   4.709   5.193   3.590
    2CHTO   O46  643   4.658   5.326   3.601
    2CHTO  H103  644   4.643   5.361   3.516
    2CHTO   O39  645   4.471   5.062   4.005
    2CHTO   C60  646   4.388   5.175   3.972
    2CHTO  H117  647   4.449   5.255   3.929
    2CHTO   C62  648   4.280   5.135   3.867
    2CHTO  H119  649   4.335   5.102   3.775
    2CHTO   O43  650   4.204   5.022   3.917
    2CHTO  H101  651   4.258   4.946   3.921
    2CHTO   C66  652   4.188   5.262   3.831
    2CHTO  H123  653   4.253   5.340   3.790
    2CHTO   N12  654   4.088   5.231   3.725
    2CHTO  H110  655   4.101   5.297   3.640
    2CHTO  H111  656   3.987   5.236   3.763
    2CHTO   C69  657   4.124   5.319   3.960
    2CHTO  H126  658   4.054   5.244   4.004
    2CHTO   O41  659   4.235   5.352   4.063
    2CHTO   C64  660   4.321   5.232   4.099
    2CHTO  H121  661   4.258   5.153   4.146
    2CHTO   C71  662   4.426   5.277   4.203
    2CHTO   O47  663   4.362   5.323   4.322
    2CHTO  H104  664   4.427   5.346   4.386
    2CHTO   O34  665   4.044   5.450   3.932
    2CHTO   C49  666   4.025   5.601   3.915
    2CHTO   H91  667   3.922   5.615   3.883
    2CHTO   C47  668   4.120   5.653   3.805
    2CHTO   H89  669   4.090   5.759   3.786
    2CHTO   O33  670   4.098   5.577   3.685
    2CHTO   H70  671   4.150   5.612   3.615
    2CHTO   C45  672   4.271   5.649   3.860
    2CHTO   H87  673   4.293   5.547   3.896
    2CHTO    N8  674   4.372   5.683   3.756
    2CHTO   H75  675   4.363   5.615   3.673
    2CHTO   H76  676   4.357   5.785   3.722
    2CHTO   C43  677   4.281   5.743   3.989
    2CHTO   H85  678   4.383   5.736   4.026
    2CHTO   O29  679   4.186   5.699   4.089
    2CHTO   C50  680   4.048   5.677   4.050
    2CHTO   H92  681   4.004   5.615   4.129
    2CHTO   C54  682   3.968   5.810   4.060
    2CHTO   O36  683   3.828   5.791   4.038
    2CHTO   H72  684   3.790   5.741   4.108
    2CHTO   O27  685   4.260   5.882   3.957
    2CHTO   C37  686   4.258   6.026   3.949
    2CHTO   H79  687   4.354   6.061   3.907
    2CHTO   C38  688   4.146   6.074   3.853
    2CHTO   H80  689   4.052   6.022   3.880
    2CHTO   O31  690   4.183   6.033   3.720
    2CHTO   H68  691   4.177   5.940   3.711
    2CHTO   C39  692   4.122   6.230   3.859
    2CHTO   H81  693   4.209   6.278   3.814
    2CHTO    N7  694   4.002   6.274   3.780
    2CHTO   H73  695   3.992   6.382   3.785
    2CHTO   H74  696   3.913   6.227   3.819
    2CHTO   C40  697   4.115   6.280   4.009
    2CHTO   H82  698   4.022   6.245   4.055
    2CHTO   O26  699   4.231   6.233   4.080
    2CHTO   C41  700   4.240   6.088   4.090
    2CHTO   H83  701   4.149   6.047   4.136
    2CHTO   C52  702   4.360   6.053   4.181
    2CHTO   O35  703   4.343   6.102   4.314
    2CHTO   H71  704   4.347   6.196   4.314
    2CHTO   O28  705   4.121   6.424   4.020
    2CHTO   C42  706   4.070   6.497   4.137
    2CHTO   H84  707   4.113   6.596   4.125
    2CHTO   C44  708   4.117   6.446   4.277
    2CHTO   H86  709   4.084   6.342   4.289
    2CHTO   O32  710   4.261   6.449   4.277
    2CHTO   H69  711   4.295   6.384   4.218
    2CHTO   C48  712   4.058   6.530   4.398
    2CHTO   H90  713   4.105   6.629   4.395
    2CHTO    N9  714   4.095   6.472   4.532
    2CHTO   H77  715   4.157   6.384   4.521
    2CHTO   H78  716   4.007   6.449   4.591
    2CHTO   C51  717   3.902   6.551   4.382
    2CHTO   H93  718   3.853   6.454   4.397
    2CHTO   O30  719   3.874   6.606   4.253
    2CHTO   C46  720   3.915   6.515   4.136
    2CHTO   H88  721   3.867   6.417   4.148
    2CHTO   C53  722   3.868   6.582   4.005
    2CHTO   O72  723   3.725   6.593   4.003
    2CHTO  H199  724   3.698   6.633   3.923
    2CHTO   O22  725   3.852   6.649   4.475
    2CHTO   C31  726   3.714   6.649   4.530
    2CHTO   H59  727   3.699   6.750   4.573
    2CHTO   C29  728   3.601   6.629   4.425
    2CHTO   H57  729   3.621   6.534   4.373
    2CHTO   O21  730   3.613   6.733   4.326
    2CHTO   H37  731   3.592   6.816   4.363
    2CHTO   C27  732   3.457   6.623   4.490
    2CHTO   H55  733   3.434   6.721   4.533
    2CHTO    N5  734   3.350   6.588   4.392
    2CHTO   H43  735   3.254   6.590   4.441
    2CHTO   H44  736   3.351   6.659   4.311
    2CHTO   C25  737   3.459   6.520   4.608
    2CHTO   H53  738   3.482   6.420   4.568
    2CHTO   O17  739   3.563   6.558   4.702
    2CHTO   C32  740   3.696   6.549   4.648
    2CHTO   H60  741   3.716   6.448   4.613
    2CHTO   C36  742   3.792   6.581   4.764
    2CHTO   O25  743   3.779   6.486   0.090
    2CHTO   H40  744   3.838   6.509   0.159
    2CHTO   O15  745   3.319   6.514   4.691
    2CHTO   C19  746   3.300   6.424   0.024
    2CHTO   H47  747   3.190   6.420   0.035
    2CHTO   C20  748   3.351   6.278   4.781
    2CHTO   H48  749   3.458   6.277   4.753
    2CHTO   O19  750   3.277   6.226   4.669
    2CHTO   H35  751   3.301   6.269   4.590
    2CHTO   C21  752   3.334   6.187   0.127
    2CHTO   H49  753   3.228   6.176   0.148
    2CHTO    N4  754   3.390   6.049   0.110
    2CHTO   H41  755   3.433   6.037   0.011
    2CHTO   H42  756   3.312   5.976   0.123
    2CHTO   C22  757   3.396   6.260   0.249
    2CHTO   H50  758   3.504   6.273   0.232
    2CHTO   O14  759   3.334   6.389   0.266
    2CHTO   C23  760   3.356   6.481   0.158
    2CHTO   H51  761   3.464   6.500   0.152
    2CHTO   C34  762   3.286   6.613   0.193
    2CHTO   O23  763   3.344   6.674   0.309
    2CHTO   H38  764   3.299   6.754   0.328
    2CHTO   O16  765   3.371   6.193   0.374
    2CHTO   C24  766   3.500   6.186   0.474
    2CHTO   H52  767   3.587   6.238   0.433
    2CHTO   C26  768   3.536   6.037   0.498
    2CHTO   H54  769   3.443   5.982   0.522
    2CHTO   O20  770   3.587   5.983   0.374
    2CHTO   H36  771   3.666   6.026   0.349
    2CHTO   C30  772   3.638   6.018   0.615
    2CHTO   H58  773   3.737   6.056   0.585
    2CHTO    N6  774   3.657   5.873   0.647
    2CHTO   H45  775   3.728   5.863   0.727
    2CHTO   H46  776   3.695   5.821   0.560
    2CHTO   C33  777   3.594   6.101   0.739
    2CHTO   H61  778   3.500   6.060   0.780
    2CHTO   O18  779   3.572   6.237   0.700
    2CHTO   C28  780   3.464   6.256   0.608
    2CHTO   H56  781   3.372   6.212   0.647
    2CHTO   C35  782   3.444   6.408   0.586
    2CHTO   O24  783   3.403   6.476   0.705
    2CHTO   H39  784   3.316   6.449   0.728
    2CHTO    O9  785   3.690   6.092   0.847
    2CHTO   C13  786   3.646   6.170   0.981
    2CHTO   H26  787   3.536   6.180   0.982
    2CHTO   C11  788   3.718   6.311   0.985
    2CHTO   H24  789   3.678   6.371   0.901
    2CHTO    O8  790   3.859   6.295   0.961
    2CHTO    H3  791   3.898   6.246   1.031
    2CHTO    C9  792   3.681   6.380   1.118
    2CHTO   H22  793   3.571   6.379   1.123
    2CHTO    N2  794   3.719   6.523   1.125
    2CHTO   H10  795   3.826   6.534   1.124
    2CHTO   H11  796   3.677   6.568   1.214
    2CHTO    C7  797   3.737   6.295   1.238
    2CHTO   H20  798   3.693   6.342   1.327
    2CHTO    O4  799   3.693   6.157   1.233
    2CHTO   C14  800   3.682   6.083   1.109
    2CHTO   H27  801   3.599   6.011   1.124
    2CHTO   C18  802   3.811   6.000   1.088
    2CHTO   O13  803   3.829   5.907   1.195
    2CHTO    H7  804   3.908   5.858   1.181
    2CHTO    O2  805   3.905   6.299   1.248
    2CHTO    C1  806   3.960   6.260   1.375
    2CHTO   H14  807   3.905   6.171   1.413
    2CHTO    C2  808   3.959   6.372   1.488
    2CHTO   H15  809   4.016   6.458   1.448
    2CHTO    O6  810   3.824   6.414   1.515
    2CHTO    H1  811   3.788   6.455   1.439
    2CHTO    C3  812   4.031   6.316   1.621
    2CHTO   H16  813   3.974   6.229   1.657
    2CHTO    N1  814   4.036   6.415   1.733
    2CHTO    H8  815   3.984   6.376   1.820
    2CHTO    H9  816   3.993   6.509   1.704
    2CHTO    C4  817   4.174   6.260   1.584
    2CHTO   H17  818   4.239   6.344   1.557
    2CHTO    O1  819   4.165   6.166   1.476
    2CHTO    C5  820   4.108   6.216   1.354
    2CHTO   H18  821   4.165   6.303   1.320
    2CHTO   C16  822   4.120   6.104   1.248
    2CHTO   O11  823   4.256   6.074   1.217
    2CHTO    H5  824   4.295   6.145   1.170
    2CHTO    O3  825   4.232   6.186   1.694
    2CHTO    C6  826   4.377   6.165   1.688
    2CHTO   H19  827   4.420   6.193   1.592
    2CHTO    C8  828   4.448   6.249   1.800
    2CHTO   H21  829   4.400   6.227   1.895
    2CHTO    O7  830   4.428   6.388   1.767
    2CHTO    H2  831   4.462   6.443   1.835
    2CHTO   C12  832   4.602   6.213   1.810
    2CHTO   H25  833   4.648   6.248   1.715
    2CHTO    N3  834   4.671   6.286   1.922
    2CHTO   H12  835   4.751   6.347   1.883
    2CHTO   H13  836   4.601   6.347   1.978
    2CHTO   C15  837   4.619   6.057   1.818
    2CHTO   H28  838   4.582   6.017   1.913
    2CHTO   O10  839   4.766   6.011   1.798
    2CHTO    H4  840   4.773   5.919   1.813
    2CHTO    O5  841   4.552   5.994   1.708
    2CHTO   C10  842   4.410   6.014   1.709
    2CHTO   H23  843   4.370   5.979   1.805
    2CHTO   C17  844   4.352   5.925   1.599
    2CHTO   O12  845   4.211   5.907   1.615
    2CHTO    H6  846   4.193   5.853   1.689
    3CHTO  H203  847   6.001   2.351   1.935
    3CHTO   O82  848   6.003   2.391   1.850
    3CHTO  C123  849   6.124   2.356   1.781
    3CHTO  H227  850   6.129   2.246   1.771
    3CHTO   O77  851   6.105   2.417   1.650
    3CHTO  C118  852   6.211   2.392   1.555
    3CHTO  H222  853   6.220   2.284   1.539
    3CHTO  C125  854   6.170   2.459   1.419
    3CHTO   O84  855   6.156   2.602   1.431
    3CHTO  H205  856   6.132   2.638   1.348
    3CHTO  C114  857   6.344   2.448   1.609
    3CHTO  H218  858   6.333   2.555   1.622
    3CHTO  C116  859   6.377   2.391   1.751
    3CHTO  H220  860   6.399   2.282   1.744
    3CHTO   O79  861   6.497   2.454   1.799
    3CHTO  H201  862   6.485   2.546   1.810
    3CHTO  C120  863   6.254   2.414   1.849
    3CHTO  H224  864   6.244   2.524   1.862
    3CHTO   N21  865   6.279   2.354   1.983
    3CHTO  H211  866   6.328   2.427   2.047
    3CHTO  H212  867   6.186   2.322   2.028
    3CHTO   O75  868   6.442   2.425   1.505
    3CHTO  C112  869   6.514   2.279   1.501
    3CHTO  H216  870   6.440   2.203   1.533
    3CHTO   O73  871   6.626   2.284   1.591
    3CHTO  C113  872   6.686   2.156   1.613
    3CHTO  H217  873   6.608   2.085   1.649
    3CHTO  C124  874   6.791   2.169   1.724
    3CHTO   O83  875   6.735   2.209   1.849
    3CHTO  H204  876   6.703   2.297   1.844
    3CHTO  C109  877   6.747   2.102   1.481
    3CHTO  H213  878   6.834   2.166   1.458
    3CHTO  C110  879   6.643   2.106   1.364
    3CHTO  H214  880   6.572   2.025   1.379
    3CHTO   O78  881   6.712   2.079   1.240
    3CHTO  H200  882   6.743   1.991   1.239
    3CHTO  C111  883   6.567   2.242   1.358
    3CHTO  H215  884   6.638   2.320   1.327
    3CHTO   N19  885   6.457   2.242   1.258
    3CHTO  H207  886   6.409   2.339   1.256
    3CHTO  H208  887   6.384   2.167   1.283
    3CHTO   O74  888   6.794   1.966   1.505
    3CHTO  C115  889   6.914   1.915   1.416
    3CHTO  H219  890   6.938   1.986   1.336
    3CHTO   O76  891   7.045   1.901   1.498
    3CHTO  C122  892   7.026   1.823   1.618
    3CHTO  H226  893   6.983   1.889   1.694
    3CHTO  C126  894   7.167   1.782   1.673
    3CHTO   O85  895   7.246   1.895   1.712
    3CHTO  H206  896   7.328   1.866   1.747
    3CHTO  C121  897   6.934   1.695   1.598
    3CHTO  H225  898   6.980   1.610   1.652
    3CHTO   O81  899   6.806   1.718   1.658
    3CHTO  H202  900   6.755   1.639   1.659
    3CHTO  C119  901   6.921   1.657   1.446
    3CHTO  H223  902   7.023   1.632   1.416
    3CHTO  C117  903   6.870   1.777   1.356
    3CHTO  H221  904   6.761   1.784   1.349
    3CHTO   N20  905   6.915   1.760   1.214
    3CHTO  H209  906   6.874   1.839   1.152
    3CHTO  H210  907   6.883   1.664   1.176
    3CHTO   O80  908   6.845   1.522   1.417
    3CHTO  C103  909   6.877   1.395   1.501
    3CHTO  H190  910   6.964   1.410   1.565
    3CHTO  C101  911   6.756   1.343   1.589
    3CHTO  H188  912   6.665   1.353   1.529
    3CHTO   O68  913   6.741   1.435   1.713
    3CHTO  H168  914   6.664   1.413   1.760
    3CHTO   C99  915   6.772   1.190   1.633
    3CHTO  H186  916   6.849   1.183   1.711
    3CHTO   N17  917   6.647   1.134   1.693
    3CHTO  H174  918   6.665   1.034   1.732
    3CHTO  H175  919   6.568   1.132   1.619
    3CHTO   C97  920   6.824   1.103   1.514
    3CHTO  H184  921   6.744   1.095   1.439
    3CHTO   O64  922   6.943   1.162   1.459
    3CHTO  C104  923   6.916   1.287   1.394
    3CHTO  H191  924   6.835   1.278   1.321
    3CHTO  C108  925   7.040   1.330   1.313
    3CHTO   O71  926   7.069   1.238   1.208
    3CHTO  H171  927   7.098   1.156   1.244
    3CHTO   O62  928   6.871   0.973   1.556
    3CHTO   C91  929   6.792   0.861   1.509
    3CHTO  H178  930   6.691   0.895   1.488
    3CHTO   C92  931   6.778   0.754   1.621
    3CHTO  H179  932   6.877   0.707   1.637
    3CHTO   O66  933   6.745   0.815   1.747
    3CHTO  H166  934   6.663   0.860   1.741
    3CHTO   C93  935   6.670   0.646   1.581
    3CHTO  H180  936   6.572   0.691   1.605
    3CHTO   N16  937   6.674   0.522   1.664
    3CHTO  H172  938   6.697   0.436   1.604
    3CHTO  H173  939   6.745   0.532   1.745
    3CHTO   C94  940   6.674   0.616   1.426
    3CHTO  H181  941   6.659   0.510   1.404
    3CHTO   O61  942   6.803   0.649   1.370
    3CHTO   C95  943   6.848   0.786   1.380
    3CHTO  H182  944   6.957   0.786   1.386
    3CHTO  C106  945   6.811   0.859   1.246
    3CHTO   O69  946   6.885   0.980   1.230
    3CHTO  H169  947   6.861   1.022   1.150
    3CHTO   O63  948   6.563   0.703   1.352
    3CHTO   C96  949   6.420   0.648   1.344
    3CHTO  H183  950   6.395   0.602   1.439
    3CHTO   C98  951   6.399   0.542   1.231
    3CHTO  H185  952   6.448   0.577   1.139
    3CHTO   O67  953   6.469   0.421   1.268
    3CHTO  H167  954   6.562   0.436   1.268
    3CHTO  C102  955   6.245   0.508   1.200
    3CHTO  H189  956   6.209   0.449   1.286
    3CHTO   N18  957   6.222   0.424   1.080
    3CHTO  H176  958   6.167   0.334   1.106
    3CHTO  H177  959   6.170   0.478   1.002
    3CHTO  C105  960   6.162   0.640   1.197
    3CHTO  H192  961   6.185   0.695   1.105
    3CHTO   O65  962   6.188   0.724   1.310
    3CHTO  C100  963   6.323   0.770   1.321
    3CHTO  H187  964   6.351   0.822   1.227
    3CHTO  C107  965   6.326   0.873   1.436
    3CHTO   O70  966   6.447   0.949   1.439
    3CHTO  H170  967   6.519   0.894   1.462
    3CHTO   O57  968   6.004   0.599   1.202
    3CHTO   C85  969   5.907   0.668   1.121
    3CHTO  H157  970   5.934   0.644   1.016
    3CHTO   C83  971   5.921   0.824   1.134
    3CHTO  H155  972   6.020   0.852   1.096
    3CHTO   O56  973   5.919   0.861   1.273
    3CHTO  H135  974   5.937   0.952   1.283
    3CHTO   C81  975   5.813   0.892   1.047
    3CHTO  H153  976   5.824   0.857   0.944
    3CHTO   N14  977   5.830   1.039   1.037
    3CHTO  H141  978   5.819   1.085   1.133
    3CHTO  H142  979   5.927   1.063   0.999
    3CHTO   C79  980   5.670   0.850   1.097
    3CHTO  H151  981   5.597   0.895   1.029
    3CHTO   O52  982   5.654   0.705   1.086
    3CHTO   C86  983   5.758   0.627   1.155
    3CHTO  H158  984   5.736   0.641   1.263
    3CHTO   C90  985   5.737   0.476   1.127
    3CHTO   O60  986   5.610   0.432   1.175
    3CHTO  H138  987   5.599   0.341   1.155
    3CHTO   O50  988   5.640   0.893   1.231
    3CHTO   C73  989   5.525   0.906   1.316
    3CHTO  H145  990   5.466   0.813   1.313
    3CHTO   C74  991   5.435   1.024   1.270
    3CHTO  H146  992   5.407   1.004   1.166
    3CHTO   O54  993   5.313   1.020   1.347
    3CHTO  H133  994   5.330   1.036   1.438
    3CHTO   C75  995   5.515   1.159   1.284
    3CHTO  H147  996   5.603   1.155   1.218
    3CHTO   N13  997   5.439   1.279   1.240
    3CHTO  H139  998   5.350   1.291   1.301
    3CHTO  H140  999   5.500   1.367   1.250
    3CHTO   C76 1000   5.570   1.174   1.434
    3CHTO  H148 1001   5.484   1.188   1.500
    3CHTO   O49 1002   5.644   1.054   1.475
    3CHTO   C77 1003   5.571   0.931   1.463
    3CHTO  H149 1004   5.483   0.934   1.528
    3CHTO   C88 1005   5.660   0.818   1.518
    3CHTO   O58 1006   5.588   0.689   1.515
    3CHTO  H136 1007   5.644   0.621   1.547
    3CHTO   O51 1008   5.677   1.293   1.443
    3CHTO   C78 1009   5.684   1.371   1.585
    3CHTO  H150 1010   5.774   1.436   1.587
    3CHTO   C80 1011   5.691   1.275   1.706
    3CHTO  H152 1012   5.602   1.208   1.704
    3CHTO   O55 1013   5.809   1.195   1.691
    3CHTO  H134 1014   5.800   1.136   1.618
    3CHTO   C84 1015   5.692   1.356   1.842
    3CHTO  H156 1016   5.787   1.409   1.845
    3CHTO   N15 1017   5.690   1.266   1.963
    3CHTO  H143 1018   5.602   1.204   1.961
    3CHTO  H144 1019   5.776   1.203   1.963
    3CHTO   C87 1020   5.576   1.458   1.846
    3CHTO  H159 1021   5.481   1.405   1.855
    3CHTO   O53 1022   5.575   1.542   1.719
    3CHTO   C82 1023   5.563   1.465   1.599
    3CHTO  H154 1024   5.470   1.408   1.601
    3CHTO   C89 1025   5.552   1.563   1.479
    3CHTO   O59 1026   5.666   1.648   1.468
    3CHTO  H137 1027   5.668   1.709   1.539
    3CHTO   O45 1028   5.585   1.566   1.977
    3CHTO   C67 1029   5.710   1.635   1.998
    3CHTO  H124 1030   5.792   1.567   1.980
    3CHTO   C65 1031   5.726   1.760   1.904
    3CHTO  H122 1032   5.625   1.791   1.876
    3CHTO   O44 1033   5.795   1.714   1.786
    3CHTO  H102 1034   5.742   1.654   1.738
    3CHTO   C63 1035   5.789   1.885   1.978
    3CHTO  H120 1036   5.712   1.930   2.041
    3CHTO   N11 1037   5.827   2.002   1.892
    3CHTO  H108 1038   5.744   2.031   1.830
    3CHTO  H109 1039   5.910   1.975   1.829
    3CHTO   C61 1040   5.903   1.836   2.074
    3CHTO  H118 1041   5.938   1.925   2.129
    3CHTO   O40 1042   5.854   1.742   2.174
    3CHTO   C68 1043   5.725   1.677   2.150
    3CHTO  H125 1044   5.644   1.748   2.178
    3CHTO   C72 1045   5.713   1.556   2.245
    3CHTO   O48 1046   5.713   1.594   2.383
    3CHTO  H105 1047   5.633   1.640   2.403
    3CHTO   O38 1048   6.013   1.774   2.004
    3CHTO   C55 1049   6.136   1.766   2.078
    3CHTO  H112 1050   6.117   1.774   2.186
    3CHTO   C56 1051   6.237   1.877   2.027
    3CHTO  H113 1052   6.244   1.868   1.917
    3CHTO   O42 1053   6.181   2.007   2.053
    3CHTO  H100 1054   6.236   2.074   2.017
    3CHTO   C57 1055   6.380   1.861   2.093
    3CHTO  H114 1056   6.371   1.888   2.198
    3CHTO   N10 1057   6.483   1.951   2.034
    3CHTO  H106 1058   6.482   2.046   2.086
    3CHTO  H107 1059   6.581   1.908   2.041
    3CHTO   C58 1060   6.425   1.712   2.084
    3CHTO  H115 1061   6.446   1.686   1.978
    3CHTO   O37 1062   6.324   1.625   2.136
    3CHTO   C59 1063   6.203   1.626   2.059
    3CHTO  H116 1064   6.224   1.607   1.954
    3CHTO   C70 1065   6.116   1.511   2.113
    3CHTO   O46 1066   6.012   1.472   2.022
    3CHTO  H103 1067   5.949   1.541   2.015
    3CHTO   O39 1068   6.556   1.683   2.178
    3CHTO   C60 1069   6.669   1.630   2.107
    3CHTO  H117 1070   6.652   1.635   1.999
    3CHTO   C62 1071   6.796   1.714   2.138
    3CHTO  H119 1072   6.771   1.819   2.109
    3CHTO   O43 1073   6.823   1.712   2.279
    3CHTO  H101 1074   6.896   1.767   2.299
    3CHTO   C66 1075   6.918   1.662   2.047
    3CHTO  H123 1076   6.888   1.667   1.942
    3CHTO   N12 1077   7.038   1.748   2.059
    3CHTO  H110 1078   7.016   1.848   2.026
    3CHTO  H111 1079   7.074   1.748   2.161
    3CHTO   C69 1080   6.947   1.513   2.079
    3CHTO  H126 1081   6.985   1.503   2.184
    3CHTO   O41 1082   6.815   1.426   2.062
    3CHTO   C64 1083   6.694   1.480   2.142
    3CHTO  H121 1084   6.716   1.472   2.251
    3CHTO   C71 1085   6.571   1.391   2.112
    3CHTO   O47 1086   6.538   1.388   1.973
    3CHTO  H104 1087   6.506   1.472   1.946
    3CHTO   O34 1088   7.055   1.457   1.983
    3CHTO   C49 1089   7.135   1.331   1.987
    3CHTO   H91 1090   7.138   1.298   2.090
    3CHTO   C47 1091   7.277   1.364   1.937
    3CHTO   H89 1092   7.339   1.272   1.952
    3CHTO   O33 1093   7.332   1.470   2.019
    3CHTO   H70 1094   7.346   1.439   2.106
    3CHTO   C45 1095   7.271   1.401   1.780
    3CHTO   H87 1096   7.198   1.483   1.768
    3CHTO    N8 1097   7.402   1.447   1.727
    3CHTO   H75 1098   7.437   1.532   1.783
    3CHTO   H76 1099   7.474   1.367   1.733
    3CHTO   C43 1100   7.209   1.277   1.699
    3CHTO   H85 1101   7.197   1.312   1.596
    3CHTO   O29 1102   7.083   1.237   1.755
    3CHTO   C50 1103   7.071   1.221   1.898
    3CHTO   H92 1104   6.963   1.220   1.921
    3CHTO   C54 1105   7.116   1.079   1.943
    3CHTO   O36 1106   7.033   0.978   1.885
    3CHTO   H72 1107   7.050   0.971   1.793
    3CHTO   O27 1108   7.299   1.165   1.691
    3CHTO   C37 1109   7.344   1.057   1.606
    3CHTO   H79 1110   7.451   1.038   1.625
    3CHTO   C38 1111   7.268   0.924   1.637
    3CHTO   H80 1112   7.160   0.946   1.640
    3CHTO   O31 1113   7.311   0.880   1.767
    3CHTO   H68 1114   7.279   0.938   1.833
    3CHTO   C39 1115   7.295   0.811   1.529
    3CHTO   H81 1116   7.399   0.780   1.541
    3CHTO    N7 1117   7.210   0.688   1.548
    3CHTO   H73 1118   7.145   0.672   1.463
    3CHTO   H74 1119   7.152   0.695   1.639
    3CHTO   C40 1120   7.282   0.870   1.383
    3CHTO   H82 1121   7.178   0.895   1.363
    3CHTO   O26 1122   7.367   0.985   1.372
    3CHTO   C41 1123   7.326   1.096   1.456
    3CHTO   H83 1124   7.221   1.120   1.437
    3CHTO   C52 1125   7.411   1.219   1.415
    3CHTO   O35 1126   7.552   1.206   1.447
    3CHTO   H71 1127   7.598   1.283   1.421
    3CHTO   O28 1128   7.330   0.780   1.281
    3CHTO   C42 1129   7.284   0.792   1.142
    3CHTO   H84 1130   7.355   0.731   1.086
    3CHTO   C44 1131   7.290   0.935   1.079
    3CHTO   H86 1132   7.231   1.003   1.140
    3CHTO   O32 1133   7.428   0.977   1.085
    3CHTO   H69 1134   7.436   1.066   1.057
    3CHTO   C48 1135   7.233   0.940   0.931
    3CHTO   H90 1136   7.302   0.883   0.868
    3CHTO    N9 1137   7.232   1.079   0.875
    3CHTO   H77 1138   7.195   1.078   0.774
    3CHTO   H78 1139   7.170   1.143   0.937
    3CHTO   C51 1140   7.092   0.872   0.926
    3CHTO   H93 1141   7.023   0.930   0.987
    3CHTO   O30 1142   7.104   0.737   0.975
    3CHTO   C46 1143   7.143   0.729   1.121
    3CHTO   H88 1144   7.071   0.785   1.180
    3CHTO   C53 1145   7.141   0.580   1.162
    3CHTO   O72 1146   7.009   0.526   1.153
    3CHTO  H199 1147   6.983   0.520   1.063
    3CHTO   O22 1148   7.042   0.857   0.792
    3CHTO   C31 1149   6.898   0.857   0.759
    3CHTO   H59 1150   6.890   0.814   0.657
    3CHTO   C29 1151   6.809   0.769   0.851
    3CHTO   H57 1152   6.820   0.807   0.954
    3CHTO   O21 1153   6.862   0.636   0.849
    3CHTO   H37 1154   6.818   0.582   0.912
    3CHTO   C27 1155   6.657   0.775   0.809
    3CHTO   H55 1156   6.646   0.730   0.709
    3CHTO    N5 1157   6.570   0.700   0.904
    3CHTO   H43 1158   6.492   0.764   0.945
    3CHTO   H44 1159   6.525   0.615   0.854
    3CHTO   C25 1160   6.613   0.926   0.796
    3CHTO   H53 1161   6.616   0.973   0.895
    3CHTO   O17 1162   6.702   0.998   0.707
    3CHTO   C32 1163   6.839   1.001   0.748
    3CHTO   H60 1164   6.847   1.050   0.845
    3CHTO   C36 1165   6.917   1.088   0.645
    3CHTO   O25 1166   6.913   1.033   0.513
    3CHTO   H40 1167   6.961   1.088   0.454
    3CHTO   O15 1168   6.467   0.938   0.738
    3CHTO   C19 1169   6.371   1.048   0.742
    3CHTO   H47 1170   6.289   1.013   0.678
    3CHTO   C20 1171   6.314   1.077   0.884
    3CHTO   H48 1172   6.394   1.101   0.956
    3CHTO   O19 1173   6.250   0.956   0.930
    3CHTO   H35 1174   6.221   0.966   1.019
    3CHTO   C21 1175   6.211   1.198   0.884
    3CHTO   H49 1176   6.121   1.167   0.831
    3CHTO    N4 1177   6.168   1.240   1.020
    3CHTO   H41 1178   6.215   1.179   1.096
    3CHTO   H42 1179   6.061   1.232   1.030
    3CHTO   C22 1180   6.270   1.318   0.804
    3CHTO   H50 1181   6.353   1.361   0.861
    3CHTO   O14 1182   6.317   1.276   0.676
    3CHTO   C23 1183   6.423   1.179   0.679
    3CHTO   H51 1184   6.507   1.223   0.737
    3CHTO   C34 1185   6.472   1.159   0.534
    3CHTO   O23 1186   6.531   1.279   0.483
    3CHTO   H38 1187   6.466   1.345   0.472
    3CHTO   O16 1188   6.171   1.418   0.772
    3CHTO   C24 1189   6.239   1.565   0.757
    3CHTO   H52 1190   6.347   1.560   0.764
    3CHTO   C26 1191   6.185   1.657   0.867
    3CHTO   H54 1192   6.074   1.667   0.854
    3CHTO   O20 1193   6.210   1.597   0.995
    3CHTO   H36 1194   6.302   1.589   1.011
    3CHTO   C30 1195   6.249   1.799   0.856
    3CHTO   H58 1196   6.354   1.792   0.888
    3CHTO    N6 1197   6.187   1.897   0.950
    3CHTO   H45 1198   6.139   1.978   0.897
    3CHTO   H46 1199   6.115   1.849   1.015
    3CHTO   C33 1200   6.253   1.853   0.709
    3CHTO   H61 1201   6.155   1.898   0.683
    3CHTO   O18 1202   6.282   1.751   0.612
    3CHTO   C28 1203   6.206   1.629   0.620
    3CHTO   H56 1204   6.099   1.649   0.614
    3CHTO   C35 1205   6.247   1.538   0.501
    3CHTO   O24 1206   6.224   1.599   0.374
    3CHTO   H39 1207   6.132   1.608   0.358
    3CHTO    O9 1208   6.349   1.960   0.703
    3CHTO   C13 1209   6.321   2.076   0.596
    3CHTO   H26 1210   6.219   2.114   0.614
    3CHTO   C11 1211   6.339   2.020   0.447
    3CHTO   H24 1212   6.247   1.965   0.421
    3CHTO    O8 1213   6.449   1.928   0.440
    3CHTO    H3 1214   6.432   1.852   0.491
    3CHTO    C9 1215   6.356   2.141   0.352
    3CHTO   H22 1216   6.273   2.209   0.375
    3CHTO    N2 1217   6.338   2.109   0.209
    3CHTO   H10 1218   6.418   2.044   0.175
    3CHTO   H11 1219   6.337   2.201   0.150
    3CHTO    C7 1220   6.492   2.214   0.388
    3CHTO   H20 1221   6.473   2.321   0.360
    3CHTO    O4 1222   6.526   2.207   0.528
    3CHTO   C14 1223   6.418   2.201   0.622
    3CHTO   H27 1224   6.359   2.294   0.612
    3CHTO   C18 1225   6.483   2.203   0.763
    3CHTO   O13 1226   6.384   2.213   0.866
    3CHTO    H7 1227   6.334   2.134   0.870
    3CHTO    O2 1228   6.617   2.157   0.304
    3CHTO    C1 1229   6.723   2.252   0.288
    3CHTO   H14 1230   6.713   2.335   0.362
    3CHTO    C2 1231   6.725   2.315   0.142
    3CHTO   H15 1232   6.726   2.230   0.072
    3CHTO    O6 1233   6.604   2.391   0.123
    3CHTO    H1 1234   6.597   2.419   0.034
    3CHTO    C3 1235   6.856   2.406   0.121
    3CHTO   H16 1236   6.847   2.496   0.184
    3CHTO    N1 1237   6.869   2.454   4.760
    3CHTO    H8 1238   6.877   2.369   4.693
    3CHTO    H9 1239   6.784   2.514   4.733
    3CHTO    C4 1240   6.984   2.330   0.171
    3CHTO   H17 1241   7.007   2.248   0.102
    3CHTO    O1 1242   6.965   2.279   0.304
    3CHTO    C5 1243   6.860   2.183   0.318
    3CHTO   H18 1244   6.874   2.101   0.248
    3CHTO   C16 1245   6.871   2.129   0.463
    3CHTO   O11 1246   6.785   2.017   0.486
    3CHTO    H5 1247   6.795   1.988   0.575
    3CHTO    O3 1248   7.097   2.419   0.181
    3CHTO    C6 1249   7.227   2.352   0.197
    3CHTO   H19 1250   7.217   2.245   0.218
    3CHTO    C8 1251   7.311   2.367   0.066
    3CHTO   H21 1252   7.318   2.473   0.042
    3CHTO    O7 1253   7.239   2.298   4.742
    3CHTO    H2 1254   7.161   2.345   4.721
    3CHTO   C12 1255   7.456   2.307   0.086
    3CHTO   H25 1256   7.443   2.198   0.093
    3CHTO    N3 1257   7.542   2.332   4.746
    3CHTO   H12 1258   7.639   2.287   4.761
    3CHTO   H13 1259   7.552   2.438   4.728
    3CHTO   C15 1260   7.520   2.360   0.219
    3CHTO   H28 1261   7.552   2.464   0.211
    3CHTO   O10 1262   7.637   2.274   0.265
    3CHTO    H4 1263   7.706   2.278   0.202
    3CHTO    O5 1264   7.430   2.345   0.331
    3CHTO   C10 1265   7.306   2.414   0.316
    3CHTO   H23 1266   7.326   2.520   0.298
    3CHTO   C17 1267   7.235   2.404   0.452
    3CHTO   O12 1268   7.119   2.487   0.458
    3CHTO    H6 1269   7.078   2.477   0.542
    4CHTO  H203 1270   6.675   6.995   1.888
    4CHTO   O82 1271   6.755   6.960   1.853
    4CHTO  C123 1272   6.852   7.064   1.838
    4CHTO  H227 1273   6.871   7.109   1.937
    4CHTO   O77 1274   6.971   6.992   1.793
    4CHTO  C118 1275   7.087   7.076   1.785
    4CHTO  H222 1276   7.103   7.127   1.881
    4CHTO  C125 1277   7.211   6.984   1.755
    4CHTO   O84 1278   7.236   6.897   1.866
    4CHTO  H205 1279   7.166   6.834   1.874
    4CHTO  C114 1280   7.066   7.181   1.674
    4CHTO  H218 1281   7.052   7.129   1.579
    4CHTO  C116 1282   6.938   7.266   1.702
    4CHTO  H220 1283   6.957   7.332   1.790
    4CHTO   O79 1284   6.914   7.353   1.590
    4CHTO  H201 1285   6.983   7.416   1.583
    4CHTO  C120 1286   6.813   7.173   1.732
    4CHTO  H224 1287   6.786   7.124   1.636
    4CHTO   N21 1288   6.695   7.253   1.776
    4CHTO  H211 1289   6.631   7.195   1.841
    4CHTO  H212 1290   6.640   7.287   1.689
    4CHTO   O75 1291   7.188   7.258   1.672
    4CHTO  C112 1292   7.232   7.307   1.524
    4CHTO  H216 1293   7.142   7.336   1.467
    4CHTO   O73 1294   7.302   7.199   1.461
    4CHTO  C113 1295   7.344   7.227   1.326
    4CHTO  H217 1296   7.255   7.257   1.266
    4CHTO  C124 1297   7.401   7.099   1.264
    4CHTO   O83 1298   7.303   6.996   1.250
    4CHTO  H204 1299   7.342   6.920   1.211
    4CHTO  C109 1300   7.448   7.344   1.325
    4CHTO  H213 1301   7.536   7.308   1.381
    4CHTO  C110 1302   7.386   7.469   1.396
    4CHTO  H214 1303   7.306   7.507   1.332
    4CHTO   O78 1304   7.486   7.572   1.406
    4CHTO  H200 1305   7.447   7.651   1.439
    4CHTO  C111 1306   7.328   7.432   1.536
    4CHTO  H215 1307   7.411   7.405   1.602
    4CHTO   N19 1308   7.256   7.545   1.601
    4CHTO  H207 1309   7.220   7.515   1.698
    4CHTO  H208 1310   7.323   7.629   1.613
    4CHTO   O74 1311   7.487   7.373   1.187
    4CHTO  C115 1312   7.634   7.440   1.170
    4CHTO  H219 1313   7.656   7.510   1.250
    4CHTO   O76 1314   7.748   7.332   1.178
    4CHTO  C122 1315   7.734   7.228   1.081
    4CHTO  H226 1316   7.652   7.164   1.113
    4CHTO  C126 1317   7.863   7.138   1.088
    4CHTO   O85 1318   7.855   7.022   1.003
    4CHTO  H206 1319   7.857   7.049   0.913
    4CHTO  C121 1320   7.708   7.284   0.934
    4CHTO  H225 1321   7.781   7.237   0.865
    4CHTO   O81 1322   7.578   7.243   0.891
    4CHTO  H202 1323   7.511   7.281   0.945
    4CHTO  C119 1324   7.723   7.439   0.925
    4CHTO  H223 1325   7.828   7.458   0.948
    4CHTO  C117 1326   7.634   7.516   1.031
    4CHTO  H221 1327   7.529   7.522   1.004
    4CHTO   N20 1328   7.678   7.659   1.044
    4CHTO  H209 1329   7.701   7.684   1.147
    4CHTO  H210 1330   7.764   7.680   0.982
    4CHTO   O80 1331   7.712   7.492   0.777
    4CHTO  C103 1332   7.837   7.547   0.705
    4CHTO  H190 1333   7.892   7.614   0.770
    4CHTO  C101 1334   7.936   7.437   0.650
    4CHTO  H188 1335   7.878   7.363   0.595
    4CHTO   O68 1336   8.005   7.365   0.770
    4CHTO  H168 1337   8.059   7.425   0.817
    4CHTO   C99 1338   8.043   7.501   0.549
    4CHTO  H186 1339   8.108   7.571   0.606
    4CHTO   N17 1340   8.134   7.400   0.484
    4CHTO  H174 1341   8.104   7.299   0.510
    4CHTO  H175 1342   8.237   7.418   0.512
    4CHTO   C97 1343   7.970   7.587   0.443
    4CHTO  H184 1344   7.909   7.520   0.380
    4CHTO   O64 1345   7.889   7.687   0.509
    4CHTO  C104 1346   7.780   7.633   0.585
    4CHTO  H191 1347   7.715   7.571   0.523
    4CHTO  C108 1348   7.695   7.752   0.633
    4CHTO   O71 1349   7.567   7.712   0.683
    4CHTO  H171 1350   7.519   7.787   0.711
    4CHTO   O62 1351   8.063   7.663   0.361
    4CHTO   C91 1352   8.015   7.708   0.233
    4CHTO  H178 1353   7.906   7.715   0.237
    4CHTO   C92 1354   8.049   7.604   0.120
    4CHTO  H179 1355   8.158   7.587   0.120
    4CHTO   O66 1356   7.990   7.477   0.152
    4CHTO  H166 1357   7.897   7.484   0.156
    4CHTO   C93 1358   8.000   7.653   4.758
    4CHTO  H180 1359   7.891   7.643   4.758
    4CHTO   N16 1360   8.049   7.568   4.646
    4CHTO  H172 1361   8.110   7.486   4.683
    4CHTO  H173 1362   7.966   7.530   4.589
    4CHTO   C94 1363   8.038   7.804   4.732
    4CHTO  H181 1364   8.145   7.816   4.713
    4CHTO   O61 1365   8.008   7.886   0.064
    4CHTO   C95 1366   8.072   7.846   0.186
    4CHTO  H182 1367   8.179   7.839   0.170
    4CHTO  C106 1368   8.049   7.958   0.294
    4CHTO   O69 1369   8.112   8.080   0.256
    4CHTO  H169 1370   8.097   8.145   0.322
    4CHTO   O63 1371   7.952   7.865   4.601
    4CHTO   C96 1372   7.795   7.881   4.630
    4CHTO  H183 1373   7.776   7.851   4.733
    4CHTO   C98 1374   7.701   7.798   4.538
    4CHTO  H185 1375   7.718   7.826   4.432
    4CHTO   O67 1376   7.739   7.659   4.548
    4CHTO  H167 1377   7.824   7.646   4.511
    4CHTO  C102 1378   7.547   7.816   4.579
    4CHTO  H189 1379   7.536   7.765   4.675
    4CHTO   N18 1380   7.450   7.751   4.487
    4CHTO  H176 1381   7.349   7.766   4.524
    4CHTO  H177 1382   7.459   7.793   4.388
    4CHTO  C105 1383   7.513   7.967   4.602
    4CHTO  H192 1384   7.485   8.014   4.508
    4CHTO   O65 1385   7.616   8.047   4.663
    4CHTO  C100 1386   7.750   8.031   4.613
    4CHTO  H187 1387   7.750   8.057   4.506
    4CHTO  C107 1388   7.842   8.133   4.686
    4CHTO   O70 1389   7.835   8.121   0.047
    4CHTO  H170 1390   7.751   8.150   0.078
    4CHTO   O57 1391   7.389   7.962   4.703
    4CHTO   C85 1392   7.295   8.069   4.717
    4CHTO  H157 1393   7.256   8.089   4.615
    4CHTO   C83 1394   7.365   8.202   4.762
    4CHTO  H155 1395   7.429   8.236   4.681
    4CHTO   O56 1396   7.451   8.173   0.093
    4CHTO  H135 1397   7.501   8.250   0.116
    4CHTO   C81 1398   7.258   8.312   0.010
    4CHTO  H153 1399   7.203   8.330   4.699
    4CHTO   N14 1400   7.318   8.444   0.042
    4CHTO  H141 1401   7.370   8.439   0.135
    4CHTO  H142 1402   7.241   8.519   0.049
    4CHTO   C79 1403   7.156   8.262   0.119
    4CHTO  H151 1404   7.080   8.339   0.130
    4CHTO   O52 1405   7.088   8.143   0.068
    4CHTO   C86 1406   7.180   8.033   0.036
    4CHTO  H158 1407   7.222   8.004   0.135
    4CHTO   C90 1408   7.101   7.911   4.767
    4CHTO   O60 1409   7.016   7.859   0.088
    4CHTO  H138 1410   6.968   7.785   0.056
    4CHTO   O50 1411   7.214   8.235   0.248
    4CHTO   C73 1412   7.193   8.230   0.390
    4CHTO  H145 1413   7.129   8.314   0.421
    4CHTO   C74 1414   7.330   8.243   0.464
    4CHTO  H146 1415   7.378   8.336   0.428
    4CHTO   O54 1416   7.304   8.264   0.605
    4CHTO  H133 1417   7.264   8.187   0.642
    4CHTO   C75 1418   7.419   8.115   0.435
    4CHTO  H147 1419   7.439   8.111   0.327
    4CHTO   N13 1420   7.552   8.119   0.500
    4CHTO  H139 1421   7.541   8.127   0.607
    4CHTO  H140 1422   7.608   8.204   0.464
    4CHTO   C76 1423   7.336   7.983   0.471
    4CHTO  H148 1424   7.316   7.986   0.578
    4CHTO   O49 1425   7.209   7.984   0.400
    4CHTO   C77 1426   7.126   8.096   0.433
    4CHTO  H149 1427   7.112   8.098   0.541
    4CHTO   C88 1428   6.986   8.079   0.374
    4CHTO   O58 1429   6.919   7.956   0.427
    4CHTO  H136 1430   6.902   7.966   0.519
    4CHTO   O51 1431   7.420   7.843   0.431
    4CHTO   C78 1432   7.395   7.775   0.285
    4CHTO  H150 1433   7.360   7.850   0.211
    4CHTO   C80 1434   7.289   7.662   0.296
    4CHTO  H152 1435   7.315   7.600   0.384
    4CHTO   O55 1436   7.162   7.724   0.323
    4CHTO  H134 1437   7.097   7.658   0.338
    4CHTO   C84 1438   7.284   7.571   0.167
    4CHTO  H156 1439   7.247   7.632   0.084
    4CHTO   N15 1440   7.189   7.455   0.182
    4CHTO  H143 1441   7.220   7.392   0.263
    4CHTO  H144 1442   7.186   7.398   0.092
    4CHTO   C87 1443   7.427   7.524   0.134
    4CHTO  H159 1444   7.465   7.466   0.218
    4CHTO   O53 1445   7.511   7.647   0.113
    4CHTO   C82 1446   7.530   7.720   0.234
    4CHTO  H154 1447   7.578   7.657   0.310
    4CHTO   C89 1448   7.629   7.834   0.201
    4CHTO   O59 1449   7.695   7.885   0.317
    4CHTO  H137 1450   7.754   7.820   0.352
    4CHTO   O45 1451   7.435   7.433   4.780
    4CHTO   C67 1452   7.567   7.391   4.739
    4CHTO  H124 1453   7.628   7.478   4.716
    4CHTO   C65 1454   7.639   7.304   0.065
    4CHTO  H122 1455   7.636   7.361   0.158
    4CHTO   O44 1456   7.777   7.286   0.030
    4CHTO  H102 1457   7.785   7.232   4.735
    4CHTO   C63 1458   7.556   7.174   0.090
    4CHTO  H120 1459   7.454   7.203   0.115
    4CHTO   N11 1460   7.596   7.094   0.211
    4CHTO  H108 1461   7.521   7.099   0.286
    4CHTO  H109 1462   7.615   6.992   0.184
    4CHTO   C61 1463   7.545   7.091   4.737
    4CHTO  H118 1464   7.464   7.019   4.754
    4CHTO   O40 1465   7.505   7.172   4.622
    4CHTO   C68 1466   7.552   7.311   4.604
    4CHTO  H125 1467   7.472   7.362   4.545
    4CHTO   C72 1468   7.680   7.315   4.517
    4CHTO   O48 1469   7.657   7.273   4.382
    4CHTO  H105 1470   7.640   7.180   4.380
    4CHTO   O38 1471   7.666   7.020   4.703
    4CHTO   C55 1472   7.648   6.888   4.646
    4CHTO  H112 1473   7.556   6.886   4.585
    4CHTO   C56 1474   7.646   6.776   4.760
    4CHTO  H113 1475   7.736   6.791   0.041
    4CHTO   O42 1476   7.533   6.796   0.064
    4CHTO  H100 1477   7.536   6.736   0.137
    4CHTO   C57 1478   7.646   6.630   4.697
    4CHTO  H114 1479   7.551   6.617   4.646
    4CHTO   N10 1480   7.657   6.521   0.017
    4CHTO  H106 1481   7.609   6.550   0.109
    4CHTO  H107 1482   7.761   6.498   0.037
    4CHTO   C58 1483   7.760   6.619   4.593
    4CHTO  H115 1484   7.859   6.631   4.645
    4CHTO   O37 1485   7.749   6.724   4.495
    4CHTO   C59 1486   7.764   6.856   4.547
    4CHTO  H116 1487   7.861   6.865   4.597
    4CHTO   C70 1488   7.763   6.953   4.428
    4CHTO   O46 1489   7.872   6.932   4.339
    4CHTO  H103 1490   7.867   6.994   4.268
    4CHTO   O39 1491   7.761   6.473   4.511
    4CHTO   C60 1492   7.644   6.431   4.439
    4CHTO  H117 1493   7.557   6.438   4.504
    4CHTO   C62 1494   7.616   6.517   4.312
    4CHTO  H119 1495   7.587   6.618   4.348
    4CHTO   O43 1496   7.737   6.529   4.234
    4CHTO  H101 1497   7.801   6.579   4.281
    4CHTO   C66 1498   7.494   6.456   4.228
    4CHTO  H123 1499   7.407   6.449   4.293
    4CHTO   N12 1500   7.452   6.543   4.114
    4CHTO  H110 1501   7.465   6.493   4.019
    4CHTO  H111 1502   7.505   6.637   4.115
    4CHTO   C69 1503   7.530   6.311   4.186
    4CHTO  H126 1504   7.625   6.312   4.128
    4CHTO   O41 1505   7.548   6.229   4.314
    4CHTO   C64 1506   7.661   6.280   4.402
    4CHTO  H121 1507   7.758   6.267   4.349
    4CHTO   C71 1508   7.665   6.194   4.531
    4CHTO   O47 1509   7.694   6.057   4.501
    4CHTO  H104 1510   7.782   6.048   4.471
    4CHTO   O34 1511   7.420   6.244   4.100
    4CHTO   C49 1512   7.456   6.152   3.981
    4CHTO   H91 1513   7.527   6.206   3.919
    4CHTO   C47 1514   7.326   6.126   3.902
    4CHTO   H89 1515   7.355   6.070   3.811
    4CHTO   O33 1516   7.271   6.254   3.862
    4CHTO   H70 1517   7.327   6.295   3.799
    4CHTO   C45 1518   7.227   6.039   3.993
    4CHTO   H87 1519   7.212   6.093   4.088
    4CHTO    N8 1520   7.094   6.020   3.930
    4CHTO   H75 1521   7.051   6.117   3.907
    4CHTO   H76 1522   7.104   5.962   3.839
    4CHTO   C43 1523   7.297   5.899   4.036
    4CHTO   H85 1524   7.231   5.856   4.111
    4CHTO   O29 1525   7.430   5.921   4.088
    4CHTO   C50 1526   7.519   6.018   4.028
    4CHTO   H92 1527   7.591   6.043   4.107
    4CHTO   C54 1528   7.611   5.955   3.920
    4CHTO   O36 1529   7.540   5.904   3.806
    4CHTO   H72 1530   7.601   5.867   3.745
    4CHTO   O27 1531   7.303   5.802   3.930
    4CHTO   C37 1532   7.296   5.658   3.929
    4CHTO   H79 1533   7.300   5.621   3.826
    4CHTO   C38 1534   7.418   5.594   4.004
    4CHTO   H80 1535   7.430   5.645   4.101
    4CHTO   O31 1536   7.535   5.622   3.924
    4CHTO   H68 1537   7.612   5.593   3.969
    4CHTO   C39 1538   7.400   5.439   4.029
    4CHTO   H81 1539   7.399   5.390   3.931
    4CHTO    N7 1540   7.512   5.378   4.109
    4CHTO   H73 1541   7.516   5.424   4.207
    4CHTO   H74 1542   7.497   5.272   4.118
    4CHTO   C40 1543   7.260   5.415   4.096
    4CHTO   H82 1544   7.259   5.466   4.192
    4CHTO   O26 1545   7.158   5.465   4.008
    4CHTO   C41 1546   7.163   5.610   3.995
    4CHTO   H83 1547   7.153   5.655   4.094
    4CHTO   C52 1548   7.040   5.652   3.912
    4CHTO   O35 1549   6.917   5.635   3.989
    4CHTO   H71 1550   6.914   5.698   4.058
    4CHTO   O28 1551   7.224   5.277   4.118
    4CHTO   C42 1552   7.137   5.243   4.231
    4CHTO   H84 1553   7.106   5.140   4.210
    4CHTO   C44 1554   7.005   5.326   4.245
    4CHTO   H86 1555   7.030   5.432   4.248
    4CHTO   O32 1556   6.927   5.302   4.126
    4CHTO   H69 1557   6.968   5.341   4.052
    4CHTO   C48 1558   6.923   5.292   4.377
    4CHTO   H90 1559   6.885   5.190   4.368
    4CHTO    N9 1560   6.802   5.380   4.394
    4CHTO   H77 1561   6.833   5.484   4.399
    4CHTO   H78 1562   6.734   5.364   4.312
    4CHTO   C51 1563   7.020   5.299   4.501
    4CHTO   H93 1564   7.058   5.401   4.509
    4CHTO   O30 1565   7.125   5.204   4.482
    4CHTO   C46 1566   7.216   5.239   4.366
    4CHTO   H88 1567   7.259   5.338   4.385
    4CHTO   C53 1568   7.331   5.134   4.363
    4CHTO   O72 1569   7.281   5.001   4.347
    4CHTO  H199 1570   7.353   4.941   4.344
    4CHTO   O22 1571   6.956   5.259   4.624
    4CHTO   C31 1572   7.012   5.297   4.754
    4CHTO   H59 1573   7.121   5.314   4.738
    4CHTO   C29 1574   6.955   5.428   0.032
    4CHTO   H57 1575   6.845   5.416   0.036
    4CHTO   O21 1576   6.980   5.535   4.720
    4CHTO   H37 1577   7.071   5.553   4.714
    4CHTO   C27 1578   7.009   5.459   0.177
    4CHTO   H55 1579   7.117   5.481   0.170
    4CHTO    N5 1580   6.941   5.576   0.240
    4CHTO   H43 1581   6.952   5.663   0.176
    4CHTO   H44 1582   6.984   5.596   0.337
    4CHTO   C25 1583   6.995   5.331   0.266
    4CHTO   H53 1584   6.888   5.307   0.278
    4CHTO   O17 1585   7.059   5.217   0.203
    4CHTO   C32 1586   7.002   5.181   0.077
    4CHTO   H60 1587   6.896   5.156   0.091
    4CHTO   C36 1588   7.071   5.051   0.026
    4CHTO   O25 1589   7.212   5.069   0.008
    4CHTO   H40 1590   7.250   4.989   4.759
    4CHTO   O15 1591   7.058   5.350   0.411
    4CHTO   C19 1592   7.181   5.328   0.486
    4CHTO   H47 1593   7.194   5.219   0.485
    4CHTO   C20 1594   7.308   5.395   0.424
    4CHTO   H48 1595   7.296   5.504   0.413
    4CHTO   O19 1596   7.325   5.339   0.292
    4CHTO   H35 1597   7.256   5.368   0.235
    4CHTO   C21 1598   7.437   5.369   0.512
    4CHTO   H49 1599   7.459   5.262   0.510
    4CHTO    N4 1600   7.558   5.440   0.463
    4CHTO   H41 1601   7.536   5.496   0.373
    4CHTO   H42 1602   7.637   5.368   0.441
    4CHTO   C22 1603   7.406   5.405   0.660
    4CHTO   H50 1604   7.391   5.513   0.668
    4CHTO   O14 1605   7.288   5.336   0.707
    4CHTO   C23 1606   7.168   5.370   0.636
    4CHTO   H51 1607   7.152   5.478   0.647
    4CHTO   C34 1608   7.049   5.301   0.706
    4CHTO   O23 1609   7.063   5.159   0.710
    4CHTO   H38 1610   6.988   5.122   0.754
    4CHTO   O16 1611   7.511   5.362   0.750
    4CHTO   C24 1612   7.511   5.443   0.888
    4CHTO   H52 1613   7.419   5.502   0.900
    4CHTO   C26 1614   7.632   5.539   0.891
    4CHTO   H54 1615   7.725   5.478   0.877
    4CHTO   O20 1616   7.621   5.630   0.780
    4CHTO   H36 1617   7.633   5.584   0.699
    4CHTO   C30 1618   7.641   5.615   1.026
    4CHTO   H58 1619   7.560   5.689   1.031
    4CHTO    N6 1620   7.767   5.694   1.038
    4CHTO   H45 1621   7.769   5.746   1.133
    4CHTO   H46 1622   7.772   5.766   0.958
    4CHTO   C33 1623   7.619   5.521   1.149
    4CHTO   H61 1624   7.711   5.462   1.168
    4CHTO   O18 1625   7.511   5.429   1.127
    4CHTO   C28 1626   7.520   5.347   1.009
    4CHTO   H56 1627   7.615   5.294   1.006
    4CHTO   C35 1628   7.403   5.246   1.013
    4CHTO   O24 1629   7.414   5.143   0.915
    4CHTO   H39 1630   7.341   5.085   0.922
    4CHTO    O9 1631   7.598   5.599   1.269
    4CHTO   C13 1632   7.628   5.523   1.409
    4CHTO   H26 1633   7.729   5.479   1.401
    4CHTO   C11 1634   7.519   5.411   1.435
    4CHTO   H24 1635   7.541   5.327   1.368
    4CHTO    O8 1636   7.387   5.460   1.403
    4CHTO    H3 1637   7.380   5.479   1.312
    4CHTO    C9 1638   7.532   5.365   1.583
    4CHTO   H22 1639   7.640   5.346   1.598
    4CHTO    N2 1640   7.467   5.234   1.609
    4CHTO   H10 1641   7.540   5.159   1.634
    4CHTO   H11 1642   7.394   5.243   1.687
    4CHTO    C7 1643   7.490   5.485   1.677
    4CHTO   H20 1644   7.548   5.468   1.770
    4CHTO    O4 1645   7.524   5.615   1.622
    4CHTO   C14 1646   7.637   5.624   1.533
    4CHTO   H27 1647   7.728   5.599   1.592
    4CHTO   C18 1648   7.652   5.771   1.488
    4CHTO   O13 1649   7.684   5.856   1.598
    4CHTO    H7 1650   7.694   5.945   1.568
    4CHTO    O2 1651   7.331   5.487   1.708
    4CHTO    C1 1652   7.291   5.482   1.847
    4CHTO   H14 1653   7.368   5.535   1.908
    4CHTO    C2 1654   7.277   5.333   1.901
    4CHTO   H15 1655   7.237   5.275   1.816
    4CHTO    O6 1656   7.408   5.283   1.933
    4CHTO    H1 1657   7.403   5.192   1.955
    4CHTO    C3 1658   7.179   5.320   2.027
    4CHTO   H16 1659   7.231   5.356   2.117
    4CHTO    N1 1660   7.143   5.176   2.053
    4CHTO    H8 1661   7.079   5.169   2.140
    4CHTO    H9 1662   7.091   5.135   1.967
    4CHTO    C4 1663   7.054   5.412   2.010
    4CHTO   H17 1664   6.995   5.376   1.925
    4CHTO    O1 1665   7.097   5.547   1.988
    4CHTO    C5 1666   7.159   5.565   1.860
    4CHTO   H18 1667   7.091   5.534   1.781
    4CHTO   C16 1668   7.185   5.718   1.845
    4CHTO   O11 1669   7.228   5.754   1.714
    4CHTO    H5 1670   7.314   5.719   1.697
    4CHTO    O3 1671   6.973   5.411   2.129
    4CHTO    C6 1672   6.843   5.477   2.121
    4CHTO   H19 1673   6.840   5.556   2.045
    4CHTO    C8 1674   6.728   5.376   2.089
    4CHTO   H21 1675   6.738   5.291   2.156
    4CHTO    O7 1676   6.746   5.333   1.953
    4CHTO    H2 1677   6.684   5.265   1.933
    4CHTO   C12 1678   6.586   5.443   2.112
    4CHTO   H25 1679   6.573   5.519   2.032
    4CHTO    N3 1680   6.475   5.343   2.094
    4CHTO   H12 1681   6.485   5.263   2.166
    4CHTO   H13 1682   6.379   5.391   2.104
    4CHTO   C15 1683   6.582   5.515   2.251
    4CHTO   H28 1684   6.588   5.443   2.333
    4CHTO   O10 1685   6.456   5.604   2.272
    4CHTO    H4 1686   6.446   5.664   2.201
    4CHTO    O5 1687   6.690   5.610   2.262
    4CHTO   C10 1688   6.819   5.546   2.258
    4CHTO   H23 1689   6.822   5.471   2.337
    4CHTO   C17 1690   6.929   5.648   2.291
    4CHTO   O12 1691   6.939   5.752   2.193
    4CHTO    H6 1692   6.863   5.806   2.196
    5CHTO  H203 1693   7.598   2.780   2.193
    5CHTO   O82 1694   7.528   2.835   2.222
    5CHTO  C123 1695   7.569   2.911   2.337
    5CHTO  H227 1696   7.656   2.972   2.310
    5CHTO   O77 1697   7.453   2.997   2.360
    5CHTO  C118 1698   7.468   3.087   2.471
    5CHTO  H222 1699   7.560   3.146   2.459
    5CHTO  C125 1700   7.345   3.184   2.470
    5CHTO   O84 1701   7.221   3.115   2.485
    5CHTO  H205 1702   7.204   3.063   2.409
    5CHTO  C114 1703   7.478   3.004   2.601
    5CHTO  H218 1704   7.390   2.940   2.609
    5CHTO  C116 1705   7.603   2.911   2.593
    5CHTO  H220 1706   7.695   2.974   2.591
    5CHTO   O79 1707   7.610   2.833   2.714
    5CHTO  H201 1708   7.630   2.888   2.787
    5CHTO  C120 1709   7.597   2.821   2.463
    5CHTO  H224 1710   7.512   2.750   2.478
    5CHTO   N21 1711   7.720   2.740   2.444
    5CHTO  H211 1712   7.806   2.792   2.483
    5CHTO  H212 1713   7.708   2.644   2.492
    5CHTO   O75 1714   7.483   3.098   2.710
    5CHTO  C112 1715   7.366   3.069   2.826
    5CHTO  H216 1716   7.353   2.960   2.838
    5CHTO   O73 1717   7.246   3.133   2.781
    5CHTO  C113 1718   7.134   3.118   2.870
    5CHTO  H217 1719   7.118   3.010   2.891
    5CHTO  C124 1720   7.007   3.171   2.801
    5CHTO   O83 1721   6.972   3.094   2.685
    5CHTO  H204 1722   6.894   3.129   2.647
    5CHTO  C109 1723   7.163   3.194   3.002
    5CHTO  H213 1724   7.176   3.300   2.975
    5CHTO  C110 1725   7.293   3.137   3.066
    5CHTO  H214 1726   7.272   3.037   3.103
    5CHTO   O78 1727   7.326   3.218   3.180
    5CHTO  H200 1728   7.398   3.181   3.227
    5CHTO  C111 1729   7.411   3.132   2.964
    5CHTO  H215 1730   7.444   3.235   2.943
    5CHTO   N19 1731   7.531   3.059   3.015
    5CHTO  H207 1732   7.616   3.125   3.018
    5CHTO  H208 1733   7.513   3.018   3.113
    5CHTO   O74 1734   7.050   3.179   3.093
    5CHTO  C115 1735   6.993   3.313   3.175
    5CHTO  H219 1736   7.019   3.309   3.281
    5CHTO   O76 1737   7.059   3.451   3.121
    5CHTO  C122 1738   6.989   3.515   3.013
    5CHTO  H226 1739   7.000   3.451   2.925
    5CHTO  C126 1740   7.063   3.648   2.979
    5CHTO   O85 1741   7.005   3.717   2.867
    5CHTO  H206 1742   7.053   3.796   2.851
    5CHTO  C121 1743   6.834   3.540   3.043
    5CHTO  H225 1744   6.819   3.648   3.065
    5CHTO   O81 1745   6.761   3.510   2.924
    5CHTO  H202 1746   6.783   3.570   2.856
    5CHTO  C119 1747   6.781   3.458   3.165
    5CHTO  H223 1748   6.828   3.504   3.252
    5CHTO  C117 1749   6.836   3.310   3.160
    5CHTO  H221 1750   6.818   3.256   3.067
    5CHTO   N20 1751   6.776   3.225   3.267
    5CHTO  H209 1752   6.812   3.123   3.259
    5CHTO  H210 1753   6.800   3.264   3.365
    5CHTO   O80 1754   6.619   3.482   3.197
    5CHTO  C103 1755   6.506   3.452   3.084
    5CHTO  H190 1756   6.525   3.509   2.993
    5CHTO  C101 1757   6.482   3.301   3.046
    5CHTO  H188 1758   6.481   3.241   3.137
    5CHTO   O68 1759   6.600   3.253   2.958
    5CHTO  H168 1760   6.594   3.161   2.943
    5CHTO   C99 1761   6.344   3.279   2.969
    5CHTO  H186 1762   6.350   3.329   2.870
    5CHTO   N17 1763   6.313   3.135   2.944
    5CHTO  H174 1764   6.297   3.083   3.037
    5CHTO  H175 1765   6.227   3.126   2.879
    5CHTO   C97 1766   6.228   3.351   3.044
    5CHTO  H184 1767   6.210   3.298   3.140
    5CHTO   O64 1768   6.260   3.489   3.065
    5CHTO  C104 1769   6.374   3.512   3.149
    5CHTO  H191 1770   6.359   3.466   3.247
    5CHTO  C108 1771   6.389   3.663   3.175
    5CHTO   O71 1772   6.407   3.738   3.054
    5CHTO  H171 1773   6.415   3.829   3.075
    5CHTO   O62 1774   6.106   3.355   2.966
    5CHTO   C91 1775   5.982   3.346   3.038
    5CHTO  H178 1776   5.999   3.381   3.139
    5CHTO   C92 1777   5.940   3.195   3.050
    5CHTO  H179 1778   6.027   3.133   3.077
    5CHTO   O66 1779   5.849   3.183   3.160
    5CHTO  H166 1780   5.830   3.093   3.178
    5CHTO   C93 1781   5.866   3.139   2.921
    5CHTO  H180 1782   5.817   3.046   2.952
    5CHTO   N16 1783   5.959   3.099   2.813
    5CHTO  H172 1784   6.017   3.184   2.780
    5CHTO  H173 1785   5.904   3.056   2.731
    5CHTO   C94 1786   5.755   3.241   2.870
    5CHTO  H181 1787   5.779   3.281   2.771
    5CHTO   O61 1788   5.742   3.356   2.956
    5CHTO   C95 1789   5.864   3.431   2.973
    5CHTO  H182 1790   5.896   3.467   2.875
    5CHTO  C106 1791   5.833   3.558   3.059
    5CHTO   O69 1792   5.746   3.648   2.989
    5CHTO  H169 1793   5.729   3.723   3.043
    5CHTO   O63 1794   5.614   3.167   2.866
    5CHTO   C96 1795   5.599   3.069   2.741
    5CHTO  H183 1796   5.698   3.034   2.713
    5CHTO   C98 1797   5.534   3.132   2.615
    5CHTO  H185 1798   5.433   3.170   2.639
    5CHTO   O67 1799   5.611   3.247   2.577
    5CHTO  H167 1800   5.602   3.315   2.641
    5CHTO  C102 1801   5.527   3.026   2.495
    5CHTO  H189 1802   5.631   3.010   2.463
    5CHTO   N18 1803   5.456   3.075   2.374
    5CHTO  H176 1804   5.368   3.015   2.353
    5CHTO  H177 1805   5.521   3.074   2.288
    5CHTO  C105 1806   5.472   2.889   2.545
    5CHTO  H192 1807   5.363   2.895   2.554
    5CHTO   O65 1808   5.526   2.846   2.672
    5CHTO  C100 1809   5.515   2.941   2.779
    5CHTO  H187 1810   5.409   2.969   2.792
    5CHTO  C107 1811   5.564   2.872   2.908
    5CHTO   O70 1812   5.529   2.945   3.025
    5CHTO  H170 1813   5.436   2.943   3.038
    5CHTO   O57 1814   5.514   2.782   2.431
    5CHTO   C85 1815   5.433   2.666   2.407
    5CHTO  H157 1816   5.327   2.697   2.418
    5CHTO   C83 1817   5.458   2.560   2.520
    5CHTO  H155 1818   5.425   2.602   2.615
    5CHTO   O56 1819   5.600   2.535   2.533
    5CHTO  H135 1820   5.644   2.613   2.561
    5CHTO   C81 1821   5.375   2.432   2.490
    5CHTO  H153 1822   5.270   2.461   2.483
    5CHTO   N14 1823   5.377   2.332   2.600
    5CHTO  H141 1824   5.476   2.295   2.613
    5CHTO  H142 1825   5.344   2.378   2.691
    5CHTO   C79 1826   5.418   2.372   2.351
    5CHTO  H151 1827   5.352   2.287   2.331
    5CHTO   O52 1828   5.394   2.470   2.245
    5CHTO   C86 1829   5.461   2.599   2.267
    5CHTO  H158 1830   5.569   2.577   2.254
    5CHTO   C90 1831   5.424   2.698   2.153
    5CHTO   O60 1832   5.467   2.649   2.025
    5CHTO  H138 1833   5.561   2.650   2.021
    5CHTO   O50 1834   5.554   2.326   2.346
    5CHTO   C73 1835   5.627   2.220   2.283
    5CHTO  H145 1836   5.571   2.178   2.199
    5CHTO   C74 1837   5.654   2.105   2.386
    5CHTO  H146 1838   5.556   2.071   2.423
    5CHTO   O54 1839   5.713   1.993   2.316
    5CHTO  H133 1840   5.651   1.956   2.257
    5CHTO   C75 1841   5.744   2.161   2.503
    5CHTO  H147 1842   5.688   2.240   2.555
    5CHTO   N13 1843   5.775   2.060   2.608
    5CHTO  H139 1844   5.834   2.106   2.686
    5CHTO  H140 1845   5.831   1.979   2.565
    5CHTO   C76 1846   5.876   2.229   2.442
    5CHTO  H148 1847   5.937   2.150   2.399
    5CHTO   O49 1848   5.842   2.327   2.339
    5CHTO   C77 1849   5.764   2.274   2.231
    5CHTO  H149 1850   5.818   2.192   2.183
    5CHTO   C88 1851   5.748   2.383   2.125
    5CHTO   O58 1852   5.677   2.335   2.006
    5CHTO  H136 1853   5.588   2.315   2.028
    5CHTO   O51 1854   5.953   2.311   2.556
    5CHTO   C78 1855   6.077   2.405   2.507
    5CHTO  H150 1856   6.043   2.477   2.429
    5CHTO   C80 1857   6.194   2.321   2.450
    5CHTO  H152 1858   6.212   2.235   2.519
    5CHTO   O55 1859   6.152   2.266   2.324
    5CHTO  H134 1860   6.135   2.335   2.261
    5CHTO   C84 1861   6.327   2.405   2.435
    5CHTO  H156 1862   6.310   2.482   2.359
    5CHTO   N15 1863   6.444   2.323   2.389
    5CHTO  H143 1864   6.530   2.384   2.379
    5CHTO  H144 1865   6.421   2.279   2.294
    5CHTO   C87 1866   6.356   2.476   2.569
    5CHTO  H159 1867   6.370   2.401   2.648
    5CHTO   O53 1868   6.236   2.566   2.601
    5CHTO   C82 1869   6.119   2.488   2.630
    5CHTO  H154 1870   6.141   2.422   2.713
    5CHTO   C89 1871   6.004   2.582   2.676
    5CHTO   O59 1872   5.970   2.681   2.579
    5CHTO  H137 1873   6.040   2.744   2.571
    5CHTO   O45 1874   6.487   2.571   2.564
    5CHTO   C67 1875   6.527   2.618   2.693
    5CHTO  H124 1876   6.441   2.618   2.759
    5CHTO   C65 1877   6.638   2.525   2.756
    5CHTO  H122 1878   6.690   2.478   2.672
    5CHTO   O44 1879   6.568   2.423   2.830
    5CHTO  H102 1880   6.517   2.369   2.772
    5CHTO   C63 1881   6.750   2.605   2.833
    5CHTO  H120 1882   6.816   2.651   2.759
    5CHTO   N11 1883   6.846   2.524   2.914
    5CHTO  H108 1884   6.888   2.446   2.853
    5CHTO  H109 1885   6.796   2.480   2.997
    5CHTO   C61 1886   6.684   2.725   2.911
    5CHTO  H118 1887   6.766   2.782   2.957
    5CHTO   O40 1888   6.613   2.816   2.822
    5CHTO   C68 1889   6.576   2.769   2.688
    5CHTO  H125 1890   6.663   2.778   2.621
    5CHTO   C72 1891   6.467   2.865   2.635
    5CHTO   O48 1892   6.428   2.838   2.500
    5CHTO  H105 1893   6.362   2.900   2.474
    5CHTO   O38 1894   6.594   2.677   3.014
    5CHTO   C55 1895   6.533   2.777   3.098
    5CHTO  H112 1896   6.537   2.876   3.050
    5CHTO   C56 1897   6.601   2.779   3.242
    5CHTO  H113 1898   6.604   2.675   3.277
    5CHTO   O42 1899   6.737   2.821   3.229
    5CHTO  H100 1900   6.742   2.909   3.196
    5CHTO   C57 1901   6.520   2.869   3.345
    5CHTO  H114 1902   6.534   2.973   3.313
    5CHTO   N10 1903   6.570   2.858   3.484
    5CHTO  H106 1904   6.551   2.950   3.538
    5CHTO  H107 1905   6.522   2.777   3.536
    5CHTO   C58 1906   6.369   2.835   3.335
    5CHTO  H115 1907   6.353   2.730   3.368
    5CHTO   O37 1908   6.327   2.849   3.198
    5CHTO   C59 1909   6.382   2.746   3.115
    5CHTO  H116 1910   6.367   2.648   3.161
    5CHTO   C70 1911   6.306   2.745   2.981
    5CHTO   O46 1912   6.169   2.707   2.995
    5CHTO  H103 1913   6.122   2.773   3.043
    5CHTO   O39 1914   6.273   2.935   3.430
    5CHTO   C60 1915   6.135   2.952   3.392
    5CHTO  H117 1916   6.131   3.023   3.309
    5CHTO   C62 1917   6.062   2.822   3.345
    5CHTO  H119 1918   6.115   2.783   3.256
    5CHTO   O43 1919   6.068   2.720   3.446
    5CHTO  H101 1920   6.157   2.693   3.459
    5CHTO   C66 1921   5.913   2.859   3.299
    5CHTO  H123 1922   5.917   2.943   3.230
    5CHTO   N12 1923   5.848   2.749   3.224
    5CHTO  H110 1924   5.906   2.726   3.135
    5CHTO  H111 1925   5.747   2.777   3.198
    5CHTO   C69 1926   5.834   2.904   3.425
    5CHTO  H126 1927   5.836   2.825   3.503
    5CHTO   O41 1928   5.904   3.034   3.479
    5CHTO   C64 1929   6.058   3.017   3.511
    5CHTO  H121 1930   6.070   2.952   3.600
    5CHTO   C71 1931   6.117   3.156   3.543
    5CHTO   O47 1932   6.053   3.215   3.656
    5CHTO  H104 1933   5.965   3.238   3.634
    5CHTO   O34 1934   5.685   2.938   3.393
    5CHTO   C49 1935   5.546   2.981   3.445
    5CHTO   H91 1936   5.493   2.888   3.465
    5CHTO   C47 1937   5.471   3.057   3.333
    5CHTO   H89 1938   5.424   2.977   3.271
    5CHTO   O33 1939   5.561   3.132   3.250
    5CHTO   H70 1940   5.606   3.197   3.301
    5CHTO   C45 1941   5.359   3.158   3.390
    5CHTO   H87 1942   5.407   3.255   3.407
    5CHTO    N8 1943   5.250   3.178   3.292
    5CHTO   H75 1944   5.291   3.211   3.197
    5CHTO   H76 1945   5.196   3.086   3.277
    5CHTO   C43 1946   5.310   3.113   3.535
    5CHTO   H85 1947   5.233   3.185   3.566
    5CHTO   O29 1948   5.422   3.113   3.626
    5CHTO   C50 1949   5.548   3.063   3.578
    5CHTO   H92 1950   5.617   3.147   3.564
    5CHTO   C54 1951   5.614   2.979   3.691
    5CHTO   O36 1952   5.642   3.058   3.807
    5CHTO   H72 1953   5.710   3.120   3.788
    5CHTO   O27 1954   5.246   2.984   3.534
    5CHTO   C37 1955   5.132   2.931   3.602
    5CHTO   H79 1956   5.085   3.009   3.664
    5CHTO   C38 1957   5.025   2.885   3.499
    5CHTO   H80 1958   5.075   2.827   3.420
    5CHTO   O31 1959   4.970   3.004   3.440
    5CHTO   H68 1960   4.911   2.982   3.371
    5CHTO   C39 1961   4.912   2.795   3.565
    5CHTO   H81 1962   4.857   2.858   3.636
    5CHTO    N7 1963   4.813   2.744   3.465
    5CHTO   H73 1964   4.763   2.827   3.417
    5CHTO   H74 1965   4.863   2.683   3.391
    5CHTO   C40 1966   4.981   2.679   3.648
    5CHTO   H82 1967   5.040   2.619   3.578
    5CHTO   O26 1968   5.063   2.741   3.748
    5CHTO   C41 1969   5.178   2.815   3.695
    5CHTO   H83 1970   5.244   2.747   3.640
    5CHTO   C52 1971   5.256   2.871   3.816
    5CHTO   O35 1972   5.304   2.768   3.908
    5CHTO   H71 1973   5.369   2.714   3.865
    5CHTO   O28 1974   4.888   2.587   3.709
    5CHTO   C42 1975   4.857   2.573   3.852
    5CHTO   H84 1976   4.779   2.497   3.852
    5CHTO   C44 1977   4.795   2.699   3.921
    5CHTO   H86 1978   4.863   2.783   3.908
    5CHTO   O32 1979   4.673   2.729   3.850
    5CHTO   H69 1980   4.635   2.808   3.883
    5CHTO   C48 1981   4.771   2.677   4.077
    5CHTO   H90 1982   4.692   2.603   4.090
    5CHTO    N9 1983   4.721   2.802   4.144
    5CHTO   H77 1984   4.628   2.833   4.100
    5CHTO   H78 1985   4.708   2.784   4.250
    5CHTO   C51 1986   4.903   2.621   4.141
    5CHTO   H93 1987   4.981   2.695   4.124
    5CHTO   O30 1988   4.932   2.496   4.078
    5CHTO   C46 1989   4.976   2.517   3.935
    5CHTO   H88 1990   5.059   2.588   3.935
    5CHTO   C53 1991   5.025   2.381   3.880
    5CHTO   O72 1992   5.138   2.333   3.954
    5CHTO  H199 1993   5.168   2.252   3.917
    5CHTO   O22 1994   4.891   2.592   4.282
    5CHTO   C31 1995   5.012   2.585   4.368
    5CHTO   H59 1996   4.974   2.562   4.470
    5CHTO   C29 1997   5.110   2.472   4.330
    5CHTO   H57 1998   5.134   2.483   4.223
    5CHTO   O21 1999   5.040   2.346   4.344
    5CHTO   H37 2000   4.970   2.340   4.281
    5CHTO   C27 2001   5.244   2.477   4.413
    5CHTO   H55 2002   5.221   2.460   4.519
    5CHTO    N5 2003   5.341   2.373   4.368
    5CHTO   H43 2004   5.363   2.305   4.450
    5CHTO   H44 2005   5.432   2.417   4.331
    5CHTO   C25 2006   5.303   2.623   4.401
    5CHTO   H53 2007   5.318   2.646   4.294
    5CHTO   O17 2008   5.206   2.716   4.457
    5CHTO   C32 2009   5.085   2.724   4.380
    5CHTO   H60 2010   5.110   2.759   4.280
    5CHTO   C36 2011   4.993   2.830   4.446
    5CHTO   O25 2012   4.960   2.796   4.581
    5CHTO   H40 2013   4.903   2.862   4.617
    5CHTO   O15 2014   5.443   2.643   4.477
    5CHTO   C19 2015   5.531   2.758   4.458
    5CHTO   H47 2016   5.477   2.823   4.389
    5CHTO   C20 2017   5.558   2.838   4.590
    5CHTO   H48 2018   5.600   2.774   4.669
    5CHTO   O19 2019   5.431   2.885   4.637
    5CHTO   H35 2020   5.394   2.947   4.577
    5CHTO   C21 2021   5.660   2.958   4.568
    5CHTO   H49 2022   5.613   3.032   4.502
    5CHTO    N4 2023   5.694   3.029   4.694
    5CHTO   H41 2024   5.605   3.069   4.739
    5CHTO   H42 2025   5.762   3.110   4.673
    5CHTO   C22 2026   5.785   2.905   4.494
    5CHTO   H50 2027   5.837   2.833   4.558
    5CHTO   O14 2028   5.745   2.841   4.372
    5CHTO   C23 2029   5.666   2.722   4.388
    5CHTO   H51 2030   5.725   2.650   4.446
    5CHTO   C34 2031   5.647   2.668   4.246
    5CHTO   O23 2032   5.594   2.535   4.245
    5CHTO   H38 2033   5.584   2.506   4.157
    5CHTO   O16 2034   5.875   3.010   4.452
    5CHTO   C24 2035   6.017   2.956   4.392
    5CHTO   H52 2036   6.016   2.848   4.374
    5CHTO   C26 2037   6.130   2.990   4.491
    5CHTO   H54 2038   6.125   3.099   4.515
    5CHTO   O20 2039   6.106   2.916   4.613
    5CHTO   H36 2040   6.168   2.940   4.678
    5CHTO   C30 2041   6.271   2.959   4.429
    5CHTO   H58 2042   6.281   2.851   4.413
    5CHTO    N6 2043   6.381   2.999   4.521
    5CHTO   H45 2044   6.372   2.945   4.614
    5CHTO   H46 2045   6.476   2.976   4.476
    5CHTO   C33 2046   6.283   3.028   4.290
    5CHTO   H61 2047   6.275   3.137   4.303
    5CHTO   O18 2048   6.173   2.986   4.207
    5CHTO   C28 2049   6.043   3.025   4.255
    5CHTO   H56 2050   6.038   3.133   4.268
    5CHTO   C35 2051   5.937   2.985   4.149
    5CHTO   O24 2052   5.935   2.844   4.120
    5CHTO   H39 2053   6.015   2.819   4.077
    5CHTO    O9 2054   6.410   3.007   4.224
    5CHTO   C13 2055   6.441   2.855   4.173
    5CHTO   H26 2056   6.355   2.791   4.202
    5CHTO   C11 2057   6.577   2.806   4.239
    5CHTO   H24 2058   6.557   2.788   4.346
    5CHTO    O8 2059   6.677   2.909   4.229
    5CHTO    H3 2060   6.754   2.883   4.275
    5CHTO    C9 2061   6.619   2.672   4.170
    5CHTO   H22 2062   6.532   2.606   4.181
    5CHTO    N2 2063   6.727   2.602   4.244
    5CHTO   H10 2064   6.691   2.510   4.287
    5CHTO   H11 2065   6.811   2.582   4.178
    5CHTO    C7 2066   6.643   2.697   4.015
    5CHTO   H20 2067   6.593   2.610   3.967
    5CHTO    O4 2068   6.583   2.819   3.967
    5CHTO   C14 2069   6.449   2.844   4.013
    5CHTO   H27 2070   6.385   2.759   3.981
    5CHTO   C18 2071   6.395   2.971   3.941
    5CHTO   O13 2072   6.383   2.949   3.799
    5CHTO    H7 2073   6.468   2.940   3.761
    5CHTO    O2 2074   6.804   2.698   3.970
    5CHTO    C1 2075   6.821   2.680   3.829
    5CHTO   H14 2076   6.728   2.709   3.775
    5CHTO    C2 2077   6.858   2.531   3.789
    5CHTO   H15 2078   6.951   2.506   3.841
    5CHTO    O6 2079   6.753   2.444   3.834
    5CHTO    H1 2080   6.672   2.464   3.791
    5CHTO    C3 2081   6.879   2.522   3.630
    5CHTO   H16 2082   6.782   2.543   3.582
    5CHTO    N1 2083   6.921   2.385   3.587
    5CHTO    H8 2084   6.932   2.381   3.479
    5CHTO    H9 2085   7.015   2.359   3.633
    5CHTO    C4 2086   6.977   2.634   3.579
    5CHTO   H17 2087   7.080   2.608   3.606
    5CHTO    O1 2088   6.943   2.763   3.633
    5CHTO    C5 2089   6.933   2.775   3.776
    5CHTO   H18 2090   7.028   2.746   3.822
    5CHTO   C16 2091   6.905   2.924   3.806
    5CHTO   O11 2092   6.915   2.954   3.945
    5CHTO    H5 2093   6.896   3.045   3.959
    5CHTO    O3 2094   6.964   2.652   3.436
    5CHTO    C6 2095   7.087   2.668   3.356
    5CHTO   H19 2096   7.176   2.677   3.418
    5CHTO    C8 2097   7.105   2.544   3.262
    5CHTO   H21 2098   7.010   2.527   3.210
    5CHTO    O7 2099   7.135   2.431   3.345
    5CHTO    H2 2100   7.136   2.353   3.294
    5CHTO   C12 2101   7.219   2.568   3.154
    5CHTO   H25 2102   7.315   2.570   3.210
    5CHTO    N3 2103   7.228   2.454   3.056
    5CHTO   H12 2104   7.250   2.362   3.109
    5CHTO   H13 2105   7.135   2.444   3.002
    5CHTO   C15 2106   7.198   2.707   3.085
    5CHTO   H28 2107   7.108   2.709   3.024
    5CHTO   O10 2108   7.318   2.752   3.000
    5CHTO    H4 2109   7.328   2.694   2.927
    5CHTO    O5 2110   7.193   2.810   3.185
    5CHTO   C10 2111   7.078   2.799   3.271
    5CHTO   H23 2112   6.988   2.799   3.210
    5CHTO   C17 2113   7.077   2.928   3.356
    5CHTO   O12 2114   6.950   2.950   3.418
    5CHTO    H6 2115   6.886   2.972   3.354
    6CHTO  H203 2116   6.894   3.907   0.334
    6CHTO   O82 2117   6.913   3.987   0.288
    6CHTO  C123 2118   6.821   4.090   0.325
    6CHTO  H227 2119   6.849   4.183   0.273
    6CHTO   O77 2120   6.693   4.042   0.273
    6CHTO  C118 2121   6.583   4.134   0.286
    6CHTO  H222 2122   6.604   4.227   0.232
    6CHTO  C125 2123   6.461   4.061   0.218
    6CHTO   O84 2124   6.345   4.143   0.208
    6CHTO  H205 2125   6.360   4.213   0.148
    6CHTO  C114 2126   6.557   4.163   0.436
    6CHTO  H218 2127   6.524   4.071   0.483
    6CHTO  C116 2128   6.687   4.209   0.509
    6CHTO  H220 2129   6.712   4.313   0.477
    6CHTO   O79 2130   6.658   4.217   0.650
    6CHTO  H201 2131   6.731   4.254   0.696
    6CHTO  C120 2132   6.808   4.112   0.480
    6CHTO  H224 2133   6.785   4.016   0.530
    6CHTO   N21 2134   6.935   4.163   0.539
    6CHTO  H211 2135   6.916   4.219   0.629
    6CHTO  H212 2136   7.002   4.080   0.560
    6CHTO   O75 2137   6.453   4.262   0.440
    6CHTO  C112 2138   6.335   4.227   0.549
    6CHTO  H216 2139   6.374   4.154   0.622
    6CHTO   O73 2140   6.223   4.174   0.476
    6CHTO  C113 2141   6.120   4.121   0.560
    6CHTO  H217 2142   6.162   4.039   0.621
    6CHTO  C124 2143   6.011   4.060   0.470
    6CHTO   O83 2144   6.059   3.952   0.389
    6CHTO  H204 2145   6.080   3.879   0.443
    6CHTO  C109 2146   6.060   4.230   0.654
    6CHTO  H213 2147   6.001   4.298   0.590
    6CHTO  C110 2148   6.174   4.310   0.727
    6CHTO  H214 2149   6.217   4.246   0.804
    6CHTO   O78 2150   6.115   4.424   0.793
    6CHTO  H200 2151   6.059   4.396   0.862
    6CHTO  C111 2152   6.286   4.354   0.627
    6CHTO  H215 2153   6.242   4.424   0.554
    6CHTO   N19 2154   6.399   4.426   0.692
    6CHTO  H207 2155   6.492   4.373   0.680
    6CHTO  H208 2156   6.380   4.442   0.798
    6CHTO   O74 2157   5.970   4.163   0.748
    6CHTO  C115 2158   5.874   4.258   0.839
    6CHTO  H219 2159   5.930   4.306   0.919
    6CHTO   O76 2160   5.811   4.376   0.754
    6CHTO  C122 2161   5.715   4.461   0.820
    6CHTO  H226 2162   5.660   4.511   0.740
    6CHTO  C126 2163   5.786   4.576   0.900
    6CHTO   O85 2164   5.872   4.532   1.006
    6CHTO  H206 2165   5.910   4.607   1.049
    6CHTO  C121 2166   5.608   4.382   0.908
    6CHTO  H225 2167   5.560   4.455   0.976
    6CHTO   O81 2168   5.506   4.330   0.823
    6CHTO  H202 2169   5.459   4.400   0.780
    6CHTO  C119 2170   5.672   4.269   0.993
    6CHTO  H223 2171   5.738   4.318   1.065
    6CHTO  C117 2172   5.761   4.172   0.907
    6CHTO  H221 2173   5.711   4.120   0.825
    6CHTO   N20 2174   5.821   4.064   0.992
    6CHTO  H209 2175   5.882   3.999   0.931
    6CHTO  H210 2176   5.743   4.006   1.038
    6CHTO   O80 2177   5.565   4.201   1.091
    6CHTO  C103 2178   5.556   4.247   1.239
    6CHTO  H190 2179   5.652   4.235   1.289
    6CHTO  C101 2180   5.506   4.395   1.262
    6CHTO  H188 2181   5.421   4.413   1.196
    6CHTO   O68 2182   5.621   4.493   1.223
    6CHTO  H168 2183   5.590   4.581   1.226
    6CHTO   C99 2184   5.460   4.420   1.413
    6CHTO  H186 2185   5.549   4.417   1.479
    6CHTO   N17 2186   5.395   4.553   1.434
    6CHTO  H174 2187   5.374   4.568   1.539
    6CHTO  H175 2188   5.459   4.632   1.395
    6CHTO   C97 2189   5.368   4.305   1.462
    6CHTO  H184 2190   5.272   4.310   1.407
    6CHTO   O64 2191   5.433   4.178   1.443
    6CHTO  C104 2192   5.456   4.145   1.305
    6CHTO  H191 2193   5.364   4.144   1.248
    6CHTO  C108 2194   5.512   4.001   1.299
    6CHTO   O71 2195   5.415   3.906   1.345
    6CHTO  H171 2196   5.401   3.916   1.437
    6CHTO   O62 2197   5.346   4.309   1.604
    6CHTO   C91 2198   5.210   4.297   1.649
    6CHTO  H178 2199   5.154   4.377   1.601
    6CHTO   C92 2200   5.206   4.328   1.802
    6CHTO  H179 2201   5.254   4.425   1.822
    6CHTO   O66 2202   5.069   4.344   1.842
    6CHTO  H166 2203   5.064   4.373   1.931
    6CHTO   C93 2204   5.270   4.212   1.889
    6CHTO  H180 2205   5.218   4.211   1.986
    6CHTO   N16 2206   5.413   4.234   1.923
    6CHTO  H172 2207   5.448   4.328   1.883
    6CHTO  H173 2208   5.475   4.153   1.888
    6CHTO   C94 2209   5.247   4.072   1.820
    6CHTO  H181 2210   5.330   4.045   1.753
    6CHTO   O61 2211   5.129   4.073   1.738
    6CHTO   C95 2212   5.141   4.156   1.620
    6CHTO  H182 2213   5.201   4.102   1.546
    6CHTO  C106 2214   4.999   4.176   1.557
    6CHTO   O69 2215   4.944   4.051   1.512
    6CHTO  H169 2216   4.992   4.021   1.437
    6CHTO   O63 2217   5.231   3.962   1.929
    6CHTO   C96 2218   5.248   3.816   1.872
    6CHTO  H183 2219   5.240   3.819   1.763
    6CHTO   C98 2220   5.142   3.716   1.926
    6CHTO  H185 2221   5.150   3.710   2.036
    6CHTO   O67 2222   5.011   3.769   1.899
    6CHTO  H167 2223   4.996   3.847   1.949
    6CHTO  C102 2224   5.160   3.572   1.859
    6CHTO  H189 2225   5.118   3.582   1.757
    6CHTO   N18 2226   5.080   3.464   1.923
    6CHTO  H176 2227   5.016   3.416   1.851
    6CHTO  H177 2228   5.145   3.390   1.969
    6CHTO  C105 2229   5.311   3.536   1.844
    6CHTO  H192 2230   5.329   3.433   1.877
    6CHTO   O65 2231   5.403   3.619   1.919
    6CHTO  C100 2232   5.392   3.762   1.911
    6CHTO  H187 2233   5.413   3.799   2.013
    6CHTO  C107 2234   5.504   3.820   1.821
    6CHTO   O70 2235   5.494   3.782   1.683
    6CHTO  H170 2236   5.417   3.820   1.645
    6CHTO   O57 2237   5.339   3.545   1.688
    6CHTO   C85 2238   5.400   3.437   1.614
    6CHTO  H157 2239   5.323   3.357   1.610
    6CHTO   C83 2240   5.523   3.374   1.687
    6CHTO  H155 2241   5.488   3.330   1.781
    6CHTO   O56 2242   5.614   3.479   1.724
    6CHTO  H135 2243   5.684   3.445   1.776
    6CHTO   C81 2244   5.585   3.262   1.599
    6CHTO  H153 2245   5.507   3.187   1.581
    6CHTO   N14 2246   5.691   3.186   1.669
    6CHTO  H141 2247   5.723   3.103   1.608
    6CHTO  H142 2248   5.655   3.148   1.762
    6CHTO   C79 2249   5.630   3.319   1.459
    6CHTO  H151 2250   5.662   3.234   1.398
    6CHTO   O52 2251   5.515   3.378   1.392
    6CHTO   C86 2252   5.445   3.481   1.469
    6CHTO  H158 2253   5.518   3.565   1.475
    6CHTO   C90 2254   5.324   3.536   1.390
    6CHTO   O60 2255   5.367   3.605   1.272
    6CHTO  H138 2256   5.403   3.545   1.210
    6CHTO   O50 2257   5.738   3.414   1.462
    6CHTO   C73 2258   5.881   3.423   1.477
    6CHTO  H145 2259   5.924   3.322   1.488
    6CHTO   C74 2260   5.915   3.507   1.603
    6CHTO  H146 2261   5.867   3.458   1.689
    6CHTO   O54 2262   6.057   3.501   1.628
    6CHTO  H133 2263   6.082   3.413   1.651
    6CHTO   C75 2264   5.861   3.654   1.582
    6CHTO  H147 2265   5.753   3.650   1.563
    6CHTO   N13 2266   5.878   3.740   1.701
    6CHTO  H139 2267   5.982   3.750   1.726
    6CHTO  H140 2268   5.838   3.839   1.682
    6CHTO   C76 2269   5.931   3.715   1.450
    6CHTO  H148 2270   6.038   3.720   1.468
    6CHTO   O49 2271   5.903   3.628   1.336
    6CHTO   C77 2272   5.946   3.492   1.352
    6CHTO  H149 2273   6.054   3.490   1.364
    6CHTO   C88 2274   5.920   3.416   1.221
    6CHTO   O58 2275   5.776   3.421   1.176
    6CHTO  H136 2276   5.752   3.510   1.154
    6CHTO   O51 2277   5.868   3.855   1.404
    6CHTO   C78 2278   5.955   3.984   1.447
    6CHTO  H150 2279   6.021   3.962   1.534
    6CHTO   C80 2280   5.858   4.098   1.484
    6CHTO  H152 2281   5.791   4.116   1.398
    6CHTO   O55 2282   5.777   4.053   1.594
    6CHTO  H134 2283   5.830   4.039   1.670
    6CHTO   C84 2284   5.935   4.232   1.518
    6CHTO  H156 2285   5.990   4.215   1.610
    6CHTO   N15 2286   5.842   4.348   1.543
    6CHTO  H143 2287   5.779   4.326   1.627
    6CHTO  H144 2288   5.782   4.366   1.457
    6CHTO   C87 2289   6.038   4.267   1.407
    6CHTO  H159 2290   5.986   4.300   1.317
    6CHTO   O53 2291   6.125   4.142   1.376
    6CHTO   C82 2292   6.045   4.032   1.331
    6CHTO  H154 2293   5.983   4.063   1.246
    6CHTO   C89 2294   6.139   3.921   1.279
    6CHTO   O59 2295   6.207   3.961   1.160
    6CHTO  H137 2296   6.146   3.966   1.088
    6CHTO   O45 2297   6.137   4.389   1.459
    6CHTO   C67 2298   6.248   4.421   1.374
    6CHTO  H124 2299   6.313   4.334   1.367
    6CHTO   C65 2300   6.203   4.463   1.229
    6CHTO  H122 2301   6.098   4.492   1.237
    6CHTO   O44 2302   6.213   4.345   1.147
    6CHTO  H102 2303   6.174   4.361   1.063
    6CHTO   C63 2304   6.276   4.593   1.177
    6CHTO  H120 2305   6.237   4.679   1.231
    6CHTO   N11 2306   6.247   4.633   1.036
    6CHTO  H108 2307   6.289   4.561   0.968
    6CHTO  H109 2308   6.142   4.639   1.020
    6CHTO   C61 2309   6.429   4.584   1.213
    6CHTO  H118 2310   6.473   4.681   1.184
    6CHTO   O40 2311   6.452   4.568   1.356
    6CHTO   C68 2312   6.337   4.534   1.440
    6CHTO  H125 2313   6.276   4.626   1.455
    6CHTO   C72 2314   6.389   4.491   1.580
    6CHTO   O48 2315   6.463   4.594   1.646
    6CHTO  H105 2316   6.544   4.610   1.601
    6CHTO   O38 2317   6.497   4.476   1.145
    6CHTO   C55 2318   6.638   4.496   1.124
    6CHTO  H112 2319   6.676   4.574   1.191
    6CHTO   C56 2320   6.665   4.531   0.972
    6CHTO  H113 2321   6.617   4.453   0.912
    6CHTO   O42 2322   6.599   4.655   0.938
    6CHTO  H100 2323   6.634   4.726   0.989
    6CHTO   C57 2324   6.820   4.537   0.941
    6CHTO  H114 2325   6.859   4.626   0.991
    6CHTO   N10 2326   6.849   4.552   0.796
    6CHTO  H106 2327   6.945   4.508   0.770
    6CHTO  H107 2328   6.851   4.657   0.769
    6CHTO   C58 2329   6.891   4.412   1.000
    6CHTO  H115 2330   6.859   4.322   0.942
    6CHTO   O37 2331   6.858   4.393   1.139
    6CHTO   C59 2332   6.719   4.369   1.163
    6CHTO  H116 2333   6.686   4.283   1.105
    6CHTO   C70 2334   6.701   4.334   1.312
    6CHTO   O46 2335   6.746   4.436   1.402
    6CHTO  H103 2336   6.840   4.445   1.396
    6CHTO   O39 2337   7.050   4.430   0.993
    6CHTO   C60 2338   7.126   4.311   1.017
    6CHTO  H117 2339   7.084   4.257   1.102
    6CHTO   C62 2340   7.125   4.215   0.894
    6CHTO  H119 2341   7.019   4.183   0.880
    6CHTO   O43 2342   7.168   4.288   0.778
    6CHTO  H101 2343   7.161   4.233   0.702
    6CHTO   C66 2344   7.215   4.086   0.925
    6CHTO  H123 2345   7.179   4.039   1.017
    6CHTO   N12 2346   7.204   3.982   0.819
    6CHTO  H110 2347   7.101   3.950   0.809
    6CHTO  H111 2348   7.268   3.898   0.843
    6CHTO   C69 2349   7.361   4.131   0.953
    6CHTO  H126 2350   7.402   4.181   0.863
    6CHTO   O41 2351   7.361   4.229   1.073
    6CHTO   C64 2352   7.272   4.351   1.056
    6CHTO  H121 2353   7.313   4.417   0.976
    6CHTO   C71 2354   7.270   4.430   1.189
    6CHTO   O47 2355   7.400   4.481   1.219
    6CHTO  H104 2356   7.396   4.531   1.298
    6CHTO   O34 2357   7.452   4.012   0.991
    6CHTO   C49 2358   7.583   3.965   0.931
    6CHTO   H91 2359   7.559   3.913   0.838
    6CHTO   C47 2360   7.649   3.868   1.032
    6CHTO   H89 2361   7.740   3.830   0.979
    6CHTO   O33 2362   7.563   3.757   1.058
    6CHTO   H70 2363   7.549   3.706   0.980
    6CHTO   C45 2364   7.688   3.946   1.169
    6CHTO   H87 2365   7.602   3.940   1.237
    6CHTO    N8 2366   7.802   3.873   1.231
    6CHTO   H75 2367   7.885   3.940   1.249
    6CHTO   H76 2368   7.771   3.829   1.325
    6CHTO   C43 2369   7.709   4.104   1.141
    6CHTO   H85 2370   7.610   4.148   1.147
    6CHTO   O29 2371   7.769   4.123   1.011
    6CHTO   C50 2372   7.685   4.081   0.902
    6CHTO   H92 2373   7.628   4.168   0.867
    6CHTO   C54 2374   7.774   4.045   0.780
    6CHTO   O36 2375   7.843   4.160   0.730
    6CHTO   H72 2376   7.908   4.189   0.792
    6CHTO   O27 2377   7.784   4.172   1.243
    6CHTO   C37 2378   7.840   4.301   1.269
    6CHTO   H79 2379   7.917   4.324   1.193
    6CHTO   C38 2380   7.732   4.413   1.260
    6CHTO   H80 2381   7.644   4.380   1.317
    6CHTO   O31 2382   7.695   4.426   1.121
    6CHTO   H68 2383   7.624   4.486   1.112
    6CHTO   C39 2384   7.783   4.551   1.319
    6CHTO   H81 2385   7.862   4.587   1.252
    6CHTO    N7 2386   7.676   4.657   1.325
    6CHTO   H73 2387   7.705   4.742   1.265
    6CHTO   H74 2388   7.581   4.618   1.291
    6CHTO   C40 2389   7.848   4.527   1.460
    6CHTO   H82 2390   7.771   4.493   1.530
    6CHTO   O26 2391   7.954   4.431   1.446
    6CHTO   C41 2392   7.907   4.298   1.409
    6CHTO   H83 2393   7.834   4.263   1.483
    6CHTO   C52 2394   8.027   4.200   1.411
    6CHTO   O35 2395   8.088   4.190   1.544
    6CHTO   H71 2396   8.160   4.129   1.541
    6CHTO   O28 2397   7.915   4.643   1.514
    6CHTO   C42 2398   7.923   4.672   1.658
    6CHTO   H84 2399   8.027   4.702   1.672
    6CHTO   C44 2400   7.898   4.555   1.760
    6CHTO   H86 2401   7.795   4.521   1.749
    6CHTO   O32 2402   7.986   4.448   1.726
    6CHTO   H69 2403   7.968   4.372   1.779
    6CHTO   C48 2404   7.918   4.602   1.910
    6CHTO   H90 2405   8.023   4.630   1.923
    6CHTO    N9 2406   7.891   4.492   2.010
    6CHTO   H77 2407   7.958   4.409   1.991
    6CHTO   H78 2408   7.905   4.529   2.110
    6CHTO   C51 2409   7.829   4.729   1.937
    6CHTO   H93 2410   7.724   4.698   1.927
    6CHTO   O30 2411   7.863   4.832   1.844
    6CHTO   C46 2412   7.835   4.795   1.699
    6CHTO   H88 2413   7.730   4.770   1.688
    6CHTO   C53 2414   7.867   4.924   1.618
    6CHTO   O72 2415   7.829   4.914   1.481
    6CHTO  H199 2416   7.851   4.993   1.437
    6CHTO   O22 2417   7.855   4.789   2.066
    6CHTO   C31 2418   7.753   4.845   2.157
    6CHTO   H59 2419   7.788   4.948   2.181
    6CHTO   C29 2420   7.609   4.859   2.101
    6CHTO   H57 2421   7.577   4.759   2.069
    6CHTO   O21 2422   7.613   4.942   1.983
    6CHTO   H37 2423   7.664   4.901   1.916
    6CHTO   C27 2424   7.506   4.915   2.207
    6CHTO   H55 2425   7.527   5.022   2.223
    6CHTO    N5 2426   7.366   4.900   2.161
    6CHTO   H43 2427   7.354   4.949   2.065
    6CHTO   H44 2428   7.298   4.945   2.232
    6CHTO   C25 2429   7.525   4.844   2.347
    6CHTO   H53 2430   7.487   4.741   2.341
    6CHTO   O17 2431   7.664   4.838   2.385
    6CHTO   C32 2432   7.749   4.769   2.293
    6CHTO   H60 2433   7.711   4.668   2.275
    6CHTO   C36 2434   7.889   4.758   2.357
    6CHTO   O25 2435   7.886   4.678   2.475
    6CHTO   H40 2436   7.869   4.589   2.453
    6CHTO   O15 2437   7.449   4.922   2.460
    6CHTO   C19 2438   7.342   5.000   2.522
    6CHTO   H47 2439   7.368   5.000   2.629
    6CHTO   C20 2440   7.335   5.148   2.473
    6CHTO   H48 2441   7.321   5.154   2.364
    6CHTO   O19 2442   7.464   5.206   2.503
    6CHTO   H35 2443   7.469   5.293   2.469
    6CHTO   C21 2444   7.219   5.228   2.544
    6CHTO   H49 2445   7.244   5.240   2.649
    6CHTO    N4 2446   7.204   5.365   2.488
    6CHTO   H41 2447   7.296   5.420   2.501
    6CHTO   H42 2448   7.125   5.417   2.540
    6CHTO   C22 2449   7.086   5.147   2.538
    6CHTO   H50 2450   7.048   5.146   2.435
    6CHTO   O14 2451   7.106   5.012   2.584
    6CHTO   C23 2452   7.202   4.934   2.511
    6CHTO   H51 2453   7.167   4.928   2.407
    6CHTO   C34 2454   7.199   4.794   2.573
    6CHTO   O23 2455   7.274   4.698   2.497
    6CHTO   H38 2456   7.366   4.717   2.503
    6CHTO   O16 2457   6.987   5.194   2.632
    6CHTO   C24 2458   6.865   5.282   2.574
    6CHTO   H52 2459   6.886   5.319   2.474
    6CHTO   C26 2460   6.843   5.401   2.670
    6CHTO   H54 2461   6.832   5.361   2.774
    6CHTO   O20 2462   6.960   5.484   2.667
    6CHTO   H36 2463   6.954   5.551   2.732
    6CHTO   C30 2464   6.714   5.481   2.635
    6CHTO   H58 2465   6.728   5.533   2.539
    6CHTO    N6 2466   6.685   5.588   2.736
    6CHTO   H45 2467   6.685   5.685   2.689
    6CHTO   H46 2468   6.757   5.587   2.816
    6CHTO   C33 2469   6.593   5.385   2.615
    6CHTO   H61 2470   6.567   5.340   2.712
    6CHTO   O18 2471   6.627   5.279   2.524
    6CHTO   C28 2472   6.736   5.196   2.566
    6CHTO   H56 2473   6.716   5.154   2.664
    6CHTO   C35 2474   6.750   5.078   2.466
    6CHTO   O24 2475   6.781   5.119   2.332
    6CHTO   H39 2476   6.791   5.043   2.278
    6CHTO    O9 2477   6.475   5.456   2.571
    6CHTO   C13 2478   6.337   5.411   2.641
    6CHTO   H26 2479   6.359   5.369   2.741
    6CHTO   C11 2480   6.263   5.306   2.548
    6CHTO   H24 2481   6.329   5.218   2.537
    6CHTO    O8 2482   6.245   5.364   2.418
    6CHTO    H3 2483   6.208   5.301   2.359
    6CHTO    C9 2484   6.132   5.261   2.620
    6CHTO   H22 2485   6.165   5.203   2.707
    6CHTO    N2 2486   6.055   5.162   2.541
    6CHTO   H10 2487   6.012   5.209   2.454
    6CHTO   H11 2488   5.978   5.118   2.602
    6CHTO    C7 2489   6.052   5.386   2.676
    6CHTO   H20 2490   6.068   5.379   2.786
    6CHTO    O4 2491   6.105   5.511   2.627
    6CHTO   C14 2492   6.241   5.536   2.668
    6CHTO   H27 2493   6.240   5.557   2.777
    6CHTO   C18 2494   6.288   5.666   2.598
    6CHTO   O13 2495   6.209   5.779   2.639
    6CHTO    H7 2496   6.239   5.856   2.595
    6CHTO    O2 2497   5.891   5.385   2.648
    6CHTO    C1 2498   5.808   5.448   2.747
    6CHTO   H14 2499   5.708   5.461   2.701
    6CHTO    C2 2500   5.856   5.589   2.801
    6CHTO   H15 2501   5.955   5.574   2.847
    6CHTO    O6 2502   5.869   5.680   2.689
    6CHTO    H1 2503   5.938   5.652   2.633
    6CHTO    C3 2504   5.752   5.644   2.910
    6CHTO   H16 2505   5.656   5.663   2.860
    6CHTO    N1 2506   5.796   5.775   2.970
    6CHTO    H8 2507   5.891   5.762   3.021
    6CHTO    H9 2508   5.722   5.811   3.039
    6CHTO    C4 2509   5.723   5.534   3.019
    6CHTO   H17 2510   5.811   5.524   3.083
    6CHTO    O1 2511   5.690   5.407   2.960
    6CHTO    C5 2512   5.787   5.353   2.869
    6CHTO   H18 2513   5.882   5.344   2.920
    6CHTO   C16 2514   5.740   5.211   2.827
    6CHTO   O11 2515   5.612   5.211   2.762
    6CHTO    H5 2516   5.545   5.234   2.823
    6CHTO    O3 2517   5.607   5.569   3.097
    6CHTO    C6 2518   5.610   5.528   3.238
    6CHTO   H19 2519   5.686   5.452   3.259
    6CHTO    C8 2520   5.638   5.652   3.328
    6CHTO   H21 2521   5.570   5.732   3.299
    6CHTO    O7 2522   5.774   5.693   3.302
    6CHTO    H2 2523   5.781   5.728   3.215
    6CHTO   C12 2524   5.618   5.619   3.481
    6CHTO   H25 2525   5.699   5.549   3.510
    6CHTO    N3 2526   5.634   5.741   3.567
    6CHTO   H12 2527   5.623   5.714   3.671
    6CHTO   H13 2528   5.560   5.815   3.540
    6CHTO   C15 2529   5.480   5.546   3.502
    6CHTO   H28 2530   5.395   5.613   3.486
    6CHTO   O10 2531   5.469   5.483   3.640
    6CHTO    H4 2532   5.469   5.550   3.705
    6CHTO    O5 2533   5.469   5.432   3.416
    6CHTO   C10 2534   5.473   5.464   3.276
    6CHTO   H23 2535   5.392   5.534   3.254
    6CHTO   C17 2536   5.446   5.336   3.196
    6CHTO   O12 2537   5.314   5.285   3.218
    6CHTO    H6 2538   5.251   5.342   3.180
    7CHTO  H203 2539   5.235   2.146   3.049
    7CHTO   O82 2540   5.292   2.221   3.051
    7CHTO  C123 2541   5.416   2.189   2.984
    7CHTO  H227 2542   5.393   2.160   2.880
    7CHTO   O77 2543   5.486   2.317   2.985
    7CHTO  C118 2544   5.612   2.316   2.917
    7CHTO  H222 2545   5.600   2.279   2.814
    7CHTO  C125 2546   5.668   2.463   2.912
    7CHTO   O84 2547   5.581   2.547   2.836
    7CHTO  H205 2548   5.586   2.524   2.745
    7CHTO  C114 2549   5.708   2.222   2.994
    7CHTO  H218 2550   5.716   2.257   3.097
    7CHTO  C116 2551   5.649   2.077   3.000
    7CHTO  H220 2552   5.648   2.034   2.897
    7CHTO   O79 2553   5.735   1.994   3.079
    7CHTO  H201 2554   5.818   1.982   3.036
    7CHTO  C120 2555   5.501   2.080   3.058
    7CHTO  H224 2556   5.510   2.106   3.166
    7CHTO   N21 2557   5.436   1.946   3.051
    7CHTO  H211 2558   5.472   1.890   2.966
    7CHTO  H212 2559   5.455   1.891   3.142
    7CHTO   O75 2560   5.834   2.232   2.926
    7CHTO  C112 2561   5.965   2.210   3.025
    7CHTO  H216 2562   5.964   2.106   3.061
    7CHTO   O73 2563   5.956   2.304   3.133
    7CHTO  C113 2564   6.053   2.283   3.235
    7CHTO  H217 2565   6.044   2.179   3.273
    7CHTO  C124 2566   6.018   2.378   3.350
    7CHTO   O83 2567   6.087   2.347   3.472
    7CHTO  H204 2568   6.060   2.407   3.539
    7CHTO  C109 2569   6.196   2.308   3.178
    7CHTO  H213 2570   6.202   2.415   3.153
    7CHTO  C110 2571   6.219   2.222   3.049
    7CHTO  H214 2572   6.229   2.117   3.080
    7CHTO   O78 2573   6.345   2.259   2.990
    7CHTO  H200 2574   6.342   2.349   2.962
    7CHTO  C111 2575   6.101   2.236   2.949
    7CHTO  H215 2576   6.098   2.340   2.913
    7CHTO   N19 2577   6.111   2.149   2.830
    7CHTO  H207 2578   6.201   2.089   2.833
    7CHTO  H208 2579   6.110   2.208   2.739
    7CHTO   O74 2580   6.296   2.277   3.279
    7CHTO  C115 2581   6.418   2.371   3.279
    7CHTO  H219 2582   6.424   2.431   3.188
    7CHTO   O76 2583   6.410   2.479   3.400
    7CHTO  C122 2584   6.415   2.419   3.530
    7CHTO  H226 2585   6.328   2.354   3.542
    7CHTO  C126 2586   6.400   2.533   3.636
    7CHTO   O85 2587   6.384   2.486   3.771
    7CHTO  H206 2588   6.302   2.441   3.779
    7CHTO  C121 2589   6.548   2.335   3.546
    7CHTO  H225 2590   6.633   2.404   3.531
    7CHTO   O81 2591   6.559   2.277   3.676
    7CHTO  H202 2592   6.565   2.345   3.741
    7CHTO  C119 2593   6.553   2.224   3.436
    7CHTO  H223 2594   6.648   2.173   3.448
    7CHTO  C117 2595   6.547   2.281   3.289
    7CHTO  H221 2596   6.533   2.206   3.211
    7CHTO   N20 2597   6.670   2.358   3.248
    7CHTO  H209 2598   6.741   2.363   3.329
    7CHTO  H210 2599   6.716   2.312   3.162
    7CHTO   O80 2600   6.453   2.110   3.463
    7CHTO  C103 2601   6.457   1.979   3.376
    7CHTO  H190 2602   6.430   2.001   3.273
    7CHTO  C101 2603   6.592   1.896   3.378
    7CHTO  H188 2604   6.627   1.889   3.481
    7CHTO   O68 2605   6.701   1.972   3.294
    7CHTO  H168 2606   6.675   1.975   3.204
    7CHTO   C99 2607   6.570   1.746   3.324
    7CHTO  H186 2608   6.540   1.751   3.217
    7CHTO   N17 2609   6.692   1.660   3.331
    7CHTO  H174 2610   6.774   1.707   3.279
    7CHTO  H175 2611   6.671   1.563   3.288
    7CHTO   C97 2612   6.449   1.682   3.397
    7CHTO  H184 2613   6.472   1.675   3.505
    7CHTO   O64 2614   6.333   1.765   3.373
    7CHTO  C104 2615   6.340   1.893   3.437
    7CHTO  H191 2616   6.356   1.883   3.545
    7CHTO  C108 2617   6.205   1.964   3.420
    7CHTO   O71 2618   6.100   1.891   3.485
    7CHTO  H171 2619   6.018   1.936   3.472
    7CHTO   O62 2620   6.409   1.553   3.345
    7CHTO   C91 2621   6.341   1.460   3.433
    7CHTO  H178 2622   6.304   1.381   3.368
    7CHTO   C92 2623   6.214   1.522   3.502
    7CHTO  H179 2624   6.243   1.613   3.556
    7CHTO   O66 2625   6.125   1.566   3.397
    7CHTO  H166 2626   6.095   1.493   3.346
    7CHTO   C93 2627   6.142   1.421   3.600
    7CHTO  H180 2628   6.099   1.340   3.538
    7CHTO   N16 2629   6.029   1.480   3.675
    7CHTO  H172 2630   5.937   1.428   3.653
    7CHTO  H173 2631   6.019   1.586   3.654
    7CHTO   C94 2632   6.248   1.359   3.697
    7CHTO  H181 2633   6.294   1.434   3.761
    7CHTO   O61 2634   6.354   1.298   3.621
    7CHTO   C95 2635   6.431   1.391   3.543
    7CHTO  H182 2636   6.475   1.466   3.609
    7CHTO  C106 2637   6.550   1.311   3.477
    7CHTO   O69 2638   6.631   1.247   3.576
    7CHTO  H169 2639   6.583   1.178   3.617
    7CHTO   O63 2640   6.185   1.241   3.785
    7CHTO   C96 2641   6.237   1.243   3.931
    7CHTO  H183 2642   6.226   1.346   3.967
    7CHTO   C98 2643   6.388   1.202   3.947
    7CHTO  H185 2644   6.450   1.252   3.872
    7CHTO   O67 2645   6.433   1.253   4.074
    7CHTO  H167 2646   6.525   1.239   4.084
    7CHTO  C102 2647   6.409   1.043   3.945
    7CHTO  H189 2648   6.510   1.027   3.985
    7CHTO   N18 2649   6.410   0.981   3.810
    7CHTO  H176 2650   6.397   1.056   3.734
    7CHTO  H177 2651   6.502   0.928   3.794
    7CHTO  C105 2652   6.307   0.974   4.042
    7CHTO  H192 2653   6.247   0.901   3.988
    7CHTO   O65 2654   6.215   1.064   4.107
    7CHTO  C100 2655   6.143   1.148   4.016
    7CHTO  H187 2656   6.088   1.082   3.946
    7CHTO  C107 2657   6.037   1.231   4.093
    7CHTO   O70 2658   5.932   1.148   4.143
    7CHTO  H170 2659   5.964   1.092   4.211
    7CHTO   O57 2660   6.396   0.900   4.149
    7CHTO   C85 2661   6.422   0.759   4.133
    7CHTO  H157 2662   6.425   0.740   4.024
    7CHTO   C83 2663   6.300   0.677   4.187
    7CHTO  H155 2664   6.213   0.699   4.124
    7CHTO   O56 2665   6.266   0.721   4.320
    7CHTO  H135 2666   6.236   0.810   4.318
    7CHTO   C81 2667   6.331   0.525   4.177
    7CHTO  H153 2668   6.354   0.502   4.073
    7CHTO   N14 2669   6.215   0.438   4.208
    7CHTO  H141 2670   6.239   0.336   4.189
    7CHTO  H142 2671   6.187   0.449   4.311
    7CHTO   C79 2672   6.459   0.491   4.264
    7CHTO  H151 2673   6.481   0.386   4.249
    7CHTO   O52 2674   6.573   0.566   4.212
    7CHTO   C86 2675   6.554   0.711   4.205
    7CHTO  H158 2676   6.556   0.745   4.311
    7CHTO   C90 2677   6.677   0.776   4.136
    7CHTO   O60 2678   6.797   0.748   4.208
    7CHTO  H138 2679   6.870   0.789   4.165
    7CHTO   O50 2680   6.443   0.516   4.405
    7CHTO   C73 2681   6.498   0.454   4.522
    7CHTO  H145 2682   6.595   0.407   4.498
    7CHTO   C74 2683   6.402   0.344   4.575
    7CHTO  H146 2684   6.388   0.270   4.494
    7CHTO   O54 2685   6.468   0.274   4.682
    7CHTO  H133 2686   6.414   0.203   4.713
    7CHTO   C75 2687   6.265   0.411   4.618
    7CHTO  H147 2688   6.219   0.456   4.528
    7CHTO   N13 2689   6.165   0.315   4.669
    7CHTO  H139 2690   6.074   0.367   4.695
    7CHTO  H140 2691   6.142   0.241   4.594
    7CHTO   C76 2692   6.293   0.531   4.721
    7CHTO  H148 2693   6.326   0.488   0.035
    7CHTO   O49 2694   6.396   0.622   4.671
    7CHTO   C77 2695   6.520   0.560   4.634
    7CHTO  H149 2696   6.564   0.511   4.721
    7CHTO   C88 2697   6.619   0.669   4.593
    7CHTO   O58 2698   6.752   0.614   4.561
    7CHTO  H136 2699   6.809   0.683   4.534
    7CHTO   O51 2700   6.164   0.624   4.734
    7CHTO   C78 2701   6.113   0.649   0.101
    7CHTO  H150 2702   6.167   0.584   0.174
    7CHTO   C80 2703   5.962   0.616   0.108
    7CHTO  H152 2704   5.911   0.668   0.023
    7CHTO   O55 2705   5.948   0.474   0.090
    7CHTO  H134 2706   5.967   0.450   0.001
    7CHTO   C84 2707   5.896   0.664   0.243
    7CHTO  H156 2708   5.941   0.606   0.324
    7CHTO   N15 2709   5.748   0.640   0.248
    7CHTO  H143 2710   5.727   0.535   0.235
    7CHTO  H144 2711   5.709   0.672   0.342
    7CHTO   C87 2712   5.932   0.812   0.267
    7CHTO  H159 2713   5.889   0.873   0.187
    7CHTO   O53 2714   6.083   0.826   0.268
    7CHTO   C82 2715   6.141   0.795   0.140
    7CHTO  H154 2716   6.101   0.863   0.064
    7CHTO   C89 2717   6.294   0.822   0.149
    7CHTO   O59 2718   6.322   0.961   0.171
    7CHTO  H137 2719   6.293   0.986   0.257
    7CHTO   O45 2720   5.879   0.867   0.412
    7CHTO   C67 2721   5.828   1.001   0.405
    7CHTO  H124 2722   5.878   1.054   0.324
    7CHTO   C65 2723   5.673   1.001   0.378
    7CHTO  H122 2724   5.635   0.907   0.419
    7CHTO   O44 2725   5.660   0.998   0.235
    7CHTO  H102 2726   5.569   0.986   0.212
    7CHTO   C63 2727   5.596   1.115   0.456
    7CHTO  H120 2728   5.586   1.084   0.560
    7CHTO   N11 2729   5.452   1.136   0.418
    7CHTO  H108 2730   5.433   1.240   0.399
    7CHTO  H109 2731   5.428   1.079   0.331
    7CHTO   C61 2732   5.685   1.244   0.456
    7CHTO  H118 2733   5.632   1.320   0.516
    7CHTO   O40 2734   5.815   1.223   0.521
    7CHTO   C68 2735   5.861   1.084   0.535
    7CHTO  H125 2736   5.810   1.039   0.622
    7CHTO   C72 2737   6.013   1.084   0.567
    7CHTO   O48 2738   6.094   1.144   0.465
    7CHTO  H105 2739   6.092   1.091   0.387
    7CHTO   O38 2740   5.707   1.291   0.322
    7CHTO   C55 2741   5.733   1.431   0.304
    7CHTO  H112 2742   5.773   1.476   0.396
    7CHTO   C56 2743   5.600   1.503   0.256
    7CHTO  H113 2744   5.557   1.442   0.176
    7CHTO   O42 2745   5.504   1.503   0.363
    7CHTO  H100 2746   5.477   1.415   0.383
    7CHTO   C57 2747   5.627   1.650   0.205
    7CHTO  H114 2748   5.648   1.711   0.293
    7CHTO   N10 2749   5.509   1.710   0.137
    7CHTO  H106 2750   5.510   1.818   0.148
    7CHTO  H107 2751   5.508   1.685   0.032
    7CHTO   C58 2752   5.751   1.654   0.112
    7CHTO  H115 2753   5.727   1.603   0.015
    7CHTO   O37 2754   5.864   1.589   0.173
    7CHTO   C59 2755   5.843   1.449   0.196
    7CHTO  H116 2756   5.814   1.399   0.103
    7CHTO   C70 2757   5.975   1.386   0.244
    7CHTO   O46 2758   6.079   1.394   0.147
    7CHTO  H103 2759   6.157   1.356   0.181
    7CHTO   O39 2760   5.796   1.808   0.083
    7CHTO   C60 2761   5.902   1.820   4.768
    7CHTO  H117 2762   5.946   1.722   4.749
    7CHTO   C62 2763   5.849   1.876   4.633
    7CHTO  H119 2764   5.769   1.806   4.601
    7CHTO   O43 2765   5.791   2.006   4.652
    7CHTO  H101 2766   5.856   2.068   4.679
    7CHTO   C66 2767   5.967   1.873   4.525
    7CHTO  H123 2768   6.008   1.773   4.521
    7CHTO   N12 2769   5.922   1.903   4.387
    7CHTO  H110 2770   5.879   2.002   4.383
    7CHTO  H111 2771   6.004   1.892   4.318
    7CHTO   C69 2772   6.082   1.966   4.573
    7CHTO  H126 2773   6.049   2.073   4.571
    7CHTO   O41 2774   6.125   1.926   4.721
    7CHTO   C64 2775   6.016   1.910   0.043
    7CHTO  H121 2776   5.975   2.010   0.070
    7CHTO   C71 2777   6.082   1.847   0.168
    7CHTO   O47 2778   5.996   1.848   0.283
    7CHTO  H104 2779   5.983   1.936   0.312
    7CHTO   O34 2780   6.209   1.951   4.480
    7CHTO   C49 2781   6.339   2.032   4.466
    7CHTO   H91 2782   6.319   2.112   4.394
    7CHTO   C47 2783   6.449   1.939   4.411
    7CHTO   H89 2784   6.534   2.008   4.388
    7CHTO   O33 2785   6.406   1.878   4.288
    7CHTO   H70 2786   6.478   1.832   4.248
    7CHTO   C45 2787   6.492   1.826   4.519
    7CHTO   H87 2788   6.433   1.735   4.500
    7CHTO    N8 2789   6.635   1.794   4.498
    7CHTO   H75 2790   6.651   1.761   4.397
    7CHTO   H76 2791   6.666   1.716   4.567
    7CHTO   C43 2792   6.451   1.871   4.669
    7CHTO   H85 2793   6.346   1.845   4.679
    7CHTO   O29 2794   6.472   2.013   4.685
    7CHTO   C50 2795   6.388   2.094   4.600
    7CHTO   H92 2796   6.299   2.121   4.659
    7CHTO   C54 2797   6.457   2.232   4.580
    7CHTO   O36 2798   6.589   2.220   4.525
    7CHTO   H72 2799   6.584   2.187   4.437
    7CHTO   O27 2800   6.516   1.797   4.773
    7CHTO   C37 2801   6.525   1.698   0.095
    7CHTO   H79 2802   6.469   1.730   0.184
    7CHTO   C38 2803   6.463   1.562   0.047
    7CHTO   H80 2804   6.502   1.540   4.728
    7CHTO   O31 2805   6.321   1.582   0.039
    7CHTO   H68 2806   6.280   1.506   0.003
    7CHTO   C39 2807   6.500   1.443   0.145
    7CHTO   H81 2808   6.453   1.463   0.241
    7CHTO    N7 2809   6.450   1.310   0.097
    7CHTO   H73 2810   6.493   1.285   0.002
    7CHTO   H74 2811   6.474   1.233   0.170
    7CHTO   C40 2812   6.656   1.443   0.167
    7CHTO   H82 2813   6.707   1.426   0.072
    7CHTO   O26 2814   6.693   1.570   0.225
    7CHTO   C41 2815   6.675   1.681   0.133
    7CHTO   H83 2816   6.734   1.664   0.042
    7CHTO   C52 2817   6.729   1.809   0.201
    7CHTO   O35 2818   6.874   1.801   0.232
    7CHTO   H71 2819   6.889   1.735   0.298
    7CHTO   O28 2820   6.703   1.344   0.262
    7CHTO   C42 2821   6.841   1.296   0.259
    7CHTO   H84 2822   6.852   1.243   0.353
    7CHTO   C44 2823   6.953   1.406   0.258
    7CHTO   H86 2824   6.938   1.470   0.171
    7CHTO   O32 2825   6.934   1.486   0.376
    7CHTO   H69 2826   6.950   1.435   0.454
    7CHTO   C48 2827   7.099   1.346   0.249
    7CHTO   H90 2828   7.120   1.291   0.341
    7CHTO    N9 2829   7.204   1.454   0.241
    7CHTO   H77 2830   7.189   1.514   0.152
    7CHTO   H78 2831   7.302   1.409   0.240
    7CHTO   C51 2832   7.105   1.246   0.127
    7CHTO   H93 2833   7.082   1.303   0.037
    7CHTO   O30 2834   7.010   1.141   0.151
    7CHTO   C46 2835   6.865   1.192   0.145
    7CHTO   H88 2836   6.848   1.239   0.048
    7CHTO   C53 2837   6.772   1.069   0.161
    7CHTO   O72 2838   6.788   0.977   0.052
    7CHTO  H199 2839   6.754   1.014   4.755
    7CHTO   O22 2840   7.233   1.181   0.115
    7CHTO   C31 2841   7.277   1.112   4.772
    7CHTO   H59 2842   7.385   1.090   0.005
    7CHTO   C29 2843   7.206   0.978   4.746
    7CHTO   H57 2844   7.098   0.998   4.735
    7CHTO   O21 2845   7.222   0.896   0.082
    7CHTO   H37 2846   7.170   0.818   0.075
    7CHTO   C27 2847   7.259   0.906   4.615
    7CHTO   H55 2848   7.364   0.878   4.630
    7CHTO    N5 2849   7.182   0.783   4.581
    7CHTO   H43 2850   7.226   0.735   4.495
    7CHTO   H44 2851   7.184   0.715   4.665
    7CHTO   C25 2852   7.256   1.008   4.496
    7CHTO   H53 2853   7.152   1.034   4.472
    7CHTO   O17 2854   7.325   1.131   4.531
    7CHTO   C32 2855   7.269   1.201   4.643
    7CHTO   H60 2856   7.165   1.224   4.623
    7CHTO   C36 2857   7.347   1.334   4.660
    7CHTO   O25 2858   7.327   1.420   4.548
    7CHTO   H40 2859   7.376   1.499   4.560
    7CHTO   O15 2860   7.326   0.949   4.366
    7CHTO   C19 2861   7.303   0.988   4.228
    7CHTO   H47 2862   7.378   0.931   4.171
    7CHTO   C20 2863   7.162   0.951   4.174
    7CHTO   H48 2864   7.082   0.998   4.233
    7CHTO   O19 2865   7.149   0.808   4.188
    7CHTO   H35 2866   7.062   0.781   4.164
    7CHTO   C21 2867   7.143   0.996   4.023
    7CHTO   H49 2868   7.213   0.940   3.961
    7CHTO    N4 2869   7.007   0.969   3.970
    7CHTO   H41 2870   6.933   1.023   4.027
    7CHTO   H42 2871   7.001   0.999   3.867
    7CHTO   C22 2872   7.183   1.146   4.010
    7CHTO   H50 2873   7.111   1.206   4.067
    7CHTO   O14 2874   7.316   1.167   4.061
    7CHTO   C23 2875   7.333   1.138   4.200
    7CHTO   H51 2876   7.266   1.205   4.257
    7CHTO   C34 2877   7.478   1.174   4.238
    7CHTO   O23 2878   7.500   1.315   4.232
    7CHTO   H38 2879   7.589   1.334   4.255
    7CHTO   O16 2880   7.191   1.190   3.873
    7CHTO   C24 2881   7.142   1.341   3.853
    7CHTO   H52 2882   7.119   1.389   3.948
    7CHTO   C26 2883   7.017   1.342   3.763
    7CHTO   H54 2884   7.043   1.295   3.666
    7CHTO   O20 2885   6.914   1.262   3.825
    7CHTO   H36 2886   6.888   1.299   3.907
    7CHTO   C30 2887   6.969   1.488   3.738
    7CHTO   H58 2888   6.924   1.526   3.830
    7CHTO    N6 2889   6.860   1.493   3.637
    7CHTO   H45 2890   6.895   1.457   3.542
    7CHTO   H46 2891   6.825   1.595   3.625
    7CHTO   C33 2892   7.085   1.586   3.702
    7CHTO   H61 2893   7.112   1.575   3.596
    7CHTO   O18 2894   7.203   1.562   3.781
    7CHTO   C28 2895   7.252   1.427   3.785
    7CHTO   H56 2896   7.269   1.389   3.685
    7CHTO   C35 2897   7.386   1.424   3.862
    7CHTO   O24 2898   7.376   1.472   3.997
    7CHTO   H39 2899   7.358   1.564   3.997
    7CHTO    O9 2900   7.039   1.721   3.717
    7CHTO   C13 2901   7.079   1.825   3.601
    7CHTO   H26 2902   7.049   1.780   3.504
    7CHTO   C11 2903   7.235   1.858   3.606
    7CHTO   H24 2904   7.288   1.779   3.550
    7CHTO    O8 2905   7.283   1.854   3.742
    7CHTO    H3 2906   7.240   1.919   3.794
    7CHTO    C9 2907   7.259   1.995   3.539
    7CHTO   H22 2908   7.209   1.990   3.441
    7CHTO    N2 2909   7.401   2.023   3.505
    7CHTO   H10 2910   7.408   2.117   3.451
    7CHTO   H11 2911   7.441   1.943   3.446
    7CHTO    C7 2912   7.188   2.107   3.626
    7CHTO   H20 2913   7.169   2.189   3.554
    7CHTO    O4 2914   7.063   2.063   3.684
    7CHTO   C14 2915   6.992   1.959   3.614
    7CHTO   H27 2916   6.968   1.996   3.511
    7CHTO   C18 2917   6.856   1.935   3.685
    7CHTO   O13 2918   6.773   2.051   3.681
    7CHTO    H7 2919   6.744   2.067   3.593
    7CHTO    O2 2920   7.283   2.161   3.749
    7CHTO    C1 2921   7.236   2.284   3.807
    7CHTO   H14 2922   7.128   2.298   3.786
    7CHTO    C2 2923   7.314   2.411   3.753
    7CHTO   H15 2924   7.421   2.390   3.768
    7CHTO    O6 2925   7.288   2.426   3.612
    7CHTO    H1 2926   7.197   2.442   3.597
    7CHTO    C3 2927   7.272   2.543   3.835
    7CHTO   H16 2928   7.168   2.569   3.808
    7CHTO    N1 2929   7.358   2.661   3.796
    7CHTO    H8 2930   7.296   2.742   3.760
    7CHTO    H9 2931   7.418   2.694   3.879
    7CHTO    C4 2932   7.271   2.516   3.990
    7CHTO   H17 2933   7.374   2.508   4.026
    7CHTO    O1 2934   7.198   2.396   4.021
    7CHTO    C5 2935   7.250   2.277   3.961
    7CHTO   H18 2936   7.357   2.267   3.985
    7CHTO   C16 2937   7.174   2.155   4.020
    7CHTO   O11 2938   7.202   2.140   4.160
    7CHTO    H5 2939   7.163   2.210   4.208
    7CHTO    O3 2940   7.198   2.617   4.064
    7CHTO    C6 2941   7.276   2.709   4.147
    7CHTO   H19 2942   7.382   2.710   4.122
    7CHTO    C8 2943   7.221   2.855   4.130
    7CHTO   H21 2944   7.114   2.855   4.155
    7CHTO    O7 2945   7.238   2.893   3.993
    7CHTO    H2 2946   7.181   2.843   3.938
    7CHTO   C12 2947   7.296   2.955   4.228
    7CHTO   H25 2948   7.402   2.957   4.194
    7CHTO    N3 2949   7.243   3.095   4.219
    7CHTO   H12 2950   7.322   3.163   4.188
    7CHTO   H13 2951   7.160   3.102   4.151
    7CHTO   C15 2952   7.293   2.898   4.374
    7CHTO   H28 2953   7.192   2.902   4.417
    7CHTO   O10 2954   7.392   2.972   4.470
    7CHTO    H4 2955   7.479   2.971   4.434
    7CHTO    O5 2956   7.341   2.763   4.378
    7CHTO   C10 2957   7.266   2.670   4.298
    7CHTO   H23 2958   7.162   2.673   4.330
    7CHTO   C17 2959   7.319   2.529   4.328
    7CHTO   O12 2960   7.296   2.492   4.464
    7CHTO    H6 2961   7.332   2.407   4.480
    8CHTO  H203 2962   7.818   6.640   0.275
    8CHTO   O82 2963   7.820   6.729   0.307
    8CHTO  C123 2964   7.748   6.738   0.431
    8CHTO  H227 2965   7.796   6.670   0.504
    8CHTO   O77 2966   7.770   6.877   0.471
    8CHTO  C118 2967   7.709   6.912   0.596
    8CHTO  H222 2968   7.745   6.843   0.674
    8CHTO  C125 2969   7.755   7.058   0.634
    8CHTO   O84 2970   7.716   7.155   0.536
    8CHTO  H205 2971   7.622   7.164   0.536
    8CHTO  C114 2972   7.556   6.899   0.585
    8CHTO  H218 2973   7.522   6.966   0.505
    8CHTO  C116 2974   7.516   6.754   0.544
    8CHTO  H220 2975   7.540   6.685   0.629
    8CHTO   O79 2976   7.373   6.750   0.527
    8CHTO  H201 2977   7.345   6.662   0.509
    8CHTO  C120 2978   7.594   6.708   0.414
    8CHTO  H224 2979   7.553   6.769   0.330
    8CHTO   N21 2980   7.568   6.565   0.384
    8CHTO  H211 2981   7.652   6.521   0.332
    8CHTO  H212 2982   7.478   6.556   0.324
    8CHTO   O75 2983   7.503   6.939   0.712
    8CHTO  C112 2984   7.376   7.040   0.699
    8CHTO  H216 2985   7.304   6.998   0.626
    8CHTO   O73 2986   7.427   7.166   0.655
    8CHTO  C113 2987   7.327   7.267   0.633
    8CHTO  H217 2988   7.254   7.230   0.558
    8CHTO  C124 2989   7.396   7.391   0.575
    8CHTO   O83 2990   7.462   7.364   0.451
    8CHTO  H204 2991   7.502   7.443   0.420
    8CHTO  C109 2992   7.256   7.300   0.766
    8CHTO  H213 2993   7.331   7.348   0.831
    8CHTO  C110 2994   7.200   7.172   0.835
    8CHTO  H214 2995   7.111   7.140   0.779
    8CHTO   O78 2996   7.153   7.205   0.967
    8CHTO  H200 2997   7.225   7.235   1.020
    8CHTO  C111 2998   7.305   7.056   0.839
    8CHTO  H215 2999   7.382   7.083   0.912
    8CHTO   N19 3000   7.247   6.926   0.882
    8CHTO  H207 3001   7.168   6.897   0.815
    8CHTO  H208 3002   7.209   6.935   0.983
    8CHTO   O74 3003   7.148   7.395   0.740
    8CHTO  C115 3004   7.126   7.518   0.849
    8CHTO  H219 3005   7.025   7.516   0.892
    8CHTO   O76 3006   7.225   7.506   0.973
    8CHTO  C122 3007   7.217   7.611   1.070
    8CHTO  H226 3008   7.302   7.600   1.137
    8CHTO  C126 3009   7.088   7.590   1.158
    8CHTO   O85 3010   7.080   7.682   1.268
    8CHTO  H206 3011   7.002   7.667   1.316
    8CHTO  C121 3012   7.224   7.755   1.004
    8CHTO  H225 3013   7.196   7.829   1.082
    8CHTO   O81 3014   7.360   7.782   0.966
    8CHTO  H202 3015   7.370   7.872   0.941
    8CHTO  C119 3016   7.128   7.771   0.883
    8CHTO  H223 3017   7.027   7.764   0.924
    8CHTO  C117 3018   7.145   7.656   0.777
    8CHTO  H221 3019   7.242   7.650   0.728
    8CHTO   N20 3020   7.045   7.670   0.665
    8CHTO  H209 3021   7.059   7.591   0.593
    8CHTO  H210 3022   7.058   7.766   0.616
    8CHTO   O80 3023   7.128   7.919   0.826
    8CHTO  C103 3024   7.067   8.032   0.910
    8CHTO  H190 3025   7.017   7.992   0.998
    8CHTO  C101 3026   7.169   8.144   0.956
    8CHTO  H188 3027   7.228   8.174   0.869
    8CHTO   O68 3028   7.265   8.085   1.063
    8CHTO  H168 3029   7.217   8.061   1.140
    8CHTO   C99 3030   7.090   8.274   1.009
    8CHTO  H186 3031   7.031   8.246   1.099
    8CHTO   N17 3032   7.180   8.387   1.049
    8CHTO  H174 3033   7.249   8.355   1.126
    8CHTO  H175 3034   7.234   8.424   0.963
    8CHTO   C97 3035   6.987   8.317   0.902
    8CHTO  H184 3036   7.042   8.344   0.810
    8CHTO   O64 3037   6.895   8.209   0.879
    8CHTO  C104 3038   6.955   8.094   0.817
    8CHTO  H191 3039   6.999   8.120   0.721
    8CHTO  C108 3040   6.846   7.991   0.788
    8CHTO   O71 3041   6.754   8.038   0.689
    8CHTO  H171 3042   6.796   8.041   0.605
    8CHTO   O62 3043   6.896   8.421   0.943
    8CHTO   C91 3044   6.906   8.547   0.874
    8CHTO  H178 3045   7.011   8.567   0.852
    8CHTO   C92 3046   6.859   8.658   0.974
    8CHTO  H179 3047   6.761   8.629   1.014
    8CHTO   O66 3048   6.949   8.657   1.086
    8CHTO  H166 3049   6.919   8.714   1.153
    8CHTO   C93 3050   6.854   8.803   0.911
    8CHTO  H180 3051   6.958   8.839   0.904
    8CHTO   N16 3052   6.784   8.901   0.999
    8CHTO  H172 3053   6.696   8.940   0.952
    8CHTO  H173 3054   6.851   8.981   1.027
    8CHTO   C94 3055   6.793   8.802   0.766
    8CHTO  H181 3056   6.684   8.789   0.768
    8CHTO   O61 3057   6.846   8.695   0.686
    8CHTO   C95 3058   6.822   8.564   0.741
    8CHTO  H182 3059   6.716   8.554   0.763
    8CHTO  C106 3060   6.854   8.459   0.628
    8CHTO   O69 3061   6.990   8.468   0.585
    8CHTO  H169 3062   7.005   8.404   0.517
    8CHTO   O63 3063   6.832   8.936   0.692
    8CHTO   C96 3064   6.758   8.953   0.557
    8CHTO  H183 3065   6.694   8.866   0.541
    8CHTO   C98 3066   6.852   8.966   0.434
    8CHTO  H185 3067   6.926   9.046   0.453
    8CHTO   O67 3068   6.927   8.844   0.424
    8CHTO  H167 3069   6.990   8.851   0.355
    8CHTO  C102 3070   6.769   8.995   0.299
    8CHTO  H189 3071   6.713   8.903   0.278
    8CHTO   N18 3072   6.852   9.021   0.179
    8CHTO  H176 3073   6.831   8.948   0.102
    8CHTO  H177 3074   6.958   9.018   0.203
    8CHTO  C105 3075   6.667   9.110   0.325
    8CHTO  H192 3076   6.720   9.205   0.332
    8CHTO   O65 3077   6.589   9.092   0.445
    8CHTO  C100 3078   6.665   9.079   0.566
    8CHTO  H187 3079   6.727   9.169   0.580
    8CHTO  C107 3080   6.569   9.067   0.687
    8CHTO   O70 3081   6.485   9.182   0.700
    8CHTO  H170 3082   6.427   9.170   0.773
    8CHTO   O57 3083   6.564   9.110   0.201
    8CHTO   C85 3084   6.551   9.226   0.117
    8CHTO  H157 3085   6.653   9.247   0.079
    8CHTO   C83 3086   6.511   9.352   0.202
    8CHTO  H155 3087   6.593   9.374   0.271
    8CHTO   O56 3088   6.397   9.322   0.285
    8CHTO  H135 3089   6.321   9.305   0.232
    8CHTO   C81 3090   6.491   9.473   0.107
    8CHTO  H153 3091   6.583   9.486   0.049
    8CHTO   N14 3092   6.474   9.603   0.177
    8CHTO  H141 3093   6.558   9.667   0.160
    8CHTO  H142 3094   6.462   9.589   0.283
    8CHTO   C79 3095   6.374   9.441   0.006
    8CHTO  H151 3096   6.366   9.527   4.720
    8CHTO   O52 3097   6.411   9.326   4.705
    8CHTO   C86 3098   6.446   9.205   0.000
    8CHTO  H158 3099   6.349   9.171   0.041
    8CHTO   C90 3100   6.494   9.093   4.685
    8CHTO   O60 3101   6.609   9.133   4.609
    8CHTO  H138 3102   6.682   9.144   4.666
    8CHTO   O50 3103   6.247   9.418   0.068
    8CHTO   C73 3104   6.105   9.435   0.058
    8CHTO  H145 3105   6.073   9.431   4.734
    8CHTO   C74 3106   6.063   9.573   0.118
    8CHTO  H146 3107   6.116   9.651   0.060
    8CHTO   O54 3108   5.922   9.593   0.093
    8CHTO  H133 3109   5.906   9.602   0.001
    8CHTO   C75 3110   6.100   9.578   0.271
    8CHTO  H147 3111   6.209   9.567   0.280
    8CHTO   N13 3112   6.067   9.705   0.340
    8CHTO  H139 3113   6.157   9.751   0.379
    8CHTO  H140 3114   6.020   9.775   0.272
    8CHTO   C76 3115   6.036   9.452   0.346
    8CHTO  H148 3116   5.928   9.467   0.354
    8CHTO   O49 3117   6.064   9.327   0.276
    8CHTO   C77 3118   6.033   9.321   0.137
    8CHTO  H149 3119   5.925   9.330   0.122
    8CHTO   C88 3120   6.072   9.179   0.092
    8CHTO   O58 3121   6.049   9.158   4.739
    8CHTO  H136 3122   6.077   9.072   4.715
    8CHTO   O51 3123   6.107   9.431   0.486
    8CHTO   C78 3124   6.031   9.328   0.576
    8CHTO  H150 3125   5.949   9.279   0.520
    8CHTO   C80 3126   5.971   9.401   0.698
    8CHTO  H152 3127   6.053   9.458   0.749
    8CHTO   O55 3128   5.875   9.496   0.646
    8CHTO  H134 3129   5.842   9.549   0.716
    8CHTO   C84 3130   5.906   9.299   0.799
    8CHTO  H156 3131   5.821   9.252   0.749
    8CHTO   N15 3132   5.852   9.368   0.921
    8CHTO  H143 3133   5.806   9.296   0.986
    8CHTO  H144 3134   5.931   9.417   0.974
    8CHTO   C87 3135   6.008   9.188   0.835
    8CHTO  H159 3136   6.092   9.230   0.892
    8CHTO   O53 3137   6.058   9.126   0.705
    8CHTO   C82 3138   6.128   9.217   0.621
    8CHTO  H154 3139   6.215   9.259   0.673
    8CHTO   C89 3140   6.183   9.138   0.499
    8CHTO   O59 3141   6.268   9.030   0.539
    8CHTO  H137 3142   6.218   8.964   0.581
    8CHTO   O45 3143   5.939   9.068   0.921
    8CHTO   C67 3144   6.025   8.954   0.942
    8CHTO  H124 3145   6.113   8.963   0.879
    8CHTO   C65 3146   6.072   8.946   1.092
    8CHTO  H122 3147   6.004   9.011   1.148
    8CHTO   O44 3148   6.204   9.003   1.097
    8CHTO  H102 3149   6.266   8.944   1.059
    8CHTO   C63 3150   6.052   8.804   1.156
    8CHTO  H120 3151   5.945   8.786   1.169
    8CHTO   N11 3152   6.100   8.788   1.298
    8CHTO  H108 3153   6.069   8.693   1.336
    8CHTO  H109 3154   6.207   8.795   1.301
    8CHTO   C61 3155   6.103   8.695   1.056
    8CHTO  H118 3156   6.073   8.597   1.097
    8CHTO   O40 3157   6.040   8.705   0.925
    8CHTO   C68 3158   5.954   8.820   0.897
    8CHTO  H125 3159   5.858   8.808   0.951
    8CHTO   C72 3160   5.922   8.817   0.745
    8CHTO   O48 3161   5.825   8.914   0.705
    8CHTO  H105 3162   5.861   9.000   0.714
    8CHTO   O38 3163   6.246   8.699   1.038
    8CHTO   C55 3164   6.306   8.582   0.978
    8CHTO  H112 3165   6.230   8.527   0.919
    8CHTO   C56 3166   6.371   8.490   1.089
    8CHTO  H113 3167   6.447   8.551   1.142
    8CHTO   O42 3168   6.273   8.452   1.187
    8CHTO  H100 3169   6.243   8.527   1.234
    8CHTO   C57 3170   6.438   8.363   1.023
    8CHTO  H114 3171   6.355   8.302   0.988
    8CHTO   N10 3172   6.517   8.279   1.118
    8CHTO  H106 3173   6.453   8.205   1.164
    8CHTO  H107 3174   6.561   8.340   1.195
    8CHTO   C58 3175   6.526   8.402   0.901
    8CHTO  H115 3176   6.623   8.442   0.938
    8CHTO   O37 3177   6.465   8.500   0.815
    8CHTO   C59 3178   6.417   8.620   0.877
    8CHTO  H116 3179   6.500   8.672   0.926
    8CHTO   C70 3180   6.364   8.709   0.763
    8CHTO   O46 3181   6.331   8.842   0.805
    8CHTO  H103 3182   6.409   8.888   0.828
    8CHTO   O39 3183   6.554   8.262   0.805
    8CHTO   C60 3184   6.446   8.235   0.712
    8CHTO  H117 3185   6.357   8.289   0.744
    8CHTO   C62 3186   6.482   8.285   0.569
    8CHTO  H119 3187   6.511   8.392   0.580
    8CHTO   O43 3188   6.596   8.213   0.518
    8CHTO  H101 3189   6.621   8.247   0.434
    8CHTO   C66 3190   6.352   8.275   0.476
    8CHTO  H123 3191   6.276   8.340   0.519
    8CHTO   N12 3192   6.374   8.329   0.340
    8CHTO  H110 3193   6.282   8.322   0.282
    8CHTO  H111 3194   6.407   8.432   0.346
    8CHTO   C69 3195   6.296   8.130   0.474
    8CHTO  H126 3196   6.360   8.065   0.410
    8CHTO   O41 3197   6.287   8.067   0.620
    8CHTO   C64 3198   6.409   8.085   0.706
    8CHTO  H121 3199   6.493   8.027   0.662
    8CHTO   C71 3200   6.380   8.024   0.846
    8CHTO   O47 3201   6.262   8.079   0.905
    8CHTO  H104 3202   6.248   8.039   0.989
    8CHTO   O34 3203   6.148   8.129   0.414
    8CHTO   C49 3204   5.994   8.160   0.440
    8CHTO   H91 3205   5.944   8.150   0.344
    8CHTO   C47 3206   5.978   8.305   0.491
    8CHTO   H89 3207   5.868   8.326   0.490
    8CHTO   O33 3208   6.041   8.393   0.397
    8CHTO   H70 3209   6.027   8.482   0.422
    8CHTO   C45 3210   6.033   8.315   0.642
    8CHTO   H87 3211   6.133   8.272   0.647
    8CHTO    N8 3212   6.039   8.455   0.691
    8CHTO   H75 3213   5.983   8.467   0.783
    8CHTO   H76 3214   6.142   8.484   0.707
    8CHTO   C43 3215   5.946   8.217   0.735
    8CHTO   H85 3216   5.988   8.224   0.835
    8CHTO   O29 3217   5.954   8.083   0.682
    8CHTO   C50 3218   5.928   8.061   0.541
    8CHTO   H92 3219   5.968   7.962   0.517
    8CHTO   C54 3220   5.777   8.046   0.513
    8CHTO   O36 3221   5.718   7.942   0.592
    8CHTO   H72 3222   5.626   7.936   0.573
    8CHTO   O27 3223   5.808   8.260   0.747
    8CHTO   C37 3224   5.703   8.323   0.822
    8CHTO   H79 3225   5.645   8.247   0.876
    8CHTO   C38 3226   5.759   8.423   0.928
    8CHTO   H80 3227   5.828   8.492   0.878
    8CHTO   O31 3228   5.832   8.348   1.026
    8CHTO   H68 3229   5.775   8.290   1.073
    8CHTO   C39 3230   5.643   8.509   0.994
    8CHTO   H81 3231   5.577   8.440   1.046
    8CHTO    N7 3232   5.692   8.609   1.095
    8CHTO   H73 3233   5.758   8.680   1.047
    8CHTO   H74 3234   5.608   8.661   1.139
    8CHTO   C40 3235   5.560   8.576   0.878
    8CHTO   H82 3236   5.625   8.644   0.822
    8CHTO   O26 3237   5.506   8.472   0.795
    8CHTO   C41 3238   5.608   8.396   0.723
    8CHTO   H83 3239   5.668   8.464   0.660
    8CHTO   C52 3240   5.535   8.297   0.630
    8CHTO   O35 3241   5.451   8.365   0.530
    8CHTO   H71 3242   5.409   8.302   0.476
    8CHTO   O28 3243   5.446   8.651   0.925
    8CHTO   C42 3244   5.374   8.747   0.840
    8CHTO   H84 3245   5.297   8.786   0.906
    8CHTO   C44 3246   5.299   8.687   0.716
    8CHTO   H86 3247   5.372   8.642   0.649
    8CHTO   O32 3248   5.212   8.584   0.767
    8CHTO   H69 3249   5.171   8.538   0.696
    8CHTO   C48 3250   5.219   8.797   0.635
    8CHTO   H90 3251   5.137   8.832   0.698
    8CHTO    N9 3252   5.154   8.742   0.511
    8CHTO   H77 3253   5.193   8.789   0.422
    8CHTO   H78 3254   5.165   8.635   0.505
    8CHTO   C51 3255   5.312   8.921   0.605
    8CHTO   H93 3256   5.388   8.889   0.533
    8CHTO   O30 3257   5.371   8.968   0.727
    8CHTO   C46 3258   5.460   8.868   0.793
    8CHTO   H88 3259   5.535   8.834   0.722
    8CHTO   C53 3260   5.529   8.938   0.913
    8CHTO   O72 3261   5.609   9.049   0.868
    8CHTO  H199 3262   5.649   9.090   0.942
    8CHTO   O22 3263   5.239   9.035   0.556
    8CHTO   C31 3264   5.300   9.132   0.463
    8CHTO   H59 3265   5.234   9.221   0.465
    8CHTO   C29 3266   5.442   9.180   0.502
    8CHTO   H57 3267   5.505   9.091   0.510
    8CHTO   O21 3268   5.435   9.237   0.633
    8CHTO   H37 3269   5.386   9.318   0.632
    8CHTO   C27 3270   5.504   9.277   0.394
    8CHTO   H55 3271   5.444   9.370   0.390
    8CHTO    N5 3272   5.645   9.314   0.424
    8CHTO   H43 3273   5.707   9.226   0.428
    8CHTO   H44 3274   5.650   9.367   0.518
    8CHTO   C25 3275   5.493   9.208   0.253
    8CHTO   H53 3276   5.549   9.113   0.257
    8CHTO   O17 3277   5.354   9.177   0.225
    8CHTO   C32 3278   5.297   9.081   0.315
    8CHTO   H60 3279   5.354   8.988   0.309
    8CHTO   C36 3280   5.152   9.052   0.270
    8CHTO   O25 3281   5.152   8.982   0.145
    8CHTO   H40 3282   5.064   8.965   0.119
    8CHTO   O15 3283   5.550   9.296   0.135
    8CHTO   C19 3284   5.588   9.288   4.776
    8CHTO   H47 3285   5.494   9.261   4.725
    8CHTO   C20 3286   5.638   9.424   4.719
    8CHTO   H48 3287   5.722   9.465   4.779
    8CHTO   O19 3288   5.528   9.516   4.731
    8CHTO   H35 3289   5.555   9.602   4.706
    8CHTO   C21 3290   5.687   9.413   4.569
    8CHTO   H49 3291   5.601   9.389   4.506
    8CHTO    N4 3292   5.745   9.540   4.517
    8CHTO   H41 3293   5.776   9.527   4.414
    8CHTO   H42 3294   5.672   9.618   4.522
    8CHTO   C22 3295   5.787   9.294   4.558
    8CHTO   H50 3296   5.874   9.316   4.620
    8CHTO   O14 3297   5.723   9.174   4.604
    8CHTO   C23 3298   5.690   9.174   4.744
    8CHTO   H51 3299   5.784   9.186   0.019
    8CHTO   C34 3300   5.634   9.035   4.776
    8CHTO   O23 3301   5.732   8.932   4.756
    8CHTO   H38 3302   5.751   8.923   4.665
    8CHTO   O16 3303   5.827   9.264   4.423
    8CHTO   C24 3304   5.959   9.168   4.418
    8CHTO   H52 3305   5.974   9.115   4.512
    8CHTO   C26 3306   6.083   9.252   4.386
    8CHTO   H54 3307   6.067   9.305   4.289
    8CHTO   O20 3308   6.099   9.351   4.490
    8CHTO   H36 3309   6.168   9.410   4.468
    8CHTO   C30 3310   6.209   9.161   4.373
    8CHTO   H58 3311   6.234   9.118   4.471
    8CHTO    N6 3312   6.329   9.239   4.331
    8CHTO   H45 3313   6.415   9.174   4.323
    8CHTO   H46 3314   6.350   9.316   4.403
    8CHTO   C33 3315   6.182   9.040   4.277
    8CHTO   H61 3316   6.175   9.076   4.173
    8CHTO   O18 3317   6.058   8.975   4.311
    8CHTO   C28 3318   5.941   9.059   4.309
    8CHTO   H56 3319   5.931   9.108   4.212
    8CHTO   C35 3320   5.816   8.972   4.334
    8CHTO   O24 3321   5.818   8.902   4.459
    8CHTO   H39 3322   5.812   8.962   4.530
    8CHTO    O9 3323   6.292   8.947   4.279
    8CHTO   C13 3324   6.300   8.847   4.152
    8CHTO   H26 3325   6.270   8.904   4.061
    8CHTO   C11 3326   6.208   8.721   4.176
    8CHTO   H24 3327   6.103   8.755   4.174
    8CHTO    O8 3328   6.231   8.665   4.307
    8CHTO    H3 3329   6.319   8.633   4.313
    8CHTO    C9 3330   6.229   8.622   4.059
    8CHTO   H22 3331   6.207   8.679   3.967
    8CHTO    N2 3332   6.132   8.509   4.056
    8CHTO   H10 3333   6.146   8.447   4.142
    8CHTO   H11 3334   6.031   8.548   4.052
    8CHTO    C7 3335   6.379   8.577   4.054
    8CHTO   H20 3336   6.387   8.515   3.962
    8CHTO    O4 3337   6.468   8.690   4.041
    8CHTO   C14 3338   6.452   8.805   4.127
    8CHTO   H27 3339   6.500   8.889   4.074
    8CHTO   C18 3340   6.530   8.785   4.260
    8CHTO   O13 3341   6.671   8.778   4.238
    8CHTO    H7 3342   6.693   8.698   4.193
    8CHTO    O2 3343   6.426   8.487   4.187
    8CHTO    C1 3344   6.519   8.378   4.166
    8CHTO   H14 3345   6.567   8.356   4.264
    8CHTO    C2 3346   6.634   8.404   4.060
    8CHTO   H15 3347   6.586   8.433   3.966
    8CHTO    O6 3348   6.716   8.512   4.108
    8CHTO    H1 3349   6.779   8.536   4.043
    8CHTO    C3 3350   6.722   8.271   4.037
    8CHTO   H16 3351   6.778   8.250   4.129
    8CHTO    N1 3352   6.822   8.288   3.926
    8CHTO    H8 3353   6.879   8.197   3.914
    8CHTO    H9 3354   6.888   8.370   3.950
    8CHTO    C4 3355   6.627   8.147   4.015
    8CHTO   H17 3356   6.577   8.157   3.918
    8CHTO    O1 3357   6.530   8.136   4.120
    8CHTO    C5 3358   6.441   8.249   4.129
    8CHTO   H18 3359   6.391   8.265   4.034
    8CHTO   C16 3360   6.333   8.215   4.236
    8CHTO   O11 3361   6.252   8.104   4.195
    8CHTO    H5 3362   6.186   8.088   4.260
    8CHTO    O3 3363   6.704   8.024   4.020
    8CHTO    C6 3364   6.645   7.907   3.956
    8CHTO   H19 3365   6.536   7.909   3.956
    8CHTO    C8 3366   6.695   7.897   3.807
    8CHTO   H21 3367   6.803   7.912   3.806
    8CHTO    O7 3368   6.631   8.002   3.732
    8CHTO    H2 3369   6.664   8.086   3.760
    8CHTO   C12 3370   6.664   7.755   3.745
    8CHTO   H25 3371   6.553   7.746   3.738
    8CHTO    N3 3372   6.718   7.742   3.605
    8CHTO   H12 3373   6.674   7.818   3.542
    8CHTO   H13 3374   6.697   7.644   3.566
    8CHTO   C15 3375   6.717   7.645   3.843
    8CHTO   H28 3376   6.825   7.649   3.855
    8CHTO   O10 3377   6.677   7.505   3.807
    8CHTO    H4 3378   6.717   7.482   3.725
    8CHTO    O5 3379   6.653   7.659   3.971
    8CHTO   C10 3380   6.688   7.781   4.039
    8CHTO   H23 3381   6.796   7.782   4.056
    8CHTO   C17 3382   6.619   7.773   4.176
    8CHTO   O12 3383   6.657   7.879   4.263
    8CHTO    H6 3384   6.622   7.960   4.232
    9CHTO  H203 3385   7.264   3.846   3.937
    9CHTO   O82 3386   7.265   3.895   3.857
    9CHTO  C123 3387   7.399   3.904   3.805
    9CHTO  H227 3388   7.467   3.934   3.888
    9CHTO   O77 3389   7.430   3.768   3.763
    9CHTO  C118 3390   7.562   3.750   3.712
    9CHTO  H222 3391   7.637   3.784   3.785
    9CHTO  C125 3392   7.584   3.596   3.686
    9CHTO   O84 3393   7.577   3.520   3.807
    9CHTO  H205 3394   7.651   3.540   3.861
    9CHTO  C114 3395   7.576   3.832   3.582
    9CHTO  H218 3396   7.500   3.799   3.512
    9CHTO  C116 3397   7.550   3.983   3.611
    9CHTO  H220 3398   7.632   4.022   3.676
    9CHTO   O79 3399   7.558   4.056   3.487
    9CHTO  H201 3400   7.490   4.029   3.428
    9CHTO  C120 3401   7.410   4.003   3.683
    9CHTO  H224 3402   7.332   3.977   3.608
    9CHTO   N21 3403   7.388   4.144   3.724
    9CHTO  H211 3404   7.481   4.192   3.748
    9CHTO  H212 3405   7.337   4.198   3.645
    9CHTO   O75 3406   7.708   3.806   3.530
    9CHTO  C112 3407   7.706   3.758   3.371
    9CHTO  H216 3408   7.621   3.807   3.320
    9CHTO   O73 3409   7.692   3.615   3.370
    9CHTO  C113 3410   7.686   3.556   3.240
    9CHTO  H217 3411   7.601   3.602   3.184
    9CHTO  C124 3412   7.653   3.407   3.255
    9CHTO   O83 3413   7.750   3.334   3.332
    9CHTO  H204 3414   7.832   3.331   3.286
    9CHTO  C109 3415   7.819   3.582   3.163
    9CHTO  H213 3416   7.899   3.533   3.221
    9CHTO  C110 3417   7.844   3.736   3.156
    9CHTO  H214 3418   7.767   3.781   3.093
    9CHTO   O78 3419   7.971   3.759   3.091
    9CHTO  H200 3420   7.967   3.734   3.001
    9CHTO  C111 3421   7.840   3.800   3.298
    9CHTO  H215 3422   7.923   3.759   3.357
    9CHTO   N19 3423   7.856   3.948   3.298
    9CHTO  H207 3424   7.868   3.986   3.198
    9CHTO  H208 3425   7.773   3.997   3.346
    9CHTO   O74 3426   7.814   3.521   3.030
    9CHTO  C115 3427   7.953   3.461   2.983
    9CHTO  H219 3428   8.037   3.525   3.013
    9CHTO   O76 3429   7.983   3.319   3.054
    9CHTO  C122 3430   7.894   3.214   3.011
    9CHTO  H226 3431   7.793   3.240   3.042
    9CHTO  C126 3432   7.931   3.082   3.088
    9CHTO   O85 3433   7.918   3.095   3.230
    9CHTO  H206 3434   7.828   3.106   3.253
    9CHTO  C121 3435   7.901   3.194   2.855
    9CHTO  H225 3436   8.006   3.169   2.827
    9CHTO   O81 3437   7.817   3.086   2.813
    9CHTO  H202 3438   7.831   3.068   2.722
    9CHTO  C119 3439   7.860   3.328   2.786
    9CHTO  H223 3440   7.872   3.311   2.679
    9CHTO  C117 3441   7.952   3.450   2.826
    9CHTO  H221 3442   7.916   3.547   2.793
    9CHTO   N20 3443   8.091   3.440   2.771
    9CHTO  H209 3444   8.088   3.433   2.664
    9CHTO  H210 3445   8.149   3.526   2.800
    9CHTO   O80 3446   7.708   3.357   2.796
    9CHTO  C103 3447   7.646   3.476   2.713
    9CHTO  H190 3448   7.691   3.571   2.743
    9CHTO  C101 3449   7.653   3.464   2.556
    9CHTO  H188 3450   7.621   3.364   2.527
    9CHTO   O68 3451   7.801   3.484   2.512
    9CHTO  H168 3452   7.810   3.467   2.420
    9CHTO   C99 3453   7.558   3.572   2.485
    9CHTO  H186 3454   7.597   3.674   2.507
    9CHTO   N17 3455   7.552   3.559   2.335
    9CHTO  H174 3456   7.605   3.471   2.302
    9CHTO  H175 3457   7.594   3.648   2.289
    9CHTO   C97 3458   7.416   3.568   2.547
    9CHTO  H184 3459   7.366   3.474   2.519
    9CHTO   O64 3460   7.423   3.584   2.690
    9CHTO  C104 3461   7.495   3.481   2.759
    9CHTO  H191 3462   7.450   3.383   2.744
    9CHTO  C108 3463   7.488   3.509   2.910
    9CHTO   O71 3464   7.355   3.493   2.961
    9CHTO  H171 3465   7.331   3.403   2.960
    9CHTO   O62 3466   7.336   3.682   2.511
    9CHTO   C91 3467   7.225   3.659   2.422
    9CHTO  H178 3468   7.262   3.597   2.340
    9CHTO   C92 3469   7.187   3.797   2.358
    9CHTO  H179 3470   7.278   3.850   2.326
    9CHTO   O66 3471   7.113   3.771   2.238
    9CHTO  H166 3472   7.099   3.851   2.190
    9CHTO   C93 3473   7.097   3.886   2.453
    9CHTO  H180 3474   7.051   3.963   2.389
    9CHTO   N16 3475   7.173   3.962   2.555
    9CHTO  H172 3476   7.106   4.022   2.614
    9CHTO  H173 3477   7.246   4.025   2.507
    9CHTO   C94 3478   6.982   3.800   2.519
    9CHTO  H181 3479   6.995   3.790   2.627
    9CHTO   O61 3480   6.977   3.666   2.467
    9CHTO   C95 3481   7.098   3.591   2.489
    9CHTO  H182 3482   7.115   3.582   2.596
    9CHTO  C106 3483   7.075   3.446   2.435
    9CHTO   O69 3484   6.972   3.379   2.507
    9CHTO  H169 3485   6.961   3.292   2.473
    9CHTO   O63 3486   6.850   3.865   2.488
    9CHTO   C96 3487   6.746   3.854   2.603
    9CHTO  H183 3488   6.798   3.856   2.699
    9CHTO   C98 3489   6.658   3.726   2.598
    9CHTO  H185 3490   6.623   3.710   2.495
    9CHTO   O67 3491   6.742   3.613   2.628
    9CHTO  H167 3492   6.774   3.618   2.716
    9CHTO  C102 3493   6.531   3.731   2.696
    9CHTO  H189 3494   6.572   3.727   2.799
    9CHTO   N18 3495   6.438   3.615   2.685
    9CHTO  H176 3496   6.398   3.610   2.585
    9CHTO  H177 3497   6.358   3.625   2.757
    9CHTO  C105 3498   6.460   3.868   2.677
    9CHTO  H192 3499   6.416   3.872   2.577
    9CHTO   O65 3500   6.551   3.978   2.693
    9CHTO  C100 3501   6.657   3.983   2.596
    9CHTO  H187 3502   6.613   3.990   2.496
    9CHTO  C107 3503   6.741   4.110   2.621
    9CHTO   O70 3504   6.661   4.229   2.609
    9CHTO  H170 3505   6.714   4.304   2.627
    9CHTO   O57 3506   6.347   3.880   2.787
    9CHTO   C85 3507   6.230   3.960   2.763
    9CHTO  H157 3508   6.185   3.921   2.670
    9CHTO   C83 3509   6.268   4.109   2.733
    9CHTO  H155 3510   6.319   4.112   2.637
    9CHTO   O56 3511   6.363   4.154   2.831
    9CHTO  H135 3512   6.394   4.240   2.809
    9CHTO   C81 3513   6.139   4.195   2.725
    9CHTO  H153 3514   6.075   4.152   2.648
    9CHTO   N14 3515   6.163   4.334   2.676
    9CHTO  H141 3516   6.267   4.355   2.668
    9CHTO  H142 3517   6.118   4.406   2.742
    9CHTO   C79 3518   6.063   4.188   2.862
    9CHTO  H151 3519   5.972   4.247   2.852
    9CHTO   O52 3520   6.020   4.050   2.886
    9CHTO   C86 3521   6.129   3.952   2.885
    9CHTO  H158 3522   6.182   3.970   2.980
    9CHTO   C90 3523   6.071   3.809   2.897
    9CHTO   O60 3524   5.982   3.779   2.788
    9CHTO  H138 3525   5.949   3.692   2.798
    9CHTO   O50 3526   6.137   4.237   2.975
    9CHTO   C73 3527   6.151   4.315   3.095
    9CHTO  H145 3528   6.054   4.324   3.146
    9CHTO   C74 3529   6.201   4.459   3.061
    9CHTO  H146 3530   6.127   4.504   2.993
    9CHTO   O54 3531   6.196   4.537   3.182
    9CHTO  H133 3532   6.221   4.626   3.164
    9CHTO   C75 3533   6.344   4.450   2.996
    9CHTO  H147 3534   6.334   4.398   2.900
    9CHTO   N13 3535   6.404   4.580   2.962
    9CHTO  H139 3536   6.338   4.662   2.989
    9CHTO  H140 3537   6.425   4.587   2.856
    9CHTO   C76 3538   6.443   4.361   3.085
    9CHTO  H148 3539   6.473   4.419   3.173
    9CHTO   O49 3540   6.382   4.235   3.128
    9CHTO   C77 3541   6.253   4.247   3.191
    9CHTO  H149 3542   6.262   4.307   3.282
    9CHTO   C88 3543   6.207   4.108   3.235
    9CHTO   O58 3544   6.078   4.115   3.305
    9CHTO  H136 3545   6.051   4.029   3.331
    9CHTO   O51 3546   6.566   4.316   2.993
    9CHTO   C78 3547   6.702   4.305   3.066
    9CHTO  H150 3548   6.688   4.286   3.175
    9CHTO   C80 3549   6.784   4.434   3.046
    9CHTO  H152 3550   6.789   4.457   2.937
    9CHTO   O55 3551   6.711   4.541   3.111
    9CHTO  H134 3552   6.753   4.623   3.095
    9CHTO   C84 3553   6.930   4.420   3.104
    9CHTO  H156 3554   6.922   4.404   3.212
    9CHTO   N15 3555   7.012   4.545   3.084
    9CHTO  H143 3556   7.109   4.532   3.127
    9CHTO  H144 3557   7.022   4.566   2.980
    9CHTO   C87 3558   6.998   4.296   3.040
    9CHTO  H159 3559   7.007   4.311   2.933
    9CHTO   O53 3560   6.905   4.170   3.069
    9CHTO   C82 3561   6.777   4.184   3.007
    9CHTO  H154 3562   6.789   4.195   2.899
    9CHTO   C89 3563   6.695   4.054   3.029
    9CHTO   O59 3564   6.757   3.942   2.965
    9CHTO  H137 3565   6.706   3.865   2.981
    9CHTO   O45 3566   7.154   4.274   3.103
    9CHTO   C67 3567   7.185   4.147   3.161
    9CHTO  H124 3568   7.093   4.091   3.180
    9CHTO   C65 3569   7.276   4.062   3.066
    9CHTO  H122 3570   7.334   4.134   3.007
    9CHTO   O44 3571   7.186   3.991   2.978
    9CHTO  H102 3572   7.235   3.949   2.910
    9CHTO   C63 3573   7.385   3.978   3.144
    9CHTO  H120 3574   7.466   4.045   3.173
    9CHTO   N11 3575   7.460   3.876   3.064
    9CHTO  H108 3576   7.499   3.921   2.975
    9CHTO  H109 3577   7.541   3.836   3.122
    9CHTO   C61 3578   7.324   3.924   3.278
    9CHTO  H118 3579   7.407   3.877   3.333
    9CHTO   O40 3580   7.274   4.032   3.363
    9CHTO   C68 3581   7.253   4.164   3.302
    9CHTO  H125 3582   7.352   4.213   3.290
    9CHTO   C72 3583   7.169   4.253   3.398
    9CHTO   O48 3584   7.039   4.200   3.427
    9CHTO  H105 3585   7.047   4.121   3.478
    9CHTO   O38 3586   7.220   3.826   3.256
    9CHTO   C55 3587   7.165   3.763   3.374
    9CHTO  H112 3588   7.181   3.827   3.462
    9CHTO   C56 3589   7.222   3.617   3.394
    9CHTO  H113 3590   7.199   3.560   3.303
    9CHTO   O42 3591   7.366   3.622   3.403
    9CHTO  H100 3592   7.401   3.535   3.407
    9CHTO   C57 3593   7.156   3.551   3.522
    9CHTO  H114 3594   7.193   3.606   3.608
    9CHTO   N10 3595   7.194   3.409   3.542
    9CHTO  H106 3596   7.294   3.390   3.504
    9CHTO  H107 3597   7.191   3.384   3.647
    9CHTO   C58 3598   7.001   3.565   3.517
    9CHTO  H115 3599   6.960   3.494   3.441
    9CHTO   O37 3600   6.960   3.699   3.485
    9CHTO   C59 3601   7.011   3.749   3.361
    9CHTO  H116 3602   6.986   3.680   3.280
    9CHTO   C70 3603   6.943   3.883   3.330
    9CHTO   O46 3604   6.805   3.865   3.298
    9CHTO  H103 3605   6.767   3.949   3.279
    9CHTO   O39 3606   6.937   3.532   3.666
    9CHTO   C60 3607   6.793   3.534   3.671
    9CHTO  H117 3608   6.755   3.615   3.608
    9CHTO   C62 3609   6.731   3.401   3.617
    9CHTO  H119 3610   6.762   3.393   3.511
    9CHTO   O43 3611   6.786   3.289   3.689
    9CHTO  H101 3612   6.763   3.293   3.780
    9CHTO   C66 3613   6.570   3.409   3.625
    9CHTO  H123 3614   6.537   3.496   3.568
    9CHTO   N12 3615   6.504   3.292   3.561
    9CHTO  H110 3616   6.530   3.288   3.456
    9CHTO  H111 3617   6.532   3.201   3.612
    9CHTO   C69 3618   6.527   3.429   3.772
    9CHTO  H126 3619   6.563   3.343   3.834
    9CHTO   O41 3620   6.591   3.562   3.824
    9CHTO   C64 3621   6.745   3.563   3.816
    9CHTO  H121 3622   6.787   3.486   3.883
    9CHTO   C71 3623   6.796   3.702   3.863
    9CHTO   O47 3624   6.760   3.726   3.999
    9CHTO  H104 3625   6.792   3.810   4.026
    9CHTO   O34 3626   6.367   3.441   3.788
    9CHTO   C49 3627   6.242   3.467   3.879
    9CHTO   H91 3628   6.163   3.501   3.812
    9CHTO   C47 3629   6.277   3.578   3.981
    9CHTO   H89 3630   6.178   3.604   4.026
    9CHTO   O33 3631   6.327   3.695   3.914
    9CHTO   H70 3632   6.261   3.731   3.857
    9CHTO   C45 3633   6.382   3.526   4.093
    9CHTO   H87 3634   6.484   3.554   4.061
    9CHTO    N8 3635   6.353   3.596   4.220
    9CHTO   H75 3636   6.254   3.569   4.256
    9CHTO   H76 3637   6.359   3.703   4.207
    9CHTO   C43 3638   6.385   3.364   4.099
    9CHTO   H85 3639   6.446   3.333   4.015
    9CHTO   O29 3640   6.251   3.314   4.088
    9CHTO   C50 3641   6.193   3.340   3.958
    9CHTO   H92 3642   6.214   3.252   3.895
    9CHTO   C54 3643   6.038   3.337   3.971
    9CHTO   O36 3644   5.989   3.431   4.067
    9CHTO   H72 3645   6.016   3.406   4.153
    9CHTO   O27 3646   6.453   3.309   4.214
    9CHTO   C37 3647   6.587   3.282   4.257
    9CHTO   H79 3648   6.591   3.182   4.303
    9CHTO   C38 3649   6.686   3.279   4.135
    9CHTO   H80 3650   6.664   3.366   4.071
    9CHTO   O31 3651   6.658   3.160   4.059
    9CHTO   H68 3652   6.573   3.166   4.019
    9CHTO   C39 3653   6.837   3.285   4.179
    9CHTO   H81 3654   6.861   3.193   4.233
    9CHTO    N7 3655   6.932   3.295   4.062
    9CHTO   H73 3656   7.034   3.299   4.098
    9CHTO   H74 3657   6.919   3.209   3.997
    9CHTO   C40 3658   6.853   3.405   4.278
    9CHTO   H82 3659   6.818   3.495   4.226
    9CHTO   O26 3660   6.772   3.376   4.394
    9CHTO   C41 3661   6.630   3.387   4.365
    9CHTO   H83 3662   6.607   3.488   4.329
    9CHTO   C52 3663   6.557   3.366   4.500
    9CHTO   O35 3664   6.411   3.382   4.492
    9CHTO   H71 3665   6.374   3.371   4.577
    9CHTO   O28 3666   6.986   3.430   4.327
    9CHTO   C42 3667   7.024   3.568   4.358
    9CHTO   H84 3668   7.124   3.559   4.400
    9CHTO   C44 3669   6.937   3.637   4.470
    9CHTO   H86 3670   6.831   3.622   4.445
    9CHTO   O32 3671   6.962   3.567   4.593
    9CHTO   H69 3672   7.051   3.580   4.620
    9CHTO   C48 3673   6.961   3.794   4.481
    9CHTO   H90 3674   7.062   3.811   4.518
    9CHTO    N9 3675   6.867   3.857   4.582
    9CHTO   H77 3676   6.805   3.931   4.535
    9CHTO   H78 3677   6.924   3.901   4.663
    9CHTO   C51 3678   6.948   3.854   4.337
    9CHTO   H93 3679   6.852   3.822   4.296
    9CHTO   O30 3680   7.058   3.801   4.261
    9CHTO   C46 3681   7.037   3.656   4.229
    9CHTO   H88 3682   6.945   3.648   4.170
    9CHTO   C53 3683   7.156   3.608   4.142
    9CHTO   O72 3684   7.152   3.669   4.013
    9CHTO  H199 3685   7.224   3.638   3.962
    9CHTO   O22 3686   6.961   3.997   4.330
    9CHTO   C31 3687   6.904   4.074   4.217
    9CHTO   H59 3688   6.922   4.181   4.241
    9CHTO   C29 3689   6.971   4.046   4.080
    9CHTO   H57 3690   6.958   3.939   4.058
    9CHTO   O21 3691   7.112   4.069   4.095
    9CHTO   H37 3692   7.158   4.042   4.017
    9CHTO   C27 3693   6.907   4.132   3.963
    9CHTO   H55 3694   6.927   4.238   3.983
    9CHTO    N5 3695   6.961   4.097   3.829
    9CHTO   H43 3696   7.013   4.182   3.787
    9CHTO   H44 3697   7.027   4.012   3.834
    9CHTO   C25 3698   6.751   4.115   3.967
    9CHTO   H53 3699   6.725   4.010   3.944
    9CHTO   O17 3700   6.700   4.146   4.100
    9CHTO   C32 3701   6.749   4.059   4.203
    9CHTO   H60 3702   6.725   3.956   4.177
    9CHTO   C36 3703   6.675   4.096   4.335
    9CHTO   O25 3704   6.535   4.071   4.324
    9CHTO   H40 3705   6.493   4.093   4.405
    9CHTO   O15 3706   6.677   4.210   3.865
    9CHTO   C19 3707   6.568   4.178   3.775
    9CHTO   H47 3708   6.533   4.276   3.739
    9CHTO   C20 3709   6.612   4.093   3.651
    9CHTO   H48 3710   6.656   3.996   3.682
    9CHTO   O19 3711   6.714   4.168   3.583
    9CHTO   H35 3712   6.750   4.118   3.512
    9CHTO   C21 3713   6.489   4.063   3.556
    9CHTO   H49 3714   6.454   4.158   3.515
    9CHTO    N4 3715   6.525   3.977   3.440
    9CHTO   H41 3716   6.439   3.962   3.377
    9CHTO   H42 3717   6.561   3.881   3.475
    9CHTO   C22 3718   6.373   4.004   3.640
    9CHTO   H50 3719   6.404   3.906   3.678
    9CHTO   O14 3720   6.340   4.090   3.750
    9CHTO   C23 3721   6.446   4.110   3.845
    9CHTO   H51 3722   6.472   4.012   3.887
    9CHTO   C34 3723   6.392   4.198   3.959
    9CHTO   O23 3724   6.290   4.129   4.033
    9CHTO   H38 3725   6.259   4.184   4.102
    9CHTO   O16 3726   6.252   3.994   3.564
    9CHTO   C24 3727   6.157   3.874   3.604
    9CHTO   H52 3728   6.172   3.843   3.708
    9CHTO   C26 3729   6.184   3.755   3.510
    9CHTO   H54 3730   6.186   3.793   3.405
    9CHTO   O20 3731   6.314   3.701   3.540
    9CHTO   H36 3732   6.381   3.762   3.515
    9CHTO   C30 3733   6.073   3.646   3.520
    9CHTO   H58 3734   6.079   3.595   3.617
    9CHTO    N6 3735   6.092   3.540   3.417
    9CHTO   H45 3736   6.016   3.464   3.428
    9CHTO   H46 3737   6.085   3.582   3.318
    9CHTO   C33 3738   5.931   3.712   3.513
    9CHTO   H61 3739   5.918   3.759   3.414
    9CHTO   O18 3740   5.921   3.814   3.613
    9CHTO   C28 3741   6.010   3.924   3.593
    9CHTO   H56 3742   5.995   3.968   3.495
    9CHTO   C35 3743   5.983   4.032   3.700
    9CHTO   O24 3744   5.852   4.090   3.687
    9CHTO   H39 3745   5.840   4.155   3.753
    9CHTO    O9 3746   5.826   3.615   3.526
    9CHTO   C13 3747   5.698   3.636   3.428
    9CHTO   H26 3748   5.735   3.670   3.329
    9CHTO   C11 3749   5.597   3.741   3.493
    9CHTO   H24 3750   5.628   3.842   3.461
    9CHTO    O8 3751   5.605   3.737   3.636
    9CHTO    H3 3752   5.580   3.653   3.668
    9CHTO    C9 3753   5.453   3.713   3.440
    9CHTO   H22 3754   5.462   3.709   3.330
    9CHTO    N2 3755   5.356   3.822   3.467
    9CHTO   H10 3756   5.269   3.784   3.518
    9CHTO   H11 3757   5.327   3.870   3.374
    9CHTO    C7 3758   5.410   3.570   3.493
    9CHTO   H20 3759   5.329   3.538   3.424
    9CHTO    O4 3760   5.517   3.473   3.490
    9CHTO   C14 3761   5.626   3.497   3.399
    9CHTO   H27 3762   5.582   3.502   3.297
    9CHTO   C18 3763   5.723   3.376   3.400
    9CHTO   O13 3764   5.773   3.343   3.530
    9CHTO    H7 3765   5.830   3.411   3.561
    9CHTO    O2 3766   5.352   3.579   3.645
    9CHTO    C1 3767   5.318   3.454   3.708
    9CHTO   H14 3768   5.363   3.369   3.652
    9CHTO    C2 3769   5.162   3.430   3.720
    9CHTO   H15 3770   5.121   3.523   3.763
    9CHTO    O6 3771   5.109   3.412   3.587
    9CHTO    H1 3772   5.016   3.406   3.591
    9CHTO    C3 3773   5.130   3.305   3.816
    9CHTO   H16 3774   5.165   3.213   3.768
    9CHTO    N1 3775   4.983   3.289   3.842
    9CHTO    H8 3776   4.949   3.193   3.807
    9CHTO    H9 3777   4.926   3.367   3.794
    9CHTO    C4 3778   5.212   3.318   3.949
    9CHTO   H17 3779   5.177   3.405   4.005
    9CHTO    O1 3780   5.352   3.332   3.920
    9CHTO    C5 3781   5.384   3.453   3.849
    9CHTO   H18 3782   5.345   3.539   3.904
    9CHTO   C16 3783   5.539   3.464   3.843
    9CHTO   O11 3784   5.600   3.355   3.774
    9CHTO    H5 3785   5.579   3.359   3.682
    9CHTO    O3 3786   5.203   3.200   4.032
    9CHTO    C6 3787   5.243   3.222   4.171
    9CHTO   H19 3788   5.301   3.313   4.185
    9CHTO    C8 3789   5.117   3.231   4.263
    9CHTO   H21 3790   5.057   3.141   4.249
    9CHTO    O7 3791   5.041   3.346   4.221
    9CHTO    H2 3792   5.090   3.425   4.234
    9CHTO   C12 3793   5.160   3.241   4.415
    9CHTO   H25 3794   5.211   3.339   4.426
    9CHTO    N3 3795   5.041   3.244   4.506
    9CHTO   H12 3796   5.073   3.253   4.609
    9CHTO   H13 3797   4.982   3.154   4.494
    9CHTO   C15 3798   5.263   3.127   4.449
    9CHTO   H28 3799   5.215   3.029   4.453
    9CHTO   O10 3800   5.336   3.153   4.583
    9CHTO    H4 3801   5.374   3.239   4.583
    9CHTO    O5 3802   5.372   3.124   4.356
    9CHTO   C10 3803   5.333   3.104   4.219
    9CHTO   H23 3804   5.278   3.010   4.212
    9CHTO   C17 3805   5.459   3.091   4.133
    9CHTO   O12 3806   5.536   2.977   4.170
    9CHTO    H6 3807   5.612   2.971   4.114
   10CHTO  H203 3808   5.685   6.090   3.218
   10CHTO   O82 3809   5.618   6.130   3.166
   10CHTO  C123 3810   5.499   6.154   3.245
   10CHTO  H227 3811   5.425   6.206   3.182
   10CHTO   O77 3812   5.452   6.019   3.276
   10CHTO  C118 3813   5.324   6.018   3.343
   10CHTO  H222 3814   5.250   6.074   3.283
   10CHTO  C125 3815   5.277   5.869   3.356
   10CHTO   O84 3816   5.261   5.810   3.227
   10CHTO  H205 3817   5.234   5.721   3.236
   10CHTO  C114 3818   5.338   6.084   3.481
   10CHTO  H218 3819   5.406   6.024   3.542
   10CHTO  C116 3820   5.399   6.228   3.471
   10CHTO  H220 3821   5.320   6.296   3.431
   10CHTO   O79 3822   5.428   6.275   3.604
   10CHTO  H201 3823   5.494   6.222   3.644
   10CHTO  C120 3824   5.527   6.233   3.379
   10CHTO  H224 3825   5.609   6.183   3.435
   10CHTO   N21 3826   5.568   6.373   3.354
   10CHTO  H211 3827   5.618   6.383   3.258
   10CHTO  H212 3828   5.633   6.407   3.433
   10CHTO   O75 3829   5.205   6.082   3.536
   10CHTO  C112 3830   5.200   6.064   3.697
   10CHTO  H216 3831   5.268   6.137   3.744
   10CHTO   O73 3832   5.238   5.929   3.727
   10CHTO  C113 3833   5.233   5.897   3.866
   10CHTO  H217 3834   5.293   5.972   3.922
   10CHTO  C124 3835   5.301   5.761   3.890
   10CHTO   O83 3836   5.236   5.652   3.823
   10CHTO  H204 3837   5.281   5.573   3.843
   10CHTO  C109 3838   5.086   5.902   3.914
   10CHTO  H213 3839   5.030   5.832   3.851
   10CHTO  C110 3840   5.033   6.047   3.894
   10CHTO  H214 3841   5.087   6.114   3.961
   10CHTO   O78 3842   4.894   6.052   3.932
   10CHTO  H200 3843   4.885   6.039   4.025
   10CHTO  C111 3844   5.052   6.093   3.747
   10CHTO  H215 3845   4.985   6.034   3.683
   10CHTO   N19 3846   5.017   6.236   3.724
   10CHTO  H207 3847   4.983   6.283   3.815
   10CHTO  H208 3848   5.100   6.292   3.684
   10CHTO   O74 3849   5.075   5.860   4.054
   10CHTO  C115 3850   4.947   5.764   4.080
   10CHTO  H219 3851   4.854   5.808   4.042
   10CHTO   O76 3852   4.962   5.625   4.003
   10CHTO  C122 3853   4.860   5.527   4.029
   10CHTO  H226 3854   4.893   5.435   3.981
   10CHTO  C126 3855   4.725   5.567   3.959
   10CHTO   O85 3856   4.625   5.465   3.969
   10CHTO  H206 3857   4.547   5.494   3.926
   10CHTO  C121 3858   4.844   5.501   4.183
   10CHTO  H225 3859   4.757   5.434   4.197
   10CHTO   O81 3860   4.960   5.432   4.231
   10CHTO  H202 3861   4.946   5.404   4.320
   10CHTO  C119 3862   4.818   5.633   4.262
   10CHTO  H223 3863   4.724   5.673   4.223
   10CHTO  C117 3864   4.929   5.741   4.235
   10CHTO  H221 3865   5.029   5.717   4.271
   10CHTO   N20 3866   4.894   5.871   4.301
   10CHTO  H209 3867   4.974   5.943   4.286
   10CHTO  H210 3868   4.801   5.910   4.262
   10CHTO   O80 3869   4.780   5.609   4.418
   10CHTO  C103 3870   4.663   5.512   4.453
   10CHTO  H190 3871   4.618   5.472   4.362
   10CHTO  C101 3872   4.703   5.392   4.547
   10CHTO  H188 3873   4.754   5.431   4.635
   10CHTO   O68 3874   4.801   5.300   4.470
   10CHTO  H168 3875   4.880   5.346   4.451
   10CHTO   C99 3876   4.573   5.310   4.595
   10CHTO  H186 3877   4.532   5.256   4.508
   10CHTO   N17 3878   4.603   5.203   4.698
   10CHTO  H174 3879   4.705   5.211   4.733
   10CHTO  H175 3880   4.533   5.206   4.780
   10CHTO   C97 3881   4.460   5.406   4.642
   10CHTO  H184 3882   4.483   5.444   4.743
   10CHTO   O64 3883   4.440   5.512   4.548
   10CHTO  C104 3884   4.552   5.597   4.525
   10CHTO  H191 3885   4.593   5.639   4.618
   10CHTO  C108 3886   4.502   5.717   4.443
   10CHTO   O71 3887   4.592   5.827   4.447
   10CHTO  H171 3888   4.558   5.897   4.394
   10CHTO   O62 3889   4.331   5.341   4.639
   10CHTO   C91 3890   4.250   5.336   4.758
   10CHTO  H178 3891   4.316   5.343   0.063
   10CHTO   C92 3892   4.186   5.193   4.764
   10CHTO  H179 3893   4.139   5.172   4.667
   10CHTO   O66 3894   4.293   5.097   4.777
   10CHTO  H166 3895   4.260   5.010   4.771
   10CHTO   C93 3896   4.081   5.175   0.100
   10CHTO  H180 3897   4.138   5.175   0.195
   10CHTO   N16 3898   4.009   5.045   0.097
   10CHTO  H172 3899   3.903   5.058   0.082
   10CHTO  H173 3900   4.050   4.980   0.020
   10CHTO   C94 3901   3.981   5.296   0.101
   10CHTO  H181 3902   3.920   5.299   0.010
   10CHTO   O61 3903   4.055   5.419   0.105
   10CHTO   C95 3904   4.135   5.444   4.770
   10CHTO  H182 3905   4.071   5.441   4.682
   10CHTO  C106 3906   4.187   5.591   0.004
   10CHTO   O69 3907   4.223   5.648   4.660
   10CHTO  H169 3908   4.256   5.735   4.673
   10CHTO   O63 3909   3.878   5.289   0.234
   10CHTO   C96 3910   3.945   5.335   0.369
   10CHTO  H183 3911   4.049   5.361   0.348
   10CHTO   C98 3912   3.945   5.230   0.482
   10CHTO  H185 3913   3.841   5.201   0.506
   10CHTO   O67 3914   4.008   5.110   0.434
   10CHTO  H167 3915   4.098   5.127   0.413
   10CHTO  C102 3916   4.020   5.285   0.614
   10CHTO  H189 3917   4.127   5.287   0.588
   10CHTO   N18 3918   4.011   5.196   0.733
   10CHTO  H176 3919   3.956   5.106   0.710
   10CHTO  H177 3920   3.962   5.247   0.816
   10CHTO  C105 3921   3.977   5.432   0.645
   10CHTO  H192 3922   3.885   5.431   0.703
   10CHTO   O65 3923   3.957   5.517   0.530
   10CHTO  C100 3924   3.873   5.463   0.427
   10CHTO  H187 3925   3.776   5.435   0.470
   10CHTO  C107 3926   3.850   5.576   0.324
   10CHTO   O70 3927   3.747   5.542   0.230
   10CHTO  H170 3928   3.734   5.613   0.170
   10CHTO   O57 3929   4.098   5.491   0.729
   10CHTO   C85 3930   4.075   5.603   0.816
   10CHTO  H157 3931   3.969   5.598   0.849
   10CHTO   C83 3932   4.090   5.737   0.736
   10CHTO  H155 3933   4.015   5.738   0.656
   10CHTO   O56 3934   4.219   5.742   0.672
   10CHTO  H135 3935   4.226   5.674   0.607
   10CHTO   C81 3936   4.062   5.856   0.832
   10CHTO  H153 3937   3.961   5.843   0.873
   10CHTO   N14 3938   4.057   5.987   0.763
   10CHTO  H141 3939   4.027   6.064   0.832
   10CHTO  H142 3940   3.986   5.983   0.683
   10CHTO   C79 3941   4.164   5.853   0.953
   10CHTO  H151 3942   4.129   5.928   1.025
   10CHTO   O52 3943   4.159   5.725   1.024
   10CHTO   C86 3944   4.174   5.607   0.938
   10CHTO  H158 3945   4.279   5.612   0.902
   10CHTO   C90 3946   4.164   5.478   1.021
   10CHTO   O60 3947   4.273   5.465   1.113
   10CHTO  H138 3948   4.353   5.451   1.066
   10CHTO   O50 3949   4.300   5.887   0.920
   10CHTO   C73 3950   4.438   5.865   0.889
   10CHTO  H145 3951   4.448   5.816   0.791
   10CHTO   C74 3952   4.505   5.775   0.998
   10CHTO  H146 3953   4.450   5.680   1.001
   10CHTO   O54 3954   4.638   5.742   0.954
   10CHTO  H133 3955   4.679   5.684   1.016
   10CHTO   C75 3956   4.500   5.850   1.136
   10CHTO  H147 3957   4.394   5.868   1.162
   10CHTO   N13 3958   4.554   5.771   1.249
   10CHTO  H139 3959   4.659   5.748   1.232
   10CHTO  H140 3960   4.546   5.827   1.341
   10CHTO   C76 3961   4.571   5.993   1.120
   10CHTO  H148 3962   4.676   5.975   1.097
   10CHTO   O49 3963   4.510   6.069   1.011
   10CHTO   C77 3964   4.512   6.003   0.884
   10CHTO  H149 3965   4.615   5.986   0.853
   10CHTO   C88 3966   4.452   6.095   0.777
   10CHTO   O58 3967   4.532   6.219   0.762
   10CHTO  H136 3968   4.494   6.273   0.696
   10CHTO   O51 3969   4.551   6.082   1.249
   10CHTO   C78 3970   4.672   6.176   1.275
   10CHTO  H150 3971   4.730   6.194   1.182
   10CHTO   C80 3972   4.765   6.112   1.380
   10CHTO  H152 3973   4.703   6.080   1.468
   10CHTO   O55 3974   4.821   5.994   1.320
   10CHTO  H134 3975   4.872   5.946   1.383
   10CHTO   C84 3976   4.879   6.210   1.429
   10CHTO  H156 3977   4.947   6.225   1.345
   10CHTO   N15 3978   4.961   6.153   1.541
   10CHTO  H143 3979   4.899   6.130   1.625
   10CHTO  H144 3980   5.010   6.064   1.509
   10CHTO   C87 3981   4.820   6.348   1.466
   10CHTO  H159 3982   4.761   6.341   1.557
   10CHTO   O53 3983   4.733   6.397   1.351
   10CHTO   C82 3984   4.620   6.313   1.324
   10CHTO  H154 3985   4.557   6.304   1.412
   10CHTO   C89 3986   4.537   6.387   1.216
   10CHTO   O59 3987   4.408   6.328   1.195
   10CHTO  H137 3988   4.354   6.341   1.271
   10CHTO   O45 3989   4.937   6.455   1.488
   10CHTO   C67 3990   4.892   6.587   1.522
   10CHTO  H124 3991   4.791   6.585   1.563
   10CHTO   C65 3992   4.989   6.650   1.626
   10CHTO  H122 3993   4.998   6.575   1.706
   10CHTO   O44 3994   4.933   6.770   1.682
   10CHTO  H102 3995   4.854   6.751   1.729
   10CHTO   C63 3996   5.131   6.663   1.562
   10CHTO  H120 3997   5.163   6.565   1.527
   10CHTO   N11 3998   5.241   6.697   1.657
   10CHTO  H108 3999   5.228   6.797   1.694
   10CHTO  H109 4000   5.242   6.629   1.739
   10CHTO   C61 4001   5.124   6.755   1.434
   10CHTO  H118 4002   5.218   6.737   1.380
   10CHTO   O40 4003   5.017   6.719   1.342
   10CHTO   C68 4004   4.885   6.675   1.390
   10CHTO  H125 4005   4.846   6.609   1.310
   10CHTO   C72 4006   4.786   6.793   1.403
   10CHTO   O48 4007   4.747   6.845   1.276
   10CHTO  H105 4008   4.688   6.917   1.289
   10CHTO   O38 4009   5.109   6.896   1.461
   10CHTO   C55 4010   5.189   6.984   1.380
   10CHTO  H112 4011   5.218   6.934   1.286
   10CHTO   C56 4012   5.316   7.032   1.463
   10CHTO  H113 4013   5.279   7.065   1.562
   10CHTO   O42 4014   5.403   6.920   1.487
   10CHTO  H100 4015   5.361   6.857   1.542
   10CHTO   C57 4016   5.395   7.148   1.392
   10CHTO  H114 4017   5.447   7.104   1.306
   10CHTO   N10 4018   5.499   7.210   1.479
   10CHTO  H106 4019   5.516   7.313   1.451
   10CHTO  H107 4020   5.468   7.207   1.582
   10CHTO   C58 4021   5.296   7.255   1.339
   10CHTO  H115 4022   5.252   7.310   1.425
   10CHTO   O37 4023   5.192   7.196   1.260
   10CHTO   C59 4024   5.106   7.108   1.335
   10CHTO  H116 4025   5.064   7.160   1.421
   10CHTO   C70 4026   4.992   7.067   1.241
   10CHTO   O46 4027   4.910   7.178   1.200
   10CHTO  H103 4028   4.960   7.235   1.144
   10CHTO   O39 4029   5.368   7.356   1.240
   10CHTO   C60 4030   5.318   7.490   1.254
   10CHTO  H117 4031   5.216   7.488   1.294
   10CHTO   C62 4032   5.406   7.572   1.352
   10CHTO  H119 4033   5.398   7.521   1.451
   10CHTO   O43 4034   5.543   7.568   1.309
   10CHTO  H101 4035   5.597   7.612   1.371
   10CHTO   C66 4036   5.346   7.721   1.363
   10CHTO  H123 4037   5.241   7.714   1.392
   10CHTO   N12 4038   5.413   7.799   1.470
   10CHTO  H110 4039   5.368   7.897   1.477
   10CHTO  H111 4040   5.519   7.806   1.450
   10CHTO   C69 4041   5.353   7.788   1.224
   10CHTO  H126 4042   5.459   7.791   1.188
   10CHTO   O41 4043   5.266   7.704   1.124
   10CHTO   C64 4044   5.309   7.557   1.114
   10CHTO  H121 4045   5.408   7.551   1.064
   10CHTO   C71 4046   5.207   7.481   1.024
   10CHTO   O47 4047   5.073   7.491   1.072
   10CHTO  H104 4048   5.065   7.445   1.153
   10CHTO   O34 4049   5.301   7.927   1.227
   10CHTO   C49 4050   5.319   8.048   1.147
   10CHTO   H91 4051   5.404   8.030   1.081
   10CHTO   C47 4052   5.350   8.164   1.243
   10CHTO   H89 4053   5.369   8.254   1.180
   10CHTO   O33 4054   5.471   8.133   1.316
   10CHTO   H70 4055   5.545   8.135   1.259
   10CHTO   C45 4056   5.222   8.188   1.338
   10CHTO   H87 4057   5.197   8.093   1.387
   10CHTO    N8 4058   5.246   8.290   1.443
   10CHTO   H75 4059   5.160   8.297   1.507
   10CHTO   H76 4060   5.333   8.262   1.502
   10CHTO   C43 4061   5.094   8.222   1.245
   10CHTO   H85 4062   5.008   8.224   1.312
   10CHTO   O29 4063   5.078   8.123   1.141
   10CHTO   C50 4064   5.192   8.078   1.064
   10CHTO   H92 4065   5.162   7.985   1.015
   10CHTO   C54 4066   5.219   8.173   0.944
   10CHTO   O36 4067   5.326   8.128   0.860
   10CHTO   H72 4068   5.301   8.050   0.816
   10CHTO   O27 4069   5.103   8.353   1.187
   10CHTO   C37 4070   5.075   8.455   1.091
   10CHTO   H79 4071   5.133   8.439   0.999
   10CHTO   C38 4072   4.925   8.456   1.049
   10CHTO   H80 4073   4.863   8.468   1.140
   10CHTO   O31 4074   4.895   8.328   0.990
   10CHTO   H68 4075   4.804   8.321   0.972
   10CHTO   C39 4076   4.895   8.574   0.948
   10CHTO   H81 4077   4.947   8.549   0.856
   10CHTO    N7 4078   4.749   8.588   0.912
   10CHTO   H73 4079   4.710   8.684   0.944
   10CHTO   H74 4080   4.691   8.508   0.955
   10CHTO   C40 4081   4.956   8.710   1.001
   10CHTO   H82 4082   4.893   8.753   1.079
   10CHTO   O26 4083   5.092   8.693   1.045
   10CHTO   C41 4084   5.111   8.594   1.149
   10CHTO   H83 4085   5.047   8.616   1.235
   10CHTO   C52 4086   5.259   8.600   1.196
   10CHTO   O35 4087   5.294   8.731   1.255
   10CHTO   H71 4088   5.246   8.744   1.335
   10CHTO   O28 4089   4.974   8.803   0.892
   10CHTO   C42 4090   4.940   8.944   0.902
   10CHTO   H84 4091   4.879   8.955   0.992
   10CHTO   C44 4092   4.851   8.995   0.783
   10CHTO   H86 4093   4.903   8.974   0.689
   10CHTO   O32 4094   4.729   8.918   0.785
   10CHTO   H69 4095   4.747   8.829   0.761
   10CHTO   C48 4096   4.823   9.150   0.790
   10CHTO   H90 4097   4.761   9.170   0.878
   10CHTO    N9 4098   4.744   9.200   0.672
   10CHTO   H77 4099   4.797   9.180   0.581
   10CHTO   H78 4100   4.647   9.154   0.671
   10CHTO   C51 4101   4.960   9.225   0.807
   10CHTO   H93 4102   5.021   9.206   0.719
   10CHTO   O30 4103   5.022   9.178   0.927
   10CHTO   C46 4104   5.065   9.037   0.920
   10CHTO   H88 4105   5.131   9.025   0.834
   10CHTO   C53 4106   5.141   9.009   1.051
   10CHTO   O72 4107   5.259   9.089   1.061
   10CHTO  H199 4108   5.304   9.070   1.140
   10CHTO   O22 4109   4.945   9.367   0.829
   10CHTO   C31 4110   5.051   9.462   0.789
   10CHTO   H59 4111   5.024   9.559   0.836
   10CHTO   C29 4112   5.194   9.427   0.836
   10CHTO   H57 4113   5.222   9.330   0.791
   10CHTO   O21 4114   5.191   9.408   0.978
   10CHTO   H37 4115   5.274   9.375   1.008
   10CHTO   C27 4116   5.298   9.537   0.790
   10CHTO   H55 4117   5.270   9.633   0.836
   10CHTO    N5 4118   5.438   9.505   0.829
   10CHTO   H43 4119   5.445   9.496   0.937
   10CHTO   H44 4120   5.470   9.413   0.783
   10CHTO   C25 4121   5.284   9.554   0.634
   10CHTO   H53 4122   5.309   9.459   0.585
   10CHTO   O17 4123   5.147   9.588   0.599
   10CHTO   C32 4124   5.050   9.488   0.634
   10CHTO   H60 4125   5.075   9.395   0.583
   10CHTO   C36 4126   4.911   9.534   0.584
   10CHTO   O25 4127   4.869   9.655   0.649
   10CHTO   H40 4128   4.784   9.679   0.616
   10CHTO   O15 4129   5.372   9.661   0.580
   10CHTO   C19 4130   5.404   9.798   0.545
   10CHTO   H47 4131   5.367   9.810   0.442
   10CHTO   C20 4132   5.337   9.906   0.635
   10CHTO   H48 4133   5.362   9.892   0.742
   10CHTO   O19 4134   5.194   9.888   0.621
   10CHTO   H35 4135   5.148   9.945   0.680
   10CHTO   C21 4136   5.380   0.052   0.593
   10CHTO   H49 4137   5.341   0.073   0.493
   10CHTO    N4 4138   5.325   0.158   0.683
   10CHTO   H41 4139   5.217   0.156   0.681
   10CHTO   H42 4140   5.359   0.142   0.784
   10CHTO   C22 4141   5.534   0.059   0.581
   10CHTO   H50 4142   5.578   0.048   0.681
   10CHTO   O14 4143   5.584   9.956   0.494
   10CHTO   C23 4144   5.558   9.822   0.539
   10CHTO   H51 4145   5.606   9.810   0.637
   10CHTO   C34 4146   5.628   9.724   0.443
   10CHTO   O23 4147   5.582   9.735   0.308
   10CHTO   H38 4148   5.493   9.705   0.302
   10CHTO   O16 4149   5.579   0.181   0.519
   10CHTO   C24 4150   5.729   0.217   0.556
   10CHTO   H52 4151   5.779   0.134   0.606
   10CHTO   C26 4152   5.728   0.339   0.649
   10CHTO   H54 4153   5.671   0.421   0.599
   10CHTO   O20 4154   5.658   0.305   0.770
   10CHTO   H36 4155   5.567   0.292   0.753
   10CHTO   C30 4156   5.872   0.391   0.679
   10CHTO   H58 4157   5.923   0.319   0.745
   10CHTO    N6 4158   5.872   0.521   0.751
   10CHTO   H45 4159   5.771   0.557   0.768
   10CHTO   H46 4160   5.922   0.512   0.846
   10CHTO   C33 4161   5.957   0.398   0.549
   10CHTO   H61 4162   5.922   0.482   0.487
   10CHTO   O18 4163   5.944   0.277   0.472
   10CHTO   C28 4164   5.811   0.248   0.428
   10CHTO   H56 4165   5.766   0.335   0.378
   10CHTO   C35 4166   5.819   0.129   0.330
   10CHTO   O24 4167   5.696   0.105   0.260
   10CHTO   H39 4168   5.631   0.074   0.320
   10CHTO    O9 4169   6.095   0.427   0.578
   10CHTO   C13 4170   6.189   0.437   0.447
   10CHTO   H26 4171   6.124   0.461   0.360
   10CHTO   C11 4172   6.264   0.299   0.428
   10CHTO   H24 4173   6.190   0.223   0.398
   10CHTO    O8 4174   6.323   0.257   0.553
   10CHTO    H3 4175   6.360   0.171   0.544
   10CHTO    C9 4176   6.368   0.316   0.313
   10CHTO   H22 4177   6.310   0.352   0.227
   10CHTO    N2 4178   6.424   0.186   0.267
   10CHTO   H10 4179   6.532   0.190   0.266
   10CHTO   H11 4180   6.387   0.161   0.169
   10CHTO    C7 4181   6.473   0.429   0.352
   10CHTO   H20 4182   6.479   0.491   0.260
   10CHTO    O4 4183   6.430   0.511   0.462
   10CHTO   C14 4184   6.294   0.557   0.456
   10CHTO   H27 4185   6.284   0.618   0.364
   10CHTO   C18 4186   6.269   0.654   0.576
   10CHTO   O13 4187   6.297   0.592   0.702
   10CHTO    H7 4188   6.282   0.654   0.771
   10CHTO    O2 4189   6.626   0.372   0.387
   10CHTO    C1 4190   6.722   0.476   0.414
   10CHTO   H14 4191   6.671   0.564   0.457
   10CHTO    C2 4192   6.804   0.522   0.287
   10CHTO   H15 4193   6.853   0.432   0.247
   10CHTO    O6 4194   6.712   0.575   0.190
   10CHTO    H1 4195   6.757   0.593   0.109
   10CHTO    C3 4196   6.914   0.631   0.330
   10CHTO   H16 4197   6.862   0.724   0.359
   10CHTO    N1 4198   7.004   0.666   0.214
   10CHTO    H8 4199   7.076   0.740   0.245
   10CHTO    H9 4200   6.945   0.705   0.132
   10CHTO    C4 4201   6.995   0.585   0.457
   10CHTO   H17 4202   7.068   0.509   0.428
   10CHTO    O1 4203   6.909   0.535   0.560
   10CHTO    C5 4204   6.822   0.427   0.522
   10CHTO   H18 4205   6.881   0.345   0.480
   10CHTO   C16 4206   6.749   0.375   0.649
   10CHTO   O11 4207   6.841   0.319   0.743
   10CHTO    H5 4208   6.794   0.288   0.818
   10CHTO    O3 4209   7.059   0.696   0.524
   10CHTO    C6 4210   7.204   0.714   0.511
   10CHTO   H19 4211   7.246   0.656   0.428
   10CHTO    C8 4212   7.236   0.865   0.489
   10CHTO   H21 4213   7.195   0.921   0.574
   10CHTO    O7 4214   7.171   0.907   0.368
   10CHTO    H2 4215   7.183   0.999   0.356
   10CHTO   C12 4216   7.393   0.887   0.484
   10CHTO   H25 4217   7.428   0.837   0.392
   10CHTO    N3 4218   7.428   1.033   0.470
   10CHTO   H12 4219   7.389   1.089   0.554
   10CHTO   H13 4220   7.389   1.072   0.377
   10CHTO   C15 4221   7.462   0.819   0.608
   10CHTO   H28 4222   7.443   0.874   0.701
   10CHTO   O10 4223   7.614   0.803   0.590
   10CHTO    H4 4224   7.654   0.888   0.586
   10CHTO    O5 4225   7.420   0.682   0.623
   10CHTO   C10 4226   7.278   0.668   0.640
   10CHTO   H23 4227   7.246   0.730   0.723
   10CHTO   C17 4228   7.247   0.523   0.680
   10CHTO   O12 4229   7.298   0.493   0.811
   10CHTO    H6 4230   7.246   0.538   0.875
   11CHTO  H203 4231   6.889   4.454   4.304
   11CHTO   O82 4232   6.811   4.429   4.258
   11CHTO  C123 4233   6.695   4.489   4.319
   11CHTO  H227 4234   6.606   4.462   4.260
   11CHTO   O77 4235   6.688   4.425   4.451
   11CHTO  C118 4236   6.571   4.458   4.526
   11CHTO  H222 4237   6.481   4.434   4.466
   11CHTO  C125 4238   6.569   4.370   4.657
   11CHTO   O84 4239   6.683   4.394   4.741
   11CHTO  H205 4240   6.679   4.481   4.776
   11CHTO  C114 4241   6.570   4.609   4.558
   11CHTO  H218 4242   6.655   4.631   4.624
   11CHTO  C116 4243   6.588   4.697   4.430
   11CHTO  H220 4244   6.494   4.695   4.373
   11CHTO   O79 4245   6.607   4.834   4.470
   11CHTO  H201 4246   6.687   4.844   4.518
   11CHTO  C120 4247   6.707   4.645   4.338
   11CHTO  H224 4248   6.801   4.669   4.391
   11CHTO   N21 4249   6.711   4.717   4.208
   11CHTO  H211 4250   6.648   4.668   4.135
   11CHTO  H212 4251   6.682   4.820   4.220
   11CHTO   O75 4252   6.445   4.632   4.626
   11CHTO  C112 4253   6.456   4.728   4.758
   11CHTO  H216 4254   6.547   4.791   4.749
   11CHTO   O73 4255   6.462   4.642   0.091
   11CHTO  C113 4256   6.478   4.712   0.216
   11CHTO  H217 4257   6.571   4.772   0.211
   11CHTO  C124 4258   6.494   4.609   0.328
   11CHTO   O83 4259   6.608   4.524   0.311
   11CHTO  H204 4260   6.687   4.574   0.321
   11CHTO  C109 4261   6.355   4.804   0.243
   11CHTO  H213 4262   6.268   4.738   0.258
   11CHTO  C110 4263   6.331   4.899   0.122
   11CHTO  H214 4264   6.409   4.975   0.121
   11CHTO   O78 4265   6.206   4.968   0.144
   11CHTO  H200 4266   6.192   5.033   0.078
   11CHTO  C111 4267   6.329   4.821   4.768
   11CHTO  H215 4268   6.240   4.756   4.766
   11CHTO   N19 4269   6.320   4.910   4.650
   11CHTO  H207 4270   6.228   4.967   4.653
   11CHTO  H208 4271   6.404   4.978   4.647
   11CHTO   O74 4272   6.377   4.882   0.366
   11CHTO  C115 4273   6.247   4.885   0.464
   11CHTO  H219 4274   6.154   4.870   0.409
   11CHTO   O76 4275   6.253   4.769   0.571
   11CHTO  C122 4276   6.148   4.767   0.669
   11CHTO  H226 4277   6.175   4.692   0.744
   11CHTO  C126 4278   6.013   4.717   0.605
   11CHTO   O85 4279   6.023   4.585   0.550
   11CHTO  H206 4280   5.940   4.560   0.513
   11CHTO  C121 4281   6.130   4.907   0.740
   11CHTO  H225 4282   6.037   4.902   0.802
   11CHTO   O81 4283   6.239   4.927   0.831
   11CHTO  H202 4284   6.224   5.003   0.883
   11CHTO  C119 4285   6.115   5.023   0.637
   11CHTO  H223 4286   6.028   4.995   0.577
   11CHTO  C117 4287   6.237   5.025   0.537
   11CHTO  H221 4288   6.335   5.042   0.581
   11CHTO   N20 4289   6.220   5.137   0.437
   11CHTO  H209 4290   6.218   5.099   0.336
   11CHTO  H210 4291   6.298   5.210   0.448
   11CHTO   O80 4292   6.065   5.168   0.702
   11CHTO  C103 4293   6.129   5.225   0.836
   11CHTO  H190 4294   6.134   5.149   0.913
   11CHTO  C101 4295   6.271   5.294   0.822
   11CHTO  H188 4296   6.268   5.361   0.736
   11CHTO   O68 4297   6.377   5.186   0.796
   11CHTO  H168 4298   6.460   5.226   0.778
   11CHTO   C99 4299   6.305   5.382   0.952
   11CHTO  H186 4300   6.314   5.315   1.040
   11CHTO   N17 4301   6.436   5.456   0.940
   11CHTO  H174 4302   6.423   5.562   0.958
   11CHTO  H175 4303   6.509   5.415   1.008
   11CHTO   C97 4304   6.187   5.478   0.984
   11CHTO  H184 4305   6.177   5.550   0.902
   11CHTO   O64 4306   6.066   5.401   1.002
   11CHTO  C104 4307   6.023   5.333   0.883
   11CHTO  H191 4308   6.006   5.404   0.803
   11CHTO  C108 4309   5.886   5.268   0.911
   11CHTO   O71 4310   5.890   5.175   1.019
   11CHTO  H171 4311   5.805   5.139   1.032
   11CHTO   O62 4312   6.203   5.545   1.111
   11CHTO   C91 4313   6.158   5.682   1.123
   11CHTO  H178 4314   6.077   5.698   1.051
   11CHTO   C92 4315   6.276   5.778   1.081
   11CHTO  H179 4316   6.370   5.736   1.120
   11CHTO   O66 4317   6.289   5.773   0.938
   11CHTO  H166 4318   6.317   5.688   0.910
   11CHTO   C93 4319   6.259   5.927   1.130
   11CHTO  H180 4320   6.178   5.972   1.071
   11CHTO   N16 4321   6.379   6.012   1.106
   11CHTO  H172 4322   6.354   6.095   1.041
   11CHTO  H173 4323   6.460   5.954   1.063
   11CHTO   C94 4324   6.218   5.928   1.281
   11CHTO  H181 4325   6.292   5.876   1.344
   11CHTO   O61 4326   6.094   5.858   1.294
   11CHTO   C95 4327   6.102   5.717   1.268
   11CHTO  H182 4328   6.165   5.671   1.343
   11CHTO  C106 4329   5.957   5.659   1.289
   11CHTO   O69 4330   5.954   5.518   1.270
   11CHTO  H169 4331   5.866   5.487   1.282
   11CHTO   O63 4332   6.194   6.079   1.336
   11CHTO   C96 4333   6.206   6.095   1.490
   11CHTO  H183 4334   6.225   5.998   1.534
   11CHTO   C98 4335   6.077   6.154   1.556
   11CHTO  H185 4336   6.041   6.240   1.497
   11CHTO   O67 4337   5.974   6.054   1.546
   11CHTO  H167 4338   5.949   6.041   1.457
   11CHTO  C102 4339   6.101   6.199   1.709
   11CHTO  H189 4340   6.123   6.107   1.764
   11CHTO   N18 4341   5.983   6.259   1.776
   11CHTO  H176 4342   5.951   6.347   1.723
   11CHTO  H177 4343   5.902   6.188   1.780
   11CHTO  C105 4344   6.226   6.290   1.713
   11CHTO  H192 4345   6.207   6.378   1.651
   11CHTO   O65 4346   6.340   6.221   1.660
   11CHTO  C100 4347   6.330   6.187   1.521
   11CHTO  H187 4348   6.320   6.280   1.464
   11CHTO  C107 4349   6.463   6.121   1.477
   11CHTO   O70 4350   6.492   6.001   1.550
   11CHTO  H170 4351   6.511   6.021   1.639
   11CHTO   O57 4352   6.255   6.337   1.873
   11CHTO   C85 4353   6.361   6.425   1.914
   11CHTO  H157 4354   6.344   6.437   2.023
   11CHTO   C83 4355   6.346   6.570   1.856
   11CHTO  H155 4356   6.248   6.607   1.884
   11CHTO   O56 4357   6.349   6.568   1.712
   11CHTO  H135 4358   6.432   6.538   1.681
   11CHTO   C81 4359   6.455   6.660   1.920
   11CHTO  H153 4360   6.443   6.656   2.028
   11CHTO   N14 4361   6.436   6.804   1.888
   11CHTO  H141 4362   6.452   6.821   1.783
   11CHTO  H142 4363   6.507   6.863   1.943
   11CHTO   C79 4364   6.599   6.605   1.884
   11CHTO  H151 4365   6.671   6.664   1.941
   11CHTO   O52 4366   6.614   6.466   1.928
   11CHTO   C86 4367   6.508   6.376   1.883
   11CHTO  H158 4368   6.525   6.365   1.774
   11CHTO   C90 4369   6.530   6.235   1.944
   11CHTO   O60 4370   6.643   6.170   1.883
   11CHTO  H138 4371   6.655   6.086   1.923
   11CHTO   O50 4372   6.633   6.615   1.744
   11CHTO   C73 4373   6.720   6.669   1.643
   11CHTO  H145 4374   6.734   6.777   1.658
   11CHTO   C74 4375   6.656   6.646   1.502
   11CHTO  H146 4376   6.558   6.695   1.504
   11CHTO   O54 4377   6.735   6.718   1.405
   11CHTO  H133 4378   6.821   6.682   1.399
   11CHTO   C75 4379   6.645   6.491   1.474
   11CHTO  H147 4380   6.577   6.448   1.549
   11CHTO   N13 4381   6.585   6.460   1.343
   11CHTO  H139 4382   6.486   6.501   1.336
   11CHTO  H140 4383   6.578   6.353   1.330
   11CHTO   C76 4384   6.788   6.421   1.494
   11CHTO  H148 4385   6.854   6.454   1.414
   11CHTO   O49 4386   6.847   6.457   1.624
   11CHTO   C77 4387   6.859   6.599   1.645
   11CHTO  H149 4388   6.922   6.641   1.566
   11CHTO   C88 4389   6.935   6.626   1.776
   11CHTO   O58 4390   7.074   6.579   1.767
   11CHTO  H136 4391   7.119   6.596   1.847
   11CHTO   O51 4392   6.772   6.260   1.501
   11CHTO   C78 4393   6.874   6.179   1.406
   11CHTO  H150 4394   6.939   6.248   1.347
   11CHTO   C80 4395   6.795   6.090   1.307
   11CHTO  H152 4396   6.723   6.028   1.366
   11CHTO   O55 4397   6.720   6.178   1.221
   11CHTO  H134 4398   6.662   6.128   1.167
   11CHTO   C84 4399   6.889   5.994   1.223
   11CHTO  H156 4400   6.947   6.057   1.156
   11CHTO   N15 4401   6.811   5.898   1.137
   11CHTO  H143 4402   6.749   5.953   1.069
   11CHTO  H144 4403   6.878   5.837   1.082
   11CHTO   C87 4404   6.985   5.919   1.320
   11CHTO  H159 4405   6.927   5.851   1.381
   11CHTO   O53 4406   7.056   6.020   1.408
   11CHTO   C82 4407   6.966   6.091   1.493
   11CHTO  H154 4408   6.907   6.022   1.553
   11CHTO   C89 4409   7.048   6.177   1.591
   11CHTO   O59 4410   7.127   6.094   1.678
   11CHTO  H137 4411   7.176   6.148   1.736
   11CHTO   O45 4412   7.104   5.828   1.246
   11CHTO   C67 4413   7.162   5.866   1.120
   11CHTO  H124 4414   7.086   5.857   1.042
   11CHTO   C65 4415   7.220   6.013   1.116
   11CHTO  H122 4416   7.201   6.058   1.214
   11CHTO   O44 4417   7.148   6.086   1.015
   11CHTO  H102 4418   7.057   6.093   1.039
   11CHTO   C63 4419   7.377   6.016   1.100
   11CHTO  H120 4420   7.421   5.964   1.185
   11CHTO   N11 4421   7.442   6.150   1.109
   11CHTO  H108 4422   7.412   6.200   1.199
   11CHTO  H109 4423   7.548   6.140   1.108
   11CHTO   C61 4424   7.413   5.934   0.970
   11CHTO  H118 4425   7.522   5.918   0.972
   11CHTO   O40 4426   7.352   5.801   0.967
   11CHTO   C68 4427   7.274   5.760   1.083
   11CHTO  H125 4428   7.343   5.749   1.169
   11CHTO   C72 4429   7.214   5.620   1.056
   11CHTO   O48 4430   7.130   5.613   0.940
   11CHTO  H105 4431   7.052   5.663   0.954
   11CHTO   O38 4432   7.372   6.001   0.850
   11CHTO   C55 4433   7.433   5.954   0.728
   11CHTO  H112 4434   7.475   5.853   0.742
   11CHTO   C56 4435   7.543   6.058   0.680
   11CHTO  H113 4436   7.496   6.158   0.683
   11CHTO   O42 4437   7.650   6.063   0.776
   11CHTO  H100 4438   7.693   5.979   0.782
   11CHTO   C57 4439   7.595   6.025   0.535
   11CHTO  H114 4440   7.655   5.935   0.543
   11CHTO   N10 4441   7.682   6.132   0.477
   11CHTO  H106 4442   7.652   6.229   0.515
   11CHTO  H107 4443   7.785   6.114   0.504
   11CHTO   C58 4444   7.475   5.997   0.441
   11CHTO  H115 4445   7.416   6.091   0.428
   11CHTO   O37 4446   7.390   5.895   0.497
   11CHTO   C59 4447   7.324   5.937   0.617
   11CHTO  H116 4448   7.271   6.031   0.600
   11CHTO   C70 4449   7.222   5.829   0.652
   11CHTO   O46 4450   7.132   5.869   0.756
   11CHTO  H103 4451   7.178   5.875   0.838
   11CHTO   O39 4452   7.523   5.941   0.296
   11CHTO   C60 4453   7.419   5.949   0.197
   11CHTO  H117 4454   7.323   5.926   0.243
   11CHTO   C62 4455   7.410   6.092   0.136
   11CHTO  H119 4456   7.389   6.161   0.221
   11CHTO   O43 4457   7.536   6.130   0.078
   11CHTO  H101 4458   7.601   6.139   0.145
   11CHTO   C66 4459   7.287   6.098   0.033
   11CHTO  H123 4460   7.197   6.066   0.085
   11CHTO   N12 4461   7.259   6.236   4.766
   11CHTO  H110 4462   7.273   6.244   4.659
   11CHTO  H111 4463   7.319   6.309   0.038
   11CHTO   C69 4464   7.311   5.996   4.700
   11CHTO  H126 4465   7.401   6.025   4.642
   11CHTO   O41 4466   7.331   5.852   4.761
   11CHTO   C64 4467   7.442   5.844   0.085
   11CHTO  H121 4468   7.540   5.864   0.037
   11CHTO   C71 4469   7.447   5.700   0.143
   11CHTO   O47 4470   7.322   5.661   0.201
   11CHTO  H104 4471   7.257   5.651   0.134
   11CHTO   O34 4472   7.188   5.992   4.601
   11CHTO   C49 4473   7.188   5.910   4.475
   11CHTO   H91 4474   7.292   5.900   4.443
   11CHTO   C47 4475   7.107   5.984   4.368
   11CHTO   H89 4476   7.123   5.925   4.275
   11CHTO   O33 4477   7.160   6.116   4.346
   11CHTO   H70 4478   7.248   6.111   4.313
   11CHTO   C45 4479   6.949   5.992   4.405
   11CHTO   H87 4480   6.930   6.089   4.455
   11CHTO    N8 4481   6.871   5.988   4.279
   11CHTO   H75 4482   6.883   5.892   4.231
   11CHTO   H76 4483   6.767   6.006   4.300
   11CHTO   C43 4484   6.911   5.881   4.515
   11CHTO   H85 4485   6.943   5.923   4.610
   11CHTO   O29 4486   6.981   5.758   4.486
   11CHTO   C50 4487   7.124   5.767   4.495
   11CHTO   H92 4488   7.155   5.730   4.594
   11CHTO   C54 4489   7.182   5.662   4.397
   11CHTO   O36 4490   7.325   5.650   4.406
   11CHTO   H72 4491   7.366   5.728   4.374
   11CHTO   O27 4492   6.770   5.860   4.531
   11CHTO   C37 4493   6.695   5.780   4.625
   11CHTO   H79 4494   6.746   5.684   4.642
   11CHTO   C38 4495   6.685   5.852   4.763
   11CHTO   H80 4496   6.645   5.954   4.746
   11CHTO   O31 4497   6.818   5.863   0.036
   11CHTO   H68 4498   6.818   5.915   0.114
   11CHTO   C39 4499   6.591   5.774   0.081
   11CHTO   H81 4500   6.641   5.681   0.107
   11CHTO    N7 4501   6.567   5.848   0.210
   11CHTO   H73 4502   6.518   5.942   0.190
   11CHTO   H74 4503   6.506   5.788   0.276
   11CHTO   C40 4504   6.455   5.735   0.012
   11CHTO   H82 4505   6.389   5.822   0.002
   11CHTO   O26 4506   6.478   5.671   4.667
   11CHTO   C41 4507   6.552   5.752   4.571
   11CHTO   H83 4508   6.498   5.847   4.554
   11CHTO   C52 4509   6.551   5.673   4.438
   11CHTO   O35 4510   6.606   5.749   4.323
   11CHTO   H71 4511   6.550   5.822   4.303
   11CHTO   O28 4512   6.388   5.633   0.088
   11CHTO   C42 4513   6.244   5.608   0.080
   11CHTO   H84 4514   6.215   5.639   4.761
   11CHTO   C44 4515   6.156   5.692   0.180
   11CHTO   H86 4516   6.200   5.683   0.279
   11CHTO   O32 4517   6.167   5.830   0.141
   11CHTO   H69 4518   6.122   5.884   0.202
   11CHTO   C48 4519   6.006   5.642   0.187
   11CHTO   H90 4520   5.957   5.668   0.094
   11CHTO    N9 4521   5.928   5.713   0.295
   11CHTO   H77 4522   5.926   5.819   0.276
   11CHTO   H78 4523   5.973   5.694   0.392
   11CHTO   C51 4524   6.003   5.486   0.204
   11CHTO   H93 4525   6.054   5.461   0.297
   11CHTO   O30 4526   6.069   5.430   0.090
   11CHTO   C46 4527   6.215   5.455   0.091
   11CHTO   H88 4528   6.257   5.417   0.183
   11CHTO   C53 4529   6.275   5.380   4.751
   11CHTO   O72 4530   6.258   5.238   4.764
   11CHTO  H199 4531   6.312   5.205   0.052
   11CHTO   O22 4532   5.871   5.427   0.202
   11CHTO   C31 4533   5.856   5.291   0.259
   11CHTO   H59 4534   5.959   5.251   0.272
   11CHTO   C29 4535   5.788   5.287   0.397
   11CHTO   H57 4536   5.685   5.324   0.386
   11CHTO   O21 4537   5.856   5.379   0.485
   11CHTO   H37 4538   5.810   5.387   0.566
   11CHTO   C27 4539   5.785   5.140   0.455
   11CHTO   H55 4540   5.889   5.109   0.475
   11CHTO    N5 4541   5.708   5.129   0.582
   11CHTO   H43 4542   5.716   5.029   0.621
   11CHTO   H44 4543   5.746   5.200   0.654
   11CHTO   C25 4544   5.730   5.039   0.348
   11CHTO   H53 4545   5.621   5.054   0.336
   11CHTO   O17 4546   5.793   5.058   0.218
   11CHTO   C32 4547   5.784   5.191   0.164
   11CHTO   H60 4548   5.679   5.221   0.155
   11CHTO   C36 4549   5.846   5.189   0.023
   11CHTO   O25 4550   5.769   5.108   4.715
   11CHTO   H40 4551   5.777   5.017   4.739
   11CHTO   O15 4552   5.757   4.891   0.393
   11CHTO   C19 4553   5.712   4.755   0.367
   11CHTO   H47 4554   5.782   4.693   0.425
   11CHTO   C20 4555   5.567   4.725   0.417
   11CHTO   H48 4556   5.493   4.789   0.368
   11CHTO   O19 4557   5.565   4.754   0.558
   11CHTO   H35 4558   5.573   4.847   0.573
   11CHTO   C21 4559   5.528   4.574   0.390
   11CHTO   H49 4560   5.593   4.510   0.450
   11CHTO    N4 4561   5.388   4.541   0.431
   11CHTO   H41 4562   5.318   4.604   0.377
   11CHTO   H42 4563   5.376   4.557   0.537
   11CHTO   C22 4564   5.555   4.540   0.241
   11CHTO   H50 4565   5.486   4.597   0.179
   11CHTO   O14 4566   5.691   4.572   0.204
   11CHTO   C23 4567   5.727   4.711   0.219
   11CHTO   H51 4568   5.661   4.769   0.152
   11CHTO   C34 4569   5.870   4.729   0.167
   11CHTO   O23 4570   5.967   4.650   0.237
   11CHTO   H38 4571   5.953   4.559   0.218
   11CHTO   O16 4572   5.542   4.399   0.216
   11CHTO   C24 4573   5.522   4.363   0.062
   11CHTO   H52 4574   5.551   4.445   4.778
   11CHTO   C26 4575   5.375   4.325   0.037
   11CHTO   H54 4576   5.347   4.243   0.108
   11CHTO   O20 4577   5.291   4.439   0.066
   11CHTO   H36 4578   5.292   4.457   0.158
   11CHTO   C30 4579   5.353   4.274   4.672
   11CHTO   H58 4580   5.360   4.359   4.603
   11CHTO    N6 4581   5.216   4.217   4.652
   11CHTO   H45 4582   5.163   4.272   4.576
   11CHTO   H46 4583   5.159   4.219   4.744
   11CHTO   C33 4584   5.463   4.172   4.628
   11CHTO   H61 4585   5.445   4.075   4.678
   11CHTO   O18 4586   5.594   4.217   4.667
   11CHTO   C28 4587   5.612   4.242   0.026
   11CHTO   H56 4588   5.581   4.156   0.085
   11CHTO   C35 4589   5.761   4.271   0.054
   11CHTO   O24 4590   5.844   4.158   0.026
   11CHTO   H39 4591   5.847   4.143   4.714
   11CHTO    O9 4592   5.456   4.144   4.487
   11CHTO   C13 4593   5.522   4.262   4.391
   11CHTO   H26 4594   5.527   4.356   4.449
   11CHTO   C11 4595   5.433   4.279   4.260
   11CHTO   H24 4596   5.330   4.302   4.291
   11CHTO    O8 4597   5.430   4.153   4.190
   11CHTO    H3 4598   5.385   4.088   4.241
   11CHTO    C9 4599   5.490   4.400   4.180
   11CHTO   H22 4600   5.462   4.489   4.238
   11CHTO    N2 4601   5.419   4.421   4.051
   11CHTO   H10 4602   5.443   4.342   3.982
   11CHTO   H11 4603   5.446   4.517   4.009
   11CHTO    C7 4604   5.648   4.396   4.174
   11CHTO   H20 4605   5.677   4.471   4.252
   11CHTO    O4 4606   5.701   4.267   4.212
   11CHTO   C14 4607   5.672   4.228   4.348
   11CHTO   H27 4608   5.742   4.282   4.416
   11CHTO   C18 4609   5.704   4.077   4.363
   11CHTO   O13 4610   5.839   4.045   4.331
   11CHTO    H7 4611   5.854   4.057   4.239
   11CHTO    O2 4612   5.716   4.440   4.030
   11CHTO    C1 4613   5.817   4.541   4.045
   11CHTO   H14 4614   5.861   4.536   4.147
   11CHTO    C2 4615   5.764   4.688   4.021
   11CHTO   H15 4616   5.717   4.688   3.922
   11CHTO    O6 4617   5.666   4.719   4.121
   11CHTO    H1 4618   5.626   4.802   4.103
   11CHTO    C3 4619   5.886   4.793   4.024
   11CHTO   H16 4620   5.924   4.796   4.127
   11CHTO    N1 4621   5.845   4.933   3.989
   11CHTO    H8 4622   5.739   4.938   3.966
   11CHTO    H9 4623   5.868   5.001   4.070
   11CHTO    C4 4624   6.007   4.743   3.936
   11CHTO   H17 4625   5.981   4.754   3.831
   11CHTO    O1 4626   6.040   4.606   3.964
   11CHTO    C5 4627   5.934   4.512   3.946
   11CHTO   H18 4628   5.894   4.521   3.845
   11CHTO   C16 4629   5.992   4.369   3.964
   11CHTO   O11 4630   6.052   4.351   4.093
   11CHTO    H5 4631   6.085   4.264   4.100
   11CHTO    O3 4632   6.127   4.817   3.967
   11CHTO    C6 4633   6.219   4.838   3.854
   11CHTO   H19 4634   6.190   4.781   3.766
   11CHTO    C8 4635   6.222   4.989   3.814
   11CHTO   H21 4636   6.244   5.047   3.904
   11CHTO    O7 4637   6.091   5.023   3.765
   11CHTO    H2 4638   6.028   5.022   3.835
   11CHTO   C12 4639   6.334   5.017   3.706
   11CHTO   H25 4640   6.302   4.964   3.614
   11CHTO    N3 4641   6.343   5.164   3.674
   11CHTO   H12 4642   6.328   5.179   3.568
   11CHTO   H13 4643   6.438   5.204   3.704
   11CHTO   C15 4644   6.470   4.955   3.754
   11CHTO   H28 4645   6.512   5.008   3.840
   11CHTO   O10 4646   6.574   4.948   3.643
   11CHTO    H4 4647   6.600   5.035   3.618
   11CHTO    O5 4648   6.454   4.816   3.786
   11CHTO   C10 4649   6.362   4.791   3.894
   11CHTO   H23 4650   6.396   4.846   3.981
   11CHTO   C17 4651   6.371   4.642   3.929
   11CHTO   O12 4652   6.329   4.556   3.822
   11CHTO    H6 4653   6.390   4.560   3.752
   12CHTO  H203 4654   5.116   1.740   4.623
   12CHTO   O82 4655   5.095   1.659   4.580
   12CHTO  C123 4656   5.191   1.558   4.612
   12CHTO  H227 4657   5.292   1.601   4.604
   12CHTO   O77 4658   5.161   1.527   4.752
   12CHTO  C118 4659   5.247   1.428   0.030
   12CHTO  H222 4660   5.352   1.461   0.021
   12CHTO  C125 4661   5.210   1.417   0.183
   12CHTO   O84 4662   5.074   1.378   0.204
   12CHTO  H205 4663   5.056   1.372   0.296
   12CHTO  C114 4664   5.230   1.294   4.737
   12CHTO  H218 4665   5.126   1.262   4.746
   12CHTO  C116 4666   5.261   1.311   4.586
   12CHTO  H220 4667   5.370   1.332   4.573
   12CHTO   O79 4668   5.236   1.186   4.519
   12CHTO  H201 4669   5.298   1.121   4.547
   12CHTO  C120 4670   5.176   1.429   4.523
   12CHTO  H224 4671   5.070   1.395   4.523
   12CHTO   N21 4672   5.214   1.456   4.381
   12CHTO  H211 4673   5.246   1.365   4.332
   12CHTO  H212 4674   5.129   1.498   4.328
   12CHTO   O75 4675   5.318   1.202   0.023
   12CHTO  C112 4676   5.248   1.057   0.053
   12CHTO  H216 4677   5.182   1.030   4.751
   12CHTO   O73 4678   5.175   1.070   0.177
   12CHTO  C113 4679   5.105   0.952   0.216
   12CHTO  H217 4680   5.035   0.923   0.134
   12CHTO  C124 4681   5.018   0.984   0.339
   12CHTO   O83 4682   5.092   1.029   0.453
   12CHTO  H204 4683   5.131   1.113   0.434
   12CHTO  C109 4684   5.203   0.835   0.243
   12CHTO  H213 4685   5.264   0.864   0.330
   12CHTO  C110 4686   5.294   0.812   0.118
   12CHTO  H214 4687   5.233   0.768   0.039
   12CHTO   O78 4688   5.395   0.714   0.151
   12CHTO  H200 4689   5.450   0.745   0.220
   12CHTO  C111 4690   5.359   0.945   0.069
   12CHTO  H215 4691   5.429   0.980   0.146
   12CHTO   N19 4692   5.436   0.932   4.724
   12CHTO  H207 4693   5.539   0.959   4.740
   12CHTO  H208 4694   5.430   0.831   4.685
   12CHTO   O74 4695   5.128   0.714   0.276
   12CHTO  C115 4696   5.198   0.618   0.385
   12CHTO  H219 4697   5.295   0.657   0.417
   12CHTO   O76 4698   5.114   0.608   0.514
   12CHTO  C122 4699   4.977   0.572   0.487
   12CHTO  H226 4700   4.927   0.660   0.447
   12CHTO  C126 4701   4.906   0.540   0.623
   12CHTO   O85 4702   4.900   0.655   0.709
   12CHTO  H206 4703   4.986   0.678   0.738
   12CHTO  C121 4704   4.963   0.451   0.384
   12CHTO  H225 4705   4.890   0.377   0.425
   12CHTO   O81 4706   4.909   0.499   0.260
   12CHTO  H202 4707   4.822   0.532   0.273
   12CHTO  C119 4708   5.099   0.378   0.361
   12CHTO  H223 4709   5.124   0.334   0.458
   12CHTO  C117 4710   5.215   0.476   0.318
   12CHTO  H221 4711   5.217   0.498   0.211
   12CHTO   N20 4712   5.350   0.415   0.347
   12CHTO  H209 4713   5.411   0.481   0.406
   12CHTO  H210 4714   5.400   0.390   0.254
   12CHTO   O80 4715   5.088   0.249   0.269
   12CHTO  C103 4716   5.071   0.106   0.333
   12CHTO  H190 4717   5.136   0.094   0.420
   12CHTO  C101 4718   4.923   0.067   0.374
   12CHTO  H188 4719   4.855   0.104   0.297
   12CHTO   O68 4720   4.888   0.139   0.507
   12CHTO  H168 4721   4.798   0.125   0.529
   12CHTO   C99 4722   4.903   9.908   0.388
   12CHTO  H186 4723   4.959   9.872   0.478
   12CHTO   N17 4724   4.760   9.868   0.407
   12CHTO  H174 4725   4.719   9.916   0.495
   12CHTO  H175 4726   4.702   9.893   0.319
   12CHTO   C97 4727   4.968   9.835   0.267
   12CHTO  H184 4728   4.911   9.863   0.176
   12CHTO   O64 4729   5.106   9.873   0.258
   12CHTO  C104 4730   5.124   0.010   0.220
   12CHTO  H191 4731   5.072   0.032   0.127
   12CHTO  C108 4732   5.273   0.034   0.193
   12CHTO   O71 4733   5.319   9.956   0.082
   12CHTO  H171 4734   5.408   9.977   0.063
   12CHTO   O62 4735   4.972   9.691   0.281
   12CHTO   C91 4736   4.980   9.616   0.158
   12CHTO  H178 4737   5.008   9.683   0.077
   12CHTO   C92 4738   4.838   9.559   0.122
   12CHTO  H179 4739   4.800   9.501   0.207
   12CHTO   O66 4740   4.748   9.671   0.107
   12CHTO  H166 4741   4.661   9.640   0.093
   12CHTO   C93 4742   4.841   9.470   4.772
   12CHTO  H180 4743   4.863   9.538   4.688
   12CHTO   N16 4744   4.710   9.408   4.738
   12CHTO  H172 4745   4.716   9.300   4.740
   12CHTO  H173 4746   4.632   9.443   0.023
   12CHTO   C94 4747   4.956   9.364   0.000
   12CHTO  H181 4748   4.938   9.290   0.079
   12CHTO   O61 4749   5.081   9.428   0.032
   12CHTO   C95 4750   5.083   9.496   0.158
   12CHTO  H182 4751   5.058   9.425   0.238
   12CHTO  C106 4752   5.231   9.543   0.182
   12CHTO   O69 4753   5.249   9.599   0.312
   12CHTO  H169 4754   5.202   9.680   0.319
   12CHTO   O63 4755   4.976   9.288   4.638
   12CHTO   C96 4756   5.092   9.184   4.638
   12CHTO  H183 4757   5.136   9.180   4.738
   12CHTO   C98 4758   5.205   9.217   4.537
   12CHTO  H185 4759   5.162   9.231   4.437
   12CHTO   O67 4760   5.262   9.344   4.574
   12CHTO  H167 4761   5.200   9.413   4.559
   12CHTO  C102 4762   5.320   9.104   4.534
   12CHTO  H189 4763   5.378   9.118   4.626
   12CHTO   N18 4764   5.418   9.119   4.423
   12CHTO  H176 4765   5.367   9.115   4.328
   12CHTO  H177 4766   5.470   9.213   4.432
   12CHTO  C105 4767   5.260   8.960   4.539
   12CHTO  H192 4768   5.232   8.929   4.439
   12CHTO   O65 4769   5.145   8.946   4.625
   12CHTO  C100 4770   5.039   9.040   4.603
   12CHTO  H187 4771   5.009   9.036   4.497
   12CHTO  C107 4772   4.919   8.994   4.689
   12CHTO   O70 4773   4.799   9.066   4.658
   12CHTO  H170 4774   4.769   9.042   4.572
   12CHTO   O57 4775   5.384   8.870   4.596
   12CHTO   C85 4776   5.369   8.731   4.630
   12CHTO  H157 4777   5.289   8.691   4.564
   12CHTO   C83 4778   5.314   8.718   4.776
   12CHTO  H155 4779   5.212   8.758   4.777
   12CHTO   O56 4780   5.391   8.803   0.082
   12CHTO  H135 4781   5.353   8.803   0.168
   12CHTO   C81 4782   5.311   8.569   0.037
   12CHTO  H153 4783   5.251   8.515   4.744
   12CHTO   N14 4784   5.241   8.544   0.166
   12CHTO  H141 4785   5.214   8.636   0.213
   12CHTO  H142 4786   5.152   8.486   0.150
   12CHTO   C79 4787   5.457   8.511   0.034
   12CHTO  H151 4788   5.450   8.405   0.060
   12CHTO   O52 4789   5.507   8.516   4.678
   12CHTO   C86 4790   5.504   8.648   4.614
   12CHTO  H158 4791   5.590   8.702   4.660
   12CHTO   C90 4792   5.542   8.628   4.465
   12CHTO   O60 4793   5.553   8.752   4.393
   12CHTO  H138 4794   5.469   8.792   4.385
   12CHTO   O50 4795   5.550   8.576   0.122
   12CHTO   C73 4796   5.592   8.545   0.256
   12CHTO  H145 4797   5.524   8.471   0.301
   12CHTO   C74 4798   5.591   8.673   0.346
   12CHTO  H146 4799   5.489   8.715   0.341
   12CHTO   O54 4800   5.612   8.633   0.483
   12CHTO  H133 4801   5.539   8.583   0.514
   12CHTO   C75 4802   5.699   8.775   0.293
   12CHTO  H147 4803   5.669   8.807   0.192
   12CHTO   N13 4804   5.708   8.900   0.373
   12CHTO  H139 4805   5.783   8.966   0.330
   12CHTO  H140 4806   5.613   8.951   0.372
   12CHTO   C76 4807   5.841   8.703   0.279
   12CHTO  H148 4808   5.876   8.678   0.380
   12CHTO   O49 4809   5.829   8.581   0.200
   12CHTO   C77 4810   5.736   8.486   0.254
   12CHTO  H149 4811   5.765   8.459   0.355
   12CHTO   C88 4812   5.746   8.357   0.171
   12CHTO   O58 4813   5.661   8.249   0.228
   12CHTO  H136 4814   5.570   8.271   0.216
   12CHTO   O51 4815   5.945   8.798   0.199
   12CHTO   C78 4816   6.089   8.733   0.181
   12CHTO  H150 4817   6.084   8.622   0.182
   12CHTO   C80 4818   6.185   8.779   0.293
   12CHTO  H152 4819   6.187   8.890   0.295
   12CHTO   O55 4820   6.130   8.734   0.419
   12CHTO  H134 4821   6.129   8.640   0.423
   12CHTO   C84 4822   6.332   8.725   0.271
   12CHTO  H156 4823   6.328   8.616   0.279
   12CHTO   N15 4824   6.431   8.773   0.373
   12CHTO  H143 4825   6.474   8.689   0.425
   12CHTO  H144 4826   6.384   8.837   0.445
   12CHTO   C87 4827   6.380   8.758   0.127
   12CHTO  H159 4828   6.397   8.866   0.117
   12CHTO   O53 4829   6.271   8.710   0.023
   12CHTO   C82 4830   6.146   8.775   0.044
   12CHTO  H154 4831   6.158   8.883   0.039
   12CHTO   C89 4832   6.048   8.737   4.712
   12CHTO   O59 4833   6.094   8.785   4.585
   12CHTO  H137 4834   6.033   8.762   4.518
   12CHTO   O45 4835   6.522   8.680   0.096
   12CHTO   C67 4836   6.557   8.672   4.738
   12CHTO  H124 4837   6.492   8.735   4.677
   12CHTO   C65 4838   6.705   8.715   4.717
   12CHTO  H122 4839   6.717   8.807   4.774
   12CHTO   O44 4840   6.729   8.743   4.578
   12CHTO  H102 4841   6.724   8.664   4.527
   12CHTO   C63 4842   6.801   8.610   0.003
   12CHTO  H120 4843   6.774   8.600   0.108
   12CHTO   N11 4844   6.945   8.650   0.012
   12CHTO  H108 4845   7.000   8.579   0.070
   12CHTO  H109 4846   6.987   8.657   4.695
   12CHTO   C61 4847   6.777   8.468   4.719
   12CHTO  H118 4848   6.834   8.397   4.780
   12CHTO   O40 4849   6.637   8.429   4.730
   12CHTO   C68 4850   6.532   8.523   4.689
   12CHTO  H125 4851   6.438   8.489   4.738
   12CHTO   C72 4852   6.507   8.516   4.536
   12CHTO   O48 4853   6.459   8.387   4.496
   12CHTO  H105 4854   6.527   8.324   4.505
   12CHTO   O38 4855   6.817   8.459   4.579
   12CHTO   C55 4856   6.908   8.354   4.540
   12CHTO  H112 4857   6.948   8.301   4.628
   12CHTO   C56 4858   7.024   8.417   4.452
   12CHTO  H113 4859   6.976   8.472   4.370
   12CHTO   O42 4860   7.097   8.513   4.529
   12CHTO  H100 4861   7.042   8.586   4.551
   12CHTO   C57 4862   7.120   8.305   4.395
   12CHTO  H114 4863   7.172   8.261   4.480
   12CHTO   N10 4864   7.223   8.356   4.300
   12CHTO  H106 4865   7.251   8.457   4.326
   12CHTO  H107 4866   7.311   8.293   4.304
   12CHTO   C58 4867   7.036   8.193   4.327
   12CHTO  H115 4868   6.991   8.233   4.233
   12CHTO   O37 4869   6.931   8.145   4.413
   12CHTO   C59 4870   6.836   8.245   4.455
   12CHTO  H116 4871   6.789   8.289   4.367
   12CHTO   C70 4872   6.729   8.173   4.537
   12CHTO   O46 4873   6.646   8.088   4.457
   12CHTO  H103 4874   6.582   8.047   4.511
   12CHTO   O39 4875   7.129   8.064   4.296
   12CHTO   C60 4876   7.082   7.981   4.188
   12CHTO  H117 4877   6.973   7.981   4.187
   12CHTO   C62 4878   7.131   8.033   4.049
   12CHTO  H119 4879   7.086   8.134   4.036
   12CHTO   O43 4880   7.275   8.047   4.051
   12CHTO  H101 4881   7.300   8.115   4.110
   12CHTO   C66 4882   7.078   7.936   3.933
   12CHTO  H123 4883   6.970   7.929   3.940
   12CHTO   N12 4884   7.107   7.988   3.797
   12CHTO  H110 4885   7.068   7.921   3.722
   12CHTO  H111 4886   7.214   8.001   3.785
   12CHTO   C69 4887   7.135   7.793   3.957
   12CHTO  H126 4888   7.247   7.797   3.957
   12CHTO   O41 4889   7.085   7.743   4.096
   12CHTO   C64 4890   7.127   7.835   4.212
   12CHTO  H121 4891   7.238   7.833   4.221
   12CHTO   C71 4892   7.070   7.779   4.344
   12CHTO   O47 4893   6.927   7.771   4.340
   12CHTO  H104 4894   6.895   7.738   4.422
   12CHTO   O34 4895   7.089   7.689   3.846
   12CHTO   C49 4896   7.183   7.589   3.770
   12CHTO   H91 4897   7.239   7.648   3.697
   12CHTO   C47 4898   7.095   7.484   3.699
   12CHTO   H89 4899   7.167   7.425   3.636
   12CHTO   O33 4900   7.001   7.547   3.610
   12CHTO   H70 4901   7.046   7.593   3.542
   12CHTO   C45 4902   7.018   7.389   3.805
   12CHTO   H87 4903   6.918   7.431   3.822
   12CHTO    N8 4904   7.002   7.254   3.747
   12CHTO   H75 4905   6.951   7.260   3.652
   12CHTO   H76 4906   6.946   7.191   3.814
   12CHTO   C43 4907   7.089   7.397   3.950
   12CHTO   H85 4908   7.053   7.489   3.995
   12CHTO   O29 4909   7.232   7.397   3.934
   12CHTO   C50 4910   7.283   7.512   3.863
   12CHTO   H92 4911   7.322   7.583   3.937
   12CHTO   C54 4912   7.410   7.469   3.784
   12CHTO   O36 4913   7.513   7.420   3.871
   12CHTO   H72 4914   7.547   7.491   3.923
   12CHTO   O27 4915   7.046   7.294   4.040
   12CHTO   C37 4916   7.002   7.289   4.176
   12CHTO   H79 4917   6.994   7.184   4.209
   12CHTO   C38 4918   7.103   7.358   4.274
   12CHTO   H80 4919   7.116   7.463   4.241
   12CHTO   O31 4920   7.229   7.290   4.263
   12CHTO   H68 4921   7.221   7.201   4.291
   12CHTO   C39 4922   7.047   7.356   4.422
   12CHTO   H81 4923   7.042   7.251   4.453
   12CHTO    N7 4924   7.136   7.427   4.521
   12CHTO   H73 4925   7.233   7.379   4.524
   12CHTO   H74 4926   7.147   7.531   4.493
   12CHTO   C40 4927   6.900   7.412   4.425
   12CHTO   H82 4928   6.902   7.520   4.406
   12CHTO   O26 4929   6.818   7.343   4.329
   12CHTO   C41 4930   6.863   7.357   4.191
   12CHTO   H83 4931   6.872   7.464   4.166
   12CHTO   C52 4932   6.756   7.295   4.098
   12CHTO   O35 4933   6.625   7.366   4.105
   12CHTO   H71 4934   6.588   7.355   4.191
   12CHTO   O28 4935   6.837   7.390   4.553
   12CHTO   C42 4936   6.706   7.446   4.589
   12CHTO   H84 4937   6.697   7.423   4.695
   12CHTO   C44 4938   6.582   7.382   4.519
   12CHTO   H86 4939   6.590   7.398   4.411
   12CHTO   O32 4940   6.587   7.240   4.546
   12CHTO   H69 4941   6.659   7.201   4.499
   12CHTO   C48 4942   6.446   7.447   4.567
   12CHTO   H90 4943   6.431   7.419   4.672
   12CHTO    N9 4944   6.328   7.391   4.494
   12CHTO   H77 4945   6.237   7.435   4.532
   12CHTO   H78 4946   6.338   7.410   4.388
   12CHTO   C51 4947   6.455   7.604   4.558
   12CHTO   H93 4948   6.461   7.632   4.453
   12CHTO   O30 4949   6.570   7.647   4.632
   12CHTO   C46 4950   6.698   7.601   4.576
   12CHTO   H88 4951   6.703   7.630   4.471
   12CHTO   C53 4952   6.810   7.672   4.656
   12CHTO   O72 4953   6.803   7.814   4.635
   12CHTO  H199 4954   6.830   7.835   4.548
   12CHTO   O22 4955   6.340   7.667   4.620
   12CHTO   C31 4956   6.318   7.812   4.642
   12CHTO   H59 4957   6.222   7.819   4.696
   12CHTO   C29 4958   6.424   7.881   4.731
   12CHTO   H57 4959   6.519   7.884   4.677
   12CHTO   O21 4960   6.443   7.801   0.068
   12CHTO   H37 4961   6.516   7.834   0.118
   12CHTO   C27 4962   6.382   8.029   4.768
   12CHTO   H55 4963   6.294   8.023   0.053
   12CHTO    N5 4964   6.489   8.103   0.059
   12CHTO   H43 4965   6.581   8.047   0.061
   12CHTO   H44 4966   6.505   8.201   0.016
   12CHTO   C25 4967   6.334   8.107   4.640
   12CHTO   H53 4968   6.421   8.142   4.583
   12CHTO   O17 4969   6.253   8.027   4.549
   12CHTO   C32 4970   6.300   7.896   4.513
   12CHTO   H60 4971   6.395   7.904   4.461
   12CHTO   C36 4972   6.192   7.839   4.418
   12CHTO   O25 4973   6.234   7.718   4.354
   12CHTO   H40 4974   6.166   7.687   4.298
   12CHTO   O15 4975   6.247   8.233   4.688
   12CHTO   C19 4976   6.109   8.277   4.670
   12CHTO   H47 4977   6.093   8.346   4.753
   12CHTO   C20 4978   6.087   8.353   4.536
   12CHTO   H48 4979   6.115   8.292   4.448
   12CHTO   O19 4980   6.173   8.468   4.538
   12CHTO   H35 4981   6.147   8.528   4.607
   12CHTO   C21 4982   5.935   8.395   4.517
   12CHTO   H49 4983   5.909   8.467   4.596
   12CHTO    N4 4984   5.910   8.463   4.387
   12CHTO   H41 4985   5.805   8.491   4.380
   12CHTO   H42 4986   5.970   8.553   4.380
   12CHTO   C22 4987   5.847   8.269   4.538
   12CHTO   H50 4988   5.872   8.196   4.461
   12CHTO   O14 4989   5.870   8.213   4.668
   12CHTO   C23 4990   6.004   8.163   4.686
   12CHTO   H51 4991   6.018   8.082   4.613
   12CHTO   C34 4992   6.012   8.100   0.045
   12CHTO   O23 4993   5.926   7.986   0.058
   12CHTO   H38 4994   5.960   7.915   0.007
   12CHTO   O16 4995   5.706   8.300   4.536
   12CHTO   C24 4996   5.614   8.187   4.467
   12CHTO   H52 4997   5.658   8.087   4.478
   12CHTO   C26 4998   5.596   8.220   4.317
   12CHTO   H54 4999   5.569   8.328   4.308
   12CHTO   O20 5000   5.723   8.201   4.251
   12CHTO   H36 5001   5.785   8.265   4.280
   12CHTO   C30 5002   5.484   8.135   4.250
   12CHTO   H58 5003   5.517   8.030   4.242
   12CHTO    N6 5004   5.458   8.181   4.110
   12CHTO   H45 5005   5.473   8.100   4.040
   12CHTO   H46 5006   5.357   8.218   4.099
   12CHTO   C33 5007   5.355   8.135   4.339
   12CHTO   H61 5008   5.316   8.238   4.344
   12CHTO   O18 5009   5.390   8.094   4.472
   12CHTO   C28 5010   5.478   8.184   4.540
   12CHTO   H56 5011   5.436   8.285   4.541
   12CHTO   C35 5012   5.497   8.139   4.687
   12CHTO   O24 5013   5.376   8.144   4.763
   12CHTO   H39 5014   5.316   8.079   4.731
   12CHTO    O9 5015   5.247   8.056   4.285
   12CHTO   C13 5016   5.271   7.893   4.282
   12CHTO   H26 5017   5.367   7.872   4.333
   12CHTO   C11 5018   5.274   7.845   4.131
   12CHTO   H24 5019   5.365   7.886   4.084
   12CHTO    O8 5020   5.160   7.898   4.060
   12CHTO    H3 5021   5.080   7.866   4.096
   12CHTO    C9 5022   5.281   7.689   4.129
   12CHTO   H22 5023   5.370   7.664   4.188
   12CHTO    N2 5024   5.311   7.634   3.995
   12CHTO   H10 5025   5.330   7.528   4.002
   12CHTO   H11 5026   5.228   7.653   3.928
   12CHTO    C7 5027   5.154   7.628   4.204
   12CHTO   H20 5028   5.200   7.554   4.273
   12CHTO    O4 5029   5.081   7.726   4.281
   12CHTO   C14 5030   5.160   7.813   4.364
   12CHTO   H27 5031   5.211   7.750   4.440
   12CHTO   C18 5032   5.063   7.907   4.441
   12CHTO   O13 5033   4.977   7.834   4.529
   12CHTO    H7 5034   4.916   7.783   4.478
   12CHTO    O2 5035   5.047   7.551   4.106
   12CHTO    C1 5036   4.987   7.435   4.168
   12CHTO   H14 5037   4.999   7.442   4.278
   12CHTO    C2 5038   5.050   7.299   4.118
   12CHTO   H15 5039   5.043   7.300   4.008
   12CHTO    O6 5040   5.188   7.296   4.158
   12CHTO    H1 5041   5.230   7.220   4.121
   12CHTO    C3 5042   4.969   7.174   4.178
   12CHTO   H16 5043   4.988   7.169   4.286
   12CHTO    N1 5044   5.015   7.043   4.119
   12CHTO    H8 5045   5.119   7.028   4.142
   12CHTO    H9 5046   5.000   7.044   4.012
   12CHTO    C4 5047   4.813   7.194   4.163
   12CHTO   H17 5048   4.785   7.180   4.058
   12CHTO    O1 5049   4.772   7.324   4.209
   12CHTO    C5 5050   4.834   7.435   4.140
   12CHTO   H18 5051   4.819   7.425   4.032
   12CHTO   C16 5052   4.767   7.566   4.188
   12CHTO   O11 5053   4.628   7.570   4.151
   12CHTO    H5 5054   4.580   7.507   4.201
   12CHTO    O3 5055   4.741   7.100   4.246
   12CHTO    C6 5056   4.599   7.083   4.218
   12CHTO   H19 5057   4.558   7.162   4.155
   12CHTO    C8 5058   4.574   6.945   4.147
   12CHTO   H21 5059   4.623   6.867   4.205
   12CHTO    O7 5060   4.636   6.953   4.017
   12CHTO    H2 5061   4.594   7.018   3.963
   12CHTO   C12 5062   4.419   6.912   4.138
   12CHTO   H25 5063   4.375   6.988   4.069
   12CHTO    N3 5064   4.395   6.778   4.077
   12CHTO   H12 5065   4.288   6.759   4.070
   12CHTO   H13 5066   4.442   6.701   4.136
   12CHTO   C15 5067   4.354   6.929   4.280
   12CHTO   H28 5068   4.390   6.854   4.350
   12CHTO   O10 5069   4.200   6.926   4.277
   12CHTO    H4 5070   4.170   6.842   4.248
   12CHTO    O5 5071   4.380   7.061   4.332
   12CHTO   C10 5072   4.520   7.087   4.353
   12CHTO   H23 5073   4.560   7.012   4.420
   12CHTO   C17 5074   4.533   7.223   4.424
   12CHTO   O12 5075   4.481   7.332   4.347
   12CHTO    H6 5076   4.535   7.346   4.272
   13CHTO  H203 5077   7.715   3.832   1.521
   13CHTO   O82 5078   7.712   3.872   1.606
   13CHTO  C123 5079   7.687   4.013   1.594
   13CHTO  H227 5080   7.754   4.055   1.516
   13CHTO   O77 5081   7.549   4.019   1.548
   13CHTO  C118 5082   7.500   4.152   1.524
   13CHTO  H222 5083   7.566   4.203   1.451
   13CHTO  C125 5084   7.355   4.141   1.462
   13CHTO   O84 5085   7.359   4.080   1.333
   13CHTO  H205 5086   7.400   4.138   1.271
   13CHTO  C114 5087   7.499   4.231   1.656
   13CHTO  H218 5088   7.435   4.179   1.727
   13CHTO  C116 5089   7.643   4.236   1.717
   13CHTO  H220 5090   7.708   4.297   1.650
   13CHTO   O79 5091   7.639   4.306   1.842
   13CHTO  H201 5092   7.586   4.260   1.904
   13CHTO  C120 5093   7.703   4.090   1.731
   13CHTO  H224 5094   7.643   4.039   1.809
   13CHTO   N21 5095   7.844   4.093   1.779
   13CHTO  H211 5096   7.846   4.092   1.887
   13CHTO  H212 5097   7.899   4.009   1.740
   13CHTO   O75 5098   7.445   4.360   1.624
   13CHTO  C112 5099   7.357   4.428   1.747
   13CHTO  H216 5100   7.417   4.426   1.840
   13CHTO   O73 5101   7.236   4.352   1.760
   13CHTO  C113 5102   7.147   4.401   1.862
   13CHTO  H217 5103   7.201   4.405   1.959
   13CHTO  C124 5104   7.031   4.302   1.878
   13CHTO   O83 5105   7.074   4.176   1.930
   13CHTO  H204 5106   7.000   4.119   1.938
   13CHTO  C109 5107   7.097   4.543   1.824
   13CHTO  H213 5108   7.044   4.533   1.728
   13CHTO  C110 5109   7.220   4.638   1.809
   13CHTO  H214 5110   7.265   4.653   1.907
   13CHTO   O78 5111   7.171   4.766   1.764
   13CHTO  H200 5112   7.242   4.828   1.760
   13CHTO  C111 5113   7.324   4.578   1.710
   13CHTO  H215 5114   7.281   4.578   1.609
   13CHTO   N19 5115   7.449   4.659   1.702
   13CHTO  H207 5116   7.536   4.602   1.732
   13CHTO  H208 5117   7.464   4.696   1.601
   13CHTO   O74 5118   7.004   4.595   1.925
   13CHTO  C115 5119   6.871   4.657   1.860
   13CHTO  H219 5120   6.890   4.699   1.762
   13CHTO   O76 5121   6.761   4.545   1.835
   13CHTO  C122 5122   6.689   4.512   1.954
   13CHTO  H226 5123   6.762   4.483   2.030
   13CHTO  C126 5124   6.601   4.386   1.929
   13CHTO   O85 5125   6.678   4.268   1.905
   13CHTO  H206 5126   6.723   4.243   1.983
   13CHTO  C121 5127   6.603   4.635   2.005
   13CHTO  H225 5128   6.499   4.624   1.969
   13CHTO   O81 5129   6.602   4.635   2.148
   13CHTO  H202 5130   6.556   4.559   2.180
   13CHTO  C119 5131   6.660   4.771   1.953
   13CHTO  H223 5132   6.631   4.777   1.848
   13CHTO  C117 5133   6.817   4.771   1.957
   13CHTO  H221 5134   6.862   4.750   2.054
   13CHTO   N20 5135   6.875   4.904   1.915
   13CHTO  H209 5136   6.929   4.948   1.997
   13CHTO  H210 5137   6.798   4.971   1.881
   13CHTO   O80 5138   6.582   4.904   2.016
   13CHTO  C103 5139   6.434   4.945   1.964
   13CHTO  H190 5140   6.421   5.053   1.971
   13CHTO  C101 5141   6.399   4.903   1.816
   13CHTO  H188 5142   6.417   4.796   1.804
   13CHTO   O68 5143   6.494   4.980   1.721
   13CHTO  H168 5144   6.476   5.072   1.725
   13CHTO   C99 5145   6.245   4.930   1.783
   13CHTO  H186 5146   6.226   5.039   1.787
   13CHTO   N17 5147   6.205   4.884   1.645
   13CHTO  H174 5148   6.212   4.777   1.638
   13CHTO  H175 5149   6.104   4.918   1.623
   13CHTO   C97 5150   6.155   4.867   1.893
   13CHTO  H184 5151   6.159   4.757   1.884
   13CHTO   O64 5152   6.196   4.912   2.023
   13CHTO  C104 5153   6.330   4.879   2.063
   13CHTO  H191 5154   6.346   4.771   2.066
   13CHTO  C108 5155   6.347   4.930   2.207
   13CHTO   O71 5156   6.466   4.883   2.271
   13CHTO  H171 5157   6.541   4.921   2.230
   13CHTO   O62 5158   6.019   4.915   1.882
   13CHTO   C91 5159   5.914   4.826   1.926
   13CHTO  H178 5160   5.958   4.743   1.980
   13CHTO   C92 5161   5.841   4.766   1.802
   13CHTO  H179 5162   5.812   4.848   1.735
   13CHTO   O66 5163   5.936   4.687   1.728
   13CHTO  H166 5164   5.898   4.657   1.648
   13CHTO   C93 5165   5.715   4.678   1.842
   13CHTO  H180 5166   5.753   4.586   1.887
   13CHTO   N16 5167   5.634   4.636   1.725
   13CHTO  H172 5168   5.551   4.575   1.758
   13CHTO  H173 5169   5.597   4.723   1.672
   13CHTO   C94 5170   5.626   4.753   1.949
   13CHTO  H181 5171   5.576   4.840   1.906
   13CHTO   O61 5172   5.707   4.799   2.058
   13CHTO   C95 5173   5.807   4.894   2.020
   13CHTO  H182 5174   5.759   4.977   1.967
   13CHTO  C106 5175   5.870   4.954   2.150
   13CHTO   O69 5176   5.937   4.855   2.229
   13CHTO  H169 5177   5.972   4.894   2.306
   13CHTO   O63 5178   5.517   4.652   2.011
   13CHTO   C96 5179   5.397   4.727   2.076
   13CHTO  H183 5180   5.363   4.802   2.004
   13CHTO   C98 5181   5.429   4.801   2.210
   13CHTO  H185 5182   5.513   4.870   2.196
   13CHTO   O67 5183   5.316   4.884   2.243
   13CHTO  H167 5184   5.240   4.831   2.258
   13CHTO  C102 5185   5.457   4.698   2.330
   13CHTO  H189 5186   5.439   4.755   2.422
   13CHTO   N18 5187   5.597   4.650   2.341
   13CHTO  H176 5188   5.607   4.584   2.426
   13CHTO  H177 5189   5.664   4.734   2.353
   13CHTO  C105 5190   5.355   4.580   2.324
   13CHTO  H192 5191   5.405   4.489   2.289
   13CHTO   O65 5192   5.243   4.604   2.236
   13CHTO  C100 5193   5.279   4.620   2.098
   13CHTO  H187 5194   5.313   4.522   2.061
   13CHTO  C107 5195   5.151   4.657   2.020
   13CHTO   O70 5196   5.176   4.668   1.880
   13CHTO  H170 5197   5.097   4.690   1.835
   13CHTO   O57 5198   5.309   4.561   2.474
   13CHTO   C85 5199   5.244   4.439   2.512
   13CHTO  H157 5200   5.249   4.371   2.424
   13CHTO   C83 5201   5.092   4.465   2.536
   13CHTO  H155 5202   5.049   4.502   2.443
   13CHTO   O56 5203   5.077   4.571   2.633
   13CHTO  H135 5204   4.986   4.594   2.643
   13CHTO   C81 5205   5.023   4.332   2.575
   13CHTO  H153 5206   5.039   4.260   2.495
   13CHTO   N14 5207   4.875   4.345   2.583
   13CHTO  H141 5208   4.831   4.249   2.602
   13CHTO  H142 5209   4.837   4.383   2.491
   13CHTO   C79 5210   5.088   4.273   2.707
   13CHTO  H151 5211   5.045   4.174   2.722
   13CHTO   O52 5212   5.232   4.252   2.686
   13CHTO   C86 5213   5.304   4.372   2.641
   13CHTO  H158 5214   5.300   4.442   2.728
   13CHTO   C90 5215   5.453   4.338   2.621
   13CHTO   O60 5216   5.513   4.299   2.745
   13CHTO  H138 5217   5.604   4.281   2.732
   13CHTO   O50 5218   5.068   4.352   2.826
   13CHTO   C73 5219   5.004   4.309   2.947
   13CHTO  H145 5220   4.991   4.200   2.948
   13CHTO   C74 5221   4.864   4.377   2.960
   13CHTO  H146 5222   4.806   4.350   2.870
   13CHTO   O54 5223   4.793   4.317   3.070
   13CHTO  H133 5224   4.837   4.334   3.151
   13CHTO   C75 5225   4.882   4.534   2.974
   13CHTO  H147 5226   4.934   4.571   2.885
   13CHTO   N13 5227   4.755   4.610   2.983
   13CHTO  H139 5228   4.670   4.544   2.979
   13CHTO  H140 5229   4.748   4.680   2.901
   13CHTO   C76 5230   4.977   4.562   3.100
   13CHTO  H148 5231   4.926   4.524   3.189
   13CHTO   O49 5232   5.104   4.491   3.083
   13CHTO   C77 5233   5.090   4.349   3.072
   13CHTO  H149 5234   5.040   4.312   3.162
   13CHTO   C88 5235   5.229   4.284   3.076
   13CHTO   O58 5236   5.323   4.340   2.977
   13CHTO  H136 5237   5.342   4.429   2.998
   13CHTO   O51 5238   5.017   4.716   3.114
   13CHTO   C78 5239   5.106   4.736   3.244
   13CHTO  H150 5240   5.153   4.640   3.276
   13CHTO   C80 5241   5.021   4.790   3.361
   13CHTO  H152 5242   4.980   4.889   3.333
   13CHTO   O55 5243   4.912   4.699   3.383
   13CHTO  H134 5244   4.851   4.703   3.311
   13CHTO   C84 5245   5.110   4.804   3.492
   13CHTO  H156 5246   5.137   4.703   3.523
   13CHTO   N15 5247   5.033   4.865   3.606
   13CHTO  H143 5248   5.076   4.959   3.636
   13CHTO  H144 5249   5.031   4.799   3.690
   13CHTO   C87 5250   5.242   4.880   3.463
   13CHTO  H159 5251   5.224   4.987   3.457
   13CHTO   O53 5252   5.310   4.830   3.328
   13CHTO   C82 5253   5.221   4.834   3.216
   13CHTO  H154 5254   5.183   4.935   3.202
   13CHTO   C89 5255   5.299   4.797   3.086
   13CHTO   O59 5256   5.359   4.668   3.093
   13CHTO  H137 5257   5.405   4.650   3.013
   13CHTO   O45 5258   5.346   4.853   3.592
   13CHTO   C67 5259   5.484   4.827   3.562
   13CHTO  H124 5260   5.491   4.764   3.473
   13CHTO   C65 5261   5.562   4.961   3.537
   13CHTO  H122 5262   5.499   5.040   3.578
   13CHTO   O44 5263   5.570   4.978   3.394
   13CHTO  H102 5264   5.632   4.919   3.358
   13CHTO   C63 5265   5.696   4.971   3.619
   13CHTO  H120 5266   5.672   4.984   3.724
   13CHTO   N11 5267   5.780   5.092   3.592
   13CHTO  H108 5268   5.720   5.181   3.603
   13CHTO  H109 5269   5.862   5.096   3.661
   13CHTO   C61 5270   5.772   4.833   3.609
   13CHTO  H118 5271   5.862   4.842   3.672
   13CHTO   O40 5272   5.695   4.724   3.663
   13CHTO   C68 5273   5.550   4.740   3.679
   13CHTO  H125 5274   5.531   4.787   3.777
   13CHTO   C72 5275   5.491   4.597   3.685
   13CHTO   O48 5276   5.350   4.592   3.709
   13CHTO  H105 5277   5.331   4.625   3.795
   13CHTO   O38 5278   5.808   4.798   3.474
   13CHTO   C55 5279   5.930   4.724   3.447
   13CHTO  H112 5280   5.924   4.696   3.341
   13CHTO   C56 5281   5.954   4.596   3.540
   13CHTO  H113 5282   5.959   4.631   3.644
   13CHTO   O42 5283   5.840   4.508   3.532
   13CHTO  H100 5284   5.764   4.549   3.567
   13CHTO   C57 5285   6.087   4.523   3.499
   13CHTO  H114 5286   6.074   4.485   3.397
   13CHTO   N10 5287   6.122   4.405   3.584
   13CHTO  H106 5288   6.087   4.420   3.685
   13CHTO  H107 5289   6.228   4.388   3.585
   13CHTO   C58 5290   6.203   4.626   3.498
   13CHTO  H115 5291   6.223   4.660   3.602
   13CHTO   O37 5292   6.171   4.741   3.417
   13CHTO   C59 5293   6.055   4.815   3.458
   13CHTO  H116 5294   6.069   4.851   3.560
   13CHTO   C70 5295   6.042   4.937   3.366
   13CHTO   O46 5296   6.150   5.030   3.380
   13CHTO  H103 5297   6.229   4.992   3.348
   13CHTO   O39 5298   6.340   4.564   3.433
   13CHTO   C60 5299   6.459   4.628   3.480
   13CHTO  H117 5300   6.434   4.709   3.549
   13CHTO   C62 5301   6.551   4.527   3.555
   13CHTO  H119 5302   6.489   4.484   3.637
   13CHTO   O43 5303   6.589   4.420   3.467
   13CHTO  H101 5304   6.641   4.453   3.396
   13CHTO   C66 5305   6.675   4.606   3.620
   13CHTO  H123 5306   6.636   4.684   3.685
   13CHTO   N12 5307   6.762   4.522   3.705
   13CHTO  H110 5308   6.726   4.420   3.709
   13CHTO  H111 5309   6.771   4.565   3.804
   13CHTO   C69 5310   6.756   4.679   3.509
   13CHTO  H126 5311   6.814   4.606   3.449
   13CHTO   O41 5312   6.660   4.760   3.414
   13CHTO   C64 5313   6.539   4.693   3.364
   13CHTO  H121 5314   6.567   4.613   3.293
   13CHTO   C71 5315   6.457   4.798   3.284
   13CHTO   O47 5316   6.425   4.913   3.362
   13CHTO  H104 5317   6.365   4.890   3.431
   13CHTO   O34 5318   6.858   4.785   3.576
   13CHTO   C49 5319   6.953   4.866   3.487
   13CHTO   H91 5320   6.993   4.796   3.414
   13CHTO   C47 5321   7.068   4.922   3.574
   13CHTO   H89 5322   7.140   4.964   3.499
   13CHTO   O33 5323   7.133   4.814   3.644
   13CHTO   H70 5324   7.211   4.845   3.685
   13CHTO   C45 5325   7.017   5.038   3.675
   13CHTO   H87 5326   6.978   4.989   3.766
   13CHTO    N8 5327   7.134   5.121   3.714
   13CHTO   H75 5328   7.115   5.225   3.692
   13CHTO   H76 5329   7.156   5.109   3.819
   13CHTO   C43 5330   6.891   5.116   3.612
   13CHTO   H85 5331   6.803   5.059   3.644
   13CHTO   O29 5332   6.903   5.117   3.469
   13CHTO   C50 5333   6.883   4.986   3.413
   13CHTO   H92 5334   6.774   4.969   3.413
   13CHTO   C54 5335   6.918   4.991   3.263
   13CHTO   O36 5336   6.880   4.870   3.197
   13CHTO   H72 5337   6.902   4.876   3.106
   13CHTO   O27 5338   6.869   5.248   3.665
   13CHTO   C37 5339   6.751   5.328   3.684
   13CHTO   H79 5340   6.662   5.274   3.649
   13CHTO   C38 5341   6.730   5.355   3.837
   13CHTO   H80 5342   6.826   5.389   3.879
   13CHTO   O31 5343   6.696   5.230   3.899
   13CHTO   H68 5344   6.613   5.198   3.867
   13CHTO   C39 5345   6.620   5.466   3.863
   13CHTO   H81 5346   6.524   5.425   3.831
   13CHTO    N7 5347   6.607   5.502   4.008
   13CHTO   H73 5348   6.700   5.542   4.046
   13CHTO   H74 5349   6.527   5.574   4.021
   13CHTO   C40 5350   6.650   5.592   3.773
   13CHTO   H82 5351   6.745   5.636   3.805
   13CHTO   O26 5352   6.654   5.551   3.635
   13CHTO   C41 5353   6.764   5.461   3.605
   13CHTO   H83 5354   6.859   5.510   3.632
   13CHTO   C52 5355   6.767   5.437   3.452
   13CHTO   O35 5356   6.640   5.374   3.399
   13CHTO   H71 5357   6.568   5.433   3.411
   13CHTO   O28 5358   6.548   5.694   3.783
   13CHTO   C42 5359   6.567   5.828   3.728
   13CHTO   H84 5360   6.629   5.814   3.640
   13CHTO   C44 5361   6.641   5.932   3.818
   13CHTO   H86 5362   6.586   5.943   3.912
   13CHTO   O32 5363   6.771   5.878   3.849
   13CHTO   H69 5364   6.816   5.934   3.909
   13CHTO   C48 5365   6.652   6.075   3.750
   13CHTO   H90 5366   6.718   6.067   3.663
   13CHTO    N9 5367   6.715   6.178   3.840
   13CHTO   H77 5368   6.721   6.273   3.790
   13CHTO   H78 5369   6.814   6.145   3.869
   13CHTO   C51 5370   6.510   6.121   3.699
   13CHTO   H93 5371   6.446   6.135   3.787
   13CHTO   O30 5372   6.457   6.022   3.610
   13CHTO   C46 5373   6.432   5.889   3.679
   13CHTO   H88 5374   6.367   5.906   3.765
   13CHTO   C53 5375   6.359   5.795   3.579
   13CHTO   O72 5376   6.437   5.772   3.462
   13CHTO  H199 5377   6.390   5.716   3.403
   13CHTO   O22 5378   6.514   6.242   3.621
   13CHTO   C31 5379   6.392   6.324   3.610
   13CHTO   H59 5380   6.309   6.264   3.653
   13CHTO   C29 5381   6.397   6.457   3.688
   13CHTO   H57 5382   6.476   6.520   3.644
   13CHTO   O21 5383   6.437   6.430   3.824
   13CHTO   H37 5384   6.453   6.510   3.870
   13CHTO   C27 5385   6.259   6.534   3.681
   13CHTO   H55 5386   6.185   6.479   3.742
   13CHTO    N5 5387   6.268   6.673   3.734
   13CHTO   H43 5388   6.336   6.731   3.674
   13CHTO   H44 5389   6.301   6.671   3.837
   13CHTO   C25 5390   6.201   6.536   3.534
   13CHTO   H53 5391   6.255   6.610   3.474
   13CHTO   O17 5392   6.215   6.407   3.467
   13CHTO   C32 5393   6.350   6.357   3.464
   13CHTO   H60 5394   6.417   6.434   3.424
   13CHTO   C36 5395   6.357   6.235   3.371
   13CHTO   O25 5396   6.326   6.273   3.236
   13CHTO   H40 5397   6.331   6.197   3.181
   13CHTO   O15 5398   6.044   6.574   3.535
   13CHTO   C19 5399   5.931   6.589   3.626
   13CHTO   H47 5400   5.977   6.601   3.726
   13CHTO   C20 5401   5.843   6.714   3.597
   13CHTO   H48 5402   5.794   6.707   3.498
   13CHTO   O19 5403   5.931   6.828   3.596
   13CHTO   H35 5404   5.987   6.826   3.521
   13CHTO   C21 5405   5.730   6.732   3.706
   13CHTO   H49 5406   5.778   6.755   3.801
   13CHTO    N4 5407   5.637   6.845   3.678
   13CHTO   H41 5408   5.640   6.917   3.759
   13CHTO   H42 5409   5.662   6.894   3.586
   13CHTO   C22 5410   5.654   6.598   3.728
   13CHTO   H50 5411   5.586   6.580   3.644
   13CHTO   O14 5412   5.743   6.486   3.743
   13CHTO   C23 5413   5.837   6.465   3.636
   13CHTO   H51 5414   5.780   6.450   3.543
   13CHTO   C34 5415   5.916   6.336   3.664
   13CHTO   O23 5416   5.830   6.222   3.659
   13CHTO   H38 5417   5.880   6.145   3.678
   13CHTO   O16 5418   5.583   6.602   3.853
   13CHTO   C24 5419   5.440   6.529   3.857
   13CHTO   H52 5420   5.431   6.453   3.779
   13CHTO   C26 5421   5.331   6.636   3.837
   13CHTO   H54 5422   5.358   6.726   3.898
   13CHTO   O20 5423   5.332   6.676   3.698
   13CHTO   H36 5424   5.412   6.722   3.678
   13CHTO   C30 5425   5.189   6.588   3.881
   13CHTO   H58 5426   5.153   6.509   3.813
   13CHTO    N6 5427   5.089   6.698   3.873
   13CHTO   H45 5428   5.117   6.779   3.940
   13CHTO   H46 5429   4.991   6.662   3.902
   13CHTO   C33 5430   5.199   6.525   4.023
   13CHTO   H61 5431   5.239   6.600   4.093
   13CHTO   O18 5432   5.292   6.415   4.015
   13CHTO   C28 5433   5.428   6.456   3.994
   13CHTO   H56 5434   5.461   6.523   4.073
   13CHTO   C35 5435   5.515   6.327   3.996
   13CHTO   O24 5436   5.655   6.353   4.001
   13CHTO   H39 5437   5.678   6.389   4.085
   13CHTO    O9 5438   5.072   6.483   4.078
   13CHTO   C13 5439   5.079   6.459   4.241
   13CHTO   H26 5440   5.167   6.514   4.280
   13CHTO   C11 5441   5.090   6.304   4.271
   13CHTO   H24 5442   5.192   6.271   4.245
   13CHTO    O8 5443   4.997   6.231   4.188
   13CHTO    H3 5444   5.010   6.138   4.199
   13CHTO    C9 5445   5.065   6.282   4.423
   13CHTO   H22 5446   5.135   6.351   4.473
   13CHTO    N2 5447   5.104   6.148   4.473
   13CHTO   H10 5448   5.130   6.082   4.391
   13CHTO   H11 5449   5.187   6.156   4.542
   13CHTO    C7 5450   4.917   6.326   4.459
   13CHTO   H20 5451   4.929   6.374   4.559
   13CHTO    O4 5452   4.863   6.423   4.367
   13CHTO   C14 5453   4.955   6.523   4.318
   13CHTO   H27 5454   4.993   6.578   4.406
   13CHTO   C18 5455   4.875   6.624   4.232
   13CHTO   O13 5456   4.779   6.693   4.313
   13CHTO    H7 5457   4.728   6.751   4.258
   13CHTO    O2 5458   4.810   6.201   4.469
   13CHTO    C1 5459   4.720   6.207   4.581
   13CHTO   H14 5460   4.738   6.300   4.640
   13CHTO    C2 5461   4.735   6.082   4.677
   13CHTO   H15 5462   4.731   5.993   4.613
   13CHTO    O6 5463   4.864   6.089   4.741
   13CHTO    H1 5464   4.932   6.075   4.678
   13CHTO    C3 5465   4.617   6.077   0.005
   13CHTO   H16 5466   4.630   6.160   0.075
   13CHTO    N1 5467   4.622   5.949   0.084
   13CHTO    H8 5468   4.532   5.891   0.071
   13CHTO    H9 5469   4.635   5.971   0.189
   13CHTO    C4 5470   4.477   6.101   4.717
   13CHTO   H17 5471   4.453   6.014   4.655
   13CHTO    O1 5472   4.480   6.220   4.636
   13CHTO    C5 5473   4.574   6.216   4.528
   13CHTO   H18 5474   4.556   6.128   4.467
   13CHTO   C16 5475   4.550   6.343   4.441
   13CHTO   O11 5476   4.570   6.465   4.513
   13CHTO    H5 5477   4.661   6.474   4.535
   13CHTO    O3 5478   4.372   6.130   0.030
   13CHTO    C6 5479   4.267   6.028   0.048
   13CHTO   H19 5480   4.299   5.928   0.018
   13CHTO    C8 5481   4.228   6.022   0.200
   13CHTO   H21 5482   4.201   6.123   0.232
   13CHTO    O7 5483   4.343   5.977   0.273
   13CHTO    H2 5484   4.410   6.042   0.272
   13CHTO   C12 5485   4.102   5.928   0.223
   13CHTO   H25 5486   4.136   5.825   0.200
   13CHTO    N3 5487   4.058   5.928   0.366
   13CHTO   H12 5488   3.973   5.863   0.379
   13CHTO   H13 5489   4.139   5.896   0.430
   13CHTO   C15 5490   3.987   5.966   0.123
   13CHTO   H28 5491   3.942   6.062   0.148
   13CHTO   O10 5492   3.876   5.857   0.116
   13CHTO    H4 5493   3.805   5.887   0.063
   13CHTO    O5 5494   4.036   5.967   4.769
   13CHTO   C10 5495   4.140   6.063   4.746
   13CHTO   H23 5496   4.103   6.162   4.775
   13CHTO   C17 5497   4.164   6.068   4.594
   13CHTO   O12 5498   4.208   5.942   4.542
   13CHTO    H6 5499   4.221   5.949   4.450
   14CHTO  H203 5500   5.731   4.882   3.115
   14CHTO   O82 5501   5.712   4.833   3.036
   14CHTO  C123 5502   5.767   4.701   3.045
   14CHTO  H227 5503   5.870   4.708   3.084
   14CHTO   O77 5504   5.681   4.635   3.142
   14CHTO  C118 5505   5.728   4.505   3.183
   14CHTO  H222 5506   5.828   4.516   3.227
   14CHTO  C125 5507   5.629   4.455   3.295
   14CHTO   O84 5508   5.494   4.444   3.249
   14CHTO  H205 5509   5.460   4.529   3.230
   14CHTO  C114 5510   5.736   4.407   3.064
   14CHTO  H218 5511   5.634   4.379   3.034
   14CHTO  C116 5512   5.806   4.470   2.938
   14CHTO  H220 5513   5.916   4.466   2.954
   14CHTO   O79 5514   5.780   4.388   2.823
   14CHTO  H201 5515   5.821   4.304   2.833
   14CHTO  C120 5516   5.762   4.620   2.911
   14CHTO  H224 5517   5.657   4.616   2.874
   14CHTO   N21 5518   5.844   4.683   2.804
   14CHTO  H211 5519   5.800   4.665   2.707
   14CHTO  H212 5520   5.946   4.647   2.808
   14CHTO   O75 5521   5.805   4.293   3.117
   14CHTO  C112 5522   5.757   4.137   3.075
   14CHTO  H216 5523   5.839   4.068   3.100
   14CHTO   O73 5524   5.727   4.135   2.935
   14CHTO  C113 5525   5.686   4.006   2.887
   14CHTO  H217 5526   5.760   3.930   2.920
   14CHTO  C124 5527   5.691   4.009   2.734
   14CHTO   O83 5528   5.678   3.879   2.677
   14CHTO  H204 5529   5.681   3.885   2.583
   14CHTO  C109 5530   5.546   3.975   2.947
   14CHTO  H213 5531   5.481   4.060   2.921
   14CHTO  C110 5532   5.563   3.966   3.102
   14CHTO  H214 5533   5.625   3.879   3.125
   14CHTO   O78 5534   5.434   3.944   3.161
   14CHTO  H200 5535   5.402   3.859   3.138
   14CHTO  C111 5536   5.629   4.095   3.159
   14CHTO  H215 5537   5.556   4.178   3.151
   14CHTO   N19 5538   5.665   4.084   3.303
   14CHTO  H207 5539   5.707   4.177   3.338
   14CHTO  H208 5540   5.736   4.004   3.317
   14CHTO   O74 5541   5.487   3.851   2.895
   14CHTO  C115 5542   5.365   3.877   2.788
   14CHTO  H219 5543   5.356   3.982   2.760
   14CHTO   O76 5544   5.391   3.800   2.649
   14CHTO  C122 5545   5.333   3.669   2.644
   14CHTO  H226 5546   5.376   3.610   2.725
   14CHTO  C126 5547   5.376   3.598   2.511
   14CHTO   O85 5548   5.517   3.575   2.504
   14CHTO  H206 5549   5.543   3.511   2.568
   14CHTO  C121 5550   5.175   3.674   2.658
   14CHTO  H225 5551   5.129   3.675   2.557
   14CHTO   O81 5552   5.132   3.554   2.725
   14CHTO  H202 5553   5.039   3.546   2.722
   14CHTO  C119 5554   5.127   3.800   2.737
   14CHTO  H223 5555   5.135   3.882   2.666
   14CHTO  C117 5556   5.228   3.832   2.853
   14CHTO  H221 5557   5.253   3.748   2.919
   14CHTO   N20 5558   5.176   3.939   2.944
   14CHTO  H209 5559   5.161   4.030   2.889
   14CHTO  H210 5560   5.245   3.955   3.025
   14CHTO   O80 5561   4.966   3.800   2.769
   14CHTO  C103 5562   4.875   3.909   2.702
   14CHTO  H190 5563   4.929   4.003   2.695
   14CHTO  C101 5564   4.819   3.874   2.559
   14CHTO  H188 5565   4.766   3.779   2.565
   14CHTO   O68 5566   4.940   3.857   2.461
   14CHTO  H168 5567   4.985   3.939   2.451
   14CHTO   C99 5568   4.717   3.987   2.508
   14CHTO  H186 5569   4.775   4.080   2.490
   14CHTO   N17 5570   4.650   3.953   2.378
   14CHTO  H174 5571   4.591   4.037   2.344
   14CHTO  H175 5572   4.724   3.925   2.305
   14CHTO   C97 5573   4.613   4.023   2.619
   14CHTO  H184 5574   4.539   3.941   2.626
   14CHTO   O64 5575   4.678   4.047   2.745
   14CHTO  C104 5576   4.752   3.935   2.797
   14CHTO  H191 5577   4.690   3.845   2.803
   14CHTO  C108 5578   4.790   3.970   2.942
   14CHTO   O71 5579   4.837   3.856   3.015
   14CHTO  H171 5580   4.766   3.797   3.030
   14CHTO   O62 5581   4.545   4.146   2.585
   14CHTO   C91 5582   4.445   4.197   2.675
   14CHTO  H178 5583   4.415   4.116   2.741
   14CHTO   C92 5584   4.318   4.235   2.591
   14CHTO  H179 5585   4.285   4.147   2.532
   14CHTO   O66 5586   4.211   4.262   2.682
   14CHTO  H166 5587   4.130   4.274   2.636
   14CHTO   C93 5588   4.341   4.362   2.500
   14CHTO  H180 5589   4.244   4.413   2.490
   14CHTO   N16 5590   4.384   4.331   2.361
   14CHTO  H172 5591   4.312   4.369   2.290
   14CHTO  H173 5592   4.397   4.224   2.348
   14CHTO   C94 5593   4.443   4.462   2.568
   14CHTO  H181 5594   4.546   4.440   2.539
   14CHTO   O61 5595   4.439   4.448   2.711
   14CHTO   C95 5596   4.494   4.324   2.759
   14CHTO  H182 5597   4.603   4.330   2.754
   14CHTO  C106 5598   4.457   4.312   2.911
   14CHTO   O69 5599   4.518   4.197   2.971
   14CHTO  H169 5600   4.479   4.119   2.937
   14CHTO   O63 5601   4.403   4.612   2.527
   14CHTO   C96 5602   4.527   4.712   2.505
   14CHTO  H183 5603   4.485   4.805   2.466
   14CHTO   C98 5604   4.637   4.665   2.406
   14CHTO  H185 5605   4.670   4.563   2.431
   14CHTO   O67 5606   4.574   4.654   2.276
   14CHTO  H167 5607   4.634   4.619   2.214
   14CHTO  C102 5608   4.763   4.764   2.402
   14CHTO  H189 5609   4.726   4.858   2.357
   14CHTO   N18 5610   4.876   4.719   2.315
   14CHTO  H176 5611   4.894   4.791   2.237
   14CHTO  H177 5612   4.854   4.623   2.272
   14CHTO  C105 5613   4.809   4.795   2.547
   14CHTO  H192 5614   4.851   4.704   2.592
   14CHTO   O65 5615   4.699   4.840   2.630
   14CHTO  C100 5616   4.592   4.746   2.645
   14CHTO  H187 5617   4.632   4.653   2.688
   14CHTO  C107 5618   4.489   4.804   2.745
   14CHTO   O70 5619   4.434   4.929   2.701
   14CHTO  H170 5620   4.501   4.996   2.704
   14CHTO   O57 5621   4.922   4.913   2.540
   14CHTO   C85 5622   4.997   4.948   2.658
   14CHTO  H157 5623   5.007   4.854   2.717
   14CHTO   C83 5624   4.913   5.045   2.748
   14CHTO  H155 5625   4.827   4.991   2.786
   14CHTO   O56 5626   4.861   5.153   2.668
   14CHTO  H135 5627   4.801   5.120   2.603
   14CHTO   C81 5628   5.000   5.092   2.868
   14CHTO  H153 5629   5.035   5.003   2.921
   14CHTO   N14 5630   4.922   5.166   2.971
   14CHTO  H141 5631   4.887   5.259   2.930
   14CHTO  H142 5632   4.984   5.186   3.056
   14CHTO   C79 5633   5.125   5.171   2.815
   14CHTO  H151 5634   5.185   5.199   2.902
   14CHTO   O52 5635   5.208   5.081   2.735
   14CHTO   C86 5636   5.138   5.012   2.625
   14CHTO  H158 5637   5.128   5.091   2.547
   14CHTO   C90 5638   5.231   4.905   2.565
   14CHTO   O60 5639   5.273   4.809   2.663
   14CHTO  H138 5640   5.330   4.849   2.725
   14CHTO   O50 5641   5.095   5.289   2.739
   14CHTO   C73 5642   5.105   5.430   2.711
   14CHTO  H145 5643   5.074   5.488   2.799
   14CHTO   C74 5644   5.011   5.469   2.592
   14CHTO  H146 5645   4.909   5.438   2.621
   14CHTO   O54 5646   5.009   5.613   2.583
   14CHTO  H133 5647   4.950   5.640   2.516
   14CHTO   C75 5648   5.061   5.396   2.461
   14CHTO  H147 5649   5.051   5.288   2.475
   14CHTO   N13 5650   4.978   5.428   2.342
   14CHTO  H139 5651   4.876   5.398   2.359
   14CHTO  H140 5652   5.015   5.374   2.256
   14CHTO   C76 5653   5.216   5.427   2.437
   14CHTO  H148 5654   5.226   5.533   2.411
   14CHTO   O49 5655   5.296   5.399   2.556
   14CHTO   C77 5656   5.251   5.469   2.673
   14CHTO  H149 5657   5.254   5.577   2.654
   14CHTO   C88 5658   5.348   5.445   2.789
   14CHTO   O58 5659   5.472   5.505   2.764
   14CHTO  H136 5660   5.530   5.489   2.836
   14CHTO   O51 5661   5.278   5.331   2.325
   14CHTO   C78 5662   5.412   5.389   2.263
   14CHTO  H150 5663   5.453   5.472   2.327
   14CHTO   C80 5664   5.384   5.445   2.122
   14CHTO  H152 5665   5.341   5.363   2.060
   14CHTO   O55 5666   5.286   5.549   2.135
   14CHTO  H134 5667   5.203   5.512   2.158
   14CHTO   C84 5668   5.517   5.497   2.054
   14CHTO  H156 5669   5.554   5.580   2.114
   14CHTO   N15 5670   5.495   5.550   1.915
   14CHTO  H143 5671   5.551   5.494   1.842
   14CHTO  H144 5672   5.523   5.653   1.909
   14CHTO   C87 5673   5.623   5.383   2.057
   14CHTO  H159 5674   5.589   5.301   1.994
   14CHTO   O53 5675   5.641   5.335   2.202
   14CHTO   C82 5676   5.520   5.279   2.257
   14CHTO  H154 5677   5.487   5.194   2.198
   14CHTO   C89 5678   5.557   5.225   2.398
   14CHTO   O59 5679   5.452   5.146   2.455
   14CHTO  H137 5680   5.443   5.066   2.408
   14CHTO   O45 5681   5.772   5.437   2.005
   14CHTO   C67 5682   5.853   5.331   1.952
   14CHTO  H124 5683   5.846   5.243   2.016
   14CHTO   C65 5684   5.807   5.295   1.807
   14CHTO  H122 5685   5.697   5.292   1.810
   14CHTO   O44 5686   5.855   5.164   1.771
   14CHTO  H102 5687   5.817   5.099   1.828
   14CHTO   C63 5688   5.844   5.412   1.710
   14CHTO  H120 5689   5.806   5.505   1.752
   14CHTO   N11 5690   5.779   5.409   1.576
   14CHTO  H108 5691   5.814   5.325   1.520
   14CHTO  H109 5692   5.800   5.499   1.523
   14CHTO   C61 5693   6.001   5.424   1.707
   14CHTO  H118 5694   6.024   5.511   1.643
   14CHTO   O40 5695   6.050   5.457   1.840
   14CHTO   C68 5696   6.007   5.375   1.955
   14CHTO  H125 5697   6.020   5.439   2.044
   14CHTO   C72 5698   6.105   5.256   1.972
   14CHTO   O48 5699   6.093   5.192   2.099
   14CHTO  H105 5700   6.010   5.149   2.106
   14CHTO   O38 5701   6.068   5.306   1.658
   14CHTO   C55 5702   6.155   5.314   1.544
   14CHTO  H112 5703   6.160   5.416   1.504
   14CHTO   C56 5704   6.104   5.211   1.433
   14CHTO  H113 5705   6.087   5.115   1.485
   14CHTO   O42 5706   5.975   5.250   1.383
   14CHTO  H100 5707   5.980   5.335   1.343
   14CHTO   C57 5708   6.208   5.192   1.316
   14CHTO  H114 5709   6.211   5.286   1.260
   14CHTO   N10 5710   6.171   5.083   1.221
   14CHTO  H106 5711   6.109   5.122   1.142
   14CHTO  H107 5712   6.118   5.004   1.272
   14CHTO   C58 5713   6.348   5.166   1.376
   14CHTO  H115 5714   6.345   5.071   1.433
   14CHTO   O37 5715   6.385   5.272   1.466
   14CHTO   C59 5716   6.301   5.276   1.584
   14CHTO  H116 5717   6.304   5.179   1.634
   14CHTO   C70 5718   6.360   5.379   1.681
   14CHTO   O46 5719   6.491   5.343   1.727
   14CHTO  H103 5720   6.522   5.408   1.786
   14CHTO   O39 5721   6.463   5.159   1.256
   14CHTO   C60 5722   6.586   5.086   1.277
   14CHTO  H117 5723   6.664   5.157   1.302
   14CHTO   C62 5724   6.583   4.977   1.390
   14CHTO  H119 5725   6.564   5.032   1.484
   14CHTO   O43 5726   6.476   4.883   1.365
   14CHTO  H101 5727   6.393   4.926   1.374
   14CHTO   C66 5728   6.726   4.905   1.400
   14CHTO  H123 5729   6.802   4.981   1.418
   14CHTO   N12 5730   6.735   4.811   1.514
   14CHTO  H110 5731   6.834   4.767   1.518
   14CHTO  H111 5732   6.659   4.735   1.505
   14CHTO   C69 5733   6.756   4.838   1.263
   14CHTO  H126 5734   6.674   4.768   1.239
   14CHTO   O41 5735   6.760   4.947   1.156
   14CHTO   C64 5736   6.627   5.019   1.142
   14CHTO  H121 5737   6.548   4.947   1.113
   14CHTO   C71 5738   6.640   5.123   1.029
   14CHTO   O47 5739   6.662   5.058   0.904
   14CHTO  H104 5740   6.669   5.122   0.836
   14CHTO   O34 5741   6.890   4.761   1.260
   14CHTO   C49 5742   7.030   4.741   1.207
   14CHTO   H91 5743   7.033   4.642   1.162
   14CHTO   C47 5744   7.127   4.748   1.327
   14CHTO   H89 5745   7.227   4.721   1.283
   14CHTO   O33 5746   7.093   4.649   1.425
   14CHTO   H70 5747   7.160   4.645   1.491
   14CHTO   C45 5748   7.130   4.897   1.391
   14CHTO   H87 5749   7.054   4.901   1.471
   14CHTO    N8 5750   7.263   4.918   1.454
   14CHTO   H75 5751   7.263   5.011   1.508
   14CHTO   H76 5752   7.339   4.920   1.378
   14CHTO   C43 5753   7.084   5.007   1.283
   14CHTO   H85 5754   6.975   5.008   1.288
   14CHTO   O29 5755   7.130   4.971   1.152
   14CHTO   C50 5756   7.074   4.848   1.102
   14CHTO   H92 5757   6.985   4.873   1.041
   14CHTO   C54 5758   7.172   4.788   0.998
   14CHTO   O36 5759   7.191   4.875   0.886
   14CHTO   H72 5760   7.251   4.836   0.826
   14CHTO   O27 5761   7.121   5.142   1.317
   14CHTO   C37 5762   7.063   5.272   1.317
   14CHTO   H79 5763   7.142   5.349   1.319
   14CHTO   C38 5764   6.977   5.298   1.189
   14CHTO   H80 5765   6.900   5.219   1.183
   14CHTO   O31 5766   7.064   5.288   1.075
   14CHTO   H68 5767   7.092   5.199   1.064
   14CHTO   C39 5768   6.908   5.439   1.196
   14CHTO   H81 5769   6.987   5.514   1.190
   14CHTO    N7 5770   6.815   5.466   1.080
   14CHTO   H73 5771   6.772   5.565   1.089
   14CHTO   H74 5772   6.869   5.458   0.987
   14CHTO   C40 5773   6.835   5.462   1.334
   14CHTO   H82 5774   6.741   5.406   1.338
   14CHTO   O26 5775   6.922   5.428   1.444
   14CHTO   C41 5776   6.972   5.292   1.442
   14CHTO   H83 5777   6.888   5.221   1.437
   14CHTO   C52 5778   7.048   5.266   1.574
   14CHTO   O35 5779   6.959   5.274   1.690
   14CHTO   H71 5780   7.009   5.258   1.768
   14CHTO   O28 5781   6.807   5.602   1.352
   14CHTO   C42 5782   6.734   5.662   1.464
   14CHTO   H84 5783   6.726   5.767   1.436
   14CHTO   C44 5784   6.805   5.661   1.603
   14CHTO   H86 5785   6.805   5.559   1.642
   14CHTO   O32 5786   6.941   5.703   1.583
   14CHTO   H69 5787   6.945   5.792   1.553
   14CHTO   C48 5788   6.727   5.753   1.705
   14CHTO   H90 5789   6.731   5.855   1.666
   14CHTO    N9 5790   6.791   5.759   1.841
   14CHTO   H77 5791   6.734   5.825   1.905
   14CHTO   H78 5792   6.893   5.795   1.832
   14CHTO   C51 5793   6.575   5.710   1.713
   14CHTO   H93 5794   6.568   5.617   1.770
   14CHTO   O30 5795   6.516   5.698   1.583
   14CHTO   C46 5796   6.590   5.608   1.483
   14CHTO   H88 5797   6.594   5.506   1.521
   14CHTO   C53 5798   6.512   5.611   1.349
   14CHTO   O72 5799   6.383   5.550   1.363
   14CHTO  H199 5800   6.394   5.457   1.374
   14CHTO   O22 5801   6.499   5.815   1.775
   14CHTO   C31 5802   6.388   5.797   1.869
   14CHTO   H59 5803   6.380   5.688   1.888
   14CHTO   C29 5804   6.417   5.865   2.005
   14CHTO   H57 5805   6.450   5.967   1.982
   14CHTO   O21 5806   6.530   5.799   2.066
   14CHTO   H37 5807   6.607   5.809   2.013
   14CHTO   C27 5808   6.291   5.873   2.101
   14CHTO   H55 5809   6.264   5.771   2.131
   14CHTO    N5 5810   6.317   5.954   2.223
   14CHTO   H43 5811   6.400   5.912   2.277
   14CHTO   H44 5812   6.229   5.954   2.285
   14CHTO   C25 5813   6.172   5.931   2.017
   14CHTO   H53 5814   6.200   6.030   1.979
   14CHTO   O17 5815   6.146   5.842   1.905
   14CHTO   C32 5816   6.252   5.842   1.808
   14CHTO   H60 5817   6.263   5.942   1.766
   14CHTO   C36 5818   6.210   5.746   1.693
   14CHTO   O25 5819   6.089   5.789   1.628
   14CHTO   H40 5820   6.104   5.869   1.582
   14CHTO   O15 5821   6.040   5.946   2.098
   14CHTO   C19 5822   5.918   5.877   2.139
   14CHTO   H47 5823   5.875   5.841   2.045
   14CHTO   C20 5824   5.943   5.754   2.233
   14CHTO   H48 5825   5.998   5.783   2.324
   14CHTO   O19 5826   6.025   5.661   2.159
   14CHTO   H35 5827   6.112   5.695   2.150
   14CHTO   C21 5828   5.806   5.688   2.277
   14CHTO   H49 5829   5.756   5.649   2.188
   14CHTO    N4 5830   5.824   5.573   2.371
   14CHTO   H41 5831   5.784   5.483   2.327
   14CHTO   H42 5832   5.928   5.557   2.394
   14CHTO   C22 5833   5.715   5.799   2.336
   14CHTO   H50 5834   5.766   5.841   2.423
   14CHTO   O14 5835   5.694   5.901   2.237
   14CHTO   C23 5836   5.814   5.974   2.202
   14CHTO   H51 5837   5.852   6.021   2.294
   14CHTO   C34 5838   5.776   6.086   2.104
   14CHTO   O23 5839   5.690   6.182   2.166
   14CHTO   H38 5840   5.667   6.248   2.103
   14CHTO   O16 5841   5.583   5.752   2.372
   14CHTO   C24 5842   5.495   5.861   2.458
   14CHTO   H52 5843   5.520   5.964   2.430
   14CHTO   C26 5844   5.519   5.841   2.609
   14CHTO   H54 5845   5.501   5.734   2.633
   14CHTO   O20 5846   5.656   5.870   2.639
   14CHTO   H36 5847   5.676   5.960   2.620
   14CHTO   C30 5848   5.422   5.929   2.695
   14CHTO   H58 5849   5.450   6.035   2.686
   14CHTO    N6 5850   5.434   5.895   2.840
   14CHTO   H45 5851   5.367   5.956   2.898
   14CHTO   H46 5852   5.535   5.912   2.873
   14CHTO   C33 5853   5.274   5.919   2.644
   14CHTO   H61 5854   5.234   5.819   2.669
   14CHTO   O18 5855   5.269   5.936   2.502
   14CHTO   C28 5856   5.345   5.841   2.426
   14CHTO   H56 5857   5.317   5.739   2.452
   14CHTO   C35 5858   5.319   5.863   2.275
   14CHTO   O24 5859   5.185   5.830   2.238
   14CHTO   H39 5860   5.125   5.891   2.276
   14CHTO    O9 5861   5.189   6.014   2.712
   14CHTO   C13 5862   5.054   5.954   2.778
   14CHTO   H26 5863   5.043   5.848   2.745
   14CHTO   C11 5864   4.927   6.041   2.737
   14CHTO   H24 5865   4.918   6.035   2.628
   14CHTO    O8 5866   4.946   6.179   2.771
   14CHTO    H3 5867   4.953   6.190   2.864
   14CHTO    C9 5868   4.802   5.973   2.800
   14CHTO   H22 5869   4.800   5.871   2.759
   14CHTO    N2 5870   4.674   6.033   2.757
   14CHTO   H10 5871   4.665   6.134   2.794
   14CHTO   H11 5872   4.667   6.032   2.649
   14CHTO    C7 5873   4.819   5.963   2.957
   14CHTO   H20 5874   4.735   5.896   2.988
   14CHTO    O4 5875   4.943   5.900   2.995
   14CHTO   C14 5876   5.067   5.945   2.936
   14CHTO   H27 5877   5.143   5.867   2.960
   14CHTO   C18 5878   5.113   6.075   3.010
   14CHTO   O13 5879   5.238   6.127   2.966
   14CHTO    H7 5880   5.307   6.067   2.988
   14CHTO    O2 5881   4.806   6.105   3.034
   14CHTO    C1 5882   4.708   6.113   3.138
   14CHTO   H14 5883   4.634   6.031   3.128
   14CHTO    C2 5884   4.631   6.252   3.132
   14CHTO   H15 5885   4.709   6.329   3.127
   14CHTO    O6 5886   4.554   6.255   3.011
   14CHTO    H1 5887   4.611   6.257   2.936
   14CHTO    C3 5888   4.539   6.276   3.261
   14CHTO   H16 5889   4.457   6.202   3.261
   14CHTO    N1 5890   4.477   6.413   3.261
   14CHTO    H8 5891   4.369   6.405   3.263
   14CHTO    H9 5892   4.511   6.471   3.346
   14CHTO    C4 5893   4.623   6.246   3.390
   14CHTO   H17 5894   4.703   6.320   3.399
   14CHTO    O1 5895   4.679   6.114   3.384
   14CHTO    C5 5896   4.775   6.097   3.278
   14CHTO   H18 5897   4.853   6.173   3.287
   14CHTO   C16 5898   4.840   5.958   3.299
   14CHTO   O11 5899   4.918   5.954   3.419
   14CHTO    H5 5900   4.862   5.958   3.494
   14CHTO    O3 5901   4.542   6.248   3.509
   14CHTO    C6 5902   4.617   6.259   3.635
   14CHTO   H19 5903   4.722   6.231   3.624
   14CHTO    C8 5904   4.613   6.406   3.689
   14CHTO   H21 5905   4.509   6.438   3.692
   14CHTO    O7 5906   4.686   6.488   3.596
   14CHTO    H2 5907   4.641   6.495   3.515
   14CHTO   C12 5908   4.673   6.414   3.835
   14CHTO   H25 5909   4.781   6.390   3.826
   14CHTO    N3 5910   4.663   6.552   3.892
   14CHTO   H12 5911   4.720   6.621   3.830
   14CHTO   H13 5912   4.560   6.583   3.897
   14CHTO   C15 5913   4.606   6.305   3.926
   14CHTO   H28 5914   4.501   6.327   3.945
   14CHTO   O10 5915   4.681   6.286   4.063
   14CHTO    H4 5916   4.632   6.228   4.118
   14CHTO    O5 5917   4.618   6.174   3.867
   14CHTO   C10 5918   4.555   6.162   3.739
   14CHTO   H23 5919   4.449   6.185   3.750
   14CHTO   C17 5920   4.564   6.015   3.693
   14CHTO   O12 5921   4.700   5.970   3.681
   14CHTO    H6 5922   4.700   5.881   3.653
   15CHTO  H203 5923   6.005   4.579   2.365
   15CHTO   O82 5924   5.946   4.557   2.295
   15CHTO  C123 5925   6.007   4.460   2.208
   15CHTO  H227 5926   6.030   4.370   2.267
   15CHTO   O77 5927   5.901   4.432   2.112
   15CHTO  C118 5928   5.932   4.325   2.021
   15CHTO  H222 5929   5.956   4.234   2.076
   15CHTO  C125 5930   5.799   4.302   1.940
   15CHTO   O84 5931   5.800   4.181   1.863
   15CHTO  H205 5932   5.862   4.189   1.793
   15CHTO  C114 5933   6.051   4.368   1.932
   15CHTO  H218 5934   6.022   4.457   1.876
   15CHTO  C116 5935   6.174   4.411   2.019
   15CHTO  H220 5936   6.219   4.321   2.066
   15CHTO   O79 5937   6.273   4.465   1.930
   15CHTO  H201 5938   6.352   4.485   1.977
   15CHTO  C120 5939   6.133   4.514   2.131
   15CHTO  H224 5940   6.109   4.609   2.080
   15CHTO   N21 5941   6.245   4.542   2.225
   15CHTO  H211 5942   6.309   4.455   2.235
   15CHTO  H212 5943   6.303   4.626   2.190
   15CHTO   O75 5944   6.071   4.260   1.838
   15CHTO  C112 5945   6.198   4.146   1.855
   15CHTO  H216 5946   6.247   4.157   1.952
   15CHTO   O73 5947   6.289   4.168   1.746
   15CHTO  C113 5948   6.405   4.083   1.747
   15CHTO  H217 5949   6.461   4.099   1.842
   15CHTO  C124 5950   6.495   4.130   1.631
   15CHTO   O83 5951   6.625   4.070   1.630
   15CHTO  H204 5952   6.674   4.098   1.704
   15CHTO  C109 5953   6.364   3.934   1.733
   15CHTO  H213 5954   6.322   3.922   1.632
   15CHTO  C110 5955   6.258   3.896   1.840
   15CHTO  H214 5956   6.307   3.891   1.937
   15CHTO   O78 5957   6.210   3.763   1.810
   15CHTO  H200 5958   6.151   3.734   1.877
   15CHTO  C111 5959   6.141   3.999   1.844
   15CHTO  H215 5960   6.084   3.992   1.750
   15CHTO   N19 5961   6.045   3.973   1.954
   15CHTO  H207 5962   5.999   3.877   1.941
   15CHTO  H208 5963   6.096   3.977   2.049
   15CHTO   O74 5964   6.482   3.847   1.747
   15CHTO  C115 5965   6.490   3.733   1.629
   15CHTO  H219 5966   6.391   3.709   1.590
   15CHTO   O76 5967   6.574   3.785   1.506
   15CHTO  C122 5968   6.583   3.695   1.395
   15CHTO  H226 5969   6.656   3.736   1.325
   15CHTO  C126 5970   6.446   3.693   1.316
   15CHTO   O85 5971   6.451   3.615   1.197
   15CHTO  H206 5972   6.509   3.656   1.135
   15CHTO  C121 5973   6.629   3.550   1.438
   15CHTO  H225 5974   6.613   3.482   1.352
   15CHTO   O81 5975   6.770   3.552   1.465
   15CHTO  H202 5976   6.802   3.465   1.477
   15CHTO  C119 5977   6.549   3.496   1.560
   15CHTO  H223 5978   6.445   3.489   1.527
   15CHTO  C117 5979   6.553   3.598   1.680
   15CHTO  H221 5980   6.652   3.625   1.717
   15CHTO   N20 5981   6.478   3.548   1.801
   15CHTO  H209 5982   6.546   3.538   1.885
   15CHTO  H210 5983   6.430   3.454   1.781
   15CHTO   O80 5984   6.583   3.340   1.592
   15CHTO  C103 5985   6.469   3.222   1.567
   15CHTO  H190 5986   6.513   3.125   1.592
   15CHTO  C101 5987   6.336   3.237   1.649
   15CHTO  H188 5988   6.295   3.337   1.634
   15CHTO   O68 5989   6.369   3.220   1.802
   15CHTO  H168 5990   6.401   3.133   1.819
   15CHTO   C99 5991   6.226   3.130   1.600
   15CHTO  H186 5992   6.264   3.028   1.623
   15CHTO   N17 5993   6.094   3.143   1.670
   15CHTO  H174 5994   6.029   3.063   1.641
   15CHTO  H175 5995   6.050   3.239   1.648
   15CHTO   C97 5996   6.211   3.136   1.446
   15CHTO  H184 5997   6.164   3.232   1.419
   15CHTO   O64 5998   6.339   3.118   1.383
   15CHTO  C104 5999   6.436   3.220   1.413
   15CHTO  H191 6000   6.402   3.319   1.382
   15CHTO  C108 6001   6.563   3.192   1.331
   15CHTO   O71 6002   6.537   3.202   1.191
   15CHTO  H171 6003   6.616   3.184   1.143
   15CHTO   O62 6004   6.131   3.026   1.396
   15CHTO   C91 6005   6.076   3.039   1.263
   15CHTO  H178 6006   6.110   3.133   1.220
   15CHTO   C92 6007   5.920   3.049   1.271
   15CHTO  H179 6008   5.891   3.127   1.343
   15CHTO   O66 6009   5.872   3.094   1.144
   15CHTO  H166 6010   5.780   3.114   1.148
   15CHTO   C93 6011   5.849   2.911   1.302
   15CHTO  H180 6012   5.747   2.917   1.262
   15CHTO   N16 6013   5.832   2.886   1.448
   15CHTO  H172 6014   5.728   2.870   1.472
   15CHTO  H173 6015   5.892   2.802   1.481
   15CHTO   C94 6016   5.925   2.792   1.231
   15CHTO  H181 6017   5.993   2.740   1.298
   15CHTO   O61 6018   6.006   2.840   1.121
   15CHTO   C95 6019   6.118   2.919   1.164
   15CHTO  H182 6020   6.189   2.854   1.216
   15CHTO  C106 6021   6.191   2.971   1.035
   15CHTO   O69 6022   6.314   3.036   1.068
   15CHTO  H169 6023   6.356   3.064   0.989
   15CHTO   O63 6024   5.819   2.691   1.174
   15CHTO   C96 6025   5.866   2.540   1.188
   15CHTO  H183 6026   5.923   2.531   1.281
   15CHTO   C98 6027   5.955   2.487   1.072
   15CHTO  H185 6028   5.904   2.505   0.976
   15CHTO   O67 6029   6.076   2.565   1.067
   15CHTO  H167 6030   6.125   2.554   1.146
   15CHTO  C102 6031   5.990   2.331   1.088
   15CHTO  H189 6032   6.064   2.324   1.169
   15CHTO   N18 6033   6.057   2.271   0.969
   15CHTO  H176 6034   6.149   2.324   0.948
   15CHTO  H177 6035   6.079   2.167   0.988
   15CHTO  C105 6036   5.865   2.249   1.130
   15CHTO  H192 6037   5.802   2.231   1.043
   15CHTO   O65 6038   5.784   2.313   1.230
   15CHTO  C100 6039   5.741   2.446   1.201
   15CHTO  H187 6040   5.686   2.446   1.106
   15CHTO  C107 6041   5.645   2.494   1.312
   15CHTO   O70 6042   5.523   2.417   1.313
   15CHTO  H170 6043   5.541   2.329   1.340
   15CHTO   O57 6044   5.926   2.102   1.189
   15CHTO   C85 6045   5.937   2.078   1.330
   15CHTO  H157 6046   5.922   2.175   1.382
   15CHTO   C83 6047   6.084   2.035   1.366
   15CHTO  H155 6048   6.150   2.118   1.340
   15CHTO   O56 6049   6.123   1.924   1.283
   15CHTO  H135 6050   6.124   1.949   1.193
   15CHTO   C81 6051   6.093   2.008   1.518
   15CHTO  H153 6052   6.061   2.098   1.571
   15CHTO   N14 6053   6.233   1.986   1.565
   15CHTO  H141 6054   6.234   1.976   1.672
   15CHTO  H142 6055   6.294   2.068   1.537
   15CHTO   C79 6056   5.996   1.890   1.557
   15CHTO  H151 6057   5.999   1.880   1.666
   15CHTO   O52 6058   5.857   1.925   1.522
   15CHTO   C86 6059   5.837   1.968   1.383
   15CHTO  H158 6060   5.847   1.874   1.324
   15CHTO   C90 6061   5.692   2.017   1.362
   15CHTO   O60 6062   5.595   1.913   1.380
   15CHTO  H138 6063   5.603   1.850   1.311
   15CHTO   O50 6064   6.032   1.764   1.500
   15CHTO   C73 6065   6.009   1.624   1.523
   15CHTO  H145 6066   5.904   1.607   1.551
   15CHTO   C74 6067   6.099   1.571   1.640
   15CHTO  H146 6068   6.077   1.633   1.729
   15CHTO   O54 6069   6.055   1.437   1.672
   15CHTO  H133 6070   6.103   1.405   1.746
   15CHTO   C75 6071   6.251   1.580   1.597
   15CHTO  H147 6072   6.276   1.686   1.583
   15CHTO   N13 6073   6.347   1.530   1.699
   15CHTO  H139 6074   6.295   1.495   1.787
   15CHTO  H140 6075   6.416   1.608   1.728
   15CHTO   C76 6076   6.273   1.508   1.456
   15CHTO  H148 6077   6.258   1.401   1.469
   15CHTO   O49 6078   6.178   1.559   1.356
   15CHTO   C77 6079   6.040   1.544   1.394
   15CHTO  H149 6080   6.018   1.438   1.411
   15CHTO   C88 6081   5.950   1.588   1.277
   15CHTO   O58 6082   5.966   1.500   1.162
   15CHTO  H136 6083   5.909   1.528   1.093
   15CHTO   O51 6084   6.423   1.543   1.400
   15CHTO   C78 6085   6.451   1.499   1.251
   15CHTO  H150 6086   6.356   1.489   1.193
   15CHTO   C80 6087   6.526   1.364   1.247
   15CHTO  H152 6088   6.617   1.372   1.310
   15CHTO   O55 6089   6.439   1.265   1.305
   15CHTO  H134 6090   6.484   1.183   1.313
   15CHTO   C84 6091   6.568   1.326   1.099
   15CHTO  H156 6092   6.477   1.310   1.042
   15CHTO   N15 6093   6.648   1.199   1.090
   15CHTO  H143 6094   6.598   1.127   1.030
   15CHTO  H144 6095   6.665   1.158   1.187
   15CHTO   C87 6096   6.644   1.445   1.035
   15CHTO  H159 6097   6.739   1.459   1.087
   15CHTO   O53 6098   6.558   1.573   1.046
   15CHTO   C82 6099   6.535   1.609   1.183
   15CHTO  H154 6100   6.630   1.621   1.235
   15CHTO   C89 6101   6.461   1.745   1.189
   15CHTO   O59 6102   6.539   1.849   1.130
   15CHTO  H137 6103   6.614   1.868   1.184
   15CHTO   O45 6104   6.673   1.421   0.875
   15CHTO   C67 6105   6.777   1.506   0.825
   15CHTO  H124 6106   6.778   1.599   0.883
   15CHTO   C65 6107   6.918   1.437   0.838
   15CHTO  H122 6108   6.900   1.330   0.832
   15CHTO   O44 6109   6.967   1.469   0.970
   15CHTO  H102 6110   6.914   1.429   1.035
   15CHTO   C63 6111   7.013   1.470   0.716
   15CHTO  H120 6112   6.983   1.408   0.631
   15CHTO   N11 6113   7.157   1.431   0.730
   15CHTO  H108 6114   7.204   1.490   0.806
   15CHTO  H109 6115   7.164   1.327   0.756
   15CHTO   C61 6116   6.991   1.619   0.672
   15CHTO  H118 6117   7.055   1.637   0.585
   15CHTO   O40 6118   6.854   1.643   0.629
   15CHTO   C68 6119   6.750   1.550   0.676
   15CHTO  H125 6120   6.750   1.461   0.609
   15CHTO   C72 6121   6.613   1.619   0.660
   15CHTO   O48 6122   6.582   1.648   0.523
   15CHTO  H105 6123   6.499   1.690   0.518
   15CHTO   O38 6124   7.024   1.711   0.779
   15CHTO   C55 6125   7.045   1.848   0.739
   15CHTO  H112 6126   6.999   1.868   0.641
   15CHTO   C56 6127   7.200   1.881   0.739
   15CHTO  H113 6128   7.240   1.853   0.838
   15CHTO   O42 6129   7.267   1.795   0.644
   15CHTO  H100 6130   7.359   1.808   0.648
   15CHTO   C57 6131   7.225   2.034   0.709
   15CHTO  H114 6132   7.191   2.053   0.607
   15CHTO   N10 6133   7.367   2.075   0.717
   15CHTO  H106 6134   7.377   2.179   0.745
   15CHTO  H107 6135   7.420   2.014   0.789
   15CHTO   C58 6136   7.137   2.118   0.806
   15CHTO  H115 6137   7.175   2.104   0.910
   15CHTO   O37 6138   6.999   2.078   0.800
   15CHTO   C59 6139   6.974   1.943   0.840
   15CHTO  H116 6140   7.012   1.927   0.941
   15CHTO   C70 6141   6.823   1.919   0.840
   15CHTO   O46 6142   6.755   2.000   0.937
   15CHTO  H103 6143   6.663   1.982   0.934
   15CHTO   O39 6144   7.138   2.275   0.767
   15CHTO   C60 6145   7.101   2.357   0.880
   15CHTO  H117 6146   7.051   2.297   0.956
   15CHTO   C62 6147   7.228   2.420   0.944
   15CHTO  H119 6148   7.295   2.334   0.970
   15CHTO   O43 6149   7.297   2.504   0.849
   15CHTO  H101 6150   7.332   2.452   0.780
   15CHTO   C66 6151   7.185   2.496   1.079
   15CHTO  H123 6152   7.134   2.424   1.144
   15CHTO   N12 6153   7.303   2.543   1.156
   15CHTO  H110 6154   7.359   2.614   1.098
   15CHTO  H111 6155   7.271   2.587   1.250
   15CHTO   C69 6156   7.084   2.609   1.048
   15CHTO  H126 6157   7.134   2.691   0.991
   15CHTO   O41 6158   6.960   2.551   0.961
   15CHTO   C64 6159   7.002   2.468   0.837
   15CHTO  H121 6160   7.050   2.534   0.762
   15CHTO   C71 6161   6.876   2.406   0.773
   15CHTO   O47 6162   6.793   2.506   0.713
   15CHTO  H104 6163   6.717   2.466   0.675
   15CHTO   O34 6164   7.026   2.669   1.183
   15CHTO   C49 6165   6.955   2.733   1.303
   15CHTO   H91 6166   7.027   2.734   1.386
   15CHTO   C47 6167   6.832   2.647   1.340
   15CHTO   H89 6168   6.799   2.687   1.439
   15CHTO   O33 6169   6.871   2.510   1.359
   15CHTO   H70 6170   6.800   2.460   1.395
   15CHTO   C45 6171   6.714   2.658   1.229
   15CHTO   H87 6172   6.717   2.567   1.166
   15CHTO    N8 6173   6.582   2.661   1.298
   15CHTO   H75 6174   6.593   2.670   1.405
   15CHTO   H76 6175   6.521   2.742   1.261
   15CHTO   C43 6176   6.743   2.779   1.127
   15CHTO   H85 6177   6.823   2.744   1.063
   15CHTO   O29 6178   6.782   2.896   1.201
   15CHTO   C50 6179   6.905   2.879   1.275
   15CHTO   H92 6180   6.984   2.930   1.217
   15CHTO   C54 6181   6.897   2.965   1.404
   15CHTO   O36 6182   6.781   2.935   1.483
   15CHTO   H72 6183   6.788   2.849   1.519
   15CHTO   O27 6184   6.634   2.806   1.037
   15CHTO   C37 6185   6.619   2.738   0.911
   15CHTO   H79 6186   6.688   2.652   0.905
   15CHTO   C38 6187   6.475   2.681   0.895
   15CHTO   H80 6188   6.403   2.764   0.909
   15CHTO   O31 6189   6.454   2.583   0.998
   15CHTO   H68 6190   6.366   2.553   0.997
   15CHTO   C39 6191   6.453   2.617   0.752
   15CHTO   H81 6192   6.512   2.525   0.749
   15CHTO    N7 6193   6.310   2.577   0.726
   15CHTO   H73 6194   6.303   2.471   0.707
   15CHTO   H74 6195   6.246   2.604   0.810
   15CHTO   C40 6196   6.507   2.710   0.636
   15CHTO   H82 6197   6.438   2.793   0.619
   15CHTO   O26 6198   6.639   2.757   0.669
   15CHTO   C41 6199   6.649   2.834   0.792
   15CHTO   H83 6200   6.575   2.916   0.791
   15CHTO   C52 6201   6.791   2.896   0.794
   15CHTO   O35 6202   6.809   2.998   0.900
   15CHTO   H71 6203   6.804   2.957   0.985
   15CHTO   O28 6204   6.523   2.637   0.513
   15CHTO   C42 6205   6.556   2.700   0.384
   15CHTO   H84 6206   6.559   2.615   0.316
   15CHTO   C44 6207   6.698   2.767   0.374
   15CHTO   H86 6208   6.706   2.843   0.452
   15CHTO   O32 6209   6.795   2.663   0.401
   15CHTO   H69 6210   6.881   2.700   0.404
   15CHTO   C48 6211   6.722   2.840   0.236
   15CHTO   H90 6212   6.723   2.764   0.157
   15CHTO    N9 6213   6.856   2.908   0.229
   15CHTO   H77 6214   6.863   2.983   0.307
   15CHTO   H78 6215   6.935   2.836   0.239
   15CHTO   C51 6216   6.602   2.938   0.212
   15CHTO   H93 6217   6.598   3.008   0.295
   15CHTO   O30 6218   6.483   2.858   0.204
   15CHTO   C46 6219   6.443   2.795   0.333
   15CHTO   H88 6220   6.425   2.874   0.406
   15CHTO   C53 6221   6.312   2.720   0.300
   15CHTO   O72 6222   6.245   2.674   0.418
   15CHTO  H199 6223   6.168   2.627   0.393
   15CHTO   O22 6224   6.605   3.008   0.086
   15CHTO   C31 6225   6.545   3.143   0.073
   15CHTO   H59 6226   6.534   3.161   4.745
   15CHTO   C29 6227   6.403   3.158   0.134
   15CHTO   H57 6228   6.409   3.129   0.241
   15CHTO   O21 6229   6.316   3.062   0.071
   15CHTO   H37 6230   6.343   2.974   0.091
   15CHTO   C27 6231   6.347   3.305   0.124
   15CHTO   H55 6232   6.334   3.330   0.018
   15CHTO    N5 6233   6.216   3.323   0.192
   15CHTO   H43 6234   6.220   3.400   0.268
   15CHTO   H44 6235   6.181   3.230   0.236
   15CHTO   C25 6236   6.456   3.403   0.181
   15CHTO   H53 6237   6.473   3.379   0.288
   15CHTO   O17 6238   6.581   3.385   0.109
   15CHTO   C32 6239   6.640   3.255   0.125
   15CHTO   H60 6240   6.660   3.237   0.231
   15CHTO   C36 6241   6.775   3.254   0.050
   15CHTO   O25 6242   6.867   3.348   0.107
   15CHTO   H40 6243   6.893   3.320   0.192
   15CHTO   O15 6244   6.415   3.557   0.168
   15CHTO   C19 6245   6.432   3.659   0.271
   15CHTO   H47 6246   6.416   3.753   0.216
   15CHTO   C20 6247   6.327   3.650   0.386
   15CHTO   H48 6248   6.329   3.551   0.435
   15CHTO   O19 6249   6.198   3.666   0.325
   15CHTO   H35 6250   6.130   3.654   0.389
   15CHTO   C21 6251   6.352   3.761   0.497
   15CHTO   H49 6252   6.333   3.859   0.454
   15CHTO    N4 6253   6.260   3.746   0.613
   15CHTO   H41 6254   6.280   3.824   0.686
   15CHTO   H42 6255   6.157   3.755   0.580
   15CHTO   C22 6256   6.501   3.758   0.540
   15CHTO   H50 6257   6.522   3.663   0.590
   15CHTO   O14 6258   6.586   3.773   0.425
   15CHTO   C23 6259   6.576   3.665   0.329
   15CHTO   H51 6260   6.604   3.572   0.381
   15CHTO   C34 6261   6.680   3.691   0.219
   15CHTO   O23 6262   6.813   3.683   0.270
   15CHTO   H38 6263   6.835   3.594   0.290
   15CHTO   O16 6264   6.539   3.871   0.621
   15CHTO   C24 6265   6.590   3.835   0.771
   15CHTO   H52 6266   6.560   3.734   0.801
   15CHTO   C26 6267   6.530   3.938   0.869
   15CHTO   H54 6268   6.557   4.040   0.833
   15CHTO   O20 6269   6.386   3.927   0.866
   15CHTO   H36 6270   6.353   3.957   0.783
   15CHTO   C30 6271   6.587   3.920   1.013
   15CHTO   H58 6272   6.549   3.825   1.055
   15CHTO    N6 6273   6.539   4.027   1.105
   15CHTO   H45 6274   6.574   4.123   1.070
   15CHTO   H46 6275   6.577   4.010   1.205
   15CHTO   C33 6276   6.742   3.909   1.011
   15CHTO   H61 6277   6.786   4.006   0.981
   15CHTO   O18 6278   6.782   3.810   0.913
   15CHTO   C28 6279   6.745   3.841   0.778
   15CHTO   H56 6280   6.778   3.941   0.751
   15CHTO   C35 6281   6.811   3.738   0.684
   15CHTO   O24 6282   6.954   3.743   0.690
   15CHTO   H39 6283   6.990   3.679   0.632
   15CHTO    O9 6284   6.797   3.879   1.141
   15CHTO   C13 6285   6.960   3.881   1.142
   15CHTO   H26 6286   6.993   3.952   1.064
   15CHTO   C11 6287   7.014   3.735   1.115
   15CHTO   H24 6288   6.993   3.709   1.010
   15CHTO    O8 6289   6.945   3.640   1.199
   15CHTO    H3 6290   6.972   3.553   1.177
   15CHTO    C9 6291   7.168   3.736   1.137
   15CHTO   H22 6292   7.206   3.818   1.074
   15CHTO    N2 6293   7.236   3.617   1.080
   15CHTO   H10 6294   7.302   3.572   1.154
   15CHTO   H11 6295   7.165   3.543   1.046
   15CHTO    C7 6296   7.201   3.771   1.288
   15CHTO   H20 6297   7.288   3.839   1.280
   15CHTO    O4 6298   7.093   3.839   1.355
   15CHTO   C14 6299   7.021   3.938   1.279
   15CHTO   H27 6300   7.093   4.019   1.253
   15CHTO   C18 6301   6.913   4.001   1.370
   15CHTO   O13 6302   6.973   4.076   1.476
   15CHTO    H7 6303   6.906   4.114   1.530
   15CHTO    O2 6304   7.244   3.638   1.382
   15CHTO    C1 6305   7.376   3.641   1.440
   15CHTO   H14 6306   7.427   3.737   1.414
   15CHTO    C2 6307   7.466   3.520   1.390
   15CHTO   H15 6308   7.403   3.430   1.400
   15CHTO    O6 6309   7.498   3.539   1.251
   15CHTO    H1 6310   7.548   3.618   1.239
   15CHTO    C3 6311   7.600   3.504   1.477
   15CHTO   H16 6312   7.667   3.588   1.452
   15CHTO    N1 6313   7.673   3.376   1.442
   15CHTO    H8 6314   7.774   3.399   1.409
   15CHTO    H9 6315   7.676   3.309   1.527
   15CHTO    C4 6316   7.569   3.518   1.630
   15CHTO   H17 6317   7.514   3.430   1.663
   15CHTO    O1 6318   7.494   3.637   1.657
   15CHTO    C5 6319   7.364   3.639   1.595
   15CHTO   H18 6320   7.309   3.549   1.623
   15CHTO   C16 6321   7.287   3.763   1.648
   15CHTO   O11 6322   7.263   3.752   1.789
   15CHTO    H5 6323   7.217   3.828   1.819
   15CHTO    O3 6324   7.692   3.531   1.705
   15CHTO    C6 6325   7.688   3.485   1.844
   15CHTO   H19 6326   7.587   3.486   1.886
   15CHTO    C8 6327   7.743   3.339   1.857
   15CHTO   H21 6328   7.840   3.334   1.807
   15CHTO    O7 6329   7.649   3.252   1.792
   15CHTO    H2 6330   7.651   3.265   1.699
   15CHTO   C12 6331   7.763   3.300   2.010
   15CHTO   H25 6332   7.661   3.299   2.055
   15CHTO    N3 6333   7.820   3.162   2.024
   15CHTO   H12 6334   7.916   3.165   2.074
   15CHTO   H13 6335   7.751   3.099   2.078
   15CHTO   C15 6336   7.847   3.412   2.080
   15CHTO   H28 6337   7.949   3.417   2.041
   15CHTO   O10 6338   7.853   3.396   2.233
   15CHTO    H4 6339   7.899   3.317   2.255
   15CHTO    O5 6340   7.783   3.540   2.066
   15CHTO   C10 6341   7.773   3.584   1.930
   15CHTO   H23 6342   7.873   3.591   1.889
   15CHTO   C17 6343   7.713   3.725   1.929
   15CHTO   O12 6344   7.582   3.729   1.987
   15CHTO    H6 6345   7.521   3.685   1.931
   16CHTO  H203 6346   5.671   3.224   0.223
   16CHTO   O82 6347   5.751   3.176   0.239
   16CHTO  C123 6348   5.798   3.202   0.372
   16CHTO  H227 6349   5.721   3.170   0.444
   16CHTO   O77 6350   5.914   3.114   0.383
   16CHTO  C118 6351   5.976   3.115   0.513
   16CHTO  H222 6352   5.901   3.089   0.589
   16CHTO  C125 6353   6.090   3.006   0.514
   16CHTO   O84 6354   6.191   3.032   0.416
   16CHTO  H205 6355   6.239   3.109   0.439
   16CHTO  C114 6356   6.030   3.256   0.542
   16CHTO  H218 6357   6.104   3.282   0.466
   16CHTO  C116 6358   5.917   3.363   0.533
   16CHTO  H220 6359   5.845   3.348   0.617
   16CHTO   O79 6360   5.976   3.493   0.553
   16CHTO  H201 6361   5.909   3.559   0.555
   16CHTO  C120 6362   5.841   3.352   0.394
   16CHTO  H224 6363   5.914   3.383   0.316
   16CHTO   N21 6364   5.726   3.446   0.388
   16CHTO  H211 6365   5.648   3.407   0.323
   16CHTO  H212 6366   5.759   3.542   0.353
   16CHTO   O75 6367   6.092   3.248   0.672
   16CHTO  C112 6368   6.233   3.330   0.679
   16CHTO  H216 6369   6.222   3.424   0.622
   16CHTO   O73 6370   6.335   3.246   0.622
   16CHTO  C113 6371   6.462   3.312   0.606
   16CHTO  H217 6372   6.449   3.401   0.542
   16CHTO  C124 6373   6.549   3.211   0.530
   16CHTO   O83 6374   6.667   3.271   0.475
   16CHTO  H204 6375   6.644   3.329   0.405
   16CHTO  C109 6376   6.520   3.353   0.746
   16CHTO  H213 6377   6.546   3.259   0.798
   16CHTO  C110 6378   6.413   3.433   0.827
   16CHTO  H214 6379   6.405   3.533   0.783
   16CHTO   O78 6380   6.462   3.452   0.961
   16CHTO  H200 6381   6.472   3.369   1.004
   16CHTO  C111 6382   6.273   3.364   0.827
   16CHTO  H215 6383   6.281   3.269   0.883
   16CHTO   N19 6384   6.167   3.444   0.893
   16CHTO  H207 6385   6.194   3.464   0.996
   16CHTO  H208 6386   6.073   3.391   0.891
   16CHTO   O74 6387   6.640   3.436   0.733
   16CHTO  C115 6388   6.787   3.358   0.746
   16CHTO  H219 6389   6.776   3.249   0.744
   16CHTO   O76 6390   6.882   3.393   0.623
   16CHTO  C122 6391   7.014   3.337   0.626
   16CHTO  H226 6392   7.072   3.386   0.547
   16CHTO  C126 6393   7.011   3.184   0.586
   16CHTO   O85 6394   6.965   3.164   0.452
   16CHTO  H206 6395   6.874   3.188   0.445
   16CHTO  C121 6396   7.088   3.359   0.763
   16CHTO  H225 6397   7.179   3.295   0.765
   16CHTO   O81 6398   7.132   3.495   0.772
   16CHTO  H202 6399   7.195   3.514   0.705
   16CHTO  C119 6400   6.999   3.322   0.885
   16CHTO  H223 6401   6.979   3.215   0.876
   16CHTO  C117 6402   6.860   3.396   0.881
   16CHTO  H221 6403   6.863   3.505   0.882
   16CHTO   N20 6404   6.776   3.358   0.999
   16CHTO  H209 6405   6.682   3.412   0.997
   16CHTO  H210 6406   6.758   3.252   1.000
   16CHTO   O80 6407   7.080   3.329   1.021
   16CHTO  C103 6408   7.115   3.198   1.096
   16CHTO  H190 6409   7.027   3.134   1.104
   16CHTO  C101 6410   7.235   3.115   1.038
   16CHTO  H188 6411   7.319   3.182   1.021
   16CHTO   O68 6412   7.192   3.055   0.900
   16CHTO  H168 6413   7.266   3.013   0.860
   16CHTO   C99 6414   7.281   3.000   1.140
   16CHTO  H186 6415   7.200   2.925   1.148
   16CHTO   N17 6416   7.405   2.926   1.097
   16CHTO  H174 6417   7.448   2.972   1.009
   16CHTO  H175 6418   7.381   2.822   1.079
   16CHTO   C97 6419   7.299   3.058   1.284
   16CHTO  H184 6420   7.389   3.122   1.284
   16CHTO   O64 6421   7.181   3.131   1.324
   16CHTO  C104 6422   7.150   3.245   1.242
   16CHTO  H191 6423   7.234   3.315   1.238
   16CHTO  C108 6424   7.033   3.322   1.306
   16CHTO   O71 6425   7.072   3.382   1.430
   16CHTO  H171 6426   6.998   3.428   1.467
   16CHTO   O62 6427   7.312   2.953   1.382
   16CHTO   C91 6428   7.366   2.992   1.510
   16CHTO  H178 6429   7.439   3.071   1.493
   16CHTO   C92 6430   7.446   2.871   1.570
   16CHTO  H179 6431   7.519   2.834   1.496
   16CHTO   O66 6432   7.525   2.921   1.679
   16CHTO  H166 6433   7.592   2.979   1.648
   16CHTO   C93 6434   7.354   2.755   1.626
   16CHTO  H180 6435   7.408   2.706   1.708
   16CHTO   N16 6436   7.330   2.647   1.527
   16CHTO  H172 6437   7.279   2.687   1.440
   16CHTO  H173 6438   7.272   2.568   1.571
   16CHTO   C94 6439   7.218   2.812   1.681
   16CHTO  H181 6440   7.140   2.814   1.605
   16CHTO   O61 6441   7.235   2.949   1.723
   16CHTO   C95 6442   7.256   3.041   1.615
   16CHTO  H182 6443   7.161   3.057   1.564
   16CHTO  C106 6444   7.295   3.179   1.680
   16CHTO   O69 6445   7.305   3.282   1.582
   16CHTO  H169 6446   7.220   3.302   1.547
   16CHTO   O63 6447   7.172   2.730   1.810
   16CHTO   C96 6448   7.054   2.622   1.785
   16CHTO  H183 6449   7.096   2.541   1.726
   16CHTO   C98 6450   6.927   2.674   1.708
   16CHTO  H185 6451   6.956   2.719   1.612
   16CHTO   O67 6452   6.844   2.561   1.674
   16CHTO  H167 6453   6.888   2.506   1.612
   16CHTO  C102 6454   6.842   2.775   1.797
   16CHTO  H189 6455   6.747   2.787   1.744
   16CHTO   N18 6456   6.899   2.912   1.806
   16CHTO  H176 6457   6.998   2.908   1.850
   16CHTO  H177 6458   6.904   2.957   1.708
   16CHTO  C105 6459   6.814   2.712   1.937
   16CHTO  H192 6460   6.853   2.776   2.017
   16CHTO   O65 6461   6.870   2.581   1.956
   16CHTO  C100 6462   7.011   2.567   1.928
   16CHTO  H187 6463   7.065   2.622   2.006
   16CHTO  C107 6464   7.046   2.417   1.944
   16CHTO   O70 6465   7.186   2.394   1.925
   16CHTO  H170 6466   7.234   2.430   1.997
   16CHTO   O57 6467   6.651   2.706   1.948
   16CHTO   C85 6468   6.573   2.827   1.959
   16CHTO  H157 6469   6.632   2.907   1.910
   16CHTO   C83 6470   6.562   2.871   2.108
   16CHTO  H155 6471   6.662   2.893   2.145
   16CHTO   O56 6472   6.513   2.762   2.189
   16CHTO  H135 6473   6.425   2.740   2.165
   16CHTO   C81 6474   6.477   3.001   2.115
   16CHTO  H153 6475   6.524   3.075   2.050
   16CHTO   N14 6476   6.477   3.065   2.249
   16CHTO  H141 6477   6.425   3.158   2.245
   16CHTO  H142 6478   6.578   3.083   2.281
   16CHTO   C79 6479   6.332   2.972   2.059
   16CHTO  H151 6480   6.278   3.067   2.061
   16CHTO   O52 6481   6.342   2.930   1.920
   16CHTO   C86 6482   6.428   2.814   1.897
   16CHTO  H158 6483   6.373   2.729   1.941
   16CHTO   C90 6484   6.436   2.785   1.745
   16CHTO   O60 6485   6.497   2.892   1.672
   16CHTO  H138 6486   6.441   2.967   1.672
   16CHTO   O50 6487   6.258   2.875   2.135
   16CHTO   C73 6488   6.140   2.804   2.176
   16CHTO  H145 6489   6.168   2.720   2.241
   16CHTO   C74 6490   6.062   2.747   2.053
   16CHTO  H146 6491   6.133   2.684   1.996
   16CHTO   O54 6492   5.960   2.659   2.102
   16CHTO  H133 6493   5.998   2.582   2.141
   16CHTO   C75 6494   6.005   2.865   1.964
   16CHTO  H147 6495   6.090   2.921   1.922
   16CHTO   N13 6496   5.925   2.822   1.847
   16CHTO  H139 6497   5.919   2.714   1.842
   16CHTO  H140 6498   5.969   2.859   1.755
   16CHTO   C76 6499   5.924   2.969   2.056
   16CHTO  H148 6500   5.832   2.921   2.090
   16CHTO   O49 6501   6.005   3.009   2.172
   16CHTO   C77 6502   6.045   2.899   2.255
   16CHTO  H149 6503   5.958   2.843   2.288
   16CHTO   C88 6504   6.111   2.953   2.382
   16CHTO   O58 6505   6.014   3.031   2.462
   16CHTO  H136 6506   6.055   3.063   2.540
   16CHTO   O51 6507   5.895   3.109   1.972
   16CHTO   C78 6508   5.846   3.230   2.067
   16CHTO  H150 6509   5.870   3.209   2.174
   16CHTO   C80 6510   5.694   3.252   2.055
   16CHTO  H152 6511   5.671   3.283   1.950
   16CHTO   O55 6512   5.629   3.127   2.082
   16CHTO  H134 6513   5.645   3.066   2.012
   16CHTO   C84 6514   5.647   3.366   2.154
   16CHTO  H156 6515   5.666   3.330   2.256
   16CHTO   N15 6516   5.500   3.395   2.146
   16CHTO  H143 6517   5.474   3.471   2.217
   16CHTO  H144 6518   5.475   3.429   2.048
   16CHTO   C87 6519   5.732   3.495   2.135
   16CHTO  H159 6520   5.701   3.548   2.044
   16CHTO   O53 6521   5.888   3.459   2.127
   16CHTO   C82 6522   5.918   3.360   2.029
   16CHTO  H154 6523   5.887   3.394   1.930
   16CHTO   C89 6524   6.071   3.339   2.023
   16CHTO   O59 6525   6.136   3.454   1.968
   16CHTO  H137 6526   6.229   3.440   1.965
   16CHTO   O45 6527   5.706   3.595   2.265
   16CHTO   C67 6528   5.808   3.693   2.293
   16CHTO  H124 6529   5.897   3.673   2.233
   16CHTO   C65 6530   5.755   3.837   2.259
   16CHTO  H122 6531   5.648   3.836   2.280
   16CHTO   O44 6532   5.773   3.852   2.117
   16CHTO  H102 6533   5.863   3.866   2.096
   16CHTO   C63 6534   5.813   3.949   2.354
   16CHTO  H120 6535   5.754   3.951   2.445
   16CHTO   N11 6536   5.797   4.091   2.308
   16CHTO  H108 6537   5.889   4.145   2.317
   16CHTO  H109 6538   5.764   4.094   2.207
   16CHTO   C61 6539   5.959   3.910   2.400
   16CHTO  H118 6540   5.991   3.987   2.472
   16CHTO   O40 6541   5.962   3.783   2.471
   16CHTO   C68 6542   5.855   3.686   2.444
   16CHTO  H125 6543   5.770   3.707   2.512
   16CHTO   C72 6544   5.911   3.547   2.484
   16CHTO   O48 6545   5.815   3.441   2.478
   16CHTO  H105 6546   5.789   3.426   2.389
   16CHTO   O38 6547   6.051   3.904   2.289
   16CHTO   C55 6548   6.191   3.909   2.320
   16CHTO  H112 6549   6.208   3.885   2.427
   16CHTO   C56 6550   6.248   4.053   2.283
   16CHTO  H113 6551   6.214   4.076   2.181
   16CHTO   O42 6552   6.188   4.152   2.369
   16CHTO  H100 6553   6.212   4.136   2.458
   16CHTO   C57 6554   6.407   4.056   2.289
   16CHTO  H114 6555   6.435   4.043   2.394
   16CHTO   N10 6556   6.464   4.184   2.241
   16CHTO  H106 6557   6.472   4.254   2.323
   16CHTO  H107 6558   6.563   4.169   2.199
   16CHTO   C58 6559   6.462   3.936   2.208
   16CHTO  H115 6560   6.432   3.947   2.101
   16CHTO   O37 6561   6.408   3.813   2.260
   16CHTO   C59 6562   6.266   3.799   2.240
   16CHTO  H116 6563   6.243   3.806   2.133
   16CHTO   C70 6564   6.226   3.659   2.287
   16CHTO   O46 6565   6.291   3.555   2.214
   16CHTO  H103 6566   6.383   3.554   2.234
   16CHTO   O39 6567   6.624   3.919   2.218
   16CHTO   C60 6568   6.678   3.842   2.110
   16CHTO  H117 6569   6.597   3.797   2.051
   16CHTO   C62 6570   6.761   3.930   2.012
   16CHTO  H119 6571   6.691   4.005   1.971
   16CHTO   O43 6572   6.865   3.998   2.085
   16CHTO  H101 6573   6.912   4.056   2.028
   16CHTO   C66 6574   6.817   3.838   1.892
   16CHTO  H123 6575   6.732   3.789   1.844
   16CHTO   N12 6576   6.885   3.915   1.786
   16CHTO  H110 6577   6.918   3.849   1.707
   16CHTO  H111 6578   6.969   3.970   1.827
   16CHTO   C69 6579   6.907   3.727   1.952
   16CHTO  H126 6580   6.997   3.772   2.000
   16CHTO   O41 6581   6.829   3.648   2.055
   16CHTO   C64 6582   6.764   3.724   2.164
   16CHTO  H121 6583   6.841   3.764   2.234
   16CHTO   C71 6584   6.677   3.623   2.242
   16CHTO   O47 6585   6.755   3.521   2.304
   16CHTO  H104 6586   6.793   3.465   2.238
   16CHTO   O34 6587   6.956   3.623   1.841
   16CHTO   C49 6588   7.047   3.496   1.856
   16CHTO   H91 6589   7.129   3.508   1.784
   16CHTO   C47 6590   6.964   3.371   1.819
   16CHTO   H89 6591   7.036   3.286   1.815
   16CHTO   O33 6592   6.909   3.390   1.687
   16CHTO   H70 6593   6.846   3.459   1.687
   16CHTO   C45 6594   6.854   3.345   1.933
   16CHTO   H87 6595   6.798   3.438   1.947
   16CHTO    N8 6596   6.758   3.237   1.899
   16CHTO   H75 6597   6.708   3.261   1.807
   16CHTO   H76 6598   6.809   3.143   1.890
   16CHTO   C43 6599   6.931   3.318   2.072
   16CHTO   H85 6600   6.852   3.309   2.147
   16CHTO   O29 6601   7.019   3.429   2.102
   16CHTO   C50 6602   7.106   3.482   2.000
   16CHTO   H92 6603   7.133   3.583   2.033
   16CHTO   C54 6604   7.243   3.409   2.005
   16CHTO   O36 6605   7.340   3.469   1.918
   16CHTO   H72 6606   7.316   3.456   1.829
   16CHTO   O27 6607   7.003   3.193   2.074
   16CHTO   C37 6608   7.046   3.105   2.179
   16CHTO   H79 6609   7.098   3.162   2.257
   16CHTO   C38 6610   6.925   3.033   2.248
   16CHTO   H80 6611   6.865   2.984   2.169
   16CHTO   O31 6612   6.845   3.132   2.313
   16CHTO   H68 6613   6.766   3.094   2.346
   16CHTO   C39 6614   6.971   2.924   2.354
   16CHTO   H81 6615   7.008   2.979   2.440
   16CHTO    N7 6616   6.859   2.837   2.403
   16CHTO   H73 6617   6.765   2.864   2.357
   16CHTO   H74 6618   6.851   2.843   2.510
   16CHTO   C40 6619   7.091   2.835   2.302
   16CHTO   H82 6620   7.055   2.753   2.238
   16CHTO   O26 6621   7.191   2.914   2.236
   16CHTO   C41 6622   7.142   2.995   2.125
   16CHTO   H83 6623   7.089   2.931   2.053
   16CHTO   C52 6624   7.266   3.053   2.054
   16CHTO   O35 6625   7.354   2.948   1.996
   16CHTO   H71 6626   7.309   2.905   1.926
   16CHTO   O28 6627   7.169   2.785   2.412
   16CHTO   C42 6628   7.198   2.644   2.441
   16CHTO   H84 6629   7.298   2.648   2.482
   16CHTO   C44 6630   7.206   2.546   2.319
   16CHTO   H86 6631   7.109   2.545   2.268
   16CHTO   O32 6632   7.306   2.600   2.231
   16CHTO   H69 6633   7.311   2.548   2.152
   16CHTO   C48 6634   7.238   2.398   2.366
   16CHTO   H90 6635   7.336   2.399   2.415
   16CHTO    N9 6636   7.252   2.302   2.250
   16CHTO   H77 6637   7.333   2.333   2.186
   16CHTO   H78 6638   7.159   2.298   2.195
   16CHTO   C51 6639   7.129   2.353   2.470
   16CHTO   H93 6640   7.031   2.360   2.422
   16CHTO   O30 6641   7.139   2.439   2.584
   16CHTO   C46 6642   7.105   2.587   2.554
   16CHTO   H88 6643   7.001   2.593   2.522
   16CHTO   C53 6644   7.125   2.663   2.687
   16CHTO   O72 6645   7.079   2.799   2.682
   16CHTO  H199 6646   6.985   2.800   2.674
   16CHTO   O22 6647   7.152   2.219   2.520
   16CHTO   C31 6648   7.045   2.132   2.575
   16CHTO   H59 6649   7.094   2.034   2.594
   16CHTO   C29 6650   6.986   2.179   2.709
   16CHTO   H57 6651   6.938   2.277   2.693
   16CHTO   O21 6652   7.096   2.201   2.800
   16CHTO   H37 6653   7.065   2.240   2.880
   16CHTO   C27 6654   6.879   2.077   2.766
   16CHTO   H55 6655   6.930   1.982   2.789
   16CHTO    N5 6656   6.813   2.125   2.889
   16CHTO   H43 6657   6.887   2.144   2.966
   16CHTO   H44 6658   6.757   2.216   2.869
   16CHTO   C25 6659   6.774   2.044   2.654
   16CHTO   H53 6660   6.713   2.134   2.633
   16CHTO   O17 6661   6.839   2.004   2.530
   16CHTO   C32 6662   6.928   2.102   2.475
   16CHTO   H60 6663   6.873   2.195   2.457
   16CHTO   C36 6664   6.979   2.048   2.340
   16CHTO   O25 6665   6.872   2.038   2.245
   16CHTO   H40 6666   6.905   2.006   2.164
   16CHTO   O15 6667   6.678   1.926   2.697
   16CHTO   C19 6668   6.533   1.922   2.701
   16CHTO   H47 6669   6.504   2.022   2.737
   16CHTO   C20 6670   6.462   1.897   2.563
   16CHTO   H48 6671   6.488   1.798   2.522
   16CHTO   O19 6672   6.510   1.997   2.471
   16CHTO   H35 6673   6.483   2.082   2.499
   16CHTO   C21 6674   6.305   1.902   2.580
   16CHTO   H49 6675   6.277   2.003   2.610
   16CHTO    N4 6676   6.230   1.874   2.454
   16CHTO   H41 6677   6.253   1.774   2.419
   16CHTO   H42 6678   6.124   1.883   2.471
   16CHTO   C22 6679   6.261   1.807   2.695
   16CHTO   H50 6680   6.277   1.704   2.664
   16CHTO   O14 6681   6.335   1.834   2.815
   16CHTO   C23 6682   6.477   1.820   2.805
   16CHTO   H51 6683   6.498   1.716   2.776
   16CHTO   C34 6684   6.538   1.840   2.945
   16CHTO   O23 6685   6.504   1.967   3.003
   16CHTO   H38 6686   6.546   2.036   2.955
   16CHTO   O16 6687   6.124   1.829   2.734
   16CHTO   C24 6688   6.060   1.709   2.813
   16CHTO   H52 6689   6.133   1.632   2.837
   16CHTO   C26 6690   5.948   1.648   2.725
   16CHTO   H54 6691   5.880   1.730   2.693
   16CHTO   O20 6692   6.010   1.592   2.608
   16CHTO   H36 6693   5.944   1.563   2.547
   16CHTO   C30 6694   5.865   1.542   2.804
   16CHTO   H58 6695   5.928   1.454   2.825
   16CHTO    N6 6696   5.750   1.492   2.724
   16CHTO   H45 6697   5.696   1.417   2.780
   16CHTO   H46 6698   5.683   1.573   2.701
   16CHTO   C33 6699   5.821   1.599   2.943
   16CHTO   H61 6700   5.749   1.682   2.928
   16CHTO   O18 6701   5.936   1.650   3.012
   16CHTO   C28 6702   6.001   1.760   2.947
   16CHTO   H56 6703   5.930   1.840   2.927
   16CHTO   C35 6704   6.109   1.815   3.044
   16CHTO   O24 6705   6.208   1.718   3.082
   16CHTO   H39 6706   6.168   1.650   3.134
   16CHTO    O9 6707   5.752   1.501   3.022
   16CHTO   C13 6708   5.667   1.559   3.148
   16CHTO   H26 6709   5.598   1.638   3.110
   16CHTO   C11 6710   5.765   1.614   3.258
   16CHTO   H24 6711   5.815   1.704   3.217
   16CHTO    O8 6712   5.868   1.517   3.286
   16CHTO    H3 6713   5.830   1.440   3.324
   16CHTO    C9 6714   5.682   1.658   3.382
   16CHTO   H22 6715   5.606   1.727   3.343
   16CHTO    N2 6716   5.759   1.737   3.481
   16CHTO   H10 6717   5.836   1.675   3.526
   16CHTO   H11 6718   5.693   1.775   3.557
   16CHTO    C7 6719   5.611   1.532   3.442
   16CHTO   H20 6720   5.544   1.575   3.519
   16CHTO    O4 6721   5.530   1.464   3.344
   16CHTO   C14 6722   5.571   1.444   3.207
   16CHTO   H27 6723   5.477   1.445   3.147
   16CHTO   C18 6724   5.630   1.301   3.195
   16CHTO   O13 6725   5.632   1.253   3.060
   16CHTO    H7 6726   5.544   1.239   3.030
   16CHTO    O2 6727   5.717   1.425   3.512
   16CHTO    C1 6728   5.657   1.318   3.587
   16CHTO   H14 6729   5.573   1.275   3.528
   16CHTO    C2 6730   5.604   1.358   3.732
   16CHTO   H15 6731   5.689   1.405   3.784
   16CHTO    O6 6732   5.497   1.455   3.721
   16CHTO    H1 6733   5.425   1.418   3.673
   16CHTO    C3 6734   5.554   1.228   3.813
   16CHTO   H16 6735   5.461   1.193   3.766
   16CHTO    N1 6736   5.521   1.260   3.956
   16CHTO    H8 6737   5.486   1.171   4.006
   16CHTO    H9 6738   5.609   1.297   4.007
   16CHTO    C4 6739   5.656   1.109   3.800
   16CHTO   H17 6740   5.742   1.129   3.864
   16CHTO    O1 6741   5.698   1.090   3.664
   16CHTO    C5 6742   5.762   1.204   3.605
   16CHTO   H18 6743   5.840   1.241   3.671
   16CHTO   C16 6744   5.827   1.159   3.472
   16CHTO   O11 6745   5.933   1.066   3.496
   16CHTO    H5 6746   5.970   1.039   3.414
   16CHTO    O3 6747   5.594   0.983   3.834
   16CHTO    C6 6748   5.674   0.874   3.893
   16CHTO   H19 6749   5.624   0.778   3.876
   16CHTO    C8 6750   5.818   0.859   3.833
   16CHTO   H21 6751   5.869   0.955   3.839
   16CHTO    O7 6752   5.802   0.820   3.695
   16CHTO    H2 6753   5.885   0.819   3.652
   16CHTO   C12 6754   5.902   0.752   3.914
   16CHTO   H25 6755   5.854   0.653   3.895
   16CHTO    N3 6756   6.044   0.742   3.863
   16CHTO   H12 6757   6.064   0.642   3.828
   16CHTO   H13 6758   6.063   0.815   3.785
   16CHTO   C15 6759   5.894   0.784   4.067
   16CHTO   H28 6760   5.946   0.877   4.093
   16CHTO   O10 6761   5.949   0.669   4.156
   16CHTO    H4 6762   5.951   0.695   4.246
   16CHTO    O5 6763   5.757   0.790   4.110
   16CHTO   C10 6764   5.680   0.894   4.047
   16CHTO   H23 6765   5.724   0.990   4.071
   16CHTO   C17 6766   5.539   0.891   4.108
   16CHTO   O12 6767   5.542   0.917   4.249
   16CHTO    H6 6768   5.455   0.913   4.283
   17CHTO  H203 6769   6.384   3.947   4.623
   17CHTO   O82 6770   6.387   4.034   4.657
   17CHTO  C123 6771   6.256   4.094   4.651
   17CHTO  H227 6772   6.186   4.032   4.710
   17CHTO   O77 6773   6.276   4.223   4.716
   17CHTO  C118 6774   6.158   4.303   4.727
   17CHTO  H222 6775   6.080   4.247   0.001
   17CHTO  C125 6776   6.192   4.434   0.026
   17CHTO   O84 6777   6.227   4.407   0.162
   17CHTO  H205 6778   6.152   4.375   0.209
   17CHTO  C114 6779   6.107   4.338   4.586
   17CHTO  H218 6780   6.186   4.392   4.534
   17CHTO  C116 6781   6.080   4.209   4.502
   17CHTO  H220 6782   5.991   4.156   4.545
   17CHTO   O79 6783   6.043   4.249   4.369
   17CHTO  H201 6784   5.960   4.293   4.369
   17CHTO  C120 6785   6.206   4.114   4.503
   17CHTO  H224 6786   6.284   4.166   4.443
   17CHTO   N21 6787   6.179   3.984   4.434
   17CHTO  H211 6788   6.107   3.998   4.354
   17CHTO  H212 6789   6.141   3.911   4.505
   17CHTO   O75 6790   5.991   4.421   4.607
   17CHTO  C112 6791   5.962   4.534   4.489
   17CHTO  H216 6792   5.911   4.486   4.405
   17CHTO   O73 6793   6.089   4.590   4.449
   17CHTO  C113 6794   6.079   4.691   4.348
   17CHTO  H217 6795   6.021   4.651   4.262
   17CHTO  C124 6796   6.220   4.721   4.298
   17CHTO   O83 6797   6.284   4.605   4.243
   17CHTO  H204 6798   6.303   4.544   4.311
   17CHTO  C109 6799   6.008   4.814   4.410
   17CHTO  H213 6800   6.066   4.843   4.499
   17CHTO  C110 6801   5.865   4.771   4.453
   17CHTO  H214 6802   5.808   4.745   4.363
   17CHTO   O78 6803   5.800   4.884   4.514
   17CHTO  H200 6804   5.711   4.864   4.534
   17CHTO  C111 6805   5.871   4.649   4.549
   17CHTO  H215 6806   5.918   4.681   4.643
   17CHTO   N19 6807   5.738   4.594   4.585
   17CHTO  H207 6808   5.687   4.559   4.496
   17CHTO  H208 6809   5.748   4.513   4.655
   17CHTO   O74 6810   6.005   4.926   4.316
   17CHTO  C115 6811   6.075   5.058   4.373
   17CHTO  H219 6812   6.069   5.063   4.482
   17CHTO   O76 6813   6.231   5.059   4.341
   17CHTO  C122 6814   6.261   5.097   4.206
   17CHTO  H226 6815   6.213   5.023   4.140
   17CHTO  C126 6816   6.415   5.081   4.180
   17CHTO   O85 6817   6.495   5.162   4.268
   17CHTO  H206 6818   6.586   5.148   4.249
   17CHTO  C121 6819   6.209   5.243   4.172
   17CHTO  H225 6820   6.296   5.313   4.169
   17CHTO   O81 6821   6.149   5.243   4.041
   17CHTO  H202 6822   6.213   5.223   3.976
   17CHTO  C119 6823   6.107   5.294   4.278
   17CHTO  H223 6824   6.165   5.310   4.369
   17CHTO  C117 6825   6.001   5.183   4.310
   17CHTO  H221 6826   5.945   5.145   4.224
   17CHTO   N20 6827   5.895   5.234   4.404
   17CHTO  H209 6828   5.823   5.156   4.423
   17CHTO  H210 6829   5.846   5.320   4.361
   17CHTO   O80 6830   6.055   5.442   4.247
   17CHTO  C103 6831   6.152   5.560   4.266
   17CHTO  H190 6832   6.246   5.526   4.310
   17CHTO  C101 6833   6.185   5.642   4.136
   17CHTO  H188 6834   6.091   5.672   4.089
   17CHTO   O68 6835   6.262   5.551   4.037
   17CHTO  H168 6836   6.208   5.479   4.011
   17CHTO   C99 6837   6.268   5.774   4.173
   17CHTO  H186 6838   6.366   5.744   4.214
   17CHTO   N17 6839   6.296   5.864   4.056
   17CHTO  H174 6840   6.361   5.944   4.086
   17CHTO  H175 6841   6.203   5.902   4.015
   17CHTO   C97 6842   6.197   5.852   4.288
   17CHTO  H184 6843   6.104   5.896   4.248
   17CHTO   O64 6844   6.171   5.765   4.400
   17CHTO  C104 6845   6.083   5.655   4.371
   17CHTO  H191 6846   5.987   5.689   4.332
   17CHTO  C108 6847   6.052   5.582   4.502
   17CHTO   O71 6848   5.983   5.667   4.595
   17CHTO  H171 6849   5.964   5.619   4.673
   17CHTO   O62 6850   6.281   5.955   4.344
   17CHTO   C91 6851   6.215   6.064   4.410
   17CHTO  H178 6852   6.121   6.084   4.357
   17CHTO   C92 6853   6.303   6.191   4.392
   17CHTO  H179 6854   6.334   6.201   4.287
   17CHTO   O66 6855   6.222   6.307   4.417
   17CHTO  H166 6856   6.188   6.307   4.504
   17CHTO   C93 6857   6.427   6.196   4.490
   17CHTO  H180 6858   6.461   6.300   4.493
   17CHTO   N16 6859   6.543   6.119   4.439
   17CHTO  H172 6860   6.626   6.128   4.507
   17CHTO  H173 6861   6.516   6.015   4.426
   17CHTO   C94 6862   6.387   6.151   4.637
   17CHTO  H181 6863   6.427   6.053   4.662
   17CHTO   O61 6864   6.244   6.139   4.652
   17CHTO   C95 6865   6.185   6.040   4.566
   17CHTO  H182 6866   6.223   5.942   4.594
   17CHTO  C106 6867   6.030   6.037   4.593
   17CHTO   O69 6868   6.001   5.990   4.725
   17CHTO  H169 6869   6.022   5.899   4.732
   17CHTO   O63 6870   6.449   6.262   4.741
   17CHTO   C96 6871   6.347   6.335   0.060
   17CHTO  H183 6872   6.262   6.269   0.077
   17CHTO   C98 6873   6.294   6.472   0.010
   17CHTO  H185 6874   6.378   6.535   4.760
   17CHTO   O67 6875   6.218   6.447   4.672
   17CHTO  H167 6876   6.190   6.528   4.633
   17CHTO  C102 6877   6.204   6.547   0.120
   17CHTO  H189 6878   6.112   6.488   0.129
   17CHTO   N18 6879   6.162   6.684   0.082
   17CHTO  H176 6880   6.100   6.727   0.160
   17CHTO  H177 6881   6.106   6.681   4.771
   17CHTO  C105 6882   6.275   6.543   0.259
   17CHTO  H192 6883   6.359   6.613   0.258
   17CHTO   O65 6884   6.326   6.413   0.294
   17CHTO  C100 6885   6.417   6.357   0.199
   17CHTO  H187 6886   6.501   6.427   0.186
   17CHTO  C107 6887   6.475   6.225   0.258
   17CHTO   O70 6888   6.372   6.129   0.287
   17CHTO  H170 6889   6.334   6.099   0.207
   17CHTO   O57 6890   6.164   6.585   0.369
   17CHTO   C85 6891   6.201   6.685   0.465
   17CHTO  H157 6892   6.267   6.757   0.412
   17CHTO   C83 6893   6.288   6.624   0.579
   17CHTO  H155 6894   6.377   6.579   0.533
   17CHTO   O56 6895   6.215   6.516   0.641
   17CHTO  H135 6896   6.270   6.471   0.703
   17CHTO   C81 6897   6.334   6.736   0.677
   17CHTO  H153 6898   6.394   6.807   0.620
   17CHTO   N14 6899   6.427   6.687   0.781
   17CHTO  H141 6900   6.376   6.621   0.848
   17CHTO  H142 6901   6.466   6.769   0.837
   17CHTO   C79 6902   6.210   6.815   0.735
   17CHTO  H151 6903   6.249   6.906   0.781
   17CHTO   O52 6904   6.120   6.860   0.627
   17CHTO   C86 6905   6.079   6.757   0.533
   17CHTO  H158 6906   6.017   6.686   0.592
   17CHTO   C90 6907   5.984   6.818   0.426
   17CHTO   O60 6908   5.865   6.871   0.486
   17CHTO  H138 6909   5.813   6.801   0.520
   17CHTO   O50 6910   6.134   6.746   0.834
   17CHTO   C73 6911   6.065   6.813   0.941
   17CHTO  H145 6912   6.046   6.918   0.915
   17CHTO   C74 6913   6.148   6.809   1.073
   17CHTO  H146 6914   6.243   6.860   1.052
   17CHTO   O54 6915   6.080   6.889   1.172
   17CHTO  H133 6916   6.131   6.893   1.250
   17CHTO   C75 6917   6.170   6.658   1.114
   17CHTO  H147 6918   6.234   6.611   1.038
   17CHTO   N13 6919   6.244   6.640   1.241
   17CHTO  H139 6920   6.343   6.684   1.233
   17CHTO  H140 6921   6.192   6.688   1.322
   17CHTO   C76 6922   6.032   6.576   1.114
   17CHTO  H148 6923   5.976   6.601   1.205
   17CHTO   O49 6924   5.949   6.604   0.997
   17CHTO   C77 6925   5.928   6.743   0.964
   17CHTO  H149 6926   5.876   6.793   1.046
   17CHTO   C88 6927   5.837   6.751   0.842
   17CHTO   O58 6928   5.810   6.894   0.801
   17CHTO  H136 6929   5.762   6.938   0.868
   17CHTO   O51 6930   6.069   6.417   1.105
   17CHTO   C78 6931   5.951   6.321   1.069
   17CHTO  H150 6932   5.861   6.377   1.037
   17CHTO   C80 6933   5.915   6.234   1.191
   17CHTO  H152 6934   6.008   6.184   1.226
   17CHTO   O55 6935   5.869   6.322   1.295
   17CHTO  H134 6936   5.940   6.374   1.328
   17CHTO   C84 6937   5.808   6.124   1.154
   17CHTO  H156 6938   5.715   6.175   1.129
   17CHTO   N15 6939   5.779   6.032   1.269
   17CHTO  H143 6940   5.742   6.088   1.352
   17CHTO  H144 6941   5.705   5.960   1.240
   17CHTO   C87 6942   5.856   6.045   1.029
   17CHTO  H159 6943   5.946   5.988   1.055
   17CHTO   O53 6944   5.887   6.143   0.916
   17CHTO   C82 6945   5.994   6.232   0.950
   17CHTO  H154 6946   6.083   6.175   0.976
   17CHTO   C89 6947   6.031   6.317   0.826
   17CHTO   O59 6948   5.922   6.398   0.781
   17CHTO  H137 6949   5.949   6.448   0.706
   17CHTO   O45 6950   5.742   5.947   0.973
   17CHTO   C67 6951   5.790   5.818   0.932
   17CHTO  H124 6952   5.895   5.804   0.960
   17CHTO   C65 6953   5.704   5.708   1.001
   17CHTO  H122 6954   5.699   5.736   1.106
   17CHTO   O44 6955   5.771   5.580   0.991
   17CHTO  H102 6956   5.773   5.551   0.902
   17CHTO   C63 6957   5.557   5.714   0.946
   17CHTO  H120 6958   5.519   5.815   0.961
   17CHTO   N11 6959   5.457   5.632   1.021
   17CHTO  H108 6960   5.462   5.655   1.125
   17CHTO  H109 6961   5.359   5.652   0.984
   17CHTO   C61 6962   5.559   5.690   0.790
   17CHTO  H118 6963   5.457   5.714   0.756
   17CHTO   O40 6964   5.649   5.783   0.722
   17CHTO   C68 6965   5.785   5.806   0.774
   17CHTO  H125 6966   5.817   5.904   0.733
   17CHTO   C72 6967   5.881   5.699   0.715
   17CHTO   O48 6968   6.018   5.722   0.751
   17CHTO  H105 6969   6.072   5.655   0.712
   17CHTO   O38 6970   5.595   5.555   0.751
   17CHTO   C55 6971   5.524   5.491   0.643
   17CHTO  H112 6972   5.583   5.401   0.621
   17CHTO   C56 6973   5.505   5.582   0.513
   17CHTO  H113 6974   5.458   5.676   0.544
   17CHTO   O42 6975   5.634   5.615   0.460
   17CHTO  H100 6976   5.681   5.670   0.520
   17CHTO   C57 6977   5.415   5.509   0.404
   17CHTO  H114 6978   5.472   5.423   0.368
   17CHTO   N10 6979   5.383   5.594   0.287
   17CHTO  H106 6980   5.369   5.533   0.200
   17CHTO  H107 6981   5.463   5.664   0.268
   17CHTO   C58 6982   5.285   5.459   0.472
   17CHTO  H115 6983   5.226   5.546   0.509
   17CHTO   O37 6984   5.317   5.373   0.583
   17CHTO   C59 6985   5.386   5.437   0.691
   17CHTO  H116 6986   5.325   5.518   0.731
   17CHTO   C70 6987   5.406   5.331   0.801
   17CHTO   O46 6988   5.282   5.287   0.858
   17CHTO  H103 6989   5.242   5.356   0.907
   17CHTO   O39 6990   5.195   5.365   0.371
   17CHTO   C60 6991   5.054   5.391   0.376
   17CHTO  H117 6992   5.031   5.466   0.452
   17CHTO   C62 6993   5.004   5.446   0.239
   17CHTO  H119 6994   5.061   5.540   0.220
   17CHTO   O43 6995   5.036   5.352   0.134
   17CHTO  H101 6996   5.129   5.346   0.123
   17CHTO   C66 6997   4.847   5.479   0.247
   17CHTO  H123 6998   4.831   5.548   0.330
   17CHTO   N12 6999   4.796   5.549   0.127
   17CHTO  H110 7000   4.848   5.643   0.113
   17CHTO  H111 7001   4.808   5.485   0.040
   17CHTO   C69 7002   4.768   5.350   0.281
   17CHTO  H126 7003   4.778   5.276   0.198
   17CHTO   O41 7004   4.824   5.287   0.413
   17CHTO   C64 7005   4.976   5.262   0.414
   17CHTO  H121 7006   5.001   5.181   0.343
   17CHTO   C71 7007   5.015   5.215   0.556
   17CHTO   O47 7008   4.946   5.095   0.593
   17CHTO  H104 7009   4.855   5.113   0.606
   17CHTO   O34 7010   4.617   5.380   0.304
   17CHTO   C49 7011   4.521   5.473   0.384
   17CHTO   H91 7012   4.541   5.574   0.349
   17CHTO   C47 7013   4.549   5.461   0.535
   17CHTO   H89 7014   4.485   5.541   0.581
   17CHTO   O33 7015   4.686   5.493   0.566
   17CHTO   H70 7016   4.705   5.582   0.543
   17CHTO   C45 7017   4.511   5.314   0.591
   17CHTO   H87 7018   4.603   5.255   0.599
   17CHTO    N8 7019   4.453   5.328   0.727
   17CHTO   H75 7020   4.522   5.380   0.792
   17CHTO   H76 7021   4.430   5.231   0.768
   17CHTO   C43 7022   4.420   5.234   0.484
   17CHTO   H85 7023   4.490   5.201   0.408
   17CHTO   O29 7024   4.319   5.321   0.430
   17CHTO   C50 7025   4.371   5.437   0.360
   17CHTO   H92 7026   4.356   5.421   0.253
   17CHTO   C54 7027   4.276   5.556   0.392
   17CHTO   O36 7028   4.313   5.675   0.322
   17CHTO   H72 7029   4.394   5.708   0.356
   17CHTO   O27 7030   4.365   5.111   0.536
   17CHTO   C37 7031   4.398   4.975   0.503
   17CHTO   H79 7032   4.337   4.907   0.564
   17CHTO   C38 7033   4.364   4.944   0.354
   17CHTO   H80 7034   4.398   5.029   0.292
   17CHTO   O31 7035   4.221   4.936   0.345
   17CHTO   H68 7036   4.194   4.928   0.255
   17CHTO   C39 7037   4.432   4.811   0.301
   17CHTO   H81 7038   4.386   4.727   0.353
   17CHTO    N7 7039   4.410   4.790   0.153
   17CHTO   H73 7040   4.504   4.789   0.099
   17CHTO   H74 7041   4.356   4.698   0.136
   17CHTO   C40 7042   4.584   4.813   0.340
   17CHTO   H82 7043   4.632   4.899   0.292
   17CHTO   O26 7044   4.594   4.821   0.483
   17CHTO   C41 7045   4.549   4.949   0.536
   17CHTO   H83 7046   4.611   5.029   0.494
   17CHTO   C52 7047   4.572   4.946   0.689
   17CHTO   O35 7048   4.716   4.931   0.724
   17CHTO   H71 7049   4.763   5.007   0.697
   17CHTO   O28 7050   4.656   4.693   0.305
   17CHTO   C42 7051   4.800   4.700   0.274
   17CHTO   H84 7052   4.830   4.596   0.269
   17CHTO   C44 7053   4.892   4.766   0.382
   17CHTO   H86 7054   4.857   4.868   0.400
   17CHTO   O32 7055   4.876   4.692   0.504
   17CHTO   H69 7056   4.907   4.604   0.494
   17CHTO   C48 7057   5.044   4.774   0.336
   17CHTO   H90 7058   5.083   4.672   0.330
   17CHTO    N9 7059   5.131   4.847   0.434
   17CHTO   H77 7060   5.127   4.797   0.530
   17CHTO   H78 7061   5.233   4.850   0.398
   17CHTO   C51 7062   5.050   4.838   0.192
   17CHTO   H93 7063   5.012   4.940   0.198
   17CHTO   O30 7064   4.971   4.756   0.105
   17CHTO   C46 7065   4.827   4.762   0.133
   17CHTO   H88 7066   4.795   4.867   0.133
   17CHTO   C53 7067   4.754   4.685   0.021
   17CHTO   O72 7068   4.774   4.748   4.675
   17CHTO  H199 7069   4.731   4.698   4.608
   17CHTO   O22 7070   5.182   4.836   0.134
   17CHTO   C31 7071   5.219   4.932   0.027
   17CHTO   H59 7072   5.313   4.892   4.764
   17CHTO   C29 7073   5.117   4.946   4.693
   17CHTO   H57 7074   5.022   4.981   4.736
   17CHTO   O21 7075   5.092   4.816   4.638
   17CHTO   H37 7076   5.168   4.782   4.595
   17CHTO   C27 7077   5.165   5.050   4.583
   17CHTO   H55 7078   5.256   5.011   4.536
   17CHTO    N5 7079   5.063   5.072   4.477
   17CHTO   H43 7080   5.103   5.138   4.401
   17CHTO   H44 7081   4.973   5.114   4.519
   17CHTO   C25 7082   5.203   5.184   4.655
   17CHTO   H53 7083   5.112   5.227   4.701
   17CHTO   O17 7084   5.301   5.159   4.760
   17CHTO   C32 7085   5.256   5.073   0.084
   17CHTO   H60 7086   5.168   5.115   0.132
   17CHTO   C36 7087   5.369   5.061   0.189
   17CHTO   O25 7088   5.400   5.189   0.247
   17CHTO   H40 7089   5.469   5.178   0.310
   17CHTO   O15 7090   5.264   5.287   4.557
   17CHTO   C19 7091   5.279   5.431   4.572
   17CHTO   H47 7092   5.315   5.464   4.473
   17CHTO   C20 7093   5.148   5.508   4.605
   17CHTO   H48 7094   5.108   5.479   4.704
   17CHTO   O19 7095   5.052   5.472   4.505
   17CHTO   H35 7096   4.968   5.508   4.526
   17CHTO   C21 7097   5.173   5.665   4.606
   17CHTO   H49 7098   5.196   5.696   4.504
   17CHTO    N4 7099   5.052   5.742   4.647
   17CHTO   H41 7100   5.071   5.800   4.737
   17CHTO   H42 7101   5.022   5.809   4.568
   17CHTO   C22 7102   5.297   5.699   4.692
   17CHTO   H50 7103   5.272   5.692   0.017
   17CHTO   O14 7104   5.410   5.614   4.663
   17CHTO   C23 7105   5.388   5.473   4.674
   17CHTO   H51 7106   5.358   5.451   4.778
   17CHTO   C34 7107   5.522   5.402   4.648
   17CHTO   O23 7108   5.620   5.437   4.746
   17CHTO   H38 7109   5.645   5.527   4.735
   17CHTO   O16 7110   5.347   5.830   4.658
   17CHTO   C24 7111   5.403   5.920   4.778
   17CHTO   H52 7112   5.381   5.875   0.094
   17CHTO   C26 7113   5.334   6.057   4.767
   17CHTO   H54 7114   5.339   6.090   4.661
   17CHTO   O20 7115   5.195   6.039   0.020
   17CHTO   H36 7116   5.147   6.118   0.005
   17CHTO   C30 7117   5.402   6.167   0.074
   17CHTO   H58 7118   5.383   6.147   0.180
   17CHTO    N6 7119   5.343   6.301   0.046
   17CHTO   H45 7120   5.302   6.344   0.136
   17CHTO   H46 7121   5.417   6.369   0.005
   17CHTO   C33 7122   5.557   6.164   0.056
   17CHTO   H61 7123   5.584   6.194   4.735
   17CHTO   O18 7124   5.603   6.030   0.079
   17CHTO   C28 7125   5.557   5.932   4.767
   17CHTO   H56 7126   5.582   5.961   4.665
   17CHTO   C35 7127   5.627   5.800   0.021
   17CHTO   O24 7128   5.767   5.805   4.776
   17CHTO   H39 7129   5.806   5.723   0.017
   17CHTO    O9 7130   5.625   6.258   0.143
   17CHTO   C13 7131   5.787   6.274   0.108
   17CHTO   H26 7132   5.804   6.246   0.002
   17CHTO   C11 7133   5.879   6.186   0.209
   17CHTO   H24 7134   5.957   6.138   0.148
   17CHTO    O8 7135   5.799   6.081   0.264
   17CHTO    H3 7136   5.767   6.025   0.196
   17CHTO    C9 7137   5.953   6.274   0.314
   17CHTO   H22 7138   6.037   6.321   0.260
   17CHTO    N2 7139   6.021   6.201   0.424
   17CHTO   H10 7140   6.080   6.270   0.483
   17CHTO   H11 7141   6.084   6.123   0.383
   17CHTO    C7 7142   5.857   6.389   0.359
   17CHTO   H20 7143   5.906   6.440   0.446
   17CHTO    O4 7144   5.844   6.483   0.251
   17CHTO   C14 7145   5.824   6.430   0.118
   17CHTO   H27 7146   5.920   6.443   0.064
   17CHTO   C18 7147   5.721   6.521   0.045
   17CHTO   O13 7148   5.600   6.539   0.119
   17CHTO    H7 7149   5.552   6.458   0.123
   17CHTO    O2 7150   5.706   6.335   0.399
   17CHTO    C1 7151   5.675   6.327   0.539
   17CHTO   H14 7152   5.767   6.337   0.599
   17CHTO    C2 7153   5.605   6.189   0.577
   17CHTO   H15 7154   5.523   6.175   0.504
   17CHTO    O6 7155   5.701   6.084   0.562
   17CHTO    H1 7156   5.659   6.000   0.573
   17CHTO    C3 7157   5.544   6.192   0.727
   17CHTO   H16 7158   5.627   6.195   0.799
   17CHTO    N1 7159   5.463   6.069   0.757
   17CHTO    H8 7160   5.360   6.095   0.779
   17CHTO    H9 7161   5.505   6.016   0.841
   17CHTO    C4 7162   5.464   6.325   0.748
   17CHTO   H17 7163   5.377   6.325   0.682
   17CHTO    O1 7164   5.549   6.437   0.717
   17CHTO    C5 7165   5.582   6.446   0.578
   17CHTO   H18 7166   5.491   6.441   0.517
   17CHTO   C16 7167   5.646   6.585   0.559
   17CHTO   O11 7168   5.650   6.624   0.421
   17CHTO    H5 7169   5.691   6.708   0.413
   17CHTO    O3 7170   5.421   6.343   0.885
   17CHTO    C6 7171   5.340   6.464   0.906
   17CHTO   H19 7172   5.347   6.535   0.824
   17CHTO    C8 7173   5.189   6.428   0.923
   17CHTO   H21 7174   5.178   6.359   1.006
   17CHTO    O7 7175   5.146   6.364   0.801
   17CHTO    H2 7176   5.057   6.335   0.810
   17CHTO   C12 7177   5.106   6.560   0.954
   17CHTO   H25 7178   5.111   6.622   0.862
   17CHTO    N3 7179   4.961   6.529   0.978
   17CHTO   H12 7180   4.950   6.465   1.064
   17CHTO   H13 7181   4.906   6.621   0.993
   17CHTO   C15 7182   5.173   6.639   1.072
   17CHTO   H28 7183   5.157   6.590   1.168
   17CHTO   O10 7184   5.124   6.784   1.079
   17CHTO    H4 7185   5.033   6.786   1.100
   17CHTO    O5 7186   5.314   6.659   1.051
   17CHTO   C10 7187   5.389   6.538   1.034
   17CHTO   H23 7188   5.376   6.476   1.123
   17CHTO   C17 7189   5.537   6.580   1.028
   17CHTO   O12 7190   5.626   6.468   1.034
   17CHTO    H6 7191   5.623   6.429   1.119
   18CHTO  H203 7192   6.830   7.299   1.385
   18CHTO   O82 7193   6.824   7.323   1.295
   18CHTO  C123 7194   6.780   7.210   1.217
   18CHTO  H227 7195   6.682   7.176   1.255
   18CHTO   O77 7196   6.765   7.267   1.084
   18CHTO  C118 7197   6.717   7.175   0.984
   18CHTO  H222 7198   6.620   7.133   1.016
   18CHTO  C125 7199   6.695   7.256   0.851
   18CHTO   O84 7200   6.815   7.319   0.804
   18CHTO  H205 7201   6.876   7.253   0.776
   18CHTO  C114 7202   6.819   7.061   0.966
   18CHTO  H218 7203   6.914   7.104   0.934
   18CHTO  C116 7204   6.844   6.988   1.101
   18CHTO  H220 7205   6.752   6.934   1.132
   18CHTO   O79 7206   6.946   6.888   1.080
   18CHTO  H201 7207   6.958   6.838   1.158
   18CHTO  C120 7208   6.885   7.092   1.214
   18CHTO  H224 7209   6.985   7.132   1.185
   18CHTO   N21 7210   6.900   7.028   1.347
   18CHTO  H211 7211   6.972   7.083   1.406
   18CHTO  H212 7212   6.931   6.925   1.336
   18CHTO   O75 7213   6.764   6.975   0.864
   18CHTO  C112 7214   6.873   6.944   0.745
   18CHTO  H216 7215   6.973   6.940   0.789
   18CHTO   O73 7216   6.861   7.048   0.647
   18CHTO  C113 7217   6.961   7.042   0.544
   18CHTO  H217 7218   7.062   7.048   0.590
   18CHTO  C124 7219   6.944   7.166   0.455
   18CHTO   O83 7220   6.967   7.289   0.525
   18CHTO  H204 7221   6.899   7.303   0.589
   18CHTO  C109 7222   6.949   6.911   0.463
   18CHTO  H213 7223   6.854   6.917   0.407
   18CHTO  C110 7224   6.948   6.787   0.558
   18CHTO  H214 7225   7.048   6.775   0.600
   18CHTO   O78 7226   6.921   6.668   0.481
   18CHTO  H200 7227   6.835   6.673   0.443
   18CHTO  C111 7228   6.845   6.806   0.674
   18CHTO  H215 7229   6.744   6.810   0.631
   18CHTO   N19 7230   6.844   6.695   0.773
   18CHTO  H207 7231   6.941   6.687   0.821
   18CHTO  H208 7232   6.768   6.711   0.847
   18CHTO   O74 7233   7.060   6.904   0.368
   18CHTO  C115 7234   7.024   6.841   0.227
   18CHTO  H219 7235   6.968   6.748   0.238
   18CHTO   O76 7236   6.927   6.937   0.142
   18CHTO  C122 7237   6.994   7.054   0.095
   18CHTO  H226 7238   7.027   7.111   0.182
   18CHTO  C126 7239   6.893   7.148   0.018
   18CHTO   O85 7240   6.796   7.208   0.104
   18CHTO  H206 7241   6.839   7.268   0.163
   18CHTO  C121 7242   7.118   7.021   0.003
   18CHTO  H225 7243   7.095   7.050   4.680
   18CHTO   O81 7244   7.230   7.100   0.046
   18CHTO  H202 7245   7.212   7.191   0.034
   18CHTO  C119 7246   7.156   6.869   0.005
   18CHTO  H223 7247   7.074   6.818   4.735
   18CHTO  C117 7248   7.162   6.814   0.153
   18CHTO  H221 7249   7.238   6.861   0.215
   18CHTO   N20 7250   7.195   6.667   0.156
   18CHTO  H209 7251   7.201   6.626   0.056
   18CHTO  H210 7252   7.288   6.651   0.209
   18CHTO   O80 7253   7.284   6.835   4.690
   18CHTO  C103 7254   7.261   6.770   4.544
   18CHTO  H190 7255   7.358   6.753   4.496
   18CHTO  C101 7256   7.182   6.634   4.540
   18CHTO  H188 7257   7.089   6.645   4.596
   18CHTO   O68 7258   7.268   6.527   4.609
   18CHTO  H168 7259   7.347   6.512   4.560
   18CHTO   C99 7260   7.146   6.594   4.389
   18CHTO  H186 7261   7.240   6.576   4.334
   18CHTO   N17 7262   7.064   6.469   4.377
   18CHTO  H174 7263   7.113   6.387   4.428
   18CHTO  H175 7264   7.048   6.445   4.273
   18CHTO   C97 7265   7.077   6.714   4.318
   18CHTO  H184 7266   6.979   6.731   4.364
   18CHTO   O64 7267   7.161   6.831   4.325
   18CHTO  C104 7268   7.186   6.879   4.458
   18CHTO  H191 7269   7.092   6.905   4.507
   18CHTO  C108 7270   7.267   7.009   4.448
   18CHTO   O71 7271   7.392   6.992   4.381
   18CHTO  H171 7272   7.450   6.940   4.434
   18CHTO   O62 7273   7.068   6.697   4.175
   18CHTO   C91 7274   6.938   6.704   4.114
   18CHTO  H178 7275   6.867   6.651   4.178
   18CHTO   C92 7276   6.947   6.623   3.980
   18CHTO  H179 7277   7.034   6.660   3.923
   18CHTO   O66 7278   6.978   6.486   4.012
   18CHTO  H166 7279   6.908   6.447   4.062
   18CHTO   C93 7280   6.816   6.632   3.891
   18CHTO  H180 7281   6.739   6.572   3.941
   18CHTO   N16 7282   6.832   6.571   3.756
   18CHTO  H172 7283   6.855   6.466   3.766
   18CHTO  H173 7284   6.911   6.621   3.702
   18CHTO   C94 7285   6.766   6.780   3.879
   18CHTO  H181 7286   6.833   6.842   3.819
   18CHTO   O61 7287   6.758   6.840   4.010
   18CHTO   C95 7288   6.881   6.849   4.082
   18CHTO  H182 7289   6.954   6.903   4.022
   18CHTO  C106 7290   6.854   6.936   4.210
   18CHTO   O69 7291   6.755   6.879   4.296
   18CHTO  H169 7292   6.671   6.880   4.254
   18CHTO   O63 7293   6.615   6.782   3.818
   18CHTO   C96 7294   6.560   6.923   3.761
   18CHTO  H183 7295   6.463   6.902   3.717
   18CHTO   C98 7296   6.645   6.994   3.652
   18CHTO  H185 7297   6.744   7.020   3.692
   18CHTO   O67 7298   6.669   6.898   3.548
   18CHTO  H167 7299   6.726   6.935   3.483
   18CHTO  C102 7300   6.568   7.124   3.597
   18CHTO  H189 7301   6.481   7.086   3.541
   18CHTO   N18 7302   6.646   7.205   3.499
   18CHTO  H176 7303   6.591   7.216   3.406
   18CHTO  H177 7304   6.671   7.302   3.539
   18CHTO  C105 7305   6.514   7.211   3.715
   18CHTO  H192 7306   6.594   7.273   3.754
   18CHTO   O65 7307   6.458   7.137   3.825
   18CHTO  C100 7308   6.538   7.028   3.875
   18CHTO  H187 7309   6.635   7.068   3.907
   18CHTO  C107 7310   6.467   6.968   3.998
   18CHTO   O70 7311   6.473   7.057   4.109
   18CHTO  H170 7312   6.430   7.018   4.183
   18CHTO   O57 7313   6.395   7.302   3.649
   18CHTO   C85 7314   6.368   7.435   3.698
   18CHTO  H157 7315   6.464   7.489   3.688
   18CHTO   C83 7316   6.334   7.434   3.850
   18CHTO  H155 7317   6.421   7.395   3.904
   18CHTO   O56 7318   6.227   7.341   3.875
   18CHTO  H135 7319   6.212   7.332   3.967
   18CHTO   C81 7320   6.306   7.579   3.898
   18CHTO  H153 7321   6.394   7.639   3.877
   18CHTO   N14 7322   6.289   7.589   4.045
   18CHTO  H141 7323   6.375   7.549   4.095
   18CHTO  H142 7324   6.202   7.535   4.076
   18CHTO   C79 7325   6.185   7.640   3.818
   18CHTO  H151 7326   6.177   7.745   3.847
   18CHTO   O52 7327   6.213   7.638   3.674
   18CHTO   C86 7328   6.251   7.508   3.620
   18CHTO  H158 7329   6.157   7.448   3.625
   18CHTO   C90 7330   6.285   7.522   3.470
   18CHTO   O60 7331   6.394   7.612   3.448
   18CHTO  H138 7332   6.474   7.574   3.480
   18CHTO   O50 7333   6.058   7.577   3.845
   18CHTO   C73 7334   5.917   7.584   3.819
   18CHTO  H145 7335   5.897   7.551   3.716
   18CHTO   C74 7336   5.863   7.730   3.835
   18CHTO  H146 7337   5.919   7.794   3.765
   18CHTO   O54 7338   5.726   7.731   3.791
   18CHTO  H133 7339   5.691   7.818   3.795
   18CHTO   C75 7340   5.882   7.776   3.985
   18CHTO  H147 7341   5.990   7.780   4.007
   18CHTO   N13 7342   5.831   7.913   4.013
   18CHTO  H139 7343   5.850   7.938   4.116
   18CHTO  H140 7344   5.725   7.917   3.995
   18CHTO   C76 7345   5.819   7.667   4.084
   18CHTO  H148 7346   5.710   7.670   4.073
   18CHTO   O49 7347   5.866   7.532   4.054
   18CHTO   C77 7348   5.843   7.490   3.918
   18CHTO  H149 7349   5.736   7.492   3.896
   18CHTO   C88 7350   5.887   7.344   3.904
   18CHTO   O58 7351   5.854   7.290   3.771
   18CHTO  H136 7352   5.906   7.332   3.706
   18CHTO   O51 7353   5.867   7.695   4.232
   18CHTO   C78 7354   5.778   7.628   4.340
   18CHTO  H150 7355   5.725   7.539   4.298
   18CHTO   C80 7356   5.673   7.728   4.393
   18CHTO  H152 7357   5.726   7.820   4.428
   18CHTO   O55 7358   5.587   7.764   4.284
   18CHTO  H134 7359   5.634   7.816   4.221
   18CHTO   C84 7360   5.593   7.665   4.515
   18CHTO  H156 7361   5.539   7.578   4.477
   18CHTO   N15 7362   5.492   7.759   4.574
   18CHTO  H143 7363   5.540   7.848   4.608
   18CHTO  H144 7364   5.419   7.785   4.500
   18CHTO   C87 7365   5.695   7.617   4.621
   18CHTO  H159 7366   5.749   7.704   4.660
   18CHTO   O53 7367   5.792   7.518   4.557
   18CHTO   C82 7368   5.870   7.579   4.453
   18CHTO  H154 7369   5.927   7.662   4.494
   18CHTO   C89 7370   5.973   7.475   4.401
   18CHTO   O59 7371   5.910   7.357   4.348
   18CHTO  H137 7372   5.976   7.296   4.321
   18CHTO   O45 7373   5.624   7.538   4.741
   18CHTO   C67 7374   5.685   7.565   0.087
   18CHTO  H124 7375   5.787   7.600   0.072
   18CHTO   C65 7376   5.605   7.676   0.164
   18CHTO  H122 7377   5.507   7.681   0.117
   18CHTO   O44 7378   5.672   7.801   0.141
   18CHTO  H102 7379   5.752   7.805   0.190
   18CHTO   C63 7380   5.575   7.637   0.314
   18CHTO  H120 7381   5.501   7.557   0.314
   18CHTO   N11 7382   5.505   7.741   0.397
   18CHTO  H108 7383   5.417   7.775   0.346
   18CHTO  H109 7384   5.571   7.824   0.414
   18CHTO   C61 7385   5.705   7.577   0.378
   18CHTO  H118 7386   5.678   7.541   0.479
   18CHTO   O40 7387   5.756   7.461   0.305
   18CHTO   C68 7388   5.699   7.433   0.172
   18CHTO  H125 7389   5.600   7.383   0.184
   18CHTO   C72 7390   5.792   7.332   0.099
   18CHTO   O48 7391   5.804   7.206   0.167
   18CHTO  H105 7392   5.850   7.218   0.248
   18CHTO   O38 7393   5.808   7.677   0.389
   18CHTO   C55 7394   5.939   7.642   0.438
   18CHTO  H112 7395   5.960   7.536   0.419
   18CHTO   C56 7396   5.951   7.677   0.593
   18CHTO  H113 7397   5.905   7.776   0.607
   18CHTO   O42 7398   5.869   7.585   0.668
   18CHTO  H100 7399   5.779   7.598   0.648
   18CHTO   C57 7400   6.100   7.678   0.644
   18CHTO  H114 7401   6.134   7.574   0.649
   18CHTO   N10 7402   6.115   7.733   0.781
   18CHTO  H106 7403   6.128   7.841   0.778
   18CHTO  H107 7404   6.028   7.710   0.841
   18CHTO   C58 7405   6.191   7.754   0.544
   18CHTO  H115 7406   6.164   7.862   0.544
   18CHTO   O37 7407   6.174   7.702   0.411
   18CHTO   C59 7408   6.043   7.721   0.355
   18CHTO  H116 7409   6.019   7.827   0.352
   18CHTO   C70 7410   6.046   7.669   0.211
   18CHTO   O46 7411   6.138   7.741   0.129
   18CHTO  H103 7412   6.106   7.828   0.115
   18CHTO   O39 7413   6.357   7.737   0.583
   18CHTO   C60 7414   6.415   7.616   0.531
   18CHTO  H117 7415   6.336   7.543   0.513
   18CHTO   C62 7416   6.487   7.644   0.395
   18CHTO  H119 7417   6.414   7.699   0.332
   18CHTO   O43 7418   6.600   7.730   0.414
   18CHTO  H101 7419   6.665   7.688   0.467
   18CHTO   C66 7420   6.520   7.503   0.326
   18CHTO  H123 7421   6.426   7.451   0.308
   18CHTO   N12 7422   6.583   7.518   0.192
   18CHTO  H110 7423   6.522   7.471   0.116
   18CHTO  H111 7424   6.602   7.621   0.168
   18CHTO   C69 7425   6.604   7.410   0.418
   18CHTO  H126 7426   6.711   7.442   0.419
   18CHTO   O41 7427   6.548   7.410   0.572
   18CHTO   C64 7428   6.516   7.550   0.628
   18CHTO  H121 7429   6.609   7.610   0.634
   18CHTO   C71 7430   6.460   7.535   0.771
   18CHTO   O47 7431   6.452   7.660   0.840
   18CHTO  H104 7432   6.538   7.692   0.858
   18CHTO   O34 7433   6.596   7.260   0.358
   18CHTO   C49 7434   6.549   7.121   0.305
   18CHTO   H91 7435   6.631   7.083   0.243
   18CHTO   C47 7436   6.422   7.136   0.219
   18CHTO   H89 7437   6.407   7.035   0.174
   18CHTO   O33 7438   6.444   7.229   0.111
   18CHTO   H70 7439   6.371   7.227   0.052
   18CHTO   C45 7440   6.294   7.180   0.309
   18CHTO   H87 7441   6.283   7.289   0.303
   18CHTO    N8 7442   6.172   7.118   0.250
   18CHTO   H75 7443   6.178   7.010   0.257
   18CHTO   H76 7444   6.161   7.148   0.147
   18CHTO   C43 7445   6.321   7.149   0.465
   18CHTO   H85 7446   6.383   7.231   0.499
   18CHTO   O29 7447   6.387   7.022   0.479
   18CHTO   C50 7448   6.518   7.016   0.416
   18CHTO   H92 7449   6.594   7.026   0.494
   18CHTO   C54 7450   6.544   6.874   0.358
   18CHTO   O36 7451   6.570   6.774   0.457
   18CHTO   H72 7452   6.652   6.791   0.498
   18CHTO   O27 7453   6.202   7.163   0.547
   18CHTO   C37 7454   6.141   7.174   0.677
   18CHTO   H79 7455   6.108   7.076   0.712
   18CHTO   C38 7456   6.242   7.226   0.784
   18CHTO   H80 7457   6.283   7.322   0.749
   18CHTO   O31 7458   6.351   7.132   0.792
   18CHTO   H68 7459   6.321   7.049   0.823
   18CHTO   C39 7460   6.172   7.247   0.925
   18CHTO   H81 7461   6.139   7.149   0.959
   18CHTO    N7 7462   6.265   7.302   1.030
   18CHTO   H73 7463   6.231   7.398   1.067
   18CHTO   H74 7464   6.275   7.232   1.111
   18CHTO   C40 7465   6.042   7.336   0.906
   18CHTO   H82 7466   6.073   7.437   0.877
   18CHTO   O26 7467   5.960   7.275   0.806
   18CHTO   C41 7468   6.019   7.270   0.673
   18CHTO   H83 7469   6.050   7.370   0.641
   18CHTO   C52 7470   5.906   7.222   0.579
   18CHTO   O35 7471   5.935   7.244   0.443
   18CHTO   H71 7472   5.863   7.215   0.391
   18CHTO   O28 7473   5.968   7.354   1.030
   18CHTO   C42 7474   5.827   7.319   1.053
   18CHTO   H84 7475   5.811   7.355   1.155
   18CHTO   C44 7476   5.797   7.166   1.056
   18CHTO   H86 7477   5.834   7.121   0.964
   18CHTO   O32 7478   5.873   7.112   1.166
   18CHTO   H69 7479   5.864   7.019   1.169
   18CHTO   C48 7480   5.642   7.135   1.067
   18CHTO   H90 7481   5.604   7.178   1.160
   18CHTO    N9 7482   5.613   6.988   1.075
   18CHTO   H77 7483   5.506   6.972   1.081
   18CHTO   H78 7484   5.662   6.945   1.160
   18CHTO   C51 7485   5.573   7.207   0.946
   18CHTO   H93 7486   5.627   7.179   0.855
   18CHTO   O30 7487   5.584   7.348   0.972
   18CHTO   C46 7488   5.728   7.400   0.961
   18CHTO   H88 7489   5.758   7.392   0.856
   18CHTO   C53 7490   5.722   7.549   1.001
   18CHTO   O72 7491   5.848   7.615   0.985
   18CHTO  H199 7492   5.841   7.704   1.013
   18CHTO   O22 7493   5.432   7.183   0.931
   18CHTO   C31 7494   5.373   7.164   0.796
   18CHTO   H59 7495   5.263   7.165   0.810
   18CHTO   C29 7496   5.406   7.277   0.694
   18CHTO   H57 7497   5.515   7.284   0.685
   18CHTO   O21 7498   5.361   7.402   0.749
   18CHTO   H37 7499   5.409   7.423   0.827
   18CHTO   C27 7500   5.345   7.247   0.551
   18CHTO   H55 7501   5.235   7.243   0.560
   18CHTO    N5 7502   5.380   7.351   0.452
   18CHTO   H43 7503   5.487   7.354   0.437
   18CHTO   H44 7504   5.330   7.330   0.358
   18CHTO   C25 7505   5.394   7.105   0.506
   18CHTO   H53 7506   5.504   7.104   0.503
   18CHTO   O17 7507   5.348   7.008   0.603
   18CHTO   C32 7508   5.406   7.024   0.734
   18CHTO   H60 7509   5.514   7.013   0.727
   18CHTO   C36 7510   5.351   6.910   0.822
   18CHTO   O25 7511   5.392   6.782   0.773
   18CHTO   H40 7512   5.355   6.715   0.826
   18CHTO   O15 7513   5.337   7.060   0.363
   18CHTO   C19 7514   5.356   7.055   0.219
   18CHTO   H47 7515   5.302   6.963   0.190
   18CHTO   C20 7516   5.295   7.174   0.139
   18CHTO   H48 7517   5.344   7.269   0.166
   18CHTO   O19 7518   5.157   7.183   0.177
   18CHTO   H35 7519   5.117   7.259   0.139
   18CHTO   C21 7520   5.311   7.153   4.765
   18CHTO   H49 7521   5.252   7.065   4.736
   18CHTO    N4 7522   5.259   7.267   4.684
   18CHTO   H41 7523   5.179   7.234   4.619
   18CHTO   H42 7524   5.223   7.346   4.747
   18CHTO   C22 7525   5.459   7.120   4.731
   18CHTO   H50 7526   5.520   7.210   4.743
   18CHTO   O14 7527   5.509   7.014   0.032
   18CHTO   C23 7528   5.503   7.034   0.174
   18CHTO   H51 7529   5.566   7.122   0.198
   18CHTO   C34 7530   5.566   6.912   0.242
   18CHTO   O23 7531   5.704   6.897   0.207
   18CHTO   H38 7532   5.739   6.821   0.251
   18CHTO   O16 7533   5.471   7.066   4.598
   18CHTO   C24 7534   5.583   7.134   4.500
   18CHTO   H52 7535   5.629   7.222   4.546
   18CHTO   C26 7536   5.513   7.174   4.369
   18CHTO   H54 7537   5.449   7.089   4.336
   18CHTO   O20 7538   5.426   7.285   4.395
   18CHTO   H36 7539   5.475   7.360   4.422
   18CHTO   C30 7540   5.614   7.205   4.253
   18CHTO   H58 7541   5.665   7.301   4.273
   18CHTO    N6 7542   5.544   7.224   4.123
   18CHTO   H45 7543   5.489   7.135   4.096
   18CHTO   H46 7544   5.475   7.307   4.129
   18CHTO   C33 7545   5.724   7.096   4.245
   18CHTO   H61 7546   5.679   6.999   4.218
   18CHTO   O18 7547   5.785   7.084   4.375
   18CHTO   C28 7548   5.697   7.031   4.475
   18CHTO   H56 7549   5.654   6.938   4.440
   18CHTO   C35 7550   5.778   7.005   4.604
   18CHTO   O24 7551   5.877   6.903   4.586
   18CHTO   H39 7552   5.925   6.892   4.665
   18CHTO    O9 7553   5.823   7.123   4.144
   18CHTO   C13 7554   5.912   6.997   4.072
   18CHTO   H26 7555   5.894   7.007   3.963
   18CHTO   C11 7556   5.878   6.851   4.124
   18CHTO   H24 7557   5.773   6.829   4.098
   18CHTO    O8 7558   5.890   6.840   4.267
   18CHTO    H3 7559   5.863   6.755   4.296
   18CHTO    C9 7560   5.970   6.753   4.046
   18CHTO   H22 7561   5.954   6.776   3.940
   18CHTO    N2 7562   5.931   6.610   4.060
   18CHTO   H10 7563   5.946   6.577   4.161
   18CHTO   H11 7564   5.989   6.550   3.991
   18CHTO    C7 7565   6.120   6.782   4.083
   18CHTO   H20 7566   6.176   6.719   4.011
   18CHTO    O4 7567   6.156   6.920   4.059
   18CHTO   C14 7568   6.066   7.029   4.089
   18CHTO   H27 7569   6.091   7.108   4.016
   18CHTO   C18 7570   6.099   7.087   4.229
   18CHTO   O13 7571   6.225   7.155   4.231
   18CHTO    H7 7572   6.219   7.234   4.180
   18CHTO    O2 7573   6.160   6.739   4.239
   18CHTO    C1 7574   6.300   6.736   4.274
   18CHTO   H14 7575   6.347   6.831   4.241
   18CHTO    C2 7576   6.383   6.615   4.212
   18CHTO   H15 7577   6.326   6.523   4.236
   18CHTO    O6 7578   6.391   6.630   4.069
   18CHTO    H1 7579   6.430   6.554   4.030
   18CHTO    C3 7580   6.531   6.606   4.275
   18CHTO   H16 7581   6.588   6.694   4.241
   18CHTO    N1 7582   6.606   6.484   4.229
   18CHTO    H8 7583   6.698   6.512   4.180
   18CHTO    H9 7584   6.627   6.418   4.312
   18CHTO    C4 7585   6.525   6.618   4.432
   18CHTO   H17 7586   6.481   6.527   4.473
   18CHTO    O1 7587   6.448   6.732   4.472
   18CHTO    C5 7588   6.311   6.731   4.429
   18CHTO   H18 7589   6.265   6.638   4.462
   18CHTO   C16 7590   6.240   6.850   4.499
   18CHTO   O11 7591   6.305   6.975   4.475
   18CHTO    H5 7592   6.298   6.998   4.384
   18CHTO    O3 7593   6.656   6.641   4.490
   18CHTO    C6 7594   6.667   6.598   4.630
   18CHTO   H19 7595   6.571   6.569   4.673
   18CHTO    C8 7596   6.763   6.474   4.642
   18CHTO   H21 7597   6.862   6.504   4.607
   18CHTO    O7 7598   6.711   6.371   4.556
   18CHTO    H2 7599   6.627   6.341   4.586
   18CHTO   C12 7600   6.772   6.428   0.012
   18CHTO   H25 7601   6.670   6.395   0.040
   18CHTO    N3 7602   6.863   6.310   0.029
   18CHTO   H12 7603   6.963   6.336   4.780
   18CHTO   H13 7604   6.862   6.278   0.132
   18CHTO   C15 7605   6.811   6.551   0.101
   18CHTO   H28 7606   6.915   6.580   0.087
   18CHTO   O10 7607   6.784   6.526   0.250
   18CHTO    H4 7608   6.839   6.456   0.281
   18CHTO    O5 7609   6.725   6.664   0.076
   18CHTO   C10 7610   6.725   6.711   4.721
   18CHTO   H23 7611   6.827   6.736   4.692
   18CHTO   C17 7612   6.642   6.840   4.720
   18CHTO   O12 7613   6.657   6.912   4.597
   18CHTO    H6 7614   6.744   6.946   4.590
   19CHTO  H203 7615   7.033   8.076   1.301
   19CHTO   O82 7616   7.009   7.994   1.261
   19CHTO  C123 7617   6.866   7.989   1.244
   19CHTO  H227 7618   6.834   8.073   1.181
   19CHTO   O77 7619   6.846   7.863   1.173
   19CHTO  C118 7620   6.710   7.834   1.136
   19CHTO  H222 7621   6.673   7.910   1.066
   19CHTO  C125 7622   6.707   7.694   1.064
   19CHTO   O84 7623   6.778   7.696   0.940
   19CHTO  H205 7624   6.773   7.612   0.899
   19CHTO  C114 7625   6.620   7.829   1.261
   19CHTO  H218 7626   6.653   7.745   1.323
   19CHTO  C116 7627   6.634   7.956   1.350
   19CHTO  H220 7628   6.589   8.043   1.296
   19CHTO   O79 7629   6.557   7.937   1.470
   19CHTO  H201 7630   6.466   7.934   1.450
   19CHTO  C120 7631   6.787   7.985   1.380
   19CHTO  H224 7632   6.823   7.900   1.443
   19CHTO   N21 7633   6.805   8.109   1.461
   19CHTO  H211 7634   6.814   8.195   1.396
   19CHTO  H212 7635   6.892   8.100   1.524
   19CHTO   O75 7636   6.488   7.806   1.210
   19CHTO  C112 7637   6.386   7.726   1.313
   19CHTO  H216 7638   6.357   7.796   1.394
   19CHTO   O73 7639   6.456   7.612   1.364
   19CHTO  C113 7640   6.382   7.537   1.461
   19CHTO  H217 7641   6.351   7.605   1.544
   19CHTO  C124 7642   6.476   7.432   1.523
   19CHTO   O83 7643   6.530   7.340   1.427
   19CHTO  H204 7644   6.590   7.385   1.370
   19CHTO  C109 7645   6.257   7.475   1.395
   19CHTO  H213 7646   6.293   7.407   1.316
   19CHTO  C110 7647   6.170   7.589   1.332
   19CHTO  H214 7648   6.129   7.649   1.413
   19CHTO   O78 7649   6.059   7.529   1.263
   19CHTO  H200 7650   6.000   7.595   1.232
   19CHTO  C111 7651   6.256   7.678   1.238
   19CHTO  H215 7652   6.288   7.617   1.152
   19CHTO   N19 7653   6.182   7.794   1.182
   19CHTO  H207 7654   6.246   7.851   1.116
   19CHTO  H208 7655   6.096   7.760   1.127
   19CHTO   O74 7656   6.183   7.398   1.494
   19CHTO  C115 7657   6.118   7.266   1.437
   19CHTO  H219 7658   6.075   7.282   1.338
   19CHTO   O76 7659   6.227   7.151   1.414
   19CHTO  C122 7660   6.272   7.091   1.536
   19CHTO  H226 7661   6.323   7.168   1.594
   19CHTO  C126 7662   6.381   6.982   1.503
   19CHTO   O85 7663   6.497   7.037   1.440
   19CHTO  H206 7664   6.543   7.093   1.500
   19CHTO  C121 7665   6.153   7.028   1.621
   19CHTO  H225 7666   6.162   6.917   1.618
   19CHTO   O81 7667   6.168   7.068   1.758
   19CHTO  H202 7668   6.109   7.021   1.813
   19CHTO  C119 7669   6.013   7.069   1.566
   19CHTO  H223 7670   6.003   7.018   1.470
   19CHTO  C117 7671   6.005   7.224   1.539
   19CHTO  H221 7672   6.021   7.286   1.627
   19CHTO   N20 7673   5.871   7.264   1.487
   19CHTO  H209 7674   5.867   7.371   1.473
   19CHTO  H210 7675   5.794   7.234   1.557
   19CHTO   O80 7676   5.890   7.004   1.649
   19CHTO  C103 7677   5.881   6.850   1.665
   19CHTO  H190 7678   5.967   6.801   1.617
   19CHTO  C101 7679   5.870   6.797   1.812
   19CHTO  H188 7680   5.786   6.848   1.861
   19CHTO   O68 7681   6.001   6.833   1.888
   19CHTO  H168 7682   5.992   6.811   1.979
   19CHTO   C99 7683   5.841   6.640   1.814
   19CHTO  H186 7684   5.930   6.587   1.773
   19CHTO   N17 7685   5.817   6.583   1.952
   19CHTO  H174 7686   5.899   6.518   1.980
   19CHTO  H175 7687   5.803   6.663   2.024
   19CHTO   C97 7688   5.723   6.604   1.719
   19CHTO  H184 7689   5.628   6.635   1.765
   19CHTO   O64 7690   5.742   6.662   1.589
   19CHTO  C104 7691   5.752   6.805   1.586
   19CHTO  H191 7692   5.665   6.852   1.632
   19CHTO  C108 7693   5.753   6.851   1.439
   19CHTO   O71 7694   5.861   6.796   1.364
   19CHTO  H171 7695   5.943   6.832   1.394
   19CHTO   O62 7696   5.721   6.462   1.690
   19CHTO   C91 7697   5.596   6.399   1.658
   19CHTO  H178 7698   5.514   6.469   1.678
   19CHTO   C92 7699   5.577   6.279   1.758
   19CHTO  H179 7700   5.671   6.221   1.760
   19CHTO   O66 7701   5.564   6.334   1.891
   19CHTO  H166 7702   5.486   6.386   1.898
   19CHTO   C93 7703   5.455   6.185   1.722
   19CHTO  H180 7704   5.363   6.242   1.740
   19CHTO   N16 7705   5.446   6.064   1.808
   19CHTO  H172 7706   5.361   6.005   1.779
   19CHTO  H173 7707   5.438   6.093   1.912
   19CHTO   C94 7708   5.462   6.147   1.570
   19CHTO  H181 7709   5.552   6.089   1.546
   19CHTO   O61 7710   5.466   6.267   1.492
   19CHTO   C95 7711   5.584   6.346   1.510
   19CHTO  H182 7712   5.671   6.285   1.487
   19CHTO  C106 7713   5.580   6.461   1.403
   19CHTO   O69 7714   5.466   6.546   1.418
   19CHTO  H169 7715   5.468   6.613   1.353
   19CHTO   O63 7716   5.331   6.067   1.523
   19CHTO   C96 7717   5.359   5.971   1.401
   19CHTO  H183 7718   5.439   5.903   1.431
   19CHTO   C98 7719   5.404   6.042   1.268
   19CHTO  H185 7720   5.483   6.116   1.288
   19CHTO   O67 7721   5.463   5.943   1.183
   19CHTO  H167 7722   5.501   5.984   1.107
   19CHTO  C102 7723   5.281   6.109   1.191
   19CHTO  H189 7724   5.321   6.136   1.091
   19CHTO   N18 7725   5.232   6.237   1.248
   19CHTO  H176 7726   5.130   6.229   1.282
   19CHTO  H177 7727   5.295   6.269   1.330
   19CHTO  C105 7728   5.168   6.003   1.172
   19CHTO  H192 7729   5.073   6.042   1.209
   19CHTO   O65 7730   5.191   5.876   1.238
   19CHTO  C100 7731   5.226   5.887   1.377
   19CHTO  H187 7732   5.142   5.938   1.428
   19CHTO  C107 7733   5.235   5.744   1.435
   19CHTO   O70 7734   5.256   5.746   1.577
   19CHTO  H170 7735   5.180   5.779   1.620
   19CHTO   O57 7736   5.159   5.982   1.016
   19CHTO   C85 7737   5.048   5.905   0.965
   19CHTO  H157 7738   4.988   5.873   1.053
   19CHTO   C83 7739   5.100   5.773   0.901
   19CHTO  H155 7740   5.155   5.717   0.977
   19CHTO   O56 7741   5.196   5.803   0.797
   19CHTO  H135 7742   5.155   5.848   0.726
   19CHTO   C81 7743   4.978   5.688   0.855
   19CHTO  H153 7744   4.915   5.670   0.942
   19CHTO   N14 7745   5.016   5.552   0.807
   19CHTO  H141 7746   4.928   5.495   0.786
   19CHTO  H142 7747   5.073   5.502   0.883
   19CHTO   C79 7748   4.893   5.769   0.749
   19CHTO  H151 7749   4.802   5.712   0.732
   19CHTO   O52 7750   4.852   5.899   0.804
   19CHTO   C86 7751   4.960   5.980   0.859
   19CHTO  H158 7752   5.020   6.010   0.770
   19CHTO   C90 7753   4.904   6.111   0.919
   19CHTO   O60 7754   4.842   6.192   0.818
   19CHTO  H138 7755   4.810   6.271   0.856
   19CHTO   O50 7756   4.958   5.789   0.622
   19CHTO   C73 7757   4.938   5.805   0.481
   19CHTO  H145 7758   4.893   5.714   0.439
   19CHTO   C74 7759   5.075   5.829   0.411
   19CHTO  H146 7760   5.139   5.742   0.435
   19CHTO   O54 7761   5.056   5.826   0.268
   19CHTO  H133 7762   5.001   5.896   0.241
   19CHTO   C75 7763   5.137   5.963   0.466
   19CHTO  H147 7764   5.155   5.952   0.574
   19CHTO   N13 7765   5.270   5.996   0.408
   19CHTO  H139 7766   5.340   5.917   0.430
   19CHTO  H140 7767   5.307   6.088   0.452
   19CHTO   C76 7768   5.031   6.083   0.448
   19CHTO  H148 7769   5.021   6.104   0.341
   19CHTO   O49 7770   4.901   6.047   0.503
   19CHTO   C77 7771   4.845   5.926   0.449
   19CHTO  H149 7772   4.834   5.936   0.341
   19CHTO   C88 7773   4.701   5.911   0.503
   19CHTO   O58 7774   4.635   5.795   0.446
   19CHTO  H136 7775   4.548   5.788   0.482
   19CHTO   O51 7776   5.074   6.209   0.533
   19CHTO   C78 7777   5.043   6.350   0.464
   19CHTO  H150 7778   5.012   6.337   0.358
   19CHTO   C80 7779   5.172   6.436   0.468
   19CHTO  H152 7780   5.215   6.430   0.570
   19CHTO   O55 7781   5.268   6.375   0.379
   19CHTO  H134 7782   5.238   6.379   0.291
   19CHTO   C84 7783   5.146   6.588   0.433
   19CHTO  H156 7784   5.115   6.592   0.328
   19CHTO   N15 7785   5.269   6.673   0.447
   19CHTO  H143 7786   5.255   6.750   0.520
   19CHTO  H144 7787   5.294   6.717   0.353
   19CHTO   C87 7788   5.029   6.639   0.521
   19CHTO  H159 7789   5.057   6.634   0.626
   19CHTO   O53 7790   4.909   6.552   0.493
   19CHTO   C82 7791   4.927   6.418   0.539
   19CHTO  H154 7792   4.946   6.418   0.647
   19CHTO   C89 7793   4.792   6.345   0.518
   19CHTO   O59 7794   4.751   6.339   0.380
   19CHTO  H137 7795   4.730   6.426   0.350
   19CHTO   O45 7796   4.985   6.789   0.485
   19CHTO   C67 7797   4.895   6.845   0.583
   19CHTO  H124 7798   4.855   6.765   0.645
   19CHTO   C65 7799   4.970   6.948   0.674
   19CHTO  H122 7800   5.058   6.980   0.618
   19CHTO   O44 7801   5.013   6.874   0.790
   19CHTO  H102 7802   5.069   6.927   0.843
   19CHTO   C63 7803   4.887   7.080   0.699
   19CHTO  H120 7804   4.888   7.139   0.607
   19CHTO   N11 7805   4.947   7.177   0.798
   19CHTO  H108 7806   4.875   7.206   0.871
   19CHTO  H109 7807   4.984   7.264   0.747
   19CHTO   C61 7808   4.737   7.041   0.725
   19CHTO  H118 7809   4.681   7.136   0.732
   19CHTO   O40 7810   4.678   6.966   0.615
   19CHTO   C68 7811   4.769   6.910   0.514
   19CHTO  H125 7812   4.801   6.990   0.445
   19CHTO   C72 7813   4.691   6.806   0.429
   19CHTO   O48 7814   4.581   6.864   0.358
   19CHTO  H105 7815   4.539   6.798   0.307
   19CHTO   O38 7816   4.722   6.966   0.848
   19CHTO   C55 7817   4.588   6.937   0.892
   19CHTO  H112 7818   4.519   6.939   0.806
   19CHTO   C56 7819   4.543   7.036   1.007
   19CHTO  H113 7820   4.617   7.029   1.088
   19CHTO   O42 7821   4.548   7.171   0.957
   19CHTO  H100 7822   4.526   7.232   1.026
   19CHTO   C57 7823   4.399   6.997   1.058
   19CHTO  H114 7824   4.330   7.015   0.975
   19CHTO   N10 7825   4.352   7.080   1.172
   19CHTO  H106 7826   4.383   7.037   1.266
   19CHTO  H107 7827   4.244   7.087   1.170
   19CHTO   C58 7828   4.394   6.846   1.094
   19CHTO  H115 7829   4.451   6.829   1.189
   19CHTO   O37 7830   4.449   6.762   0.991
   19CHTO   C59 7831   4.582   6.792   0.947
   19CHTO  H116 7832   4.652   6.780   1.030
   19CHTO   C70 7833   4.621   6.688   0.840
   19CHTO   O46 7834   4.533   6.686   0.727
   19CHTO  H103 7835   4.541   6.765   0.678
   19CHTO   O39 7836   4.231   6.797   1.117
   19CHTO   C60 7837   4.168   6.750   0.997
   19CHTO  H117 7838   4.216   6.796   0.910
   19CHTO   C62 7839   4.182   6.595   0.982
   19CHTO  H119 7840   4.291   6.573   0.988
   19CHTO   O43 7841   4.119   6.528   1.093
   19CHTO  H101 7842   4.027   6.543   1.092
   19CHTO   C66 7843   4.127   6.551   0.838
   19CHTO  H123 7844   4.179   6.610   0.762
   19CHTO   N12 7845   4.158   6.409   0.809
   19CHTO  H110 7846   4.067   6.352   0.795
   19CHTO  H111 7847   4.223   6.401   0.723
   19CHTO   C69 7848   3.977   6.588   0.829
   19CHTO  H126 7849   3.919   6.529   0.903
   19CHTO   O41 7850   3.956   6.741   0.857
   19CHTO   C64 7851   4.018   6.789   0.991
   19CHTO  H121 7852   3.964   6.741   1.076
   19CHTO   C71 7853   3.997   6.942   1.004
   19CHTO   O47 7854   4.053   7.013   0.893
   19CHTO  H104 7855   4.038   7.105   0.903
   19CHTO   O34 7856   3.922   6.555   0.693
   19CHTO   C49 7857   3.821   6.545   0.590
   19CHTO   H91 7858   3.724   6.542   0.641
   19CHTO   C47 7859   3.846   6.414   0.513
   19CHTO   H89 7860   3.759   6.406   0.443
   19CHTO   O33 7861   3.841   6.301   0.603
   19CHTO   H70 7862   3.843   6.221   0.554
   19CHTO   C45 7863   3.987   6.418   0.434
   19CHTO   H87 7864   4.065   6.379   0.501
   19CHTO    N8 7865   3.977   6.328   0.316
   19CHTO   H75 7866   4.073   6.320   0.269
   19CHTO   H76 7867   3.905   6.368   0.246
   19CHTO   C43 7868   4.031   6.571   0.405
   19CHTO   H85 7869   4.083   6.604   0.495
   19CHTO   O29 7870   3.916   6.652   0.377
   19CHTO   C50 7871   3.824   6.663   0.488
   19CHTO   H92 7872   3.848   6.755   0.544
   19CHTO   C54 7873   3.682   6.692   0.432
   19CHTO   O36 7874   3.676   6.817   0.362
   19CHTO   H72 7875   3.685   6.888   0.422
   19CHTO   O27 7876   4.129   6.584   0.300
   19CHTO   C37 7877   4.236   6.580   0.204
   19CHTO   H79 7878   4.233   6.485   0.150
   19CHTO   C38 7879   4.219   6.694   0.099
   19CHTO   H80 7880   4.219   6.791   0.152
   19CHTO   O31 7881   4.092   6.676   0.034
   19CHTO   H68 7882   4.022   6.693   0.094
   19CHTO   C39 7883   4.337   6.690   4.777
   19CHTO   H81 7884   4.331   6.595   4.724
   19CHTO    N7 7885   4.331   6.799   4.673
   19CHTO   H73 7886   4.331   6.896   4.721
   19CHTO   H74 7887   4.241   6.788   4.614
   19CHTO   C40 7888   4.476   6.691   0.072
   19CHTO   H82 7889   4.495   6.791   0.113
   19CHTO   O26 7890   4.481   6.590   0.174
   19CHTO   C41 7891   4.374   6.595   0.273
   19CHTO   H83 7892   4.378   6.692   0.326
   19CHTO   C52 7893   4.399   6.484   0.379
   19CHTO   O35 7894   4.401   6.345   0.320
   19CHTO   H71 7895   4.475   6.336   0.263
   19CHTO   O28 7896   4.582   6.652   4.765
   19CHTO   C42 7897   4.712   6.720   4.764
   19CHTO   H84 7898   4.727   6.754   0.086
   19CHTO   C44 7899   4.720   6.848   4.674
   19CHTO   H86 7900   4.688   6.821   4.573
   19CHTO   O32 7901   4.627   6.944   4.727
   19CHTO   H69 7902   4.621   7.018   4.669
   19CHTO   C48 7903   4.866   6.908   4.665
   19CHTO   H90 7904   4.892   6.949   4.763
   19CHTO    N9 7905   4.876   7.023   4.569
   19CHTO   H77 7906   4.809   7.102   4.599
   19CHTO   H78 7907   4.977   7.060   4.565
   19CHTO   C51 7908   4.967   6.793   4.631
   19CHTO   H93 7909   4.943   6.754   4.532
   19CHTO   O30 7910   4.958   6.691   4.731
   19CHTO   C46 7911   4.827   6.620   4.733
   19CHTO   H88 7912   4.810   6.575   4.635
   19CHTO   C53 7913   4.833   6.510   0.060
   19CHTO   O72 7914   4.936   6.413   0.033
   19CHTO  H199 7915   5.020   6.453   0.042
   19CHTO   O22 7916   5.104   6.838   4.637
   19CHTO   C31 7917   5.211   6.756   4.578
   19CHTO   H59 7918   5.167   6.654   4.561
   19CHTO   C29 7919   5.260   6.808   4.441
   19CHTO   H57 7920   5.294   6.912   4.456
   19CHTO   O21 7921   5.148   6.814   4.351
   19CHTO   H37 7922   5.084   6.876   4.381
   19CHTO   C27 7923   5.379   6.722   4.383
   19CHTO   H55 7924   5.340   6.623   4.357
   19CHTO    N5 7925   5.439   6.783   4.261
   19CHTO   H43 7926   5.514   6.717   4.220
   19CHTO   H44 7927   5.482   6.879   4.284
   19CHTO   C25 7928   5.487   6.700   4.495
   19CHTO   H53 7929   5.532   6.796   4.522
   19CHTO   O17 7930   5.427   6.647   4.617
   19CHTO   C32 7931   5.330   6.735   4.676
   19CHTO   H60 7932   5.376   6.832   4.696
   19CHTO   C36 7933   5.289   6.671   0.029
   19CHTO   O25 7934   5.203   6.755   0.107
   19CHTO   H40 7935   5.181   6.712   0.187
   19CHTO   O15 7936   5.597   6.603   4.449
   19CHTO   C19 7937   5.628   6.460   4.455
   19CHTO   H47 7938   5.635   6.439   4.562
   19CHTO   C20 7939   5.519   6.367   4.393
   19CHTO   H48 7940   5.500   6.390   4.287
   19CHTO   O19 7941   5.397   6.392   4.466
   19CHTO   H35 7942   5.326   6.345   4.426
   19CHTO   C21 7943   5.560   6.215   4.405
   19CHTO   H49 7944   5.559   6.187   4.510
   19CHTO    N4 7945   5.465   6.123   4.337
   19CHTO   H41 7946   5.367   6.132   4.381
   19CHTO   H42 7947   5.459   6.148   4.232
   19CHTO   C22 7948   5.706   6.195   4.355
   19CHTO   H50 7949   5.709   6.207   4.247
   19CHTO   O14 7950   5.797   6.288   4.416
   19CHTO   C23 7951   5.766   6.427   4.394
   19CHTO   H51 7952   5.769   6.444   4.285
   19CHTO   C34 7953   5.876   6.513   4.457
   19CHTO   O23 7954   6.002   6.498   4.390
   19CHTO   H38 7955   6.036   6.412   4.405
   19CHTO   O16 7956   5.758   6.068   4.399
   19CHTO   C24 7957   5.810   5.950   4.293
   19CHTO   H52 7958   5.903   5.905   4.326
   19CHTO   C26 7959   5.831   5.999   4.148
   19CHTO   H54 7960   5.737   6.048   4.113
   19CHTO   O20 7961   5.935   6.099   4.148
   19CHTO   H36 7962   6.017   6.061   4.174
   19CHTO   C30 7963   5.862   5.881   4.051
   19CHTO   H58 7964   5.961   5.839   4.075
   19CHTO    N6 7965   5.869   5.924   3.908
   19CHTO   H45 7966   5.851   6.030   3.899
   19CHTO   H46 7967   5.966   5.900   3.867
   19CHTO   C33 7968   5.760   5.765   4.071
   19CHTO   H61 7969   5.660   5.799   4.039
   19CHTO   O18 7970   5.754   5.732   4.210
   19CHTO   C28 7971   5.704   5.837   4.293
   19CHTO   H56 7972   5.610   5.876   4.255
   19CHTO   C35 7973   5.681   5.781   4.435
   19CHTO   O24 7974   5.580   5.680   4.435
   19CHTO   H39 7975   5.568   5.649   4.522
   19CHTO    O9 7976   5.787   5.647   3.991
   19CHTO   C13 7977   5.650   5.558   3.958
   19CHTO   H26 7978   5.590   5.618   3.886
   19CHTO   C11 7979   5.567   5.524   4.089
   19CHTO   H24 7980   5.531   5.619   4.131
   19CHTO    O8 7981   5.651   5.462   4.189
   19CHTO    H3 7982   5.603   5.451   4.269
   19CHTO    C9 7983   5.444   5.439   4.047
   19CHTO   H22 7984   5.394   5.498   3.969
   19CHTO    N2 7985   5.343   5.425   4.155
   19CHTO   H10 7986   5.318   5.321   4.171
   19CHTO   H11 7987   5.254   5.481   4.131
   19CHTO    C7 7988   5.492   5.305   3.983
   19CHTO   H20 7989   5.399   5.265   3.938
   19CHTO    O4 7990   5.589   5.322   3.877
   19CHTO   C14 7991   5.689   5.426   3.878
   19CHTO   H27 7992   5.697   5.456   3.771
   19CHTO   C18 7993   5.827   5.366   3.917
   19CHTO   O13 7994   5.828   5.299   4.043
   19CHTO    H7 7995   5.776   5.221   4.038
   19CHTO    O2 7996   5.555   5.199   4.097
   19CHTO    C1 7997   5.505   5.064   4.107
   19CHTO   H14 7998   5.593   4.997   4.100
   19CHTO    C2 7999   5.399   5.017   3.999
   19CHTO   H15 8000   5.315   5.089   4.003
   19CHTO    O6 8001   5.460   5.021   3.868
   19CHTO    H1 8002   5.532   4.962   3.864
   19CHTO    C3 8003   5.344   4.870   4.031
   19CHTO   H16 8004   5.425   4.797   4.014
   19CHTO    N1 8005   5.230   4.831   3.940
   19CHTO    H8 8006   5.149   4.901   3.951
   19CHTO    H9 8007   5.264   4.830   3.838
   19CHTO    C4 8008   5.305   4.858   4.183
   19CHTO   H17 8009   5.214   4.916   4.201
   19CHTO    O1 8010   5.411   4.903   4.268
   19CHTO    C5 8011   5.448   5.041   4.250
   19CHTO   H18 8012   5.360   5.105   4.262
   19CHTO   C16 8013   5.552   5.078   4.359
   19CHTO   O11 8014   5.499   5.065   4.491
   19CHTO    H5 8015   5.484   4.975   4.511
   19CHTO    O3 8016   5.285   4.720   4.219
   19CHTO    C6 8017   5.190   4.696   4.328
   19CHTO   H19 8018   5.172   4.786   4.388
   19CHTO    C8 8019   5.054   4.646   4.272
   19CHTO   H21 8020   5.073   4.561   4.206
   19CHTO    O7 8021   4.997   4.754   4.196
   19CHTO    H2 8022   4.919   4.725   4.153
   19CHTO   C12 8023   4.959   4.599   4.389
   19CHTO   H25 8024   4.933   4.691   4.447
   19CHTO    N3 8025   4.829   4.542   4.338
   19CHTO   H12 8026   4.746   4.600   4.373
   19CHTO   H13 8027   4.829   4.537   4.230
   19CHTO   C15 8028   5.036   4.501   4.485
   19CHTO   H28 8029   5.055   4.405   4.436
   19CHTO   O10 8030   4.961   4.475   4.619
   19CHTO    H4 8031   4.940   4.557   4.660
   19CHTO    O5 8032   5.159   4.559   4.530
   19CHTO   C10 8033   5.250   4.589   4.424
   19CHTO   H23 8034   5.269   4.498   4.368
   19CHTO   C17 8035   5.385   4.633   4.484
   19CHTO   O12 8036   5.375   4.753   4.561
   19CHTO    H6 8037   5.460   4.774   4.596
   20CHTO  H203 8038   5.298   0.625   1.082
   20CHTO   O82 8039   5.284   0.713   1.112
   20CHTO  C123 8040   5.210   0.788   1.015
   20CHTO  H227 8041   5.113   0.738   0.998
   20CHTO   O77 8042   5.188   0.915   1.083
   20CHTO  C118 8043   5.119   1.016   1.007
   20CHTO  H222 8044   5.020   0.980   0.977
   20CHTO  C125 8045   5.101   1.144   1.098
   20CHTO   O84 8046   5.030   1.113   1.218
   20CHTO  H205 8047   5.019   1.191   1.268
   20CHTO  C114 8048   5.203   1.050   0.882
   20CHTO  H218 8049   5.302   1.080   0.915
   20CHTO  C116 8050   5.222   0.922   0.795
   20CHTO  H220 8051   5.123   0.888   0.756
   20CHTO   O79 8052   5.301   0.957   0.680
   20CHTO  H201 8053   5.308   0.884   0.622
   20CHTO  C120 8054   5.290   0.808   0.881
   20CHTO  H224 8055   5.393   0.843   0.904
   20CHTO   N21 8056   5.304   0.680   0.806
   20CHTO  H211 8057   5.317   0.699   0.700
   20CHTO  H212 8058   5.387   0.623   0.845
   20CHTO   O75 8059   5.135   1.159   0.817
   20CHTO  C112 8060   5.238   1.266   0.741
   20CHTO  H216 8061   5.281   1.216   0.653
   20CHTO   O73 8062   5.340   1.304   0.836
   20CHTO  C113 8063   5.443   1.385   0.778
   20CHTO  H217 8064   5.485   1.333   0.689
   20CHTO  C124 8065   5.557   1.400   0.880
   20CHTO   O83 8066   5.620   1.275   0.909
   20CHTO  H204 8067   5.688   1.289   0.973
   20CHTO  C109 8068   5.384   1.521   0.736
   20CHTO  H213 8069   5.348   1.570   0.829
   20CHTO  C110 8070   5.265   1.499   0.638
   20CHTO  H214 8071   5.305   1.462   0.543
   20CHTO   O78 8072   5.204   1.626   0.611
   20CHTO  H200 8073   5.137   1.617   0.545
   20CHTO  C111 8074   5.162   1.396   0.695
   20CHTO  H215 8075   5.115   1.441   0.785
   20CHTO   N19 8076   5.051   1.363   0.602
   20CHTO  H207 8077   5.051   1.258   0.575
   20CHTO  H208 8078   5.056   1.423   0.512
   20CHTO   O74 8079   5.489   1.603   0.677
   20CHTO  C115 8080   5.478   1.758   0.711
   20CHTO  H219 8081   5.376   1.786   0.737
   20CHTO   O76 8082   5.565   1.796   0.836
   20CHTO  C122 8083   5.704   1.761   0.823
   20CHTO  H226 8084   5.713   1.655   0.848
   20CHTO  C126 8085   5.785   1.838   0.933
   20CHTO   O85 8086   5.746   1.803   1.067
   20CHTO  H206 8087   5.658   1.833   1.083
   20CHTO  C121 8088   5.764   1.788   0.679
   20CHTO  H225 8089   5.865   1.834   0.691
   20CHTO   O81 8090   5.783   1.664   0.609
   20CHTO  H202 8091   5.832   1.679   0.530
   20CHTO  C119 8092   5.674   1.886   0.598
   20CHTO  H223 8093   5.673   1.978   0.657
   20CHTO  C117 8094   5.524   1.837   0.582
   20CHTO  H221 8095   5.510   1.766   0.500
   20CHTO   N20 8096   5.431   1.950   0.549
   20CHTO  H209 8097   5.482   2.046   0.555
   20CHTO  H210 8098   5.345   1.950   0.614
   20CHTO   O80 8099   5.741   1.935   0.466
   20CHTO  C103 8100   5.769   2.085   0.445
   20CHTO  H190 8101   5.691   2.145   0.492
   20CHTO  C101 8102   5.909   2.138   0.494
   20CHTO  H188 8103   5.988   2.078   0.447
   20CHTO   O68 8104   5.920   2.120   0.648
   20CHTO  H168 8105   5.918   2.029   0.670
   20CHTO   C99 8106   5.927   2.290   0.447
   20CHTO  H186 8107   5.842   2.350   0.487
   20CHTO   N17 8108   6.053   2.356   0.492
   20CHTO  H174 8109   6.059   2.355   0.600
   20CHTO  H175 8110   6.139   2.306   0.448
   20CHTO   C97 8111   5.911   2.294   0.292
   20CHTO  H184 8112   5.992   2.232   0.248
   20CHTO   O64 8113   5.781   2.244   0.256
   20CHTO  C104 8114   5.756   2.107   0.290
   20CHTO  H191 8115   5.826   2.041   0.238
   20CHTO  C108 8116   5.616   2.070   0.239
   20CHTO   O71 8117   5.610   2.070   0.096
   20CHTO  H171 8118   5.618   2.158   0.064
   20CHTO   O62 8119   5.912   2.426   0.235
   20CHTO   C91 8120   5.947   2.433   0.095
   20CHTO  H178 8121   5.954   2.331   0.054
   20CHTO   C92 8122   6.088   2.496   0.078
   20CHTO  H179 8123   6.088   2.596   0.125
   20CHTO   O66 8124   6.183   2.418   0.153
   20CHTO  H166 8125   6.166   2.425   0.245
   20CHTO   C93 8126   6.132   2.506   4.708
   20CHTO  H180 8127   6.153   2.403   4.674
   20CHTO   N16 8128   6.258   2.582   4.687
   20CHTO  H172 8129   6.284   2.583   4.582
   20CHTO  H173 8130   6.338   2.537   4.745
   20CHTO   C94 8131   6.016   2.566   4.619
   20CHTO  H181 8132   6.002   2.673   4.637
   20CHTO   O61 8133   5.889   2.504   4.647
   20CHTO   C95 8134   5.847   2.512   0.003
   20CHTO  H182 8135   5.843   2.617   0.034
   20CHTO  C106 8136   5.701   2.454   0.015
   20CHTO   O69 8137   5.609   2.527   4.715
   20CHTO  H169 8138   5.523   2.490   4.725
   20CHTO   O63 8139   6.049   2.541   4.460
   20CHTO   C96 8140   6.027   2.390   4.411
   20CHTO  H183 8141   6.035   2.324   4.497
   20CHTO   C98 8142   6.133   2.342   4.305
   20CHTO  H185 8143   6.234   2.349   4.347
   20CHTO   O67 8144   6.111   2.202   4.281
   20CHTO  H167 8145   6.178   2.168   4.225
   20CHTO  C102 8146   6.119   2.422   4.167
   20CHTO  H189 8147   6.154   2.353   4.089
   20CHTO   N18 8148   6.205   2.543   4.154
   20CHTO  H176 8149   6.264   2.557   4.244
   20CHTO  H177 8150   6.270   2.534   4.069
   20CHTO  C105 8151   5.969   2.455   4.139
   20CHTO  H192 8152   5.947   2.556   4.173
   20CHTO   O65 8153   5.879   2.366   4.206
   20CHTO  C100 8154   5.880   2.380   4.350
   20CHTO  H187 8155   5.827   2.472   4.375
   20CHTO  C107 8156   5.802   2.262   4.413
   20CHTO   O70 8157   5.666   2.261   4.371
   20CHTO  H170 8158   5.622   2.187   4.409
   20CHTO   O57 8159   5.953   2.446   3.982
   20CHTO   C85 8160   5.849   2.523   3.919
   20CHTO  H157 8161   5.833   2.612   3.983
   20CHTO   C83 8162   5.715   2.444   3.922
   20CHTO  H155 8163   5.689   2.425   4.027
   20CHTO   O56 8164   5.733   2.315   3.861
   20CHTO  H135 8165   5.655   2.264   3.869
   20CHTO   C81 8166   5.603   2.532   3.859
   20CHTO  H153 8167   5.598   2.626   3.915
   20CHTO   N14 8168   5.468   2.472   3.876
   20CHTO  H141 8169   5.408   2.533   3.940
   20CHTO  H142 8170   5.419   2.461   3.782
   20CHTO   C79 8171   5.640   2.566   3.709
   20CHTO  H151 8172   5.566   2.639   3.674
   20CHTO   O52 8173   5.771   2.632   3.701
   20CHTO   C86 8174   5.880   2.563   3.770
   20CHTO  H158 8175   5.899   2.473   3.707
   20CHTO   C90 8176   6.010   2.647   3.762
   20CHTO   O60 8177   5.993   2.778   3.819
   20CHTO  H138 8178   5.936   2.829   3.765
   20CHTO   O50 8179   5.635   2.452   3.622
   20CHTO   C73 8180   5.658   2.404   3.488
   20CHTO  H145 8181   5.764   2.378   3.477
   20CHTO   C74 8182   5.622   2.512   3.382
   20CHTO  H146 8183   5.684   2.600   3.405
   20CHTO   O54 8184   5.665   2.463   3.254
   20CHTO  H133 8185   5.650   2.528   3.188
   20CHTO   C75 8186   5.468   2.546   3.390
   20CHTO  H147 8187   5.448   2.591   3.488
   20CHTO   N13 8188   5.424   2.647   3.291
   20CHTO  H139 8189   5.379   2.732   3.340
   20CHTO  H140 8190   5.352   2.606   3.222
   20CHTO   C76 8191   5.382   2.411   3.383
   20CHTO  H148 8192   5.384   2.373   3.280
   20CHTO   O49 8193   5.432   2.308   3.474
   20CHTO   C77 8194   5.572   2.277   3.462
   20CHTO  H149 8195   5.593   2.240   3.361
   20CHTO   C88 8196   5.606   2.162   3.558
   20CHTO   O58 8197   5.748   2.120   3.543
   20CHTO  H136 8198   5.805   2.188   3.575
   20CHTO   O51 8199   5.240   2.441   3.435
   20CHTO   C78 8200   5.129   2.351   3.380
   20CHTO  H150 8201   5.170   2.268   3.319
   20CHTO   C80 8202   5.035   2.436   3.291
   20CHTO  H152 8203   5.017   2.534   3.342
   20CHTO   O55 8204   5.104   2.465   3.169
   20CHTO  H134 8205   5.119   2.386   3.120
   20CHTO   C84 8206   4.895   2.366   3.267
   20CHTO  H156 8207   4.911   2.276   3.208
   20CHTO   N15 8208   4.799   2.452   3.189
   20CHTO  H143 8209   4.839   2.473   3.093
   20CHTO  H144 8210   4.781   2.544   3.241
   20CHTO   C87 8211   4.838   2.326   3.405
   20CHTO  H159 8212   4.831   2.416   3.468
   20CHTO   O53 8213   4.933   2.228   3.465
   20CHTO   C82 8214   5.057   2.289   3.502
   20CHTO  H154 8215   5.038   2.366   3.578
   20CHTO   C89 8216   5.145   2.181   3.570
   20CHTO   O59 8217   5.173   2.070   3.484
   20CHTO  H137 8218   5.228   2.097   3.413
   20CHTO   O45 8219   4.695   2.252   3.402
   20CHTO   C67 8220   4.629   2.261   3.530
   20CHTO  H124 8221   4.704   2.273   3.608
   20CHTO   C65 8222   4.533   2.385   3.533
   20CHTO  H122 8223   4.502   2.403   3.430
   20CHTO   O44 8224   4.611   2.497   3.579
   20CHTO  H102 8225   4.677   2.519   3.515
   20CHTO   C63 8226   4.399   2.357   3.611
   20CHTO  H120 8227   4.334   2.296   3.548
   20CHTO   N11 8228   4.310   2.475   3.638
   20CHTO  H108 8229   4.282   2.479   3.741
   20CHTO  H109 8230   4.361   2.566   3.612
   20CHTO   C61 8231   4.432   2.268   3.736
   20CHTO  H118 8232   4.336   2.247   3.787
   20CHTO   O40 8233   4.488   2.139   3.699
   20CHTO   C68 8234   4.552   2.128   3.567
   20CHTO  H125 8235   4.474   2.107   3.492
   20CHTO   C72 8236   4.648   2.007   3.568
   20CHTO   O48 8237   4.580   1.882   3.584
   20CHTO  H105 8238   4.544   1.876   3.670
   20CHTO   O38 8239   4.524   2.333   3.827
   20CHTO   C55 8240   4.511   2.297   3.966
   20CHTO  H112 8241   4.451   2.206   3.978
   20CHTO   C56 8242   4.449   2.419   4.046
   20CHTO  H113 8243   4.509   2.508   4.021
   20CHTO   O42 8244   4.316   2.446   3.997
   20CHTO  H100 8245   4.319   2.475   3.908
   20CHTO   C57 8246   4.449   2.392   4.201
   20CHTO  H114 8247   4.372   2.317   4.219
   20CHTO   N10 8248   4.411   2.511   4.283
   20CHTO  H106 8249   4.443   2.602   4.234
   20CHTO  H107 8250   4.304   2.514   4.297
   20CHTO   C58 8251   4.585   2.335   4.250
   20CHTO  H115 8252   4.661   2.417   4.254
   20CHTO   O37 8253   4.633   2.229   4.165
   20CHTO   C59 8254   4.650   2.264   4.027
   20CHTO  H116 8255   4.717   2.350   4.020
   20CHTO   C70 8256   4.714   2.145   3.955
   20CHTO   O46 8257   4.846   2.116   4.003
   20CHTO  H103 8258   4.841   2.082   4.091
   20CHTO   O39 8259   4.565   2.268   4.395
   20CHTO   C60 8260   4.684   2.247   4.473
   20CHTO  H117 8261   4.769   2.232   4.406
   20CHTO   C62 8262   4.714   2.369   4.565
   20CHTO  H119 8263   4.738   2.454   4.498
   20CHTO   O43 8264   4.595   2.402   4.641
   20CHTO  H101 8265   4.528   2.433   4.583
   20CHTO   C66 8266   4.841   2.337   4.660
   20CHTO  H123 8267   4.927   2.315   4.596
   20CHTO   N12 8268   4.880   2.454   4.742
   20CHTO  H110 8269   4.905   2.537   4.678
   20CHTO  H111 8270   4.963   2.428   0.025
   20CHTO   C69 8271   4.810   2.211   4.744
   20CHTO  H126 8272   4.718   2.228   0.024
   20CHTO   O41 8273   4.786   2.093   4.646
   20CHTO   C64 8274   4.667   2.116   4.555
   20CHTO  H121 8275   4.574   2.123   4.615
   20CHTO   C71 8276   4.653   1.994   4.460
   20CHTO   O47 8277   4.624   1.875   4.535
   20CHTO  H104 8278   4.614   1.803   4.476
   20CHTO   O34 8279   4.925   2.168   0.060
   20CHTO   C49 8280   5.049   2.121   0.138
   20CHTO   H91 8281   5.020   2.118   0.243
   20CHTO   C47 8282   5.165   2.221   0.118
   20CHTO   H89 8283   5.245   2.183   0.185
   20CHTO   O33 8284   5.127   2.352   0.163
   20CHTO   H70 8285   5.202   2.409   0.163
   20CHTO   C45 8286   5.213   2.223   4.744
   20CHTO   H87 8287   5.158   2.303   4.692
   20CHTO    N8 8288   5.358   2.258   4.743
   20CHTO   H75 8289   5.373   2.352   4.694
   20CHTO   H76 8290   5.415   2.181   4.692
   20CHTO   C43 8291   5.171   2.087   4.668
   20CHTO   H85 8292   5.068   2.101   4.637
   20CHTO   O29 8293   5.185   1.975   4.758
   20CHTO   C50 8294   5.099   1.980   0.092
   20CHTO   H92 8295   5.009   1.920   0.070
   20CHTO   C54 8296   5.167   1.905   0.209
   20CHTO   O36 8297   5.174   1.765   0.182
   20CHTO   H72 8298   5.215   1.721   0.254
   20CHTO   O27 8299   5.243   2.065   4.546
   20CHTO   C37 8300   5.249   1.956   4.453
   20CHTO   H79 8301   5.229   1.861   4.505
   20CHTO   C38 8302   5.141   1.970   4.341
   20CHTO   H80 8303   5.148   2.072   4.299
   20CHTO   O31 8304   5.012   1.955   4.403
   20CHTO   H68 8305   4.995   2.027   4.460
   20CHTO   C39 8306   5.163   1.864   4.226
   20CHTO   H81 8307   5.142   1.766   4.269
   20CHTO    N7 8308   5.068   1.882   4.111
   20CHTO   H73 8309   5.080   1.981   4.068
   20CHTO   H74 8310   4.967   1.868   4.143
   20CHTO   C40 8311   5.313   1.863   4.179
   20CHTO   H82 8312   5.336   1.957   4.129
   20CHTO   O26 8313   5.398   1.842   4.293
   20CHTO   C41 8314   5.391   1.950   4.391
   20CHTO   H83 8315   5.414   2.045   4.342
   20CHTO   C52 8316   5.500   1.925   4.497
   20CHTO   O35 8317   5.486   1.795   4.567
   20CHTO   H71 8318   5.557   1.784   4.628
   20CHTO   O28 8319   5.340   1.756   4.085
   20CHTO   C42 8320   5.473   1.722   4.031
   20CHTO   H84 8321   5.450   1.646   3.956
   20CHTO   C44 8322   5.571   1.653   4.132
   20CHTO   H86 8323   5.593   1.723   4.213
   20CHTO   O32 8324   5.502   1.539   4.186
   20CHTO   H69 8325   5.432   1.567   4.242
   20CHTO   C48 8326   5.709   1.614   4.066
   20CHTO   H90 8327   5.689   1.538   3.990
   20CHTO    N9 8328   5.804   1.551   4.163
   20CHTO   H77 8329   5.761   1.544   4.262
   20CHTO   H78 8330   5.835   1.453   4.129
   20CHTO   C51 8331   5.770   1.740   3.995
   20CHTO   H93 8332   5.795   1.814   4.070
   20CHTO   O30 8333   5.677   1.789   3.898
   20CHTO   C46 8334   5.544   1.840   3.957
   20CHTO   H88 8335   5.565   1.921   4.027
   20CHTO   C53 8336   5.464   1.892   3.835
   20CHTO   O72 8337   5.345   1.962   3.872
   20CHTO  H199 8338   5.283   1.902   3.910
   20CHTO   O22 8339   5.887   1.706   3.916
   20CHTO   C31 8340   6.002   1.797   3.896
   20CHTO   H59 8341   6.060   1.753   3.812
   20CHTO   C29 8342   5.966   1.942   3.855
   20CHTO   H57 8343   5.911   1.989   3.938
   20CHTO   O21 8344   5.877   1.937   3.742
   20CHTO   H37 8345   5.920   1.902   3.667
   20CHTO   C27 8346   6.096   2.027   3.824
   20CHTO   H55 8347   6.146   1.983   3.736
   20CHTO    N5 8348   6.067   2.170   3.796
   20CHTO   H43 8349   6.158   2.221   3.768
   20CHTO   H44 8350   5.995   2.177   3.716
   20CHTO   C25 8351   6.199   2.013   3.942
   20CHTO   H53 8352   6.165   2.072   4.029
   20CHTO   O17 8353   6.217   1.875   3.985
   20CHTO   C32 8354   6.099   1.800   4.017
   20CHTO   H60 8355   6.048   1.847   4.102
   20CHTO   C36 8356   6.145   1.658   4.057
   20CHTO   O25 8357   6.220   1.660   4.179
   20CHTO   H40 8358   6.246   1.573   4.201
   20CHTO   O15 8359   6.341   2.066   3.894
   20CHTO   C19 8360   6.482   2.045   3.926
   20CHTO   H47 8361   6.534   2.086   3.838
   20CHTO   C20 8362   6.531   2.121   4.053
   20CHTO   H48 8363   6.475   2.092   4.143
   20CHTO   O19 8364   6.507   2.262   4.029
   20CHTO   H35 8365   6.415   2.279   4.029
   20CHTO   C21 8366   6.685   2.095   4.081
   20CHTO   H49 8367   6.743   2.136   3.998
   20CHTO    N4 8368   6.736   2.159   4.205
   20CHTO   H41 8369   6.815   2.228   4.181
   20CHTO   H42 8370   6.657   2.212   4.256
   20CHTO   C22 8371   6.710   1.941   4.080
   20CHTO   H50 8372   6.660   1.896   4.166
   20CHTO   O14 8373   6.663   1.883   3.958
   20CHTO   C23 8374   6.522   1.895   3.935
   20CHTO   H51 8375   6.471   1.843   4.017
   20CHTO   C34 8376   6.489   1.821   3.804
   20CHTO   O23 8377   6.510   1.680   3.814
   20CHTO   H38 8378   6.445   1.642   3.871
   20CHTO   O16 8379   6.851   1.909   4.080
   20CHTO   C24 8380   6.895   1.775   4.162
   20CHTO   H52 8381   6.832   1.758   4.250
   20CHTO   C26 8382   7.042   1.792   4.206
   20CHTO   H54 8383   7.103   1.814   4.115
   20CHTO   O20 8384   7.053   1.908   4.292
   20CHTO   H36 8385   7.143   1.927   4.309
   20CHTO   C30 8386   7.098   1.666   4.278
   20CHTO   H58 8387   7.078   1.675   4.386
   20CHTO    N6 8388   7.246   1.660   4.268
   20CHTO   H45 8389   7.291   1.657   4.366
   20CHTO   H46 8390   7.279   1.574   4.212
   20CHTO   C33 8391   7.029   1.534   4.232
   20CHTO   H61 8392   7.100   1.450   4.232
   20CHTO   O18 8393   6.976   1.547   4.098
   20CHTO   C28 8394   6.880   1.650   4.070
   20CHTO   H56 8395   6.892   1.683   3.967
   20CHTO   C35 8396   6.737   1.590   4.082
   20CHTO   O24 8397   6.713   1.484   3.988
   20CHTO   H39 8398   6.626   1.452   4.000
   20CHTO    O9 8399   6.927   1.498   4.327
   20CHTO   C13 8400   6.972   1.376   4.430
   20CHTO   H26 8401   7.081   1.386   4.451
   20CHTO   C11 8402   6.937   1.232   4.367
   20CHTO   H24 8403   7.031   1.188   4.330
   20CHTO    O8 8404   6.849   1.248   4.253
   20CHTO    H3 8405   6.892   1.297   4.186
   20CHTO    C9 8406   6.877   1.139   4.476
   20CHTO   H22 8407   6.953   1.134   4.555
   20CHTO    N2 8408   6.858   0.998   4.435
   20CHTO   H10 8409   6.950   0.958   4.396
   20CHTO   H11 8410   6.824   0.940   4.519
   20CHTO    C7 8411   6.748   1.208   4.535
   20CHTO   H20 8412   6.727   1.152   4.629
   20CHTO    O4 8413   6.765   1.348   4.566
   20CHTO   C14 8414   6.900   1.396   4.570
   20CHTO   H27 8415   6.955   1.338   4.647
   20CHTO   C18 8416   6.901   1.543   4.617
   20CHTO   O13 8417   7.034   1.591   4.640
   20CHTO    H7 8418   7.080   1.598   4.558
   20CHTO    O2 8419   6.622   1.194   4.434
   20CHTO    C1 8420   6.495   1.198   4.501
   20CHTO   H14 8421   6.507   1.244   4.601
   20CHTO    C2 8422   6.430   1.055   4.517
   20CHTO   H15 8423   6.431   1.009   4.417
   20CHTO    O6 8424   6.513   0.979   4.607
   20CHTO    H1 8425   6.483   0.890   4.611
   20CHTO    C3 8426   6.280   1.064   4.574
   20CHTO   H16 8427   6.285   1.093   4.680
   20CHTO    N1 8428   6.209   0.932   4.568
   20CHTO    H8 8429   6.109   0.942   4.608
   20CHTO    H9 8430   6.264   0.859   4.625
   20CHTO    C4 8431   6.198   1.178   4.503
   20CHTO   H17 8432   6.168   1.144   4.403
   20CHTO    O1 8433   6.274   1.300   4.494
   20CHTO    C5 8434   6.398   1.291   4.422
   20CHTO   H18 8435   6.381   1.248   4.323
   20CHTO   C16 8436   6.449   1.436   4.407
   20CHTO   O11 8437   6.564   1.444   4.322
   20CHTO    H5 8438   6.591   1.533   4.315
   20CHTO    O3 8439   6.083   1.213   4.582
   20CHTO    C6 8440   5.976   1.284   4.513
   20CHTO   H19 8441   6.003   1.314   4.411
   20CHTO    C8 8442   5.848   1.195   4.506
   20CHTO   H21 8443   5.824   1.161   4.607
   20CHTO    O7 8444   5.880   1.080   4.424
   20CHTO    H2 8445   5.898   1.106   4.336
   20CHTO   C12 8446   5.726   1.279   4.449
   20CHTO   H25 8447   5.752   1.306   4.345
   20CHTO    N3 8448   5.601   1.197   4.443
   20CHTO   H12 8449   5.575   1.160   4.541
   20CHTO   H13 8450   5.614   1.114   4.374
   20CHTO   C15 8451   5.711   1.411   4.533
   20CHTO   H28 8452   5.681   1.390   4.636
   20CHTO   O10 8453   5.610   1.511   4.471
   20CHTO    H4 8454   5.596   1.583   4.529
   20CHTO    O5 8455   5.833   1.486   4.532
   20CHTO   C10 8456   5.944   1.415   4.591
   20CHTO   H23 8457   5.918   1.390   4.694
   20CHTO   C17 8458   6.064   1.510   4.598
   20CHTO   O12 8459   6.108   1.552   4.468
   20CHTO    H6 8460   6.182   1.609   4.477
   21GLOH   H03 8461   8.630   3.579   3.681
   21GLOH    O1 8462   8.582   3.649   3.733
   21GLOH    C1 8463   8.514   3.586   3.843
   21GLOH   H02 8464   8.558   3.619   3.937
   21GLOH   H08 8465   8.528   3.477   3.840
   21GLOH    C2 8466   8.363   3.615   3.847
   21GLOH   H04 8467   8.349   3.724   3.856
   21GLOH    O2 8468   8.294   3.569   3.729
   21GLOH   H05 8469   8.330   3.479   3.703
   21GLOH    C3 8470   8.300   3.549   3.972
   21GLOH   H06 8471   8.317   3.442   3.966
   21GLOH   H07 8472   8.192   3.564   3.968
   21GLOH    O3 8473   8.353   3.602   4.094
   21GLOH   H01 8474   8.326   3.695   4.105
   22GLOH   H03 8475   1.828   3.822   3.632
   22GLOH    O1 8476   1.741   3.778   3.647
   22GLOH    C1 8477   1.633   3.861   3.598
   22GLOH   H02 8478   1.669   3.933   3.524
   22GLOH   H08 8479   1.591   3.919   3.681
   22GLOH    C2 8480   1.521   3.776   3.536
   22GLOH   H04 8481   1.489   3.704   3.613
   22GLOH    O2 8482   1.405   3.856   3.502
   22GLOH   H05 8483   1.334   3.794   3.466
   22GLOH    C3 8484   1.576   3.695   3.417
   22GLOH   H06 8485   1.494   3.633   3.379
   22GLOH   H07 8486   1.651   3.625   3.455
   22GLOH    O3 8487   1.632   3.772   3.308
   22GLOH   H01 8488   1.714   3.819   3.338
   23GLOH   H03 8489   9.880   6.712   1.101
   23GLOH    O1 8490   9.822   6.740   1.025
   23GLOH    C1 8491   9.886   6.849   0.956
   23GLOH   H02 8492   9.862   6.844   0.850
   23GLOH   H08 8493   9.995   6.841   0.964
   23GLOH    C2 8494   9.843   6.986   1.010
   23GLOH   H04 8495   9.855   6.985   1.120
   23GLOH    O2 8496   9.927   7.090   0.954
   23GLOH   H05 8497   9.874   7.176   0.949
   23GLOH    C3 8498   9.694   7.011   0.979
   23GLOH   H06 8499   9.637   6.925   1.014
   23GLOH   H07 8500   9.682   7.015   0.870
   23GLOH    O3 8501   9.644   7.132   1.038
   23GLOH   H01 8502   9.551   7.147   1.006
   24GLOH   H03 8503   7.559   1.679   4.649
   24GLOH    O1 8504   7.548   1.758   4.705
   24GLOH    C1 8505   7.457   1.847   4.637
   24GLOH   H02 8506   7.440   1.936   4.697
   24GLOH   H08 8507   7.359   1.798   4.625
   24GLOH    C2 8508   7.509   1.889   4.499
   24GLOH   H04 8509   7.602   1.947   4.513
   24GLOH    O2 8510   7.536   1.773   4.418
   24GLOH   H05 8511   7.618   1.786   4.366
   24GLOH    C3 8512   7.405   1.980   4.430
   24GLOH   H06 8513   7.312   1.924   4.419
   24GLOH   H07 8514   7.441   2.003   4.329
   24GLOH    O3 8515   7.383   2.101   4.504
   24GLOH   H01 8516   7.317   2.157   4.459
   25GLOH   H03 8517   7.687   9.155   2.180
   25GLOH    O1 8518   7.714   9.251   2.174
   25GLOH    C1 8519   7.807   9.279   2.280
   25GLOH   H02 8520   7.758   9.270   2.376
   25GLOH   H08 8521   7.842   9.382   2.272
   25GLOH    C2 8522   7.931   9.187   2.279
   25GLOH   H04 8523   8.004   9.227   2.350
   25GLOH    O2 8524   7.898   9.052   2.317
   25GLOH   H05 8525   7.815   9.023   2.269
   25GLOH    C3 8526   7.995   9.187   2.139
   25GLOH   H06 8527   7.920   9.152   2.069
   25GLOH   H07 8528   8.075   9.113   2.138
   25GLOH    O3 8529   8.045   9.316   2.099
   25GLOH   H01 8530   8.029   9.322   2.002
   26GLOH   H03 8531   7.522   8.988   1.016
   26GLOH    O1 8532   7.576   8.915   0.976
   26GLOH    C1 8533   7.711   8.936   1.020
   26GLOH   H02 8534   7.759   9.015   0.962
   26GLOH   H08 8535   7.770   8.846   1.006
   26GLOH    C2 8536   7.715   8.975   1.170
   26GLOH   H04 8537   7.667   8.895   1.227
   26GLOH    O2 8538   7.852   8.989   1.214
   26GLOH   H05 8539   7.894   8.898   1.209
   26GLOH    C3 8540   7.634   9.105   1.193
   26GLOH   H06 8541   7.688   9.188   1.147
   26GLOH   H07 8542   7.631   9.124   1.300
   26GLOH    O3 8543   7.500   9.096   1.139
   26GLOH   H01 8544   7.442   9.158   1.189
   27GLOH   H03 8545   8.520   5.983   4.106
   27GLOH    O1 8546   8.448   6.018   4.050
   27GLOH    C1 8547   8.503   6.083   3.934
   27GLOH   H02 8548   8.542   6.009   3.864
   27GLOH   H08 8549   8.587   6.147   3.962
   27GLOH    C2 8550   8.398   6.169   3.861
   27GLOH   H04 8551   8.361   6.245   3.932
   27GLOH    O2 8552   8.458   6.234   3.748
   27GLOH   H05 8553   8.399   6.308   3.719
   27GLOH    C3 8554   8.279   6.080   3.820
   27GLOH   H06 8555   8.239   6.033   3.910
   27GLOH   H07 8556   8.317   5.999   3.757
   27GLOH    O3 8557   8.175   6.151   3.752
   27GLOH   H01 8558   8.101   6.087   3.737
   28GLOH   H03 8559   8.436   6.390   3.352
   28GLOH    O1 8560   8.387   6.313   3.312
   28GLOH    C1 8561   8.454   6.270   3.192
   28GLOH   H02 8562   8.408   6.316   3.105
   28GLOH   H08 8563   8.441   6.162   3.179
   28GLOH    C2 8564   8.606   6.299   3.184
   28GLOH   H04 8565   8.641   6.258   3.089
   28GLOH    O2 8566   8.631   6.442   3.181
   28GLOH   H05 8567   8.602   6.479   3.269
   28GLOH    C3 8568   8.686   6.228   3.296
   28GLOH   H06 8569   8.786   6.207   3.258
   28GLOH   H07 8570   8.639   6.131   3.314
   28GLOH    O3 8571   8.697   6.300   3.421
   28GLOH   H01 8572   8.751   6.243   3.482
   29GLOH   H03 8573   4.542   3.741   3.800
   29GLOH    O1 8574   4.581   3.731   3.891
   29GLOH    C1 8575   4.511   3.821   3.979
   29GLOH   H02 8576   4.532   3.924   3.952
   29GLOH   H08 8577   4.547   3.807   4.081
   29GLOH    C2 8578   4.359   3.799   3.978
   29GLOH   H04 8579   4.326   3.792   3.873
   29GLOH    O2 8580   4.325   3.675   4.043
   29GLOH   H05 8581   4.384   3.605   4.009
   29GLOH    C3 8582   4.286   3.918   4.042
   29GLOH   H06 8583   4.325   3.932   4.143
   29GLOH   H07 8584   4.180   3.894   4.051
   29GLOH    O3 8585   4.303   4.039   3.965
   29GLOH   H01 8586   4.268   4.027   3.874
   30GLOH   H03 8587   0.666   3.746   4.038
   30GLOH    O1 8588   0.640   3.836   4.066
   30GLOH    C1 8589   0.697   3.933   3.976
   30GLOH   H02 8590   0.698   3.895   3.874
   30GLOH   H08 8591   0.800   3.954   4.004
   30GLOH    C2 8592   0.619   4.066   3.978
   30GLOH   H04 8593   0.624   4.107   4.080
   30GLOH    O2 8594   0.680   4.161   3.887
   30GLOH   H05 8595   0.671   4.127   3.793
   30GLOH    C3 8596   0.471   4.041   3.943
   30GLOH   H06 8597   0.428   3.975   4.019
   30GLOH   H07 8598   0.466   3.988   3.848
   30GLOH    O3 8599   0.396   4.163   3.936
   30GLOH   H01 8600   0.457   4.233   3.904
   31GLOH   H03 8601   4.866   4.414   2.038
   31GLOH    O1 8602   4.898   4.356   2.112
   31GLOH    C1 8603   4.786   4.307   2.189
   31GLOH   H02 8604   4.747   4.387   2.252
   31GLOH   H08 8605   4.818   4.228   2.256
   31GLOH    C2 8606   4.670   4.253   2.103
   31GLOH   H04 8607   4.596   4.207   2.170
   31GLOH    O2 8608   4.608   4.362   2.032
   31GLOH   H05 8609   4.679   4.410   1.980
   31GLOH    C3 8610   4.719   4.144   2.006
   31GLOH   H06 8611   4.776   4.070   2.063
   31GLOH   H07 8612   4.790   4.189   1.935
   31GLOH    O3 8613   4.613   4.078   1.934
   31GLOH   H01 8614   4.546   4.145   1.905
   32GLOH   H03 8615   9.902   1.892   3.088
   32GLOH    O1 8616   9.874   1.899   2.993
   32GLOH    C1 8617   9.864   2.038   2.958
   32GLOH   H02 8618   9.933   2.060   2.877
   32GLOH   H08 8619   9.893   2.102   3.042
   32GLOH    C2 8620   9.721   2.079   2.915
   32GLOH   H04 8621   9.689   2.011   2.835
   32GLOH    O2 8622   9.628   2.071   3.025
   32GLOH   H05 8623   9.647   1.987   3.075
   32GLOH    C3 8624   9.724   2.221   2.858
   32GLOH   H06 8625   9.757   2.289   2.937
   32GLOH   H07 8626   9.623   2.251   2.831
   32GLOH    O3 8627   9.811   2.233   2.743
   32GLOH   H01 8628   9.764   2.192   2.666
   33GLOH   H03 8629   2.763   1.203   3.774
   33GLOH    O1 8630   2.718   1.289   3.779
   33GLOH    C1 8631   2.685   1.333   3.646
   33GLOH   H02 8632   2.776   1.360   3.592
   33GLOH   H08 8633   2.623   1.422   3.650
   33GLOH    C2 8634   2.610   1.225   3.565
   33GLOH   H04 8635   2.598   1.263   3.462
   33GLOH    O2 8636   2.685   1.101   3.559
   33GLOH   H05 8637   2.778   1.119   3.531
   33GLOH    C3 8638   2.470   1.202   3.624
   33GLOH   H06 8639   2.480   1.184   3.731
   33GLOH   H07 8640   2.428   1.111   3.581
   33GLOH    O3 8641   2.379   1.312   3.600
   33GLOH   H01 8642   2.365   1.315   3.502
   34GLOH   H03 8643   6.613   9.431   0.880
   34GLOH    O1 8644   6.649   9.414   0.790
   34GLOH    C1 8645   6.587   9.504   0.695
   34GLOH   H02 8646   6.615   9.476   0.594
   34GLOH   H08 8647   6.623   9.605   0.711
   34GLOH    C2 8648   6.433   9.509   0.703
   34GLOH   H04 8649   6.395   9.406   0.690
   34GLOH    O2 8650   6.386   9.558   0.830
   34GLOH   H05 8651   6.435   9.642   0.854
   34GLOH    C3 8652   6.377   9.591   0.585
   34GLOH   H06 8653   6.269   9.603   0.600
   34GLOH   H07 8654   6.389   9.532   0.493
   34GLOH    O3 8655   6.439   9.719   0.570
   34GLOH   H01 8656   6.392   9.783   0.631
   35GLOH   H03 8657   4.985   2.471   2.858
   35GLOH    O1 8658   5.016   2.562   2.882
   35GLOH    C1 8659   5.154   2.574   2.842
   35GLOH   H02 8660   5.169   2.528   2.744
   35GLOH   H08 8661   5.219   2.521   2.912
   35GLOH    C2 8662   5.204   2.721   2.834
   35GLOH   H04 8663   5.313   2.717   2.817
   35GLOH    O2 8664   5.144   2.795   2.726
   35GLOH   H05 8665   5.118   2.733   2.651
   35GLOH    C3 8666   5.181   2.792   2.969
   35GLOH   H06 8667   5.206   2.897   2.957
   35GLOH   H07 8668   5.251   2.751   3.042
   35GLOH    O3 8669   5.046   2.777   3.017
   35GLOH   H01 8670   5.015   2.691   2.978
   36GLOH   H03 8671   4.908   7.914   1.247
   36GLOH    O1 8672   4.941   7.827   1.213
   36GLOH    C1 8673   4.870   7.800   1.090
   36GLOH   H02 8674   4.778   7.745   1.111
   36GLOH   H08 8675   4.931   7.738   1.025
   36GLOH    C2 8676   4.833   7.929   1.014
   36GLOH   H04 8677   4.926   7.982   0.988
   36GLOH    O2 8678   4.763   7.898   0.891
   36GLOH   H05 8679   4.684   7.839   0.909
   36GLOH    C3 8680   4.747   8.023   1.102
   36GLOH   H06 8681   4.647   7.982   1.108
   36GLOH   H07 8682   4.738   8.119   1.050
   36GLOH    O3 8683   4.802   8.043   1.234
   36GLOH   H01 8684   4.777   8.134   1.266
   37GLOH   H03 8685   2.724   2.746   3.304
   37GLOH    O1 8686   2.709   2.836   3.266
   37GLOH    C1 8687   2.835   2.882   3.213
   37GLOH   H02 8688   2.877   2.806   3.147
   37GLOH   H08 8689   2.906   2.896   3.294
   37GLOH    C2 8690   2.823   3.015   3.135
   37GLOH   H04 8691   2.737   3.006   3.068
   37GLOH    O2 8692   2.802   3.128   3.223
   37GLOH   H05 8693   2.731   3.104   3.289
   37GLOH    C3 8694   2.948   3.034   3.048
   37GLOH   H06 8695   3.036   3.036   3.113
   37GLOH   H07 8696   2.943   3.132   3.000
   37GLOH    O3 8697   2.962   2.931   2.949
   37GLOH   H01 8698   3.051   2.938   2.907
   38GLOH   H03 8699   8.578   5.435   0.611
   38GLOH    O1 8700   8.555   5.351   0.564
   38GLOH    C1 8701   8.455   5.382   0.464
   38GLOH   H02 8702   8.501   5.444   0.386
   38GLOH   H08 8703   8.374   5.441   0.507
   38GLOH    C2 8704   8.394   5.258   0.395
   38GLOH   H04 8705   8.476   5.198   0.352
   38GLOH    O2 8706   8.320   5.176   0.487
   38GLOH   H05 8707   8.360   5.084   0.488
   38GLOH    C3 8708   8.302   5.300   0.279
   38GLOH   H06 8709   8.226   5.368   0.317
   38GLOH   H07 8710   8.251   5.211   0.243
   38GLOH    O3 8711   8.373   5.362   0.170
   38GLOH   H01 8712   8.315   5.359   0.091
   39GLOH   H03 8713   8.501   4.824   2.365
   39GLOH    O1 8714   8.453   4.741   2.340
   39GLOH    C1 8715   8.398   4.759   2.208
   39GLOH   H02 8716   8.443   4.688   2.139
   39GLOH   H08 8717   8.421   4.858   2.169
   39GLOH    C2 8718   8.245   4.740   2.204
   39GLOH   H04 8719   8.199   4.818   2.268
   39GLOH    O2 8720   8.195   4.755   2.070
   39GLOH   H05 8721   8.170   4.851   2.056
   39GLOH    C3 8722   8.208   4.602   2.263
   39GLOH   H06 8723   8.253   4.525   2.201
   39GLOH   H07 8724   8.100   4.589   2.257
   39GLOH    O3 8725   8.254   4.591   2.399
   39GLOH   H01 8726   8.338   4.644   2.401
   40GLOH   H03 8727   3.090   6.636   0.612
   40GLOH    O1 8728   3.050   6.546   0.626
   40GLOH    C1 8729   2.961   6.519   0.515
   40GLOH   H02 8730   3.006   6.551   0.421
   40GLOH   H08 8731   2.868   6.576   0.527
   40GLOH    C2 8732   2.925   6.370   0.505
   40GLOH   H04 8733   2.872   6.341   0.597
   40GLOH    O2 8734   2.839   6.344   0.393
   40GLOH   H05 8735   2.746   6.333   0.427
   40GLOH    C3 8736   3.053   6.285   0.495
   40GLOH   H06 8737   3.107   6.313   0.405
   40GLOH   H07 8738   3.026   6.180   0.486
   40GLOH    O3 8739   3.134   6.306   0.612
   40GLOH   H01 8740   3.127   6.402   0.632
   41GLOH   H03 8741   8.393   3.846   0.474
   41GLOH    O1 8742   8.410   3.918   0.406
   41GLOH    C1 8743   8.504   3.863   0.311
   41GLOH   H02 8744   8.526   3.759   0.334
   41GLOH   H08 8745   8.598   3.917   0.316
   41GLOH    C2 8746   8.452   3.868   0.166
   41GLOH   H04 8747   8.349   3.830   0.166
   41GLOH    O2 8748   8.449   4.004   0.115
   41GLOH   H05 8749   8.376   4.052   0.165
   41GLOH    C3 8750   8.535   3.777   0.075
   41GLOH   H06 8751   8.640   3.805   0.083
   41GLOH   H07 8752   8.506   3.794   4.752
   41GLOH    O3 8753   8.518   3.637   0.108
   41GLOH   H01 8754   8.424   3.612   0.090
   42GLOH   H03 8755   5.094   4.271   0.552
   42GLOH    O1 8756   5.162   4.232   0.491
   42GLOH    C1 8757   5.124   4.260   0.355
   42GLOH   H02 8758   5.211   4.249   0.290
   42GLOH   H08 8759   5.092   4.363   0.345
   42GLOH    C2 8760   5.012   4.169   0.300
   42GLOH   H04 8761   4.983   4.208   0.201
   42GLOH    O2 8762   5.057   4.032   0.283
   42GLOH   H05 8763   5.099   4.001   0.368
   42GLOH    C3 8764   4.888   4.171   0.390
   42GLOH   H06 8765   4.911   4.122   0.484
   42GLOH   H07 8766   4.810   4.111   0.342
   42GLOH    O3 8767   4.838   4.304   0.413
   42GLOH   H01 8768   4.791   4.334   0.330
   43GLOH   H03 8769   7.559   3.489   4.742
   43GLOH    O1 8770   7.497   3.438   4.685
   43GLOH    C1 8771   7.398   3.375   4.769
   43GLOH   H02 8772   7.325   3.449   0.022
   43GLOH   H08 8773   7.444   3.332   0.076
   43GLOH    C2 8774   7.321   3.263   4.696
   43GLOH   H04 8775   7.393   3.187   4.662
   43GLOH    O2 8776   7.226   3.202   0.004
   43GLOH   H05 8777   7.271   3.134   0.063
   43GLOH    C3 8778   7.249   3.320   4.572
   43GLOH   H06 8779   7.171   3.389   4.604
   43GLOH   H07 8780   7.200   3.238   4.519
   43GLOH    O3 8781   7.342   3.386   4.485
   43GLOH   H01 8782   7.415   3.418   4.542
   44GLOH   H03 8783   2.763   9.541   2.299
   44GLOH    O1 8784   2.734   9.454   2.261
   44GLOH    C1 8785   2.696   9.468   2.122
   44GLOH   H02 8786   2.736   9.384   2.065
   44GLOH   H08 8787   2.739   9.558   2.080
   44GLOH    C2 8788   2.544   9.471   2.102
   44GLOH   H04 8789   2.505   9.561   2.153
   44GLOH    O2 8790   2.514   9.481   1.961
   44GLOH   H05 8791   2.450   9.556   1.947
   44GLOH    C3 8792   2.478   9.347   2.166
   44GLOH   H06 8793   2.511   9.340   2.270
   44GLOH   H07 8794   2.516   9.258   2.115
   44GLOH    O3 8795   2.334   9.351   2.160
   44GLOH   H01 8796   2.299   9.289   2.229
   45GLOH   H03 8797   7.880   0.824   2.240
   45GLOH    O1 8798   7.929   0.842   2.154
   45GLOH    C1 8799   7.832   0.845   2.047
   45GLOH   H02 8800   7.806   0.948   2.024
   45GLOH   H08 8801   7.739   0.796   2.077
   45GLOH    C2 8802   7.882   0.778   1.918
   45GLOH   H04 8803   7.973   0.831   1.885
   45GLOH    O2 8804   7.913   0.639   1.938
   45GLOH   H05 8805   7.980   0.632   2.012
   45GLOH    C3 8806   7.777   0.791   1.806
   45GLOH   H06 8807   7.682   0.751   1.842
   45GLOH   H07 8808   7.807   0.728   1.722
   45GLOH    O3 8809   7.758   0.927   1.760
   45GLOH   H01 8810   7.755   0.922   1.661
   46GLOH   H03 8811   4.937   5.557   1.969
   46GLOH    O1 8812   4.858   5.548   2.030
   46GLOH    C1 8813   4.761   5.649   1.997
   46GLOH   H02 8814   4.745   5.653   1.889
   46GLOH   H08 8815   4.798   5.748   2.027
   46GLOH    C2 8816   4.626   5.625   2.068
   46GLOH   H04 8817   4.641   5.635   2.177
   46GLOH    O2 8818   4.530   5.723   2.023
   46GLOH   H05 8819   4.490   5.772   2.102
   46GLOH    C3 8820   4.574   5.483   2.037
   46GLOH   H06 8821   4.540   5.480   1.934
   46GLOH   H07 8822   4.486   5.465   2.100
   46GLOH    O3 8823   4.674   5.383   2.060
   46GLOH   H01 8824   4.761   5.432   2.054
   47GLOH   H03 8825   0.023   4.833   1.552
   47GLOH    O1 8826   0.103   4.882   1.519
   47GLOH    C1 8827   0.170   4.803   1.419
   47GLOH   H02 8828   0.134   4.830   1.320
   47GLOH   H08 8829   0.147   4.697   1.433
   47GLOH    C2 8830   0.324   4.819   1.421
   47GLOH   H04 8831   0.362   4.761   1.507
   47GLOH    O2 8832   0.383   4.768   1.300
   47GLOH   H05 8833   0.317   4.708   1.252
   47GLOH    C3 8834   0.363   4.967   1.443
   47GLOH   H06 8835   0.320   5.025   1.361
   47GLOH   H07 8836   0.471   4.976   1.435
   47GLOH    O3 8837   0.318   5.017   1.569
   47GLOH   H01 8838   0.229   4.975   1.584
   48GLOH   H03 8839   7.376   9.360   1.141
   48GLOH    O1 8840   7.402   9.421   1.066
   48GLOH    C1 8841   7.332   9.377   0.947
   48GLOH   H02 8842   7.248   9.314   0.974
   48GLOH   H08 8843   7.399   9.316   0.886
   48GLOH    C2 8844   7.279   9.492   0.859
   48GLOH   H04 8845   7.221   9.448   0.777
   48GLOH    O2 8846   7.192   9.580   0.934
   48GLOH   H05 8847   7.133   9.526   0.996
   48GLOH    C3 8848   7.392   9.575   0.797
   48GLOH   H06 8849   7.447   9.624   0.877
   48GLOH   H07 8850   7.348   9.654   0.736
   48GLOH    O3 8851   7.483   9.497   0.716
   48GLOH   H01 8852   7.431   9.428   0.666
   49GLOH   H03 8853   6.146   8.246   2.239
   49GLOH    O1 8854   6.136   8.159   2.287
   49GLOH    C1 8855   6.160   8.187   2.426
   49GLOH   H02 8856   6.067   8.216   2.475
   49GLOH   H08 8857   6.229   8.271   2.437
   49GLOH    C2 8858   6.219   8.068   2.504
   49GLOH   H04 8859   6.235   8.102   2.607
   49GLOH    O2 8860   6.130   7.954   2.508
   49GLOH   H05 8861   6.102   7.927   2.416
   49GLOH    C3 8862   6.357   8.030   2.447
   49GLOH   H06 8863   6.346   8.009   2.341
   49GLOH   H07 8864   6.390   7.937   2.494
   49GLOH    O3 8865   6.455   8.133   2.468
   49GLOH   H01 8866   6.501   8.152   2.382
   50GLOH   H03 8867   8.896   5.854   0.776
   50GLOH    O1 8868   8.944   5.914   0.840
   50GLOH    C1 8869   8.868   5.915   0.962
   50GLOH   H02 8870   8.762   5.908   0.941
   50GLOH   H08 8871   8.883   6.010   1.014
   50GLOH    C2 8872   8.908   5.801   1.057
   50GLOH   H04 8873   9.013   5.816   1.087
   50GLOH    O2 8874   8.825   5.807   1.175
   50GLOH   H05 8875   8.880   5.849   1.248
   50GLOH    C3 8876   8.900   5.665   0.984
   50GLOH   H06 8877   8.951   5.675   0.888
   50GLOH   H07 8878   8.795   5.645   0.960
   50GLOH    O3 8879   8.957   5.555   1.057
   50GLOH   H01 8880   8.999   5.496   0.989
   51GLOH   H03 8881   1.822   6.486   4.159
   51GLOH    O1 8882   1.893   6.468   4.094
   51GLOH    C1 8883   1.842   6.477   3.960
   51GLOH   H02 8884   1.815   6.580   3.937
   51GLOH   H08 8885   1.750   6.418   3.950
   51GLOH    C2 8886   1.943   6.428   3.855
   51GLOH   H04 8887   1.962   6.321   3.875
   51GLOH    O2 8888   1.884   6.441   3.724
   51GLOH   H05 8889   1.954   6.452   3.655
   51GLOH    C3 8890   2.077   6.504   3.868
   51GLOH   H06 8891   2.111   6.496   3.972
   51GLOH   H07 8892   2.057   6.609   3.849
   51GLOH    O3 8893   2.180   6.455   3.780
   51GLOH   H01 8894   2.178   6.357   3.779
   52GLOH   H03 8895   6.109   1.156   2.218
   52GLOH    O1 8896   6.021   1.178   2.176
   52GLOH    C1 8897   5.924   1.208   2.278
   52GLOH   H02 8898   5.841   1.263   2.234
   52GLOH   H08 8899   5.967   1.272   2.354
   52GLOH    C2 8900   5.867   1.081   2.346
   52GLOH   H04 8901   5.846   1.008   2.266
   52GLOH    O2 8902   5.963   1.022   2.437
   52GLOH   H05 8903   6.021   0.958   2.386
   52GLOH    C3 8904   5.733   1.111   2.414
   52GLOH   H06 8905   5.695   1.019   2.457
   52GLOH   H07 8906   5.662   1.141   2.337
   52GLOH    O3 8907   5.740   1.213   2.515
   52GLOH   H01 8908   5.795   1.177   2.589
   53GLOH   H03 8909   8.096   1.234   2.198
   53GLOH    O1 8910   8.100   1.327   2.164
   53GLOH    C1 8911   8.005   1.335   2.056
   53GLOH   H02 8912   7.998   1.240   2.003
   53GLOH   H08 8913   8.039   1.409   1.982
   53GLOH    C2 8914   7.864   1.376   2.103
   53GLOH   H04 8915   7.872   1.478   2.145
   53GLOH    O2 8916   7.771   1.378   1.993
   53GLOH   H05 8917   7.743   1.285   1.971
   53GLOH    C3 8918   7.815   1.283   2.215
   53GLOH   H06 8919   7.714   1.314   2.244
   53GLOH   H07 8920   7.878   1.297   2.303
   53GLOH    O3 8921   7.815   1.146   2.175
   53GLOH   H01 8922   7.760   1.094   2.240
   54GLOH   H03 8923   3.106   7.278   0.034
   54GLOH    O1 8924   3.182   7.227   4.775
   54GLOH    C1 8925   3.279   7.200   0.097
   54GLOH   H02 8926   3.298   7.290   0.155
   54GLOH   H08 8927   3.374   7.171   0.052
   54GLOH    C2 8928   3.232   7.087   0.191
   54GLOH   H04 8929   3.132   7.113   0.228
   54GLOH    O2 8930   3.225   6.964   0.116
   54GLOH   H05 8931   3.173   6.984   0.035
   54GLOH    C3 8932   3.324   7.071   0.313
   54GLOH   H06 8933   3.417   7.023   0.281
   54GLOH   H07 8934   3.276   7.004   0.383
   54GLOH    O3 8935   3.353   7.197   0.377
   54GLOH   H01 8936   3.435   7.232   0.331
   55GLOH   H03 8937   3.708   2.208   4.640
   55GLOH    O1 8938   3.744   2.220   4.730
   55GLOH    C1 8939   3.645   2.284   0.032
   55GLOH   H02 8940   3.566   2.214   0.060
   55GLOH   H08 8941   3.597   2.367   4.760
   55GLOH    C2 8942   3.707   2.340   0.162
   55GLOH   H04 8943   3.785   2.414   0.135
   55GLOH    O2 8944   3.606   2.405   0.242
   55GLOH   H05 8945   3.648   2.481   0.291
   55GLOH    C3 8946   3.774   2.227   0.243
   55GLOH   H06 8947   3.696   2.168   0.290
   55GLOH   H07 8948   3.832   2.272   0.323
   55GLOH    O3 8949   3.857   2.145   0.161
   55GLOH   H01 8950   3.833   2.167   0.067
   56GLOH   H03 8951   8.360   5.322   1.017
   56GLOH    O1 8952   8.302   5.396   0.987
   56GLOH    C1 8953   8.199   5.413   1.087
   56GLOH   H02 8954   8.180   5.519   1.103
   56GLOH   H08 8955   8.233   5.372   1.182
   56GLOH    C2 8956   8.067   5.343   1.049
   56GLOH   H04 8957   8.087   5.236   1.032
   56GLOH    O2 8958   7.972   5.358   1.157
   56GLOH   H05 8959   7.906   5.284   1.153
   56GLOH    C3 8960   8.012   5.404   0.919
   56GLOH   H06 8961   7.984   5.508   0.937
   56GLOH   H07 8962   7.921   5.351   0.891
   56GLOH    O3 8963   8.108   5.398   0.812
   56GLOH   H01 8964   8.197   5.398   0.855
   57GLOH   H03 8965   1.470   6.450   1.024
   57GLOH    O1 8966   1.383   6.486   0.992
   57GLOH    C1 8967   1.277   6.438   1.077
   57GLOH   H02 8968   1.268   6.330   1.067
   57GLOH   H08 8969   1.182   6.481   1.047
   57GLOH    C2 8970   1.298   6.470   1.227
   57GLOH   H04 8971   1.207   6.440   1.280
   57GLOH    O2 8972   1.409   6.396   1.281
   57GLOH   H05 8973   1.407   6.403   1.381
   57GLOH    C3 8974   1.318   6.622   1.247
   57GLOH   H06 8975   1.410   6.651   1.196
   57GLOH   H07 8976   1.334   6.640   1.354
   57GLOH    O3 8977   1.207   6.700   1.200
   57GLOH   H01 8978   1.125   6.666   1.245
   58GLOH   H03 8979   8.658   1.650   1.348
   58GLOH    O1 8980   8.619   1.571   1.302
   58GLOH    C1 8981   8.606   1.600   1.161
   58GLOH   H02 8982   8.698   1.644   1.123
   58GLOH   H08 8983   8.528   1.673   1.143
   58GLOH    C2 8984   8.576   1.476   1.074
   58GLOH   H04 8985   8.561   1.512   0.971
   58GLOH    O2 8986   8.684   1.380   1.074
   58GLOH   H05 8987   8.768   1.422   1.111
   58GLOH    C3 8988   8.444   1.409   1.117
   58GLOH   H06 8989   8.448   1.391   1.224
   58GLOH   H07 8990   8.438   1.312   1.069
   58GLOH    O3 8991   8.328   1.487   1.083
   58GLOH   H01 8992   8.253   1.460   1.143
   59GLOH   H03 8993   5.131   9.405   1.882
   59GLOH    O1 8994   5.102   9.324   1.929
   59GLOH    C1 8995   4.963   9.340   1.965
   59GLOH   H02 8996   4.954   9.409   2.049
   59GLOH   H08 8997   4.920   9.245   1.996
   59GLOH    C2 8998   4.882   9.397   1.847
   59GLOH   H04 8999   4.902   9.335   1.758
   59GLOH    O2 9000   4.740   9.395   1.874
   59GLOH   H05 9001   4.716   9.472   1.933
   59GLOH    C3 9002   4.932   9.540   1.818
   59GLOH   H06 9003   4.925   9.599   1.909
   59GLOH   H07 9004   4.866   9.586   1.745
   59GLOH    O3 9005   5.068   9.540   1.769
   59GLOH   H01 9006   5.060   9.520   1.672
   60GLOH   H03 9007   9.066   8.514   1.822
   60GLOH    O1 9008   8.994   8.452   1.850
   60GLOH    C1 9009   8.979   8.345   1.754
   60GLOH   H02 9010   8.895   8.282   1.784
   60GLOH   H08 9011   9.066   8.280   1.756
   60GLOH    C2 9012   8.954   8.389   1.609
   60GLOH   H04 9013   8.945   8.299   1.547
   60GLOH    O2 9014   8.830   8.464   1.598
   60GLOH   H05 9015   8.822   8.503   1.505
   60GLOH    C3 9016   9.071   8.472   1.554
   60GLOH   H06 9017   9.067   8.571   1.599
   60GLOH   H07 9018   9.056   8.487   1.447
   60GLOH    O3 9019   9.199   8.410   1.577
   60GLOH   H01 9020   9.259   8.431   1.500
   61GLOH   H03 9021   3.954   4.787   0.468
   61GLOH    O1 9022   4.012   4.774   0.548
   61GLOH    C1 9023   4.092   4.655   0.529
   61GLOH   H02 9024   4.177   4.677   0.465
   61GLOH   H08 9025   4.034   4.577   0.480
   61GLOH    C2 9026   4.144   4.598   0.662
   61GLOH   H04 9027   4.059   4.588   0.732
   61GLOH    O2 9028   4.202   4.468   0.638
   61GLOH   H05 9029   4.144   4.397   0.676
   61GLOH    C3 9030   4.249   4.692   0.724
   61GLOH   H06 9031   4.210   4.794   0.722
   61GLOH   H07 9032   4.338   4.691   0.661
   61GLOH    O3 9033   4.283   4.655   0.859
   61GLOH   H01 9034   4.214   4.697   0.918
   62GLOH   H03 9035   5.037   1.843   0.658
   62GLOH    O1 9036   5.007   1.851   0.564
   62GLOH    C1 9037   4.902   1.754   0.545
   62GLOH   H02 9038   4.808   1.794   0.583
   62GLOH   H08 9039   4.923   1.663   0.601
   62GLOH    C2 9040   4.884   1.717   0.397
   62GLOH   H04 9041   4.981   1.682   0.359
   62GLOH    O2 9042   4.788   1.610   0.385
   62GLOH   H05 9043   4.708   1.633   0.441
   62GLOH    C3 9044   4.841   1.839   0.313
   62GLOH   H06 9045   4.857   1.815   0.208
   62GLOH   H07 9046   4.909   1.921   0.336
   62GLOH    O3 9047   4.705   1.883   0.333
   62GLOH   H01 9048   4.692   1.918   0.425
   63GLOH   H03 9049   7.668   5.365   3.371
   63GLOH    O1 9050   7.654   5.387   3.468
   63GLOH    C1 9051   7.687   5.269   3.545
   63GLOH   H02 9052   7.794   5.250   3.540
   63GLOH   H08 9053   7.638   5.181   3.503
   63GLOH    C2 9054   7.645   5.282   3.693
   63GLOH   H04 9055   7.536   5.295   3.697
   63GLOH    O2 9056   7.681   5.163   3.766
   63GLOH   H05 9057   7.629   5.160   3.849
   63GLOH    C3 9058   7.712   5.406   3.756
   63GLOH   H06 9059   7.820   5.392   3.755
   63GLOH   H07 9060   7.681   5.414   3.860
   63GLOH    O3 9061   7.676   5.522   3.682
   63GLOH   H01 9062   7.666   5.490   3.589
   64GLOH   H03 9063   9.953   9.459   3.556
   64GLOH    O1 9064   9.988   9.386   3.500
   64GLOH    C1 9065   9.883   9.347   3.409
   64GLOH   H02 9066   9.785   9.367   3.453
   64GLOH   H08 9067   9.885   9.239   3.392
   64GLOH    C2 9068   9.886   9.417   3.271
   64GLOH   H04 9069   9.804   9.375   3.212
   64GLOH    O2 9070   9.867   9.560   3.281
   64GLOH   H05 9071   9.791   9.581   3.342
   64GLOH    C3 9072   0.017   9.385   3.197
   64GLOH   H06 9073   0.101   9.423   3.256
   64GLOH   H07 9074   0.018   9.440   3.103
   64GLOH    O3 9075   0.032   9.245   3.172
   64GLOH   H01 9076   0.076   9.204   3.252
   65GLOH   H03 9077   2.968   2.292   2.806
   65GLOH    O1 9078   2.962   2.389   2.790
   65GLOH    C1 9079   3.092   2.440   2.756
   65GLOH   H02 9080   3.091   2.549   2.758
   65GLOH   H08 9081   3.118   2.412   2.654
   65GLOH    C2 9082   3.206   2.394   2.849
   65GLOH   H04 9083   3.216   2.285   2.843
   65GLOH    O2 9084   3.331   2.456   2.809
   65GLOH   H05 9085   3.385   2.391   2.755
   65GLOH    C3 9086   3.175   2.432   2.995
   65GLOH   H06 9087   3.150   2.538   2.995
   65GLOH   H07 9088   3.266   2.420   3.054
   65GLOH    O3 9089   3.067   2.359   3.054
   65GLOH   H01 9090   3.100   2.269   3.081
   66GLOH   H03 9091   6.482   9.851   1.264
   66GLOH    O1 9092   6.439   9.821   1.180
   66GLOH    C1 9093   6.346   9.924   1.139
   66GLOH   H02 9094   6.359   9.947   1.033
   66GLOH   H08 9095   6.364   0.016   1.194
   66GLOH    C2 9096   6.199   9.882   1.161
   66GLOH   H04 9097   6.182   9.874   1.270
   66GLOH    O2 9098   6.110   9.982   1.109
   66GLOH   H05 9099   6.101   0.056   1.177
   66GLOH    C3 9100   6.172   9.744   1.098
   66GLOH   H06 9101   6.194   9.749   0.991
   66GLOH   H07 9102   6.066   9.720   1.108
   66GLOH    O3 9103   6.254   9.645   1.162
   66GLOH   H01 9104   6.342   9.688   1.174
   67GLOH   H03 9105   4.242   6.131   2.076
   67GLOH    O1 9106   4.322   6.079   2.102
   67GLOH    C1 9107   4.394   6.157   2.200
   67GLOH   H02 9108   4.327   6.190   2.279
   67GLOH   H08 9109   4.435   6.247   2.154
   67GLOH    C2 9110   4.511   6.080   2.266
   67GLOH   H04 9111   4.590   6.068   2.190
   67GLOH    O2 9112   4.565   6.156   2.377
   67GLOH   H05 9113   4.491   6.177   2.442
   67GLOH    C3 9114   4.466   5.940   2.311
   67GLOH   H06 9115   4.389   5.951   2.387
   67GLOH   H07 9116   4.551   5.889   2.356
   67GLOH    O3 9117   4.416   5.866   2.199
   67GLOH   H01 9118   4.367   5.934   2.145
   68GLOH   H03 9119   0.304   7.665   4.520
   68GLOH    O1 9120   0.290   7.630   4.429
   68GLOH    C1 9121   0.252   7.739   4.344
   68GLOH   H02 9122   0.144   7.757   4.351
   68GLOH   H08 9123   0.273   7.715   4.240
   68GLOH    C2 9124   0.325   7.870   4.380
   68GLOH   H04 9125   0.433   7.853   4.372
   68GLOH    O2 9126   0.286   7.977   4.292
   68GLOH   H05 9127   0.319   7.961   4.202
   68GLOH    C3 9128   0.292   7.909   4.526
   68GLOH   H06 9129   0.186   7.932   4.531
   68GLOH   H07 9130   0.346   8.001   4.549
   68GLOH    O3 9131   0.326   7.807   4.623
   68GLOH   H01 9132   0.273   7.830   4.704
   69GLOH   H03 9133   3.122   4.899   0.628
   69GLOH    O1 9134   3.112   4.856   0.718
   69GLOH    C1 9135   3.230   4.883   0.797
   69GLOH   H02 9136   3.226   4.827   0.890
   69GLOH   H08 9137   3.233   4.989   0.823
   69GLOH    C2 9138   3.360   4.847   0.724
   69GLOH   H04 9139   3.366   4.909   0.633
   69GLOH    O2 9140   3.474   4.876   0.807
   69GLOH   H05 9141   3.554   4.894   0.749
   69GLOH    C3 9142   3.359   4.699   0.680
   69GLOH   H06 9143   3.451   4.680   0.627
   69GLOH   H07 9144   3.278   4.685   0.608
   69GLOH    O3 9145   3.345   4.606   0.788
   69GLOH   H01 9146   3.375   4.518   0.752
   70GLOH   H03 9147   3.326   4.856   0.195
   70GLOH    O1 9148   3.324   4.866   0.097
   70GLOH    C1 9149   3.249   4.983   0.063
   70GLOH   H02 9150   3.267   5.012   4.740
   70GLOH   H08 9151   3.280   5.068   0.124
   70GLOH    C2 9152   3.097   4.963   0.082
   70GLOH   H04 9153   3.078   4.936   0.187
   70GLOH    O2 9154   3.028   5.085   0.050
   70GLOH   H05 9155   2.933   5.076   0.080
   70GLOH    C3 9156   3.048   4.847   4.774
   70GLOH   H06 9157   3.111   4.760   0.011
   70GLOH   H07 9158   3.064   4.876   4.670
   70GLOH    O3 9159   2.909   4.812   0.013
   70GLOH   H01 9160   2.875   4.775   4.711
   71GLOH   H03 9161   3.605   3.786   3.217
   71GLOH    O1 9162   3.685   3.727   3.211
   71GLOH    C1 9163   3.792   3.813   3.166
   71GLOH   H02 9164   3.845   3.851   3.254
   71GLOH   H08 9165   3.752   3.899   3.113
   71GLOH    C2 9166   3.896   3.745   3.074
   71GLOH   H04 9167   3.940   3.659   3.126
   71GLOH    O2 9168   3.833   3.699   2.952
   71GLOH   H05 9169   3.761   3.634   2.974
   71GLOH    C3 9170   4.009   3.843   3.039
   71GLOH   H06 9171   3.971   3.918   2.970
   71GLOH   H07 9172   4.086   3.787   2.985
   71GLOH    O3 9173   4.066   3.906   3.155
   71GLOH   H01 9174   4.009   3.985   3.175
   72GLOH   H03 9175   9.599   3.421   0.433
   72GLOH    O1 9176   9.672   3.377   0.383
   72GLOH    C1 9177   9.783   3.356   0.472
   72GLOH   H02 9178   9.767   3.267   0.532
   72GLOH   H08 9179   9.794   3.440   0.541
   72GLOH    C2 9180   9.916   3.339   0.395
   72GLOH   H04 9181   9.903   3.255   0.326
   72GLOH    O2 9182   9.948   3.458   0.320
   72GLOH   H05 9183   9.893   3.535   0.353
   72GLOH    C3 9184   0.031   3.303   0.491
   72GLOH   H06 9185   0.043   3.384   0.562
   72GLOH   H07 9186   0.123   3.297   0.433
   72GLOH    O3 9187   0.007   3.179   0.559
   72GLOH   H01 9188   0.075   3.172   0.632
   73GLOH   H03 9189   1.844   7.854   3.692
   73GLOH    O1 9190   1.780   7.924   3.664
   73GLOH    C1 9191   1.745   7.896   3.527
   73GLOH   H02 9192   1.651   7.945   3.501
   73GLOH   H08 9193   1.728   7.789   3.513
   73GLOH    C2 9194   1.853   7.942   3.429
   73GLOH   H04 9195   1.951   7.905   3.464
   73GLOH    O2 9196   1.825   7.887   3.299
   73GLOH   H05 9197   1.871   7.798   3.292
   73GLOH    C3 9198   1.858   8.097   3.426
   73GLOH   H06 9199   1.868   8.132   3.529
   73GLOH   H07 9200   1.761   8.132   3.390
   73GLOH    O3 9201   1.964   8.151   3.345
   73GLOH   H01 9202   1.949   8.249   3.338
   74GLOH   H03 9203   0.383   4.270   1.936
   74GLOH    O1 9204   0.366   4.172   1.936
   74GLOH    C1 9205   0.486   4.109   1.886
   74GLOH   H02 9206   0.489   4.004   1.915
   74GLOH   H08 9207   0.574   4.156   1.930
   74GLOH    C2 9208   0.497   4.117   1.732
   74GLOH   H04 9209   0.483   4.223   1.704
   74GLOH    O2 9210   0.629   4.077   1.690
   74GLOH   H05 9211   0.689   4.156   1.705
   74GLOH    C3 9212   0.385   4.037   1.665
   74GLOH   H06 9213   0.400   4.041   1.557
   74GLOH   H07 9214   0.290   4.087   1.685
   74GLOH    O3 9215   0.378   3.899   1.708
   74GLOH   H01 9216   0.282   3.877   1.723
   75GLOH   H03 9217   9.594   0.357   2.969
   75GLOH    O1 9218   9.645   0.342   2.886
   75GLOH    C1 9219   9.609   0.212   2.835
   75GLOH   H02 9220   9.506   0.189   2.860
   75GLOH   H08 9221   9.670   0.136   2.884
   75GLOH    C2 9222   9.626   0.199   2.683
   75GLOH   H04 9223   9.610   0.093   2.656
   75GLOH    O2 9224   9.530   0.279   2.611
   75GLOH   H05 9225   9.438   0.253   2.641
   75GLOH    C3 9226   9.770   0.235   2.643
   75GLOH   H06 9227   9.787   0.341   2.663
   75GLOH   H07 9228   9.779   0.221   2.535
   75GLOH    O3 9229   9.869   0.155   2.710
   75GLOH   H01 9230   9.958   0.184   2.679
   76GLOH   H03 9231   4.282   9.898   3.526
   76GLOH    O1 9232   4.323   9.986   3.543
   76GLOH    C1 9233   4.431   9.966   3.637
   76GLOH   H02 9234   4.393   9.972   3.739
   76GLOH   H08 9235   4.505   0.044   3.626
   76GLOH    C2 9236   4.500   9.830   3.618
   76GLOH   H04 9237   4.544   9.826   3.518
   76GLOH    O2 9238   4.605   9.813   3.716
   76GLOH   H05 9239   4.689   9.853   3.684
   76GLOH    C3 9240   4.397   9.715   3.631
   76GLOH   H06 9241   4.359   9.715   3.733
   76GLOH   H07 9242   4.450   9.621   3.617
   76GLOH    O3 9243   4.289   9.726   3.536
   76GLOH   H01 9244   4.221   9.657   3.559
   77GLOH   H03 9245   8.179   7.500   4.411
   77GLOH    O1 9246   8.167   7.443   4.333
   77GLOH    C1 9247   8.093   7.325   4.369
   77GLOH   H02 9248   7.987   7.348   4.382
   77GLOH   H08 9249   8.128   7.285   4.464
   77GLOH    C2 9250   8.105   7.215   4.262
   77GLOH   H04 9251   8.038   7.132   4.290
   77GLOH    O2 9252   8.064   7.266   4.133
   77GLOH   H05 9253   8.094   7.359   4.129
   77GLOH    C3 9254   8.249   7.161   4.258
   77GLOH   H06 9255   8.317   7.244   4.238
   77GLOH   H07 9256   8.258   7.092   4.174
   77GLOH    O3 9257   8.284   7.096   4.380
   77GLOH   H01 9258   8.381   7.089   4.389
   78GLOH   H03 9259   7.588   0.420   3.824
   78GLOH    O1 9260   7.588   0.495   3.888
   78GLOH    C1 9261   7.469   0.488   3.968
   78GLOH   H02 9262   7.449   0.385   3.996
   78GLOH   H08 9263   7.383   0.521   3.910
   78GLOH    C2 9264   7.476   0.572   4.098
   78GLOH   H04 9265   7.559   0.532   4.159
   78GLOH    O2 9266   7.500   0.712   4.073
   78GLOH   H05 9267   7.544   0.750   4.152
   78GLOH    C3 9268   7.346   0.555   4.177
   78GLOH   H06 9269   7.263   0.588   4.114
   78GLOH   H07 9270   7.348   0.621   4.263
   78GLOH    O3 9271   7.325   0.419   4.219
   78GLOH   H01 9272   7.257   0.376   4.163
   79GLOH   H03 9273   5.246   3.018   1.382
   79GLOH    O1 9274   5.323   2.958   1.367
   79GLOH    C1 9275   5.429   3.034   1.308
   79GLOH   H02 9276   5.516   2.969   1.292
   79GLOH   H08 9277   5.461   3.113   1.375
   79GLOH    C2 9278   5.392   3.098   1.172
   79GLOH   H04 9279   5.352   3.018   1.107
   79GLOH    O2 9280   5.290   3.201   1.188
   79GLOH   H05 9281   5.227   3.174   1.261
   79GLOH    C3 9282   5.520   3.152   1.107
   79GLOH   H06 9283   5.591   3.070   1.096
   79GLOH   H07 9284   5.566   3.224   1.176
   79GLOH    O3 9285   5.499   3.215   0.979
   79GLOH   H01 9286   5.447   3.298   0.996
   80GLOH   H03 9287   4.541   8.747   3.422
   80GLOH    O1 9288   4.595   8.663   3.418
   80GLOH    C1 9289   4.688   8.666   3.528
   80GLOH   H02 9290   4.695   8.568   3.573
   80GLOH   H08 9291   4.653   8.734   3.606
   80GLOH    C2 9292   4.828   8.711   3.481
   80GLOH   H04 9293   4.817   8.781   3.397
   80GLOH    O2 9294   4.898   8.778   3.588
   80GLOH   H05 9295   4.914   8.714   3.662
   80GLOH    C3 9296   4.911   8.590   3.432
   80GLOH   H06 9297   4.936   8.528   3.518
   80GLOH   H07 9298   5.005   8.628   3.392
   80GLOH    O3 9299   4.844   8.510   3.332
   80GLOH   H01 9300   4.803   8.571   3.264
   81GLOH   H03 9301   4.464   0.669   0.107
   81GLOH    O1 9302   4.377   0.693   0.065
   81GLOH    C1 9303   4.393   0.686   4.703
   81GLOH   H02 9304   4.367   0.586   4.667
   81GLOH   H08 9305   4.498   0.702   4.675
   81GLOH    C2 9306   4.307   0.788   4.627
   81GLOH   H04 9307   4.341   0.889   4.655
   81GLOH    O2 9308   4.323   0.772   4.485
   81GLOH   H05 9309   4.258   0.706   4.454
   81GLOH    C3 9310   4.158   0.775   4.663
   81GLOH   H06 9311   4.101   0.846   4.603
   81GLOH   H07 9312   4.146   0.805   4.767
   81GLOH    O3 9313   4.109   0.642   4.643
   81GLOH   H01 9314   4.106   0.598   4.731
   82GLOH   H03 9315   2.174   8.999   1.110
   82GLOH    O1 9316   2.184   8.931   1.181
   82GLOH    C1 9317   2.323   8.919   1.217
   82GLOH   H02 9318   2.385   8.916   1.127
   82GLOH   H08 9319   2.340   8.824   1.268
   82GLOH    C2 9320   2.376   9.032   1.308
   82GLOH   H04 9321   2.474   8.999   1.345
   82GLOH    O2 9322   2.394   9.155   1.236
   82GLOH   H05 9323   2.307   9.196   1.213
   82GLOH    C3 9324   2.286   9.053   1.432
   82GLOH   H06 9325   2.185   9.075   1.397
   82GLOH   H07 9326   2.321   9.141   1.486
   82GLOH    O3 9327   2.284   8.938   1.519
   82GLOH   H01 9328   2.304   8.972   1.611
   83GLOH   H03 9329   1.710   5.275   2.825
   83GLOH    O1 9330   1.685   5.318   2.912
   83GLOH    C1 9331   1.671   5.212   3.009
   83GLOH   H02 9332   1.691   5.252   3.109
   83GLOH   H08 9333   1.746   5.135   2.992
   83GLOH    C2 9334   1.533   5.144   3.013
   83GLOH   H04 9335   1.543   5.052   3.072
   83GLOH    O2 9336   1.433   5.228   3.077
   83GLOH   H05 9337   1.370   5.263   3.009
   83GLOH    C3 9338   1.485   5.102   2.873
   83GLOH   H06 9339   1.471   5.192   2.813
   83GLOH   H07 9340   1.387   5.055   2.883
   83GLOH    O3 9341   1.576   5.013   2.805
   83GLOH   H01 9342   1.615   4.948   2.870
   84GLOH   H03 9343   8.849   8.891   4.779
   84GLOH    O1 9344   8.829   8.941   4.696
   84GLOH    C1 9345   8.916   9.055   4.693
   84GLOH   H02 9346   9.015   9.026   4.655
   84GLOH   H08 9347   8.931   9.092   0.013
   84GLOH    C2 9348   8.864   9.172   4.608
   84GLOH   H04 9349   8.773   9.212   4.655
   84GLOH    O2 9350   8.964   9.276   4.601
   84GLOH   H05 9351   9.014   9.280   4.687
   84GLOH    C3 9352   8.828   9.124   4.466
   84GLOH   H06 9353   8.919   9.093   4.415
   84GLOH   H07 9354   8.787   9.208   4.410
   84GLOH    O3 9355   8.733   9.016   4.471
   84GLOH   H01 9356   8.754   8.966   4.554
   85GLOH   H03 9357   3.552   0.106   3.581
   85GLOH    O1 9358   3.458   0.140   3.585
   85GLOH    C1 9359   3.463   0.284   3.586
   85GLOH   H02 9360   3.367   0.324   3.553
   85GLOH   H08 9361   3.538   0.319   3.516
   85GLOH    C2 9362   3.494   0.345   3.724
   85GLOH   H04 9363   3.423   0.304   3.797
   85GLOH    O2 9364   3.628   0.315   3.768
   85GLOH   H05 9365   3.692   0.361   3.710
   85GLOH    C3 9366   3.472   0.498   3.719
   85GLOH   H06 9367   3.499   0.540   3.816
   85GLOH   H07 9368   3.366   0.516   3.705
   85GLOH    O3 9369   3.547   0.562   3.614
   85GLOH   H01 9370   3.613   0.623   3.657
   86GLOH   H03 9371   9.251   3.993   0.371
   86GLOH    O1 9372   9.292   4.081   0.387
   86GLOH    C1 9373   9.208   4.186   0.334
   86GLOH   H02 9374   9.188   4.168   0.228
   86GLOH   H08 9375   9.260   4.282   0.340
   86GLOH    C2 9376   9.073   4.200   0.407
   86GLOH   H04 9377   9.020   4.284   0.361
   86GLOH    O2 9378   8.992   4.081   0.391
   86GLOH   H05 9379   8.964   4.078   0.294
   86GLOH    C3 9380   9.095   4.235   0.555
   86GLOH   H06 9381   9.157   4.158   0.601
   86GLOH   H07 9382   8.999   4.233   0.606
   86GLOH    O3 9383   9.157   4.365   0.570
   86GLOH   H01 9384   9.085   4.432   0.583
   87GLOH   H03 9385   8.870   1.957   3.231
   87GLOH    O1 9386   8.844   1.868   3.195
   87GLOH    C1 9387   8.718   1.887   3.127
   87GLOH   H02 9388   8.723   1.973   3.060
   87GLOH   H08 9389   8.638   1.906   3.199
   87GLOH    C2 9390   8.679   1.764   3.043
   87GLOH   H04 9391   8.667   1.678   3.111
   87GLOH    O2 9392   8.554   1.789   2.976
   87GLOH   H05 9393   8.568   1.778   2.876
   87GLOH    C3 9394   8.790   1.730   2.942
   87GLOH   H06 9395   8.792   1.808   2.865
   87GLOH   H07 9396   8.763   1.637   2.892
   87GLOH    O3 9397   8.919   1.718   3.004
   87GLOH   H01 9398   8.915   1.772   3.087
   88GLOH   H03 9399   5.323   4.951   1.260
   88GLOH    O1 9400   5.232   4.990   1.274
   88GLOH    C1 9401   5.202   4.988   1.416
   88GLOH   H02 9402   5.124   5.061   1.439
   88GLOH   H08 9403   5.290   5.016   1.473
   88GLOH    C2 9404   5.155   4.849   1.464
   88GLOH   H04 9405   5.238   4.779   1.445
   88GLOH    O2 9406   5.126   4.851   1.605
   88GLOH   H05 9407   5.065   4.774   1.627
   88GLOH    C3 9408   5.034   4.801   1.382
   88GLOH   H06 9409   4.947   4.861   1.409
   88GLOH   H07 9410   5.011   4.698   1.409
   88GLOH    O3 9411   5.060   4.811   1.241
   88GLOH   H01 9412   5.119   4.890   1.232
   89GLOH   H03 9413   7.053   8.390   2.864
   89GLOH    O1 9414   7.047   8.349   2.774
   89GLOH    C1 9415   6.960   8.234   2.783
   89GLOH   H02 9416   7.012   8.151   2.830
   89GLOH   H08 9417   6.930   8.201   2.684
   89GLOH    C2 9418   6.832   8.262   2.865
   89GLOH   H04 9419   6.779   8.347   2.818
   89GLOH    O2 9420   6.744   8.147   2.867
   89GLOH   H05 9421   6.789   8.069   2.823
   89GLOH    C3 9422   6.869   8.303   3.009
   89GLOH   H06 9423   6.918   8.218   3.057
   89GLOH   H07 9424   6.778   8.323   3.064
   89GLOH    O3 9425   6.955   8.419   3.012
   89GLOH   H01 9426   6.999   8.421   3.102
   90GLOH   H03 9427   4.198   1.840   3.602
   90GLOH    O1 9428   4.189   1.897   3.682
   90GLOH    C1 9429   4.049   1.924   3.705
   90GLOH   H02 9430   4.006   1.846   3.768
   90GLOH   H08 9431   3.995   1.923   3.611
   90GLOH    C2 9432   4.025   2.060   3.773
   90GLOH   H04 9433   4.063   2.139   3.706
   90GLOH    O2 9434   3.885   2.080   3.798
   90GLOH   H05 9435   3.832   2.068   3.714
   90GLOH    C3 9436   4.103   2.068   3.906
   90GLOH   H06 9437   4.057   1.999   3.978
   90GLOH   H07 9438   4.091   2.169   3.947
   90GLOH    O3 9439   4.241   2.037   3.888
   90GLOH   H01 9440   4.246   1.977   3.810
   91GLOH   H03 9441   6.664   0.661   2.330
   91GLOH    O1 9442   6.594   0.731   2.342
   91GLOH    C1 9443   6.610   0.786   2.474
   91GLOH   H02 9444   6.679   0.870   2.471
   91GLOH   H08 9445   6.653   0.712   2.542
   91GLOH    C2 9446   6.476   0.833   2.533
   91GLOH   H04 9447   6.409   0.746   2.541
   91GLOH    O2 9448   6.495   0.888   2.665
   91GLOH   H05 9449   6.411   0.876   2.718
   91GLOH    C3 9450   6.410   0.937   2.440
   91GLOH   H06 9451   6.478   1.022   2.430
   91GLOH   H07 9452   6.319   0.974   2.487
   91GLOH    O3 9453   6.381   0.880   2.311
   91GLOH   H01 9454   6.452   0.812   2.297
   92GLOH   H03 9455   4.829   3.092   1.836
   92GLOH    O1 9456   4.818   3.112   1.739
   92GLOH    C1 9457   4.683   3.156   1.713
   92GLOH   H02 9458   4.621   3.072   1.682
   92GLOH   H08 9459   4.683   3.227   1.630
   92GLOH    C2 9460   4.614   3.224   1.832
   92GLOH   H04 9461   4.512   3.251   1.799
   92GLOH    O2 9462   4.602   3.134   1.944
   92GLOH   H05 9463   4.507   3.134   1.974
   92GLOH    C3 9464   4.686   3.354   1.871
   92GLOH   H06 9465   4.793   3.334   1.880
   92GLOH   H07 9466   4.652   3.385   1.970
   92GLOH    O3 9467   4.662   3.459   1.776
   92GLOH   H01 9468   4.563   3.475   1.777
   93GLOH   H03 9469   3.082   9.245   0.314
   93GLOH    O1 9470   3.152   9.174   0.322
   93GLOH    C1 9471   3.087   9.055   0.371
   93GLOH   H02 9472   3.013   9.020   0.299
   93GLOH   H08 9473   3.033   9.078   0.463
   93GLOH    C2 9474   3.184   8.939   0.400
   93GLOH   H04 9475   3.253   8.971   0.480
   93GLOH    O2 9476   3.110   8.823   0.443
   93GLOH   H05 9477   3.173   8.750   0.469
   93GLOH    C3 9478   3.268   8.909   0.274
   93GLOH   H06 9479   3.322   8.999   0.245
   93GLOH   H07 9480   3.200   8.884   0.192
   93GLOH    O3 9481   3.362   8.801   0.295
   93GLOH   H01 9482   3.362   8.746   0.212
   94GLOH   H03 9483   7.290   3.990   0.453
   94GLOH    O1 9484   7.267   4.084   0.434
   94GLOH    C1 9485   7.355   4.168   0.512
   94GLOH   H02 9486   7.459   4.153   0.480
   94GLOH   H08 9487   7.351   4.141   0.617
   94GLOH    C2 9488   7.322   4.318   0.499
   94GLOH   H04 9489   7.219   4.335   0.534
   94GLOH    O2 9490   7.415   4.391   0.581
   94GLOH   H05 9491   7.381   4.484   0.600
   94GLOH    C3 9492   7.332   4.362   0.352
   94GLOH   H06 9493   7.437   4.365   0.323
   94GLOH   H07 9494   7.294   4.464   0.344
   94GLOH    O3 9495   7.258   4.274   0.266
   94GLOH   H01 9496   7.243   4.192   0.319
   95GLOH   H03 9497   2.801   2.223   2.283
   95GLOH    O1 9498   2.878   2.161   2.297
   95GLOH    C1 9499   2.967   2.224   2.391
   95GLOH   H02 9500   2.913   2.252   2.481
   95GLOH   H08 9501   3.007   2.316   2.349
   95GLOH    C2 9502   3.086   2.135   2.430
   95GLOH   H04 9503   3.149   2.122   2.341
   95GLOH    O2 9504   3.163   2.205   2.532
   95GLOH   H05 9505   3.192   2.142   2.603
   95GLOH    C3 9506   3.038   1.996   2.476
   95GLOH   H06 9507   2.979   1.952   2.396
   95GLOH   H07 9508   2.970   2.009   2.561
   95GLOH    O3 9509   3.146   1.907   2.512
   95GLOH   H01 9510   3.103   1.820   2.537
   96GLOH   H03 9511   0.845   3.689   1.534
   96GLOH    O1 9512   0.862   3.731   1.446
   96GLOH    C1 9513   0.860   3.631   1.341
   96GLOH   H02 9514   0.794   3.662   1.260
   96GLOH   H08 9515   0.821   3.536   1.379
   96GLOH    C2 9516   1.000   3.604   1.283
   96GLOH   H04 9517   1.059   3.549   1.358
   96GLOH    O2 9518   0.992   3.524   1.163
   96GLOH   H05 9519   0.996   3.427   1.189
   96GLOH    C3 9520   1.074   3.736   1.253
   96GLOH   H06 9521   1.017   3.792   1.178
   96GLOH   H07 9522   1.171   3.713   1.208
   96GLOH    O3 9523   1.090   3.815   1.372
   96GLOH   H01 9524   1.001   3.810   1.416
   97GLOH   H03 9525   2.819   5.649   3.045
   97GLOH    O1 9526   2.826   5.686   2.953
   97GLOH    C1 9527   2.695   5.702   2.896
   97GLOH   H02 9528   2.702   5.761   2.805
   97GLOH   H08 9529   2.630   5.757   2.964
   97GLOH    C2 9530   2.625   5.568   2.860
   97GLOH   H04 9531   2.695   5.510   2.799
   97GLOH    O2 9532   2.592   5.492   2.978
   97GLOH   H05 9533   2.668   5.428   2.996
   97GLOH    C3 9534   2.499   5.594   2.776
   97GLOH   H06 9535   2.435   5.664   2.830
   97GLOH   H07 9536   2.443   5.500   2.768
   97GLOH    O3 9537   2.529   5.645   2.645
   97GLOH   H01 9538   2.532   5.744   2.649
   98GLOH   H03 9539   4.143   7.465   4.457
   98GLOH    O1 9540   4.132   7.461   4.360
   98GLOH    C1 9541   4.135   7.324   4.314
   98GLOH   H02 9542   4.047   7.270   4.351
   98GLOH   H08 9543   4.223   7.273   4.353
   98GLOH    C2 9544   4.136   7.315   4.160
   98GLOH   H04 9545   4.225   7.368   4.123
   98GLOH    O2 9546   4.143   7.177   4.117
   98GLOH   H05 9547   4.237   7.149   4.120
   98GLOH    C3 9548   4.011   7.384   4.103
   98GLOH   H06 9549   3.922   7.335   4.143
   98GLOH   H07 9550   4.009   7.372   3.995
   98GLOH    O3 9551   4.011   7.523   4.139
   98GLOH   H01 9552   4.053   7.529   4.228
   99GLOH   H03 9553   3.646   6.966   3.729
   99GLOH    O1 9554   3.689   6.970   3.817
   99GLOH    C1 9555   3.824   7.016   3.798
   99GLOH   H02 9556   3.824   7.120   3.765
   99GLOH   H08 9557   3.872   6.958   3.720
   99GLOH    C2 9558   3.910   7.006   3.926
   99GLOH   H04 9559   3.931   6.899   3.941
   99GLOH    O2 9560   4.035   7.075   3.907
   99GLOH   H05 9561   4.063   7.118   3.992
   99GLOH    C3 9562   3.831   7.055   4.049
   99GLOH   H06 9563   3.901   7.065   4.133
   99GLOH   H07 9564   3.760   6.977   4.077
   99GLOH    O3 9565   3.763   7.179   4.026
   99GLOH   H01 9566   3.696   7.163   3.956
  100GLOH   H03 9567   5.080   0.864   1.482
  100GLOH    O1 9568   5.116   0.771   1.479
  100GLOH    C1 9569   5.071   0.706   1.359
  100GLOH   H02 9570   5.153   0.648   1.316
  100GLOH   H08 9571   5.041   0.778   1.284
  100GLOH    C2 9572   4.954   0.609   1.385
  100GLOH   H04 9573   4.932   0.558   1.290
  100GLOH    O2 9574   4.989   0.509   1.482
  100GLOH   H05 9575   5.052   0.550   1.545
  100GLOH    C3 9576   4.827   0.685   1.426
  100GLOH   H06 9577   4.850   0.751   1.510
  100GLOH   H07 9578   4.753   0.613   1.462
  100GLOH    O3 9579   4.773   0.761   1.316
  100GLOH   H01 9580   4.777   0.857   1.340
  101GLOH   H03 9581   3.835   4.597   4.721
  101GLOH    O1 9582   3.845   4.694   4.702
  101GLOH    C1 9583   3.986   4.721   4.694
  101GLOH   H02 9584   4.038   4.684   0.001
  101GLOH   H08 9585   4.003   4.829   4.691
  101GLOH    C2 9586   4.055   4.659   4.571
  101GLOH   H04 9587   4.164   4.668   4.586
  101GLOH    O2 9588   4.024   4.519   4.555
  101GLOH   H05 9589   3.975   4.484   4.633
  101GLOH    C3 9590   4.019   4.740   4.445
  101GLOH   H06 9591   3.911   4.738   4.432
  101GLOH   H07 9592   4.063   4.690   4.358
  101GLOH    O3 9593   4.067   4.876   4.454
  101GLOH   H01 9594   4.042   4.925   4.373
  102GLOH   H03 9595   2.923   9.583   2.484
  102GLOH    O1 9596   2.990   9.540   2.542
  102GLOH    C1 9597   2.930   9.427   2.608
  102GLOH   H02 9598   2.891   9.356   2.534
  102GLOH   H08 9599   2.845   9.460   2.668
  102GLOH    C2 9600   3.028   9.351   2.700
  102GLOH   H04 9601   3.071   9.423   2.771
  102GLOH    O2 9602   2.958   9.248   2.773
  102GLOH   H05 9603   2.859   9.256   2.762
  102GLOH    C3 9604   3.143   9.291   2.616
  102GLOH   H06 9605   3.173   9.366   2.543
  102GLOH   H07 9606   3.103   9.207   2.559
  102GLOH    O3 9607   3.258   9.248   2.693
  102GLOH   H01 9608   3.298   9.329   2.735
  103GLOH   H03 9609   7.945   6.182   0.323
  103GLOH    O1 9610   7.924   6.258   0.263
  103GLOH    C1 9611   7.986   6.376   0.318
  103GLOH   H02 9612   7.920   6.423   0.391
  103GLOH   H08 9613   8.003   6.450   0.240
  103GLOH    C2 9614   8.121   6.346   0.387
  103GLOH   H04 9615   8.190   6.306   0.311
  103GLOH    O2 9616   8.176   6.466   0.443
  103GLOH   H05 9617   8.273   6.473   0.415
  103GLOH    C3 9618   8.103   6.240   0.497
  103GLOH   H06 9619   8.038   6.282   0.574
  103GLOH   H07 9620   8.200   6.223   0.544
  103GLOH    O3 9621   8.048   6.117   0.446
  103GLOH   H01 9622   8.044   6.053   0.523
  104GLOH   H03 9623   0.375   8.298   4.743
  104GLOH    O1 9624   0.327   8.257   0.036
  104GLOH    C1 9625   0.280   8.360   0.126
  104GLOH   H02 9626   0.229   8.315   0.211
  104GLOH   H08 9627   0.207   8.423   0.076
  104GLOH    C2 9628   0.393   8.449   0.180
  104GLOH   H04 9629   0.448   8.487   0.093
  104GLOH    O2 9630   0.340   8.563   0.252
  104GLOH   H05 9631   0.248   8.541   0.287
  104GLOH    C3 9632   0.495   8.370   0.265
  104GLOH   H06 9633   0.564   8.442   0.309
  104GLOH   H07 9634   0.553   8.307   0.198
  104GLOH    O3 9635   0.435   8.291   0.369
  104GLOH   H01 9636   0.500   8.287   0.444
  105GLOH   H03 9637   1.070   2.139   1.171
  105GLOH    O1 9638   1.111   2.049   1.156
  105GLOH    C1 9639   1.119   1.976   1.280
  105GLOH   H02 9640   1.061   1.884   1.273
  105GLOH   H08 9641   1.075   2.034   1.362
  105GLOH    C2 9642   1.264   1.940   1.318
  105GLOH   H04 9643   1.315   2.033   1.348
  105GLOH    O2 9644   1.266   1.848   1.429
  105GLOH   H05 9645   1.287   1.900   1.512
  105GLOH    C3 9646   1.339   1.881   1.197
  105GLOH   H06 9647   1.289   1.790   1.167
  105GLOH   H07 9648   1.440   1.854   1.228
  105GLOH    O3 9649   1.343   1.975   1.088
  105GLOH   H01 9650   1.251   2.012   1.086
  106GLOH   H03 9651   2.607   6.603   2.228
  106GLOH    O1 9652   2.684   6.663   2.249
  106GLOH    C1 9653   2.805   6.590   2.219
  106GLOH   H02 9654   2.785   6.483   2.208
  106GLOH   H08 9655   2.876   6.600   2.301
  106GLOH    C2 9656   2.873   6.640   2.090
  106GLOH   H04 9657   2.902   6.745   2.106
  106GLOH    O2 9658   2.991   6.562   2.063
  106GLOH   H05 9659   3.065   6.623   2.037
  106GLOH    C3 9660   2.776   6.634   1.971
  106GLOH   H06 9661   2.679   6.676   2.000
  106GLOH   H07 9662   2.757   6.529   1.946
  106GLOH    O3 9663   2.827   6.703   1.856
  106GLOH   H01 9664   2.832   6.799   1.880
  107GLOH   H03 9665   7.939   4.737   0.296
  107GLOH    O1 9666   7.926   4.644   0.261
  107GLOH    C1 9667   7.806   4.590   0.319
  107GLOH   H02 9668   7.791   4.487   0.285
  107GLOH   H08 9669   7.719   4.646   0.286
  107GLOH    C2 9670   7.809   4.590   0.473
  107GLOH   H04 9671   7.891   4.524   0.506
  107GLOH    O2 9672   7.831   4.723   0.523
  107GLOH   H05 9673   7.909   4.721   0.585
  107GLOH    C3 9674   7.677   4.536   0.531
  107GLOH   H06 9675   7.596   4.599   0.493
  107GLOH   H07 9676   7.679   4.550   0.639
  107GLOH    O3 9677   7.652   4.398   0.499
  107GLOH   H01 9678   7.560   4.382   0.533
  108GLOH   H03 9679   6.553   1.031   2.696
  108GLOH    O1 9680   6.558   1.127   2.724
  108GLOH    C1 9681   6.692   1.159   2.769
  108GLOH   H02 9682   6.708   1.119   2.869
  108GLOH   H08 9683   6.702   1.267   2.777
  108GLOH    C2 9684   6.806   1.109   2.679
  108GLOH   H04 9685   6.900   1.151   2.717
  108GLOH    O2 9686   6.814   0.965   2.683
  108GLOH   H05 9687   6.814   0.935   2.779
  108GLOH    C3 9688   6.787   1.158   2.534
  108GLOH   H06 9689   6.705   1.103   2.489
  108GLOH   H07 9690   6.877   1.133   2.478
  108GLOH    O3 9691   6.761   1.300   2.526
  108GLOH   H01 9692   6.843   1.352   2.548
  109GLOH   H03 9693   3.099   2.649   0.912
  109GLOH    O1 9694   3.085   2.552   0.931
  109GLOH    C1 9695   3.140   2.522   1.061
  109GLOH   H02 9696   3.073   2.455   1.115
  109GLOH   H08 9697   3.149   2.613   1.121
  109GLOH    C2 9698   3.279   2.455   1.053
  109GLOH   H04 9699   3.347   2.523   1.000
  109GLOH    O2 9700   3.331   2.430   1.186
  109GLOH   H05 9701   3.335   2.517   1.234
  109GLOH    C3 9702   3.269   2.325   0.971
  109GLOH   H06 9703   3.210   2.252   1.027
  109GLOH   H07 9704   3.369   2.282   0.960
  109GLOH    O3 9705   3.210   2.349   0.842
  109GLOH   H01 9706   3.154   2.431   0.856
  110GLOH   H03 9707   5.525   9.506   1.391
  110GLOH    O1 9708   5.568   9.522   1.302
  110GLOH    C1 9709   5.639   9.647   1.313
  110GLOH   H02 9710   5.701   9.647   1.403
  110GLOH   H08 9711   5.568   9.729   1.324
  110GLOH    C2 9712   5.730   9.679   1.192
  110GLOH   H04 9713   5.799   9.595   1.178
  110GLOH    O2 9714   5.652   9.698   1.072
  110GLOH   H05 9715   5.714   9.708   0.994
  110GLOH    C3 9716   5.813   9.805   1.224
  110GLOH   H06 9717   5.744   9.888   1.243
  110GLOH   H07 9718   5.870   9.832   1.135
  110GLOH    O3 9719   5.900   9.786   1.337
  110GLOH   H01 9720   5.911   9.873   1.384
  111GLOH   H03 9721   4.526   2.680   2.197
  111GLOH    O1 9722   4.620   2.665   2.226
  111GLOH    C1 9723   4.697   2.643   2.105
  111GLOH   H02 9724   4.642   2.578   2.037
  111GLOH   H08 9725   4.790   2.592   2.129
  111GLOH    C2 9726   4.730   2.775   2.032
  111GLOH   H04 9727   4.639   2.837   2.033
  111GLOH    O2 9728   4.834   2.847   2.101
  111GLOH   H05 9729   4.853   2.931   2.053
  111GLOH    C3 9730   4.766   2.749   1.885
  111GLOH   H06 9731   4.796   2.843   1.840
  111GLOH   H07 9732   4.676   2.717   1.833
  111GLOH    O3 9733   4.870   2.651   1.869
  111GLOH   H01 9734   4.956   2.687   1.905
  112GLOH   H03 9735   8.216   7.979   3.860
  112GLOH    O1 9736   8.306   7.942   3.858
  112GLOH    C1 9737   8.301   7.801   3.834
  112GLOH   H02 9738   8.226   7.777   3.759
  112GLOH   H08 9739   8.272   7.748   3.925
  112GLOH    C2 9740   8.436   7.743   3.787
  112GLOH   H04 9741   8.425   7.634   3.781
  112GLOH    O2 9742   8.471   7.794   3.657
  112GLOH   H05 9743   8.458   7.893   3.656
  112GLOH    C3 9744   8.547   7.773   3.891
  112GLOH   H06 9745   8.510   7.743   3.989
  112GLOH   H07 9746   8.562   7.881   3.894
  112GLOH    O3 9747   8.672   7.707   3.863
  112GLOH   H01 9748   8.661   7.644   3.789
  113GLOH   H03 9749   8.731   0.927   4.614
  113GLOH    O1 9750   8.653   0.952   4.668
  113GLOH    C1 9751   8.577   0.835   4.705
  113GLOH   H02 9752   8.491   0.865   4.764
  113GLOH   H08 9753   8.637   0.770   4.769
  113GLOH    C2 9754   8.528   0.754   4.584
  113GLOH   H04 9755   8.614   0.732   4.520
  113GLOH    O2 9756   8.468   0.629   4.625
  113GLOH   H05 9757   8.431   0.590   4.543
  113GLOH    C3 9758   8.426   0.835   4.501
  113GLOH   H06 9759   8.475   0.925   4.464
  113GLOH   H07 9760   8.345   0.867   4.567
  113GLOH    O3 9761   8.374   0.757   4.391
  113GLOH   H01 9762   8.316   0.813   4.336
  114GLOH   H03 9763   7.312   9.923   2.539
  114GLOH    O1 9764   7.386   9.953   2.599
  114GLOH    C1 9765   7.485   9.849   2.598
  114GLOH   H02 9766   7.579   9.886   2.558
  114GLOH   H08 9767   7.455   9.766   2.534
  114GLOH    C2 9768   7.512   9.793   2.739
  114GLOH   H04 9769   7.417   9.756   2.781
  114GLOH    O2 9770   7.606   9.683   2.730
  114GLOH   H05 9771   7.646   9.667   2.821
  114GLOH    C3 9772   7.566   9.904   2.831
  114GLOH   H06 9773   7.500   9.991   2.824
  114GLOH   H07 9774   7.663   9.936   2.794
  114GLOH    O3 9775   7.575   9.862   2.968
  114GLOH   H01 9776   7.641   9.788   2.973
  115GLOH   H03 9777   6.153   7.985   1.717
  115GLOH    O1 9778   6.117   7.934   1.640
  115GLOH    C1 9779   6.135   8.011   1.520
  115GLOH   H02 9780   6.092   7.959   1.435
  115GLOH   H08 9781   6.241   8.025   1.499
  115GLOH    C2 9782   6.068   8.150   1.530
  115GLOH   H04 9783   6.113   8.203   1.615
  115GLOH    O2 9784   6.090   8.227   1.410
  115GLOH   H05 9785   6.159   8.297   1.432
  115GLOH    C3 9786   5.918   8.134   1.562
  115GLOH   H06 9787   5.907   8.076   1.654
  115GLOH   H07 9788   5.871   8.075   1.483
  115GLOH    O3 9789   5.853   8.261   1.576
  115GLOH   H01 9790   5.888   8.320   1.505
  116GLOH   H03 9791   3.364   9.688   0.369
  116GLOH    O1 9792   3.322   9.771   0.405
  116GLOH    C1 9793   3.249   9.743   0.526
  116GLOH   H02 9794   3.161   9.684   0.503
  116GLOH   H08 9795   3.213   9.836   0.570
  116GLOH    C2 9796   3.329   9.669   0.635
  116GLOH   H04 9797   3.359   9.571   0.594
  116GLOH    O2 9798   3.447   9.741   0.678
  116GLOH   H05 9799   3.421   9.835   0.700
  116GLOH    C3 9800   3.237   9.643   0.756
  116GLOH   H06 9801   3.204   9.739   0.796
  116GLOH   H07 9802   3.295   9.595   0.835
  116GLOH    O3 9803   3.123   9.562   0.724
  116GLOH   H01 9804   3.080   9.539   0.810
  117GLOH   H03 9805   9.363   2.609   0.561
  117GLOH    O1 9806   9.378   2.706   0.561
  117GLOH    C1 9807   9.463   2.734   0.447
  117GLOH   H02 9808   9.566   2.708   0.470
  117GLOH   H08 9809   9.461   2.840   0.423
  117GLOH    C2 9810   9.420   2.655   0.322
  117GLOH   H04 9811   9.316   2.682   0.297
  117GLOH    O2 9812   9.506   2.690   0.211
  117GLOH   H05 9813   9.482   2.782   0.179
  117GLOH    C3 9814   9.426   2.503   0.349
  117GLOH   H06 9815   9.530   2.472   0.352
  117GLOH   H07 9816   9.381   2.452   0.264
  117GLOH    O3 9817   9.359   2.466   0.471
  117GLOH   H01 9818   9.428   2.421   0.528
  118GLOH   H03 9819   1.908   9.348   0.111
  118GLOH    O1 9820   1.812   9.371   0.125
  118GLOH    C1 9821   1.808   9.512   0.153
  118GLOH   H02 9822   1.849   9.568   0.069
  118GLOH   H08 9823   1.870   9.535   0.240
  118GLOH    C2 9824   1.667   9.566   0.181
  118GLOH   H04 9825   1.628   9.514   0.270
  118GLOH    O2 9826   1.678   9.707   0.210
  118GLOH   H05 9827   1.595   9.754   0.182
  118GLOH    C3 9828   1.572   9.539   0.063
  118GLOH   H06 9829   1.567   9.431   0.047
  118GLOH   H07 9830   1.615   9.583   4.755
  118GLOH    O3 9831   1.439   9.591   0.085
  118GLOH   H01 9832   1.414   9.573   0.180
  119GLOH   H03 9833   6.277   0.265   3.919
  119GLOH    O1 9834   6.240   0.255   3.829
  119GLOH    C1 9835   6.199   0.384   3.781
  119GLOH   H02 9836   6.285   0.442   3.747
  119GLOH   H08 9837   6.153   0.442   3.861
  119GLOH    C2 9838   6.097   0.376   3.665
  119GLOH   H04 9839   6.010   0.318   3.701
  119GLOH    O2 9840   6.051   0.507   3.627
  119GLOH   H05 9841   6.126   0.557   3.583
  119GLOH    C3 9842   6.154   0.301   3.543
  119GLOH   H06 9843   6.080   0.305   3.463
  119GLOH   H07 9844   6.166   0.196   3.570
  119GLOH    O3 9845   6.280   0.355   3.496
  119GLOH   H01 9846   6.273   0.454   3.495
  120GLOH   H03 9847   0.877   7.963   4.462
  120GLOH    O1 9848   0.841   8.020   4.535
  120GLOH    C1 9849   0.803   7.931   4.641
  120GLOH   H02 9850   0.716   7.872   4.613
  120GLOH   H08 9851   0.774   7.988   4.729
  120GLOH    C2 9852   0.918   7.835   4.675
  120GLOH   H04 9853   1.012   7.892   4.679
  120GLOH    O2 9854   0.897   7.772   0.022
  120GLOH   H05 9855   0.969   7.703   0.036
  120GLOH    C3 9856   0.929   7.730   4.563
  120GLOH   H06 9857   0.840   7.667   4.566
  120GLOH   H07 9858   1.014   7.666   4.584
  120GLOH    O3 9859   0.943   7.792   4.433
  120GLOH   H01 9860   0.953   7.722   4.366
  121ACOH    H4 9861   6.388   6.561   2.688
  121ACOH    O2 9862   6.390   6.507   2.771
  121ACOH    C2 9863   6.440   6.584   2.869
  121ACOH    O1 9864   6.492   6.694   2.858
  121ACOH    C1 9865   6.432   6.513   3.000
  121ACOH    H1 9866   6.487   6.420   2.994
  121ACOH    H2 9867   6.328   6.491   3.022
  121ACOH    H3 9868   6.473   6.575   3.080
  122ACOH    H4 9869   7.832   6.346   1.515
  122ACOH    O2 9870   7.793   6.385   1.431
  122ACOH    C2 9871   7.819   6.296   1.333
  122ACOH    O1 9872   7.879   6.191   1.343
  122ACOH    C1 9873   7.763   6.344   1.204
  122ACOH    H1 9874   7.657   6.362   1.216
  122ACOH    H2 9875   7.779   6.270   1.126
  122ACOH    H3 9876   7.812   6.437   1.175
  123ACOH    H4 9877   3.988   5.505   2.492
  123ACOH    O2 9878   4.058   5.563   2.450
  123ACOH    C2 9879   4.105   5.493   2.345
  123ACOH    O1 9880   4.062   5.387   2.303
  123ACOH    C1 9881   4.214   5.567   2.278
  123ACOH    H1 9882   4.245   5.517   2.186
  123ACOH    H2 9883   4.300   5.573   2.344
  123ACOH    H3 9884   4.182   5.668   2.253
  124ACOH    H4 9885   6.766   7.128   2.210
  124ACOH    O2 9886   6.805   7.046   2.170
  124ACOH    C2 9887   6.923   7.023   2.230
  124ACOH    O1 9888   6.954   7.059   2.342
  124ACOH    C1 9889   7.001   6.922   2.156
  124ACOH    H1 9890   6.957   6.902   2.059
  124ACOH    H2 9891   7.005   6.829   2.213
  124ACOH    H3 9892   7.103   6.959   2.141
  125ACOH    H4 9893   7.510   1.942   0.168
  125ACOH    O2 9894   7.413   1.961   0.179
  125ACOH    C2 9895   7.378   1.921   0.303
  125ACOH    O1 9896   7.453   1.886   0.392
  125ACOH    C1 9897   7.232   1.934   0.320
  125ACOH    H1 9898   7.202   2.037   0.305
  125ACOH    H2 9899   7.201   1.902   0.419
  125ACOH    H3 9900   7.182   1.871   0.246
  126ACOH    H4 9901   5.212   1.700   3.200
  126ACOH    O2 9902   5.247   1.753   3.277
  126ACOH    C2 9903   5.264   1.668   3.380
  126ACOH    O1 9904   5.242   1.549   3.380
  126ACOH    C1 9905   5.315   1.740   3.499
  126ACOH    H1 9906   5.245   1.816   3.528
  126ACOH    H2 9907   5.410   1.787   3.474
  126ACOH    H3 9908   5.330   1.671   3.582
  127ACOH    H4 9909   4.680   6.253   2.391
  127ACOH    O2 9910   4.756   6.316   2.401
  127ACOH    C2 9911   4.718   6.407   2.493
  127ACOH    O1 9912   4.616   6.407   2.558
  127ACOH    C1 9913   4.822   6.511   2.513
  127ACOH    H1 9914   4.779   6.610   2.500
  127ACOH    H2 9915   4.903   6.499   2.442
  127ACOH    H3 9916   4.862   6.503   2.614
  128ACOH    H4 9917   4.245   3.596   2.823
  128ACOH    O2 9918   4.293   3.654   2.890
  128ACOH    C2 9919   4.312   3.775   2.833
  128ACOH    O1 9920   4.291   3.805   2.717
  128ACOH    C1 9921   4.369   3.872   2.930
  128ACOH    H1 9922   4.466   3.906   2.895
  128ACOH    H2 9923   4.381   3.826   3.028
  128ACOH    H3 9924   4.303   3.957   2.939
  129ACOH    H4 9925   7.988   4.368   3.414
  129ACOH    O2 9926   7.924   4.317   3.470
  129ACOH    C2 9927   7.994   4.224   3.537
  129ACOH    O1 9928   8.115   4.210   3.537
  129ACOH    C1 9929   7.907   4.140   3.622
  129ACOH    H1 9930   7.802   4.167   3.607
  129ACOH    H2 9931   7.933   4.155   3.726
  129ACOH    H3 9932   7.920   4.036   3.596
  130ACOH    H4 9933   2.947   1.233   3.436
  130ACOH    O2 9934   2.937   1.160   3.504
  130ACOH    C2 9935   3.061   1.113   3.532
  130ACOH    O1 9936   3.082   1.000   3.572
  130ACOH    C1 9937   3.174   1.200   3.489
  130ACOH    H1 9938   3.209   1.166   3.392
  130ACOH    H2 9939   3.256   1.193   3.560
  130ACOH    H3 9940   3.143   1.304   3.482
  131ACOH    H4 9941   4.555   5.276   1.157
  131ACOH    O2 9942   4.504   5.233   1.084
  131ACOH    C2 9943   4.414   5.150   1.140
  131ACOH    O1 9944   4.390   5.140   1.259
  131ACOH    C1 9945   4.336   5.077   1.038
  131ACOH    H1 9946   4.231   5.107   1.042
  131ACOH    H2 9947   4.342   4.970   1.056
  131ACOH    H3 9948   4.374   5.097   0.938
  132ACOH    H4 9949   4.573   3.076   3.550
  132ACOH    O2 9950   4.635   3.094   3.626
  132ACOH    C2 9951   4.566   3.064   3.738
  132ACOH    O1 9952   4.454   3.015   3.745
  132ACOH    C1 9953   4.649   3.089   3.858
  132ACOH    H1 9954   4.667   3.196   3.866
  132ACOH    H2 9955   4.744   3.037   3.847
  132ACOH    H3 9956   4.599   3.054   3.947
  133ACOH    H4 9957   6.594   6.685   3.366
  133ACOH    O2 9958   6.497   6.709   3.366
  133ACOH    C2 9959   6.485   6.826   3.300
  133ACOH    O1 9960   6.572   6.882   3.236
  133ACOH    C1 9961   6.346   6.876   3.302
  133ACOH    H1 9962   6.344   6.978   3.339
  133ACOH    H2 9963   6.283   6.814   3.366
  133ACOH    H3 9964   6.304   6.875   3.201
  134ACOH    H4 9965   5.419   1.987   1.674
  134ACOH    O2 9966   5.504   2.029   1.647
  134ACOH    C2 9967   5.522   2.137   1.724
  134ACOH    O1 9968   5.476   2.153   1.836
  134ACOH    C1 9969   5.623   2.227   1.665
  134ACOH    H1 9970   5.585   2.265   1.570
  134ACOH    H2 9971   5.715   2.173   1.647
  134ACOH    H3 9972   5.643   2.312   1.731
  135ACOH    H4 9973   3.866   5.662   1.259
  135ACOH    O2 9974   3.964   5.655   1.257
  135ACOH    C2 9975   4.011   5.711   1.370
  135ACOH    O1 9976   3.947   5.773   1.452
  135ACOH    C1 9977   4.158   5.696   1.379
  135ACOH    H1 9978   4.185   5.662   1.478
  135ACOH    H2 9979   4.205   5.792   1.359
  135ACOH    H3 9980   4.193   5.623   1.306
  136ACOH    H4 9981   4.916   6.650   3.412
  136ACOH    O2 9982   4.956   6.723   3.466
  136ACOH    C2 9983   5.068   6.760   3.402
  136ACOH    O1 9984   5.120   6.702   3.307
  136ACOH    C1 9985   5.134   6.874   3.470
  136ACOH    H1 9986   5.146   6.852   3.575
  136ACOH    H2 9987   5.071   6.962   3.459
  136ACOH    H3 9988   5.231   6.894   3.426
  137ACOH    H4 9989   3.295   5.924   1.124
  137ACOH    O2 9990   3.325   5.991   1.192
  137ACOH    C2 9991   3.301   6.112   1.138
  137ACOH    O1 9992   3.265   6.135   1.024
  137ACOH    C1 9993   3.330   6.220   1.235
  137ACOH    H1 9994   3.432   6.212   1.271
  137ACOH    H2 9995   3.262   6.213   1.319
  137ACOH    H3 9996   3.317   6.318   1.189
  138ACOH    H4 9997   6.488   1.234   2.799
  138ACOH    O2 9998   6.451   1.308   2.855
  138ACOH    C2 9999   6.322   1.281   2.876
  138ACOH    O110000   6.263   1.178   2.850
  138ACOH    C110001   6.255   1.392   2.949
  138ACOH    H110002   6.234   1.361   3.051
  138ACOH    H210003   6.162   1.418   2.900
  138ACOH    H310004   6.319   1.480   2.952
  139ACOH    H410005   5.783   4.998   1.435
  139ACOH    O210006   5.858   4.933   1.450
  139ACOH    C210007   5.828   4.823   1.378
  139ACOH    O110008   5.723   4.801   1.319
  139ACOH    C110009   5.938   4.724   1.380
  139ACOH    H110010   6.022   4.762   1.436
  139ACOH    H210011   5.969   4.702   1.279
  139ACOH    H310012   5.902   4.632   1.427
  140ACOH    H410013   7.193   1.806   2.896
  140ACOH    O210014   7.096   1.791   2.880
  140ACOH    C210015   7.041   1.760   2.999
  140ACOH    O110016   7.099   1.746   3.105
  140ACOH    C110017   6.895   1.739   2.987
  140ACOH    H110018   6.843   1.804   3.057
  140ACOH    H210019   6.871   1.635   3.010
  140ACOH    H310020   6.861   1.761   2.886
  141ACOH    H410021   7.977   5.471   1.262
  141ACOH    O210022   7.957   5.545   1.325
  141ACOH    C210023   8.068   5.572   1.396
  141ACOH    O110024   8.173   5.509   1.395
  141ACOH    C110025   8.047   5.690   1.483
  141ACOH    H110026   8.136   5.713   1.541
  141ACOH    H210027   7.965   5.669   1.552
  141ACOH    H310028   8.020   5.776   1.423
  142ACOH    H410029   8.350   4.898   3.455
  142ACOH    O210030   8.360   4.937   3.546
  142ACOH    C210031   8.353   5.071   3.534
  142ACOH    O110032   8.338   5.134   3.432
  142ACOH    C110033   8.361   5.137   3.667
  142ACOH    H110034   8.443   5.207   3.668
  142ACOH    H210035   8.377   5.064   3.746
  142ACOH    H310036   8.269   5.190   3.687
  143ACOH    H410037   7.968   7.019   4.700
  143ACOH    O210038   7.960   7.019   0.015
  143ACOH    C210039   8.030   7.127   0.057
  143ACOH    O110040   8.086   7.207   4.767
  143ACOH    C110041   8.025   7.139   0.205
  143ACOH    H110042   8.069   7.051   0.252
  143ACOH    H210043   7.922   7.149   0.238
  143ACOH    H310044   8.081   7.227   0.237
  144ACOH    H410045   2.661   8.348   3.134
  144ACOH    O210046   2.656   8.252   3.110
  144ACOH    C210047   2.747   8.229   3.014
  144ACOH    O110048   2.800   8.312   2.941
  144ACOH    C110049   2.761   8.083   2.990
  144ACOH    H110050   2.816   8.065   2.898
  144ACOH    H210051   2.663   8.038   2.982
  144ACOH    H310052   2.814   8.039   3.074
  145ACOH    H410053   5.757   9.996   0.877
  145ACOH    O210054   5.832   9.988   0.811
  145ACOH    C210055   5.848   9.856   0.787
  145ACOH    O110056   5.806   9.765   0.855
  145ACOH    C110057   5.942   9.833   0.675
  145ACOH    H110058   5.899   9.762   0.605
  145ACOH    H210059   6.035   9.793   0.714
  145ACOH    H310060   5.963   9.926   0.622
  146ACOH    H410061   4.007   6.337   2.745
  146ACOH    O210062   3.967   6.399   2.679
  146ACOH    C210063   4.051   6.504   2.667
  146ACOH    O110064   4.147   6.529   2.737
  146ACOH    C110065   4.008   6.590   2.554
  146ACOH    H110066   4.077   6.673   2.541
  146ACOH    H210067   3.909   6.628   2.573
  146ACOH    H310068   4.007   6.531   2.463
  147ACOH    H410069   5.156   1.324   1.457
  147ACOH    O210070   5.188   1.255   1.523
  147ACOH    C210071   5.204   1.319   1.640
  147ACOH    O110072   5.156   1.427   1.672
  147ACOH    C110073   5.269   1.229   1.738
  147ACOH    H110074   5.372   1.211   1.707
  147ACOH    H210075   5.216   1.134   1.742
  147ACOH    H310076   5.270   1.274   1.837
  148ACOH    H410077   5.229   1.689   1.910
  148ACOH    O210078   5.286   1.666   1.989
  148ACOH    C210079   5.281   1.768   2.076
  148ACOH    O110080   5.221   1.873   2.063
  148ACOH    C110081   5.357   1.738   2.200
  148ACOH    H110082   5.406   1.641   2.192
  148ACOH    H210083   5.289   1.736   2.285
  148ACOH    H310084   5.432   1.815   2.216
  149ACOH    H410085   8.947   1.535   1.536
  149ACOH    O210086   8.867   1.581   1.575
  149ACOH    C210087   8.837   1.514   1.688
  149ACOH    O110088   8.902   1.426   1.740
  149ACOH    C110089   8.711   1.564   1.748
  149ACOH    H110090   8.732   1.606   1.846
  149ACOH    H210091   8.641   1.481   1.759
  149ACOH    H310092   8.665   1.640   1.686
  150ACOH    H410093   7.931   6.659   0.857
  150ACOH    O210094   7.862   6.625   0.793
  150ACOH    C210095   7.872   6.491   0.791
  150ACOH    O110096   7.944   6.420   0.859
  150ACOH    C110097   7.774   6.433   0.697
  150ACOH    H110098   7.708   6.365   0.750
  150ACOH    H210099   7.826   6.379   0.618
  150ACOH    H310100   7.714   6.511   0.651
  151ACOH    H410101   6.255   8.298   3.769
  151ACOH    O210102   6.220   8.242   3.844
  151ACOH    C210103   6.240   8.114   3.807
  151ACOH    O110104   6.320   8.074   3.724
  151ACOH    C110105   6.166   8.021   3.895
  151ACOH    H110106   6.104   8.076   3.965
  151ACOH    H210107   6.235   7.958   3.949
  151ACOH    H310108   6.101   7.959   3.833
  152ACOH    H410109   4.197   6.160   3.311
  152ACOH    O210110   4.243   6.074   3.332
  152ACOH    C210111   4.155   5.997   3.398
  152ACOH    O110112   4.043   6.029   3.433
  152ACOH    C110113   4.211   5.863   3.426
  152ACOH    H110114   4.314   5.856   3.392
  152ACOH    H210115   4.151   5.788   3.375
  152ACOH    H310116   4.207   5.843   3.533
  153ACOH    H410117   2.103   9.352   1.610
  153ACOH    O210118   2.080   9.275   1.550
  153ACOH    C210119   1.956   9.235   1.579
  153ACOH    O110120   1.892   9.261   1.680
  153ACOH    C110121   1.910   9.132   1.484
  153ACOH    H110122   1.970   9.136   1.393
  153ACOH    H210123   1.806   9.148   1.457
  153ACOH    H310124   1.922   9.033   1.528
  154ACOH    H410125   5.826   6.986   3.310
  154ACOH    O210126   5.857   6.891   3.303
  154ACOH    C210127   5.961   6.889   3.218
  154ACOH    O110128   6.019   6.985   3.171
  154ACOH    C110129   6.004   6.750   3.194
  154ACOH    H110130   6.028   6.702   3.289
  154ACOH    H210131   6.091   6.747   3.129
  154ACOH    H310132   5.923   6.695   3.146
  155ACOH    H410133   2.024   1.545   0.134
  155ACOH    O210134   2.115   1.585   0.118
  155ACOH    C210135   2.096   1.691   0.037
  155ACOH    O110136   1.990   1.732   4.774
  155ACOH    C110137   2.223   1.762   0.009
  155ACOH    H110138   2.308   1.710   0.054
  155ACOH    H210139   2.219   1.863   0.051
  155ACOH    H310140   2.239   1.769   4.683
  156ACOH    H410141   9.702   3.348   0.241
  156ACOH    O210142   9.724   3.321   0.147
  156ACOH    C210143   9.654   3.403   0.067
  156ACOH    O110144   9.572   3.486   0.101
  156ACOH    C110145   9.682   3.373   4.706
  156ACOH    H110146   9.786   3.396   4.684
  156ACOH    H210147   9.618   3.433   4.641
  156ACOH    H310148   9.664   3.268   4.687
  157ACOH    H410149   1.730   8.958   1.977
  157ACOH    O210150   1.689   8.994   1.893
  157ACOH    C210151   1.746   8.926   1.792
  157ACOH    O110152   1.850   8.863   1.795
  157ACOH    C110153   1.670   8.948   1.666
  157ACOH    H110154   1.718   8.898   1.583
  157ACOH    H210155   1.665   9.055   1.645
  157ACOH    H310156   1.570   8.909   1.678
  158ACOH    H410157   2.433   0.933   1.819
  158ACOH    O210158   2.459   0.994   1.893
  158ACOH    C210159   2.487   0.914   1.999
  158ACOH    O110160   2.506   0.794   1.996
  158ACOH    C110161   2.516   0.994   2.121
  158ACOH    H110162   2.464   0.950   2.206
  158ACOH    H210163   2.482   1.096   2.109
  158ACOH    H310164   2.623   0.994   2.140
  159ACOH    H410165   9.470   8.112   4.570
  159ACOH    O210166   9.469   8.062   4.652
  159ACOH    C210167   9.493   8.151   4.750
  159ACOH    O110168   9.522   8.268   4.735
  159ACOH    C110169   9.489   8.086   0.102
  159ACOH    H110170   9.511   8.157   0.181
  159ACOH    H210171   9.562   8.006   0.105
  159ACOH    H310172   9.390   8.044   0.119
  160ACOH    H410173   8.473   3.703   2.424
  160ACOH    O210174   8.534   3.716   2.503
  160ACOH    C210175   8.539   3.848   2.526
  160ACOH    O110176   8.474   3.935   2.471
  160ACOH    C110177   8.631   3.881   2.638
  160ACOH    H110178   8.682   3.792   2.673
  160ACOH    H210179   8.574   3.923   2.720
  160ACOH    H310180   8.705   3.953   2.605
  161ACOH    H410181   7.551   8.350   0.921
  161ACOH    O210182   7.547   8.255   0.953
  161ACOH    C210183   7.638   8.186   0.882
  161ACOH    O110184   7.716   8.230   0.799
  161ACOH    C110185   7.636   8.042   0.918
  161ACOH    H110186   7.560   8.022   0.993
  161ACOH    H210187   7.733   8.013   0.957
  161ACOH    H310188   7.614   7.983   0.829
  162ACOH    H410189   8.108   7.757   0.796
  162ACOH    O210190   8.088   7.816   0.717
  162ACOH    C210191   8.022   7.923   0.765
  162ACOH    O110192   8.027   7.965   0.878
  162ACOH    C110193   7.967   8.005   0.654
  162ACOH    H110194   8.035   8.088   0.634
  162ACOH    H210195   7.870   8.045   0.683
  162ACOH    H310196   7.956   7.945   0.564
  163ACOH    H410197   3.468   3.813   3.616
  163ACOH    O210198   3.372   3.804   3.635
  163ACOH    C210199   3.352   3.875   3.748
  163ACOH    O110200   3.437   3.902   3.831
  163ACOH    C110201   3.208   3.897   3.775
  163ACOH    H110202   3.177   3.835   3.859
  163ACOH    H210203   3.148   3.872   3.688
  163ACOH    H310204   3.192   4.001   3.801
  164ACOH    H410205   8.309   3.906   2.075
  164ACOH    O210206   8.279   3.998   2.096
  164ACOH    C210207   8.215   4.045   1.987
  164ACOH    O110208   8.189   3.983   1.885
  164ACOH    C110209   8.172   4.185   2.009
  164ACOH    H110210   8.106   4.191   2.095
  164ACOH    H210211   8.120   4.223   1.921
  164ACOH    H310212   8.260   4.247   2.027
  165ACOH    H410213   6.346   9.451   0.931
  165ACOH    O210214   6.330   9.387   1.005
  165ACOH    C210215   6.438   9.396   1.086
  165ACOH    O110216   6.549   9.436   1.053
  165ACOH    C110217   6.413   9.330   1.216
  165ACOH    H110218   6.337   9.385   1.270
  165ACOH    H210219   6.504   9.326   1.276
  165ACOH    H310220   6.377   9.228   1.199
  166ACOH    H410221   8.299   3.135   2.623
  166ACOH    O210222   8.238   3.058   2.607
  166ACOH    C210223   8.134   3.107   2.537
  166ACOH    O110224   8.130   3.213   2.476
  166ACOH    C110225   8.027   3.005   2.522
  166ACOH    H110226   7.983   2.984   2.619
  166ACOH    H210227   8.069   2.913   2.482
  166ACOH    H310228   7.949   3.039   2.455
  167ACOH    H410229   9.488   5.025   3.345
  167ACOH    O210230   9.433   5.044   3.427
  167ACOH    C210231   9.517   5.031   3.532
  167ACOH    O110232   9.638   5.032   3.530
  167ACOH    C110233   9.439   5.034   3.658
  167ACOH    H110234   9.378   5.124   3.662
  167ACOH    H210235   9.506   5.032   3.744
  167ACOH    H310236   9.375   4.946   3.662
  168ACOH    H410237   6.618   1.302   2.484
  168ACOH    O210238   6.524   1.295   2.451
  168ACOH    C210239   6.453   1.391   2.512
  168ACOH    O110240   6.494   1.474   2.591
  168ACOH    C110241   6.312   1.387   2.468
  168ACOH    H110242   6.308   1.399   2.360
  168ACOH    H210243   6.254   1.466   2.515
  168ACOH    H310244   6.269   1.291   2.494
  169ACOH    H410245   4.664   5.279   2.172
  169ACOH    O210246   4.670   5.209   2.242
  169ACOH    C210247   4.589   5.248   2.343
  169ACOH    O110248   4.510   5.340   2.341
  169ACOH    C110249   4.597   5.154   2.457
  169ACOH    H110250   4.621   5.210   2.548
  169ACOH    H210251   4.674   5.079   2.441
  169ACOH    H310252   4.501   5.105   2.471
  170ACOH    H410253   4.147   7.397   1.158
  170ACOH    O210254   4.115   7.351   1.075
  170ACOH    C210255   4.181   7.405   0.971
  170ACOH    O110256   4.253   7.503   0.972
  170ACOH    C110257   4.151   7.331   0.846
  170ACOH    H110258   4.044   7.326   0.832
  170ACOH    H210259   4.190   7.230   0.854
  170ACOH    H310260   4.197   7.380   0.760
  171ACOH    H410261   7.931   0.849   0.648
  171ACOH    O210262   7.926   0.893   0.558
  171ACOH    C210263   7.912   1.025   0.581
  171ACOH    O110264   7.891   1.079   0.688
  171ACOH    C110265   7.912   1.102   0.454
  171ACOH    H110266   7.932   1.037   0.370
  171ACOH    H210267   7.989   1.179   0.457
  171ACOH    H310268   7.816   1.149   0.439
  172ACOH    H410269   7.980   9.946   3.720
  172ACOH    O210270   8.060   9.932   3.777
  172ACOH    C210271   8.101   9.806   3.754
  172ACOH    O110272   8.047   9.724   3.683
  172ACOH    C110273   8.218   9.772   3.839
  172ACOH    H110274   8.253   9.860   3.893
  172ACOH    H210275   8.299   9.735   3.777
  172ACOH    H310276   8.191   9.695   3.910
  173ACOH    H410277   8.182   4.628   1.354
  173ACOH    O210278   8.139   4.642   1.265
  173ACOH    C210279   8.169   4.535   1.190
  173ACOH    O110280   8.236   4.438   1.223
  173ACOH    C110281   8.112   4.551   1.054
  173ACOH    H110282   8.139   4.466   0.991
  173ACOH    H210283   8.150   4.641   1.009
  173ACOH    H310284   8.004   4.557   1.060
  174ACOH    H410285   5.138   4.504   1.172
  174ACOH    O210286   5.113   4.420   1.216
  174ACOH    C210287   5.150   4.321   1.132
  174ACOH    O110288   5.218   4.334   1.032
  174ACOH    C110289   5.099   4.191   1.180
  174ACOH    H110290   5.141   4.169   1.278
  174ACOH    H210291   5.125   4.112   1.111
  174ACOH    H310292   4.991   4.196   1.190
  175ACOH    H410293   5.150   3.862   1.043
  175ACOH    O210294   5.237   3.909   1.035
  175ACOH    C210295   5.324   3.820   0.983
  175ACOH    O110296   5.310   3.700   0.979
  175ACOH    C110297   5.453   3.886   0.948
  175ACOH    H110298   5.478   3.862   0.845
  175ACOH    H210299   5.531   3.849   1.013
  175ACOH    H310300   5.445   3.994   0.957
  176ACOH    H410301   4.937   5.455   1.565
  176ACOH    O210302   4.929   5.551   1.592
  176ACOH    C210303   4.817   5.598   1.535
  176ACOH    O110304   4.741   5.536   1.463
  176ACOH    C110305   4.794   5.740   1.569
  176ACOH    H110306   4.699   5.750   1.622
  176ACOH    H210307   4.790   5.800   1.479
  176ACOH    H310308   4.873   5.779   1.633
  177ACOH    H410309   7.768   6.403   2.749
  177ACOH    O210310   7.863   6.403   2.717
  177ACOH    C210311   7.887   6.530   2.679
  177ACOH    O110312   7.820   6.627   2.710
  177ACOH    C110313   8.021   6.545   2.618
  177ACOH    H110314   8.064   6.448   2.594
  177ACOH    H210315   8.087   6.597   2.687
  177ACOH    H310316   8.013   6.603   2.527
  178ACOH    H410317   5.592   9.092   3.792
  178ACOH    O210318   5.548   9.005   3.776
  178ACOH    C210319   5.621   8.918   3.850
  178ACOH    O110320   5.688   8.947   3.947
  178ACOH    C110321   5.588   8.778   3.815
  178ACOH    H110322   5.678   8.717   3.820
  178ACOH    H210323   5.551   8.774   3.713
  178ACOH    H310324   5.514   8.739   3.883
  179ACOH    H410325   7.359   1.206   2.981
  179ACOH    O210326   7.448   1.232   2.946
  179ACOH    C210327   7.525   1.262   3.051
  179ACOH    O110328   7.483   1.319   3.151
  179ACOH    C110329   7.667   1.273   3.011
  179ACOH    H110330   7.730   1.229   3.088
  179ACOH    H210331   7.695   1.377   2.998
  179ACOH    H310332   7.683   1.220   2.918
  180ACOH    H410333   7.410   1.275   3.478
  180ACOH    O210334   7.317   1.276   3.440
  180ACOH    C210335   7.294   1.402   3.397
  180ACOH    O110336   7.363   1.501   3.416
  180ACOH    C110337   7.163   1.412   3.329
  180ACOH    H110338   7.097   1.478   3.385
  180ACOH    H210339   7.115   1.314   3.321
  180ACOH    H310340   7.176   1.452   3.229
  181ACOH    H410341   7.331   0.132   1.885
  181ACOH    O210342   7.245   0.114   1.838
  181ACOH    C210343   7.275   0.101   1.707
  181ACOH    O110344   7.386   0.089   1.658
  181ACOH    C110345   7.151   0.090   1.628
  181ACOH    H110346   7.093   0.182   1.639
  181ACOH    H210347   7.092   0.007   1.665
  181ACOH    H310348   7.174   0.074   1.523
  182ACOH    H410349   7.890   8.775   0.782
  182ACOH    O210350   7.832   8.846   0.744
  182ACOH    C210351   7.721   8.786   0.699
  182ACOH    O110352   7.696   8.667   0.701
  182ACOH    C110353   7.629   8.886   0.639
  182ACOH    H110354   7.541   8.837   0.597
  182ACOH    H210355   7.680   8.940   0.560
  182ACOH    H310356   7.598   8.956   0.715
  183ACOH    H410357   6.301   7.750   1.939
  183ACOH    O210358   6.390   7.769   1.897
  183ACOH    C210359   6.458   7.653   1.903
  183ACOH    O110360   6.414   7.543   1.930
  183ACOH    C110361   6.598   7.674   1.860
  183ACOH    H110362   6.599   7.715   1.760
  183ACOH    H210363   6.652   7.580   1.862
  183ACOH    H310364   6.646   7.744   1.929
  184ACOH    H410365   5.752   0.426   1.511
  184ACOH    O210366   5.817   0.492   1.551
  184ACOH    C210367   5.937   0.467   1.497
  184ACOH    O110368   5.965   0.379   1.418
  184ACOH    C110369   6.038   0.561   1.550
  184ACOH    H110370   6.011   0.662   1.522
  184ACOH    H210371   6.137   0.539   1.511
  184ACOH    H310372   6.041   0.554   1.658
  185ACOH    H410373   6.151   7.236   2.169
  185ACOH    O210374   6.133   7.246   2.072
  185ACOH    C210375   6.001   7.265   2.058
  185ACOH    O110376   5.919   7.260   2.147
  185ACOH    C110377   5.962   7.275   1.915
  185ACOH    H110378   5.919   7.181   1.882
  185ACOH    H210379   6.049   7.299   1.854
  185ACOH    H310380   5.888   7.353   1.903
  186ACOH    H410381   5.272   4.880   1.670
  186ACOH    O210382   5.368   4.891   1.690
  186ACOH    C210383   5.391   5.021   1.715
  186ACOH    O110384   5.306   5.108   1.730
  186ACOH    C110385   5.535   5.051   1.729
  186ACOH    H110386   5.556   5.083   1.831
  186ACOH    H210387   5.563   5.129   1.660
  186ACOH    H310388   5.595   4.962   1.707
  187ACOH    H410389   4.047   4.561   2.500
  187ACOH    O210390   4.088   4.651   2.518
  187ACOH    C210391   4.125   4.700   2.398
  187ACOH    O110392   4.103   4.651   2.289
  187ACOH    C110393   4.186   4.835   2.411
  187ACOH    H110394   4.118   4.909   2.370
  187ACOH    H210395   4.279   4.837   2.355
  187ACOH    H310396   4.207   4.858   2.515
  188ACOH    H410397   7.658   5.280   2.306
  188ACOH    O210398   7.592   5.329   2.249
  188ACOH    C210399   7.587   5.455   2.294
  188ACOH    O110400   7.658   5.508   2.377
  188ACOH    C110401   7.483   5.531   2.219
  188ACOH    H110402   7.484   5.636   2.247
  188ACOH    H210403   7.386   5.488   2.241
  188ACOH    H310404   7.503   5.522   2.113
  189ACOH    H410405   4.949   0.384   1.410
  189ACOH    O210406   4.933   0.297   1.363
  189ACOH    C210407   4.803   0.267   1.379
  189ACOH    O110408   4.716   0.342   1.422
  189ACOH    C110409   4.774   0.130   1.333
  189ACOH    H110410   4.669   0.106   1.343
  189ACOH    H210411   4.832   0.059   1.391
  189ACOH    H310412   4.802   0.121   1.228
  190ACOH    H410413   7.772   4.980   1.064
  190ACOH    O210414   7.683   4.979   1.108
  190ACOH    C210415   7.689   5.068   1.208
  190ACOH    O110416   7.771   5.157   1.223
  190ACOH    C110417   7.571   5.055   1.296
  190ACOH    H110418   7.602   5.057   1.400
  190ACOH    H210419   7.520   4.961   1.277
  190ACOH    H310420   7.502   5.137   1.277
  191ACOH    H410421   7.959   4.634   3.042
  191ACOH    O210422   7.944   4.625   3.141
  191ACOH    C210423   7.852   4.719   3.172
  191ACOH    O110424   7.787   4.786   3.095
  191ACOH    C110425   7.824   4.718   3.318
  191ACOH    H110426   7.811   4.821   3.352
  191ACOH    H210427   7.907   4.674   3.373
  191ACOH    H310428   7.734   4.662   3.338
  192ACOH    H410429   8.086   3.868   1.796
  192ACOH    O210430   8.039   3.810   1.732
  192ACOH    C210431   8.088   3.686   1.748
  192ACOH    O110432   8.167   3.649   1.833
  192ACOH    C110433   8.033   3.592   1.647
  192ACOH    H110434   7.980   3.511   1.697
  192ACOH    H210435   8.113   3.551   1.587
  192ACOH    H310436   7.963   3.643   1.582
  193ACOH    H410437   7.172   9.077   0.843
  193ACOH    O210438   7.187   9.014   0.918
  193ACOH    C210439   7.204   8.889   0.869
  193ACOH    O110440   7.223   8.792   0.939
  193ACOH    C110441   7.195   8.877   0.721
  193ACOH    H110442   7.098   8.913   0.687
  193ACOH    H210443   7.207   8.774   0.690
  193ACOH    H310444   7.273   8.937   0.675
  194ACOH    H410445   6.025   1.143   2.032
  194ACOH    O210446   6.023   1.104   1.940
  194ACOH    C210447   6.144   1.126   1.885
  194ACOH    O110448   6.244   1.165   1.942
  194ACOH    C110449   6.145   1.079   1.744
  194ACOH    H110450   6.115   0.975   1.739
  194ACOH    H210451   6.245   1.090   1.701
  194ACOH    H310452   6.076   1.139   1.686
  195ACOH    H410453   7.375   6.128   2.208
  195ACOH    O210454   7.286   6.087   2.221
  195ACOH    C210455   7.251   6.109   2.349
  195ACOH    O110456   7.315   6.169   2.433
  195ACOH    C110457   7.120   6.049   2.382
  195ACOH    H110458   7.133   5.974   2.459
  195ACOH    H210459   7.076   6.002   2.294
  195ACOH    H310460   7.053   6.126   2.419
  196ACOH    H410461   3.012   6.116   2.153
  196ACOH    O210462   2.975   6.184   2.089
  196ACOH    C210463   2.841   6.181   2.105
  196ACOH    O110464   2.778   6.128   2.195
  196ACOH    C110465   2.771   6.257   1.998
  196ACOH    H110466   2.708   6.333   2.042
  196ACOH    H210467   2.711   6.189   1.939
  196ACOH    H310468   2.843   6.306   1.933
  197ACOH    H410469   6.773   8.732   1.429
  197ACOH    O210470   6.751   8.643   1.390
  197ACOH    C210471   6.868   8.579   1.372
  197ACOH    O110472   6.979   8.618   1.404
  197ACOH    C110473   6.845   8.447   1.309
  197ACOH    H110474   6.805   8.460   1.209
  197ACOH    H210475   6.773   8.391   1.369
  197ACOH    H310476   6.937   8.390   1.304
  198ACOH    H410477   4.068   6.745   1.659
  198ACOH    O210478   4.162   6.715   1.675
  198ACOH    C210479   4.224   6.721   1.556
  198ACOH    O110480   4.185   6.778   1.455
  198ACOH    C110481   4.359   6.660   1.565
  198ACOH    H110482   4.414   6.676   1.473
  198ACOH    H210483   4.348   6.553   1.582
  198ACOH    H310484   4.413   6.704   1.648
  199ACOH    H410485   7.947   4.903   2.704
  199ACOH    O210486   7.870   4.864   2.754
  199ACOH    C210487   7.761   4.930   2.712
  199ACOH    O110488   7.754   5.007   2.618
  199ACOH    C110489   7.642   4.888   2.789
  199ACOH    H110490   7.633   4.780   2.786
  199ACOH    H210491   7.551   4.933   2.749
  199ACOH    H310492   7.654   4.919   2.893
  200ACOH    H410493   4.469   4.192   3.877
  200ACOH    O210494   4.516   4.140   3.809
  200ACOH    C210495   4.644   4.132   3.850
  200ACOH    O110496   4.695   4.203   3.935
  200ACOH    C110497   4.719   4.027   3.778
  200ACOH    H110498   4.807   4.070   3.731
  200ACOH    H210499   4.657   3.981   3.701
  200ACOH    H310500   4.750   3.951   3.848
  201ACOH    H410501   7.449   1.857   1.347
  201ACOH    O210502   7.380   1.790   1.317
  201ACOH    C210503   7.393   1.777   1.184
  201ACOH    O110504   7.478   1.827   1.114
  201ACOH    C110505   7.291   1.685   1.128
  201ACOH    H110506   7.232   1.737   1.053
  201ACOH    H210507   7.225   1.648   1.206
  201ACOH    H310508   7.341   1.600   1.081
  202ACOH    H410509   4.987   1.084   3.690
  202ACOH    O210510   5.008   1.166   3.643
  202ACOH    C210511   5.121   1.215   3.696
  202ACOH    O110512   5.188   1.163   3.784
  202ACOH    C110513   5.161   1.342   3.632
  202ACOH    H110514   5.161   1.422   3.706
  202ACOH    H210515   5.092   1.368   3.552
  202ACOH    H310516   5.261   1.332   3.590
  203ACOH    H410517   8.123   5.942   0.142
  203ACOH    O210518   8.067   5.900   0.071
  203ACOH    C210519   7.940   5.934   0.096
  203ACOH    O110520   7.893   5.954   0.206
  203ACOH    C110521   7.852   5.902   4.762
  203ACOH    H110522   7.910   5.894   4.671
  203ACOH    H210523   7.777   5.979   4.751
  203ACOH    H310524   7.803   5.807   4.780
  204ACOH    H410525   5.023   4.310   2.175
  204ACOH    O210526   5.107   4.283   2.223
  204ACOH    C210527   5.108   4.149   2.227
  204ACOH    O110528   5.025   4.072   2.184
  204ACOH    C110529   5.231   4.102   2.296
  204ACOH    H110530   5.235   3.993   2.296
  204ACOH    H210531   5.231   4.138   2.398
  204ACOH    H310532   5.318   4.141   2.244
  205ACOH    H410533   0.353   7.832   3.639
  205ACOH    O210534   0.321   7.884   3.560
  205ACOH    C210535   0.214   7.953   3.604
  205ACOH    O110536   0.192   7.987   3.718
  205ACOH    C110537   0.138   8.004   3.488
  205ACOH    H110538   0.061   8.072   3.521
  205ACOH    H210539   0.091   7.920   3.436
  205ACOH    H310540   0.205   8.055   3.420
  206ACOH    H410541   5.593   2.851   0.811
  206ACOH    O210542   5.517   2.837   0.872
  206ACOH    C210543   5.545   2.725   0.942
  206ACOH    O110544   5.641   2.653   0.925
  206ACOH    C110545   5.440   2.695   1.042
  206ACOH    H110546   5.361   2.769   1.040
  206ACOH    H210547   5.484   2.694   1.141
  206ACOH    H310548   5.398   2.597   1.022
  207ACOH    H410549   7.442   3.878   0.372
  207ACOH    O210550   7.375   3.848   0.439
  207ACOH    C210551   7.337   3.725   0.403
  207ACOH    O110552   7.353   3.676   0.292
  207ACOH    C110553   7.250   3.663   0.506
  207ACOH    H110554   7.168   3.730   0.530
  207ACOH    H210555   7.308   3.644   0.596
  207ACOH    H310556   7.209   3.568   0.471
  208ACOH    H410557   5.862   2.677   0.383
  208ACOH    O210558   5.931   2.718   0.326
  208ACOH    C210559   5.870   2.809   0.249
  208ACOH    O110560   5.754   2.845   0.257
  208ACOH    C110561   5.963   2.868   0.150
  208ACOH    H110562   5.969   2.976   0.164
  208ACOH    H210563   5.927   2.848   0.049
  208ACOH    H310564   6.062   2.826   0.161
  209ACOH    H410565   7.392   3.374   0.581
  209ACOH    O210566   7.407   3.411   0.672
  209ACOH    C210567   7.486   3.325   0.738
  209ACOH    O110568   7.539   3.224   0.695
  209ACOH    C110569   7.504   3.371   0.878
  209ACOH    H110570   7.553   3.468   0.879
  209ACOH    H210571   7.565   3.301   0.935
  209ACOH    H310572   7.407   3.380   0.926
  210ACOH    H410573   6.891   1.363   2.978
  210ACOH    O210574   6.793   1.353   2.993
  210ACOH    C210575   6.779   1.282   3.107
  210ACOH    O110576   6.867   1.252   3.185
  210ACOH    C110577   6.636   1.246   3.129
  210ACOH    H110578   6.626   1.187   3.219
  210ACOH    H210579   6.599   1.189   3.045
  210ACOH    H310580   6.577   1.336   3.139
  211ACOH    H410581   7.494   6.071   3.432
  211ACOH    O210582   7.470   5.988   3.481
  211ACOH    C210583   7.345   6.005   3.528
  211ACOH    O110584   7.284   6.109   3.535
  211ACOH    C110585   7.292   5.879   3.587
  211ACOH    H110586   7.195   5.857   3.543
  211ACOH    H210587   7.281   5.891   3.694
  211ACOH    H310588   7.360   5.796   3.567
  212ACOH    H410589   4.130   6.853   3.669
  212ACOH    O210590   4.125   6.754   3.681
  212ACOH    C210591   4.251   6.709   3.682
  212ACOH    O110592   4.351   6.768   3.645
  212ACOH    C110593   4.256   6.565   3.717
  212ACOH    H110594   4.329   6.549   3.796
  212ACOH    H210595   4.284   6.507   3.630
  212ACOH    H310596   4.159   6.531   3.752
  213ACOH    H410597   4.398   4.047   3.276
  213ACOH    O210598   4.361   4.123   3.223
  213ACOH    C210599   4.262   4.180   3.295
  213ACOH    O110600   4.236   4.160   3.412
  213ACOH    C110601   4.191   4.283   3.215
  213ACOH    H110602   4.085   4.260   3.212
  213ACOH    H210603   4.229   4.286   3.114
  213ACOH    H310604   4.203   4.381   3.260
  214ACOH    H410605   3.273   1.857   1.197
  214ACOH    O210606   3.276   1.905   1.109
  214ACOH    C210607   3.174   1.857   1.035
  214ACOH    O110608   3.099   1.765   1.061
  214ACOH    C110609   3.168   1.931   0.907
  214ACOH    H110610   3.155   2.036   0.928
  214ACOH    H210611   3.085   1.896   0.847
  214ACOH    H310612   3.261   1.916   0.852
  215ACOH    H410613   7.434   7.189   4.062
  215ACOH    O210614   7.362   7.125   4.069
  215ACOH    C210615   7.355   7.059   3.952
  215ACOH    O110616   7.434   7.070   3.860
  215ACOH    C110617   7.242   6.964   3.949
  215ACOH    H110618   7.186   6.968   4.042
  215ACOH    H210619   7.279   6.863   3.934
  215ACOH    H310620   7.175   6.989   3.867
  216ACOH    H410621   3.583   6.282   1.521
  216ACOH    O210622   3.610   6.186   1.527
  216ACOH    C210623   3.681   6.170   1.640
  216ACOH    O110624   3.683   6.246   1.736
  216ACOH    C110625   3.737   6.032   1.649
  216ACOH    H110626   3.731   5.982   1.552
  216ACOH    H210627   3.680   5.975   1.722
  216ACOH    H310628   3.841   6.036   1.679
  217ACOH    H410629   4.942   1.514   1.079
  217ACOH    O210630   4.875   1.454   1.038
  217ACOH    C210631   4.834   1.514   0.925
  217ACOH    O110632   4.882   1.614   0.874
  217ACOH    C110633   4.724   1.440   0.859
  217ACOH    H110634   4.692   1.355   0.919
  217ACOH    H210635   4.758   1.403   0.762
  217ACOH    H310636   4.639   1.506   0.843
  218ACOH    H410637   7.684   4.783   3.693
  218ACOH    O210638   7.635   4.696   3.692
  218ACOH    C210639   7.724   4.600   3.663
  218ACOH    O110640   7.845   4.614   3.650
  218ACOH    C110641   7.659   4.467   3.653
  218ACOH    H110642   7.551   4.477   3.663
  218ACOH    H210643   7.697   4.403   3.732
  218ACOH    H310644   7.682   4.422   3.557
  219ACOH    H410645   9.758   8.512   2.758
  219ACOH    O210646   9.668   8.542   2.788
  219ACOH    C210647   9.673   8.677   2.789
  219ACOH    O110648   9.755   8.747   2.733
  219ACOH    C110649   9.552   8.736   2.851
  219ACOH    H110650   9.492   8.659   2.899
  219ACOH    H210651   9.491   8.785   2.775
  219ACOH    H310652   9.581   8.809   2.925
  220ACOH    H410653   5.725   6.206   2.501
  220ACOH    O210654   5.776   6.123   2.521
  220ACOH    C210655   5.905   6.156   2.540
  220ACOH    O110656   5.957   6.265   2.527
  220ACOH    C110657   5.982   6.035   2.575
  220ACOH    H110658   6.088   6.058   2.587
  220ACOH    H210659   5.971   5.961   2.496
  220ACOH    H310660   5.944   5.994   2.668
  221ACOH    H410661   4.892   6.438   3.087
  221ACOH    O210662   4.955   6.386   3.145
  221ACOH    C210663   4.940   6.430   3.271
  221ACOH    O110664   4.863   6.516   3.312
  221ACOH    C110665   5.034   6.361   3.362
  221ACOH    H110666   4.978   6.310   3.440
  221ACOH    H210667   5.101   6.434   3.408
  221ACOH    H310668   5.093   6.288   3.308
  222ACOH    H410669   9.305   0.148   0.511
  222ACOH    O210670   9.341   0.056   0.504
  222ACOH    C210671   9.246   9.972   0.549
  222ACOH    O110672   9.138   0.002   0.597
  222ACOH    C110673   9.289   9.831   0.537
  222ACOH    H110674   9.294   9.786   0.636
  222ACOH    H210675   9.387   9.823   0.490
  222ACOH    H310676   9.217   9.776   0.477
  223ACOH    H410677   6.184   9.108   1.453
  223ACOH    O210678   6.178   9.142   1.360
  223ACOH    C210679   6.061   9.207   1.349
  223ACOH    O110680   5.966   9.196   1.426
  223ACOH    C110681   6.048   9.279   1.221
  223ACOH    H110682   6.018   9.382   1.240
  223ACOH    H210683   5.971   9.233   1.160
  223ACOH    H310684   6.141   9.279   1.166
  224ACOH    H410685   7.532   2.728   0.133
  224ACOH    O210686   7.439   2.718   0.170
  224ACOH    C210687   7.355   2.740   0.067
  224ACOH    O110688   7.384   2.744   4.730
  224ACOH    C110689   7.214   2.742   0.112
  224ACOH    H110690   7.160   2.658   0.069
  224ACOH    H210691   7.167   2.834   0.078
  224ACOH    H310692   7.208   2.737   0.220
  225ACOH    H410693   5.368   6.398   2.127
  225ACOH    O210694   5.331   6.437   2.043
  225ACOH    C210695   5.230   6.356   2.008
  225ACOH    O110696   5.200   6.248   2.057
  225ACOH    C110697   5.160   6.410   1.889
  225ACOH    H110698   5.112   6.504   1.915
  225ACOH    H210699   5.084   6.341   1.853
  225ACOH    H310700   5.232   6.428   1.809
  226ACOH    H410701   7.753   3.161   3.628
  226ACOH    O210702   7.663   3.175   3.667
  226ACOH    C210703   7.634   3.067   3.741
  226ACOH    O110704   7.709   2.974   3.767
  226ACOH    C110705   7.495   3.076   3.792
  226ACOH    H110706   7.471   2.989   3.853
  226ACOH    H210707   7.426   3.081   3.708
  226ACOH    H310708   7.484   3.166   3.852
  227ACOH    H410709   5.345   6.604   3.092
  227ACOH    O210710   5.436   6.604   3.131
  227ACOH    C210711   5.469   6.732   3.157
  227ACOH    O110712   5.405   6.832   3.131
  227ACOH    C110713   5.603   6.741   3.219
  227ACOH    H110714   5.645   6.642   3.235
  227ACOH    H210715   5.597   6.792   3.315
  227ACOH    H310716   5.670   6.796   3.153
  228ACOH    H410717   3.183   3.778   3.275
  228ACOH    O210718   3.108   3.796   3.213
  228ACOH    C210719   3.108   3.929   3.191
  228ACOH    O110720   3.192   4.010   3.225
  228ACOH    C110721   2.988   3.969   3.112
  228ACOH    H110722   2.899   3.949   3.171
  228ACOH    H210723   2.984   3.911   3.020
  228ACOH    H310724   2.992   4.075   3.087
  229ACOH    H410725   8.015   5.192   1.773
  229ACOH    O210726   7.975   5.169   1.862
  229ACOH    C210727   7.883   5.265   1.889
  229ACOH    O110728   7.861   5.365   1.824
  229ACOH    C110729   7.813   5.238   2.017
  229ACOH    H110730   7.844   5.142   2.058
  229ACOH    H210731   7.706   5.237   2.001
  229ACOH    H310732   7.838   5.316   2.088
  230ACOH    H410733   0.301   4.050   1.993
  230ACOH    O210734   0.261   3.966   2.027
  230ACOH    C210735   0.130   3.989   2.045
  230ACOH    O110736   0.078   4.099   2.053
  230ACOH    C110737   0.057   3.866   2.084
  230ACOH    H110738   0.031   3.871   2.189
  230ACOH    H210739   0.119   3.779   2.066
  230ACOH    H310740   9.966   3.858   2.025
  231ACOH    H410741   6.192   0.723   2.004
  231ACOH    O210742   6.269   0.785   1.997
  231ACOH    C210743   6.319   0.772   1.873
  231ACOH    O110744   6.274   0.703   1.783
  231ACOH    C110745   6.439   0.857   1.855
  231ACOH    H110746   6.475   0.852   1.753
  231ACOH    H210747   6.517   0.823   1.923
  231ACOH    H310748   6.414   0.960   1.880
  232ACOH    H410749   6.039   6.629   2.232
  232ACOH    O210750   6.022   6.531   2.240
  232ACOH    C210751   6.143   6.472   2.250
  232ACOH    O110752   6.243   6.523   2.298
  232ACOH    C110753   6.134   6.326   2.227
  232ACOH    H110754   6.040   6.300   2.179
  232ACOH    H210755   6.140   6.274   2.323
  232ACOH    H310756   6.217   6.293   2.165
  233ACOH    H410757   9.529   3.633   1.996
  233ACOH    O210758   9.535   3.677   1.906
  233ACOH    C210759   9.655   3.646   1.855
  233ACOH    O110760   9.728   3.556   1.891
  233ACOH    C110761   9.683   3.724   1.732
  233ACOH    H110762   9.688   3.657   1.647
  233ACOH    H210763   9.778   3.776   1.742
  233ACOH    H310764   9.605   3.798   1.715
  234ACOH    H410765   6.061   8.168   1.271
  234ACOH    O210766   6.056   8.122   1.183
  234ACOH    C210767   5.926   8.093   1.161
  234ACOH    O110768   5.833   8.118   1.234
  234ACOH    C110769   5.908   8.019   1.034
  234ACOH    H110770   5.870   7.919   1.055
  234ACOH    H210771   6.002   8.011   0.980
  234ACOH    H310772   5.835   8.071   0.972
  235ACOH    H410773   4.817   1.437   3.527
  235ACOH    O210774   4.862   1.517   3.566
  235ACOH    C210775   4.899   1.595   3.463
  235ACOH    O110776   4.900   1.566   3.345
  235ACOH    C110777   4.951   1.725   3.513
  235ACOH    H110778   4.990   1.785   3.431
  235ACOH    H210779   5.030   1.706   3.585
  235ACOH    H310780   4.870   1.779   3.562
  236ACOH    H410781   3.037   8.216   2.641
  236ACOH    O210782   3.112   8.151   2.649
  236ACOH    C210783   3.222   8.223   2.680
  236ACOH    O110784   3.232   8.345   2.686
  236ACOH    C110785   3.337   8.134   2.706
  236ACOH    H110786   3.310   8.062   2.783
  236ACOH    H210787   3.423   8.191   2.740
  236ACOH    H310788   3.364   8.081   2.615
  237ACOH    H410789   5.574   3.768   0.524
  237ACOH    O210790   5.648   3.779   0.590
  237ACOH    C210791   5.631   3.683   0.682
  237ACOH    O110792   5.540   3.603   0.689
  237ACOH    C110793   5.738   3.691   0.785
  237ACOH    H110794   5.738   3.790   0.829
  237ACOH    H210795   5.834   3.674   0.737
  237ACOH    H310796   5.723   3.617   0.862
  238ACOH    H410797   3.535   2.490   3.159
  238ACOH    O210798   3.486   2.529   3.238
  238ACOH    C210799   3.582   2.589   3.313
  238ACOH    O110800   3.702   2.575   3.301
  238ACOH    C110801   3.518   2.672   3.418
  238ACOH    H110802   3.594   2.716   3.482
  238ACOH    H210803   3.453   2.611   3.479
  238ACOH    H310804   3.460   2.752   3.373
  239ACOH    H410805   5.023   7.498   4.582
  239ACOH    O210806   5.081   7.563   4.625
  239ACOH    C210807   5.024   7.594   4.742
  239ACOH    O110808   4.917   7.553   0.001
  239ACOH    C110809   5.105   7.692   0.038
  239ACOH    H110810   5.047   7.783   0.054
  239ACOH    H210811   5.196   7.717   4.765
  239ACOH    H310812   5.132   7.650   0.134
  240ACOH    H410813   4.429   4.837   2.048
  240ACOH    O210814   4.388   4.888   2.122
  240ACOH    C210815   4.380   5.016   2.082
  240ACOH    O110816   4.424   5.062   1.978
  240ACOH    C110817   4.312   5.100   2.184
  240ACOH    H110818   4.209   5.067   2.195
  240ACOH    H210819   4.313   5.205   2.155
  240ACOH    H310820   4.363   5.089   2.279
  241ACOH    H410821   4.753   3.566   1.729
  241ACOH    O210822   4.805   3.647   1.703
  241ACOH    C210823   4.895   3.607   1.611
  241ACOH    O110824   4.922   3.493   1.578
  241ACOH    C110825   4.967   3.724   1.554
  241ACOH    H110826   5.044   3.692   1.485
  241ACOH    H210827   5.013   3.781   1.634
  241ACOH    H310828   4.896   3.787   1.502
  242ACOH    H410829   4.220   2.718   0.054
  242ACOH    O210830   4.313   2.697   0.025
  242ACOH    C210831   4.396   2.739   0.121
  242ACOH    O110832   4.369   2.810   0.217
  242ACOH    C110833   4.535   2.698   0.091
  242ACOH    H110834   4.542   2.589   0.095
  242ACOH    H210835   4.605   2.741   0.163
  242ACOH    H310836   4.562   2.731   4.772
  243ACOH    H410837   3.780   5.425   1.134
  243ACOH    O210838   3.719   5.463   1.065
  243ACOH    C210839   3.667   5.577   1.115
  243ACOH    O110840   3.694   5.628   1.221
  243ACOH    C110841   3.575   5.641   1.018
  243ACOH    H110842   3.567   5.582   0.927
  243ACOH    H210843   3.612   5.740   0.992
  243ACOH    H310844   3.476   5.651   1.063
  244ACOH    H410845   7.765   2.505   2.083
  244ACOH    O210846   7.692   2.441   2.108
  244ACOH    C210847   7.674   2.362   2.000
  244ACOH    O110848   7.730   2.372   1.893
  244ACOH    C110849   7.572   2.258   2.028
  244ACOH    H110850   7.563   2.190   1.944
  244ACOH    H210851   7.476   2.306   2.045
  244ACOH    H310852   7.600   2.202   2.117
  245ACOH    H410853   4.513   5.708   1.874
  245ACOH    O210854   4.521   5.681   1.778
  245ACOH    C210855   4.408   5.615   1.746
  245ACOH    O110856   4.306   5.609   1.811
  245ACOH    C110857   4.422   5.554   1.612
  245ACOH    H110858   4.503   5.483   1.613
  245ACOH    H210859   4.444   5.631   1.538
  245ACOH    H310860   4.330   5.503   1.583
  246ACOH    H410861   7.433   2.282   1.367
  246ACOH    O210862   7.344   2.238   1.355
  246ACOH    C210863   7.351   2.169   1.239
  246ACOH    O110864   7.439   2.173   1.156
  246ACOH    C110865   7.226   2.091   1.220
  246ACOH    H110866   7.216   2.020   1.301
  246ACOH    H210867   7.229   2.037   1.125
  246ACOH    H310868   7.141   2.158   1.221
  247ACOH    H410869   3.704   4.593   1.255
  247ACOH    O210870   3.707   4.495   1.239
  247ACOH    C210871   3.582   4.449   1.258
  247ACOH    O110872   3.489   4.509   1.310
  247ACOH    C110873   3.571   4.306   1.219
  247ACOH    H110874   3.558   4.245   1.308
  247ACOH    H210875   3.660   4.274   1.166
  247ACOH    H310876   3.485   4.292   1.154
  248ACOH    H410877   5.059   5.253   1.956
  248ACOH    O210878   5.042   5.243   2.053
  248ACOH    C210879   5.046   5.112   2.081
  248ACOH    O110880   5.061   5.022   2.000
  248ACOH    C110881   5.024   5.086   2.225
  248ACOH    H110882   5.101   5.136   2.283
  248ACOH    H210883   5.026   4.980   2.246
  248ACOH    H310884   4.926   5.126   2.253
  249ACOH    H410885   8.621   4.048   1.363
  249ACOH    O210886   8.679   4.045   1.283
  249ACOH    C210887   8.707   3.916   1.256
  249ACOH    O110888   8.688   3.821   1.331
  249ACOH    C110889   8.775   3.903   1.126
  249ACOH    H110890   8.724   3.828   1.066
  249ACOH    H210891   8.878   3.872   1.141
  249ACOH    H310892   8.774   3.997   1.072
  250ACOH    H410893   5.317   3.307   2.833
  250ACOH    O210894   5.387   3.373   2.862
  250ACOH    C210895   5.337   3.440   2.967
  250ACOH    O110896   5.223   3.435   3.011
  250ACOH    C110897   5.439   3.532   3.023
  250ACOH    H110898   5.396   3.595   3.101
  250ACOH    H210899   5.478   3.594   2.943
  250ACOH    H310900   5.520   3.473   3.065
  251ACOH    H410901   8.935   0.448   2.472
  251ACOH    O210902   8.987   0.533   2.483
  251ACOH    C210903   9.112   0.507   2.439
  251ACOH    O110904   9.151   0.405   2.385
  251ACOH    C110905   9.199   0.624   2.464
  251ACOH    H110906   9.202   0.646   2.570
  251ACOH    H210907   9.159   0.710   2.411
  251ACOH    H310908   9.300   0.605   2.428
  252ACOH    H410909   9.532   6.094   1.623
  252ACOH    O210910   9.528   6.022   1.692
  252ACOH    C210911   9.399   6.014   1.730
  252ACOH    O110912   9.304   6.073   1.680
  252ACOH    C110913   9.384   5.914   1.838
  252ACOH    H110914   9.442   5.945   1.924
  252ACOH    H210915   9.419   5.817   1.804
  252ACOH    H310916   9.280   5.905   1.868
  253ACOH    H410917   2.604   8.512   0.574
  253ACOH    O210918   2.506   8.507   0.590
  253ACOH    C210919   2.452   8.620   0.540
  253ACOH    O110920   2.512   8.720   0.506
  253ACOH    C110921   2.305   8.618   0.556
  253ACOH    H110922   2.257   8.656   0.466
  253ACOH    H210923   2.275   8.680   0.641
  253ACOH    H310924   2.269   8.516   0.573
  254ACOH    H410925   7.493   2.253   2.866
  254ACOH    O210926   7.530   2.346   2.855
  254ACOH    C210927   7.488   2.386   2.734
  254ACOH    O110928   7.457   2.314   2.641
  254ACOH    C110929   7.513   2.531   2.715
  254ACOH    H110930   7.427   2.577   2.666
  254ACOH    H210931   7.601   2.545   2.654
  254ACOH    H310932   7.528   2.580   2.811
  255ACOH    H410933   5.054   2.744   0.224
  255ACOH    O210934   5.095   2.719   0.138
  255ACOH    C210935   5.224   2.687   0.163
  255ACOH    O110936   5.279   2.685   0.271
  255ACOH    C110937   5.293   2.644   0.039
  255ACOH    H110938   5.231   2.661   4.733
  255ACOH    H210939   5.316   2.538   0.046
  255ACOH    H310940   5.386   2.699   0.028
  256ACOH    H410941   8.128   6.579   0.527
  256ACOH    O210942   8.100   6.651   0.590
  256ACOH    C210943   8.110   6.767   0.523
  256ACOH    O110944   8.123   6.782   0.403
  256ACOH    C110945   8.087   6.881   0.615
  256ACOH    H110946   8.170   6.889   0.683
  256ACOH    H210947   7.996   6.863   0.673
  256ACOH    H310948   8.076   6.974   0.560
  257ACOH    H410949   6.912   0.820   2.191
  257ACOH    O210950   6.850   0.853   2.120
  257ACOH    C210951   6.829   0.983   2.146
  257ACOH    O110952   6.892   1.054   2.222
  257ACOH    C110953   6.728   1.038   2.052
  257ACOH    H110954   6.754   1.010   1.951
  257ACOH    H210955   6.725   1.146   2.059
  257ACOH    H310956   6.630   0.998   2.077
  258ACOH    H410957   2.522   9.697   1.386
  258ACOH    O210958   2.489   9.603   1.390
  258ACOH    C210959   2.594   9.530   1.434
  258ACOH    O110960   2.708   9.570   1.450
  258ACOH    C110961   2.554   9.390   1.460
  258ACOH    H110962   2.513   9.346   1.370
  258ACOH    H210963   2.478   9.388   1.538
  258ACOH    H310964   2.639   9.331   1.493
  259ACOH    H410965   6.839   6.808   2.760
  259ACOH    O210966   6.873   6.826   2.669
  259ACOH    C210967   6.906   6.708   2.614
  259ACOH    O110968   6.913   6.600   2.669
  259ACOH    C110969   6.943   6.728   2.472
  259ACOH    H110970   6.958   6.633   2.422
  259ACOH    H210971   7.034   6.786   2.466
  259ACOH    H310972   6.863   6.783   2.421
  260ACOH    H410973   4.632   7.268   0.480
  260ACOH    O210974   4.724   7.253   0.443
  260ACOH    C210975   4.709   7.203   0.319
  260ACOH    O110976   4.607   7.162   0.268
  260ACOH    C110977   4.841   7.195   0.252
  260ACOH    H110978   4.881   7.295   0.239
  260ACOH    H210979   4.831   7.148   0.154
  260ACOH    H310980   4.910   7.137   0.312
  261ACOH    H410981   4.005   8.438   1.861
  261ACOH    O210982   4.000   8.390   1.949
  261ACOH    C210983   3.901   8.299   1.937
  261ACOH    O110984   3.832   8.278   1.839
  261ACOH    C110985   3.876   8.230   2.066
  261ACOH    H110986   3.952   8.255   2.139
  261ACOH    H210987   3.876   8.122   2.050
  261ACOH    H310988   3.778   8.259   2.104
  262ACOH    H410989   5.371   3.846   0.545
  262ACOH    O210990   5.344   3.892   0.628
  262ACOH    C210991   5.217   3.934   0.611
  262ACOH    O110992   5.145   3.910   0.516
  262ACOH    C110993   5.166   4.002   0.732
  262ACOH    H110994   5.098   3.937   0.785
  262ACOH    H210995   5.113   4.092   0.704
  262ACOH    H310996   5.248   4.030   0.798
  263ACOH    H410997   4.707   0.480   1.122
  263ACOH    O210998   4.759   0.407   1.077
  263ACOH    C210999   4.870   0.466   1.027
  263ACOH    O111000   4.893   0.585   1.024
  263ACOH    C111001   4.958   0.364   0.966
  263ACOH    H111002   5.046   0.411   0.921
  263ACOH    H211003   4.904   0.310   0.889
  263ACOH    H311004   4.991   0.293   1.042
  264ACOH    H411005   7.044   7.664   2.046
  264ACOH    O211006   6.974   7.656   1.976
  264ACOH    C211007   7.023   7.719   1.867
  264ACOH    O111008   7.128   7.780   1.859
  264ACOH    C111009   6.928   7.711   1.753
  264ACOH    H111010   6.873   7.804   1.746
  264ACOH    H211011   6.860   7.628   1.766
  264ACOH    H311012   6.983   7.697   1.660
  265ACOH    H411013   7.901   2.700   3.068
  265ACOH    O211014   7.811   2.667   3.042
  265ACOH    C211015   7.747   2.638   3.157
  265ACOH    O111016   7.790   2.653   3.270
  265ACOH    C111017   7.610   2.590   3.130
  265ACOH    H111018   7.614   2.498   3.072
  265ACOH    H211019   7.556   2.665   3.073
  265ACOH    H311020   7.556   2.570   3.223
  266ACOH    H411021   4.969   2.890   3.077
  266ACOH    O211022   4.920   2.964   3.123
  266ACOH    C211023   4.953   3.077   3.058
  266ACOH    O111024   4.991   3.085   2.943
  266ACOH    C111025   4.906   3.197   3.131
  266ACOH    H111026   4.984   3.273   3.130
  266ACOH    H211027   4.883   3.173   3.234
  266ACOH    H311028   4.818   3.238   3.083
  267ACOH    H411029   5.588   8.470   1.538
  267ACOH    O211030   5.580   8.569   1.523
  267ACOH    C211031   5.705   8.619   1.516
  267ACOH    O111032   5.810   8.560   1.531
  267ACOH    C111033   5.700   8.765   1.489
  267ACOH    H111034   5.799   8.807   1.486
  267ACOH    H211035   5.643   8.814   1.569
  267ACOH    H311036   5.649   8.783   1.395
  268ACOH    H411037   5.402   3.520   0.212
  268ACOH    O211038   5.460   3.516   0.132
  268ACOH    C211039   5.412   3.421   0.051
  268ACOH    O111040   5.338   3.330   0.084
  268ACOH    C111041   5.476   3.426   4.699
  268ACOH    H111042   5.400   3.426   4.621
  268ACOH    H211043   5.541   3.339   4.686
  268ACOH    H311044   5.536   3.516   4.689
  269ACOH    H411045   7.796   8.296   2.202
  269ACOH    O211046   7.820   8.324   2.109
  269ACOH    C211047   7.747   8.434   2.080
  269ACOH    O111048   7.679   8.499   2.156
  269ACOH    C111049   7.768   8.475   1.939
  269ACOH    H111050   7.823   8.569   1.936
  269ACOH    H211051   7.672   8.490   1.891
  269ACOH    H311052   7.824   8.400   1.884
  270ACOH    H411053   4.774   7.494   1.051
  270ACOH    O211054   4.780   7.463   1.146
  270ACOH    C211055   4.653   7.443   1.185
  270ACOH    O111056   4.553   7.488   1.132
  270ACOH    C111057   4.647   7.379   1.318
  270ACOH    H111058   4.621   7.454   1.393
  270ACOH    H211059   4.742   7.334   1.344
  270ACOH    H311060   4.570   7.302   1.318
  271ACOH    H411061   5.386   2.249   0.730
  271ACOH    O211062   5.470   2.299   0.709
  271ACOH    C211063   5.562   2.263   0.801
  271ACOH    O111064   5.548   2.180   0.889
  271ACOH    C111065   5.688   2.339   0.784
  271ACOH    H111066   5.771   2.270   0.775
  271ACOH    H211067   5.704   2.402   0.871
  271ACOH    H311068   5.685   2.402   0.695
  272ACOH    H411069   3.948   5.491   1.570
  272ACOH    O211070   3.885   5.459   1.499
  272ACOH    C211071   3.759   5.490   1.535
  272ACOH    O111072   3.664   5.427   1.493
  272ACOH    C111073   3.745   5.585   1.648
  272ACOH    H111074   3.668   5.658   1.625
  272ACOH    H211075   3.838   5.638   1.667
  272ACOH    H311076   3.715   5.531   1.738
  273ACOH    H411077   7.486   0.647   0.208
  273ACOH    O211078   7.572   0.679   0.248
  273ACOH    C211079   7.598   0.797   0.187
  273ACOH    O111080   7.546   0.838   0.086
  273ACOH    C111081   7.714   0.864   0.249
  273ACOH    H111082   7.740   0.819   0.344
  273ACOH    H211083   7.692   0.969   0.264
  273ACOH    H311084   7.799   0.856   0.181
  274ACOH    H411085   4.001   6.966   0.410
  274ACOH    O211086   4.064   6.914   0.468
  274ACOH    C211087   4.133   7.003   0.541
  274ACOH    O111088   4.110   7.122   0.552
  274ACOH    C111089   4.244   6.936   0.613
  274ACOH    H111090   4.203   6.862   0.681
  274ACOH    H211091   4.303   7.007   0.669
  274ACOH    H311092   4.308   6.885   0.541
  275ACOH    H411093   7.864   5.961   1.905
  275ACOH    O211094   7.815   5.877   1.884
  275ACOH    C211095   7.704   5.879   1.961
  275ACOH    O111096   7.666   5.968   2.033
  275ACOH    C111097   7.627   5.753   1.942
  275ACOH    H111098   7.602   5.741   1.837
  275ACOH    H211099   7.534   5.757   1.999
  275ACOH    H311100   7.686   5.669   1.975
  276ACOH    H411101   1.577   6.112   2.775
  276ACOH    O211102   1.523   6.144   2.853
  276ACOH    C211103   1.595   6.242   2.912
  276ACOH    O111104   1.676   6.313   2.856
  276ACOH    C111105   1.540   6.275   3.046
  276ACOH    H111106   1.478   6.194   3.083
  276ACOH    H211107   1.480   6.365   3.040
  276ACOH    H311108   1.622   6.292   3.116
  277ACOH    H411109   6.719   0.917   3.291
  277ACOH    O211110   6.787   0.980   3.330
  277ACOH    C211111   6.787   0.961   3.463
  277ACOH    O111112   6.706   0.897   3.528
  277ACOH    C111113   6.894   1.042   3.526
  277ACOH    H111114   6.886   1.145   3.492
  277ACOH    H211115   6.991   1.002   3.495
  277ACOH    H311116   6.887   1.038   3.634
  278ACOH    H411117   6.809   1.611   2.690
  278ACOH    O211118   6.869   1.675   2.643
  278ACOH    C211119   6.970   1.604   2.588
  278ACOH    O111120   6.974   1.483   2.570
  278ACOH    C111121   7.074   1.694   2.533
  278ACOH    H111122   7.171   1.665   2.571
  278ACOH    H211123   7.054   1.797   2.564
  278ACOH    H311124   7.074   1.689   2.425
  279ACOH    H411125   3.985   4.860   3.382
  279ACOH    O211126   4.036   4.879   3.466
  279ACOH    C211127   4.034   4.767   3.540
  279ACOH    O111128   3.963   4.669   3.524
  279ACOH    C111129   4.118   4.781   3.662
  279ACOH    H111130   4.054   4.779   3.750
  279ACOH    H211131   4.172   4.875   3.660
  279ACOH    H311132   4.189   4.699   3.667
  280ACOH    H411133   5.260   7.918   0.617
  280ACOH    O211134   5.347   7.904   0.665
  280ACOH    C211135   5.324   7.813   0.762
  280ACOH    O111136   5.220   7.753   0.784
  280ACOH    C111137   5.446   7.790   0.843
  280ACOH    H111138   5.530   7.847   0.803
  280ACOH    H211139   5.471   7.685   0.842
  280ACOH    H311140   5.427   7.821   0.945
  281ACOH    H411141   6.829   4.723   0.075
  281ACOH    O211142   6.818   4.636   0.117
  281ACOH    C211143   6.940   4.598   0.160
  281ACOH    O111144   7.042   4.662   0.147
  281ACOH    C111145   6.935   4.465   0.224
  281ACOH    H111146   6.877   4.471   0.316
  281ACOH    H211147   7.035   4.429   0.246
  281ACOH    H311148   6.886   4.395   0.157
  282ACOH    H411149   8.029   1.562   1.549
  282ACOH    O211150   7.963   1.494   1.581
  282ACOH    C211151   8.035   1.396   1.640
  282ACOH    O111152   8.154   1.398   1.664
  282ACOH    C111153   7.946   1.286   1.684
  282ACOH    H111154   7.871   1.324   1.753
  282ACOH    H211155   8.004   1.208   1.733
  282ACOH    H311156   7.897   1.243   1.597
  283ACOH    H411157   3.556   3.946   2.478
  283ACOH    O211158   3.463   3.937   2.445
  283ACOH    C211159   3.394   3.869   2.539
  283ACOH    O111160   3.440   3.819   2.640
  283ACOH    C111161   3.252   3.856   2.499
  283ACOH    H111162   3.195   3.802   2.575
  283ACOH    H211163   3.245   3.803   2.405
  283ACOH    H311164   3.209   3.955   2.487
  284ACOH    H411165   0.389   1.237   2.128
  284ACOH    O211166   0.331   1.315   2.107
  284ACOH    C211167   0.305   1.378   2.223
  284ACOH    O111168   0.346   1.344   2.333
  284ACOH    C111169   0.221   1.498   2.204
  284ACOH    H111170   0.278   1.586   2.232
  284ACOH    H211171   0.133   1.491   2.267
  284ACOH    H311172   0.190   1.508   2.101
  285ACOH    H411173   2.711   6.653   0.344
  285ACOH    O211174   2.785   6.688   0.286
  285ACOH    C211175   2.803   6.817   0.320
  285ACOH    O111176   2.738   6.882   0.400
  285ACOH    C111177   2.914   6.877   0.242
  285ACOH    H111178   2.891   6.871   0.136
  285ACOH    H211179   3.006   6.822   0.262
  285ACOH    H311180   2.928   6.981   0.270
  286ACOH    H411181   7.796   8.777   0.251
  286ACOH    O211182   7.780   8.697   0.307
  286ACOH    C211183   7.646   8.684   0.317
  286ACOH    O111184   7.564   8.770   0.294
  286ACOH    C111185   7.610   8.551   0.372
  286ACOH    H111186   7.503   8.543   0.385
  286ACOH    H211187   7.659   8.536   0.467
  286ACOH    H311188   7.643   8.473   0.303
  287ACOH    H411189   4.832   1.779   3.147
  287ACOH    O211190   4.922   1.815   3.124
  287ACOH    C211191   4.929   1.938   3.179
  287ACOH    O111192   4.847   1.990   3.253
  287ACOH    C111193   5.055   2.006   3.140
  287ACOH    H111194   5.060   2.013   3.032
  287ACOH    H211195   5.140   1.949   3.176
  287ACOH    H311196   5.059   2.106   3.182
  288ACOH    H411197   7.051   6.490   3.405
  288ACOH    O211198   6.957   6.457   3.395
  288ACOH    C211199   6.964   6.340   3.328
  288ACOH    O111200   7.057   6.301   3.261
  288ACOH    C111201   6.829   6.278   3.320
  288ACOH    H111202   6.787   6.295   3.222
  288ACOH    H211203   6.763   6.319   3.396
  288ACOH    H311204   6.839   6.170   3.336
  289ACOH    H411205   4.502   0.036   1.107
  289ACOH    O211206   4.564   0.060   1.033
  289ACOH    C211207   4.650   9.957   1.021
  289ACOH    O111208   4.686   9.883   1.111
  289ACOH    C111209   4.729   9.968   0.896
  289ACOH    H111210   4.678   0.032   0.825
  289ACOH    H211211   4.741   9.869   0.852
  289ACOH    H311212   4.827   0.009   0.918
  290ACOH    H411213   7.498   0.791   3.943
  290ACOH    O211214   7.501   0.858   3.869
  290ACOH    C211215   7.389   0.841   3.797
  290ACOH    O111216   7.310   0.749   3.806
  290ACOH    C111217   7.377   0.946   3.693
  290ACOH    H111218   7.375   1.044   3.740
  290ACOH    H211219   7.287   0.933   3.635
  290ACOH    H311220   7.463   0.941   3.626
  291ACOH    H411221   2.135   2.224   3.652
  291ACOH    O211222   2.047   2.260   3.679
  291ACOH    C211223   1.954   2.185   3.617
  291ACOH    O111224   1.973   2.095   3.538
  291ACOH    C111225   1.817   2.229   3.655
  291ACOH    H111226   1.803   2.333   3.625
  291ACOH    H211227   1.805   2.222   3.762
  291ACOH    H311228   1.742   2.168   3.606
  292ACOH    H411229   5.153   3.537   3.132
  292ACOH    O211230   5.136   3.605   3.202
  292ACOH    C211231   5.003   3.623   3.207
  292ACOH    O111232   4.919   3.572   3.135
  292ACOH    C111233   4.969   3.723   3.311
  292ACOH    H111234   4.864   3.747   3.308
  292ACOH    H211235   5.027   3.814   3.294
  292ACOH    H311236   4.994   3.684   3.409
  293ACOH    H411237   7.422   2.922   0.604
  293ACOH    O211238   7.349   2.880   0.656
  293ACOH    C211239   7.246   2.866   0.570
  293ACOH    O111240   7.243   2.901   0.454
  293ACOH    C111241   7.130   2.803   0.637
  293ACOH    H111242   7.047   2.873   0.637
  293ACOH    H211243   7.154   2.776   0.740
  293ACOH    H311244   7.101   2.714   0.583
  294ACOH    H411245   0.467   7.781   4.702
  294ACOH    O211246   0.525   7.784   0.002
  294ACOH    C211247   0.577   7.661   0.017
  294ACOH    O111248   0.587   7.575   4.713
  294ACOH    C111249   0.635   7.644   0.153
  294ACOH    H111250   0.702   7.726   0.173
  294ACOH    H211251   0.690   7.551   0.160
  294ACOH    H311252   0.555   7.644   0.227
  295ACOH    H411253   5.735   7.572   1.592
  295ACOH    O211254   5.774   7.602   1.505
  295ACOH    C211255   5.774   7.736   1.505
  295ACOH    O111256   5.744   7.812   1.595
  295ACOH    C111257   5.819   7.785   1.372
  295ACOH    H111258   5.759   7.740   1.295
  295ACOH    H211259   5.923   7.758   1.357
  295ACOH    H311260   5.809   7.893   1.366
  296ACOH    H411261   4.887   7.574   3.690
  296ACOH    O211262   4.806   7.626   3.710
  296ACOH    C211263   4.845   7.753   3.728
  296ACOH    O111264   4.955   7.790   3.767
  296ACOH    C111265   4.731   7.846   3.712
  296ACOH    H111266   4.648   7.813   3.775
  296ACOH    H211267   4.699   7.845   3.609
  296ACOH    H311268   4.759   7.948   3.739
  297ACOH    H411269   4.818   8.917   0.433
  297ACOH    O211270   4.826   9.008   0.395
  297ACOH    C211271   4.725   9.025   0.308
  297ACOH    O111272   4.636   8.946   0.283
  297ACOH    C111273   4.729   9.161   0.247
  297ACOH    H111274   4.640   9.216   0.276
  297ACOH    H211275   4.732   9.152   0.139
  297ACOH    H311276   4.817   9.215   0.280
  298ACOH    H411277   6.176   7.195   3.384
  298ACOH    O211278   6.202   7.145   3.466
  298ACOH    C211279   6.092   7.131   3.542
  298ACOH    O111280   5.977   7.155   3.510
  298ACOH    C111281   6.128   7.069   3.672
  298ACOH    H111282   6.040   7.053   3.733
  298ACOH    H211283   6.197   7.134   3.725
  298ACOH    H311284   6.177   6.974   3.653
  299ACOH    H411285   5.620   2.773   0.585
  299ACOH    O211286   5.551   2.717   0.542
  299ACOH    C211287   5.617   2.609   0.495
  299ACOH    O111288   5.737   2.601   0.477
  299ACOH    C111289   5.524   2.506   0.443
  299ACOH    H111290   5.554   2.408   0.479
  299ACOH    H211291   5.524   2.507   0.335
  299ACOH    H311292   5.422   2.525   0.478
  300ACOH    H411293   3.855   5.689   2.215
  300ACOH    O211294   3.925   5.749   2.175
  300ACOH    C211295   3.948   5.708   2.049
  300ACOH    O111296   3.914   5.603   2.000
  300ACOH    C111297   4.043   5.800   1.981
  300ACOH    H111298   4.005   5.826   1.883
  300ACOH    H211299   4.140   5.751   1.970
  300ACOH    H311300   4.057   5.891   2.039
  301ACOH    H411301   7.915   6.254   0.115
  301ACOH    O211302   7.912   6.254   0.015
  301ACOH    C211303   8.040   6.258   4.755
  301ACOH    O111304   8.139   6.236   0.041
  301ACOH    C111305   8.050   6.279   4.609
  301ACOH    H111306   8.087   6.188   4.562
  301ACOH    H211307   8.121   6.359   4.589
  301ACOH    H311308   7.954   6.305   4.567
  302ACOH    H411309   1.785   6.665   2.652
  302ACOH    O211310   1.686   6.665   2.670
  302ACOH    C211311   1.671   6.651   2.804
  302ACOH    O111312   1.759   6.641   2.886
  302ACOH    C111313   1.528   6.649   2.843
  302ACOH    H111314   1.463   6.666   2.757
  302ACOH    H211315   1.509   6.727   2.916
  302ACOH    H311316   1.503   6.553   2.886
  303ACOH    H411317   6.582   8.331   3.455
  303ACOH    O211318   6.539   8.395   3.519
  303ACOH    C211319   6.636   8.475   3.568
  303ACOH    O111320   6.755   8.470   3.542
  303ACOH    C111321   6.578   8.574   3.661
  303ACOH    H111322   6.529   8.522   3.744
  303ACOH    H211323   6.503   8.633   3.609
  303ACOH    H311324   6.654   8.640   3.701
  304ACOH    H411325   5.651   9.408   1.247
  304ACOH    O211326   5.709   9.331   1.221
  304ACOH    C211327   5.632   9.221   1.228
  304ACOH    O111328   5.515   9.214   1.260
  304ACOH    C111329   5.710   9.100   1.191
  304ACOH    H111330   5.751   9.113   1.091
  304ACOH    H211331   5.647   9.011   1.193
  304ACOH    H311332   5.792   9.087   1.262
  305ACOH    H411333   6.125   0.998   3.128
  305ACOH    O211334   6.171   0.953   3.205
  305ACOH    C211335   6.261   1.041   3.252
  305ACOH    O111336   6.285   1.152   3.208
  305ACOH    C111337   6.332   0.984   3.369
  305ACOH    H111338   6.259   0.957   3.446
  305ACOH    H211339   6.401   1.057   3.411
  305ACOH    H311340   6.387   0.896   3.339
  306ACOH    H411341   4.688   3.073   4.689
  306ACOH    O211342   4.777   3.037   4.702
  306ACOH    C211343   4.826   3.091   0.034
  306ACOH    O111344   4.764   3.164   0.109
  306ACOH    C111345   4.963   3.044   0.063
  306ACOH    H111346   5.001   2.982   4.763
  306ACOH    H211347   4.963   2.985   0.155
  306ACOH    H311348   5.029   3.129   0.076
  307ACOH    H411349   6.825   0.185   1.213
  307ACOH    O211350   6.767   0.239   1.154
  307ACOH    C211351   6.683   0.155   1.092
  307ACOH    O111352   6.677   0.034   1.105
  307ACOH    C111353   6.591   0.228   1.001
  307ACOH    H111354   6.616   0.334   0.999
  307ACOH    H211355   6.489   0.216   1.035
  307ACOH    H311356   6.600   0.188   0.900
  308ACOH    H411357   3.951   5.045   2.133
  308ACOH    O211358   3.986   4.953   2.119
  308ACOH    C211359   4.046   4.953   1.998
  308ACOH    O111360   4.057   5.048   1.923
  308ACOH    C111361   4.099   4.820   1.961
  308ACOH    H111362   4.045   4.782   1.875
  308ACOH    H211363   4.090   4.750   2.044
  308ACOH    H311364   4.204   4.829   1.935
  309ACOH    H411365   5.087   4.710   1.140
  309ACOH    O211366   5.123   4.647   1.070
  309ACOH    C211367   5.029   4.643   0.974
  309ACOH    O111368   4.910   4.659   0.991
  309ACOH    C111369   5.082   4.583   0.849
  309ACOH    H111370   5.049   4.480   0.841
  309ACOH    H211371   5.191   4.584   0.848
  309ACOH    H311372   5.046   4.638   0.763
  310ACOH    H411373   5.795   3.052   0.810
  310ACOH    O211374   5.864   2.983   0.829
  310ACOH    C211375   5.831   2.874   0.756
  310ACOH    O111376   5.728   2.859   0.693
  310ACOH    C111377   5.930   2.766   0.775
  310ACOH    H111378   6.028   2.799   0.741
  310ACOH    H211379   5.901   2.677   0.719
  310ACOH    H311380   5.936   2.741   0.880
  311ACOH    H411381   5.171   3.155   1.666
  311ACOH    O211382   5.260   3.112   1.673
  311ACOH    C211383   5.258   3.028   1.778
  311ACOH    O111384   5.171   3.019   1.863
  311ACOH    C111385   5.385   2.952   1.788
  311ACOH    H111386   5.447   2.969   1.701
  311ACOH    H211387   5.364   2.846   1.796
  311ACOH    H311388   5.440   2.984   1.877
  312ACOH    H411389   5.089   6.138   2.128
  312ACOH    O211390   5.020   6.075   2.161
  312ACOH    C211391   5.007   6.094   2.293
  312ACOH    O111392   5.070   6.173   2.362
  312ACOH    C111393   4.907   6.001   2.350
  312ACOH    H111394   4.829   6.059   2.399
  312ACOH    H211395   4.955   5.937   2.423
  312ACOH    H311396   4.863   5.940   2.272
  313ACOH    H411397   5.302   4.214   0.540
  313ACOH    O211398   5.390   4.200   0.584
  313ACOH    C211399   5.475   4.155   0.491
  313ACOH    O111400   5.453   4.141   0.372
  313ACOH    C111401   5.607   4.125   0.551
  313ACOH    H111402   5.595   4.047   0.626
  313ACOH    H211403   5.647   4.215   0.599
  313ACOH    H311404   5.678   4.091   0.476
  314ACOH    H411405   5.218   5.340   1.317
  314ACOH    O211406   5.252   5.402   1.387
  314ACOH    C211407   5.357   5.343   1.446
  314ACOH    O111408   5.416   5.242   1.412
  314ACOH    C111409   5.402   5.424   1.562
  314ACOH    H111410   5.318   5.440   1.629
  314ACOH    H211411   5.439   5.520   1.527
  314ACOH    H311412   5.481   5.373   1.617
  315SOL     OW11413   9.210   9.075   2.846
  315SOL    HW111414   9.308   9.073   2.867
  315SOL    HW211415   9.161   9.119   2.921
  316SOL     OW11416   3.031   0.426   0.508
  316SOL    HW111417   2.944   0.454   0.467
  316SOL    HW211418   3.040   0.466   0.599
  317SOL     OW11419   4.599   8.646   0.238
  317SOL    HW111420   4.601   8.746   0.237
  317SOL    HW211421   4.522   8.615   0.293
  318SOL     OW11422   4.085   1.020   0.638
  318SOL    HW111423   4.103   0.957   0.713
  318SOL    HW211424   4.161   1.017   0.573
  319SOL     OW11425   7.669   6.222   2.420
  319SOL    HW111426   7.662   6.146   2.484
  319SOL    HW211427   7.765   6.244   2.404
  320SOL     OW11428   7.647   9.210   2.636
  320SOL    HW111429   7.590   9.284   2.672
  320SOL    HW211430   7.738   9.246   2.615
  321SOL     OW11431   3.713   1.175   2.742
  321SOL    HW111432   3.739   1.087   2.781
  321SOL    HW211433   3.737   1.248   2.806
  322SOL     OW11434   1.998   1.783   2.584
  322SOL    HW111435   1.934   1.801   2.510
  322SOL    HW211436   1.958   1.717   2.647
  323SOL     OW11437   8.895   6.497   3.417
  323SOL    HW111438   8.893   6.549   3.332
  323SOL    HW211439   8.828   6.423   3.412
  324SOL     OW11440   2.928   3.531   3.514
  324SOL    HW111441   2.904   3.528   3.417
  324SOL    HW211442   2.970   3.444   3.540
  325SOL     OW11443   4.824   7.401   3.166
  325SOL    HW111444   4.740   7.347   3.177
  325SOL    HW211445   4.882   7.359   3.096
  326SOL     OW11446   1.680   3.636   1.323
  326SOL    HW111447   1.663   3.593   1.235
  326SOL    HW211448   1.733   3.720   1.310
  327SOL     OW11449   9.584   8.388   1.708
  327SOL    HW111450   9.618   8.398   1.801
  327SOL    HW211451   9.496   8.341   1.709
  328SOL     OW11452   2.002   0.428   1.643
  328SOL    HW111453   1.976   0.524   1.630
  328SOL    HW211454   2.019   0.386   1.553
  329SOL     OW11455   1.628   6.296   3.402
  329SOL    HW111456   1.533   6.265   3.397
  329SOL    HW211457   1.689   6.219   3.383
  330SOL     OW11458   8.913   1.750   3.585
  330SOL    HW111459   8.859   1.699   3.652
  330SOL    HW211460   8.903   1.848   3.603
  331SOL     OW11461   1.470   8.132   0.804
  331SOL    HW111462   1.513   8.044   0.826
  331SOL    HW211463   1.388   8.144   0.859
  332SOL     OW11464   1.946   9.757   2.001
  332SOL    HW111465   1.929   9.819   1.924
  332SOL    HW211466   1.898   9.671   1.985
  333SOL     OW11467   3.492   5.121   0.906
  333SOL    HW111468   3.477   5.025   0.883
  333SOL    HW211469   3.540   5.167   0.831
  334SOL     OW11470   2.189   7.337   0.218
  334SOL    HW111471   2.097   7.356   0.254
  334SOL    HW211472   2.251   7.321   0.295
  335SOL     OW11473   8.832   7.476   2.855
  335SOL    HW111474   8.810   7.574   2.848
  335SOL    HW211475   8.930   7.466   2.875
  336SOL     OW11476   5.840   7.598   1.925
  336SOL    HW111477   5.774   7.631   1.993
  336SOL    HW211478   5.889   7.676   1.886
  337SOL     OW11479   7.548   2.991   0.526
  337SOL    HW111480   7.549   3.071   0.587
  337SOL    HW211481   7.560   3.022   0.431
  338SOL     OW11482   2.911   1.850   2.915
  338SOL    HW111483   2.827   1.824   2.962
  338SOL    HW211484   2.953   1.769   2.873
  339SOL     OW11485   4.655   8.364   3.101
  339SOL    HW111486   4.598   8.395   3.177
  339SOL    HW211487   4.718   8.437   3.075
  340SOL     OW11488   1.877   5.906   0.236
  340SOL    HW111489   1.916   5.875   0.323
  340SOL    HW211490   1.800   5.848   0.212
  341SOL     OW11491   8.912   8.516   0.310
  341SOL    HW111492   8.988   8.461   0.275
  341SOL    HW211493   8.946   8.604   0.342
  342SOL     OW11494   7.028   9.643   1.899
  342SOL    HW111495   7.000   9.656   1.804
  342SOL    HW211496   7.005   9.725   1.952
  343SOL     OW11497   7.488   0.981   3.154
  343SOL    HW111498   7.518   0.901   3.103
  343SOL    HW211499   7.564   1.018   3.207
  344SOL     OW11500   2.320   4.752   2.149
  344SOL    HW111501   2.337   4.654   2.138
  344SOL    HW211502   2.402   4.804   2.125
  345SOL     OW11503   0.965   5.678   0.525
  345SOL    HW111504   0.990   5.594   0.478
  345SOL    HW211505   0.892   5.724   0.475
  346SOL     OW11506   7.644   2.741   1.897
  346SOL    HW111507   7.550   2.737   1.933
  346SOL    HW211508   7.651   2.683   1.816
  347SOL     OW11509   8.314   2.854   2.926
  347SOL    HW111510   8.296   2.890   3.017
  347SOL    HW211511   8.408   2.872   2.900
  348SOL     OW11512   5.039   0.218   3.434
  348SOL    HW111513   5.034   0.234   3.335
  348SOL    HW211514   4.946   0.207   3.470
  349SOL     OW11515   1.621   7.627   2.600
  349SOL    HW111516   1.642   7.572   2.519
  349SOL    HW211517   1.569   7.708   2.572
  350SOL     OW11518   0.089   7.141   1.171
  350SOL    HW111519   0.046   7.106   1.088
  350SOL    HW211520   0.023   7.137   1.247
  351SOL     OW11521   7.775   5.765   0.379
  351SOL    HW111522   7.675   5.768   0.377
  351SOL    HW211523   7.811   5.841   0.326
  352SOL     OW11524   1.611   2.882   2.646
  352SOL    HW111525   1.609   2.786   2.676
  352SOL    HW211526   1.562   2.891   2.559
  353SOL     OW11527   3.009   1.589   1.616
  353SOL    HW111528   3.012   1.499   1.572
  353SOL    HW211529   3.031   1.660   1.549
  354SOL     OW11530   7.602   7.859   2.061
  354SOL    HW111531   7.531   7.840   1.993
  354SOL    HW211532   7.570   7.931   2.123
  355SOL     OW11533   2.062   7.639   1.444
  355SOL    HW111534   2.010   7.724   1.444
  355SOL    HW211535   2.028   7.578   1.516
  356SOL     OW11536   7.921   9.639   0.622
  356SOL    HW111537   7.851   9.630   0.693
  356SOL    HW211538   8.010   9.609   0.658
  357SOL     OW11539   0.188   6.070   0.682
  357SOL    HW111540   0.120   6.035   0.618
  357SOL    HW211541   0.154   6.153   0.726
  358SOL     OW11542   9.591   8.792   2.477
  358SOL    HW111543   9.661   8.803   2.547
  358SOL    HW211544   9.610   8.853   2.401
  359SOL     OW11545   2.537   1.878   2.732
  359SOL    HW111546   2.497   1.788   2.718
  359SOL    HW211547   2.592   1.903   2.651
  360SOL     OW11548   1.509   1.462   3.701
  360SOL    HW111549   1.491   1.382   3.643
  360SOL    HW211550   1.562   1.433   3.781
  361SOL     OW11551   0.592   6.121   2.397
  361SOL    HW111552   0.687   6.110   2.427
  361SOL    HW211553   0.573   6.058   2.321
  362SOL     OW11554   3.813   6.360   2.185
  362SOL    HW111555   3.903   6.394   2.210
  362SOL    HW211556   3.820   6.298   2.107
  363SOL     OW11557   3.181   7.156   0.937
  363SOL    HW111558   3.187   7.138   1.035
  363SOL    HW211559   3.104   7.217   0.919
  364SOL     OW11560   4.564   1.993   3.199
  364SOL    HW111561   4.654   2.011   3.238
  364SOL    HW211562   4.496   2.053   3.241
  365SOL     OW11563   7.513   7.508   1.893
  365SOL    HW111564   7.585   7.506   1.824
  365SOL    HW211565   7.482   7.415   1.911
  366SOL     OW11566   7.213   0.913   2.535
  366SOL    HW111567   7.128   0.862   2.550
  366SOL    HW211568   7.198   0.979   2.461
  367SOL     OW11569   9.848   0.791   1.891
  367SOL    HW111570   9.887   0.878   1.859
  367SOL    HW211571   9.860   0.721   1.821
  368SOL     OW11572   2.194   7.373   2.401
  368SOL    HW111573   2.189   7.465   2.361
  368SOL    HW211574   2.142   7.309   2.345
  369SOL     OW11575   8.231   0.046   3.076
  369SOL    HW111576   8.302   0.045   3.147
  369SOL    HW211577   8.183   0.133   3.078
  370SOL     OW11578   3.053   6.781   2.937
  370SOL    HW111579   2.987   6.852   2.961
  370SOL    HW211580   3.105   6.810   2.857
  371SOL     OW11581   9.454   2.933   0.116
  371SOL    HW111582   9.472   2.922   0.018
  371SOL    HW211583   9.375   2.992   0.130
  372SOL     OW11584   0.673   1.019   1.984
  372SOL    HW111585   0.746   0.987   2.045
  372SOL    HW211586   0.597   1.054   2.038
  373SOL     OW11587   1.948   7.086   1.028
  373SOL    HW111588   1.877   7.076   1.097
  373SOL    HW211589   2.023   7.141   1.064
  374SOL     OW11590   2.693   9.617   3.628
  374SOL    HW111591   2.792   9.611   3.641
  374SOL    HW211592   2.650   9.532   3.659
  375SOL     OW11593   0.691   0.466   3.607
  375SOL    HW111594   0.764   0.408   3.572
  375SOL    HW211595   0.720   0.510   3.692
  376SOL     OW11596   9.894   1.897   1.189
  376SOL    HW111597   9.951   1.833   1.240
  376SOL    HW211598   9.893   1.985   1.235
  377SOL     OW11599   5.418   0.928   2.663
  377SOL    HW111600   5.325   0.939   2.629
  377SOL    HW211601   5.466   0.859   2.609
  378SOL     OW11602   3.505   1.645   0.392
  378SOL    HW111603   3.536   1.597   0.310
  378SOL    HW211604   3.585   1.675   0.445
  379SOL     OW11605   5.799   7.922   2.158
  379SOL    HW111606   5.760   7.835   2.128
  379SOL    HW211607   5.840   7.968   2.079
  380SOL     OW11608   4.658   2.902   2.361
  380SOL    HW111609   4.663   2.817   2.310
  380SOL    HW211610   4.689   2.978   2.304
  381SOL     OW11611   7.458   8.694   1.066
  381SOL    HW111612   7.515   8.771   1.039
  381SOL    HW211613   7.364   8.711   1.037
  382SOL     OW11614   1.137   0.925   2.242
  382SOL    HW111615   1.203   0.852   2.225
  382SOL    HW211616   1.127   0.939   2.340
  383SOL     OW11617   9.241   0.637   1.862
  383SOL    HW111618   9.176   0.667   1.791
  383SOL    HW211619   9.203   0.658   1.952
  384SOL     OW11620   2.391   8.837   0.839
  384SOL    HW111621   2.307   8.802   0.881
  384SOL    HW211622   2.378   8.932   0.813
  385SOL     OW11623   9.641   8.847   1.107
  385SOL    HW111624   9.739   8.866   1.109
  385SOL    HW211625   9.614   8.797   1.189
  386SOL     OW11626   0.409   8.768   1.155
  386SOL    HW111627   0.317   8.786   1.120
  386SOL    HW211628   0.472   8.838   1.121
  387SOL     OW11629   1.557   2.732   1.713
  387SOL    HW111630   1.470   2.780   1.721
  387SOL    HW211631   1.603   2.761   1.630
  388SOL     OW11632   3.439   4.389   0.690
  388SOL    HW111633   3.455   4.309   0.748
  388SOL    HW211634   3.526   4.421   0.654
  389SOL     OW11635   4.867   8.464   1.487
  389SOL    HW111636   4.803   8.454   1.563
  389SOL    HW211637   4.953   8.502   1.520
  390SOL     OW11638   0.184   8.654   2.732
  390SOL    HW111639   0.189   8.554   2.729
  390SOL    HW211640   0.156   8.689   2.643
  391SOL     OW11641   4.521   2.971   2.842
  391SOL    HW111642   4.544   3.066   2.859
  391SOL    HW211643   4.573   2.937   2.764
  392SOL     OW11644   9.174   4.831   2.031
  392SOL    HW111645   9.107   4.758   2.015
  392SOL    HW211646   9.214   4.859   1.944
  393SOL     OW11647   1.305   5.430   1.223
  393SOL    HW111648   1.348   5.408   1.136
  393SOL    HW211649   1.229   5.366   1.239
  394SOL     OW11650   0.592   0.832   3.305
  394SOL    HW111651   0.658   0.883   3.361
  394SOL    HW211652   0.595   0.735   3.331
  395SOL     OW11653   2.307   2.757   2.039
  395SOL    HW111654   2.243   2.823   2.078
  395SOL    HW211655   2.262   2.668   2.031
  396SOL     OW11656   4.381   9.153   2.820
  396SOL    HW111657   4.479   9.144   2.804
  396SOL    HW211658   4.364   9.232   2.879
  397SOL     OW11659   8.407   0.669   1.335
  397SOL    HW111660   8.444   0.746   1.386
  397SOL    HW211661   8.465   0.589   1.349
  398SOL     OW11662   4.627   1.774   2.888
  398SOL    HW111663   4.650   1.751   2.982
  398SOL    HW211664   4.694   1.732   2.826
  399SOL     OW11665   7.969   5.759   2.631
  399SOL    HW111666   7.945   5.792   2.722
  399SOL    HW211667   7.890   5.768   2.570
  400SOL     OW11668   8.759   4.686   2.080
  400SOL    HW111669   8.846   4.656   2.041
  400SOL    HW211670   8.772   4.774   2.125
  401SOL     OW11671   4.781   9.929   1.894
  401SOL    HW111672   4.814   9.873   1.970
  401SOL    HW211673   4.746   0.015   1.929
  402SOL     OW11674   7.270   8.924   2.759
  402SOL    HW111675   7.331   8.968   2.694
  402SOL    HW211676   7.324   8.889   2.836
  403SOL     OW11677   0.660   0.870   2.345
  403SOL    HW111678   0.647   0.915   2.433
  403SOL    HW211679   0.733   0.916   2.294
  404SOL     OW11680   8.999   2.300   3.090
  404SOL    HW111681   9.012   2.309   2.991
  404SOL    HW211682   9.085   2.315   3.137
  405SOL     OW11683   4.497   0.759   2.650
  405SOL    HW111684   4.455   0.850   2.654
  405SOL    HW211685   4.425   0.689   2.658
  406SOL     OW11686   8.795   2.700   1.799
  406SOL    HW111687   8.782   2.798   1.817
  406SOL    HW211688   8.879   2.670   1.843
  407SOL     OW11689   3.802   4.565   2.824
  407SOL    HW111690   3.807   4.551   2.923
  407SOL    HW211691   3.868   4.634   2.796
  408SOL     OW11692   2.823   5.514   2.143
  408SOL    HW111693   2.920   5.493   2.133
  408SOL    HW211694   2.779   5.512   2.053
  409SOL     OW11695   3.978   1.280   0.636
  409SOL    HW111696   3.879   1.275   0.626
  409SOL    HW211697   4.014   1.188   0.651
  410SOL     OW11698   3.859   0.476   2.439
  410SOL    HW111699   3.884   0.385   2.473
  410SOL    HW211700   3.879   0.482   2.342
  411SOL     OW11701   1.908   7.298   0.573
  411SOL    HW111702   1.811   7.276   0.571
  411SOL    HW211703   1.932   7.351   0.492
  412SOL     OW11704   5.331   8.873   3.592
  412SOL    HW111705   5.369   8.938   3.658
  412SOL    HW211706   5.242   8.906   3.559
  413SOL     OW11707   4.265   2.218   2.699
  413SOL    HW111708   4.290   2.299   2.752
  413SOL    HW211709   4.172   2.228   2.664
  414SOL     OW11710   6.754   8.017   1.907
  414SOL    HW111711   6.770   7.965   1.990
  414SOL    HW211712   6.841   8.044   1.867
  415SOL     OW11713   8.034   5.294   0.101
  415SOL    HW111714   7.944   5.282   0.142
  415SOL    HW211715   8.050   5.391   0.084
  416SOL     OW11716   8.901   9.798   0.403
  416SOL    HW111717   8.935   9.763   0.490
  416SOL    HW211718   8.804   9.776   0.394
  417SOL     OW11719   4.071   7.214   0.158
  417SOL    HW111720   4.171   7.208   0.148
  417SOL    HW211721   4.043   7.309   0.158
  418SOL     OW11722   2.080   0.782   2.712
  418SOL    HW111723   2.016   0.721   2.758
  418SOL    HW211724   2.162   0.793   2.769
  419SOL     OW11725   8.505   7.838   0.089
  419SOL    HW111726   8.518   7.930   0.128
  419SOL    HW211727   8.486   7.845   4.773
  420SOL     OW11728   4.326   1.152   3.051
  420SOL    HW111729   4.248   1.173   2.991
  420SOL    HW211730   4.403   1.211   3.027
  421SOL     OW11731   8.685   5.081   3.701
  421SOL    HW111732   8.782   5.084   3.726
  421SOL    HW211733   8.651   4.988   3.712
  422SOL     OW11734   0.104   4.830   3.483
  422SOL    HW111735   0.101   4.925   3.451
  422SOL    HW211736   0.199   4.804   3.498
  423SOL     OW11737   2.004   2.128   3.223
  423SOL    HW111738   1.921   2.157   3.271
  423SOL    HW211739   2.084   2.161   3.271
  424SOL     OW11740   0.373   3.049   2.973
  424SOL    HW111741   0.336   2.967   3.017
  424SOL    HW211742   0.302   3.092   2.918
  425SOL     OW11743   7.697   8.364   3.174
  425SOL    HW111744   7.703   8.390   3.271
  425SOL    HW211745   7.639   8.431   3.126
  426SOL     OW11746   6.802   8.353   2.222
  426SOL    HW111747   6.748   8.436   2.211
  426SOL    HW211748   6.861   8.340   2.142
  427SOL     OW11749   0.931   7.308   2.244
  427SOL    HW111750   0.980   7.284   2.161
  427SOL    HW211751   0.995   7.346   2.311
  428SOL     OW11752   2.369   6.022   0.387
  428SOL    HW111753   2.387   6.021   0.288
  428SOL    HW211754   2.455   6.019   0.437
  429SOL     OW11755   3.485   0.245   1.250
  429SOL    HW111756   3.490   0.154   1.290
  429SOL    HW211757   3.396   0.258   1.207
  430SOL     OW11758   9.134   9.190   3.085
  430SOL    HW111759   9.050   9.145   3.115
  430SOL    HW211760   9.194   9.204   3.164
  431SOL     OW11761   4.120   4.547   1.615
  431SOL    HW111762   4.092   4.553   1.711
  431SOL    HW211763   4.068   4.474   1.570
  432SOL     OW11764   1.502   2.955   3.065
  432SOL    HW111765   1.504   3.003   2.978
  432SOL    HW211766   1.453   2.868   3.054
  433SOL     OW11767   9.303   4.124   3.313
  433SOL    HW111768   9.401   4.106   3.327
  433SOL    HW211769   9.253   4.099   3.396
  434SOL     OW11770   0.004   2.527   1.036
  434SOL    HW111771   9.947   2.446   1.049
  434SOL    HW211772   0.058   2.543   1.118
  435SOL     OW11773   9.451   8.116   2.595
  435SOL    HW111774   9.546   8.110   2.565
  435SOL    HW211775   9.397   8.165   2.527
  436SOL     OW11776   3.473   0.997   0.576
  436SOL    HW111777   3.416   0.930   0.625
  436SOL    HW211778   3.531   1.045   0.642
  437SOL     OW11779   4.011   9.303   3.540
  437SOL    HW111780   3.930   9.308   3.481
  437SOL    HW211781   4.037   9.207   3.552
  438SOL     OW11782   1.212   0.143   1.414
  438SOL    HW111783   1.219   0.115   1.318
  438SOL    HW211784   1.184   0.065   1.470
  439SOL     OW11785   0.784   6.584   1.162
  439SOL    HW111786   0.813   6.602   1.068
  439SOL    HW211787   0.861   6.596   1.224
  440SOL     OW11788   2.560   0.217   3.702
  440SOL    HW111789   2.636   0.162   3.666
  440SOL    HW211790   2.473   0.171   3.683
  441SOL     OW11791   1.904   7.535   1.890
  441SOL    HW111792   1.809   7.564   1.879
  441SOL    HW211793   1.952   7.602   1.947
  442SOL     OW11794   4.090   0.300   1.532
  442SOL    HW111795   4.094   0.206   1.568
  442SOL    HW211796   3.996   0.333   1.536
  443SOL     OW11797   3.840   4.216   0.882
  443SOL    HW111798   3.795   4.306   0.884
  443SOL    HW211799   3.926   4.224   0.830
  444SOL     OW11800   3.670   3.015   3.351
  444SOL    HW111801   3.717   2.946   3.407
  444SOL    HW211802   3.592   3.051   3.401
  445SOL     OW11803   3.254   9.661   2.926
  445SOL    HW111804   3.188   9.691   2.858
  445SOL    HW211805   3.315   9.593   2.885
  446SOL     OW11806   4.707   1.197   0.166
  446SOL    HW111807   4.795   1.210   0.121
  446SOL    HW211808   4.635   1.191   0.097
  447SOL     OW11809   8.202   0.587   0.024
  447SOL    HW111810   8.222   0.493   0.050
  447SOL    HW211811   8.245   0.607   4.717
  448SOL     OW11812   4.814   0.417   2.289
  448SOL    HW111813   4.731   0.400   2.236
  448SOL    HW211814   4.894   0.386   2.236
  449SOL     OW11815   2.973   0.010   0.651
  449SOL    HW111816   2.908   0.073   0.694
  449SOL    HW211817   3.039   0.062   0.598
  450SOL     OW11818   7.912   0.616   0.468
  450SOL    HW111819   7.946   0.623   0.374
  450SOL    HW211820   7.921   0.704   0.513
  451SOL     OW11821   8.551   6.202   2.718
  451SOL    HW111822   8.537   6.129   2.652
  451SOL    HW211823   8.576   6.162   2.806
  452SOL     OW11824   9.121   3.277   2.814
  452SOL    HW111825   9.044   3.305   2.756
  452SOL    HW211826   9.091   3.275   2.909
  453SOL     OW11827   6.751   6.647   3.370
  453SOL    HW111828   6.804   6.726   3.338
  453SOL    HW211829   6.813   6.573   3.396
  454SOL     OW11830   5.915   9.069   2.466
  454SOL    HW111831   5.993   9.026   2.512
  454SOL    HW211832   5.913   9.166   2.489
  455SOL     OW11833   6.785   7.537   2.812
  455SOL    HW111834   6.732   7.457   2.784
  455SOL    HW211835   6.726   7.600   2.863
  456SOL     OW11836   1.856   7.027   2.321
  456SOL    HW111837   1.794   6.973   2.264
  456SOL    HW211838   1.818   7.033   2.414
  457SOL     OW11839   4.018   0.876   1.951
  457SOL    HW111840   4.037   0.849   2.045
  457SOL    HW211841   3.995   0.794   1.897
  458SOL     OW11842   4.622   7.876   1.348
  458SOL    HW111843   4.583   7.917   1.431
  458SOL    HW211844   4.695   7.935   1.313
  459SOL     OW11845   0.793   1.165   3.651
  459SOL    HW111846   0.828   1.252   3.686
  459SOL    HW211847   0.693   1.167   3.651
  460SOL     OW11848   3.865   1.458   0.104
  460SOL    HW111849   3.872   1.366   0.142
  460SOL    HW211850   3.907   1.461   0.014
  461SOL     OW11851   5.212   3.198   2.791
  461SOL    HW111852   5.141   3.172   2.857
  461SOL    HW211853   5.199   3.146   2.706
  462SOL     OW11854   4.180   0.915   1.357
  462SOL    HW111855   4.175   0.961   1.446
  462SOL    HW211856   4.105   0.849   1.350
  463SOL     OW11857   9.851   6.342   1.686
  463SOL    HW111858   9.798   6.405   1.630
  463SOL    HW211859   9.929   6.390   1.726
  464SOL     OW11860   2.843   4.261   1.027
  464SOL    HW111861   2.798   4.348   1.008
  464SOL    HW211862   2.927   4.254   0.973
  465SOL     OW11863   4.875   8.087   3.357
  465SOL    HW111864   4.897   7.993   3.383
  465SOL    HW211865   4.808   8.086   3.282
  466SOL     OW11866   2.536   2.464   3.339
  466SOL    HW111867   2.622   2.514   3.345
  466SOL    HW211868   2.485   2.474   3.425
  467SOL     OW11869   8.882   6.961   2.080
  467SOL    HW111870   8.901   6.863   2.080
  467SOL    HW211871   8.783   6.976   2.085
  468SOL     OW11872   8.629   9.199   2.120
  468SOL    HW111873   8.621   9.211   2.219
  468SOL    HW211874   8.658   9.285   2.078
  469SOL     OW11875   5.455   1.021   2.205
  469SOL    HW111876   5.404   0.958   2.263
  469SOL    HW211877   5.427   1.115   2.225
  470SOL     OW11878   1.472   7.668   2.275
  470SOL    HW111879   1.472   7.728   2.355
  470SOL    HW211880   1.380   7.630   2.261
  471SOL     OW11881   2.442   1.209   2.557
  471SOL    HW111882   2.365   1.207   2.493
  471SOL    HW211883   2.486   1.298   2.553
  472SOL     OW11884   4.588   1.663   0.539
  472SOL    HW111885   4.554   1.573   0.567
  472SOL    HW211886   4.533   1.734   0.581
  473SOL     OW11887   9.491   6.077   2.683
  473SOL    HW111888   9.392   6.091   2.693
  473SOL    HW211889   9.529   6.047   2.770
  474SOL     OW11890   1.929   9.365   2.829
  474SOL    HW111891   1.885   9.349   2.740
  474SOL    HW211892   2.027   9.377   2.817
  475SOL     OW11893   3.286   1.822   1.690
  475SOL    HW111894   3.270   1.919   1.710
  475SOL    HW211895   3.229   1.766   1.750
  476SOL     OW11896   4.459   8.583   1.231
  476SOL    HW111897   4.549   8.610   1.266
  476SOL    HW211898   4.391   8.652   1.258
  477SOL     OW11899   4.116   7.886   0.431
  477SOL    HW111900   4.022   7.914   0.410
  477SOL    HW211901   4.139   7.915   0.524
  478SOL     OW11902   9.166   6.037   0.963
  478SOL    HW111903   9.099   5.983   0.911
  478SOL    HW211904   9.252   5.986   0.969
  479SOL     OW11905   0.084   8.269   1.485
  479SOL    HW111906   9.989   8.269   1.516
  479SOL    HW211907   0.142   8.231   1.557
  480SOL     OW11908   2.012   1.629   0.449
  480SOL    HW111909   1.936   1.661   0.393
  480SOL    HW211910   2.098   1.649   0.403
  481SOL     OW11911   2.699   6.680   1.624
  481SOL    HW111912   2.749   6.682   1.710
  481SOL    HW211913   2.665   6.588   1.607
  482SOL     OW11914   9.032   4.706   2.338
  482SOL    HW111915   8.977   4.628   2.308
  482SOL    HW211916   8.998   4.738   2.427
  483SOL     OW11917   1.083   4.602   3.448
  483SOL    HW111918   1.063   4.688   3.401
  483SOL    HW211919   1.179   4.601   3.477
  484SOL     OW11920   9.931   2.885   3.403
  484SOL    HW111921   9.884   2.920   3.485
  484SOL    HW211922   9.976   2.960   3.356
  485SOL     OW11923   8.291   9.717   2.324
  485SOL    HW111924   8.213   9.664   2.290
  485SOL    HW211925   8.349   9.658   2.380
  486SOL     OW11926   8.217   2.861   1.780
  486SOL    HW111927   8.315   2.849   1.798
  486SOL    HW211928   8.175   2.910   1.856
  487SOL     OW11929   8.271   1.744   2.259
  487SOL    HW111930   8.204   1.780   2.194
  487SOL    HW211931   8.320   1.820   2.301
  488SOL     OW11932   2.279   3.143   0.676
  488SOL    HW111933   2.262   3.239   0.655
  488SOL    HW211934   2.377   3.126   0.677
  489SOL     OW11935   4.393   4.488   1.961
  489SOL    HW111936   4.466   4.440   2.008
  489SOL    HW211937   4.307   4.475   2.011
  490SOL     OW11938   3.914   3.589   0.923
  490SOL    HW111939   3.908   3.517   0.992
  490SOL    HW211940   3.938   3.675   0.967
  491SOL     OW11941   2.793   0.793   0.334
  491SOL    HW111942   2.883   0.830   0.357
  491SOL    HW211943   2.787   0.698   0.366
  492SOL     OW11944   0.137   4.048   1.330
  492SOL    HW111945   0.160   3.952   1.344
  492SOL    HW211946   0.052   4.054   1.278
  493SOL     OW11947   1.520   0.856   1.130
  493SOL    HW111948   1.506   0.885   1.035
  493SOL    HW211949   1.473   0.920   1.191
  494SOL     OW11950   1.470   2.893   2.411
  494SOL    HW111951   1.465   2.800   2.376
  494SOL    HW211952   1.387   2.943   2.386
  495SOL     OW11953   2.404   2.061   2.459
  495SOL    HW111954   2.498   2.030   2.477
  495SOL    HW211955   2.340   1.995   2.499
  496SOL     OW11956   5.020   9.151   2.317
  496SOL    HW111957   5.116   9.136   2.293
  496SOL    HW211958   4.961   9.103   2.251
  497SOL     OW11959   4.252   0.654   2.001
  497SOL    HW111960   4.328   0.717   1.983
  497SOL    HW211961   4.197   0.689   2.077
  498SOL     OW11962   1.076   4.138   2.021
  498SOL    HW111963   1.140   4.070   2.056
  498SOL    HW211964   1.124   4.201   1.959
  499SOL     OW11965   2.921   4.878   0.893
  499SOL    HW111966   2.994   4.872   0.825
  499SOL    HW211967   2.926   4.799   0.954
  500SOL     OW11968   6.013   9.059   2.205
  500SOL    HW111969   5.980   9.045   2.298
  500SOL    HW211970   5.936   9.079   2.145
  501SOL     OW11971   1.852   4.587   0.054
  501SOL    HW111972   1.872   4.508   4.777
  501SOL    HW211973   1.754   4.605   0.053
  502SOL     OW11974   7.959   5.634   3.508
  502SOL    HW111975   8.034   5.685   3.550
  502SOL    HW211976   7.972   5.536   3.523
  503SOL     OW11977   9.693   6.079   1.317
  503SOL    HW111978   9.631   6.111   1.389
  503SOL    HW211979   9.651   6.003   1.268
  504SOL     OW11980   0.796   7.650   3.181
  504SOL    HW111981   0.848   7.736   3.183
  504SOL    HW211982   0.857   7.573   3.198
  505SOL     OW11983   4.506   1.734   1.775
  505SOL    HW111984   4.449   1.740   1.857
  505SOL    HW211985   4.481   1.807   1.711
  506SOL     OW11986   9.254   4.471   1.665
  506SOL    HW111987   9.235   4.448   1.761
  506SOL    HW211988   9.321   4.407   1.628
  507SOL     OW11989   9.950   3.786   1.507
  507SOL    HW111990   0.011   3.792   1.428
  507SOL    HW211991   9.948   3.691   1.540
  508SOL     OW11992   1.433   0.751   0.632
  508SOL    HW111993   1.503   0.711   0.574
  508SOL    HW211994   1.362   0.793   0.575
  509SOL     OW11995   1.505   1.833   3.221
  509SOL    HW111996   1.592   1.880   3.237
  509SOL    HW211997   1.520   1.735   3.217
  510SOL     OW11998   6.860   8.073   3.407
  510SOL    HW111999   6.853   7.992   3.467
  510SOL    HW212000   6.895   8.045   3.318
  511SOL     OW12001   3.685   7.379   0.856
  511SOL    HW112002   3.741   7.340   0.782
  511SOL    HW212003   3.594   7.338   0.853
  512SOL     OW12004   7.853   7.787   1.711
  512SOL    HW112005   7.853   7.748   1.803
  512SOL    HW212006   7.944   7.774   1.670
  513SOL     OW12007   9.667   9.150   2.002
  513SOL    HW112008   9.583   9.168   1.950
  513SOL    HW212009   9.661   9.195   2.091
  514SOL     OW12010   5.924   0.627   3.101
  514SOL    HW112011   5.887   0.534   3.109
  514SOL    HW212012   5.851   0.693   3.116
  515SOL     OW12013   5.471   9.709   3.290
  515SOL    HW112014   5.503   9.726   3.383
  515SOL    HW212015   5.439   9.795   3.249
  516SOL     OW12016   9.203   7.720   2.910
  516SOL    HW112017   9.131   7.751   2.971
  516SOL    HW212018   9.217   7.788   2.837
  517SOL     OW12019   9.484   3.489   0.529
  517SOL    HW112020   9.518   3.488   0.623
  517SOL    HW212021   9.446   3.579   0.508
  518SOL     OW12022   1.964   9.729   3.026
  518SOL    HW112023   1.972   9.796   3.101
  518SOL    HW212024   2.041   9.665   3.031
  519SOL     OW12025   4.525   9.438   2.726
  519SOL    HW112026   4.564   9.345   2.732
  519SOL    HW212027   4.448   9.438   2.663
  520SOL     OW12028   9.821   8.414   2.479
  520SOL    HW112029   9.905   8.435   2.429
  520SOL    HW212030   9.839   8.419   2.578
  521SOL     OW12031   2.850   5.369   3.354
  521SOL    HW112032   2.907   5.374   3.436
  521SOL    HW212033   2.861   5.278   3.313
  522SOL     OW12034   4.681   7.621   0.154
  522SOL    HW112035   4.759   7.589   0.100
  522SOL    HW212036   4.657   7.713   0.125
  523SOL     OW12037   4.822   1.749   1.989
  523SOL    HW112038   4.836   1.651   2.007
  523SOL    HW212039   4.838   1.767   1.892
  524SOL     OW12040   2.181   6.197   3.685
  524SOL    HW112041   2.250   6.125   3.685
  524SOL    HW212042   2.097   6.163   3.645
  525SOL     OW12043   5.187   9.439   2.262
  525SOL    HW112044   5.210   9.460   2.357
  525SOL    HW212045   5.088   9.433   2.252
  526SOL     OW12046   3.891   1.123   1.920
  526SOL    HW112047   3.803   1.110   1.875
  526SOL    HW212048   3.935   1.034   1.936
  527SOL     OW12049   0.269   5.307   3.355
  527SOL    HW112050   0.339   5.323   3.425
  527SOL    HW212051   0.310   5.319   3.264
  528SOL     OW12052   2.736   6.716   0.812
  528SOL    HW112053   2.676   6.733   0.890
  528SOL    HW212054   2.793   6.635   0.831
  529SOL     OW12055   8.209   2.569   1.300
  529SOL    HW112056   8.253   2.659   1.308
  529SOL    HW212057   8.129   2.567   1.360
  530SOL     OW12058   1.646   2.021   0.688
  530SOL    HW112059   1.601   2.109   0.702
  530SOL    HW212060   1.716   2.007   0.758
  531SOL     OW12061   0.609   8.088   1.224
  531SOL    HW112062   0.519   8.051   1.247
  531SOL    HW212063   0.633   8.159   1.290
  532SOL     OW12064   3.217   4.292   0.336
  532SOL    HW112065   3.131   4.305   0.287
  532SOL    HW212066   3.200   4.292   0.434
  533SOL     OW12067   2.929   3.222   1.852
  533SOL    HW112068   2.854   3.168   1.890
  533SOL    HW212069   2.967   3.175   1.773
  534SOL     OW12070   2.424   8.131   0.791
  534SOL    HW112071   2.517   8.102   0.814
  534SOL    HW212072   2.379   8.167   0.872
  535SOL     OW12073   1.382   1.768   2.277
  535SOL    HW112074   1.395   1.670   2.292
  535SOL    HW212075   1.333   1.783   2.192
  536SOL     OW12076   9.068   1.259   1.276
  536SOL    HW112077   9.161   1.248   1.241
  536SOL    HW212078   9.023   1.170   1.282
  537SOL     OW12079   1.368   4.856   2.024
  537SOL    HW112080   1.378   4.816   1.933
  537SOL    HW212081   1.434   4.930   2.036
  538SOL     OW12082   9.521   5.856   0.542
  538SOL    HW112083   9.472   5.852   0.629
  538SOL    HW212084   9.504   5.945   0.499
  539SOL     OW12085   2.969   1.087   0.731
  539SOL    HW112086   2.980   1.159   0.663
  539SOL    HW212087   2.897   1.114   0.796
  540SOL     OW12088   9.889   5.235   2.149
  540SOL    HW112089   9.929   5.271   2.065
  540SOL    HW212090   9.959   5.232   2.220
  541SOL     OW12091   7.634   0.616   3.646
  541SOL    HW112092   7.544   0.607   3.603
  541SOL    HW212093   7.624   0.607   3.745
  542SOL     OW12094   8.341   0.872   3.658
  542SOL    HW112095   8.409   0.799   3.667
  542SOL    HW212096   8.387   0.959   3.640
  543SOL     OW12097   0.866   1.674   1.958
  543SOL    HW112098   0.821   1.656   1.871
  543SOL    HW212099   0.947   1.615   1.966
  544SOL     OW12100   1.428   1.258   3.537
  544SOL    HW112101   1.405   1.324   3.465
  544SOL    HW212102   1.431   1.166   3.499
  545SOL     OW12103   1.897   0.013   1.628
  545SOL    HW112104   1.842   0.038   1.548
  545SOL    HW212105   1.847   9.948   1.684
  546SOL     OW12106   0.916   8.288   3.432
  546SOL    HW112107   1.004   8.290   3.479
  546SOL    HW212108   0.874   8.379   3.435
  547SOL     OW12109   1.212   8.893   3.092
  547SOL    HW112110   1.229   8.991   3.085
  547SOL    HW212111   1.211   8.852   3.001
  548SOL     OW12112   1.347   4.605   3.245
  548SOL    HW112113   1.308   4.694   3.220
  548SOL    HW212114   1.361   4.602   3.344
  549SOL     OW12115   4.992   2.571   0.689
  549SOL    HW112116   5.073   2.609   0.644
  549SOL    HW212117   4.918   2.561   0.622
  550SOL     OW12118   8.557   7.151   2.453
  550SOL    HW112119   8.491   7.201   2.509
  550SOL    HW212120   8.597   7.213   2.385
  551SOL     OW12121   0.323   4.360   1.171
  551SOL    HW112122   0.290   4.280   1.121
  551SOL    HW212123   0.398   4.332   1.231
  552SOL     OW12124   2.749   4.707   3.545
  552SOL    HW112125   2.782   4.801   3.551
  552SOL    HW212126   2.650   4.706   3.549
  553SOL     OW12127   3.426   7.261   0.866
  553SOL    HW112128   3.338   7.226   0.896
  553SOL    HW212129   3.428   7.267   0.766
  554SOL     OW12130   3.866   6.486   3.153
  554SOL    HW112131   3.775   6.520   3.132
  554SOL    HW212132   3.877   6.393   3.118
  555SOL     OW12133   7.416   7.769   1.876
  555SOL    HW112134   7.317   7.773   1.872
  555SOL    HW212135   7.446   7.673   1.875
  556SOL     OW12136   0.356   7.072   0.672
  556SOL    HW112137   0.267   7.106   0.701
  556SOL    HW212138   0.348   6.975   0.647
  557SOL     OW12139   3.093   5.468   2.138
  557SOL    HW112140   3.081   5.427   2.228
  557SOL    HW212141   3.148   5.407   2.081
  558SOL     OW12142   9.296   7.596   3.315
  558SOL    HW112143   9.278   7.680   3.263
  558SOL    HW212144   9.239   7.596   3.398
  559SOL     OW12145   3.782   4.095   3.446
  559SOL    HW112146   3.863   4.142   3.483
  559SOL    HW212147   3.705   4.158   3.443
  560SOL     OW12148   3.079   8.583   0.058
  560SOL    HW112149   3.032   8.632   0.132
  560SOL    HW212150   3.016   8.568   4.764
  561SOL     OW12151   7.761   1.756   3.191
  561SOL    HW112152   7.715   1.707   3.265
  561SOL    HW212153   7.793   1.845   3.225
  562SOL     OW12154   6.803   0.270   3.071
  562SOL    HW112155   6.728   0.278   3.137
  562SOL    HW212156   6.888   0.252   3.120
  563SOL     OW12157   8.597   8.482   1.931
  563SOL    HW112158   8.540   8.443   2.003
  563SOL    HW212159   8.649   8.559   1.967
  564SOL     OW12160   8.362   9.760   3.193
  564SOL    HW112161   8.455   9.759   3.231
  564SOL    HW212162   8.301   9.806   3.257
  565SOL     OW12163   1.651   9.577   3.658
  565SOL    HW112164   1.686   9.484   3.654
  565SOL    HW212165   1.706   9.631   3.722
  566SOL     OW12166   8.246   1.920   1.521
  566SOL    HW112167   8.237   2.019   1.510
  566SOL    HW212168   8.296   1.900   1.605
  567SOL     OW12169   2.369   6.063   1.996
  567SOL    HW112170   2.313   6.021   2.067
  567SOL    HW212171   2.379   5.999   1.919
  568SOL     OW12172   0.556   6.595   2.780
  568SOL    HW112173   0.580   6.500   2.762
  568SOL    HW212174   0.605   6.627   2.862
  569SOL     OW12175   3.391   0.497   2.554
  569SOL    HW112176   3.469   0.546   2.515
  569SOL    HW212177   3.336   0.457   2.480
  570SOL     OW12178   9.520   9.791   1.825
  570SOL    HW112179   9.588   9.802   1.752
  570SOL    HW212180   9.495   9.880   1.862
  571SOL     OW12181   9.747   2.544   2.854
  571SOL    HW112182   9.728   2.642   2.851
  571SOL    HW212183   9.746   2.513   2.949
  572SOL     OW12184   8.500   5.976   2.556
  572SOL    HW112185   8.422   5.928   2.597
  572SOL    HW212186   8.574   5.911   2.540
  573SOL     OW12187   9.967   1.201   3.319
  573SOL    HW112188   0.012   1.280   3.276
  573SOL    HW212189   9.942   1.135   3.248
  574SOL     OW12190   0.500   1.453   3.666
  574SOL    HW112191   0.581   1.487   3.618
  574SOL    HW212192   0.504   1.354   3.674
  575SOL     OW12193   1.809   2.607   1.764
  575SOL    HW112194   1.725   2.659   1.750
  575SOL    HW212195   1.818   2.582   1.860
  576SOL     OW12196   2.946   3.355   2.377
  576SOL    HW112197   3.042   3.328   2.370
  576SOL    HW212198   2.914   3.341   2.471
  577SOL     OW12199   2.242   4.116   0.463
  577SOL    HW112200   2.192   4.114   0.377
  577SOL    HW212201   2.334   4.152   0.448
  578SOL     OW12202   2.495   6.474   2.789
  578SOL    HW112203   2.571   6.495   2.851
  578SOL    HW212204   2.530   6.460   2.697
  579SOL     OW12205   2.877   9.730   1.106
  579SOL    HW112206   2.885   9.762   1.012
  579SOL    HW212207   2.808   9.658   1.111
  580SOL     OW12208   0.583   2.817   0.240
  580SOL    HW112209   0.556   2.894   0.182
  580SOL    HW212210   0.683   2.813   0.246
  581SOL     OW12211   0.230   6.195   0.328
  581SOL    HW112212   0.244   6.266   0.397
  581SOL    HW212213   0.144   6.210   0.280
  582SOL     OW12214   6.316   8.506   1.801
  582SOL    HW112215   6.227   8.524   1.757
  582SOL    HW212216   6.380   8.578   1.776
  583SOL     OW12217   9.144   1.778   1.764
  583SOL    HW112218   9.190   1.690   1.755
  583SOL    HW212219   9.212   1.852   1.761
  584SOL     OW12220   4.640   8.529   2.306
  584SOL    HW112221   4.608   8.591   2.377
  584SOL    HW212222   4.732   8.556   2.277
  585SOL     OW12223   4.811   6.519   2.978
  585SOL    HW112224   4.722   6.528   2.933
  585SOL    HW212225   4.884   6.530   2.911
  586SOL     OW12226   2.859   5.961   0.413
  586SOL    HW112227   2.916   5.937   0.491
  586SOL    HW212228   2.917   5.990   0.337
  587SOL     OW12229   2.223   1.212   2.396
  587SOL    HW112230   2.145   1.272   2.412
  587SOL    HW212231   2.213   1.168   2.306
  588SOL     OW12232   2.639   2.099   0.853
  588SOL    HW112233   2.678   2.178   0.806
  588SOL    HW212234   2.609   2.031   0.785
  589SOL     OW12235   1.445   8.836   2.392
  589SOL    HW112236   1.494   8.775   2.330
  589SOL    HW212237   1.416   8.918   2.341
  590SOL     OW12238   3.929   0.212   2.496
  590SOL    HW112239   4.000   0.185   2.430
  590SOL    HW212240   3.954   0.177   2.587
  591SOL     OW12241   8.502   2.664   2.673
  591SOL    HW112242   8.454   2.719   2.605
  591SOL    HW212243   8.466   2.571   2.671
  592SOL     OW12244   2.844   2.517   1.250
  592SOL    HW112245   2.748   2.537   1.234
  592SOL    HW212246   2.897   2.602   1.243
  593SOL     OW12247   4.062   0.384   0.311
  593SOL    HW112248   4.153   0.344   0.299
  593SOL    HW212249   3.993   0.323   0.271
  594SOL     OW12250   9.418   4.440   2.094
  594SOL    HW112251   9.477   4.409   2.020
  594SOL    HW212252   9.469   4.500   2.156
  595SOL     OW12253   2.936   9.974   2.706
  595SOL    HW112254   2.972   9.883   2.729
  595SOL    HW212255   2.840   9.979   2.734
  596SOL     OW12256   8.445   8.638   0.226
  596SOL    HW112257   8.382   8.675   0.159
  596SOL    HW212258   8.396   8.577   0.289
  597SOL     OW12259   6.760   8.954   1.934
  597SOL    HW112260   6.686   8.967   2.000
  597SOL    HW212261   6.805   9.042   1.917
  598SOL     OW12262   5.240   2.242   1.445
  598SOL    HW112263   5.204   2.150   1.457
  598SOL    HW212264   5.205   2.301   1.518
  599SOL     OW12265   1.676   4.806   2.164
  599SOL    HW112266   1.627   4.722   2.139
  599SOL    HW212267   1.630   4.885   2.124
  600SOL     OW12268   9.478   6.501   0.698
  600SOL    HW112269   9.402   6.566   0.699
  600SOL    HW212270   9.538   6.520   0.776
  601SOL     OW12271   5.146   2.586   1.333
  601SOL    HW112272   5.062   2.558   1.380
  601SOL    HW212273   5.144   2.552   1.239
  602SOL     OW12274   9.442   6.930   1.793
  602SOL    HW112275   9.476   6.916   1.886
  602SOL    HW212276   9.518   6.953   1.732
  603SOL     OW12277   8.557   7.281   3.242
  603SOL    HW112278   8.603   7.368   3.258
  603SOL    HW212279   8.587   7.214   3.310
  604SOL     OW12280   1.169   6.669   3.698
  604SOL    HW112281   1.252   6.705   3.655
  604SOL    HW212282   1.130   6.738   3.759
  605SOL     OW12283   9.777   1.834   1.973
  605SOL    HW112284   9.679   1.826   1.990
  605SOL    HW212285   9.825   1.844   2.060
  606SOL     OW12286   9.658   8.959   2.274
  606SOL    HW112287   9.703   8.926   2.191
  606SOL    HW212288   9.659   9.059   2.276
  607SOL     OW12289   8.564   7.456   2.397
  607SOL    HW112290   8.480   7.430   2.445
  607SOL    HW212291   8.552   7.546   2.355
  608SOL     OW12292   0.875   9.350   2.286
  608SOL    HW112293   0.786   9.330   2.328
  608SOL    HW212294   0.943   9.364   2.357
  609SOL     OW12295   8.701   6.592   2.154
  609SOL    HW112296   8.707   6.547   2.243
  609SOL    HW212297   8.791   6.628   2.129
  610SOL     OW12298   7.621   3.602   0.207
  610SOL    HW112299   7.525   3.607   0.234
  610SOL    HW212300   7.655   3.694   0.187
  611SOL     OW12301   5.018   7.088   3.693
  611SOL    HW112302   5.002   7.153   3.619
  611SOL    HW212303   4.940   7.025   3.700
  612SOL     OW12304   7.847   7.341   2.229
  612SOL    HW112305   7.870   7.383   2.141
  612SOL    HW212306   7.802   7.409   2.287
  613SOL     OW12307   3.163   4.694   2.020
  613SOL    HW112308   3.076   4.680   1.972
  613SOL    HW212309   3.159   4.780   2.071
  614SOL     OW12310   0.216   2.768   1.440
  614SOL    HW112311   0.171   2.756   1.529
  614SOL    HW212312   0.314   2.754   1.451
  615SOL     OW12313   0.583   5.230   0.234
  615SOL    HW112314   0.492   5.269   0.225
  615SOL    HW212315   0.585   5.166   0.311
  616SOL     OW12316   9.502   1.786   1.999
  616SOL    HW112317   9.525   1.774   2.096
  616SOL    HW212318   9.433   1.858   1.990
  617SOL     OW12319   9.000   6.617   1.271
  617SOL    HW112320   9.024   6.534   1.220
  617SOL    HW212321   8.995   6.596   1.368
  618SOL     OW12322   4.646   4.079   0.640
  618SOL    HW112323   4.587   4.117   0.569
  618SOL    HW212324   4.666   3.983   0.620
  619SOL     OW12325   9.959   1.998   0.254
  619SOL    HW112326   9.945   1.988   0.352
  619SOL    HW212327   0.046   2.044   0.237
  620SOL     OW12328   1.729   8.428   2.241
  620SOL    HW112329   1.691   8.416   2.333
  620SOL    HW212330   1.705   8.349   2.185
  621SOL     OW12331   5.181   1.365   2.818
  621SOL    HW112332   5.243   1.319   2.754
  621SOL    HW212333   5.183   1.463   2.802
  622SOL     OW12334   5.388   8.597   3.613
  622SOL    HW112335   5.360   8.693   3.612
  622SOL    HW212336   5.318   8.541   3.569
  623SOL     OW12337   3.653   4.993   2.872
  623SOL    HW112338   3.627   4.897   2.870
  623SOL    HW212339   3.577   5.049   2.840
  624SOL     OW12340   1.358   3.383   0.739
  624SOL    HW112341   1.316   3.313   0.682
  624SOL    HW212342   1.403   3.451   0.680
  625SOL     OW12343   9.070   1.459   1.465
  625SOL    HW112344   9.124   1.421   1.540
  625SOL    HW212345   9.062   1.390   1.392
  626SOL     OW12346   1.174   6.038   1.267
  626SOL    HW112347   1.092   6.016   1.215
  626SOL    HW212348   1.155   6.025   1.365
  627SOL     OW12349   1.534   8.878   0.270
  627SOL    HW112350   1.592   8.951   0.235
  627SOL    HW212351   1.569   8.789   0.240
  628SOL     OW12352   0.834   8.393   2.586
  628SOL    HW112353   0.752   8.366   2.636
  628SOL    HW212354   0.886   8.460   2.640
  629SOL     OW12355   1.983   8.531   2.196
  629SOL    HW112356   1.985   8.630   2.210
  629SOL    HW212357   1.889   8.498   2.195
  630SOL     OW12358   0.503   6.766   0.806
  630SOL    HW112359   0.592   6.804   0.780
  630SOL    HW212360   0.513   6.670   0.830
  631SOL     OW12361   1.269   4.169   3.291
  631SOL    HW112362   1.318   4.161   3.377
  631SOL    HW212363   1.180   4.124   3.299
  632SOL     OW12364   5.782   7.324   3.129
  632SOL    HW112365   5.867   7.374   3.143
  632SOL    HW212366   5.706   7.388   3.123
  633SOL     OW12367   9.028   3.063   1.838
  633SOL    HW112368   9.125   3.058   1.815
  633SOL    HW212369   9.015   3.045   1.935
  634SOL     OW12370   0.903   7.968   0.597
  634SOL    HW112371   0.956   8.033   0.542
  634SOL    HW212372   0.808   7.968   0.566
  635SOL     OW12373   2.826   4.842   2.885
  635SOL    HW112374   2.869   4.891   2.809
  635SOL    HW212375   2.758   4.901   2.929
  636SOL     OW12376   9.227   0.761   2.936
  636SOL    HW112377   9.280   0.676   2.922
  636SOL    HW212378   9.290   0.836   2.953
  637SOL     OW12379   4.404   1.114   3.364
  637SOL    HW112380   4.466   1.116   3.286
  637SOL    HW212381   4.434   1.045   3.429
  638SOL     OW12382   3.608   9.362   2.090
  638SOL    HW112383   3.566   9.276   2.061
  638SOL    HW212384   3.692   9.377   2.037
  639SOL     OW12385   9.565   3.994   2.477
  639SOL    HW112386   9.640   3.952   2.426
  639SOL    HW212387   9.603   4.046   2.554
  640SOL     OW12388   2.689   8.273   1.724
  640SOL    HW112389   2.785   8.281   1.700
  640SOL    HW212390   2.662   8.176   1.722
  641SOL     OW12391   1.866   4.739   1.975
  641SOL    HW112392   1.820   4.770   2.058
  641SOL    HW212393   1.960   4.772   1.975
  642SOL     OW12394   8.628   1.919   1.222
  642SOL    HW112395   8.662   1.875   1.305
  642SOL    HW212396   8.528   1.915   1.220
  643SOL     OW12397   8.485   6.203   1.030
  643SOL    HW112398   8.487   6.278   1.096
  643SOL    HW212399   8.535   6.124   1.068
  644SOL     OW12400   9.650   2.139   3.672
  644SOL    HW112401   9.736   2.132   3.622
  644SOL    HW212402   9.624   2.050   3.708
  645SOL     OW12403   0.935   9.339   2.733
  645SOL    HW112404   0.931   9.402   2.811
  645SOL    HW212405   0.845   9.297   2.719
  646SOL     OW12406   3.396   8.603   0.760
  646SOL    HW112407   3.347   8.631   0.843
  646SOL    HW212408   3.422   8.507   0.767
  647SOL     OW12409   3.053   7.471   3.259
  647SOL    HW112410   3.105   7.386   3.272
  647SOL    HW212411   2.960   7.448   3.230
  648SOL     OW12412   9.805   8.336   3.166
  648SOL    HW112413   9.732   8.330   3.098
  648SOL    HW212414   9.768   8.316   3.257
  649SOL     OW12415   5.059   7.417   1.550
  649SOL    HW112416   4.978   7.361   1.564
  649SOL    HW212417   5.043   7.482   1.476
  650SOL     OW12418   5.758   9.722   1.707
  650SOL    HW112419   5.824   9.787   1.746
  650SOL    HW212420   5.807   9.654   1.653
  651SOL     OW12421   4.121   4.204   0.252
  651SOL    HW112422   4.165   4.293   0.242
  651SOL    HW212423   4.070   4.201   0.338
  652SOL     OW12424   2.898   7.602   1.580
  652SOL    HW112425   2.989   7.612   1.540
  652SOL    HW212426   2.906   7.560   1.671
  653SOL     OW12427   2.460   4.250   0.790
  653SOL    HW112428   2.447   4.302   0.874
  653SOL    HW212429   2.504   4.309   0.721
  654SOL     OW12430   8.895   8.849   0.160
  654SOL    HW112431   8.825   8.778   0.153
  654SOL    HW212432   8.950   8.833   0.241
  655SOL     OW12433   9.182   1.022   0.359
  655SOL    HW112434   9.146   1.050   0.448
  655SOL    HW212435   9.264   0.966   0.372
  656SOL     OW12436   3.533   1.708   1.637
  656SOL    HW112437   3.452   1.760   1.660
  656SOL    HW212438   3.608   1.771   1.616
  657SOL     OW12439   4.054   7.698   1.370
  657SOL    HW112440   4.098   7.770   1.317
  657SOL    HW212441   4.069   7.714   1.468
  658SOL     OW12442   2.477   5.603   3.196
  658SOL    HW112443   2.516   5.570   3.111
  658SOL    HW212444   2.503   5.541   3.271
  659SOL     OW12445   3.766   4.707   1.848
  659SOL    HW112446   3.755   4.807   1.853
  659SOL    HW212447   3.732   4.675   1.760
  660SOL     OW12448   1.286   3.401   1.228
  660SOL    HW112449   1.204   3.374   1.178
  660SOL    HW212450   1.325   3.483   1.187
  661SOL     OW12451   1.105   7.007   1.865
  661SOL    HW112452   1.055   7.025   1.780
  661SOL    HW212453   1.130   6.910   1.869
  662SOL     OW12454   9.599   4.137   3.096
  662SOL    HW112455   9.515   4.122   3.045
  662SOL    HW212456   9.641   4.223   3.065
  663SOL     OW12457   1.271   4.356   3.601
  663SOL    HW112458   1.319   4.440   3.575
  663SOL    HW212459   1.327   4.277   3.575
  664SOL     OW12460   3.818   8.001   2.897
  664SOL    HW112461   3.797   8.001   2.800
  664SOL    HW212462   3.737   8.028   2.949
  665SOL     OW12463   7.687   9.697   0.470
  665SOL    HW112464   7.777   9.679   0.511
  665SOL    HW212465   7.645   9.775   0.516
  666SOL     OW12466   1.848   2.972   1.645
  666SOL    HW112467   1.815   2.960   1.739
  666SOL    HW212468   1.796   2.911   1.584
  667SOL     OW12469   3.875   3.424   0.503
  667SOL    HW112470   3.921   3.494   0.556
  667SOL    HW212471   3.932   3.342   0.499
  668SOL     OW12472   9.586   1.303   2.418
  668SOL    HW112473   9.619   1.208   2.422
  668SOL    HW212474   9.500   1.311   2.468
  669SOL     OW12475   3.601   7.859   1.640
  669SOL    HW112476   3.698   7.870   1.661
  669SOL    HW212477   3.562   7.948   1.616
  670SOL     OW12478   3.090   2.538   3.666
  670SOL    HW112479   3.139   2.517   3.751
  670SOL    HW212480   3.114   2.630   3.636
  671SOL     OW12481   2.869   6.531   0.072
  671SOL    HW112482   2.844   6.582   0.154
  671SOL    HW212483   2.826   6.573   4.773
  672SOL     OW12484   8.516   4.546   1.001
  672SOL    HW112485   8.587   4.540   0.931
  672SOL    HW212486   8.433   4.498   0.970
  673SOL     OW12487   8.732   3.962   0.717
  673SOL    HW112488   8.654   3.953   0.778
  673SOL    HW212489   8.790   4.038   0.747
  674SOL     OW12490   5.560   8.565   2.944
  674SOL    HW112491   5.550   8.649   2.996
  674SOL    HW212492   5.470   8.525   2.926
  675SOL     OW12493   0.246   9.752   0.117
  675SOL    HW112494   0.195   9.838   0.121
  675SOL    HW212495   0.341   9.768   0.145
  676SOL     OW12496   5.869   9.743   2.207
  676SOL    HW112497   5.923   9.805   2.149
  676SOL    HW212498   5.881   9.768   2.303
  677SOL     OW12499   9.447   7.527   1.522
  677SOL    HW112500   9.361   7.577   1.533
  677SOL    HW212501   9.428   7.439   1.478
  678SOL     OW12502   8.274   5.515   3.522
  678SOL    HW112503   8.197   5.452   3.529
  678SOL    HW212504   8.249   5.603   3.563
  679SOL     OW12505   1.782   9.388   1.007
  679SOL    HW112506   1.872   9.405   0.966
  679SOL    HW212507   1.750   9.297   0.980
  680SOL     OW12508   9.023   2.690   0.274
  680SOL    HW112509   9.002   2.676   0.178
  680SOL    HW212510   9.054   2.784   0.288
  681SOL     OW12511   0.117   4.152   2.335
  681SOL    HW112512   0.121   4.250   2.354
  681SOL    HW212513   0.087   4.138   2.240
  682SOL     OW12514   9.655   1.050   2.973
  682SOL    HW112515   9.559   1.023   2.982
  682SOL    HW212516   9.698   0.997   2.900
  683SOL     OW12517   7.507   1.082   2.102
  683SOL    HW112518   7.568   1.105   2.027
  683SOL    HW212519   7.470   1.166   2.143
  684SOL     OW12520   1.875   6.935   1.598
  684SOL    HW112521   1.921   6.923   1.511
  684SOL    HW212522   1.926   6.888   1.670
  685SOL     OW12523   7.618   8.549   1.529
  685SOL    HW112524   7.559   8.560   1.448
  685SOL    HW212525   7.588   8.468   1.580
  686SOL     OW12526   0.552   9.158   0.436
  686SOL    HW112527   0.512   9.250   0.433
  686SOL    HW212528   0.640   9.159   0.387
  687SOL     OW12529   8.602   2.348   0.688
  687SOL    HW112530   8.701   2.350   0.682
  687SOL    HW212531   8.568   2.266   0.641
  688SOL     OW12532   8.325   4.828   3.309
  688SOL    HW112533   8.234   4.870   3.300
  688SOL    HW212534   8.385   4.864   3.238
  689SOL     OW12535   2.892   5.055   2.236
  689SOL    HW112536   2.856   5.133   2.185
  689SOL    HW212537   2.907   5.080   2.331
  690SOL     OW12538   9.704   4.073   0.417
  690SOL    HW112539   9.629   4.121   0.462
  690SOL    HW212540   9.787   4.082   0.472
  691SOL     OW12541   8.121   6.875   3.191
  691SOL    HW112542   8.141   6.783   3.158
  691SOL    HW212543   8.064   6.869   3.273
  692SOL     OW12544   0.063   3.221   0.984
  692SOL    HW112545   0.005   3.298   1.012
  692SOL    HW212546   0.008   3.138   0.979
  693SOL     OW12547   8.554   3.107   0.737
  693SOL    HW112548   8.616   3.173   0.692
  693SOL    HW212549   8.570   3.016   0.699
  694SOL     OW12550   8.468   0.550   3.081
  694SOL    HW112551   8.488   0.452   3.078
  694SOL    HW212552   8.384   0.569   3.031
  695SOL     OW12553   4.503   7.430   0.801
  695SOL    HW112554   4.436   7.458   0.869
  695SOL    HW212555   4.595   7.448   0.836
  696SOL     OW12556   8.875   2.362   0.698
  696SOL    HW112557   8.919   2.338   0.784
  696SOL    HW212558   8.899   2.457   0.674
  697SOL     OW12559   0.976   5.888   2.342
  697SOL    HW112560   0.919   5.895   2.260
  697SOL    HW212561   1.072   5.882   2.316
  698SOL     OW12562   8.504   4.068   1.479
  698SOL    HW112563   8.451   4.120   1.412
  698SOL    HW212564   8.441   4.018   1.539
  699SOL     OW12565   0.982   1.677   0.174
  699SOL    HW112566   1.046   1.631   0.236
  699SOL    HW212567   0.888   1.662   0.207
  700SOL     OW12568   7.059   9.314   2.789
  700SOL    HW112569   7.103   9.294   2.702
  700SOL    HW212570   7.072   9.238   2.852
  701SOL     OW12571   0.361   8.940   0.775
  701SOL    HW112572   0.332   8.849   0.745
  701SOL    HW212573   0.454   8.957   0.744
  702SOL     OW12574   0.144   0.003   0.174
  702SOL    HW112575   0.221   0.037   0.229
  702SOL    HW212576   0.088   0.081   0.145
  703SOL     OW12577   9.606   6.326   2.670
  703SOL    HW112578   9.601   6.362   2.577
  703SOL    HW212579   9.572   6.232   2.672
  704SOL     OW12580   9.031   9.664   1.449
  704SOL    HW112581   9.059   9.611   1.529
  704SOL    HW212582   8.931   9.663   1.441
  705SOL     OW12583   4.849   3.076   0.968
  705SOL    HW112584   4.863   2.979   0.986
  705SOL    HW212585   4.937   3.123   0.966
  706SOL     OW12586   3.675   6.420   2.861
  706SOL    HW112587   3.743   6.492   2.844
  706SOL    HW212588   3.712   6.332   2.832
  707SOL     OW12589   3.757   2.845   1.922
  707SOL    HW112590   3.817   2.905   1.869
  707SOL    HW212591   3.687   2.806   1.862
  708SOL     OW12592   1.418   8.105   3.496
  708SOL    HW112593   1.487   8.116   3.567
  708SOL    HW212594   1.343   8.048   3.531
  709SOL     OW12595   2.228   5.744   3.230
  709SOL    HW112596   2.312   5.692   3.217
  709SOL    HW212597   2.217   5.766   3.327
  710SOL     OW12598   8.081   9.414   0.246
  710SOL    HW112599   8.025   9.459   0.177
  710SOL    HW212600   8.117   9.328   0.210
  711SOL     OW12601   3.251   0.629   1.896
  711SOL    HW112602   3.262   0.720   1.934
  711SOL    HW212603   3.159   0.619   1.858
  712SOL     OW12604   2.333   3.958   3.232
  712SOL    HW112605   2.346   3.897   3.311
  712SOL    HW212606   2.354   3.908   3.148
  713SOL     OW12607   2.060   3.217   1.865
  713SOL    HW112608   2.002   3.280   1.917
  713SOL    HW212609   2.019   3.126   1.867
  714SOL     OW12610   8.491   5.455   3.209
  714SOL    HW112611   8.395   5.426   3.215
  714SOL    HW212612   8.517   5.501   3.294
  715SOL     OW12613   8.965   3.640   1.846
  715SOL    HW112614   8.889   3.656   1.782
  715SOL    HW212615   9.010   3.554   1.824
  716SOL     OW12616   9.965   0.046   0.512
  716SOL    HW112617   9.992   9.986   0.588
  716SOL    HW212618   9.950   9.991   0.430
  717SOL     OW12619   3.687   3.097   1.040
  717SOL    HW112620   3.666   3.195   1.048
  717SOL    HW212621   3.785   3.083   1.052
  718SOL     OW12622   3.384   7.742   0.412
  718SOL    HW112623   3.467   7.708   0.368
  718SOL    HW212624   3.357   7.829   0.371
  719SOL     OW12625   3.457   3.917   0.173
  719SOL    HW112626   3.448   3.974   0.255
  719SOL    HW212627   3.554   3.907   0.150
  720SOL     OW12628   9.766   5.006   2.245
  720SOL    HW112629   9.716   5.030   2.328
  720SOL    HW212630   9.804   5.089   2.204
  721SOL     OW12631   5.658   8.548   3.568
  721SOL    HW112632   5.691   8.637   3.535
  721SOL    HW212633   5.561   8.555   3.591
  722SOL     OW12634   0.177   8.538   2.153
  722SOL    HW112635   0.135   8.627   2.132
  722SOL    HW212636   0.136   8.468   2.095
  723SOL     OW12637   0.723   5.277   2.656
  723SOL    HW112638   0.802   5.324   2.616
  723SOL    HW212639   0.692   5.328   2.736
  724SOL     OW12640   7.685   9.253   3.354
  724SOL    HW112641   7.590   9.232   3.329
  724SOL    HW212642   7.689   9.342   3.400
  725SOL     OW12643   2.832   5.781   2.187
  725SOL    HW112644   2.775   5.818   2.261
  725SOL    HW212645   2.821   5.682   2.183
  726SOL     OW12646   9.525   6.285   0.139
  726SOL    HW112647   9.549   6.258   0.232
  726SOL    HW212648   9.585   6.239   0.074
  727SOL     OW12649   3.168   9.598   2.213
  727SOL    HW112650   3.144   9.543   2.293
  727SOL    HW212651   3.264   9.582   2.190
  728SOL     OW12652   4.421   0.403   3.618
  728SOL    HW112653   4.358   0.340   3.664
  728SOL    HW212654   4.422   0.383   3.520
  729SOL     OW12655   0.043   8.344   2.007
  729SOL    HW112656   0.002   8.287   2.079
  729SOL    HW212657   0.086   8.285   1.939
  730SOL     OW12658   2.485   2.125   2.206
  730SOL    HW112659   2.450   2.111   2.299
  730SOL    HW212660   2.500   2.037   2.162
  731SOL     OW12661   4.755   9.019   3.537
  731SOL    HW112662   4.791   8.931   3.568
  731SOL    HW212663   4.688   9.052   3.603
  732SOL     OW12664   1.456   7.268   2.840
  732SOL    HW112665   1.451   7.169   2.829
  732SOL    HW212666   1.400   7.312   2.770
  733SOL     OW12667   1.288   7.941   1.228
  733SOL    HW112668   1.357   7.899   1.170
  733SOL    HW212669   1.200   7.943   1.179
  734SOL     OW12670   2.250   7.482   2.888
  734SOL    HW112671   2.208   7.426   2.818
  734SOL    HW212672   2.349   7.464   2.892
  735SOL     OW12673   9.975   9.091   0.801
  735SOL    HW112674   9.996   8.994   0.785
  735SOL    HW212675   0.037   9.127   0.870
  736SOL     OW12676   6.836   8.833   2.518
  736SOL    HW112677   6.825   8.736   2.541
  736SOL    HW212678   6.783   8.888   2.582
  737SOL     OW12679   2.848   8.852   2.309
  737SOL    HW112680   2.753   8.869   2.336
  737SOL    HW212681   2.910   8.891   2.378
  738SOL     OW12682   3.603   2.776   2.337
  738SOL    HW112683   3.616   2.780   2.436
  738SOL    HW212684   3.669   2.837   2.293
  739SOL     OW12685   0.677   6.003   0.590
  739SOL    HW112686   0.594   6.040   0.632
  739SOL    HW212687   0.756   6.027   0.646
  740SOL     OW12688   7.737   9.573   2.516
  740SOL    HW112689   7.695   9.627   2.588
  740SOL    HW212690   7.747   9.478   2.546
  741SOL     OW12691   4.874   1.852   1.137
  741SOL    HW112692   4.924   1.938   1.127
  741SOL    HW212693   4.797   1.850   1.073
  742SOL     OW12694   9.255   7.908   2.703
  742SOL    HW112695   9.316   7.980   2.670
  742SOL    HW212696   9.277   7.822   2.657
  743SOL     OW12697   4.181   8.530   0.214
  743SOL    HW112698   4.183   8.617   0.164
  743SOL    HW212699   4.107   8.533   0.282
  744SOL     OW12700   1.484   7.849   2.484
  744SOL    HW112701   1.425   7.885   2.556
  744SOL    HW212702   1.509   7.923   2.421
  745SOL     OW12703   5.028   9.581   1.165
  745SOL    HW112704   5.000   9.485   1.176
  745SOL    HW212705   5.128   9.585   1.163
  746SOL     OW12706   5.071   8.838   2.298
  746SOL    HW112707   5.096   8.788   2.381
  746SOL    HW212708   5.140   8.908   2.280
  747SOL     OW12709   1.668   5.503   1.700
  747SOL    HW112710   1.597   5.553   1.650
  747SOL    HW212711   1.755   5.552   1.692
  748SOL     OW12712   9.837   1.269   1.872
  748SOL    HW112713   9.742   1.279   1.841
  748SOL    HW212714   9.877   1.187   1.830
  749SOL     OW12715   8.658   2.482   1.908
  749SOL    HW112716   8.699   2.441   1.990
  749SOL    HW212717   8.719   2.553   1.872
  750SOL     OW12718   9.925   2.049   3.484
  750SOL    HW112719   9.996   2.019   3.547
  750SOL    HW212720   9.933   2.148   3.469
  751SOL     OW12721   2.263   6.869   1.403
  751SOL    HW112722   2.180   6.908   1.363
  751SOL    HW212723   2.343   6.907   1.356
  752SOL     OW12724   5.972   7.815   1.833
  752SOL    HW112725   6.012   7.833   1.743
  752SOL    HW212726   5.939   7.901   1.872
  753SOL     OW12727   5.127   7.949   0.535
  753SOL    HW112728   5.051   7.886   0.550
  753SOL    HW212729   5.106   8.010   0.460
  754SOL     OW12730   7.971   2.226   2.792
  754SOL    HW112731   7.923   2.220   2.704
  754SOL    HW212732   8.034   2.150   2.801
  755SOL     OW12733   1.205   7.232   3.661
  755SOL    HW112734   1.110   7.229   3.693
  755SOL    HW212735   1.218   7.162   3.591
  756SOL     OW12736   2.760   6.947   0.676
  756SOL    HW112737   2.757   6.931   0.578
  756SOL    HW212738   2.756   6.859   0.724
  757SOL     OW12739   8.804   0.198   3.106
  757SOL    HW112740   8.852   0.216   3.020
  757SOL    HW212741   8.868   0.159   3.172
  758SOL     OW12742   9.172   8.542   0.482
  758SOL    HW112743   9.112   8.620   0.467
  758SOL    HW212744   9.161   8.509   0.576
  759SOL     OW12745   5.181   0.207   1.303
  759SOL    HW112746   5.085   0.236   1.308
  759SOL    HW212747   5.198   0.162   1.215
  760SOL     OW12748   8.593   9.158   1.426
  760SOL    HW112749   8.576   9.239   1.370
  760SOL    HW212750   8.521   9.151   1.496
  761SOL     OW12751   0.343   3.715   3.106
  761SOL    HW112752   0.411   3.667   3.161
  761SOL    HW212753   0.375   3.808   3.088
  762SOL     OW12754   6.076   8.789   2.919
  762SOL    HW112755   6.064   8.708   2.977
  762SOL    HW212756   6.094   8.759   2.825
  763SOL     OW12757   1.016   7.717   0.629
  763SOL    HW112758   0.971   7.804   0.612
  763SOL    HW212759   1.080   7.697   0.554
  764SOL     OW12760   3.711   1.332   0.572
  764SOL    HW112761   3.612   1.321   0.584
  764SOL    HW212762   3.742   1.412   0.623
  765SOL     OW12763   9.515   5.807   3.239
  765SOL    HW112764   9.525   5.751   3.157
  765SOL    HW212765   9.591   5.871   3.246
  766SOL     OW12766   4.649   2.962   3.212
  766SOL    HW112767   4.610   3.045   3.170
  766SOL    HW212768   4.747   2.957   3.191
  767SOL     OW12769   1.058   1.968   1.649
  767SOL    HW112770   1.005   1.902   1.596
  767SOL    HW212771   0.999   2.044   1.676
  768SOL     OW12772   2.910   1.069   1.387
  768SOL    HW112773   2.871   1.106   1.303
  768SOL    HW212774   2.919   0.969   1.379
  769SOL     OW12775   6.300   8.646   3.157
  769SOL    HW112776   6.208   8.638   3.120
  769SOL    HW212777   6.357   8.572   3.122
  770SOL     OW12778   8.147   9.026   3.224
  770SOL    HW112779   8.088   8.956   3.183
  770SOL    HW212780   8.093   9.108   3.243
  771SOL     OW12781   1.020   2.546   1.179
  771SOL    HW112782   0.996   2.637   1.145
  771SOL    HW212783   1.047   2.553   1.275
  772SOL     OW12784   4.204   9.659   3.084
  772SOL    HW112785   4.184   9.563   3.069
  772SOL    HW212786   4.127   9.715   3.054
  773SOL     OW12787   6.035   8.562   3.076
  773SOL    HW112788   6.059   8.481   3.129
  773SOL    HW212789   5.952   8.603   3.113
  774SOL     OW12790   4.995   3.810   1.044
  774SOL    HW112791   4.951   3.751   0.977
  774SOL    HW212792   4.935   3.888   1.064
  775SOL     OW12793   2.282   8.684   0.205
  775SOL    HW112794   2.250   8.590   0.219
  775SOL    HW212795   2.222   8.747   0.255
  776SOL     OW12796   1.740   2.924   2.332
  776SOL    HW112797   1.643   2.936   2.351
  776SOL    HW212798   1.768   2.832   2.361
  777SOL     OW12799   0.916   2.305   2.231
  777SOL    HW112800   0.987   2.264   2.288
  777SOL    HW212801   0.833   2.317   2.284
  778SOL     OW12802   0.191   7.887   0.046
  778SOL    HW112803   0.165   7.851   0.136
  778SOL    HW212804   0.157   7.981   0.037
  779SOL     OW12805   8.398   9.285   2.465
  779SOL    HW112806   8.352   9.240   2.542
  779SOL    HW212807   8.342   9.275   2.382
  780SOL     OW12808   3.007   6.272   2.762
  780SOL    HW112809   2.916   6.260   2.724
  780SOL    HW212810   3.001   6.288   2.861
  781SOL     OW12811   9.211   2.876   0.885
  781SOL    HW112812   9.301   2.885   0.928
  781SOL    HW212813   9.208   2.930   0.801
  782SOL     OW12814   2.627   6.220   0.137
  782SOL    HW112815   2.588   6.298   0.185
  782SOL    HW212816   2.727   6.231   0.130
  783SOL     OW12817   9.612   7.283   0.125
  783SOL    HW112818   9.673   7.346   0.173
  783SOL    HW212819   9.580   7.325   0.040
  784SOL     OW12820   9.575   2.911   3.165
  784SOL    HW112821   9.509   2.904   3.091
  784SOL    HW212822   9.531   2.953   3.245
  785SOL     OW12823   9.302   3.039   1.810
  785SOL    HW112824   9.335   3.051   1.903
  785SOL    HW212825   9.362   2.977   1.760
  786SOL     OW12826   3.308   7.166   2.039
  786SOL    HW112827   3.227   7.216   2.009
  786SOL    HW212828   3.351   7.121   1.961
  787SOL     OW12829   8.157   5.002   1.455
  787SOL    HW112830   8.114   5.078   1.504
  787SOL    HW212831   8.189   4.934   1.521
  788SOL     OW12832   7.937   2.360   1.593
  788SOL    HW112833   7.933   2.266   1.559
  788SOL    HW212834   7.972   2.359   1.687
  789SOL     OW12835   9.983   4.192   3.142
  789SOL    HW112836   9.996   4.251   3.222
  789SOL    HW212837   9.970   4.248   3.061
  790SOL     OW12838   1.681   7.417   2.764
  790SOL    HW112839   1.600   7.365   2.789
  790SOL    HW212840   1.655   7.492   2.703
  791SOL     OW12841   3.513   8.117   1.585
  791SOL    HW112842   3.556   8.202   1.614
  791SOL    HW212843   3.493   8.121   1.487
  792SOL     OW12844   0.918   4.204   3.049
  792SOL    HW112845   0.942   4.300   3.062
  792SOL    HW212846   0.988   4.158   2.995
  793SOL     OW12847   1.610   9.957   2.866
  793SOL    HW112848   1.644   0.049   2.882
  793SOL    HW212849   1.580   9.916   2.952
  794SOL     OW12850   8.810   5.427   2.550
  794SOL    HW112851   8.777   5.366   2.478
  794SOL    HW212852   8.735   5.447   2.613
  795SOL     OW12853   7.812   4.750   0.858
  795SOL    HW112854   7.843   4.822   0.920
  795SOL    HW212855   7.886   4.727   0.795
  796SOL     OW12856   1.479   3.016   3.420
  796SOL    HW112857   1.547   3.034   3.349
  796SOL    HW212858   1.517   3.040   3.509
  797SOL     OW12859   3.000   0.622   1.783
  797SOL    HW112860   2.970   0.716   1.765
  797SOL    HW212861   2.997   0.569   1.698
  798SOL     OW12862   1.383   6.040   1.793
  798SOL    HW112863   1.395   6.134   1.825
  798SOL    HW212864   1.461   6.015   1.735
  799SOL     OW12865   3.126   9.905   1.116
  799SOL    HW112866   3.043   9.854   1.090
  799SOL    HW212867   3.147   9.972   1.045
  800SOL     OW12868   1.600   7.892   0.855
  800SOL    HW112869   1.544   7.851   0.928
  800SOL    HW212870   1.646   7.819   0.804
  801SOL     OW12871   7.041   9.520   0.561
  801SOL    HW112872   7.101   9.473   0.496
  801SOL    HW212873   7.078   9.610   0.582
  802SOL     OW12874   2.800   8.965   1.676
  802SOL    HW112875   2.801   8.985   1.579
  802SOL    HW212876   2.717   8.912   1.698
  803SOL     OW12877   8.296   4.706   0.610
  803SOL    HW112878   8.356   4.664   0.678
  803SOL    HW212879   8.286   4.646   0.531
  804SOL     OW12880   0.302   1.508   0.456
  804SOL    HW112881   0.356   1.456   0.390
  804SOL    HW212882   0.249   1.444   0.512
  805SOL     OW12883   9.631   6.574   0.931
  805SOL    HW112884   9.677   6.486   0.919
  805SOL    HW212885   9.699   6.644   0.953
  806SOL     OW12886   0.375   0.537   0.706
  806SOL    HW112887   0.290   0.530   0.759
  806SOL    HW212888   0.406   0.631   0.706
  807SOL     OW12889   9.455   6.659   1.132
  807SOL    HW112890   9.513   6.638   1.054
  807SOL    HW212891   9.361   6.672   1.101
  808SOL     OW12892   0.886   0.605   3.329
  808SOL    HW112893   0.788   0.607   3.351
  808SOL    HW212894   0.929   0.689   3.362
  809SOL     OW12895   8.598   4.802   1.063
  809SOL    HW112896   8.571   4.708   1.044
  809SOL    HW212897   8.572   4.860   0.986
  810SOL     OW12898   6.932   0.102   1.308
  810SOL    HW112899   6.939   0.006   1.282
  810SOL    HW212900   7.022   0.145   1.302
  811SOL     OW12901   5.137   5.235   1.228
  811SOL    HW112902   5.038   5.220   1.229
  811SOL    HW212903   5.184   5.146   1.230
  812SOL     OW12904   9.005   4.308   1.412
  812SOL    HW112905   8.988   4.235   1.479
  812SOL    HW212906   8.954   4.390   1.439
  813SOL     OW12907   9.575   2.745   1.102
  813SOL    HW112908   9.521   2.666   1.130
  813SOL    HW212909   9.519   2.809   1.050
  814SOL     OW12910   4.688   8.210   0.761
  814SOL    HW112911   4.688   8.122   0.713
  814SOL    HW212912   4.754   8.272   0.717
  815SOL     OW12913   0.056   6.792   2.110
  815SOL    HW112914   9.990   6.854   2.067
  815SOL    HW212915   0.058   6.808   2.209
  816SOL     OW12916   3.267   8.813   3.639
  816SOL    HW112917   3.279   8.911   3.656
  816SOL    HW212918   3.337   8.781   3.576
  817SOL     OW12919   7.597   6.427   3.179
  817SOL    HW112920   7.570   6.511   3.133
  817SOL    HW212921   7.695   6.427   3.196
  818SOL     OW12922   2.870   4.842   0.459
  818SOL    HW112923   2.791   4.804   0.411
  818SOL    HW212924   2.840   4.916   0.520
  819SOL     OW12925   3.279   0.480   0.898
  819SOL    HW112926   3.201   0.517   0.848
  819SOL    HW212927   3.247   0.411   0.963
  820SOL     OW12928   8.613   1.733   2.393
  820SOL    HW112929   8.595   1.650   2.445
  820SOL    HW212930   8.597   1.716   2.296
  821SOL     OW12931   1.924   7.701   3.701
  821SOL    HW112932   1.925   7.658   3.791
  821SOL    HW212933   1.875   7.642   3.636
  822SOL     OW12934   9.059   5.923   2.705
  822SOL    HW112935   9.023   5.853   2.766
  822SOL    HW212936   9.128   5.883   2.645
  823SOL     OW12937   6.025   7.590   2.202
  823SOL    HW112938   6.062   7.537   2.278
  823SOL    HW212939   5.946   7.542   2.163
  824SOL     OW12940   8.560   4.828   3.698
  824SOL    HW112941   8.530   4.735   3.719
  824SOL    HW212942   8.491   4.873   3.642
  825SOL     OW12943   1.948   5.045   2.088
  825SOL    HW112944   2.015   4.974   2.065
  825SOL    HW212945   1.940   5.051   2.188
  826SOL     OW12946   8.161   7.409   2.119
  826SOL    HW112947   8.072   7.419   2.073
  826SOL    HW212948   8.197   7.499   2.141
  827SOL     OW12949   2.625   5.344   2.227
  827SOL    HW112950   2.703   5.403   2.206
  827SOL    HW212951   2.578   5.379   2.308
  828SOL     OW12952   2.784   2.557   0.329
  828SOL    HW112953   2.753   2.641   0.373
  828SOL    HW212954   2.879   2.568   0.298
  829SOL     OW12955   1.953   9.272   1.992
  829SOL    HW112956   1.921   9.265   1.898
  829SOL    HW212957   1.880   9.311   2.049
  830SOL     OW12958   4.190   3.888   1.718
  830SOL    HW112959   4.131   3.908   1.639
  830SOL    HW212960   4.281   3.864   1.686
  831SOL     OW12961   2.740   7.405   3.074
  831SOL    HW112962   2.674   7.431   3.003
  831SOL    HW212963   2.814   7.352   3.034
  832SOL     OW12964   3.335   9.352   1.568
  832SOL    HW112965   3.269   9.425   1.551
  832SOL    HW212966   3.326   9.281   1.498
  833SOL     OW12967   3.133   2.844   2.573
  833SOL    HW112968   3.057   2.804   2.521
  833SOL    HW212969   3.211   2.781   2.571
  834SOL     OW12970   0.884   4.837   2.725
  834SOL    HW112971   0.875   4.737   2.721
  834SOL    HW212972   0.971   4.865   2.685
  835SOL     OW12973   0.933   1.938   0.995
  835SOL    HW112974   0.917   2.009   0.927
  835SOL    HW212975   0.997   1.971   1.064
  836SOL     OW12976   5.496   9.799   3.562
  836SOL    HW112977   5.585   9.775   3.600
  836SOL    HW212978   5.481   9.898   3.572
  837SOL     OW12979   9.519   2.657   2.270
  837SOL    HW112980   9.618   2.662   2.255
  837SOL    HW212981   9.491   2.561   2.268
  838SOL     OW12982   1.963   5.775   0.466
  838SOL    HW112983   2.060   5.764   0.446
  838SOL    HW212984   1.916   5.687   0.451
  839SOL     OW12985   5.920   8.128   2.890
  839SOL    HW112986   5.918   8.091   2.797
  839SOL    HW212987   5.946   8.224   2.887
  840SOL     OW12988   5.216   7.233   2.154
  840SOL    HW112989   5.119   7.215   2.138
  840SOL    HW212990   5.265   7.226   2.067
  841SOL     OW12991   4.905   1.225   2.137
  841SOL    HW112992   5.001   1.197   2.127
  841SOL    HW212993   4.888   1.254   2.231
  842SOL     OW12994   6.912   8.626   2.855
  842SOL    HW112995   6.987   8.688   2.881
  842SOL    HW212996   6.915   8.544   2.912
  843SOL     OW12997   8.157   8.149   1.053
  843SOL    HW112998   8.213   8.211   0.998
  843SOL    HW212999   8.101   8.093   0.993
  844SOL     OW13000   0.211   0.286   1.777
  844SOL    HW113001   0.286   0.347   1.805
  844SOL    HW213002   0.123   0.329   1.795
  845SOL     OW13003   0.335   9.745   1.830
  845SOL    HW113004   0.237   9.735   1.814
  845SOL    HW213005   0.350   9.773   1.925
  846SOL     OW13006   1.288   6.286   2.283
  846SOL    HW113007   1.257   6.214   2.221
  846SOL    HW213008   1.221   6.360   2.284
  847SOL     OW13009   0.053   1.701   1.332
  847SOL    HW113010   0.017   1.657   1.415
  847SOL    HW213011   0.152   1.708   1.338
  848SOL     OW13012   4.357   2.087   2.471
  848SOL    HW113013   4.456   2.073   2.471
  848SOL    HW213014   4.329   2.130   2.556
  849SOL     OW13015   8.910   4.300   3.452
  849SOL    HW113016   8.925   4.315   3.550
  849SOL    HW213017   8.977   4.353   3.400
  850SOL     OW13018   7.383   9.416   2.131
  850SOL    HW113019   7.339   9.464   2.206
  850SOL    HW213020   7.476   9.450   2.119
  851SOL     OW13021   4.540   6.988   3.696
  851SOL    HW113022   4.636   6.966   3.682
  851SOL    HW213023   4.486   6.904   3.693
  852SOL     OW13024   3.400   9.994   0.738
  852SOL    HW113025   3.485   0.003   0.789
  852SOL    HW213026   3.401   0.057   0.660
  853SOL     OW13027   7.945   7.417   2.749
  853SOL    HW113028   7.909   7.459   2.832
  853SOL    HW213029   7.916   7.321   2.746
  854SOL     OW13030   4.354   0.895   3.155
  854SOL    HW113031   4.353   0.988   3.118
  854SOL    HW213032   4.372   0.830   3.082
  855SOL     OW13033   0.570   5.168   0.871
  855SOL    HW113034   0.663   5.188   0.902
  855SOL    HW213035   0.573   5.102   0.795
  856SOL     OW13036   9.956   3.186   2.629
  856SOL    HW113037   9.952   3.281   2.660
  856SOL    HW213038   9.924   3.181   2.534
  857SOL     OW13039   4.551   0.963   1.535
  857SOL    HW113040   4.569   0.904   1.614
  857SOL    HW213041   4.508   0.908   1.463
  858SOL     OW13042   9.633   6.193   0.377
  858SOL    HW113043   9.574   6.216   0.455
  858SOL    HW213044   9.727   6.183   0.409
  859SOL     OW13045   3.757   1.852   1.558
  859SOL    HW113046   3.844   1.856   1.607
  859SOL    HW213047   3.734   1.943   1.524
  860SOL     OW13048   3.553   0.864   0.351
  860SOL    HW113049   3.637   0.901   0.310
  860SOL    HW213050   3.531   0.916   0.434
  861SOL     OW13051   4.798   4.491   1.907
  861SOL    HW113052   4.791   4.591   1.909
  861SOL    HW213053   4.810   4.460   1.812
  862SOL     OW13054   8.325   7.871   0.583
  862SOL    HW113055   8.236   7.841   0.619
  862SOL    HW213056   8.322   7.969   0.564
  863SOL     OW13057   4.296   6.836   2.265
  863SOL    HW113058   4.349   6.780   2.329
  863SOL    HW213059   4.205   6.797   2.254
  864SOL     OW13060   7.731   6.087   3.154
  864SOL    HW113061   7.719   6.150   3.077
  864SOL    HW213062   7.828   6.082   3.178
  865SOL     OW13063   9.255   8.658   0.915
  865SOL    HW113064   9.212   8.748   0.904
  865SOL    HW213065   9.248   8.629   1.010
  866SOL     OW13066   3.702   4.753   1.265
  866SOL    HW113067   3.756   4.792   1.339
  866SOL    HW213068   3.731   4.792   1.178
  867SOL     OW13069   2.037   3.108   1.505
  867SOL    HW113070   1.990   3.141   1.423
  867SOL    HW213071   1.973   3.059   1.563
  868SOL     OW13072   7.324   0.235   0.483
  868SOL    HW113073   7.394   0.268   0.547
  868SOL    HW213074   7.338   0.277   0.393
  869SOL     OW13075   2.198   3.479   1.986
  869SOL    HW113076   2.209   3.536   1.904
  869SOL    HW213077   2.104   3.445   1.990
  870SOL     OW13078   9.794   1.468   2.491
  870SOL    HW113079   9.787   1.477   2.590
  870SOL    HW213080   9.720   1.409   2.458
  871SOL     OW13081   6.468   9.242   2.169
  871SOL    HW113082   6.511   9.152   2.158
  871SOL    HW213083   6.379   9.231   2.213
  872SOL     OW13084   2.180   0.891   0.977
  872SOL    HW113085   2.113   0.937   1.036
  872SOL    HW213086   2.269   0.935   0.986
  873SOL     OW13087   3.155   8.355   0.609
  873SOL    HW113088   3.171   8.274   0.553
  873SOL    HW213089   3.158   8.330   0.706
  874SOL     OW13090   8.157   1.516   2.367
  874SOL    HW113091   8.201   1.595   2.325
  874SOL    HW213092   8.129   1.452   2.295
  875SOL     OW13093   7.521   6.948   2.706
  875SOL    HW113094   7.588   6.906   2.644
  875SOL    HW213095   7.432   6.904   2.694
  876SOL     OW13096   1.098   7.203   1.494
  876SOL    HW113097   1.078   7.176   1.400
  876SOL    HW213098   1.042   7.149   1.557
  877SOL     OW13099   0.133   4.421   2.362
  877SOL    HW113100   0.047   4.471   2.374
  877SOL    HW213101   0.204   4.465   2.417
  878SOL     OW13102   3.567   8.953   2.612
  878SOL    HW113103   3.516   8.871   2.638
  878SOL    HW213104   3.609   8.994   2.693
  879SOL     OW13105   8.733   7.919   1.576
  879SOL    HW113106   8.800   7.892   1.645
  879SOL    HW213107   8.763   7.887   1.486
  880SOL     OW13108   8.414   6.795   0.733
  880SOL    HW113109   8.423   6.698   0.752
  880SOL    HW213110   8.430   6.812   0.635
  881SOL     OW13111   2.956   1.331   3.312
  881SOL    HW113112   2.919   1.278   3.236
  881SOL    HW213113   3.029   1.391   3.280
  882SOL     OW13114   3.731   1.267   0.948
  882SOL    HW113115   3.725   1.196   0.877
  882SOL    HW213116   3.643   1.312   0.958
  883SOL     OW13117   0.817   8.067   0.856
  883SOL    HW113118   0.853   8.021   0.775
  883SOL    HW213119   0.727   8.030   0.879
  884SOL     OW13120   5.865   8.112   3.659
  884SOL    HW113121   5.864   8.209   3.631
  884SOL    HW213122   5.772   8.084   3.682
  885SOL     OW13123   9.030   7.438   2.116
  885SOL    HW113124   9.045   7.341   2.137
  885SOL    HW213125   8.958   7.446   2.047
  886SOL     OW13126   1.617   6.385   1.037
  886SOL    HW113127   1.654   6.362   0.947
  886SOL    HW213128   1.643   6.314   1.103
  887SOL     OW13129   9.913   2.743   1.969
  887SOL    HW113130   9.936   2.836   1.943
  887SOL    HW213131   9.993   2.697   2.007
  888SOL     OW13132   3.731   4.478   0.886
  888SOL    HW113133   3.721   4.494   0.788
  888SOL    HW213134   3.659   4.527   0.936
  889SOL     OW13135   1.646   5.248   1.079
  889SOL    HW113136   1.558   5.280   1.043
  889SOL    HW213137   1.695   5.324   1.120
  890SOL     OW13138   1.353   8.379   1.544
  890SOL    HW113139   1.346   8.300   1.483
  890SOL    HW213140   1.290   8.451   1.513
  891SOL     OW13141   7.417   9.142   3.264
  891SOL    HW113142   7.463   9.094   3.189
  891SOL    HW213143   7.349   9.081   3.305
  892SOL     OW13144   2.812   2.919   1.649
  892SOL    HW113145   2.852   2.852   1.712
  892SOL    HW213146   2.876   2.994   1.635
  893SOL     OW13147   3.606   0.270   2.921
  893SOL    HW113148   3.547   0.209   2.974
  893SOL    HW213149   3.576   0.273   2.826
  894SOL     OW13150   4.864   6.921   3.172
  894SOL    HW113151   4.955   6.902   3.136
  894SOL    HW213152   4.811   6.969   3.102
  895SOL     OW13153   7.684   4.138   0.154
  895SOL    HW113154   7.602   4.188   0.127
  895SOL    HW213155   7.756   4.154   0.087
  896SOL     OW13156   2.434   3.327   1.655
  896SOL    HW113157   2.457   3.329   1.752
  896SOL    HW213158   2.336   3.311   1.645
  897SOL     OW13159   2.866   6.223   0.869
  897SOL    HW113160   2.838   6.186   0.958
  897SOL    HW213161   2.948   6.176   0.837
  898SOL     OW13162   4.086   2.488   1.399
  898SOL    HW113163   4.136   2.437   1.468
  898SOL    HW213164   4.018   2.428   1.356
  899SOL     OW13165   1.286   9.379   2.920
  899SOL    HW113166   1.254   9.464   2.878
  899SOL    HW213167   1.384   9.388   2.941
  900SOL     OW13168   8.611   2.218   2.759
  900SOL    HW113169   8.605   2.131   2.710
  900SOL    HW213170   8.702   2.258   2.745
  901SOL     OW13171   2.474   0.818   0.571
  901SOL    HW113172   2.390   0.818   0.624
  901SOL    HW213173   2.453   0.826   0.474
  902SOL     OW13174   0.366   6.515   3.617
  902SOL    HW113175   0.345   6.476   3.706
  902SOL    HW213176   0.314   6.466   3.546
  903SOL     OW13177   3.855   3.799   1.880
  903SOL    HW113178   3.950   3.798   1.851
  903SOL    HW213179   3.796   3.781   1.801
  904SOL     OW13180   1.418   8.677   1.627
  904SOL    HW113181   1.368   8.755   1.664
  904SOL    HW213182   1.379   8.592   1.661
  905SOL     OW13183   0.336   1.683   1.378
  905SOL    HW113184   0.381   1.619   1.316
  905SOL    HW213185   0.350   1.654   1.473
  906SOL     OW13186   0.444   2.887   1.936
  906SOL    HW113187   0.420   2.978   1.902
  906SOL    HW213188   0.438   2.885   2.035
  907SOL     OW13189   3.769   0.740   0.967
  907SOL    HW113190   3.797   0.726   0.872
  907SOL    HW213191   3.833   0.803   1.011
  908SOL     OW13192   3.616   6.561   2.237
  908SOL    HW113193   3.683   6.489   2.221
  908SOL    HW213194   3.639   6.641   2.182
  909SOL     OW13195   3.297   6.723   1.008
  909SOL    HW113196   3.251   6.695   1.092
  909SOL    HW213197   3.388   6.683   1.004
  910SOL     OW13198   7.771   9.971   1.957
  910SOL    HW113199   7.769   9.954   2.055
  910SOL    HW213200   7.861   9.947   1.921
  911SOL     OW13201   0.025   2.737   3.083
  911SOL    HW113202   0.062   2.645   3.100
  911SOL    HW213203   9.937   2.746   3.128
  912SOL     OW13204   2.594   1.479   3.098
  912SOL    HW113205   2.556   1.393   3.064
  912SOL    HW213206   2.537   1.513   3.174
  913SOL     OW13207   1.027   3.267   0.086
  913SOL    HW113208   1.096   3.259   0.013
  913SOL    HW213209   1.062   3.325   0.159
  914SOL     OW13210   8.399   6.589   1.449
  914SOL    HW113211   8.404   6.520   1.522
  914SOL    HW213212   8.394   6.543   1.360
  915SOL     OW13213   1.774   0.639   0.312
  915SOL    HW113214   1.725   0.698   0.248
  915SOL    HW213215   1.776   0.546   0.277
  916SOL     OW13216   6.821   0.051   3.300
  916SOL    HW113217   6.730   0.042   3.261
  916SOL    HW213218   6.820   0.021   3.395
  917SOL     OW13219   2.264   4.466   2.474
  917SOL    HW113220   2.360   4.489   2.486
  917SOL    HW213221   2.255   4.389   2.411
  918SOL     OW13222   7.793   0.794   2.369
  918SOL    HW113223   7.733   0.714   2.373
  918SOL    HW213224   7.737   0.877   2.370
  919SOL     OW13225   4.670   0.659   2.092
  919SOL    HW113226   4.599   0.715   2.049
  919SOL    HW213227   4.631   0.571   2.118
  920SOL     OW13228   1.279   3.936   0.051
  920SOL    HW113229   1.363   3.881   0.055
  920SOL    HW213230   1.287   4.004   4.760
  921SOL     OW13231   2.650   9.837   0.737
  921SOL    HW113232   2.678   9.860   0.644
  921SOL    HW213233   2.581   9.903   0.768
  922SOL     OW13234   0.125   6.892   0.440
  922SOL    HW113235   0.194   6.857   0.504
  922SOL    HW213236   0.165   6.965   0.385
  923SOL     OW13237   4.696   8.659   1.351
  923SOL    HW113238   4.771   8.598   1.375
  923SOL    HW213239   4.731   8.752   1.340
  924SOL     OW13240   8.975   0.992   3.549
  924SOL    HW113241   8.964   1.048   3.467
  924SOL    HW213242   9.066   1.007   3.588
  925SOL     OW13243   2.688   8.462   2.552
  925SOL    HW113244   2.677   8.555   2.587
  925SOL    HW213245   2.598   8.422   2.533
  926SOL     OW13246   1.752   4.245   2.420
  926SOL    HW113247   1.723   4.209   2.509
  926SOL    HW213248   1.717   4.338   2.409
  927SOL     OW13249   2.227   0.082   2.936
  927SOL    HW113250   2.215   0.028   3.020
  927SOL    HW213251   2.325   0.095   2.919
  928SOL     OW13252   8.430   5.762   0.526
  928SOL    HW113253   8.521   5.752   0.485
  928SOL    HW213254   8.360   5.747   0.456
  929SOL     OW13255   9.183   4.043   3.544
  929SOL    HW113256   9.250   3.998   3.603
  929SOL    HW213257   9.107   3.981   3.527
  930SOL     OW13258   2.177   3.124   0.929
  930SOL    HW113259   2.134   3.034   0.938
  930SOL    HW213260   2.215   3.135   0.837
  931SOL     OW13261   4.865   0.847   3.497
  931SOL    HW113262   4.854   0.748   3.500
  931SOL    HW213263   4.962   0.870   3.496
  932SOL     OW13264   1.684   2.289   0.490
  932SOL    HW113265   1.627   2.271   0.570
  932SOL    HW213266   1.676   2.385   0.465
  933SOL     OW13267   3.429   5.521   2.206
  933SOL    HW113268   3.412   5.618   2.224
  933SOL    HW213269   3.470   5.510   2.115
  934SOL     OW13270   7.123   9.085   2.933
  934SOL    HW113271   7.169   9.073   3.021
  934SOL    HW213272   7.168   9.028   2.864
  935SOL     OW13273   3.526   4.642   0.985
  935SOL    HW113274   3.483   4.690   1.061
  935SOL    HW213275   3.468   4.647   0.904
  936SOL     OW13276   3.537   2.974   1.241
  936SOL    HW113277   3.586   3.001   1.158
  936SOL    HW213278   3.568   2.884   1.270
  937SOL     OW13279   7.787   0.134   2.970
  937SOL    HW113280   7.802   0.038   2.996
  937SOL    HW213281   7.791   0.192   3.051
  938SOL     OW13282   8.549   1.486   2.502
  938SOL    HW113283   8.575   1.413   2.438
  938SOL    HW213284   8.459   1.466   2.540
  939SOL     OW13285   6.425   9.361   1.920
  939SOL    HW113286   6.449   9.326   2.010
  939SOL    HW213287   6.450   9.458   1.914
  940SOL     OW13288   9.535   1.393   3.277
  940SOL    HW113289   9.544   1.475   3.221
  940SOL    HW213290   9.619   1.380   3.331
  941SOL     OW13291   7.560   1.952   1.407
  941SOL    HW113292   7.601   1.936   1.497
  941SOL    HW213293   7.611   2.025   1.360
  942SOL     OW13294   2.858   2.604   2.644
  942SOL    HW113295   2.876   2.518   2.692
  942SOL    HW213296   2.910   2.607   2.559
  943SOL     OW13297   0.114   0.792   2.373
  943SOL    HW113298   0.062   0.784   2.287
  943SOL    HW213299   0.155   0.883   2.378
  944SOL     OW13300   2.828   6.920   3.034
  944SOL    HW113301   2.853   6.870   3.116
  944SOL    HW213302   2.744   6.971   3.050
  945SOL     OW13303   0.854   8.062   1.751
  945SOL    HW113304   0.762   8.023   1.742
  945SOL    HW213305   0.913   8.026   1.679
  946SOL     OW13306   0.437   8.579   2.258
  946SOL    HW113307   0.476   8.490   2.281
  946SOL    HW213308   0.348   8.565   2.214
  947SOL     OW13309   8.074   6.685   3.602
  947SOL    HW113310   8.073   6.586   3.586
  947SOL    HW213311   8.163   6.712   3.638
  948SOL     OW13312   9.277   4.986   0.749
  948SOL    HW113313   9.283   5.085   0.766
  948SOL    HW213314   9.308   4.937   0.830
  949SOL     OW13315   2.122   2.319   2.646
  949SOL    HW113316   2.028   2.286   2.637
  949SOL    HW213317   2.169   2.268   2.717
  950SOL     OW13318   0.782   5.278   3.079
  950SOL    HW113319   0.849   5.218   3.037
  950SOL    HW213320   0.708   5.223   3.118
  951SOL     OW13321   3.070   5.330   3.054
  951SOL    HW113322   3.074   5.291   3.146
  951SOL    HW213323   3.127   5.412   3.050
  952SOL     OW13324   4.745   7.625   0.421
  952SOL    HW113325   4.719   7.620   0.325
  952SOL    HW213326   4.810   7.552   0.442
  953SOL     OW13327   1.326   1.956   1.657
  953SOL    HW113328   1.227   1.963   1.669
  953SOL    HW213329   1.372   2.010   1.728
  954SOL     OW13330   0.653   7.436   3.580
  954SOL    HW113331   0.614   7.522   3.548
  954SOL    HW213332   0.609   7.360   3.533
  955SOL     OW13333   9.279   6.831   0.193
  955SOL    HW113334   9.217   6.908   0.204
  955SOL    HW213335   9.242   6.750   0.239
  956SOL     OW13336   3.959   3.331   2.858
  956SOL    HW113337   3.929   3.355   2.950
  956SOL    HW213338   3.880   3.329   2.797
  957SOL     OW13339   1.353   7.975   2.701
  957SOL    HW113340   1.280   8.029   2.743
  957SOL    HW213341   1.438   8.028   2.702
  958SOL     OW13342   2.688   4.704   3.205
  958SOL    HW113343   2.690   4.797   3.242
  958SOL    HW213344   2.746   4.645   3.262
  959SOL     OW13345   3.375   8.098   1.826
  959SOL    HW113346   3.419   8.100   1.736
  959SOL    HW213347   3.409   8.175   1.881
  960SOL     OW13348   5.718   8.796   3.463
  960SOL    HW113349   5.627   8.800   3.422
  960SOL    HW213350   5.783   8.849   3.407
  961SOL     OW13351   2.780   2.767   2.848
  961SOL    HW113352   2.851   2.825   2.889
  961SOL    HW213353   2.820   2.714   2.773
  962SOL     OW13354   9.507   6.997   2.764
  962SOL    HW113355   9.522   6.965   2.670
  962SOL    HW213356   9.563   6.944   2.827
  963SOL     OW13357   6.975   0.786   2.571
  963SOL    HW113358   6.986   0.711   2.636
  963SOL    HW213359   6.909   0.852   2.607
  964SOL     OW13360   8.150   2.433   2.746
  964SOL    HW113361   8.090   2.360   2.777
  964SOL    HW213362   8.111   2.479   2.667
  965SOL     OW13363   2.202   4.200   0.722
  965SOL    HW113364   2.204   4.163   0.629
  965SOL    HW213365   2.296   4.211   0.754
  966SOL     OW13366   2.986   7.582   1.215
  966SOL    HW113367   2.901   7.541   1.249
  966SOL    HW213368   3.048   7.598   1.291
  967SOL     OW13369   7.870   6.421   3.206
  967SOL    HW113370   7.959   6.407   3.249
  967SOL    HW213371   7.880   6.479   3.126
  968SOL     OW13372   4.240   7.131   3.068
  968SOL    HW113373   4.172   7.198   3.040
  968SOL    HW213374   4.265   7.074   2.990
  969SOL     OW13375   8.168   5.760   3.630
  969SOL    HW113376   8.266   5.781   3.630
  969SOL    HW213377   8.117   5.836   3.670
  970SOL     OW13378   3.492   3.443   1.289
  970SOL    HW113379   3.439   3.519   1.252
  970SOL    HW213380   3.552   3.405   1.218
  971SOL     OW13381   8.931   7.824   1.742
  971SOL    HW113382   9.000   7.843   1.672
  971SOL    HW213383   8.972   7.835   1.833
  972SOL     OW13384   2.277   1.628   0.334
  972SOL    HW113385   2.276   1.549   0.395
  972SOL    HW213386   2.233   1.605   0.247
  973SOL     OW13387   2.476   1.972   1.564
  973SOL    HW113388   2.400   2.036   1.567
  973SOL    HW213389   2.547   2.008   1.504
  974SOL     OW13390   3.851   3.742   2.694
  974SOL    HW113391   3.789   3.675   2.652
  974SOL    HW213392   3.850   3.730   2.794
  975SOL     OW13393   0.434   5.849   3.079
  975SOL    HW113394   0.511   5.879   3.022
  975SOL    HW213395   0.381   5.780   3.030
  976SOL     OW13396   5.877   9.346   2.494
  976SOL    HW113397   5.808   9.351   2.422
  976SOL    HW213398   5.943   9.420   2.482
  977SOL     OW13399   4.608   0.667   0.182
  977SOL    HW113400   4.604   0.619   0.270
  977SOL    HW213401   4.638   0.761   0.197
  978SOL     OW13402   3.378   6.033   3.462
  978SOL    HW113403   3.441   6.061   3.389
  978SOL    HW213404   3.343   6.114   3.509
  979SOL     OW13405   5.894   9.313   1.970
  979SOL    HW113406   5.845   9.337   1.886
  979SOL    HW213407   5.847   9.237   2.015
  980SOL     OW13408   1.381   8.435   2.317
  980SOL    HW113409   1.363   8.340   2.290
  980SOL    HW213410   1.295   8.484   2.324
  981SOL     OW13411   9.258   4.286   2.267
  981SOL    HW113412   9.204   4.347   2.325
  981SOL    HW213413   9.312   4.339   2.203
  982SOL     OW13414   1.466   6.148   0.443
  982SOL    HW113415   1.549   6.143   0.499
  982SOL    HW213416   1.468   6.074   0.376
  983SOL     OW13417   0.653   1.013   0.129
  983SOL    HW113418   0.571   1.070   0.120
  983SOL    HW213419   0.633   0.921   0.096
  984SOL     OW13420   7.770   5.108   0.683
  984SOL    HW113421   7.797   5.164   0.605
  984SOL    HW213422   7.851   5.080   0.734
  985SOL     OW13423   8.292   4.535   0.395
  985SOL    HW113424   8.215   4.496   0.345
  985SOL    HW213425   8.356   4.578   0.332
  986SOL     OW13426   8.091   8.932   0.190
  986SOL    HW113427   7.997   8.912   0.160
  986SOL    HW213428   8.095   8.929   0.290
  987SOL     OW13429   3.491   2.300   2.664
  987SOL    HW113430   3.483   2.294   2.564
  987SOL    HW213431   3.531   2.216   2.699
  988SOL     OW13432   9.591   4.595   1.182
  988SOL    HW113433   9.535   4.594   1.098
  988SOL    HW213434   9.657   4.520   1.179
  989SOL     OW13435   1.516   7.131   0.193
  989SOL    HW113436   1.609   7.100   0.174
  989SOL    HW213437   1.519   7.211   0.253
  990SOL     OW13438   7.325   9.719   1.449
  990SOL    HW113439   7.367   9.678   1.529
  990SOL    HW213440   7.366   9.681   1.366
  991SOL     OW13441   4.417   2.660   1.637
  991SOL    HW113442   4.458   2.608   1.562
  991SOL    HW213443   4.329   2.698   1.606
  992SOL     OW13444   5.251   7.697   2.287
  992SOL    HW113445   5.229   7.724   2.193
  992SOL    HW213446   5.170   7.707   2.344
  993SOL     OW13447   1.872   1.536   0.887
  993SOL    HW113448   1.786   1.559   0.843
  993SOL    HW213449   1.914   1.619   0.925
  994SOL     OW13450   0.638   0.607   1.582
  994SOL    HW113451   0.548   0.563   1.584
  994SOL    HW213452   0.680   0.601   1.673
  995SOL     OW13453   9.350   9.675   2.552
  995SOL    HW113454   9.310   9.701   2.464
  995SOL    HW213455   9.296   9.715   2.626
  996SOL     OW13456   1.336   0.730   3.092
  996SOL    HW113457   1.426   0.722   3.136
  996SOL    HW213458   1.347   0.725   2.993
  997SOL     OW13459   7.438   2.111   2.889
  997SOL    HW113460   7.402   2.041   2.827
  997SOL    HW213461   7.446   2.073   2.981
  998SOL     OW13462   9.749   2.682   0.744
  998SOL    HW113463   9.670   2.742   0.729
  998SOL    HW213464   9.794   2.707   0.830
  999SOL     OW13465   0.136   1.367   0.645
  999SOL    HW113466   0.121   1.464   0.664
  999SOL    HW213467   0.164   1.321   0.730
 1000SOL     OW13468   7.642   0.895   2.665
 1000SOL    HW113469   7.730   0.848   2.666
 1000SOL    HW213470   7.588   0.867   2.744
 1001SOL     OW13471   0.212   0.655   3.558
 1001SOL    HW113472   0.171   0.564   3.571
 1001SOL    HW213473   0.145   0.725   3.581
 1002SOL     OW13474   2.117   6.115   1.318
 1002SOL    HW113475   2.178   6.133   1.395
 1002SOL    HW213476   2.026   6.151   1.339
 1003SOL     OW13477   0.467   7.558   1.116
 1003SOL    HW113478   0.514   7.643   1.138
 1003SOL    HW213479   0.492   7.529   1.023
 1004SOL     OW13480   8.607   8.674   1.193
 1004SOL    HW113481   8.612   8.755   1.251
 1004SOL    HW213482   8.548   8.693   1.115
 1005SOL     OW13483   2.710   8.935   1.048
 1005SOL    HW113484   2.805   8.961   1.028
 1005SOL    HW213485   2.681   8.863   0.985
 1006SOL     OW13486   3.289   9.462   3.449
 1006SOL    HW113487   3.309   9.500   3.539
 1006SOL    HW213488   3.360   9.490   3.384
 1007SOL     OW13489   0.299   8.949   2.712
 1007SOL    HW113490   0.291   8.988   2.621
 1007SOL    HW213491   0.249   8.862   2.716
 1008SOL     OW13492   9.793   0.901   2.785
 1008SOL    HW113493   9.887   0.923   2.759
 1008SOL    HW213494   9.788   0.807   2.818
 1009SOL     OW13495   6.577   8.184   2.243
 1009SOL    HW113496   6.535   8.219   2.159
 1009SOL    HW213497   6.666   8.228   2.256
 1010SOL     OW13498   3.613   2.752   2.613
 1010SOL    HW113499   3.587   2.786   2.704
 1010SOL    HW213500   3.651   2.660   2.621
 1011SOL     OW13501   1.367   2.390   0.333
 1011SOL    HW113502   1.370   2.373   0.431
 1011SOL    HW213503   1.341   2.306   0.285
 1012SOL     OW13504   5.438   6.423   2.660
 1012SOL    HW113505   5.417   6.521   2.650
 1012SOL    HW213506   5.488   6.409   2.745
 1013SOL     OW13507   2.520   9.117   2.935
 1013SOL    HW113508   2.553   9.155   3.021
 1013SOL    HW213509   2.508   9.018   2.945
 1014SOL     OW13510   8.885   5.477   1.980
 1014SOL    HW113511   8.931   5.468   1.892
 1014SOL    HW213512   8.823   5.556   1.977
 1015SOL     OW13513   8.392   2.402   1.463
 1015SOL    HW113514   8.476   2.369   1.419
 1015SOL    HW213515   8.342   2.461   1.399
 1016SOL     OW13516   8.969   5.931   1.359
 1016SOL    HW113517   9.053   5.878   1.355
 1016SOL    HW213518   8.990   6.028   1.366
 1017SOL     OW13519   8.314   7.192   2.046
 1017SOL    HW113520   8.285   7.122   2.111
 1017SOL    HW213521   8.266   7.277   2.065
 1018SOL     OW13522   6.242   9.235   2.574
 1018SOL    HW113523   6.330   9.202   2.608
 1018SOL    HW213524   6.226   9.327   2.610
 1019SOL     OW13525   4.616   2.008   0.548
 1019SOL    HW113526   4.557   1.952   0.606
 1019SOL    HW213527   4.633   2.096   0.593
 1020SOL     OW13528   9.184   9.364   1.186
 1020SOL    HW113529   9.152   9.453   1.154
 1020SOL    HW213530   9.265   9.338   1.135
 1021SOL     OW13531   9.557   5.635   0.156
 1021SOL    HW113532   9.603   5.553   0.122
 1021SOL    HW213533   9.476   5.653   0.099
 1022SOL     OW13534   2.304   5.169   0.136
 1022SOL    HW113535   2.278   5.236   0.205
 1022SOL    HW213536   2.221   5.132   0.093
 1023SOL     OW13537   2.771   4.164   1.868
 1023SOL    HW113538   2.815   4.250   1.895
 1023SOL    HW213539   2.811   4.088   1.921
 1024SOL     OW13540   0.936   7.223   3.700
 1024SOL    HW113541   0.920   7.320   3.682
 1024SOL    HW213542   0.858   7.170   3.667
 1025SOL     OW13543   5.868   0.116   3.070
 1025SOL    HW113544   5.770   0.098   3.077
 1025SOL    HW213545   5.919   0.033   3.092
 1026SOL     OW13546   3.998   4.552   0.224
 1026SOL    HW113547   3.998   4.651   0.243
 1026SOL    HW213548   4.092   4.519   0.223
 1027SOL     OW13549   7.327   9.451   2.541
 1027SOL    HW113550   7.271   9.368   2.547
 1027SOL    HW213551   7.397   9.450   2.612
 1028SOL     OW13552   2.964   4.640   0.631
 1028SOL    HW113553   3.034   4.693   0.678
 1028SOL    HW213554   2.925   4.694   0.556
 1029SOL     OW13555   3.236   5.821   1.016
 1029SOL    HW113556   3.203   5.873   0.937
 1029SOL    HW213557   3.225   5.723   0.998
 1030SOL     OW13558   9.853   6.493   0.293
 1030SOL    HW113559   9.755   6.504   0.279
 1030SOL    HW213560   9.891   6.576   0.333
 1031SOL     OW13561   1.520   3.747   1.530
 1031SOL    HW113562   1.566   3.699   1.455
 1031SOL    HW213563   1.562   3.721   1.617
 1032SOL     OW13564   3.652   1.081   1.788
 1032SOL    HW113565   3.566   1.071   1.839
 1032SOL    HW213566   3.640   1.149   1.716
 1033SOL     OW13567   1.509   0.259   0.308
 1033SOL    HW113568   1.416   0.250   0.344
 1033SOL    HW213569   1.558   0.173   0.322
 1034SOL     OW13570   2.196   2.330   0.956
 1034SOL    HW113571   2.237   2.350   0.867
 1034SOL    HW213572   2.252   2.264   1.005
 1035SOL     OW13573   5.663   0.527   1.779
 1035SOL    HW113574   5.715   0.528   1.694
 1035SOL    HW213575   5.607   0.444   1.783
 1036SOL     OW13576   1.702   3.347   2.436
 1036SOL    HW113577   1.772   3.326   2.369
 1036SOL    HW213578   1.736   3.327   2.528
 1037SOL     OW13579   0.108   7.721   3.218
 1037SOL    HW113580   0.079   7.814   3.197
 1037SOL    HW213581   0.067   7.657   3.153
 1038SOL     OW13582   0.897   9.625   0.506
 1038SOL    HW113583   0.980   9.584   0.543
 1038SOL    HW213584   0.849   9.675   0.578
 1039SOL     OW13585   9.052   7.835   1.186
 1039SOL    HW113586   9.095   7.746   1.199
 1039SOL    HW213587   9.114   7.907   1.217
 1040SOL     OW13588   2.567   7.618   2.063
 1040SOL    HW113589   2.658   7.654   2.044
 1040SOL    HW213590   2.504   7.644   1.989
 1041SOL     OW13591   8.898   3.138   3.385
 1041SOL    HW113592   8.949   3.084   3.318
 1041SOL    HW213593   8.867   3.223   3.343
 1042SOL     OW13594   1.752   5.771   1.188
 1042SOL    HW113595   1.660   5.808   1.175
 1042SOL    HW213596   1.811   5.799   1.112
 1043SOL     OW13597   0.731   8.167   2.213
 1043SOL    HW113598   0.772   8.177   2.122
 1043SOL    HW213599   0.683   8.080   2.218
 1044SOL     OW13600   8.748   5.324   0.223
 1044SOL    HW113601   8.659   5.345   0.182
 1044SOL    HW213602   8.735   5.263   0.301
 1045SOL     OW13603   4.985   1.415   3.113
 1045SOL    HW113604   4.938   1.442   3.197
 1045SOL    HW213605   5.055   1.483   3.091
 1046SOL     OW13606   3.601   3.167   2.160
 1046SOL    HW113607   3.524   3.137   2.103
 1046SOL    HW213608   3.575   3.161   2.256
 1047SOL     OW13609   9.040   5.204   1.499
 1047SOL    HW113610   9.104   5.273   1.465
 1047SOL    HW213611   9.049   5.197   1.598
 1048SOL     OW13612   1.533   9.627   2.257
 1048SOL    HW113613   1.614   9.594   2.307
 1048SOL    HW213614   1.489   9.550   2.211
 1049SOL     OW13615   5.367   7.260   2.885
 1049SOL    HW113616   5.342   7.354   2.909
 1049SOL    HW213617   5.449   7.261   2.828
 1050SOL     OW13618   9.248   3.782   1.152
 1050SOL    HW113619   9.172   3.725   1.182
 1050SOL    HW213620   9.219   3.878   1.150
 1051SOL     OW13621   0.282   8.965   3.517
 1051SOL    HW113622   0.261   8.875   3.556
 1051SOL    HW213623   0.339   8.953   3.436
 1052SOL     OW13624   5.447   8.388   3.226
 1052SOL    HW113625   5.425   8.295   3.257
 1052SOL    HW213626   5.545   8.393   3.205
 1053SOL     OW13627   9.983   4.598   3.328
 1053SOL    HW113628   0.001   4.662   3.403
 1053SOL    HW213629   0.010   4.506   3.355
 1054SOL     OW13630   9.667   2.812   2.739
 1054SOL    HW113631   9.678   2.911   2.739
 1054SOL    HW213632   9.742   2.770   2.688
 1055SOL     OW13633   3.817   0.754   2.202
 1055SOL    HW113634   3.724   0.718   2.202
 1055SOL    HW213635   3.815   0.853   2.218
 1056SOL     OW13636   3.607   3.864   3.533
 1056SOL    HW113637   3.700   3.896   3.520
 1056SOL    HW213638   3.543   3.937   3.508
 1057SOL     OW13639   3.001   0.458   1.563
 1057SOL    HW113640   3.002   0.491   1.469
 1057SOL    HW213641   3.079   0.398   1.579
 1058SOL     OW13642   4.756   7.549   0.901
 1058SOL    HW113643   4.688   7.621   0.890
 1058SOL    HW213644   4.834   7.567   0.840
 1059SOL     OW13645   1.425   2.539   3.134
 1059SOL    HW113646   1.501   2.560   3.197
 1059SOL    HW213647   1.340   2.574   3.172
 1060SOL     OW13648   3.996   4.293   1.222
 1060SOL    HW113649   4.091   4.270   1.198
 1060SOL    HW213650   3.936   4.217   1.196
 1061SOL     OW13651   1.386   4.867   2.681
 1061SOL    HW113652   1.410   4.843   2.587
 1061SOL    HW213653   1.458   4.924   2.720
 1062SOL     OW13654   0.156   0.891   3.241
 1062SOL    HW113655   0.065   0.858   3.264
 1062SOL    HW213656   0.166   0.895   3.141
 1063SOL     OW13657   9.096   2.364   1.713
 1063SOL    HW113658   9.070   2.441   1.656
 1063SOL    HW213659   9.084   2.279   1.662
 1064SOL     OW13660   1.914   4.784   2.805
 1064SOL    HW113661   2.007   4.759   2.833
 1064SOL    HW213662   1.866   4.702   2.774
 1065SOL     OW13663   4.166   0.162   1.074
 1065SOL    HW113664   4.073   0.127   1.088
 1065SOL    HW213665   4.181   0.241   1.134
 1066SOL     OW13666   7.534   6.834   3.354
 1066SOL    HW113667   7.594   6.759   3.384
 1066SOL    HW213668   7.589   6.916   3.337
 1067SOL     OW13669   1.437   7.733   0.554
 1067SOL    HW113670   1.426   7.831   0.572
 1067SOL    HW213671   1.403   7.680   0.632
 1068SOL     OW13672   4.707   0.408   3.600
 1068SOL    HW113673   4.609   0.414   3.620
 1068SOL    HW213674   4.730   0.315   3.573
 1069SOL     OW13675   8.527   6.127   2.330
 1069SOL    HW113676   8.520   6.076   2.415
 1069SOL    HW213677   8.566   6.217   2.349
 1070SOL     OW13678   7.465   7.940   3.150
 1070SOL    HW113679   7.544   7.880   3.135
 1070SOL    HW213680   7.484   8.030   3.112
 1071SOL     OW13681   2.039   1.607   2.319
 1071SOL    HW113682   1.971   1.679   2.333
 1071SOL    HW213683   2.130   1.647   2.314
 1072SOL     OW13684   7.493   8.900   3.682
 1072SOL    HW113685   7.438   8.839   3.739
 1072SOL    HW213686   7.557   8.951   3.740
 1073SOL     OW13687   9.891   2.368   1.572
 1073SOL    HW113688   9.877   2.445   1.633
 1073SOL    HW213689   9.802   2.332   1.542
 1074SOL     OW13690   6.848   7.946   2.740
 1074SOL    HW113691   6.817   7.904   2.654
 1074SOL    HW213692   6.928   7.897   2.774
 1075SOL     OW13693   1.801   9.965   2.455
 1075SOL    HW113694   1.880   9.920   2.496
 1075SOL    HW213695   1.803   9.952   2.356
 1076SOL     OW13696   2.746   1.591   1.691
 1076SOL    HW113697   2.843   1.594   1.667
 1076SOL    HW213698   2.711   1.685   1.698
 1077SOL     OW13699   0.120   7.671   1.578
 1077SOL    HW113700   0.194   7.603   1.582
 1077SOL    HW213701   0.112   7.716   1.667
 1078SOL     OW13702   4.083   7.312   3.382
 1078SOL    HW113703   4.079   7.212   3.384
 1078SOL    HW213704   4.008   7.347   3.324
 1079SOL     OW13705   1.817   6.795   0.428
 1079SOL    HW113706   1.762   6.862   0.478
 1079SOL    HW213707   1.876   6.843   0.362
 1080SOL     OW13708   2.697   7.055   3.467
 1080SOL    HW113709   2.665   7.096   3.553
 1080SOL    HW213710   2.696   7.125   3.395
 1081SOL     OW13711   4.338   4.979   1.509
 1081SOL    HW113712   4.247   4.943   1.487
 1081SOL    HW213713   4.383   5.010   1.425
 1082SOL     OW13714   4.006   2.480   0.970
 1082SOL    HW113715   4.070   2.456   1.043
 1082SOL    HW213716   3.914   2.451   0.997
 1083SOL     OW13717   7.952   0.252   3.711
 1083SOL    HW113718   7.906   0.272   3.797
 1083SOL    HW213719   8.000   0.334   3.679
 1084SOL     OW13720   4.840   9.930   3.661
 1084SOL    HW113721   4.919   9.882   3.622
 1084SOL    HW213722   4.858   9.953   3.756
 1085SOL     OW13723   9.263   7.690   0.780
 1085SOL    HW113724   9.361   7.678   0.764
 1085SOL    HW213725   9.245   7.782   0.815
 1086SOL     OW13726   1.635   2.843   1.040
 1086SOL    HW113727   1.662   2.921   1.098
 1086SOL    HW213728   1.671   2.759   1.080
 1087SOL     OW13729   4.588   5.236   1.832
 1087SOL    HW113730   4.530   5.169   1.879
 1087SOL    HW213731   4.632   5.295   1.900
 1088SOL     OW13732   1.035   4.586   1.781
 1088SOL    HW113733   1.043   4.498   1.734
 1088SOL    HW213734   1.057   4.660   1.716
 1089SOL     OW13735   0.542   1.711   2.758
 1089SOL    HW113736   0.486   1.657   2.821
 1089SOL    HW213737   0.520   1.808   2.769
 1090SOL     OW13738   7.028   8.052   2.222
 1090SOL    HW113739   7.110   8.000   2.196
 1090SOL    HW213740   7.020   8.132   2.163
 1091SOL     OW13741   4.727   7.183   2.623
 1091SOL    HW113742   4.803   7.242   2.651
 1091SOL    HW213743   4.762   7.106   2.570
 1092SOL     OW13744   7.913   7.937   2.417
 1092SOL    HW113745   7.824   7.903   2.448
 1092SOL    HW213746   7.986   7.889   2.465
 1093SOL     OW13747   8.916   0.721   1.467
 1093SOL    HW113748   8.859   0.803   1.466
 1093SOL    HW213749   8.875   0.651   1.408
 1094SOL     OW13750   1.777   7.054   0.146
 1094SOL    HW113751   1.767   6.967   0.098
 1094SOL    HW213752   1.850   7.047   0.214
 1095SOL     OW13753   8.279   9.164   2.685
 1095SOL    HW113754   8.289   9.201   2.777
 1095SOL    HW213755   8.183   9.136   2.670
 1096SOL     OW13756   8.717   8.332   3.621
 1096SOL    HW113757   8.676   8.267   3.557
 1096SOL    HW213758   8.698   8.303   3.715
 1097SOL     OW13759   4.325   8.565   2.539
 1097SOL    HW113760   4.227   8.563   2.559
 1097SOL    HW213761   4.370   8.488   2.584
 1098SOL     OW13762   9.745   5.859   1.820
 1098SOL    HW113763   9.679   5.929   1.793
 1098SOL    HW213764   9.753   5.791   1.747
 1099SOL     OW13765   1.564   7.534   1.650
 1099SOL    HW113766   1.557   7.435   1.658
 1099SOL    HW213767   1.475   7.572   1.626
 1100SOL     OW13768   5.822   9.485   3.006
 1100SOL    HW113769   5.920   9.502   3.001
 1100SOL    HW213770   5.787   9.458   2.916
 1101SOL     OW13771   0.996   9.915   0.877
 1101SOL    HW113772   0.932   9.858   0.825
 1101SOL    HW213773   1.017   9.997   0.824
 1102SOL     OW13774   3.732   4.486   2.339
 1102SOL    HW113775   3.672   4.416   2.299
 1102SOL    HW213776   3.698   4.512   2.429
 1103SOL     OW13777   1.015   7.092   0.453
 1103SOL    HW113778   0.932   7.048   0.417
 1103SOL    HW213779   1.095   7.045   0.416
 1104SOL     OW13780   2.588   5.430   3.399
 1104SOL    HW113781   2.582   5.511   3.456
 1104SOL    HW213782   2.684   5.411   3.378
 1105SOL     OW13783   6.121   0.441   2.781
 1105SOL    HW113784   6.065   0.455   2.699
 1105SOL    HW213785   6.102   0.351   2.819
 1106SOL     OW13786   2.083   4.605   1.754
 1106SOL    HW113787   2.078   4.586   1.852
 1106SOL    HW213788   2.105   4.520   1.705
 1107SOL     OW13789   8.996   5.943   3.710
 1107SOL    HW113790   9.026   5.854   3.745
 1107SOL    HW213791   9.076   6.003   3.700
 1108SOL     OW13792   3.567   3.457   0.126
 1108SOL    HW113793   3.628   3.502   0.061
 1108SOL    HW213794   3.489   3.517   0.146
 1109SOL     OW13795   8.857   1.202   2.424
 1109SOL    HW113796   8.918   1.205   2.345
 1109SOL    HW213797   8.766   1.234   2.397
 1110SOL     OW13798   1.654   9.785   1.383
 1110SOL    HW113799   1.717   9.711   1.406
 1110SOL    HW213800   1.647   9.794   1.284
 1111SOL     OW13801   0.193   7.205   2.725
 1111SOL    HW113802   0.251   7.280   2.757
 1111SOL    HW213803   0.251   7.130   2.691
 1112SOL     OW13804   1.219   3.092   3.337
 1112SOL    HW113805   1.213   3.170   3.398
 1112SOL    HW213806   1.310   3.051   3.344
 1113SOL     OW13807   1.698   2.643   3.615
 1113SOL    HW113808   1.766   2.600   3.673
 1113SOL    HW213809   1.617   2.666   3.669
 1114SOL     OW13810   8.186   2.652   0.888
 1114SOL    HW113811   8.112   2.703   0.845
 1114SOL    HW213812   8.173   2.554   0.872
 1115SOL     OW13813   8.436   7.849   0.941
 1115SOL    HW113814   8.462   7.753   0.943
 1115SOL    HW213815   8.361   7.865   1.006
 1116SOL     OW13816   2.670   1.449   0.512
 1116SOL    HW113817   2.592   1.445   0.575
 1116SOL    HW213818   2.652   1.392   0.432
 1117SOL     OW13819   9.772   0.440   1.164
 1117SOL    HW113820   9.726   0.411   1.080
 1117SOL    HW213821   9.709   0.494   1.219
 1118SOL     OW13822   1.076   6.458   2.762
 1118SOL    HW113823   1.002   6.392   2.747
 1118SOL    HW213824   1.163   6.409   2.766
 1119SOL     OW13825   0.271   9.591   2.429
 1119SOL    HW113826   0.270   9.502   2.476
 1119SOL    HW213827   0.276   9.576   2.330
 1120SOL     OW13828   3.143   7.366   0.369
 1120SOL    HW113829   3.223   7.307   0.380
 1120SOL    HW213830   3.061   7.318   0.399
 1121SOL     OW13831   8.572   8.876   3.603
 1121SOL    HW113832   8.655   8.826   3.581
 1121SOL    HW213833   8.492   8.823   3.573
 1122SOL     OW13834   5.678   5.115   1.395
 1122SOL    HW113835   5.718   5.179   1.330
 1122SOL    HW213836   5.580   5.132   1.403
 1123SOL     OW13837   9.465   2.921   2.267
 1123SOL    HW113838   9.513   2.973   2.337
 1123SOL    HW213839   9.491   2.824   2.274
 1124SOL     OW13840   1.568   4.559   2.088
 1124SOL    HW113841   1.635   4.519   2.024
 1124SOL    HW213842   1.476   4.545   2.052
 1125SOL     OW13843   1.020   3.141   3.141
 1125SOL    HW113844   1.093   3.117   3.206
 1125SOL    HW213845   1.033   3.235   3.109
 1126SOL     OW13846   7.848   7.637   3.569
 1126SOL    HW113847   7.797   7.650   3.484
 1126SOL    HW213848   7.849   7.722   3.621
 1127SOL     OW13849   9.967   7.611   2.678
 1127SOL    HW113850   9.986   7.522   2.637
 1127SOL    HW213851   9.883   7.649   2.640
 1128SOL     OW13852   0.267   5.787   1.199
 1128SOL    HW113853   0.303   5.808   1.290
 1128SOL    HW213854   0.327   5.721   1.154
 1129SOL     OW13855   8.604   1.142   2.781
 1129SOL    HW113856   8.663   1.098   2.713
 1129SOL    HW213857   8.661   1.198   2.842
 1130SOL     OW13858   0.258   3.880   2.647
 1130SOL    HW113859   0.275   3.795   2.698
 1130SOL    HW213860   0.249   3.956   2.711
 1131SOL     OW13861   6.739   9.867   2.228
 1131SOL    HW113862   6.722   9.832   2.321
 1131SOL    HW213863   6.778   9.959   2.234
 1132SOL     OW13864   2.270   4.950   1.072
 1132SOL    HW113865   2.200   4.978   1.139
 1132SOL    HW213866   2.336   4.889   1.116
 1133SOL     OW13867   9.192   7.028   1.206
 1133SOL    HW113868   9.117   6.988   1.259
 1133SOL    HW213869   9.180   7.005   1.110
 1134SOL     OW13870   0.028   1.078   3.560
 1134SOL    HW113871   0.106   1.130   3.595
 1134SOL    HW213872   0.002   1.113   3.470
 1135SOL     OW13873   2.516   9.987   3.109
 1135SOL    HW113874   2.482   0.081   3.120
 1135SOL    HW213875   2.616   9.988   3.113
 1136SOL     OW13876   7.117   9.293   0.181
 1136SOL    HW113877   7.174   9.221   0.142
 1136SOL    HW213878   7.044   9.316   0.116
 1137SOL     OW13879   4.048   3.470   2.211
 1137SOL    HW113880   4.029   3.562   2.177
 1137SOL    HW213881   3.986   3.405   2.167
 1138SOL     OW13882   8.374   5.098   2.261
 1138SOL    HW113883   8.455   5.061   2.307
 1138SOL    HW213884   8.397   5.184   2.217
 1139SOL     OW13885   3.036   3.083   1.638
 1139SOL    HW113886   3.090   3.131   1.570
 1139SOL    HW213887   3.079   2.996   1.660
 1140SOL     OW13888   7.191   0.318   3.550
 1140SOL    HW113889   7.096   0.339   3.573
 1140SOL    HW213890   7.247   0.400   3.560
 1141SOL     OW13891   3.609   2.720   1.340
 1141SOL    HW113892   3.638   2.683   1.428
 1141SOL    HW213893   3.680   2.702   1.271
 1142SOL     OW13894   6.255   9.782   3.328
 1142SOL    HW113895   6.160   9.761   3.350
 1142SOL    HW213896   6.297   9.829   3.406
 1143SOL     OW13897   0.728   0.214   2.749
 1143SOL    HW113898   0.661   0.209   2.675
 1143SOL    HW213899   0.743   0.310   2.774
 1144SOL     OW13900   9.071   3.611   0.421
 1144SOL    HW113901   9.020   3.555   0.355
 1144SOL    HW213902   9.094   3.555   0.501
 1145SOL     OW13903   4.180   9.192   3.245
 1145SOL    HW113904   4.220   9.236   3.325
 1145SOL    HW213905   4.101   9.137   3.273
 1146SOL     OW13906   6.525   0.668   3.479
 1146SOL    HW113907   6.567   0.757   3.497
 1146SOL    HW213908   6.577   0.621   3.408
 1147SOL     OW13909   8.882   4.865   0.100
 1147SOL    HW113910   8.898   4.962   0.119
 1147SOL    HW213911   8.851   4.853   0.006
 1148SOL     OW13912   0.482   9.366   1.111
 1148SOL    HW113913   0.430   9.285   1.136
 1148SOL    HW213914   0.498   9.366   1.012
 1149SOL     OW13915   9.310   9.246   3.292
 1149SOL    HW113916   9.397   9.265   3.247
 1149SOL    HW213917   9.288   9.320   3.355
 1150SOL     OW13918   2.778   7.771   3.464
 1150SOL    HW113919   2.751   7.679   3.492
 1150SOL    HW213920   2.730   7.796   3.380
 1151SOL     OW13921   9.095   0.522   1.002
 1151SOL    HW113922   9.016   0.462   1.005
 1151SOL    HW213923   9.142   0.510   0.914
 1152SOL     OW13924   2.943   0.817   2.055
 1152SOL    HW113925   2.862   0.759   2.058
 1152SOL    HW213926   2.920   0.905   2.013
 1153SOL     OW13927   9.737   8.460   1.278
 1153SOL    HW113928   9.814   8.508   1.237
 1153SOL    HW213929   9.769   8.404   1.354
 1154SOL     OW13930   1.220   5.487   2.122
 1154SOL    HW113931   1.251   5.541   2.044
 1154SOL    HW213932   1.199   5.394   2.092
 1155SOL     OW13933   3.199   0.281   1.629
 1155SOL    HW113934   3.247   0.215   1.570
 1155SOL    HW213935   3.151   0.233   1.701
 1156SOL     OW13936   2.770   9.158   0.308
 1156SOL    HW113937   2.843   9.224   0.289
 1156SOL    HW213938   2.749   9.106   0.226
 1157SOL     OW13939   4.063   5.504   1.682
 1157SOL    HW113940   4.083   5.409   1.707
 1157SOL    HW213941   4.119   5.566   1.737
 1158SOL     OW13942   5.093   8.581   1.617
 1158SOL    HW113943   5.026   8.646   1.654
 1158SOL    HW213944   5.180   8.628   1.604
 1159SOL     OW13945   0.251   1.765   3.023
 1159SOL    HW113946   0.205   1.805   2.944
 1159SOL    HW213947   0.333   1.817   3.044
 1160SOL     OW13948   7.192   6.565   3.434
 1160SOL    HW113949   7.246   6.593   3.354
 1160SOL    HW213950   7.196   6.636   3.504
 1161SOL     OW13951   3.052   9.550   1.962
 1161SOL    HW113952   3.091   9.553   2.053
 1161SOL    HW213953   3.116   9.591   1.897
 1162SOL     OW13954   1.304   7.791   0.077
 1162SOL    HW113955   1.258   7.838   0.153
 1162SOL    HW213956   1.326   7.857   0.005
 1163SOL     OW13957   1.653   8.695   2.267
 1163SOL    HW113958   1.700   8.724   2.350
 1163SOL    HW213959   1.677   8.600   2.247
 1164SOL     OW13960   7.976   8.671   0.503
 1164SOL    HW113961   7.969   8.584   0.551
 1164SOL    HW213962   7.910   8.673   0.428
 1165SOL     OW13963   0.564   7.172   0.826
 1165SOL    HW113964   0.570   7.135   0.919
 1165SOL    HW213965   0.493   7.124   0.776
 1166SOL     OW13966   1.736   1.958   3.296
 1166SOL    HW113967   1.725   1.934   3.392
 1166SOL    HW213968   1.824   1.924   3.263
 1167SOL     OW13969   1.356   7.743   2.842
 1167SOL    HW113970   1.360   7.832   2.795
 1167SOL    HW213971   1.436   7.733   2.900
 1168SOL     OW13972   1.999   5.843   3.118
 1168SOL    HW113973   2.093   5.819   3.140
 1168SOL    HW213974   1.936   5.781   3.163
 1169SOL     OW13975   9.063   0.753   1.692
 1169SOL    HW113976   9.014   0.833   1.728
 1169SOL    HW213977   9.016   0.718   1.612
 1170SOL     OW13978   3.480   0.072   3.072
 1170SOL    HW113979   3.551   0.009   3.104
 1170SOL    HW213980   3.427   0.106   3.149
 1171SOL     OW13981   2.431   3.444   0.139
 1171SOL    HW113982   2.475   3.355   0.146
 1171SOL    HW213983   2.340   3.433   0.099
 1172SOL     OW13984   2.791   0.006   3.122
 1172SOL    HW113985   2.807   9.956   3.207
 1172SOL    HW213986   2.864   9.987   3.057
 1173SOL     OW13987   3.465   4.642   0.066
 1173SOL    HW113988   3.448   4.591   4.763
 1173SOL    HW213989   3.407   4.723   0.069
 1174SOL     OW13990   0.009   7.550   0.628
 1174SOL    HW113991   0.048   7.568   0.538
 1174SOL    HW213992   0.077   7.504   0.685
 1175SOL     OW13993   1.844   0.727   0.567
 1175SOL    HW113994   1.932   0.682   0.582
 1175SOL    HW213995   1.807   0.700   0.478
 1176SOL     OW13996   7.138   6.708   2.899
 1176SOL    HW113997   7.159   6.622   2.852
 1176SOL    HW213998   7.057   6.696   2.956
 1177SOL     OW13999   4.321   8.561   1.916
 1177SOL    HW114000   4.390   8.590   1.981
 1177SOL    HW214001   4.261   8.638   1.893
 1178SOL     OW14002   9.276   1.787   2.992
 1178SOL    HW114003   9.314   1.866   3.040
 1178SOL    HW214004   9.200   1.815   2.934
 1179SOL     OW14005   9.340   4.872   0.503
 1179SOL    HW114006   9.436   4.887   0.481
 1179SOL    HW214007   9.319   4.911   0.593
 1180SOL     OW14008   6.524   0.829   2.970
 1180SOL    HW114009   6.442   0.856   2.920
 1180SOL    HW214010   6.605   0.865   2.924
 1181SOL     OW14011   8.762   0.035   3.624
 1181SOL    HW114012   8.815   9.980   3.558
 1181SOL    HW214013   8.773   9.996   3.715
 1182SOL     OW14014   3.043   4.771   3.303
 1182SOL    HW114015   3.023   4.830   3.225
 1182SOL    HW214016   2.971   4.703   3.313
 1183SOL     OW14017   0.085   5.143   1.742
 1183SOL    HW114018   9.998   5.093   1.744
 1183SOL    HW214019   0.157   5.084   1.779
 1184SOL     OW14020   2.082   3.326   1.095
 1184SOL    HW114021   2.027   3.396   1.049
 1184SOL    HW214022   2.116   3.261   1.026
 1185SOL     OW14023   1.156   5.867   0.549
 1185SOL    HW114024   1.090   5.793   0.542
 1185SOL    HW214025   1.192   5.872   0.643
 1186SOL     OW14026   9.409   1.795   3.562
 1186SOL    HW114027   9.470   1.829   3.634
 1186SOL    HW214028   9.394   1.697   3.574
 1187SOL     OW14029   8.441   8.720   0.979
 1187SOL    HW114030   8.449   8.764   0.890
 1187SOL    HW214031   8.398   8.630   0.969
 1188SOL     OW14032   8.487   7.951   1.318
 1188SOL    HW114033   8.517   8.011   1.392
 1188SOL    HW214034   8.556   7.949   1.246
 1189SOL     OW14035   1.284   0.582   2.487
 1189SOL    HW114036   1.355   0.548   2.425
 1189SOL    HW214037   1.216   0.510   2.502
 1190SOL     OW14038   2.073   1.337   0.941
 1190SOL    HW114039   2.067   1.268   0.868
 1190SOL    HW214040   1.998   1.402   0.932
 1191SOL     OW14041   0.701   9.199   2.702
 1191SOL    HW114042   0.704   9.109   2.659
 1191SOL    HW214043   0.612   9.240   2.686
 1192SOL     OW14044   8.360   3.755   2.040
 1192SOL    HW114045   8.455   3.730   2.023
 1192SOL    HW214046   8.301   3.712   1.971
 1193SOL     OW14047   2.373   5.536   0.940
 1193SOL    HW114048   2.275   5.524   0.957
 1193SOL    HW214049   2.395   5.502   0.849
 1194SOL     OW14050   0.483   0.119   3.528
 1194SOL    HW114051   0.542   0.121   3.447
 1194SOL    HW214052   0.529   0.165   3.604
 1195SOL     OW14053   6.639   7.252   3.053
 1195SOL    HW114054   6.688   7.165   3.056
 1195SOL    HW214055   6.704   7.327   3.046
 1196SOL     OW14056   9.922   5.572   3.111
 1196SOL    HW114057   9.967   5.636   3.048
 1196SOL    HW214058   9.860   5.513   3.059
 1197SOL     OW14059   3.771   7.624   1.852
 1197SOL    HW114060   3.684   7.672   1.867
 1197SOL    HW214061   3.799   7.635   1.757
 1198SOL     OW14062   4.225   1.877   2.341
 1198SOL    HW114063   4.276   1.792   2.357
 1198SOL    HW214064   4.268   1.952   2.391
 1199SOL     OW14065   2.525   3.034   3.642
 1199SOL    HW114066   2.576   3.089   3.708
 1199SOL    HW214067   2.563   3.048   3.550
 1200SOL     OW14068   5.958   7.873   3.014
 1200SOL    HW114069   5.921   7.817   2.940
 1200SOL    HW214070   5.955   7.969   2.987
 1201SOL     OW14071   3.432   0.414   3.297
 1201SOL    HW114072   3.427   0.439   3.201
 1201SOL    HW214073   3.420   0.315   3.307
 1202SOL     OW14074   7.893   6.602   3.000
 1202SOL    HW114075   7.851   6.624   2.911
 1202SOL    HW214076   7.860   6.667   3.068
 1203SOL     OW14077   4.321   1.005   0.480
 1203SOL    HW114078   4.340   0.911   0.450
 1203SOL    HW214079   4.373   1.068   0.423
 1204SOL     OW14080   8.700   9.442   2.024
 1204SOL    HW114081   8.783   9.498   2.027
 1204SOL    HW214082   8.655   9.453   1.935
 1205SOL     OW14083   9.608   7.968   1.239
 1205SOL    HW114084   9.708   7.961   1.245
 1205SOL    HW214085   9.566   7.890   1.286
 1206SOL     OW14086   2.884   1.899   0.146
 1206SOL    HW114087   2.858   1.806   0.171
 1206SOL    HW214088   2.861   1.916   0.051
 1207SOL     OW14089   1.458   8.520   2.049
 1207SOL    HW114090   1.457   8.492   2.145
 1207SOL    HW214091   1.542   8.487   2.006
 1208SOL     OW14092   1.197   3.118   1.782
 1208SOL    HW114093   1.128   3.104   1.852
 1208SOL    HW214094   1.160   3.173   1.707
 1209SOL     OW14095   2.930   8.898   0.626
 1209SOL    HW114096   2.997   8.869   0.558
 1209SOL    HW214097   2.901   8.819   0.680
 1210SOL     OW14098   3.315   0.056   1.520
 1210SOL    HW114099   3.387   0.031   1.455
 1210SOL    HW214100   3.347   0.040   1.613
 1211SOL     OW14101   8.846   0.747   2.599
 1211SOL    HW114102   8.882   0.665   2.555
 1211SOL    HW214103   8.914   0.783   2.663
 1212SOL     OW14104   5.213   2.250   1.175
 1212SOL    HW114105   5.232   2.250   1.273
 1212SOL    HW214106   5.200   2.344   1.144
 1213SOL     OW14107   0.162   1.876   0.644
 1213SOL    HW114108   0.079   1.891   0.589
 1213SOL    HW214109   0.211   1.963   0.654
 1214SOL     OW14110   0.105   7.409   3.530
 1214SOL    HW114111   0.169   7.423   3.454
 1214SOL    HW214112   0.083   7.312   3.539
 1215SOL     OW14113   1.812   1.474   3.227
 1215SOL    HW114114   1.835   1.452   3.321
 1215SOL    HW214115   1.879   1.540   3.191
 1216SOL     OW14116   3.874   9.196   2.169
 1216SOL    HW114117   3.802   9.211   2.237
 1216SOL    HW214118   3.874   9.272   2.104
 1217SOL     OW14119   8.905   3.320   2.641
 1217SOL    HW114120   8.820   3.285   2.680
 1217SOL    HW214121   8.883   3.395   2.578
 1218SOL     OW14122   1.761   2.666   2.421
 1218SOL    HW114123   1.670   2.646   2.387
 1218SOL    HW214124   1.788   2.597   2.488
 1219SOL     OW14125   2.180   1.876   0.839
 1219SOL    HW114126   2.126   1.877   0.755
 1219SOL    HW214127   2.262   1.819   0.825
 1220SOL     OW14128   1.187   6.744   1.914
 1220SOL    HW114129   1.199   6.750   2.013
 1220SOL    HW214130   1.194   6.649   1.885
 1221SOL     OW14131   3.170   0.559   0.302
 1221SOL    HW114132   3.119   0.536   0.219
 1221SOL    HW214133   3.136   0.503   0.378
 1222SOL     OW14134   2.304   6.178   1.010
 1222SOL    HW114135   2.258   6.263   0.986
 1222SOL    HW214136   2.238   6.114   1.048
 1223SOL     OW14137   1.793   7.535   3.527
 1223SOL    HW114138   1.802   7.438   3.552
 1223SOL    HW214139   1.698   7.554   3.501
 1224SOL     OW14140   5.515   7.684   2.889
 1224SOL    HW114141   5.598   7.662   2.838
 1224SOL    HW214142   5.499   7.782   2.885
 1225SOL     OW14143   0.471   4.533   1.659
 1225SOL    HW114144   0.513   4.491   1.579
 1225SOL    HW214145   0.518   4.618   1.682
 1226SOL     OW14146   7.235   7.225   2.639
 1226SOL    HW114147   7.332   7.231   2.661
 1226SOL    HW214148   7.217   7.140   2.589
 1227SOL     OW14149   1.766   0.373   0.262
 1227SOL    HW114150   1.680   0.322   0.264
 1227SOL    HW214151   1.838   0.319   0.305
 1228SOL     OW14152   9.669   4.272   0.811
 1228SOL    HW114153   9.636   4.364   0.787
 1228SOL    HW214154   9.597   4.205   0.793
 1229SOL     OW14155   7.960   7.382   1.722
 1229SOL    HW114156   7.955   7.316   1.647
 1229SOL    HW214157   8.052   7.421   1.725
 1230SOL     OW14158   3.976   3.117   2.521
 1230SOL    HW114159   4.057   3.066   2.552
 1230SOL    HW214160   3.895   3.077   2.562
 1231SOL     OW14161   4.186   2.942   2.581
 1231SOL    HW114162   4.219   2.913   2.671
 1231SOL    HW214163   4.263   2.949   2.517
 1232SOL     OW14164   1.447   6.998   1.410
 1232SOL    HW114165   1.428   7.096   1.416
 1232SOL    HW214166   1.385   6.948   1.470
 1233SOL     OW14167   3.621   6.052   2.579
 1233SOL    HW114168   3.648   5.958   2.561
 1233SOL    HW214169   3.606   6.100   2.493
 1234SOL     OW14170   3.333   1.435   0.092
 1234SOL    HW114171   3.417   1.484   0.115
 1234SOL    HW214172   3.259   1.464   0.154
 1235SOL     OW14173   9.387   1.363   0.116
 1235SOL    HW114174   9.416   1.361   0.212
 1235SOL    HW214175   9.457   1.410   0.062
 1236SOL     OW14176   1.023   5.692   2.885
 1236SOL    HW114177   1.067   5.633   2.953
 1236SOL    HW214178   1.073   5.778   2.878
 1237SOL     OW14179   7.378   1.499   2.783
 1237SOL    HW114180   7.440   1.557   2.729
 1237SOL    HW214181   7.396   1.514   2.880
 1238SOL     OW14182   8.479   3.197   2.392
 1238SOL    HW114183   8.570   3.158   2.390
 1238SOL    HW214184   8.436   3.188   2.302
 1239SOL     OW14185   7.707   7.532   2.369
 1239SOL    HW114186   7.666   7.557   2.281
 1239SOL    HW214187   7.638   7.536   2.441
 1240SOL     OW14188   2.457   8.998   0.547
 1240SOL    HW114189   2.552   9.030   0.555
 1240SOL    HW214190   2.456   8.898   0.545
 1241SOL     OW14191   2.244   2.148   2.822
 1241SOL    HW114192   2.220   2.055   2.795
 1241SOL    HW214193   2.343   2.160   2.821
 1242SOL     OW14194   0.265   6.412   0.496
 1242SOL    HW114195   0.337   6.477   0.473
 1242SOL    HW214196   0.201   6.454   0.561
 1243SOL     OW14197   7.755   1.993   3.509
 1243SOL    HW114198   7.800   1.994   3.420
 1243SOL    HW214199   7.778   2.077   3.558
 1244SOL     OW14200   2.978   7.048   2.122
 1244SOL    HW114201   2.930   7.062   2.209
 1244SOL    HW214202   3.065   7.002   2.139
 1245SOL     OW14203   7.460   0.172   1.970
 1245SOL    HW114204   7.513   0.217   2.041
 1245SOL    HW214205   7.490   0.077   1.960
 1246SOL     OW14206   0.636   5.940   2.908
 1246SOL    HW114207   0.717   5.992   2.933
 1246SOL    HW214208   0.576   5.997   2.851
 1247SOL     OW14209   2.807   0.770   2.338
 1247SOL    HW114210   2.779   0.707   2.265
 1247SOL    HW214211   2.869   0.838   2.300
 1248SOL     OW14212   6.608   0.286   3.272
 1248SOL    HW114213   6.642   0.260   3.363
 1248SOL    HW214214   6.513   0.256   3.263
 1249SOL     OW14215   9.339   2.485   2.894
 1249SOL    HW114216   9.398   2.423   2.945
 1249SOL    HW214217   9.391   2.527   2.819
 1250SOL     OW14218   8.069   5.566   0.089
 1250SOL    HW114219   8.100   5.654   0.053
 1250SOL    HW214220   8.043   5.578   0.185
 1251SOL     OW14221   2.388   2.482   0.160
 1251SOL    HW114222   2.325   2.544   0.113
 1251SOL    HW214223   2.406   2.517   0.252
 1252SOL     OW14224   2.681   2.535   1.541
 1252SOL    HW114225   2.772   2.501   1.517
 1252SOL    HW214226   2.680   2.565   1.636
 1253SOL     OW14227   4.753   1.103   2.522
 1253SOL    HW114228   4.705   1.023   2.487
 1253SOL    HW214229   4.819   1.075   2.592
 1254SOL     OW14230   3.546   2.875   2.848
 1254SOL    HW114231   3.592   2.884   2.936
 1254SOL    HW214232   3.535   2.965   2.807
 1255SOL     OW14233   1.699   0.280   2.223
 1255SOL    HW114234   1.648   0.205   2.183
 1255SOL    HW214235   1.673   0.292   2.319
 1256SOL     OW14236   9.227   5.204   0.452
 1256SOL    HW114237   9.224   5.129   0.385
 1256SOL    HW214238   9.137   5.215   0.494
 1257SOL     OW14239   8.216   7.325   3.239
 1257SOL    HW114240   8.275   7.405   3.231
 1257SOL    HW214241   8.165   7.330   3.325
 1258SOL     OW14242   8.815   1.142   1.051
 1258SOL    HW114243   8.786   1.104   0.963
 1258SOL    HW214244   8.758   1.221   1.074
 1259SOL     OW14245   7.512   1.831   2.172
 1259SOL    HW114246   7.412   1.831   2.167
 1259SOL    HW214247   7.550   1.849   2.081
 1260SOL     OW14248   2.098   9.974   1.009
 1260SOL    HW114249   2.004   9.942   0.993
 1260SOL    HW214250   2.149   9.904   1.059
 1261SOL     OW14251   1.991   7.873   0.991
 1261SOL    HW114252   1.929   7.945   0.959
 1261SOL    HW214253   1.999   7.803   0.921
 1262SOL     OW14254   7.602   9.743   0.207
 1262SOL    HW114255   7.637   9.733   0.300
 1262SOL    HW214256   7.675   9.777   0.147
 1263SOL     OW14257   8.411   1.978   2.326
 1263SOL    HW114258   8.454   1.959   2.238
 1263SOL    HW214259   8.460   2.052   2.373
 1264SOL     OW14260   2.835   3.398   0.973
 1264SOL    HW114261   2.905   3.414   0.904
 1264SOL    HW214262   2.754   3.452   0.950
 1265SOL     OW14263   1.936   7.788   0.175
 1265SOL    HW114264   1.986   7.742   0.248
 1265SOL    HW214265   1.864   7.727   0.140
 1266SOL     OW14266   1.297   7.021   2.071
 1266SOL    HW114267   1.377   6.975   2.033
 1266SOL    HW214268   1.224   7.024   2.002
 1267SOL     OW14269   7.685   1.492   2.495
 1267SOL    HW114270   7.670   1.530   2.404
 1267SOL    HW214271   7.646   1.553   2.564
 1268SOL     OW14272   3.719   8.757   1.815
 1268SOL    HW114273   3.729   8.697   1.735
 1268SOL    HW214274   3.701   8.701   1.896
 1269SOL     OW14275   9.990   4.197   2.676
 1269SOL    HW114276   9.945   4.114   2.710
 1269SOL    HW214277   0.026   4.180   2.584
 1270SOL     OW14278   0.457   9.795   2.387
 1270SOL    HW114279   0.393   9.724   2.413
 1270SOL    HW214280   0.450   9.872   2.450
 1271SOL     OW14281   1.937   8.705   1.157
 1271SOL    HW114282   1.981   8.704   1.246
 1271SOL    HW214283   1.953   8.618   1.111
 1272SOL     OW14284   7.764   2.160   0.639
 1272SOL    HW114285   7.755   2.102   0.720
 1272SOL    HW214286   7.681   2.155   0.585
 1273SOL     OW14287   4.751   7.063   2.968
 1273SOL    HW114288   4.753   7.002   2.888
 1273SOL    HW214289   4.824   7.131   2.959
 1274SOL     OW14290   9.743   7.320   3.634
 1274SOL    HW114291   9.788   7.398   3.590
 1274SOL    HW214292   9.651   7.308   3.596
 1275SOL     OW14293   1.701   6.192   1.214
 1275SOL    HW114294   1.610   6.160   1.243
 1275SOL    HW214295   1.758   6.206   1.294
 1276SOL     OW14296   4.209   3.290   1.858
 1276SOL    HW114297   4.252   3.252   1.939
 1276SOL    HW214298   4.110   3.283   1.866
 1277SOL     OW14299   1.279   5.335   0.403
 1277SOL    HW114300   1.291   5.259   0.339
 1277SOL    HW214301   1.315   5.308   0.493
 1278SOL     OW14302   5.134   1.653   3.061
 1278SOL    HW114303   5.052   1.708   3.075
 1278SOL    HW214304   5.158   1.652   2.964
 1279SOL     OW14305   4.461   2.813   0.500
 1279SOL    HW114306   4.453   2.713   0.492
 1279SOL    HW214307   4.435   2.855   0.413
 1280SOL     OW14308   9.138   7.579   3.540
 1280SOL    HW114309   9.139   7.479   3.534
 1280SOL    HW214310   9.065   7.608   3.601
 1281SOL     OW14311   8.811   0.551   1.825
 1281SOL    HW114312   8.861   0.520   1.906
 1281SOL    HW214313   8.796   0.650   1.830
 1282SOL     OW14314   3.594   8.673   0.575
 1282SOL    HW114315   3.521   8.657   0.642
 1282SOL    HW214316   3.572   8.755   0.522
 1283SOL     OW14317   0.265   5.577   0.887
 1283SOL    HW114318   0.254   5.670   0.851
 1283SOL    HW214319   0.320   5.581   0.971
 1284SOL     OW14320   2.566   4.510   1.418
 1284SOL    HW114321   2.646   4.479   1.468
 1284SOL    HW214322   2.537   4.439   1.353
 1285SOL     OW14323   8.901   4.471   2.289
 1285SOL    HW114324   8.923   4.397   2.225
 1285SOL    HW214325   8.801   4.479   2.297
 1286SOL     OW14326   2.847   0.266   1.712
 1286SOL    HW114327   2.924   0.208   1.737
 1286SOL    HW214328   2.877   0.334   1.644
 1287SOL     OW14329   0.566   4.932   1.194
 1287SOL    HW114330   0.521   5.015   1.160
 1287SOL    HW214331   0.498   4.872   1.234
 1288SOL     OW14332   4.876   3.648   0.859
 1288SOL    HW114333   4.935   3.566   0.856
 1288SOL    HW214334   4.884   3.698   0.773
 1289SOL     OW14335   4.987   1.638   2.258
 1289SOL    HW114336   4.953   1.586   2.180
 1289SOL    HW214337   4.979   1.736   2.238
 1290SOL     OW14338   3.496   7.546   0.614
 1290SOL    HW114339   3.485   7.447   0.608
 1290SOL    HW214340   3.439   7.590   0.545
 1291SOL     OW14341   9.003   8.205   1.127
 1291SOL    HW114342   8.904   8.198   1.125
 1291SOL    HW214343   9.040   8.191   1.035
 1292SOL     OW14344   2.512   8.205   1.251
 1292SOL    HW114345   2.540   8.130   1.311
 1292SOL    HW214346   2.593   8.255   1.220
 1293SOL     OW14347   3.634   7.579   3.499
 1293SOL    HW114348   3.664   7.645   3.430
 1293SOL    HW214349   3.699   7.503   3.502
 1294SOL     OW14350   1.261   7.113   0.117
 1294SOL    HW114351   1.359   7.124   0.135
 1294SOL    HW214352   1.249   7.044   0.045
 1295SOL     OW14353   3.050   6.505   3.549
 1295SOL    HW114354   2.974   6.455   3.506
 1295SOL    HW214355   3.135   6.485   3.499
 1296SOL     OW14356   5.201   9.542   2.521
 1296SOL    HW114357   5.277   9.533   2.585
 1296SOL    HW214358   5.213   9.626   2.468
 1297SOL     OW14359   8.389   1.781   0.342
 1297SOL    HW114360   8.482   1.818   0.332
 1297SOL    HW214361   8.384   1.729   0.428
 1298SOL     OW14362   4.212   2.216   2.267
 1298SOL    HW114363   4.266   2.183   2.344
 1298SOL    HW214364   4.205   2.144   2.197
 1299SOL     OW14365   3.168   1.660   2.287
 1299SOL    HW114366   3.092   1.609   2.325
 1299SOL    HW214367   3.251   1.605   2.290
 1300SOL     OW14368   4.390   8.028   3.464
 1300SOL    HW114369   4.417   8.024   3.368
 1300SOL    HW214370   4.298   7.990   3.474
 1301SOL     OW14371   5.163   1.012   2.555
 1301SOL    HW114372   5.083   1.020   2.615
 1301SOL    HW214373   5.134   0.980   2.465
 1302SOL     OW14374   7.071   9.107   2.128
 1302SOL    HW114375   7.054   9.172   2.202
 1302SOL    HW214376   7.169   9.097   2.113
 1303SOL     OW14377   3.374   1.165   0.387
 1303SOL    HW114378   3.398   1.092   0.451
 1303SOL    HW214379   3.314   1.127   0.316
 1304SOL     OW14380   2.359   5.718   0.183
 1304SOL    HW114381   2.378   5.802   0.132
 1304SOL    HW214382   2.297   5.738   0.259
 1305SOL     OW14383   0.803   2.359   3.201
 1305SOL    HW114384   0.844   2.414   3.129
 1305SOL    HW214385   0.858   2.366   3.284
 1306SOL     OW14386   0.063   6.476   1.800
 1306SOL    HW114387   0.153   6.488   1.760
 1306SOL    HW214388   0.070   6.482   1.900
 1307SOL     OW14389   8.560   9.408   3.272
 1307SOL    HW114390   8.580   9.313   3.293
 1307SOL    HW214391   8.461   9.420   3.265
 1308SOL     OW14392   2.647   1.703   1.979
 1308SOL    HW114393   2.667   1.605   1.971
 1308SOL    HW214394   2.641   1.743   1.888
 1309SOL     OW14395   3.070   3.789   0.385
 1309SOL    HW114396   3.161   3.802   0.423
 1309SOL    HW214397   3.003   3.832   0.446
 1310SOL     OW14398   3.837   2.832   3.473
 1310SOL    HW114399   3.862   2.753   3.529
 1310SOL    HW214400   3.866   2.816   3.378
 1311SOL     OW14401   1.327   3.399   3.035
 1311SOL    HW114402   1.370   3.473   2.985
 1311SOL    HW214403   1.393   3.325   3.050
 1312SOL     OW14404   2.567   5.175   2.015
 1312SOL    HW114405   2.639   5.203   1.951
 1312SOL    HW214406   2.574   5.229   2.099
 1313SOL     OW14407   2.501   0.672   2.988
 1313SOL    HW114408   2.578   0.695   2.929
 1313SOL    HW214409   2.522   0.587   3.038
 1314SOL     OW14410   7.789   3.198   1.057
 1314SOL    HW114411   7.798   3.167   0.963
 1314SOL    HW214412   7.793   3.120   1.119
 1315SOL     OW14413   0.024   8.705   1.725
 1315SOL    HW114414   9.977   8.657   1.799
 1315SOL    HW214415   0.004   8.661   1.638
 1316SOL     OW14416   5.353   8.113   3.598
 1316SOL    HW114417   5.289   8.048   3.639
 1316SOL    HW214418   5.323   8.206   3.619
 1317SOL     OW14419   6.154   8.340   3.209
 1317SOL    HW114420   6.157   8.245   3.237
 1317SOL    HW214421   6.238   8.363   3.158
 1318SOL     OW14422   3.797   9.881   2.061
 1318SOL    HW114423   3.799   9.980   2.046
 1318SOL    HW214424   3.703   9.852   2.076
 1319SOL     OW14425   0.358   4.537   0.556
 1319SOL    HW114426   0.275   4.537   0.611
 1319SOL    HW214427   0.432   4.494   0.608
 1320SOL     OW14428   6.502   8.004   1.791
 1320SOL    HW114429   6.595   8.004   1.827
 1320SOL    HW214430   6.453   7.924   1.825
 1321SOL     OW14431   0.162   3.424   0.174
 1321SOL    HW114432   0.226   3.499   0.190
 1321SOL    HW214433   0.081   3.437   0.230
 1322SOL     OW14434   0.602   5.329   1.929
 1322SOL    HW114435   0.582   5.421   1.896
 1322SOL    HW214436   0.565   5.262   1.865
 1323SOL     OW14437   4.804   3.610   3.630
 1323SOL    HW114438   4.782   3.625   3.727
 1323SOL    HW214439   4.800   3.512   3.610
 1324SOL     OW14440   9.787   8.715   3.583
 1324SOL    HW114441   9.783   8.623   3.622
 1324SOL    HW214442   9.714   8.771   3.621
 1325SOL     OW14443   4.230   0.950   1.084
 1325SOL    HW114444   4.313   0.898   1.069
 1325SOL    HW214445   4.209   0.953   1.181
 1326SOL     OW14446   9.866   3.615   3.715
 1326SOL    HW114447   9.924   3.663   3.650
 1326SOL    HW214448   9.881   3.652   3.807
 1327SOL     OW14449   3.511   4.700   3.454
 1327SOL    HW114450   3.539   4.634   3.522
 1327SOL    HW214451   3.520   4.793   3.491
 1328SOL     OW14452   4.608   7.164   1.849
 1328SOL    HW114453   4.549   7.240   1.877
 1328SOL    HW214454   4.601   7.151   1.750
 1329SOL     OW14455   0.576   3.334   1.890
 1329SOL    HW114456   0.670   3.315   1.862
 1329SOL    HW214457   0.550   3.426   1.861
 1330SOL     OW14458   2.439   0.749   3.379
 1330SOL    HW114459   2.479   0.802   3.304
 1330SOL    HW214460   2.344   0.726   3.356
 1331SOL     OW14461   9.082   3.921   0.022
 1331SOL    HW114462   9.179   3.920   0.046
 1331SOL    HW214463   9.055   3.831   4.768
 1332SOL     OW14464   2.333   7.648   1.392
 1332SOL    HW114465   2.353   7.720   1.326
 1332SOL    HW214466   2.235   7.646   1.411
 1333SOL     OW14467   9.310   1.560   1.717
 1333SOL    HW114468   9.280   1.466   1.698
 1333SOL    HW214469   9.399   1.558   1.761
 1334SOL     OW14470   3.960   2.606   3.577
 1334SOL    HW114471   4.023   2.617   3.501
 1334SOL    HW214472   4.008   2.564   3.655
 1335SOL     OW14473   1.212   2.539   0.630
 1335SOL    HW114474   1.207   2.537   0.730
 1335SOL    HW214475   1.156   2.465   0.592
 1336SOL     OW14476   1.999   1.447   0.646
 1336SOL    HW114477   1.952   1.479   0.728
 1336SOL    HW214478   1.989   1.516   0.573
 1337SOL     OW14479   3.868   7.886   1.716
 1337SOL    HW114480   3.871   7.888   1.816
 1337SOL    HW214481   3.951   7.841   1.682
 1338SOL     OW14482   6.774   7.002   3.077
 1338SOL    HW114483   6.697   6.977   3.136
 1338SOL    HW214484   6.777   6.941   2.998
 1339SOL     OW14485   3.754   9.285   1.750
 1339SOL    HW114486   3.718   9.191   1.754
 1339SOL    HW214487   3.829   9.290   1.684
 1340SOL     OW14488   4.589   9.968   2.150
 1340SOL    HW114489   4.589   9.989   2.248
 1340SOL    HW214490   4.637   0.040   2.101
 1341SOL     OW14491   1.571   8.085   1.722
 1341SOL    HW114492   1.593   8.179   1.698
 1341SOL    HW214493   1.646   8.046   1.776
 1342SOL     OW14494   7.084   8.412   3.236
 1342SOL    HW114495   7.167   8.467   3.246
 1342SOL    HW214496   7.053   8.381   3.326
 1343SOL     OW14497   1.038   4.023   3.255
 1343SOL    HW114498   0.973   4.076   3.201
 1343SOL    HW214499   0.988   3.968   3.323
 1344SOL     OW14500   9.796   4.527   2.190
 1344SOL    HW114501   9.853   4.555   2.267
 1344SOL    HW214502   9.705   4.568   2.199
 1345SOL     OW14503   9.903   6.739   0.414
 1345SOL    HW114504   9.989   6.789   0.424
 1345SOL    HW214505   9.834   6.800   0.375
 1346SOL     OW14506   3.296   9.242   3.069
 1346SOL    HW114507   3.331   9.185   2.995
 1346SOL    HW214508   3.295   9.191   3.154
 1347SOL     OW14509   3.971   2.371   3.318
 1347SOL    HW114510   3.895   2.435   3.310
 1347SOL    HW214511   4.039   2.392   3.248
 1348SOL     OW14512   9.817   1.086   0.418
 1348SOL    HW114513   9.857   1.038   0.496
 1348SOL    HW214514   9.844   1.182   0.419
 1349SOL     OW14515   0.509   1.127   1.646
 1349SOL    HW114516   0.546   1.039   1.677
 1349SOL    HW214517   0.505   1.127   1.546
 1350SOL     OW14518   1.921   6.858   2.981
 1350SOL    HW114519   1.894   6.770   2.943
 1350SOL    HW214520   1.940   6.849   3.079
 1351SOL     OW14521   1.341   2.065   3.227
 1351SOL    HW114522   1.251   2.040   3.263
 1351SOL    HW214523   1.395   1.982   3.213
 1352SOL     OW14524   8.792   7.779   2.138
 1352SOL    HW114525   8.766   7.744   2.048
 1352SOL    HW214526   8.721   7.754   2.204
 1353SOL     OW14527   0.918   2.439   0.898
 1353SOL    HW114528   0.874   2.431   0.809
 1353SOL    HW214529   0.858   2.487   0.961
 1354SOL     OW14530   0.393   5.265   1.347
 1354SOL    HW114531   0.414   5.219   1.261
 1354SOL    HW214532   0.473   5.316   1.378
 1355SOL     OW14533   0.570   3.618   3.268
 1355SOL    HW114534   0.623   3.544   3.309
 1355SOL    HW214535   0.628   3.670   3.206
 1356SOL     OW14536   9.649   4.998   0.599
 1356SOL    HW114537   9.632   4.929   0.668
 1356SOL    HW214538   9.734   5.048   0.620
 1357SOL     OW14539   5.906   8.028   2.636
 1357SOL    HW114540   5.987   7.995   2.587
 1357SOL    HW214541   5.829   7.966   2.619
 1358SOL     OW14542   9.858   1.626   3.356
 1358SOL    HW114543   9.828   1.573   3.276
 1358SOL    HW214544   9.893   1.563   3.426
 1359SOL     OW14545   4.182   3.748   0.143
 1359SOL    HW114546   4.086   3.736   0.167
 1359SOL    HW214547   4.222   3.659   0.119
 1360SOL     OW14548   7.718   1.992   0.848
 1360SOL    HW114549   7.733   1.984   0.946
 1360SOL    HW214550   7.715   1.901   0.807
 1361SOL     OW14551   8.883   2.514   1.191
 1361SOL    HW114552   8.805   2.499   1.130
 1361SOL    HW214553   8.901   2.612   1.200
 1362SOL     OW14554   2.997   4.927   3.082
 1362SOL    HW114555   2.930   4.890   3.018
 1362SOL    HW214556   3.065   4.980   3.032
 1363SOL     OW14557   0.380   4.794   3.525
 1363SOL    HW114558   0.391   4.787   3.624
 1363SOL    HW214559   0.410   4.708   3.482
 1364SOL     OW14560   8.365   7.334   2.545
 1364SOL    HW114561   8.298   7.304   2.477
 1364SOL    HW214562   8.318   7.358   2.630
 1365SOL     OW14563   8.440   9.962   2.340
 1365SOL    HW114564   8.392   9.874   2.335
 1365SOL    HW214565   8.404   0.015   2.417
 1366SOL     OW14566   8.876   0.329   1.005
 1366SOL    HW114567   8.827   0.384   0.937
 1366SOL    HW214568   8.813   0.263   1.046
 1367SOL     OW14569   1.686   3.300   1.618
 1367SOL    HW114570   1.603   3.344   1.652
 1367SOL    HW214571   1.685   3.203   1.644
 1368SOL     OW14572   4.528   3.645   0.049
 1368SOL    HW114573   4.443   3.593   0.057
 1368SOL    HW214574   4.538   3.678   4.736
 1369SOL     OW14575   2.335   3.861   0.059
 1369SOL    HW114576   2.271   3.829   0.129
 1369SOL    HW214577   2.308   3.826   4.751
 1370SOL     OW14578   2.598   6.567   3.423
 1370SOL    HW114579   2.534   6.561   3.500
 1370SOL    HW214580   2.611   6.663   3.398
 1371SOL     OW14581   4.259   0.599   2.676
 1371SOL    HW114582   4.216   0.653   2.748
 1371SOL    HW214583   4.233   0.503   2.686
 1372SOL     OW14584   1.159   9.930   1.576
 1372SOL    HW114585   1.080   9.869   1.575
 1372SOL    HW214586   1.241   9.878   1.550
 1373SOL     OW14587   3.085   5.412   2.767
 1373SOL    HW114588   3.055   5.382   2.858
 1373SOL    HW214589   3.138   5.497   2.777
 1374SOL     OW14590   7.045   1.373   2.933
 1374SOL    HW114591   7.096   1.433   2.872
 1374SOL    HW214592   7.100   1.292   2.955
 1375SOL     OW14593   9.577   0.001   1.446
 1375SOL    HW114594   9.620   0.012   1.357
 1375SOL    HW214595   9.507   9.930   1.441
 1376SOL     OW14596   1.525   2.267   0.722
 1376SOL    HW114597   1.429   2.252   0.746
 1376SOL    HW214598   1.565   2.334   0.784
 1377SOL     OW14599   3.195   4.415   2.611
 1377SOL    HW114600   3.151   4.347   2.670
 1377SOL    HW214601   3.135   4.494   2.600
 1378SOL     OW14602   1.009   2.030   3.072
 1378SOL    HW114603   0.933   2.000   3.130
 1378SOL    HW214604   0.983   2.114   3.023
 1379SOL     OW14605   5.757   9.355   1.735
 1379SOL    HW114606   5.681   9.414   1.762
 1379SOL    HW214607   5.816   9.404   1.671
 1380SOL     OW14608   1.346   4.416   0.343
 1380SOL    HW114609   1.353   4.344   0.411
 1380SOL    HW214610   1.255   4.413   0.300
 1381SOL     OW14611   1.864   8.476   1.562
 1381SOL    HW114612   1.951   8.468   1.513
 1381SOL    HW214613   1.880   8.516   1.652
 1382SOL     OW14614   2.282   6.831   0.971
 1382SOL    HW114615   2.259   6.757   0.908
 1382SOL    HW214616   2.258   6.919   0.930
 1383SOL     OW14617   9.294   0.198   2.693
 1383SOL    HW114618   9.225   0.182   2.623
 1383SOL    HW214619   9.303   0.117   2.751
 1384SOL     OW14620   1.035   8.715   2.521
 1384SOL    HW114621   1.003   8.670   2.605
 1384SOL    HW214622   1.104   8.783   2.544
 1385SOL     OW14623   0.302   0.383   0.238
 1385SOL    HW114624   0.364   0.450   0.196
 1385SOL    HW214625   0.267   0.419   0.324
 1386SOL     OW14626   1.842   7.659   1.104
 1386SOL    HW114627   1.882   7.747   1.079
 1386SOL    HW214628   1.744   7.669   1.121
 1387SOL     OW14629   2.492   8.671   3.332
 1387SOL    HW114630   2.415   8.615   3.303
 1387SOL    HW214631   2.480   8.765   3.298
 1388SOL     OW14632   5.790   0.510   3.566
 1388SOL    HW114633   5.729   0.503   3.645
 1388SOL    HW214634   5.885   0.518   3.598
 1389SOL     OW14635   9.200   7.646   1.510
 1389SOL    HW114636   9.173   7.742   1.520
 1389SOL    HW214637   9.166   7.610   1.423
 1390SOL     OW14638   8.377   3.068   1.233
 1390SOL    HW114639   8.439   3.084   1.156
 1390SOL    HW214640   8.343   3.156   1.268
 1391SOL     OW14641   2.999   0.293   2.412
 1391SOL    HW114642   2.929   0.323   2.477
 1391SOL    HW214643   2.965   0.305   2.319
 1392SOL     OW14644   3.937   1.084   3.103
 1392SOL    HW114645   4.008   1.051   3.165
 1392SOL    HW214646   3.847   1.054   3.135
 1393SOL     OW14647   9.415   6.282   1.933
 1393SOL    HW114648   9.455   6.273   2.025
 1393SOL    HW214649   9.447   6.367   1.891
 1394SOL     OW14650   8.926   3.351   1.571
 1394SOL    HW114651   8.966   3.361   1.662
 1394SOL    HW214652   8.986   3.394   1.503
 1395SOL     OW14653   9.944   0.231   1.127
 1395SOL    HW114654   9.901   0.180   1.053
 1395SOL    HW214655   9.885   0.307   1.155
 1396SOL     OW14656   6.512   9.363   3.380
 1396SOL    HW114657   6.481   9.446   3.334
 1396SOL    HW214658   6.605   9.377   3.414
 1397SOL     OW14659   0.102   5.171   2.325
 1397SOL    HW114660   0.096   5.075   2.297
 1397SOL    HW214661   0.195   5.204   2.311
 1398SOL     OW14662   1.297   9.281   0.776
 1398SOL    HW114663   1.215   9.242   0.733
 1398SOL    HW214664   1.360   9.313   0.706
 1399SOL     OW14665   8.532   0.989   0.293
 1399SOL    HW114666   8.613   1.011   0.238
 1399SOL    HW214667   8.544   0.899   0.335
 1400SOL     OW14668   9.462   9.090   2.941
 1400SOL    HW114669   9.463   9.043   3.030
 1400SOL    HW214670   9.549   9.074   2.894
 1401SOL     OW14671   1.543   1.207   2.929
 1401SOL    HW114672   1.626   1.199   2.984
 1401SOL    HW214673   1.493   1.289   2.957
 1402SOL     OW14674   3.522   2.965   0.280
 1402SOL    HW114675   3.539   2.887   0.219
 1402SOL    HW214676   3.518   3.049   0.226
 1403SOL     OW14677   0.263   7.295   2.211
 1403SOL    HW114678   0.227   7.206   2.239
 1403SOL    HW214679   0.203   7.367   2.246
 1404SOL     OW14680   4.170   8.261   2.664
 1404SOL    HW114681   4.121   8.215   2.739
 1404SOL    HW214682   4.189   8.194   2.592
 1405SOL     OW14683   3.146   7.717   0.842
 1405SOL    HW114684   3.197   7.768   0.772
 1405SOL    HW214685   3.207   7.693   0.917
 1406SOL     OW14686   4.888   0.480   3.221
 1406SOL    HW114687   4.928   0.551   3.164
 1406SOL    HW214688   4.927   0.392   3.197
 1407SOL     OW14689   3.157   4.868   1.269
 1407SOL    HW114690   3.108   4.786   1.300
 1407SOL    HW214691   3.250   4.843   1.244
 1408SOL     OW14692   8.115   6.188   0.822
 1408SOL    HW114693   8.139   6.136   0.903
 1408SOL    HW214694   8.061   6.268   0.848
 1409SOL     OW14695   5.358   9.194   1.494
 1409SOL    HW114696   5.421   9.189   1.572
 1409SOL    HW214697   5.411   9.193   1.409
 1410SOL     OW14698   8.113   8.665   3.424
 1410SOL    HW114699   8.061   8.745   3.453
 1410SOL    HW214700   8.072   8.627   3.341
 1411SOL     OW14701   3.101   6.749   3.657
 1411SOL    HW114702   3.086   6.657   3.619
 1411SOL    HW214703   3.035   6.766   3.730
 1412SOL     OW14704   8.540   0.283   3.088
 1412SOL    HW114705   8.488   0.232   3.157
 1412SOL    HW214706   8.636   0.253   3.090
 1413SOL     OW14707   4.619   0.596   1.183
 1413SOL    HW114708   4.678   0.653   1.240
 1413SOL    HW214709   4.556   0.654   1.131
 1414SOL     OW14710   4.681   3.448   0.193
 1414SOL    HW114711   4.714   3.368   0.143
 1414SOL    HW214712   4.637   3.511   0.130
 1415SOL     OW14713   1.761   0.082   1.976
 1415SOL    HW114714   1.833   0.125   1.921
 1415SOL    HW214715   1.675   0.084   1.926
 1416SOL     OW14716   9.532   4.730   0.035
 1416SOL    HW114717   9.602   4.707   0.104
 1416SOL    HW214718   9.548   4.822   0.001
 1417SOL     OW14719   8.549   3.222   0.193
 1417SOL    HW114720   8.488   3.177   0.127
 1417SOL    HW214721   8.504   3.224   0.282
 1418SOL     OW14722   8.776   0.401   3.310
 1418SOL    HW114723   8.791   0.359   3.400
 1418SOL    HW214724   8.784   0.332   3.239
 1419SOL     OW14725   5.482   3.914   0.201
 1419SOL    HW114726   5.483   4.006   0.240
 1419SOL    HW214727   5.395   3.900   0.153
 1420SOL     OW14728   8.780   6.429   0.182
 1420SOL    HW114729   8.855   6.364   0.196
 1420SOL    HW214730   8.818   6.516   0.150
 1421SOL     OW14731   8.953   0.615   3.350
 1421SOL    HW114732   8.983   0.675   3.275
 1421SOL    HW214733   8.882   0.553   3.316
 1422SOL     OW14734   9.591   1.927   0.205
 1422SOL    HW114735   9.663   1.960   0.144
 1422SOL    HW214736   9.526   2.001   0.222
 1423SOL     OW14737   3.664   3.999   0.865
 1423SOL    HW114738   3.738   4.066   0.857
 1423SOL    HW214739   3.683   3.922   0.805
 1424SOL     OW14740   6.794   8.877   1.501
 1424SOL    HW114741   6.730   8.948   1.531
 1424SOL    HW214742   6.880   8.920   1.473
 1425SOL     OW14743   9.624   3.018   1.882
 1425SOL    HW114744   9.660   3.102   1.842
 1425SOL    HW214745   9.557   3.042   1.953
 1426SOL     OW14746   8.336   9.257   3.509
 1426SOL    HW114747   8.417   9.251   3.566
 1426SOL    HW214748   8.291   9.168   3.505
 1427SOL     OW14749   0.173   9.229   0.954
 1427SOL    HW114750   0.218   9.237   0.865
 1427SOL    HW214751   0.239   9.196   1.022
 1428SOL     OW14752   8.895   5.854   3.465
 1428SOL    HW114753   8.942   5.913   3.399
 1428SOL    HW214754   8.912   5.888   3.558
 1429SOL     OW14755   1.791   1.563   1.717
 1429SOL    HW114756   1.824   1.502   1.645
 1429SOL    HW214757   1.820   1.656   1.697
 1430SOL     OW14758   5.116   1.401   2.323
 1430SOL    HW114759   5.035   1.356   2.361
 1430SOL    HW214760   5.094   1.496   2.301
 1431SOL     OW14761   0.530   6.514   0.877
 1431SOL    HW114762   0.547   6.457   0.797
 1431SOL    HW214763   0.480   6.461   0.945
 1432SOL     OW14764   0.030   4.323   0.705
 1432SOL    HW114765   0.084   4.255   0.754
 1432SOL    HW214766   0.074   4.412   0.710
 1433SOL     OW14767   5.282   9.187   2.949
 1433SOL    HW114768   5.317   9.094   2.952
 1433SOL    HW214769   5.193   9.192   2.995
 1434SOL     OW14770   2.640   8.726   2.631
 1434SOL    HW114771   2.641   8.792   2.555
 1434SOL    HW214772   2.699   8.759   2.704
 1435SOL     OW14773   0.528   9.121   1.816
 1435SOL    HW114774   0.431   9.104   1.834
 1435SOL    HW214775   0.583   9.059   1.873
 1436SOL     OW14776   9.257   9.437   2.673
 1436SOL    HW114777   9.320   9.411   2.746
 1436SOL    HW214778   9.295   9.512   2.620
 1437SOL     OW14779   1.488   8.570   0.647
 1437SOL    HW114780   1.498   8.497   0.714
 1437SOL    HW214781   1.577   8.613   0.630
 1438SOL     OW14782   3.666   8.506   0.918
 1438SOL    HW114783   3.710   8.573   0.858
 1438SOL    HW214784   3.608   8.445   0.863
 1439SOL     OW14785   7.250   9.592   2.324
 1439SOL    HW114786   7.290   9.546   2.403
 1439SOL    HW214787   7.152   9.576   2.322
 1440SOL     OW14788   1.235   9.182   3.103
 1440SOL    HW114789   1.254   9.247   3.029
 1440SOL    HW214790   1.136   9.172   3.114
 1441SOL     OW14791   2.133   7.257   3.675
 1441SOL    HW114792   2.036   7.233   3.682
 1441SOL    HW214793   2.142   7.353   3.651
 1442SOL     OW14794   3.045   3.757   2.807
 1442SOL    HW114795   3.092   3.845   2.804
 1442SOL    HW214796   2.948   3.770   2.787
 1443SOL     OW14797   6.912   9.352   0.742
 1443SOL    HW114798   6.954   9.416   0.678
 1443SOL    HW214799   6.814   9.371   0.749
 1444SOL     OW14800   3.617   7.077   0.935
 1444SOL    HW114801   3.539   7.138   0.920
 1444SOL    HW214802   3.660   7.055   0.848
 1445SOL     OW14803   0.627   0.126   0.344
 1445SOL    HW114804   0.637   0.077   0.431
 1445SOL    HW214805   0.717   0.134   0.300
 1446SOL     OW14806   7.931   8.337   3.033
 1446SOL    HW114807   7.927   8.404   2.959
 1446SOL    HW214808   7.843   8.337   3.083
 1447SOL     OW14809   1.185   1.011   0.081
 1447SOL    HW114810   1.150   1.032   4.771
 1447SOL    HW214811   1.214   1.095   0.127
 1448SOL     OW14812   1.078   8.272   2.118
 1448SOL    HW114813   1.026   8.313   2.192
 1448SOL    HW214814   1.121   8.345   2.064
 1449SOL     OW14815   7.255   8.186   3.446
 1449SOL    HW114816   7.323   8.259   3.447
 1449SOL    HW214817   7.164   8.224   3.466
 1450SOL     OW14818   0.748   2.239   1.294
 1450SOL    HW114819   0.763   2.169   1.364
 1450SOL    HW214820   0.750   2.329   1.337
 1451SOL     OW14821   3.221   6.387   2.628
 1451SOL    HW114822   3.143   6.345   2.673
 1451SOL    HW214823   3.291   6.410   2.696
 1452SOL     OW14824   1.077   6.621   0.067
 1452SOL    HW114825   1.110   6.657   0.154
 1452SOL    HW214826   1.135   6.544   0.039
 1453SOL     OW14827   2.892   1.179   3.099
 1453SOL    HW114828   2.814   1.126   3.066
 1453SOL    HW214829   2.965   1.117   3.128
 1454SOL     OW14830   9.714   3.764   2.861
 1454SOL    HW114831   9.769   3.683   2.882
 1454SOL    HW214832   9.632   3.736   2.810
 1455SOL     OW14833   2.964   4.602   3.698
 1455SOL    HW114834   2.880   4.630   3.653
 1455SOL    HW214835   3.022   4.682   3.713
 1456SOL     OW14836   4.058   8.507   2.599
 1456SOL    HW114837   4.091   8.419   2.634
 1456SOL    HW214838   4.003   8.551   2.670
 1457SOL     OW14839   5.179   7.741   3.525
 1457SOL    HW114840   5.186   7.807   3.600
 1457SOL    HW214841   5.270   7.720   3.491
 1458SOL     OW14842   4.963   8.774   2.912
 1458SOL    HW114843   4.912   8.847   2.956
 1458SOL    HW214844   4.900   8.708   2.871
 1459SOL     OW14845   4.284   4.047   3.685
 1459SOL    HW114846   4.379   4.062   3.714
 1459SOL    HW214847   4.270   4.088   3.595
 1460SOL     OW14848   9.654   6.627   2.911
 1460SOL    HW114849   9.569   6.586   2.880
 1460SOL    HW214850   9.642   6.725   2.921
 1461SOL     OW14851   2.069   2.539   1.703
 1461SOL    HW114852   1.981   2.578   1.727
 1461SOL    HW214853   2.133   2.552   1.779
 1462SOL     OW14854   0.193   2.395   0.123
 1462SOL    HW114855   0.213   2.413   0.027
 1462SOL    HW214856   0.094   2.388   0.136
 1463SOL     OW14857   2.691   3.728   2.451
 1463SOL    HW114858   2.637   3.718   2.367
 1463SOL    HW214859   2.786   3.703   2.432
 1464SOL     OW14860   3.601   7.977   0.209
 1464SOL    HW114861   3.617   8.043   0.135
 1464SOL    HW214862   3.506   7.985   0.240
 1465SOL     OW14863   6.149   0.686   3.244
 1465SOL    HW114864   6.164   0.785   3.232
 1465SOL    HW214865   6.061   0.661   3.203
 1466SOL     OW14866   1.235   0.672   3.508
 1466SOL    HW114867   1.154   0.710   3.466
 1466SOL    HW214868   1.278   0.740   3.568
 1467SOL     OW14869   2.689   3.818   3.053
 1467SOL    HW114870   2.696   3.723   3.023
 1467SOL    HW214871   2.704   3.824   3.152
 1468SOL     OW14872   9.617   1.860   1.208
 1468SOL    HW114873   9.620   1.810   1.295
 1468SOL    HW214874   9.710   1.881   1.179
 1469SOL     OW14875   7.885   2.759   1.641
 1469SOL    HW114876   7.907   2.792   1.733
 1469SOL    HW214877   7.807   2.697   1.646
 1470SOL     OW14878   9.434   4.309   0.123
 1470SOL    HW114879   9.394   4.400   0.108
 1470SOL    HW214880   9.393   4.244   0.060
 1471SOL     OW14881   0.481   6.248   0.217
 1471SOL    HW114882   0.550   6.206   0.276
 1471SOL    HW214883   0.390   6.220   0.248
 1472SOL     OW14884   6.503   9.843   2.057
 1472SOL    HW114885   6.415   9.827   2.101
 1472SOL    HW214886   6.573   9.859   2.127
 1473SOL     OW14887   5.095   2.112   2.721
 1473SOL    HW114888   5.048   2.187   2.768
 1473SOL    HW214889   5.101   2.133   2.623
 1474SOL     OW14890   0.270   8.959   0.102
 1474SOL    HW114891   0.179   8.999   0.089
 1474SOL    HW214892   0.302   8.976   0.195
 1475SOL     OW14893   3.068   4.522   3.119
 1475SOL    HW114894   3.047   4.558   3.028
 1475SOL    HW214895   2.989   4.533   3.179
 1476SOL     OW14896   0.017   1.825   2.388
 1476SOL    HW114897   9.964   1.868   2.461
 1476SOL    HW214898   9.959   1.761   2.338
 1477SOL     OW14899   7.853   7.160   2.791
 1477SOL    HW114900   7.853   7.111   2.704
 1477SOL    HW214901   7.910   7.111   2.856
 1478SOL     OW14902   3.911   2.754   3.219
 1478SOL    HW114903   3.842   2.682   3.219
 1478SOL    HW214904   3.903   2.808   3.135
 1479SOL     OW14905   4.057   1.238   1.502
 1479SOL    HW114906   4.129   1.255   1.434
 1479SOL    HW214907   4.080   1.156   1.554
 1480SOL     OW14908   2.518   3.963   1.531
 1480SOL    HW114909   2.569   4.040   1.570
 1480SOL    HW214910   2.547   3.949   1.436
 1481SOL     OW14911   9.494   1.980   3.373
 1481SOL    HW114912   9.465   1.909   3.437
 1481SOL    HW214913   9.489   2.070   3.418
 1482SOL     OW14914   8.751   5.862   1.510
 1482SOL    HW114915   8.720   5.939   1.567
 1482SOL    HW214916   8.826   5.893   1.452
 1483SOL     OW14917   0.143   7.845   1.357
 1483SOL    HW114918   0.170   7.790   1.277
 1483SOL    HW214919   0.137   7.786   1.437
 1484SOL     OW14920   8.527   4.959   0.851
 1484SOL    HW114921   8.550   5.053   0.828
 1484SOL    HW214922   8.429   4.951   0.867
 1485SOL     OW14923   9.934   8.611   1.155
 1485SOL    HW114924   9.932   8.615   1.055
 1485SOL    HW214925   0.007   8.550   1.184
 1486SOL     OW14926   4.443   8.897   2.061
 1486SOL    HW114927   4.346   8.888   2.083
 1486SOL    HW214928   4.464   8.994   2.045
 1487SOL     OW14929   1.947   7.656   3.292
 1487SOL    HW114930   1.911   7.595   3.363
 1487SOL    HW214931   1.971   7.602   3.211
 1488SOL     OW14932   2.386   3.751   3.413
 1488SOL    HW114933   2.442   3.815   3.467
 1488SOL    HW214934   2.317   3.710   3.472
 1489SOL     OW14935   3.300   1.621   0.584
 1489SOL    HW114936   3.272   1.539   0.635
 1489SOL    HW214937   3.374   1.597   0.521
 1490SOL     OW14938   9.887   4.227   0.966
 1490SOL    HW114939   9.810   4.240   0.904
 1490SOL    HW214940   9.972   4.219   0.913
 1491SOL     OW14941   7.722   2.348   3.389
 1491SOL    HW114942   7.734   2.291   3.470
 1491SOL    HW214943   7.730   2.444   3.414
 1492SOL     OW14944   3.660   3.523   0.812
 1492SOL    HW114945   3.641   3.448   0.750
 1492SOL    HW214946   3.757   3.524   0.836
 1493SOL     OW14947   2.841   5.590   3.647
 1493SOL    HW114948   2.855   5.612   3.744
 1493SOL    HW214949   2.888   5.505   3.626
 1494SOL     OW14950   0.110   5.542   3.321
 1494SOL    HW114951   0.051   5.539   3.241
 1494SOL    HW214952   0.152   5.452   3.335
 1495SOL     OW14953   0.765   2.798   2.340
 1495SOL    HW114954   0.754   2.897   2.345
 1495SOL    HW214955   0.852   2.777   2.295
 1496SOL     OW14956   4.569   7.954   2.498
 1496SOL    HW114957   4.639   7.905   2.445
 1496SOL    HW214958   4.479   7.937   2.457
 1497SOL     OW14959   8.741   3.501   0.479
 1497SOL    HW114960   8.717   3.495   0.382
 1497SOL    HW214961   8.722   3.594   0.512
 1498SOL     OW14962   9.511   8.193   0.921
 1498SOL    HW114963   9.463   8.124   0.976
 1498SOL    HW214964   9.530   8.273   0.978
 1499SOL     OW14965   3.418   9.347   0.764
 1499SOL    HW114966   3.471   9.420   0.809
 1499SOL    HW214967   3.464   9.320   0.679
 1500SOL     OW14968   3.685   6.928   2.427
 1500SOL    HW114969   3.662   7.001   2.492
 1500SOL    HW214970   3.674   6.963   2.334
 1501SOL     OW14971   0.778   2.038   1.469
 1501SOL    HW114972   0.695   2.019   1.522
 1501SOL    HW214973   0.836   1.956   1.467
 1502SOL     OW14974   2.173   2.014   1.084
 1502SOL    HW114975   2.209   1.947   1.148
 1502SOL    HW214976   2.182   1.979   0.991
 1503SOL     OW14977   0.566   1.184   2.410
 1503SOL    HW114978   0.484   1.241   2.411
 1503SOL    HW214979   0.565   1.121   2.487
 1504SOL     OW14980   3.483   3.890   3.226
 1504SOL    HW114981   3.409   3.842   3.273
 1504SOL    HW214982   3.481   3.987   3.250
 1505SOL     OW14983   6.212   7.211   2.321
 1505SOL    HW114984   6.186   7.160   2.403
 1505SOL    HW214985   6.301   7.181   2.289
 1506SOL     OW14986   0.934   3.825   2.269
 1506SOL    HW114987   0.856   3.830   2.331
 1506SOL    HW214988   0.904   3.845   2.176
 1507SOL     OW14989   1.214   1.260   3.709
 1507SOL    HW114990   1.296   1.257   3.652
 1507SOL    HW214991   1.236   1.308   3.795
 1508SOL     OW14992   3.437   4.075   3.483
 1508SOL    HW114993   3.342   4.102   3.498
 1508SOL    HW214994   3.494   4.157   3.476
 1509SOL     OW14995   2.416   3.592   1.073
 1509SOL    HW114996   2.396   3.675   1.124
 1509SOL    HW214997   2.398   3.512   1.131
 1510SOL     OW14998   1.056   7.110   1.236
 1510SOL    HW114999   1.137   7.054   1.217
 1510SOL    HW215000   1.035   7.166   1.156
 1511SOL     OW15001   0.119   4.768   2.470
 1511SOL    HW115002   0.161   4.825   2.540
 1511SOL    HW215003   0.098   4.824   2.390
 1512SOL     OW15004   0.524   7.749   2.410
 1512SOL    HW115005   0.437   7.716   2.374
 1512SOL    HW215006   0.577   7.672   2.446
 1513SOL     OW15007   8.442   6.538   0.827
 1513SOL    HW115008   8.399   6.549   0.916
 1513SOL    HW215009   8.426   6.445   0.793
 1514SOL     OW15010   0.123   8.573   3.272
 1514SOL    HW115011   0.038   8.621   3.297
 1514SOL    HW215012   0.117   8.479   3.306
 1515SOL     OW15013   6.983   9.550   2.360
 1515SOL    HW115014   6.906   9.559   2.297
 1515SOL    HW215015   6.956   9.582   2.450
 1516SOL     OW15016   2.625   6.416   1.583
 1516SOL    HW115017   2.558   6.362   1.531
 1516SOL    HW215018   2.717   6.390   1.556
 1517SOL     OW15019   1.883   5.789   1.428
 1517SOL    HW115020   1.835   5.780   1.341
 1517SOL    HW215021   1.981   5.777   1.413
 1518SOL     OW15022   3.016   6.019   0.194
 1518SOL    HW115023   3.060   5.984   0.112
 1518SOL    HW215024   2.981   6.111   0.177
 1519SOL     OW15025   0.579   4.818   3.106
 1519SOL    HW115026   0.587   4.852   3.200
 1519SOL    HW215027   0.667   4.828   3.059
 1520SOL     OW15028   3.438   1.185   0.066
 1520SOL    HW115029   3.395   1.275   0.060
 1520SOL    HW215030   3.527   1.193   0.112
 1521SOL     OW15031   5.060   9.409   3.259
 1521SOL    HW115032   4.997   9.367   3.324
 1521SOL    HW215033   5.145   9.432   3.305
 1522SOL     OW15034   6.867   0.108   2.262
 1522SOL    HW115035   6.923   0.144   2.188
 1522SOL    HW215036   6.800   0.178   2.291
 1523SOL     OW15037   1.345   4.037   3.067
 1523SOL    HW115038   1.322   4.086   3.152
 1523SOL    HW215039   1.270   4.047   3.002
 1524SOL     OW15040   1.529   5.530   2.871
 1524SOL    HW115041   1.483   5.551   2.957
 1524SOL    HW215042   1.589   5.451   2.883
 1525SOL     OW15043   4.903   8.353   2.124
 1525SOL    HW115044   4.855   8.293   2.187
 1525SOL    HW215045   4.985   8.390   2.168
 1526SOL     OW15046   7.337   7.548   2.737
 1526SOL    HW115047   7.344   7.470   2.799
 1526SOL    HW215048   7.260   7.534   2.675
 1527SOL     OW15049   0.674   2.588   0.531
 1527SOL    HW115050   0.584   2.621   0.501
 1527SOL    HW215051   0.729   2.564   0.452
 1528SOL     OW15052   2.868   6.774   3.265
 1528SOL    HW115053   2.775   6.789   3.300
 1528SOL    HW215054   2.934   6.818   3.326
 1529SOL     OW15055   3.926   6.227   3.075
 1529SOL    HW115056   3.952   6.223   2.978
 1529SOL    HW215057   3.898   6.136   3.106
 1530SOL     OW15058   8.679   7.531   3.661
 1530SOL    HW115059   8.680   7.431   3.656
 1530SOL    HW215060   8.613   7.567   3.594
 1531SOL     OW15061   3.488   0.266   1.902
 1531SOL    HW115062   3.534   0.330   1.840
 1531SOL    HW215063   3.433   0.317   1.968
 1532SOL     OW15064   3.409   6.462   2.811
 1532SOL    HW115065   3.405   6.556   2.778
 1532SOL    HW215066   3.504   6.434   2.822
 1533SOL     OW15067   9.675   2.262   2.308
 1533SOL    HW115068   9.755   2.306   2.268
 1533SOL    HW215069   9.595   2.323   2.300
 1534SOL     OW15070   7.700   1.069   0.908
 1534SOL    HW115071   7.756   1.056   0.826
 1534SOL    HW215072   7.734   1.011   0.982
 1535SOL     OW15073   0.936   5.065   3.339
 1535SOL    HW115074   0.913   4.971   3.316
 1535SOL    HW215075   0.965   5.070   3.434
 1536SOL     OW15076   8.701   3.475   3.592
 1536SOL    HW115077   8.645   3.447   3.515
 1536SOL    HW215078   8.797   3.480   3.563
 1537SOL     OW15079   1.823   0.598   3.110
 1537SOL    HW115080   1.756   0.533   3.146
 1537SOL    HW215081   1.799   0.690   3.139
 1538SOL     OW15082   0.524   0.846   1.338
 1538SOL    HW115083   0.473   0.836   1.423
 1538SOL    HW215084   0.614   0.803   1.348
 1539SOL     OW15085   8.972   0.350   1.366
 1539SOL    HW115086   8.950   0.372   1.461
 1539SOL    HW215087   8.979   0.251   1.354
 1540SOL     OW15088   8.999   2.133   1.054
 1540SOL    HW115089   9.016   2.222   1.010
 1540SOL    HW215090   8.905   2.105   1.035
 1541SOL     OW15091   1.364   2.293   3.574
 1541SOL    HW115092   1.275   2.247   3.573
 1541SOL    HW215093   1.395   2.307   3.480
 1542SOL     OW15094   8.178   5.145   3.035
 1542SOL    HW115095   8.266   5.147   2.988
 1542SOL    HW215096   8.138   5.053   3.029
 1543SOL     OW15097   3.832   2.562   1.691
 1543SOL    HW115098   3.797   2.647   1.653
 1543SOL    HW215099   3.776   2.533   1.768
 1544SOL     OW15100   8.771   6.635   3.625
 1544SOL    HW115101   8.816   6.584   3.552
 1544SOL    HW215102   8.840   6.681   3.681
 1545SOL     OW15103   1.623   3.692   1.796
 1545SOL    HW115104   1.626   3.658   1.889
 1545SOL    HW215105   1.708   3.671   1.749
 1546SOL     OW15106   9.747   8.463   3.686
 1546SOL    HW115107   9.659   8.442   3.644
 1546SOL    HW215108   9.740   8.449   3.785
 1547SOL     OW15109   0.921   4.808   1.505
 1547SOL    HW115110   0.896   4.711   1.504
 1547SOL    HW215111   1.017   4.817   1.477
 1548SOL     OW15112   2.737   7.165   1.581
 1548SOL    HW115113   2.718   7.209   1.493
 1548SOL    HW215114   2.690   7.076   1.584
 1549SOL     OW15115   9.194   0.444   1.244
 1549SOL    HW115116   9.167   0.486   1.158
 1549SOL    HW215117   9.113   0.419   1.296
 1550SOL     OW15118   8.750   3.262   0.602
 1550SOL    HW115119   8.824   3.266   0.670
 1550SOL    HW215120   8.737   3.353   0.563
 1551SOL     OW15121   2.915   9.622   1.632
 1551SOL    HW115122   2.893   9.557   1.705
 1551SOL    HW215123   2.847   9.614   1.559
 1552SOL     OW15124   3.236   8.572   3.004
 1552SOL    HW115125   3.230   8.669   2.980
 1552SOL    HW215126   3.151   8.543   3.047
 1553SOL     OW15127   4.620   9.855   3.264
 1553SOL    HW115128   4.532   9.807   3.272
 1553SOL    HW215129   4.607   9.951   3.288
 1554SOL     OW15130   6.420   0.179   3.636
 1554SOL    HW115131   6.385   0.249   3.573
 1554SOL    HW215132   6.374   0.186   3.724
 1555SOL     OW15133   5.557   9.853   1.570
 1555SOL    HW115134   5.626   9.804   1.623
 1555SOL    HW215135   5.469   9.807   1.577
 1556SOL     OW15136   1.549   2.474   0.138
 1556SOL    HW115137   1.488   2.449   0.213
 1556SOL    HW215138   1.584   2.566   0.152
 1557SOL     OW15139   2.537   9.118   3.420
 1557SOL    HW115140   2.454   9.149   3.467
 1557SOL    HW215141   2.596   9.071   3.485
 1558SOL     OW15142   1.309   0.175   2.003
 1558SOL    HW115143   1.239   0.133   1.946
 1558SOL    HW215144   1.290   0.273   2.012
 1559SOL     OW15145   2.851   6.007   3.492
 1559SOL    HW115146   2.884   6.066   3.419
 1559SOL    HW215147   2.850   6.058   3.579
 1560SOL     OW15148   3.952   3.447   3.645
 1560SOL    HW115149   3.863   3.488   3.625
 1560SOL    HW215150   3.969   3.451   3.744
 1561SOL     OW15151   0.655   7.712   2.953
 1561SOL    HW115152   0.705   7.683   3.035
 1561SOL    HW215153   0.575   7.764   2.980
 1562SOL     OW15154   9.688   4.668   0.257
 1562SOL    HW115155   9.766   4.607   0.268
 1562SOL    HW215156   9.605   4.623   0.292
 1563SOL     OW15157   8.503   1.657   2.142
 1563SOL    HW115158   8.415   1.678   2.185
 1563SOL    HW215159   8.498   1.568   2.096
 1564SOL     OW15160   9.179   5.762   1.349
 1564SOL    HW115161   9.116   5.686   1.336
 1564SOL    HW215162   9.270   5.736   1.315
 1565SOL     OW15163   8.896   4.764   3.587
 1565SOL    HW115164   8.835   4.713   3.527
 1565SOL    HW215165   8.866   4.754   3.682
 1566SOL     OW15166   9.731   6.619   3.180
 1566SOL    HW115167   9.715   6.627   3.081
 1566SOL    HW215168   9.677   6.543   3.216
 1567SOL     OW15169   2.409   5.516   2.042
 1567SOL    HW115170   2.431   5.577   2.118
 1567SOL    HW215171   2.332   5.458   2.067
 1568SOL     OW15172   9.058   1.635   2.295
 1568SOL    HW115173   9.044   1.652   2.393
 1568SOL    HW215174   9.114   1.552   2.284
 1569SOL     OW15175   4.010   2.245   2.593
 1569SOL    HW115176   3.929   2.199   2.559
 1569SOL    HW215177   4.004   2.343   2.576
 1570SOL     OW15178   8.532   8.800   1.616
 1570SOL    HW115179   8.625   8.779   1.645
 1570SOL    HW215180   8.467   8.740   1.664
 1571SOL     OW15181   4.933   2.337   2.778
 1571SOL    HW115182   4.848   2.284   2.787
 1571SOL    HW215183   4.941   2.371   2.685
 1572SOL     OW15184   8.303   8.491   0.415
 1572SOL    HW115185   8.221   8.448   0.452
 1572SOL    HW215186   8.346   8.547   0.486
 1573SOL     OW15187   5.899   0.679   2.423
 1573SOL    HW115188   5.973   0.735   2.385
 1573SOL    HW215189   5.820   0.682   2.361
 1574SOL     OW15190   9.331   9.424   0.076
 1574SOL    HW115191   9.367   9.480   0.151
 1574SOL    HW215192   9.341   9.474   4.771
 1575SOL     OW15193   1.331   5.117   0.251
 1575SOL    HW115194   1.316   5.018   0.250
 1575SOL    HW215195   1.429   5.136   0.241
 1576SOL     OW15196   9.731   5.432   2.961
 1576SOL    HW115197   9.738   5.344   3.006
 1576SOL    HW215198   9.760   5.423   2.865
 1577SOL     OW15199   1.904   6.445   2.427
 1577SOL    HW115200   1.893   6.458   2.328
 1577SOL    HW215201   1.983   6.386   2.444
 1578SOL     OW15202   1.030   0.561   2.097
 1578SOL    HW115203   0.935   0.544   2.069
 1578SOL    HW215204   1.032   0.586   2.194
 1579SOL     OW15205   9.750   0.641   2.861
 1579SOL    HW115206   9.807   0.560   2.869
 1579SOL    HW215207   9.673   0.622   2.801
 1580SOL     OW15208   8.864   9.326   1.067
 1580SOL    HW115209   8.914   9.253   1.114
 1580SOL    HW215210   8.924   9.371   1.001
 1581SOL     OW15211   0.870   5.957   1.661
 1581SOL    HW115212   0.901   5.930   1.751
 1581SOL    HW215213   0.775   5.929   1.648
 1582SOL     OW15214   8.084   3.483   0.811
 1582SOL    HW115215   7.996   3.528   0.827
 1582SOL    HW215216   8.075   3.418   0.735
 1583SOL     OW15217   1.267   9.767   1.246
 1583SOL    HW115218   1.319   9.798   1.326
 1583SOL    HW215219   1.169   9.772   1.267
 1584SOL     OW15220   8.842   8.166   2.744
 1584SOL    HW115221   8.840   8.241   2.678
 1584SOL    HW215222   8.782   8.093   2.713
 1585SOL     OW15223   9.552   3.259   3.009
 1585SOL    HW115224   9.625   3.191   3.014
 1585SOL    HW215225   9.483   3.230   2.943
 1586SOL     OW15226   1.119   8.543   2.325
 1586SOL    HW115227   1.097   8.610   2.396
 1586SOL    HW215228   1.049   8.472   2.324
 1587SOL     OW15229   8.747   3.623   1.658
 1587SOL    HW115230   8.714   3.552   1.721
 1587SOL    HW215231   8.775   3.581   1.572
 1588SOL     OW15232   8.031   2.369   1.851
 1588SOL    HW115233   7.943   2.397   1.890
 1588SOL    HW215234   8.093   2.447   1.852
 1589SOL     OW15235   1.624   5.733   0.697
 1589SOL    HW115236   1.703   5.793   0.684
 1589SOL    HW215237   1.557   5.780   0.755
 1590SOL     OW15238   2.369   0.237   0.282
 1590SOL    HW115239   2.356   0.138   0.270
 1590SOL    HW215240   2.366   0.259   0.380
 1591SOL     OW15241   2.394   1.720   1.478
 1591SOL    HW115242   2.422   1.809   1.514
 1591SOL    HW215243   2.467   1.683   1.421
 1592SOL     OW15244   3.880   5.967   2.329
 1592SOL    HW115245   3.882   5.899   2.256
 1592SOL    HW215246   3.797   6.022   2.320
 1593SOL     OW15247   5.649   0.648   2.906
 1593SOL    HW115248   5.552   0.626   2.905
 1593SOL    HW215249   5.672   0.695   2.991
 1594SOL     OW15250   2.139   1.464   3.568
 1594SOL    HW115251   2.168   1.554   3.535
 1594SOL    HW215252   2.219   1.412   3.599
 1595SOL     OW15253   5.770   0.309   2.170
 1595SOL    HW115254   5.706   0.279   2.241
 1595SOL    HW215255   5.847   0.245   2.165
 1596SOL     OW15256   7.994   0.689   3.266
 1596SOL    HW115257   7.928   0.674   3.340
 1596SOL    HW215258   8.087   0.685   3.302
 1597SOL     OW15259   8.486   8.990   2.634
 1597SOL    HW115260   8.408   9.050   2.653
 1597SOL    HW215261   8.488   8.915   2.700
 1598SOL     OW15262   3.043   5.906   0.614
 1598SOL    HW115263   3.070   5.984   0.671
 1598SOL    HW215264   3.021   5.828   0.671
 1599SOL     OW15265   0.731   7.089   3.569
 1599SOL    HW115266   0.674   7.148   3.512
 1599SOL    HW215267   0.674   7.018   3.610
 1600SOL     OW15268   0.548   1.415   0.720
 1600SOL    HW115269   0.471   1.463   0.762
 1600SOL    HW215270   0.634   1.449   0.759
 1601SOL     OW15271   8.626   7.705   0.294
 1601SOL    HW115272   8.579   7.754   0.220
 1601SOL    HW215273   8.622   7.760   0.378
 1602SOL     OW15274   1.125   2.168   3.567
 1602SOL    HW115275   1.137   2.094   3.501
 1602SOL    HW215276   1.032   2.166   3.603
 1603SOL     OW15277   2.811   4.300   2.873
 1603SOL    HW115278   2.763   4.229   2.924
 1603SOL    HW215279   2.787   4.390   2.909
 1604SOL     OW15280   2.234   4.264   2.289
 1604SOL    HW115281   2.272   4.210   2.213
 1604SOL    HW215282   2.146   4.224   2.316
 1605SOL     OW15283   6.483   8.705   1.725
 1605SOL    HW115284   6.461   8.732   1.632
 1605SOL    HW215285   6.583   8.709   1.738
 1606SOL     OW15286   4.132   3.493   3.295
 1606SOL    HW115287   4.034   3.498   3.316
 1606SOL    HW215288   4.173   3.584   3.300
 1607SOL     OW15289   8.876   9.316   0.203
 1607SOL    HW115290   8.826   9.401   0.183
 1607SOL    HW215291   8.812   9.240   0.207
 1608SOL     OW15292   4.132   0.573   0.114
 1608SOL    HW115293   4.229   0.597   0.116
 1608SOL    HW215294   4.112   0.507   0.186
 1609SOL     OW15295   5.390   8.113   2.871
 1609SOL    HW115296   5.480   8.139   2.906
 1609SOL    HW215297   5.319   8.164   2.919
 1610SOL     OW15298   2.058   2.559   0.256
 1610SOL    HW115299   2.003   2.487   0.216
 1610SOL    HW215300   2.078   2.537   0.352
 1611SOL     OW15301   9.351   4.901   1.243
 1611SOL    HW115302   9.357   4.805   1.271
 1611SOL    HW215303   9.266   4.940   1.277
 1612SOL     OW15304   3.355   9.136   1.090
 1612SOL    HW115305   3.416   9.082   1.032
 1612SOL    HW215306   3.285   9.180   1.034
 1613SOL     OW15307   4.147   1.005   1.619
 1613SOL    HW115308   4.080   0.931   1.626
 1613SOL    HW215309   4.198   1.012   1.705
 1614SOL     OW15310   9.126   4.746   0.162
 1614SOL    HW115311   9.037   4.784   0.134
 1614SOL    HW215312   9.122   4.722   0.259
 1615SOL     OW15313   2.941   6.571   1.119
 1615SOL    HW115314   2.858   6.618   1.147
 1615SOL    HW215315   2.938   6.551   1.021
 1616SOL     OW15316   8.301   9.737   0.531
 1616SOL    HW115317   8.379   9.784   0.570
 1616SOL    HW215318   8.221   9.798   0.532
 1617SOL     OW15319   3.166   1.290   2.964
 1617SOL    HW115320   3.147   1.348   3.043
 1617SOL    HW215321   3.242   1.229   2.985
 1618SOL     OW15322   1.703   1.836   1.310
 1618SOL    HW115323   1.653   1.750   1.309
 1618SOL    HW215324   1.684   1.886   1.226
 1619SOL     OW15325   4.916   9.407   2.304
 1619SOL    HW115326   4.953   9.316   2.323
 1619SOL    HW215327   4.816   9.403   2.307
 1620SOL     OW15328   2.657   9.159   1.202
 1620SOL    HW115329   2.675   9.085   1.136
 1620SOL    HW215330   2.558   9.170   1.213
 1621SOL     OW15331   4.476   2.079   0.316
 1621SOL    HW115332   4.483   2.012   0.243
 1621SOL    HW215333   4.529   2.049   0.395
 1622SOL     OW15334   7.155   1.089   2.333
 1622SOL    HW115335   7.167   1.184   2.362
 1622SOL    HW215336   7.064   1.077   2.295
 1623SOL     OW15337   1.091   5.328   2.455
 1623SOL    HW115338   1.037   5.342   2.372
 1623SOL    HW215339   1.049   5.378   2.531
 1624SOL     OW15340   7.429   9.983   0.467
 1624SOL    HW115341   7.386   0.074   0.469
 1624SOL    HW215342   7.368   9.918   0.422
 1625SOL     OW15343   1.658   3.528   3.709
 1625SOL    HW115344   1.688   3.623   3.700
 1625SOL    HW215345   1.730   3.468   3.676
 1626SOL     OW15346   6.743   9.505   1.698
 1626SOL    HW115347   6.754   9.485   1.795
 1626SOL    HW215348   6.809   9.575   1.670
 1627SOL     OW15349   3.331   3.929   1.791
 1627SOL    HW115350   3.314   3.997   1.863
 1627SOL    HW215351   3.248   3.918   1.735
 1628SOL     OW15352   3.108   4.162   2.330
 1628SOL    HW115353   3.022   4.207   2.353
 1628SOL    HW215354   3.183   4.227   2.339
 1629SOL     OW15355   9.444   8.485   0.133
 1629SOL    HW115356   9.520   8.534   0.175
 1629SOL    HW215357   9.480   8.422   0.064
 1630SOL     OW15358   1.201   6.466   1.899
 1630SOL    HW115359   1.280   6.408   1.919
 1630SOL    HW215360   1.124   6.408   1.871
 1631SOL     OW15361   0.795   4.490   3.684
 1631SOL    HW115362   0.744   4.447   3.759
 1631SOL    HW215363   0.876   4.435   3.664
 1632SOL     OW15364   0.025   5.751   2.917
 1632SOL    HW115365   0.123   5.733   2.925
 1632SOL    HW215366   0.002   5.767   2.821
 1633SOL     OW15367   6.628   8.212   3.357
 1633SOL    HW115368   6.606   8.205   3.260
 1633SOL    HW215369   6.713   8.163   3.375
 1634SOL     OW15370   5.520   2.963   0.380
 1634SOL    HW115371   5.477   2.881   0.417
 1634SOL    HW215372   5.604   2.939   0.332
 1635SOL     OW15373   6.379   8.388   3.056
 1635SOL    HW115374   6.340   8.377   2.965
 1635SOL    HW215375   6.454   8.322   3.069
 1636SOL     OW15376   9.880   4.963   1.802
 1636SOL    HW115377   9.909   4.923   1.889
 1636SOL    HW215378   9.886   4.893   1.730
 1637SOL     OW15379   1.630   5.264   0.709
 1637SOL    HW115380   1.699   5.211   0.758
 1637SOL    HW215381   1.660   5.281   0.616
 1638SOL     OW15382   2.815   9.554   0.385
 1638SOL    HW115383   2.850   9.645   0.364
 1638SOL    HW215384   2.718   9.550   0.361
 1639SOL     OW15385   0.033   5.554   1.526
 1639SOL    HW115386   0.041   5.604   1.439
 1639SOL    HW215387   0.087   5.470   1.521
 1640SOL     OW15388   2.072   7.859   2.414
 1640SOL    HW115389   2.062   7.947   2.368
 1640SOL    HW215390   1.985   7.810   2.412
 1641SOL     OW15391   3.121   2.803   0.882
 1641SOL    HW115392   3.086   2.866   0.951
 1641SOL    HW215393   3.200   2.843   0.837
 1642SOL     OW15394   1.711   2.230   3.310
 1642SOL    HW115395   1.617   2.263   3.320
 1642SOL    HW215396   1.712   2.130   3.314
 1643SOL     OW15397   9.735   9.899   0.748
 1643SOL    HW115398   9.832   9.876   0.740
 1643SOL    HW215399   9.687   9.871   0.665
 1644SOL     OW15400   3.982   9.122   1.182
 1644SOL    HW115401   4.053   9.121   1.112
 1644SOL    HW215402   3.991   9.204   1.239
 1645SOL     OW15403   8.509   5.860   2.235
 1645SOL    HW115404   8.516   5.958   2.254
 1645SOL    HW215405   8.600   5.820   2.231
 1646SOL     OW15406   9.131   2.805   0.563
 1646SOL    HW115407   9.125   2.855   0.477
 1646SOL    HW215408   9.225   2.772   0.577
 1647SOL     OW15409   2.002   3.140   3.102
 1647SOL    HW115410   2.101   3.148   3.100
 1647SOL    HW215411   1.975   3.082   3.180
 1648SOL     OW15412   7.165   7.471   2.534
 1648SOL    HW115413   7.182   7.376   2.562
 1648SOL    HW215414   7.203   7.485   2.442
 1649SOL     OW15415   8.144   2.916   3.438
 1649SOL    HW115416   8.045   2.906   3.427
 1649SOL    HW215417   8.178   2.843   3.498
 1650SOL     OW15418   0.747   3.750   3.105
 1650SOL    HW115419   0.754   3.837   3.153
 1650SOL    HW215420   0.838   3.716   3.083
 1651SOL     OW15421   8.733   6.908   0.801
 1651SOL    HW115422   8.724   6.809   0.805
 1651SOL    HW215423   8.642   6.950   0.799
 1652SOL     OW15424   4.064   0.975   2.774
 1652SOL    HW115425   4.092   0.988   2.678
 1652SOL    HW215426   4.082   1.059   2.825
 1653SOL     OW15427   9.679   2.489   1.999
 1653SOL    HW115428   9.754   2.487   2.065
 1653SOL    HW215429   9.657   2.584   1.977
 1654SOL     OW15430   9.333   3.291   1.696
 1654SOL    HW115431   9.322   3.207   1.749
 1654SOL    HW215432   9.347   3.268   1.600
 1655SOL     OW15433   3.554   7.816   2.653
 1655SOL    HW115434   3.469   7.788   2.609
 1655SOL    HW215435   3.611   7.735   2.669
 1656SOL     OW15436   3.899   0.170   0.213
 1656SOL    HW115437   3.849   0.110   0.150
 1656SOL    HW215438   3.859   0.162   0.305
 1657SOL     OW15439   3.122   5.117   1.406
 1657SOL    HW115440   3.144   5.029   1.366
 1657SOL    HW215441   3.024   5.123   1.424
 1658SOL     OW15442   4.667   6.746   3.259
 1658SOL    HW115443   4.738   6.812   3.236
 1658SOL    HW215444   4.708   6.655   3.266
 1659SOL     OW15445   2.018   1.100   1.907
 1659SOL    HW115446   2.055   1.178   1.858
 1659SOL    HW215447   1.918   1.099   1.898
 1660SOL     OW15448   1.692   6.851   2.175
 1660SOL    HW115449   1.618   6.787   2.195
 1660SOL    HW215450   1.768   6.801   2.133
 1661SOL     OW15451   2.161   0.589   3.659
 1661SOL    HW115452   2.105   0.642   3.596
 1661SOL    HW215453   2.175   0.641   3.743
 1662SOL     OW15454   3.312   5.280   1.273
 1662SOL    HW115455   3.338   5.363   1.322
 1662SOL    HW215456   3.239   5.234   1.322
 1663SOL     OW15457   2.969   3.005   0.051
 1663SOL    HW115458   2.896   2.947   0.016
 1663SOL    HW215459   2.949   3.101   0.031
 1664SOL     OW15460   7.166   6.472   2.761
 1664SOL    HW115461   7.191   6.376   2.748
 1664SOL    HW215462   7.074   6.488   2.723
 1665SOL     OW15463   8.553   7.450   0.240
 1665SOL    HW115464   8.458   7.457   0.212
 1665SOL    HW215465   8.587   7.540   0.268
 1666SOL     OW15466   4.308   8.973   1.643
 1666SOL    HW115467   4.358   8.968   1.557
 1666SOL    HW215468   4.211   8.989   1.625
 1667SOL     OW15469   3.177   5.574   3.358
 1667SOL    HW115470   3.240   5.651   3.352
 1667SOL    HW215471   3.089   5.599   3.319
 1668SOL     OW15472   9.656   5.316   1.631
 1668SOL    HW115473   9.710   5.374   1.692
 1668SOL    HW215474   9.715   5.279   1.559
 1669SOL     OW15475   2.141   8.040   3.053
 1669SOL    HW115476   2.142   7.967   3.121
 1669SOL    HW215477   2.162   8.127   3.098
 1670SOL     OW15478   4.738   3.520   2.488
 1670SOL    HW115479   4.756   3.537   2.585
 1670SOL    HW215480   4.820   3.543   2.434
 1671SOL     OW15481   1.680   3.959   1.063
 1671SOL    HW115482   1.734   3.923   1.139
 1671SOL    HW215483   1.733   3.951   0.978
 1672SOL     OW15484   8.669   9.156   2.768
 1672SOL    HW115485   8.611   9.095   2.715
 1672SOL    HW215486   8.690   9.238   2.714
 1673SOL     OW15487   0.055   2.965   1.867
 1673SOL    HW115488   0.070   2.901   1.792
 1673SOL    HW215489   0.044   3.057   1.830
 1674SOL     OW15490   3.097   6.007   2.232
 1674SOL    HW115491   3.110   5.919   2.186
 1674SOL    HW215492   3.149   6.007   2.318
 1675SOL     OW15493   0.090   2.937   2.587
 1675SOL    HW115494   0.026   2.861   2.579
 1675SOL    HW215495   0.039   3.023   2.596
 1676SOL     OW15496   8.124   7.624   3.551
 1676SOL    HW115497   8.025   7.634   3.562
 1676SOL    HW215498   8.146   7.527   3.537
 1677SOL     OW15499   0.540   3.330   2.776
 1677SOL    HW115500   0.445   3.357   2.758
 1677SOL    HW215501   0.602   3.402   2.745
 1678SOL     OW15502   2.568   0.271   1.422
 1678SOL    HW115503   2.509   0.228   1.490
 1678SOL    HW215504   2.602   0.359   1.456
 1679SOL     OW15505   0.881   1.501   2.899
 1679SOL    HW115506   0.866   1.557   2.980
 1679SOL    HW215507   0.802   1.441   2.885
 1680SOL     OW15508   9.846   2.698   0.480
 1680SOL    HW115509   9.893   2.785   0.467
 1680SOL    HW215510   9.808   2.694   0.572
 1681SOL     OW15511   1.410   3.894   1.055
 1681SOL    HW115512   1.509   3.913   1.058
 1681SOL    HW215513   1.369   3.923   1.142
 1682SOL     OW15514   2.632   0.165   0.983
 1682SOL    HW115515   2.675   0.151   1.072
 1682SOL    HW215516   2.596   0.258   0.978
 1683SOL     OW15517   8.935   1.006   1.255
 1683SOL    HW115518   8.869   0.986   1.327
 1683SOL    HW215519   8.889   1.053   1.179
 1684SOL     OW15520   1.181   2.370   2.812
 1684SOL    HW115521   1.173   2.464   2.845
 1684SOL    HW215522   1.109   2.314   2.853
 1685SOL     OW15523   0.650   1.719   1.486
 1685SOL    HW115524   0.569   1.668   1.514
 1685SOL    HW215525   0.642   1.745   1.390
 1686SOL     OW15526   1.009   6.289   3.565
 1686SOL    HW115527   1.045   6.238   3.487
 1686SOL    HW215528   1.007   6.387   3.543
 1687SOL     OW15529   1.739   1.099   1.884
 1687SOL    HW115530   1.657   1.065   1.930
 1687SOL    HW215531   1.734   1.078   1.786
 1688SOL     OW15532   4.961   8.188   1.622
 1688SOL    HW115533   4.976   8.226   1.713
 1688SOL    HW215534   4.968   8.260   1.553
 1689SOL     OW15535   8.547   9.584   2.746
 1689SOL    HW115536   8.489   9.550   2.820
 1689SOL    HW215537   8.598   9.664   2.777
 1690SOL     OW15538   7.303   0.764   3.406
 1690SOL    HW115539   7.365   0.719   3.342
 1690SOL    HW215540   7.293   0.860   3.380
 1691SOL     OW15541   0.110   2.577   0.775
 1691SOL    HW115542   0.112   2.675   0.754
 1691SOL    HW215543   0.075   2.564   0.868
 1692SOL     OW15544   6.142   7.106   2.574
 1692SOL    HW115545   6.055   7.057   2.578
 1692SOL    HW215546   6.144   7.177   2.645
 1693SOL     OW15547   1.439   0.051   2.425
 1693SOL    HW115548   1.414   9.954   2.429
 1693SOL    HW215549   1.483   0.071   2.338
 1694SOL     OW15550   3.021   4.631   2.590
 1694SOL    HW115551   3.068   4.715   2.562
 1694SOL    HW215552   2.934   4.625   2.541
 1695SOL     OW15553   9.898   1.344   0.462
 1695SOL    HW115554   9.821   1.404   0.483
 1695SOL    HW215555   9.971   1.357   0.529
 1696SOL     OW15556   0.708   8.068   2.849
 1696SOL    HW115557   0.738   8.062   2.944
 1696SOL    HW215558   0.615   8.033   2.841
 1697SOL     OW15559   3.374   5.812   2.294
 1697SOL    HW115560   3.419   5.856   2.215
 1697SOL    HW215561   3.341   5.882   2.357
 1698SOL     OW15562   2.001   8.897   3.417
 1698SOL    HW115563   1.902   8.887   3.405
 1698SOL    HW215564   2.020   8.927   3.511
 1699SOL     OW15565   3.686   3.930   2.049
 1699SOL    HW115566   3.716   4.025   2.055
 1699SOL    HW215567   3.744   3.881   1.984
 1700SOL     OW15568   4.405   7.538   2.111
 1700SOL    HW115569   4.346   7.618   2.117
 1700SOL    HW215570   4.389   7.479   2.191
 1701SOL     OW15571   8.278   4.855   1.656
 1701SOL    HW115572   8.261   4.835   1.753
 1701SOL    HW215573   8.351   4.923   1.649
 1702SOL     OW15574   1.740   5.194   2.692
 1702SOL    HW115575   1.830   5.150   2.679
 1702SOL    HW215576   1.671   5.123   2.709
 1703SOL     OW15577   1.987   9.134   2.236
 1703SOL    HW115578   1.982   9.170   2.143
 1703SOL    HW215579   2.078   9.151   2.274
 1704SOL     OW15580   1.677   5.703   3.608
 1704SOL    HW115581   1.662   5.772   3.679
 1704SOL    HW215582   1.610   5.629   3.618
 1705SOL     OW15583   9.456   2.171   0.220
 1705SOL    HW115584   9.370   2.158   0.169
 1705SOL    HW215585   9.513   2.238   0.172
 1706SOL     OW15586   8.435   5.844   2.948
 1706SOL    HW115587   8.416   5.750   2.919
 1706SOL    HW215588   8.360   5.877   3.006
 1707SOL     OW15589   3.705   3.670   1.409
 1707SOL    HW115590   3.618   3.675   1.361
 1707SOL    HW215591   3.735   3.575   1.414
 1708SOL     OW15592   0.419   5.576   1.106
 1708SOL    HW115593   0.360   5.526   1.169
 1708SOL    HW215594   0.505   5.526   1.094
 1709SOL     OW15595   8.903   9.052   3.132
 1709SOL    HW115596   8.936   8.971   3.084
 1709SOL    HW215597   8.871   9.026   3.223
 1710SOL     OW15598   4.089   4.256   0.758
 1710SOL    HW115599   4.127   4.299   0.840
 1710SOL    HW215600   4.155   4.192   0.720
 1711SOL     OW15601   9.483   7.779   1.395
 1711SOL    HW115602   9.489   7.853   1.461
 1711SOL    HW215603   9.490   7.691   1.443
 1712SOL     OW15604   1.286   6.856   1.581
 1712SOL    HW115605   1.189   6.839   1.562
 1712SOL    HW215606   1.328   6.773   1.619
 1713SOL     OW15607   3.634   5.922   3.642
 1713SOL    HW115608   3.544   5.963   3.657
 1713SOL    HW215609   3.674   5.897   3.730
 1714SOL     OW15610   9.663   0.219   1.600
 1714SOL    HW115611   9.630   0.306   1.563
 1714SOL    HW215612   9.623   0.144   1.549
 1715SOL     OW15613   8.799   4.086   3.328
 1715SOL    HW115614   8.835   4.166   3.377
 1715SOL    HW215615   8.712   4.058   3.368
 1716SOL     OW15616   2.569   4.509   1.826
 1716SOL    HW115617   2.570   4.433   1.891
 1716SOL    HW215618   2.489   4.502   1.768
 1717SOL     OW15619   8.761   6.755   1.594
 1717SOL    HW115620   8.850   6.800   1.592
 1717SOL    HW215621   8.714   6.770   1.507
 1718SOL     OW15622   0.118   7.663   3.639
 1718SOL    HW115623   0.206   7.673   3.686
 1718SOL    HW215624   0.109   7.569   3.606
 1719SOL     OW15625   9.800   6.753   1.576
 1719SOL    HW115626   9.875   6.783   1.517
 1719SOL    HW215627   9.835   6.736   1.668
 1720SOL     OW15628   1.382   2.458   1.103
 1720SOL    HW115629   1.304   2.472   1.042
 1720SOL    HW215630   1.402   2.360   1.110
 1721SOL     OW15631   0.295   0.159   3.159
 1721SOL    HW115632   0.338   0.103   3.230
 1721SOL    HW215633   0.366   0.205   3.105
 1722SOL     OW15634   3.074   4.250   2.798
 1722SOL    HW115635   3.134   4.278   2.873
 1722SOL    HW215636   2.979   4.268   2.824
 1723SOL     OW15637   0.725   9.184   2.971
 1723SOL    HW115638   0.643   9.233   3.002
 1723SOL    HW215639   0.728   9.185   2.871
 1724SOL     OW15640   7.244   0.642   2.228
 1724SOL    HW115641   7.292   0.730   2.228
 1724SOL    HW215642   7.309   0.569   2.247
 1725SOL     OW15643   0.193   3.164   0.739
 1725SOL    HW115644   0.160   3.183   0.831
 1725SOL    HW215645   0.257   3.087   0.741
 1726SOL     OW15646   8.639   1.351   1.471
 1726SOL    HW115647   8.660   1.420   1.402
 1726SOL    HW215648   8.540   1.345   1.484
 1727SOL     OW15649   1.983   6.934   1.330
 1727SOL    HW115650   1.898   6.977   1.300
 1727SOL    HW215651   2.009   6.864   1.263
 1728SOL     OW15652   4.972   9.909   1.162
 1728SOL    HW115653   4.874   9.899   1.144
 1728SOL    HW215654   5.001   9.839   1.229
 1729SOL     OW15655   9.067   6.314   3.257
 1729SOL    HW115656   9.043   6.388   3.320
 1729SOL    HW215657   9.006   6.317   3.178
 1730SOL     OW15658   9.824   7.142   2.470
 1730SOL    HW115659   9.767   7.191   2.536
 1730SOL    HW215660   9.855   7.056   2.509
 1731SOL     OW15661   9.689   8.731   1.841
 1731SOL    HW115662   9.757   8.661   1.865
 1731SOL    HW215663   9.653   8.712   1.750
 1732SOL     OW15664   2.154   3.158   2.335
 1732SOL    HW115665   2.081   3.221   2.312
 1732SOL    HW215666   2.242   3.206   2.336
 1733SOL     OW15667   4.402   2.987   2.418
 1733SOL    HW115668   4.407   3.081   2.452
 1733SOL    HW215669   4.495   2.951   2.404
 1734SOL     OW15670   0.985   1.926   2.341
 1734SOL    HW115671   0.987   1.911   2.242
 1734SOL    HW215672   1.008   1.841   2.388
 1735SOL     OW15673   0.136   5.996   3.733
 1735SOL    HW115674   0.111   5.996   3.636
 1735SOL    HW215675   0.138   5.903   3.767
 1736SOL     OW15676   8.476   3.442   0.799
 1736SOL    HW115677   8.491   3.433   0.897
 1736SOL    HW215678   8.405   3.378   0.770
 1737SOL     OW15679   2.699   9.705   1.862
 1737SOL    HW115680   2.793   9.736   1.847
 1737SOL    HW215681   2.696   9.605   1.860
 1738SOL     OW15682   1.681   9.734   2.584
 1738SOL    HW115683   1.687   9.819   2.532
 1738SOL    HW215684   1.734   9.742   2.668
 1739SOL     OW15685   1.554   1.671   0.187
 1739SOL    HW115686   1.501   1.664   0.271
 1739SOL    HW215687   1.648   1.697   0.209
 1740SOL     OW15688   4.180   7.220   1.918
 1740SOL    HW115689   4.131   7.200   1.833
 1740SOL    HW215690   4.212   7.134   1.959
 1741SOL     OW15691   2.064   8.436   3.617
 1741SOL    HW115692   1.970   8.399   3.619
 1741SOL    HW215693   2.129   8.360   3.613
 1742SOL     OW15694   9.046   1.733   1.344
 1742SOL    HW115695   8.977   1.745   1.272
 1742SOL    HW215696   9.057   1.636   1.365
 1743SOL     OW15697   3.738   5.058   3.409
 1743SOL    HW115698   3.772   5.149   3.435
 1743SOL    HW215699   3.728   5.054   3.309
 1744SOL     OW15700   7.684   9.538   1.802
 1744SOL    HW115701   7.690   9.443   1.834
 1744SOL    HW215702   7.774   9.567   1.768
 1745SOL     OW15703   9.472   5.507   1.038
 1745SOL    HW115704   9.545   5.545   0.981
 1745SOL    HW215705   9.478   5.407   1.037
 1746SOL     OW15706   9.415   3.604   1.034
 1746SOL    HW115707   9.386   3.583   0.940
 1746SOL    HW215708   9.350   3.667   1.075
 1747SOL     OW15709   4.423   2.543   0.451
 1747SOL    HW115710   4.459   2.477   0.385
 1747SOL    HW215711   4.328   2.520   0.472
 1748SOL     OW15712   0.462   6.137   0.701
 1748SOL    HW115713   0.486   6.231   0.677
 1748SOL    HW215714   0.365   6.121   0.680
 1749SOL     OW15715   3.405   1.648   2.032
 1749SOL    HW115716   3.429   1.730   1.981
 1749SOL    HW215717   3.372   1.578   1.968
 1750SOL     OW15718   0.732   4.968   0.718
 1750SOL    HW115719   0.718   4.929   0.809
 1750SOL    HW215720   0.731   4.894   0.650
 1751SOL     OW15721   8.919   7.656   3.698
 1751SOL    HW115722   8.906   7.696   3.788
 1751SOL    HW215723   8.838   7.602   3.673
 1752SOL     OW15724   5.195   6.603   3.042
 1752SOL    HW115725   5.140   6.621   3.123
 1752SOL    HW215726   5.136   6.570   2.968
 1753SOL     OW15727   7.660   5.022   0.191
 1753SOL    HW115728   7.660   4.972   0.277
 1753SOL    HW215729   7.618   4.967   0.120
 1754SOL     OW15730   4.584   2.041   1.929
 1754SOL    HW115731   4.582   1.976   2.004
 1754SOL    HW215732   4.553   2.131   1.961
 1755SOL     OW15733   0.504   3.973   2.548
 1755SOL    HW115734   0.421   3.925   2.578
 1755SOL    HW215735   0.566   3.908   2.505
 1756SOL     OW15736   4.333   2.868   0.748
 1756SOL    HW115737   4.390   2.850   0.668
 1756SOL    HW215738   4.346   2.963   0.777
 1757SOL     OW15739   8.675   3.265   2.146
 1757SOL    HW115740   8.707   3.203   2.218
 1757SOL    HW215741   8.579   3.245   2.125
 1758SOL     OW15742   0.963   0.061   3.542
 1758SOL    HW115743   1.055   0.024   3.551
 1758SOL    HW215744   0.896   9.989   3.560
 1759SOL     OW15745   3.773   2.851   0.667
 1759SOL    HW115746   3.680   2.815   0.678
 1759SOL    HW215747   3.838   2.789   0.711
 1760SOL     OW15748   2.387   7.995   0.185
 1760SOL    HW115749   2.435   8.023   0.102
 1760SOL    HW215750   2.312   7.934   0.162
 1761SOL     OW15751   8.648   2.563   1.031
 1761SOL    HW115752   8.624   2.631   1.100
 1761SOL    HW215753   8.636   2.602   0.940
 1762SOL     OW15754   2.154   0.353   2.911
 1762SOL    HW115755   2.139   0.407   2.993
 1762SOL    HW215756   2.178   0.259   2.937
 1763SOL     OW15757   3.365   2.048   2.086
 1763SOL    HW115758   3.339   1.999   2.169
 1763SOL    HW215759   3.298   2.121   2.068
 1764SOL     OW15760   5.383   6.693   2.661
 1764SOL    HW115761   5.313   6.685   2.591
 1764SOL    HW215762   5.353   6.757   2.732
 1765SOL     OW15763   4.408   9.376   2.978
 1765SOL    HW115764   4.464   9.358   3.060
 1765SOL    HW215765   4.463   9.425   2.911
 1766SOL     OW15766   4.532   6.779   2.701
 1766SOL    HW115767   4.626   6.809   2.717
 1766SOL    HW215768   4.469   6.841   2.748
 1767SOL     OW15769   5.888   9.805   2.474
 1767SOL    HW115770   5.875   9.904   2.472
 1767SOL    HW215771   5.856   9.768   2.561
 1768SOL     OW15772   3.954   9.661   2.095
 1768SOL    HW115773   3.907   9.584   2.053
 1768SOL    HW215774   3.903   9.745   2.078
 1769SOL     OW15775   0.649   5.443   1.013
 1769SOL    HW115776   0.692   5.352   1.019
 1769SOL    HW215777   0.654   5.475   0.919
 1770SOL     OW15778   5.211   0.487   2.325
 1770SOL    HW115779   5.285   0.498   2.392
 1770SOL    HW215780   5.197   0.574   2.277
 1771SOL     OW15781   8.243   5.839   2.643
 1771SOL    HW115782   8.153   5.802   2.617
 1771SOL    HW215783   8.232   5.900   2.721
 1772SOL     OW15784   0.559   6.183   1.391
 1772SOL    HW115785   0.589   6.088   1.380
 1772SOL    HW215786   0.597   6.238   1.317
 1773SOL     OW15787   8.703   9.218   0.698
 1773SOL    HW115788   8.621   9.209   0.641
 1773SOL    HW215789   8.675   9.237   0.792
 1774SOL     OW15790   1.750   3.353   0.458
 1774SOL    HW115791   1.667   3.314   0.497
 1774SOL    HW215792   1.814   3.280   0.435
 1775SOL     OW15793   0.075   3.624   3.134
 1775SOL    HW115794   0.069   3.537   3.183
 1775SOL    HW215795   0.171   3.650   3.125
 1776SOL     OW15796   0.106   7.154   0.757
 1776SOL    HW115797   0.048   7.122   0.832
 1776SOL    HW215798   0.128   7.251   0.771
 1777SOL     OW15799   2.679   3.638   3.599
 1777SOL    HW115800   2.594   3.584   3.595
 1777SOL    HW215801   2.757   3.579   3.578
 1778SOL     OW15802   4.505   3.546   3.340
 1778SOL    HW115803   4.471   3.551   3.247
 1778SOL    HW215804   4.451   3.480   3.392
 1779SOL     OW15805   9.623   4.834   2.075
 1779SOL    HW115806   9.685   4.895   2.124
 1779SOL    HW215807   9.589   4.763   2.137
 1780SOL     OW15808   7.295   0.713   3.041
 1780SOL    HW115809   7.199   0.710   3.070
 1780SOL    HW215810   7.354   0.680   3.115
 1781SOL     OW15811   0.708   8.513   0.929
 1781SOL    HW115812   0.640   8.506   1.002
 1781SOL    HW215813   0.766   8.431   0.930
 1782SOL     OW15814   7.362   0.239   1.061
 1782SOL    HW115815   7.399   0.307   1.124
 1782SOL    HW215816   7.409   0.152   1.074
 1783SOL     OW15817   8.424   8.626   0.624
 1783SOL    HW115818   8.509   8.575   0.641
 1783SOL    HW215819   8.434   8.719   0.658
 1784SOL     OW15820   3.358   4.881   2.702
 1784SOL    HW115821   3.425   4.848   2.636
 1784SOL    HW215822   3.385   4.971   2.736
 1785SOL     OW15823   3.808   4.746   2.268
 1785SOL    HW115824   3.893   4.763   2.219
 1785SOL    HW215825   3.799   4.648   2.287
 1786SOL     OW15826   0.479   4.956   2.432
 1786SOL    HW115827   0.564   4.955   2.485
 1786SOL    HW215828   0.432   5.043   2.444
 1787SOL     OW15829   1.208   8.447   1.953
 1787SOL    HW115830   1.297   8.482   1.984
 1787SOL    HW215831   1.174   8.507   1.879
 1788SOL     OW15832   0.010   3.387   3.631
 1788SOL    HW115833   9.973   3.294   3.638
 1788SOL    HW215834   9.944   3.452   3.668
 1789SOL     OW15835   9.223   1.308   1.646
 1789SOL    HW115836   9.267   1.251   1.577
 1789SOL    HW215837   9.185   1.250   1.718
 1790SOL     OW15838   2.274   3.147   0.160
 1790SOL    HW115839   2.234   3.234   0.130
 1790SOL    HW215840   2.374   3.154   0.160
 1791SOL     OW15841   7.911   9.060   1.468
 1791SOL    HW115842   8.009   9.081   1.478
 1791SOL    HW215843   7.891   9.040   1.372
 1792SOL     OW15844   1.301   5.505   2.389
 1792SOL    HW115845   1.289   5.505   2.290
 1792SOL    HW215846   1.239   5.438   2.430
 1793SOL     OW15847   6.904   8.358   2.475
 1793SOL    HW115848   6.969   8.283   2.491
 1793SOL    HW215849   6.863   8.348   2.384
 1794SOL     OW15850   9.728   1.878   0.688
 1794SOL    HW115851   9.783   1.897   0.769
 1794SOL    HW215852   9.646   1.827   0.715
 1795SOL     OW15853   2.801   3.123   1.043
 1795SOL    HW115854   2.817   3.213   1.001
 1795SOL    HW215855   2.762   3.136   1.134
 1796SOL     OW15856   1.249   3.070   2.356
 1796SOL    HW115857   1.160   3.102   2.388
 1796SOL    HW215858   1.314   3.146   2.358
 1797SOL     OW15859   3.226   8.904   2.375
 1797SOL    HW115860   3.300   8.929   2.313
 1797SOL    HW215861   3.213   8.805   2.374
 1798SOL     OW15862   0.737   6.175   3.610
 1798SOL    HW115863   0.691   6.263   3.598
 1798SOL    HW215864   0.835   6.187   3.600
 1799SOL     OW15865   7.101   9.539   3.186
 1799SOL    HW115866   7.115   9.541   3.087
 1799SOL    HW215867   7.170   9.480   3.228
 1800SOL     OW15868   3.920   9.920   0.792
 1800SOL    HW115869   3.985   9.845   0.804
 1800SOL    HW215870   3.965   0.007   0.810
 1801SOL     OW15871   0.686   2.720   1.275
 1801SOL    HW115872   0.726   2.811   1.275
 1801SOL    HW215873   0.680   2.685   1.182
 1802SOL     OW15874   9.869   6.981   2.012
 1802SOL    HW115875   9.771   6.961   2.013
 1802SOL    HW215876   9.891   7.047   2.083
 1803SOL     OW15877   9.918   1.882   3.249
 1803SOL    HW115878   9.938   1.949   3.319
 1803SOL    HW215879   9.939   1.790   3.283
 1804SOL     OW15880   0.888   0.822   3.103
 1804SOL    HW115881   0.817   0.864   3.161
 1804SOL    HW215882   0.951   0.893   3.072
 1805SOL     OW15883   6.799   0.620   3.008
 1805SOL    HW115884   6.799   0.553   2.934
 1805SOL    HW215885   6.744   0.587   3.084
 1806SOL     OW15886   0.663   4.138   2.699
 1806SOL    HW115887   0.621   4.148   2.789
 1806SOL    HW215888   0.606   4.079   2.642
 1807SOL     OW15889   1.388   7.372   3.090
 1807SOL    HW115890   1.403   7.334   2.998
 1807SOL    HW215891   1.472   7.419   3.120
 1808SOL     OW15892   2.572   3.381   0.694
 1808SOL    HW115893   2.559   3.283   0.710
 1808SOL    HW215894   2.606   3.395   0.600
 1809SOL     OW15895   4.665   3.274   2.600
 1809SOL    HW115896   4.693   3.358   2.554
 1809SOL    HW215897   4.744   3.215   2.615
 1810SOL     OW15898   1.796   0.312   0.842
 1810SOL    HW115899   1.732   0.347   0.773
 1810SOL    HW215900   1.744   0.281   0.922
 1811SOL     OW15901   1.574   2.025   2.092
 1811SOL    HW115902   1.642   2.098   2.092
 1811SOL    HW215903   1.620   1.936   2.096
 1812SOL     OW15904   1.057   7.409   2.931
 1812SOL    HW115905   1.124   7.338   2.952
 1812SOL    HW215906   1.096   7.499   2.950
 1813SOL     OW15907   3.139   0.161   0.496
 1813SOL    HW115908   3.100   0.253   0.486
 1813SOL    HW215909   3.239   0.167   0.501
 1814SOL     OW15910   0.842   2.500   0.330
 1814SOL    HW115911   0.874   2.410   0.299
 1814SOL    HW215912   0.920   2.556   0.356
 1815SOL     OW15913   3.516   9.023   0.894
 1815SOL    HW115914   3.576   9.088   0.846
 1815SOL    HW215915   3.486   8.952   0.831
 1816SOL     OW15916   8.082   8.388   2.017
 1816SOL    HW115917   8.093   8.356   1.923
 1816SOL    HW215918   7.997   8.353   2.055
 1817SOL     OW15919   5.741   7.198   2.511
 1817SOL    HW115920   5.702   7.148   2.434
 1817SOL    HW215921   5.806   7.140   2.559
 1818SOL     OW15922   9.334   8.285   1.771
 1818SOL    HW115923   9.278   8.335   1.704
 1818SOL    HW215924   9.298   8.301   1.863
 1819SOL     OW15925   1.193   4.831   1.457
 1819SOL    HW115926   1.218   4.880   1.374
 1819SOL    HW215927   1.239   4.872   1.535
 1820SOL     OW15928   0.923   7.604   2.572
 1820SOL    HW115929   0.915   7.627   2.669
 1820SOL    HW215930   0.972   7.676   2.524
 1821SOL     OW15931   9.403   1.102   2.755
 1821SOL    HW115932   9.394   1.184   2.698
 1821SOL    HW215933   9.453   1.032   2.704
 1822SOL     OW15934   8.482   6.418   1.221
 1822SOL    HW115935   8.570   6.464   1.234
 1822SOL    HW215936   8.425   6.472   1.159
 1823SOL     OW15937   7.640   0.430   0.350
 1823SOL    HW115938   7.653   0.444   0.449
 1823SOL    HW215939   7.628   0.519   0.306
 1824SOL     OW15940   8.572   5.220   0.795
 1824SOL    HW115941   8.545   5.257   0.706
 1824SOL    HW215942   8.572   5.293   0.863
 1825SOL     OW15943   4.596   1.189   0.626
 1825SOL    HW115944   4.536   1.132   0.684
 1825SOL    HW215945   4.568   1.284   0.635
 1826SOL     OW15946   1.066   2.763   1.619
 1826SOL    HW115947   1.075   2.697   1.545
 1826SOL    HW215948   1.029   2.717   1.700
 1827SOL     OW15949   3.130   7.390   2.320
 1827SOL    HW115950   3.054   7.325   2.331
 1827SOL    HW215951   3.120   7.464   2.386
 1828SOL     OW15952   8.844   0.809   0.850
 1828SOL    HW115953   8.785   0.755   0.790
 1828SOL    HW215954   8.819   0.905   0.844
 1829SOL     OW15955   3.949   3.780   1.337
 1829SOL    HW115956   3.982   3.852   1.398
 1829SOL    HW215957   3.858   3.751   1.365
 1830SOL     OW15958   3.506   3.098   0.830
 1830SOL    HW115959   3.580   3.078   0.894
 1830SOL    HW215960   3.535   3.170   0.767
 1831SOL     OW15961   2.602   2.682   1.325
 1831SOL    HW115962   2.627   2.629   1.407
 1831SOL    HW215963   2.650   2.769   1.327
 1832SOL     OW15964   3.157   5.828   0.370
 1832SOL    HW115965   3.123   5.897   0.306
 1832SOL    HW215966   3.132   5.854   0.463
 1833SOL     OW15967   0.599   6.559   1.972
 1833SOL    HW115968   0.693   6.573   2.004
 1833SOL    HW215969   0.582   6.462   1.959
 1834SOL     OW15970   1.548   5.032   1.221
 1834SOL    HW115971   1.580   4.948   1.177
 1834SOL    HW215972   1.587   5.111   1.173
 1835SOL     OW15973   1.944   3.328   2.266
 1835SOL    HW115974   1.960   3.408   2.324
 1835SOL    HW215975   1.936   3.356   2.171
 1836SOL     OW15976   0.572   6.758   1.124
 1836SOL    HW115977   0.646   6.695   1.148
 1836SOL    HW215978   0.531   6.730   1.037
 1837SOL     OW15979   1.498   6.632   2.478
 1837SOL    HW115980   1.452   6.545   2.492
 1837SOL    HW215981   1.577   6.639   2.539
 1838SOL     OW15982   9.976   7.597   1.159
 1838SOL    HW115983   9.945   7.603   1.254
 1838SOL    HW215984   9.926   7.665   1.104
 1839SOL     OW15985   8.677   4.242   3.125
 1839SOL    HW115986   8.731   4.180   3.182
 1839SOL    HW215987   8.590   4.263   3.171
 1840SOL     OW15988   2.777   2.294   0.718
 1840SOL    HW115989   2.866   2.249   0.726
 1840SOL    HW215990   2.754   2.306   0.621
 1841SOL     OW15991   6.755   8.754   1.746
 1841SOL    HW115992   6.753   8.828   1.813
 1841SOL    HW215993   6.778   8.792   1.656
 1842SOL     OW15994   7.368   9.607   0.223
 1842SOL    HW115995   7.452   9.661   0.210
 1842SOL    HW215996   7.332   9.580   0.133
 1843SOL     OW15997   0.396   1.728   0.601
 1843SOL    HW115998   0.377   1.644   0.550
 1843SOL    HW215999   0.311   1.781   0.611
 1844SOL     OW16000   5.959   8.542   2.089
 1844SOL    HW116001   5.968   8.615   2.021
 1844SOL    HW216002   5.876   8.489   2.070
 1845SOL     OW16003   4.257   6.208   3.012
 1845SOL    HW116004   4.321   6.135   3.039
 1845SOL    HW216005   4.221   6.252   3.094
 1846SOL     OW16006   0.117   7.297   0.405
 1846SOL    HW116007   0.171   7.224   0.364
 1846SOL    HW216008   0.046   7.258   0.464
 1847SOL     OW16009   9.931   7.769   2.373
 1847SOL    HW116010   9.871   7.794   2.449
 1847SOL    HW216011   0.007   7.834   2.367
 1848SOL     OW16012   1.541   6.979   3.175
 1848SOL    HW116013   1.598   7.047   3.129
 1848SOL    HW216014   1.600   6.916   3.227
 1849SOL     OW16015   8.551   2.188   2.442
 1849SOL    HW116016   8.465   2.238   2.427
 1849SOL    HW216017   8.625   2.253   2.456
 1850SOL     OW16018   4.819   1.059   1.928
 1850SOL    HW116019   4.859   1.116   1.999
 1850SOL    HW216020   4.727   1.030   1.957
 1851SOL     OW16021   0.609   8.409   3.347
 1851SOL    HW116022   0.648   8.379   3.260
 1851SOL    HW216023   0.674   8.469   3.394
 1852SOL     OW16024   2.796   9.200   2.260
 1852SOL    HW116025   2.775   9.297   2.258
 1852SOL    HW216026   2.787   9.165   2.353
 1853SOL     OW16027   1.819   2.965   0.861
 1853SOL    HW116028   1.747   2.924   0.917
 1853SOL    HW216029   1.909   2.937   0.896
 1854SOL     OW16030   9.096   1.225   2.581
 1854SOL    HW116031   9.095   1.251   2.677
 1854SOL    HW216032   9.005   1.234   2.542
 1855SOL     OW16033   4.389   0.068   1.730
 1855SOL    HW116034   4.289   0.065   1.720
 1855SOL    HW216035   4.418   0.002   1.799
 1856SOL     OW16036   2.807   8.099   2.454
 1856SOL    HW116037   2.839   8.172   2.515
 1856SOL    HW216038   2.772   8.023   2.509
 1857SOL     OW16039   2.274   9.181   3.525
 1857SOL    HW116040   2.254   9.121   3.448
 1857SOL    HW216041   2.194   9.188   3.584
 1858SOL     OW16042   8.422   3.172   1.858
 1858SOL    HW116043   8.390   3.266   1.846
 1858SOL    HW216044   8.447   3.133   1.769
 1859SOL     OW16045   6.766   6.784   2.904
 1859SOL    HW116046   6.817   6.719   2.960
 1859SOL    HW216047   6.672   6.753   2.892
 1860SOL     OW16048   0.890   5.890   3.179
 1860SOL    HW116049   0.984   5.856   3.180
 1860SOL    HW216050   0.826   5.814   3.193
 1861SOL     OW16051   3.329   7.964   0.265
 1861SOL    HW116052   3.294   7.917   0.184
 1861SOL    HW216053   3.261   8.028   0.298
 1862SOL     OW16054   3.771   6.396   3.472
 1862SOL    HW116055   3.824   6.473   3.507
 1862SOL    HW216056   3.828   6.314   3.469
 1863SOL     OW16057   4.727   2.436   1.089
 1863SOL    HW116058   4.747   2.495   1.010
 1863SOL    HW216059   4.714   2.493   1.170
 1864SOL     OW16060   4.429   1.843   0.681
 1864SOL    HW116061   4.397   1.767   0.737
 1864SOL    HW216062   4.357   1.913   0.676
 1865SOL     OW16063   7.943   2.235   0.435
 1865SOL    HW116064   7.944   2.143   0.397
 1865SOL    HW216065   7.886   2.236   0.518
 1866SOL     OW16066   4.186   9.117   0.996
 1866SOL    HW116067   4.134   9.112   0.911
 1866SOL    HW216068   4.231   9.207   1.002
 1867SOL     OW16069   8.493   1.560   3.657
 1867SOL    HW116070   8.423   1.632   3.663
 1867SOL    HW216071   8.455   1.473   3.688
 1868SOL     OW16072   3.118   1.948   0.281
 1868SOL    HW116073   3.175   1.866   0.282
 1868SOL    HW216074   3.035   1.931   0.229
 1869SOL     OW16075   9.147   0.963   2.511
 1869SOL    HW116076   9.137   1.061   2.528
 1869SOL    HW216077   9.116   0.912   2.591
 1870SOL     OW16078   8.257   9.747   2.757
 1870SOL    HW116079   8.288   9.654   2.736
 1870SOL    HW216080   8.325   9.792   2.815
 1871SOL     OW16081   7.959   2.107   1.488
 1871SOL    HW116082   8.052   2.130   1.459
 1871SOL    HW216083   7.896   2.119   1.411
 1872SOL     OW16084   8.762   3.889   1.876
 1872SOL    HW116085   8.730   3.963   1.934
 1872SOL    HW216086   8.744   3.911   1.780
 1873SOL     OW16087   3.949   9.086   0.449
 1873SOL    HW116088   3.876   9.035   0.494
 1873SOL    HW216089   4.037   9.050   0.477
 1874SOL     OW16090   1.100   5.246   2.031
 1874SOL    HW116091   1.076   5.170   2.093
 1874SOL    HW216092   1.017   5.296   2.006
 1875SOL     OW16093   8.644   8.482   0.696
 1875SOL    HW116094   8.603   8.423   0.766
 1875SOL    HW216095   8.741   8.494   0.716
 1876SOL     OW16096   4.106   2.563   1.737
 1876SOL    HW116097   4.011   2.558   1.706
 1876SOL    HW216098   4.164   2.508   1.677
 1877SOL     OW16099   3.564   6.532   3.360
 1877SOL    HW116100   3.576   6.536   3.261
 1877SOL    HW216101   3.636   6.475   3.400
 1878SOL     OW16102   9.361   0.619   0.549
 1878SOL    HW116103   9.415   0.562   0.487
 1878SOL    HW216104   9.373   0.715   0.524
 1879SOL     OW16105   1.369   5.226   0.639
 1879SOL    HW116106   1.461   5.247   0.671
 1879SOL    HW216107   1.303   5.247   0.712
 1880SOL     OW16108   3.094   6.270   1.854
 1880SOL    HW116109   3.068   6.181   1.815
 1880SOL    HW216110   3.075   6.270   1.952
 1881SOL     OW16111   8.893   3.132   0.406
 1881SOL    HW116112   8.841   3.098   0.328
 1881SOL    HW216113   8.831   3.179   0.469
 1882SOL     OW16114   3.508   8.463   2.626
 1882SOL    HW116115   3.582   8.402   2.656
 1882SOL    HW216116   3.420   8.420   2.644
 1883SOL     OW16117   1.604   5.498   3.244
 1883SOL    HW116118   1.524   5.531   3.194
 1883SOL    HW216119   1.681   5.558   3.226
 1884SOL     OW16120   3.265   3.217   0.239
 1884SOL    HW116121   3.346   3.197   0.184
 1884SOL    HW216122   3.215   3.133   0.257
 1885SOL     OW16123   3.554   5.726   1.880
 1885SOL    HW116124   3.557   5.633   1.917
 1885SOL    HW216125   3.486   5.730   1.808
 1886SOL     OW16126   8.035   8.689   1.719
 1886SOL    HW116127   8.070   8.664   1.628
 1886SOL    HW216128   7.970   8.764   1.710
 1887SOL     OW16129   0.499   0.578   0.179
 1887SOL    HW116130   0.550   0.510   0.231
 1887SOL    HW216131   0.561   0.631   0.122
 1888SOL     OW16132   4.476   4.745   1.919
 1888SOL    HW116133   4.434   4.770   1.832
 1888SOL    HW216134   4.455   4.649   1.940
 1889SOL     OW16135   0.781   1.347   2.357
 1889SOL    HW116136   0.768   1.445   2.372
 1889SOL    HW216137   0.695   1.298   2.374
 1890SOL     OW16138   3.011   2.760   0.615
 1890SOL    HW116139   2.913   2.766   0.633
 1890SOL    HW216140   3.062   2.779   0.698
 1891SOL     OW16141   2.036   7.657   0.803
 1891SOL    HW116142   1.985   7.573   0.822
 1891SOL    HW216143   2.133   7.637   0.801
 1892SOL     OW16144   1.281   3.766   2.739
 1892SOL    HW116145   1.181   3.767   2.748
 1892SOL    HW216146   1.317   3.857   2.756
 1893SOL     OW16147   8.707   6.201   2.096
 1893SOL    HW116148   8.638   6.168   2.160
 1893SOL    HW216149   8.670   6.278   2.043
 1894SOL     OW16150   9.434   2.400   2.307
 1894SOL    HW116151   9.446   2.390   2.405
 1894SOL    HW216152   9.341   2.374   2.281
 1895SOL     OW16153   3.325   4.155   0.072
 1895SOL    HW116154   3.268   4.182   0.149
 1895SOL    HW216155   3.366   4.065   0.090
 1896SOL     OW16156   1.548   1.560   3.200
 1896SOL    HW116157   1.506   1.513   3.123
 1896SOL    HW216158   1.642   1.531   3.211
 1897SOL     OW16159   9.684   5.325   0.344
 1897SOL    HW116160   9.611   5.287   0.401
 1897SOL    HW216161   9.736   5.392   0.396
 1898SOL     OW16162   3.216   4.446   1.223
 1898SOL    HW116163   3.186   4.352   1.238
 1898SOL    HW216164   3.306   4.459   1.265
 1899SOL     OW16165   0.343   0.221   1.196
 1899SOL    HW116166   0.290   0.276   1.132
 1899SOL    HW216167   0.284   0.192   1.272
 1900SOL     OW16168   9.980   6.670   1.228
 1900SOL    HW116169   9.986   6.742   1.298
 1900SOL    HW216170   9.995   6.581   1.271
 1901SOL     OW16171   0.632   4.048   0.937
 1901SOL    HW116172   0.662   4.119   1.002
 1901SOL    HW216173   0.608   4.091   0.850
 1902SOL     OW16174   2.055   4.311   3.187
 1902SOL    HW116175   2.053   4.212   3.200
 1902SOL    HW216176   2.100   4.333   3.101
 1903SOL     OW16177   0.146   7.948   2.341
 1903SOL    HW116178   0.087   7.992   2.409
 1903SOL    HW216179   0.228   8.004   2.327
 1904SOL     OW16180   2.717   3.101   2.005
 1904SOL    HW116181   2.738   3.180   2.063
 1904SOL    HW216182   2.619   3.096   1.991
 1905SOL     OW16183   1.036   1.186   3.517
 1905SOL    HW116184   0.944   1.180   3.555
 1905SOL    HW216185   1.101   1.207   3.591
 1906SOL     OW16186   9.420   2.468   1.910
 1906SOL    HW116187   9.425   2.461   1.810
 1906SOL    HW216188   9.512   2.473   1.948
 1907SOL     OW16189   1.982   3.768   0.629
 1907SOL    HW116190   2.008   3.740   0.721
 1907SOL    HW216191   2.065   3.789   0.576
 1908SOL     OW16192   1.301   6.285   2.754
 1908SOL    HW116193   1.367   6.220   2.791
 1908SOL    HW216194   1.333   6.320   2.666
 1909SOL     OW16195   9.144   7.313   3.472
 1909SOL    HW116196   9.123   7.220   3.501
 1909SOL    HW216197   9.204   7.310   3.392
 1910SOL     OW16198   3.460   7.635   2.303
 1910SOL    HW116199   3.433   7.548   2.262
 1910SOL    HW216200   3.450   7.709   2.237
 1911SOL     OW16201   9.063   6.658   0.562
 1911SOL    HW116202   9.008   6.576   0.548
 1911SOL    HW216203   9.003   6.736   0.578
 1912SOL     OW16204   2.903   7.820   0.775
 1912SOL    HW116205   2.828   7.756   0.794
 1912SOL    HW216206   2.989   7.782   0.809
 1913SOL     OW16207   0.326   6.837   2.985
 1913SOL    HW116208   0.361   6.928   2.965
 1913SOL    HW216209   0.387   6.791   3.049
 1914SOL     OW16210   6.396   0.466   2.710
 1914SOL    HW116211   6.441   0.503   2.791
 1914SOL    HW216212   6.298   0.456   2.728
 1915SOL     OW16213   9.506   0.383   3.101
 1915SOL    HW116214   9.421   0.342   3.135
 1915SOL    HW216215   9.583   0.350   3.155
 1916SOL     OW16216   9.419   9.868   3.270
 1916SOL    HW116217   9.456   9.823   3.188
 1916SOL    HW216218   9.487   9.932   3.306
 1917SOL     OW16219   5.398   4.669   1.051
 1917SOL    HW116220   5.445   4.587   1.020
 1917SOL    HW216221   5.299   4.655   1.048
 1918SOL     OW16222   3.868   8.937   0.905
 1918SOL    HW116223   3.880   8.911   1.001
 1918SOL    HW216224   3.849   8.856   0.850
 1919SOL     OW16225   3.263   1.206   1.281
 1919SOL    HW116226   3.346   1.160   1.249
 1919SOL    HW216227   3.186   1.179   1.224
 1920SOL     OW16228   1.919   1.831   1.672
 1920SOL    HW116229   1.981   1.887   1.616
 1920SOL    HW216230   1.836   1.884   1.692
 1921SOL     OW16231   3.642   8.065   0.645
 1921SOL    HW116232   3.738   8.064   0.617
 1921SOL    HW216233   3.590   8.127   0.586
 1922SOL     OW16234   8.016   9.549   2.521
 1922SOL    HW116235   8.061   9.553   2.432
 1922SOL    HW216236   7.925   9.590   2.515
 1923SOL     OW16237   7.777   2.298   2.975
 1923SOL    HW116238   7.848   2.271   2.911
 1923SOL    HW216239   7.694   2.322   2.924
 1924SOL     OW16240   2.450   3.803   0.729
 1924SOL    HW116241   2.510   3.881   0.749
 1924SOL    HW216242   2.465   3.772   0.636
 1925SOL     OW16243   6.848   9.956   1.755
 1925SOL    HW116244   6.803   0.040   1.785
 1925SOL    HW216245   6.884   9.907   1.835
 1926SOL     OW16246   0.084   8.145   0.034
 1926SOL    HW116247   0.022   8.220   0.058
 1926SOL    HW216248   0.178   8.179   0.031
 1927SOL     OW16249   9.978   3.522   1.602
 1927SOL    HW116250   9.999   3.546   1.697
 1927SOL    HW216251   9.937   3.431   1.599
 1928SOL     OW16252   1.250   5.312   2.894
 1928SOL    HW116253   1.196   5.240   2.850
 1928SOL    HW216254   1.280   5.379   2.826
 1929SOL     OW16255   1.246   6.075   2.105
 1929SOL    HW116256   1.248   6.004   2.174
 1929SOL    HW216257   1.220   6.035   2.017
 1930SOL     OW16258   1.881   5.572   0.932
 1930SOL    HW116259   1.792   5.555   0.891
 1930SOL    HW216260   1.898   5.671   0.937
 1931SOL     OW16261   4.375   2.187   3.269
 1931SOL    HW116262   4.375   2.223   3.175
 1931SOL    HW216263   4.376   2.263   3.333
 1932SOL     OW16264   1.012   3.465   2.348
 1932SOL    HW116265   1.050   3.461   2.440
 1932SOL    HW216266   1.049   3.545   2.300
 1933SOL     OW16267   9.991   7.646   2.955
 1933SOL    HW116268   9.900   7.671   2.987
 1933SOL    HW216269   9.986   7.617   2.860
 1934SOL     OW16270   0.873   9.673   3.407
 1934SOL    HW116271   0.869   9.714   3.498
 1934SOL    HW216272   0.827   9.732   3.341
 1935SOL     OW16273   4.858   8.987   2.154
 1935SOL    HW116274   4.774   9.023   2.196
 1935SOL    HW216275   4.897   8.916   2.213
 1936SOL     OW16276   2.222   1.812   1.266
 1936SOL    HW116277   2.269   1.792   1.352
 1936SOL    HW216278   2.125   1.792   1.275
 1937SOL     OW16279   2.218   6.214   3.335
 1937SOL    HW116280   2.277   6.260   3.401
 1937SOL    HW216281   2.138   6.271   3.316
 1938SOL     OW16282   3.119   8.351   1.088
 1938SOL    HW116283   3.047   8.284   1.109
 1938SOL    HW216284   3.078   8.430   1.043
 1939SOL     OW16285   0.742   7.399   1.457
 1939SOL    HW116286   0.732   7.349   1.371
 1939SOL    HW216287   0.696   7.349   1.530
 1940SOL     OW16288   5.483   9.999   1.261
 1940SOL    HW116289   5.404   9.990   1.322
 1940SOL    HW216290   5.562   0.031   1.313
 1941SOL     OW16291   8.259   6.831   2.002
 1941SOL    HW116292   8.307   6.753   1.963
 1941SOL    HW216293   8.249   6.902   1.932
 1942SOL     OW16294   3.951   2.302   2.245
 1942SOL    HW116295   4.044   2.267   2.260
 1942SOL    HW216296   3.899   2.235   2.193
 1943SOL     OW16297   7.894   2.588   2.052
 1943SOL    HW116298   7.894   2.668   1.992
 1943SOL    HW216299   7.984   2.576   2.093
 1944SOL     OW16300   8.714   7.785   3.140
 1944SOL    HW116301   8.633   7.803   3.085
 1944SOL    HW216302   8.705   7.695   3.184
 1945SOL     OW16303   0.064   1.295   1.446
 1945SOL    HW116304   0.104   1.315   1.536
 1945SOL    HW216305   9.992   1.362   1.425
 1946SOL     OW16306   3.530   9.814   2.110
 1946SOL    HW116307   3.532   9.868   2.194
 1946SOL    HW216308   3.448   9.838   2.057
 1947SOL     OW16309   7.245   0.179   2.261
 1947SOL    HW116310   7.189   0.170   2.179
 1947SOL    HW216311   7.320   0.113   2.258
 1948SOL     OW16312   0.925   2.904   0.672
 1948SOL    HW116313   1.007   2.939   0.717
 1948SOL    HW216314   0.892   2.970   0.604
 1949SOL     OW16315   3.623   0.617   2.474
 1949SOL    HW116316   3.709   0.566   2.474
 1949SOL    HW216317   3.624   0.684   2.549
 1950SOL     OW16318   7.443   0.764   2.522
 1950SOL    HW116319   7.513   0.819   2.568
 1950SOL    HW216320   7.358   0.816   2.518
 1951SOL     OW16321   1.974   0.730   1.342
 1951SOL    HW116322   1.972   0.726   1.442
 1951SOL    HW216323   1.914   0.659   1.304
 1952SOL     OW16324   5.225   7.427   1.768
 1952SOL    HW116325   5.252   7.337   1.802
 1952SOL    HW216326   5.173   7.416   1.683
 1953SOL     OW16327   4.264   8.113   3.007
 1953SOL    HW116328   4.327   8.188   2.990
 1953SOL    HW216329   4.172   8.140   2.979
 1954SOL     OW16330   2.928   5.525   2.558
 1954SOL    HW116331   2.931   5.624   2.564
 1954SOL    HW216332   2.968   5.485   2.640
 1955SOL     OW16333   8.379   3.188   3.201
 1955SOL    HW116334   8.430   3.149   3.278
 1955SOL    HW216335   8.320   3.262   3.234
 1956SOL     OW16336   8.720   6.572   1.242
 1956SOL    HW116337   8.669   6.648   1.283
 1956SOL    HW216338   8.818   6.590   1.246
 1957SOL     OW16339   8.296   1.378   3.107
 1957SOL    HW116340   8.323   1.461   3.058
 1957SOL    HW216341   8.334   1.298   3.061
 1958SOL     OW16342   7.039   9.889   3.531
 1958SOL    HW116343   7.032   9.845   3.441
 1958SOL    HW216344   7.125   9.940   3.536
 1959SOL     OW16345   9.452   5.986   0.999
 1959SOL    HW116346   9.483   6.080   1.007
 1959SOL    HW216347   9.504   5.928   1.062
 1960SOL     OW16348   2.376   5.881   1.790
 1960SOL    HW116349   2.436   5.828   1.850
 1960SOL    HW216350   2.414   5.885   1.698
 1961SOL     OW16351   8.999   8.431   2.113
 1961SOL    HW116352   8.973   8.522   2.147
 1961SOL    HW216353   8.987   8.429   2.013
 1962SOL     OW16354   8.221   8.421   2.538
 1962SOL    HW116355   8.302   8.479   2.529
 1962SOL    HW216356   8.152   8.470   2.591
 1963SOL     OW16357   2.077   9.685   1.332
 1963SOL    HW116358   2.085   9.753   1.404
 1963SOL    HW216359   2.124   9.717   1.250
 1964SOL     OW16360   0.783   2.097   2.417
 1964SOL    HW116361   0.855   2.030   2.393
 1964SOL    HW216362   0.706   2.085   2.355
 1965SOL     OW16363   8.097   6.687   2.171
 1965SOL    HW116364   8.164   6.725   2.107
 1965SOL    HW216365   8.015   6.744   2.172
 1966SOL     OW16366   0.996   2.929   2.948
 1966SOL    HW116367   0.985   2.980   2.863
 1966SOL    HW216368   1.009   2.992   3.024
 1967SOL     OW16369   9.607   4.988   2.932
 1967SOL    HW116370   9.555   4.905   2.908
 1967SOL    HW216371   9.600   5.054   2.857
 1968SOL     OW16372   3.876   7.669   3.195
 1968SOL    HW116373   3.811   7.724   3.248
 1968SOL    HW216374   3.876   7.700   3.100
 1969SOL     OW16375   2.918   5.113   3.270
 1969SOL    HW116376   3.008   5.126   3.310
 1969SOL    HW216377   2.925   5.048   3.194
 1970SOL     OW16378   0.417   5.038   2.043
 1970SOL    HW116379   0.367   5.123   2.023
 1970SOL    HW216380   0.476   5.053   2.123
 1971SOL     OW16381   5.498   8.562   2.390
 1971SOL    HW116382   5.462   8.628   2.325
 1971SOL    HW216383   5.557   8.497   2.342
 1972SOL     OW16384   9.430   8.614   0.437
 1972SOL    HW116385   9.432   8.696   0.379
 1972SOL    HW216386   9.335   8.586   0.452
 1973SOL     OW16387   2.339   1.170   0.690
 1973SOL    HW116388   2.242   1.170   0.716
 1973SOL    HW216389   2.375   1.263   0.700
 1974SOL     OW16390   3.143   2.017   0.547
 1974SOL    HW116391   3.186   2.107   0.554
 1974SOL    HW216392   3.123   1.997   0.451
 1975SOL     OW16393   8.793   1.176   1.616
 1975SOL    HW116394   8.731   1.230   1.560
 1975SOL    HW216395   8.854   1.237   1.668
 1976SOL     OW16396   4.188   0.352   1.273
 1976SOL    HW116397   4.286   0.372   1.271
 1976SOL    HW216398   4.160   0.331   1.366
 1977SOL     OW16399   2.672   7.999   3.586
 1977SOL    HW116400   2.710   7.911   3.556
 1977SOL    HW216401   2.574   7.989   3.600
 1978SOL     OW16402   2.767   6.136   1.120
 1978SOL    HW116403   2.834   6.193   1.167
 1978SOL    HW216404   2.681   6.186   1.113
 1979SOL     OW16405   1.089   4.977   0.499
 1979SOL    HW116406   1.188   4.972   0.509
 1979SOL    HW216407   1.066   5.031   0.418
 1980SOL     OW16408   8.060   7.843   2.054
 1980SOL    HW116409   8.119   7.855   1.974
 1980SOL    HW216410   8.055   7.930   2.104
 1981SOL     OW16411   2.172   1.104   2.143
 1981SOL    HW116412   2.117   1.103   2.060
 1981SOL    HW216413   2.190   1.010   2.173
 1982SOL     OW16414   8.056   5.971   0.663
 1982SOL    HW116415   8.133   5.910   0.683
 1982SOL    HW216416   8.063   6.052   0.720
 1983SOL     OW16417   4.070   2.091   1.532
 1983SOL    HW116418   3.999   2.159   1.546
 1983SOL    HW216419   4.042   2.004   1.573
 1984SOL     OW16420   2.047   6.405   1.561
 1984SOL    HW116421   1.981   6.444   1.624
 1984SOL    HW216422   2.110   6.476   1.529
 1985SOL     OW16423   2.937   0.312   3.634
 1985SOL    HW116424   2.848   0.343   3.669
 1985SOL    HW216425   3.003   0.387   3.638
 1986SOL     OW16426   8.522   8.778   2.803
 1986SOL    HW116427   8.536   8.807   2.897
 1986SOL    HW216428   8.498   8.680   2.801
 1987SOL     OW16429   8.288   4.911   2.833
 1987SOL    HW116430   8.325   4.818   2.836
 1987SOL    HW216431   8.356   4.975   2.869
 1988SOL     OW16432   9.725   3.075   2.736
 1988SOL    HW116433   9.725   3.083   2.836
 1988SOL    HW216434   9.809   3.116   2.699
 1989SOL     OW16435   8.770   8.708   1.715
 1989SOL    HW116436   8.752   8.713   1.813
 1989SOL    HW216437   8.795   8.614   1.691
 1990SOL     OW16438   3.280   9.088   3.690
 1990SOL    HW116439   3.230   9.136   3.617
 1990SOL    HW216440   3.223   9.086   3.772
 1991SOL     OW16441   3.389   1.147   3.025
 1991SOL    HW116442   3.455   1.165   3.099
 1991SOL    HW216443   3.355   1.054   3.032
 1992SOL     OW16444   1.132   1.048   1.766
 1992SOL    HW116445   1.161   0.960   1.727
 1992SOL    HW216446   1.160   1.053   1.862
 1993SOL     OW16447   3.246   8.854   2.986
 1993SOL    HW116448   3.300   8.929   2.948
 1993SOL    HW216449   3.258   8.852   3.085
 1994SOL     OW16450   0.301   3.188   0.206
 1994SOL    HW116451   0.257   3.275   0.185
 1994SOL    HW216452   0.231   3.116   0.211
 1995SOL     OW16453   3.206   7.885   1.728
 1995SOL    HW116454   3.132   7.930   1.678
 1995SOL    HW216455   3.268   7.955   1.765
 1996SOL     OW16456   8.502   0.885   1.473
 1996SOL    HW116457   8.480   0.889   1.571
 1996SOL    HW216458   8.468   0.968   1.428
 1997SOL     OW16459   0.472   0.670   3.646
 1997SOL    HW116460   0.520   0.582   3.640
 1997SOL    HW216461   0.376   0.658   3.619
 1998SOL     OW16462   9.661   6.254   3.616
 1998SOL    HW116463   9.742   6.212   3.655
 1998SOL    HW216464   9.586   6.188   3.615
 1999SOL     OW16465   8.004   3.526   1.213
 1999SOL    HW116466   8.076   3.496   1.150
 1999SOL    HW216467   8.008   3.473   1.297
 2000SOL     OW16468   2.078   3.490   1.434
 2000SOL    HW116469   2.120   3.432   1.504
 2000SOL    HW216470   1.985   3.460   1.417
 2001SOL     OW16471   9.181   8.634   1.822
 2001SOL    HW116472   9.139   8.725   1.819
 2001SOL    HW216473   9.244   8.629   1.899
 2002SOL     OW16474   2.627   7.844   3.251
 2002SOL    HW116475   2.574   7.926   3.270
 2002SOL    HW216476   2.604   7.808   3.160
 2003SOL     OW16477   2.610   4.024   0.769
 2003SOL    HW116478   2.695   4.056   0.728
 2003SOL    HW216479   2.545   4.100   0.776
 2004SOL     OW16480   6.519   9.770   0.926
 2004SOL    HW116481   6.501   9.788   1.023
 2004SOL    HW216482   6.613   9.797   0.904
 2005SOL     OW16483   3.458   1.321   1.000
 2005SOL    HW116484   3.362   1.339   0.978
 2005SOL    HW216485   3.465   1.235   1.051
 2006SOL     OW16486   4.349   1.644   2.439
 2006SOL    HW116487   4.344   1.544   2.436
 2006SOL    HW216488   4.302   1.677   2.521
 2007SOL     OW16489   2.755   8.323   1.178
 2007SOL    HW116490   2.792   8.367   1.260
 2007SOL    HW216491   2.816   8.249   1.149
 2008SOL     OW16492   3.849   5.709   2.951
 2008SOL    HW116493   3.792   5.790   2.940
 2008SOL    HW216494   3.939   5.736   2.985
 2009SOL     OW16495   4.155   1.782   0.241
 2009SOL    HW116496   4.117   1.871   0.263
 2009SOL    HW216497   4.230   1.792   0.175
 2010SOL     OW16498   2.065   5.061   0.060
 2010SOL    HW116499   2.018   5.001   4.776
 2010SOL    HW216500   2.020   5.055   0.149
 2011SOL     OW16501   3.022   8.445   3.162
 2011SOL    HW116502   2.990   8.352   3.182
 2011SOL    HW216503   2.959   8.490   3.099
 2012SOL     OW16504   0.876   6.329   2.263
 2012SOL    HW116505   0.954   6.392   2.265
 2012SOL    HW216506   0.793   6.378   2.290
 2013SOL     OW16507   8.446   9.212   0.579
 2013SOL    HW116508   8.434   9.250   0.487
 2013SOL    HW216509   8.374   9.245   0.639
 2014SOL     OW16510   2.434   5.478   0.294
 2014SOL    HW116511   2.412   5.554   0.234
 2014SOL    HW216512   2.353   5.422   0.309
 2015SOL     OW16513   8.201   6.992   2.214
 2015SOL    HW116514   8.110   6.968   2.247
 2015SOL    HW216515   8.228   6.930   2.141
 2016SOL     OW16516   2.783   9.011   1.404
 2016SOL    HW116517   2.736   9.081   1.351
 2016SOL    HW216518   2.756   8.920   1.372
 2017SOL     OW16519   0.498   6.946   1.312
 2017SOL    HW116520   0.490   6.911   1.405
 2017SOL    HW216521   0.520   6.870   1.250
 2018SOL     OW16522   9.255   1.648   0.196
 2018SOL    HW116523   9.214   1.560   0.175
 2018SOL    HW216524   9.351   1.647   0.170
 2019SOL     OW16525   5.391   0.583   2.982
 2019SOL    HW116526   5.318   0.531   2.939
 2019SOL    HW216527   5.352   0.656   3.037
 2020SOL     OW16528   9.458   1.382   0.382
 2020SOL    HW116529   9.377   1.413   0.433
 2020SOL    HW216530   9.538   1.432   0.413
 2021SOL     OW16531   8.788   9.163   1.837
 2021SOL    HW116532   8.706   9.153   1.893
 2021SOL    HW216533   8.866   9.188   1.896
 2022SOL     OW16534   5.480   8.837   2.483
 2022SOL    HW116535   5.443   8.829   2.390
 2022SOL    HW216536   5.520   8.750   2.511
 2023SOL     OW16537   1.513   4.621   3.025
 2023SOL    HW116538   1.458   4.612   3.108
 2023SOL    HW216539   1.452   4.623   2.945
 2024SOL     OW16540   8.905   0.965   1.777
 2024SOL    HW116541   8.852   1.030   1.722
 2024SOL    HW216542   8.842   0.913   1.836
 2025SOL     OW16543   4.575   3.141   0.330
 2025SOL    HW116544   4.610   3.084   0.405
 2025SOL    HW216545   4.646   3.153   0.261
 2026SOL     OW16546   2.793   4.207   1.306
 2026SOL    HW116547   2.814   4.116   1.341
 2026SOL    HW216548   2.830   4.216   1.213
 2027SOL     OW16549   0.852   2.824   0.264
 2027SOL    HW116550   0.911   2.763   0.316
 2027SOL    HW216551   0.899   2.911   0.249
 2028SOL     OW16552   8.728   8.213   1.105
 2028SOL    HW116553   8.671   8.273   1.161
 2028SOL    HW216554   8.693   8.119   1.109
 2029SOL     OW16555   4.800   8.772   0.494
 2029SOL    HW116556   4.760   8.732   0.577
 2029SOL    HW216557   4.835   8.699   0.435
 2030SOL     OW16558   1.830   8.607   3.489
 2030SOL    HW116559   1.776   8.541   3.541
 2030SOL    HW216560   1.778   8.692   3.479
 2031SOL     OW16561   3.967   1.619   3.382
 2031SOL    HW116562   3.872   1.627   3.353
 2031SOL    HW216563   3.976   1.542   3.446
 2032SOL     OW16564   0.473   0.450   1.299
 2032SOL    HW116565   0.430   0.366   1.266
 2032SOL    HW216566   0.430   0.477   1.385
 2033SOL     OW16567   3.383   9.814   1.161
 2033SOL    HW116568   3.289   9.842   1.143
 2033SOL    HW216569   3.393   9.716   1.145
 2034SOL     OW16570   8.664   3.660   0.876
 2034SOL    HW116571   8.614   3.588   0.828
 2034SOL    HW216572   8.720   3.620   0.949
 2035SOL     OW16573   0.349   2.955   2.488
 2035SOL    HW116574   0.254   2.953   2.518
 2035SOL    HW216575   0.403   2.892   2.544
 2036SOL     OW16576   2.015   7.483   1.216
 2036SOL    HW116577   1.957   7.546   1.163
 2036SOL    HW216578   2.048   7.530   1.298
 2037SOL     OW16579   3.563   8.406   0.124
 2037SOL    HW116580   3.483   8.388   0.183
 2037SOL    HW216581   3.596   8.499   0.142
 2038SOL     OW16582   2.031   3.530   0.298
 2038SOL    HW116583   1.959   3.499   0.236
 2038SOL    HW216584   1.996   3.532   0.391
 2039SOL     OW16585   0.771   4.534   1.853
 2039SOL    HW116586   0.753   4.489   1.940
 2039SOL    HW216587   0.868   4.556   1.846
 2040SOL     OW16588   6.214   7.850   2.739
 2040SOL    HW116589   6.227   7.929   2.798
 2040SOL    HW216590   6.179   7.880   2.650
 2041SOL     OW16591   0.431   5.543   2.725
 2041SOL    HW116592   0.455   5.554   2.629
 2041SOL    HW216593   0.507   5.498   2.773
 2042SOL     OW16594   7.421   6.571   2.737
 2042SOL    HW116595   7.401   6.663   2.704
 2042SOL    HW216596   7.335   6.520   2.748
 2043SOL     OW16597   1.364   2.398   1.583
 2043SOL    HW116598   1.369   2.463   1.507
 2043SOL    HW216599   1.269   2.387   1.612
 2044SOL     OW16600   1.351   1.455   3.366
 2044SOL    HW116601   1.421   1.495   3.307
 2044SOL    HW216602   1.328   1.520   3.438
 2045SOL     OW16603   7.378   9.749   2.135
 2045SOL    HW116604   7.330   9.692   2.201
 2045SOL    HW216605   7.349   9.726   2.042
 2046SOL     OW16606   9.213   0.070   3.674
 2046SOL    HW116607   9.173   9.979   3.665
 2046SOL    HW216608   9.159   0.135   3.621
 2047SOL     OW16609   1.424   1.503   2.329
 2047SOL    HW116610   1.416   1.480   2.426
 2047SOL    HW216611   1.379   1.432   2.274
 2048SOL     OW16612   7.848   2.219   2.545
 2048SOL    HW116613   7.767   2.161   2.547
 2048SOL    HW216614   7.836   2.290   2.475
 2049SOL     OW16615   3.262   0.359   2.350
 2049SOL    HW116616   3.294   0.276   2.304
 2049SOL    HW216617   3.167   0.347   2.379
 2050SOL     OW16618   9.079   8.290   2.343
 2050SOL    HW116619   9.050   8.339   2.261
 2050SOL    HW216620   9.016   8.214   2.360
 2051SOL     OW16621   1.716   2.281   1.997
 2051SOL    HW116622   1.779   2.235   1.935
 2051SOL    HW216623   1.635   2.311   1.947
 2052SOL     OW16624   4.622   8.747   1.606
 2052SOL    HW116625   4.649   8.724   1.513
 2052SOL    HW216626   4.549   8.686   1.636
 2053SOL     OW16627   4.253   3.477   0.533
 2053SOL    HW116628   4.312   3.397   0.545
 2053SOL    HW216629   4.200   3.467   0.449
 2054SOL     OW16630   4.880   1.467   1.765
 2054SOL    HW116631   4.968   1.463   1.718
 2054SOL    HW216632   4.816   1.523   1.712
 2055SOL     OW16633   1.125   8.911   0.751
 2055SOL    HW116634   1.069   8.959   0.818
 2055SOL    HW216635   1.103   8.813   0.754
 2056SOL     OW16636   5.446   3.763   0.422
 2056SOL    HW116637   5.397   3.680   0.398
 2056SOL    HW216638   5.467   3.815   0.339
 2057SOL     OW16639   2.639   6.063   2.835
 2057SOL    HW116640   2.719   6.073   2.893
 2057SOL    HW216641   2.558   6.045   2.892
 2058SOL     OW16642   4.424   9.626   1.284
 2058SOL    HW116643   4.345   9.687   1.296
 2058SOL    HW216644   4.444   9.617   1.186
 2059SOL     OW16645   9.992   0.263   2.098
 2059SOL    HW116646   0.081   0.221   2.110
 2059SOL    HW216647   9.986   0.304   2.007
 2060SOL     OW16648   2.522   6.460   3.172
 2060SOL    HW116649   2.584   6.490   3.100
 2060SOL    HW216650   2.559   6.484   3.261
 2061SOL     OW16651   9.801   6.205   2.126
 2061SOL    HW116652   9.860   6.127   2.143
 2061SOL    HW216653   9.773   6.205   2.030
 2062SOL     OW16654   3.980   0.788   1.614
 2062SOL    HW116655   3.997   0.712   1.677
 2062SOL    HW216656   3.972   0.753   1.521
 2063SOL     OW16657   1.444   2.838   1.366
 2063SOL    HW116658   1.426   2.866   1.272
 2063SOL    HW216659   1.429   2.915   1.428
 2064SOL     OW16660   4.700   6.695   2.077
 2064SOL    HW116661   4.625   6.630   2.082
 2064SOL    HW216662   4.669   6.779   2.032
 2065SOL     OW16663   3.151   9.546   1.502
 2065SOL    HW116664   3.068   9.570   1.553
 2065SOL    HW216665   3.132   9.549   1.404
 2066SOL     OW16666   0.778   4.178   3.432
 2066SOL    HW116667   0.748   4.144   3.521
 2066SOL    HW216668   0.777   4.104   3.366
 2067SOL     OW16669   0.379   0.857   0.180
 2067SOL    HW116670   0.283   0.854   0.206
 2067SOL    HW216671   0.407   0.767   0.147
 2068SOL     OW16672   1.541   9.704   3.440
 2068SOL    HW116673   1.567   9.667   3.529
 2068SOL    HW216674   1.610   9.679   3.372
 2069SOL     OW16675   3.882   7.398   3.215
 2069SOL    HW116676   3.791   7.358   3.210
 2069SOL    HW216677   3.876   7.498   3.214
 2070SOL     OW16678   3.612   3.797   0.464
 2070SOL    HW116679   3.644   3.719   0.410
 2070SOL    HW216680   3.648   3.790   0.557
 2071SOL     OW16681   3.852   5.975   3.144
 2071SOL    HW116682   3.783   5.953   3.075
 2071SOL    HW216683   3.813   5.963   3.235
 2072SOL     OW16684   2.814   0.281   3.092
 2072SOL    HW116685   2.868   0.305   3.172
 2072SOL    HW216686   2.795   0.182   3.093
 2073SOL     OW16687   3.198   7.142   1.211
 2073SOL    HW116688   3.271   7.209   1.221
 2073SOL    HW216689   3.113   7.179   1.248
 2074SOL     OW16690   3.431   8.544   1.469
 2074SOL    HW116691   3.399   8.523   1.562
 2074SOL    HW216692   3.386   8.483   1.404
 2075SOL     OW16693   3.593   1.505   0.175
 2075SOL    HW116694   3.679   1.519   0.127
 2075SOL    HW216695   3.594   1.418   0.223
 2076SOL     OW16696   8.665   0.516   0.319
 2076SOL    HW116697   8.664   0.450   0.394
 2076SOL    HW216698   8.613   0.597   0.346
 2077SOL     OW16699   2.951   0.314   2.142
 2077SOL    HW116700   3.012   0.241   2.111
 2077SOL    HW216701   2.907   0.357   2.062
 2078SOL     OW16702   4.894   3.785   0.627
 2078SOL    HW116703   4.969   3.815   0.567
 2078SOL    HW216704   4.811   3.773   0.573
 2079SOL     OW16705   8.131   1.670   1.497
 2079SOL    HW116706   8.209   1.634   1.445
 2079SOL    HW216707   8.145   1.767   1.516
 2080SOL     OW16708   0.358   3.561   2.364
 2080SOL    HW116709   0.426   3.489   2.373
 2080SOL    HW216710   0.386   3.623   2.290
 2081SOL     OW16711   1.140   7.159   2.704
 2081SOL    HW116712   1.139   7.151   2.803
 2081SOL    HW216713   1.201   7.234   2.678
 2082SOL     OW16714   0.853   8.211   1.974
 2082SOL    HW116715   0.944   8.224   2.013
 2082SOL    HW216716   0.859   8.157   1.890
 2083SOL     OW16717   0.678   3.815   2.398
 2083SOL    HW116718   0.639   3.840   2.309
 2083SOL    HW216719   0.690   3.716   2.402
 2084SOL     OW16720   0.541   3.153   2.541
 2084SOL    HW116721   0.468   3.087   2.528
 2084SOL    HW216722   0.543   3.183   2.636
 2085SOL     OW16723   9.744   0.868   2.251
 2085SOL    HW116724   9.840   0.854   2.226
 2085SOL    HW216725   9.687   0.803   2.201
 2086SOL     OW16726   0.633   9.899   1.204
 2086SOL    HW116727   0.686   9.825   1.164
 2086SOL    HW216728   0.599   9.959   1.132
 2087SOL     OW16729   9.207   7.310   1.175
 2087SOL    HW116730   9.195   7.211   1.186
 2087SOL    HW216731   9.210   7.333   1.077
 2088SOL     OW16732   0.097   5.994   2.288
 2088SOL    HW116733   0.013   5.953   2.324
 2088SOL    HW216734   0.175   5.935   2.311
 2089SOL     OW16735   1.671   6.561   0.445
 2089SOL    HW116736   1.723   6.478   0.427
 2089SOL    HW216737   1.728   6.641   0.427
 2090SOL     OW16738   5.304   3.455   0.748
 2090SOL    HW116739   5.322   3.428   0.843
 2090SOL    HW216740   5.377   3.516   0.716
 2091SOL     OW16741   8.519   3.898   0.884
 2091SOL    HW116742   8.478   3.911   0.975
 2091SOL    HW216743   8.566   3.810   0.881
 2092SOL     OW16744   2.641   7.346   1.116
 2092SOL    HW116745   2.579   7.386   1.183
 2092SOL    HW216746   2.671   7.256   1.148
 2093SOL     OW16747   8.384   5.648   0.916
 2093SOL    HW116748   8.362   5.556   0.948
 2093SOL    HW216749   8.407   5.706   0.994
 2094SOL     OW16750   4.251   3.855   0.769
 2094SOL    HW116751   4.302   3.790   0.714
 2094SOL    HW216752   4.264   3.835   0.866
 2095SOL     OW16753   9.046   5.007   2.207
 2095SOL    HW116754   9.095   4.940   2.151
 2095SOL    HW216755   9.061   4.986   2.304
 2096SOL     OW16756   3.208   6.578   3.178
 2096SOL    HW116757   3.252   6.507   3.123
 2096SOL    HW216758   3.112   6.587   3.151
 2097SOL     OW16759   1.896   5.634   1.655
 2097SOL    HW116760   1.992   5.607   1.665
 2097SOL    HW216761   1.886   5.694   1.575
 2098SOL     OW16762   0.130   9.514   1.307
 2098SOL    HW116763   0.214   9.547   1.263
 2098SOL    HW216764   0.081   9.453   1.244
 2099SOL     OW16765   1.309   4.659   2.839
 2099SOL    HW116766   1.334   4.739   2.785
 2099SOL    HW216767   1.225   4.677   2.890
 2100SOL     OW16768   9.181   5.233   0.139
 2100SOL    HW116769   9.220   5.151   0.180
 2100SOL    HW216770   9.218   5.314   0.184
 2101SOL     OW16771   9.977   1.269   2.750
 2101SOL    HW116772   9.909   1.342   2.760
 2101SOL    HW216773   9.958   1.217   2.666
 2102SOL     OW16774   1.871   6.004   1.590
 2102SOL    HW116775   1.872   5.926   1.527
 2102SOL    HW216776   1.950   5.999   1.651
 2103SOL     OW16777   2.973   5.027   1.129
 2103SOL    HW116778   2.959   4.990   1.037
 2103SOL    HW216779   3.042   4.973   1.177
 2104SOL     OW16780   0.577   9.566   0.632
 2104SOL    HW116781   0.642   9.490   0.630
 2104SOL    HW216782   0.571   9.603   0.724
 2105SOL     OW16783   2.788   5.394   1.387
 2105SOL    HW116784   2.721   5.442   1.444
 2105SOL    HW216785   2.768   5.410   1.291
 2106SOL     OW16786   9.385   8.008   1.082
 2106SOL    HW116787   9.314   8.017   1.152
 2106SOL    HW216788   9.471   7.982   1.124
 2107SOL     OW16789   1.384   1.854   3.479
 2107SOL    HW116790   1.436   1.847   3.394
 2107SOL    HW216791   1.423   1.926   3.536
 2108SOL     OW16792   2.850   5.136   1.471
 2108SOL    HW116793   2.775   5.112   1.533
 2108SOL    HW216794   2.834   5.227   1.433
 2109SOL     OW16795   0.884   5.327   3.656
 2109SOL    HW116796   0.815   5.282   3.600
 2109SOL    HW216797   0.848   5.341   3.748
 2110SOL     OW16798   2.320   1.213   2.804
 2110SOL    HW116799   2.243   1.149   2.806
 2110SOL    HW216800   2.364   1.209   2.715
 2111SOL     OW16801   9.686   1.047   2.444
 2111SOL    HW116802   9.638   0.993   2.513
 2111SOL    HW216803   9.704   0.989   2.364
 2112SOL     OW16804   2.949   6.780   2.604
 2112SOL    HW116805   2.990   6.700   2.560
 2112SOL    HW216806   3.022   6.840   2.638
 2113SOL     OW16807   8.829   8.944   1.179
 2113SOL    HW116808   8.888   9.022   1.200
 2113SOL    HW216809   8.764   8.930   1.254
 2114SOL     OW16810   6.569   9.019   1.635
 2114SOL    HW116811   6.589   9.116   1.647
 2114SOL    HW216812   6.509   8.988   1.708
 2115SOL     OW16813   4.130   8.131   0.970
 2115SOL    HW116814   4.221   8.111   1.007
 2115SOL    HW216815   4.117   8.230   0.968
 2116SOL     OW16816   9.588   0.256   1.872
 2116SOL    HW116817   9.623   0.253   1.778
 2116SOL    HW216818   9.503   0.309   1.874
 2117SOL     OW16819   0.710   5.134   1.638
 2117SOL    HW116820   0.706   5.094   1.547
 2117SOL    HW216821   0.617   5.144   1.674
 2118SOL     OW16822   8.779   1.593   2.637
 2118SOL    HW116823   8.716   1.660   2.676
 2118SOL    HW216824   8.727   1.525   2.584
 2119SOL     OW16825   5.810   9.474   2.184
 2119SOL    HW116826   5.856   9.428   2.109
 2119SOL    HW216827   5.839   9.570   2.188
 2120SOL     OW16828   2.325   9.578   0.462
 2120SOL    HW116829   2.284   9.635   0.533
 2120SOL    HW216830   2.370   9.499   0.504
 2121SOL     OW16831   5.035   1.841   0.823
 2121SOL    HW116832   4.988   1.756   0.843
 2121SOL    HW216833   4.974   1.919   0.842
 2122SOL     OW16834   9.569   1.317   1.805
 2122SOL    HW116835   9.505   1.283   1.873
 2122SOL    HW216836   9.574   1.417   1.811
 2123SOL     OW16837   9.768   7.471   0.262
 2123SOL    HW116838   9.764   7.449   0.359
 2123SOL    HW216839   9.702   7.543   0.241
 2124SOL     OW16840   0.296   5.915   0.316
 2124SOL    HW116841   0.270   5.869   0.402
 2124SOL    HW216842   0.270   6.011   0.321
 2125SOL     OW16843   3.677   7.113   1.920
 2125SOL    HW116844   3.760   7.073   1.881
 2125SOL    HW216845   3.675   7.211   1.902
 2126SOL     OW16846   4.168   0.203   3.580
 2126SOL    HW116847   4.082   0.174   3.540
 2126SOL    HW216848   4.236   0.131   3.570
 2127SOL     OW16849   7.906   2.825   1.908
 2127SOL    HW116850   7.807   2.822   1.918
 2127SOL    HW216851   7.947   2.857   1.994
 2128SOL     OW16852   8.213   7.483   1.739
 2128SOL    HW116853   8.274   7.449   1.811
 2128SOL    HW216854   8.267   7.536   1.673
 2129SOL     OW16855   0.530   3.405   1.195
 2129SOL    HW116856   0.448   3.358   1.162
 2129SOL    HW216857   0.554   3.477   1.131
 2130SOL     OW16858   1.483   0.176   1.453
 2130SOL    HW116859   1.385   0.165   1.439
 2130SOL    HW216860   1.499   0.223   1.539
 2131SOL     OW16861   4.040   7.189   1.679
 2131SOL    HW116862   4.072   7.173   1.585
 2131SOL    HW216863   3.955   7.241   1.677
 2132SOL     OW16864   2.981   0.045   3.604
 2132SOL    HW116865   2.969   0.143   3.622
 2132SOL    HW216866   3.075   0.019   3.627
 2133SOL     OW16867   8.055   8.097   3.622
 2133SOL    HW116868   8.097   8.021   3.571
 2133SOL    HW216869   8.125   8.166   3.642
 2134SOL     OW16870   9.337   5.612   2.178
 2134SOL    HW116871   9.271   5.605   2.253
 2134SOL    HW216872   9.301   5.565   2.097
 2135SOL     OW16873   5.123   1.989   1.452
 2135SOL    HW116874   5.027   2.012   1.463
 2135SOL    HW216875   5.137   1.941   1.366
 2136SOL     OW16876   0.871   8.747   1.996
 2136SOL    HW116877   0.802   8.703   2.054
 2136SOL    HW216878   0.961   8.738   2.039
 2137SOL     OW16879   8.956   3.390   0.271
 2137SOL    HW116880   8.868   3.423   0.238
 2137SOL    HW216881   8.941   3.310   0.329
 2138SOL     OW16882   8.347   1.892   1.268
 2138SOL    HW116883   8.303   1.963   1.213
 2138SOL    HW216884   8.316   1.900   1.363
 2139SOL     OW16885   7.687   5.333   3.219
 2139SOL    HW116886   7.766   5.295   3.170
 2139SOL    HW216887   7.621   5.367   3.152
 2140SOL     OW16888   3.631   7.150   2.573
 2140SOL    HW116889   3.536   7.173   2.597
 2140SOL    HW216890   3.662   7.210   2.500
 2141SOL     OW16891   9.674   6.298   2.951
 2141SOL    HW116892   9.669   6.337   2.859
 2141SOL    HW216893   9.648   6.201   2.947
 2142SOL     OW16894   0.843   3.088   0.487
 2142SOL    HW116895   0.748   3.057   0.482
 2142SOL    HW216896   0.888   3.072   0.399
 2143SOL     OW16897   8.479   4.421   0.554
 2143SOL    HW116898   8.406   4.454   0.494
 2143SOL    HW216899   8.485   4.321   0.547
 2144SOL     OW16900   8.530   4.372   1.941
 2144SOL    HW116901   8.462   4.444   1.933
 2144SOL    HW216902   8.526   4.332   2.033
 2145SOL     OW16903   0.559   7.676   3.497
 2145SOL    HW116904   0.494   7.688   3.422
 2145SOL    HW216905   0.635   7.740   3.485
 2146SOL     OW16906   9.848   5.163   3.321
 2146SOL    HW116907   9.807   5.220   3.392
 2146SOL    HW216908   9.946   5.153   3.339
 2147SOL     OW16909   7.500   6.635   3.007
 2147SOL    HW116910   7.475   6.606   2.915
 2147SOL    HW216911   7.519   6.733   3.007
 2148SOL     OW16912   2.556   1.984   3.369
 2148SOL    HW116913   2.559   2.027   3.278
 2148SOL    HW216914   2.612   2.037   3.432
 2149SOL     OW16915   9.630   3.039   0.307
 2149SOL    HW116916   9.701   3.091   0.259
 2149SOL    HW216917   9.569   2.997   0.239
 2150SOL     OW16918   1.878   6.509   3.105
 2150SOL    HW116919   1.970   6.488   3.071
 2150SOL    HW216920   1.824   6.550   3.032
 2151SOL     OW16921   0.832   3.653   1.690
 2151SOL    HW116922   0.856   3.586   1.760
 2151SOL    HW216923   0.754   3.708   1.721
 2152SOL     OW16924   1.489   9.174   1.846
 2152SOL    HW116925   1.562   9.108   1.866
 2152SOL    HW216926   1.525   9.244   1.784
 2153SOL     OW16927   1.114   4.018   0.711
 2153SOL    HW116928   1.116   3.995   0.808
 2153SOL    HW216929   1.112   4.118   0.700
 2154SOL     OW16930   2.716   2.579   1.808
 2154SOL    HW116931   2.745   2.483   1.814
 2154SOL    HW216932   2.660   2.602   1.887
 2155SOL     OW16933   3.793   0.926   2.828
 2155SOL    HW116934   3.890   0.936   2.809
 2155SOL    HW216935   3.780   0.875   2.913
 2156SOL     OW16936   0.708   3.405   0.338
 2156SOL    HW116937   0.631   3.343   0.352
 2156SOL    HW216938   0.721   3.462   0.419
 2157SOL     OW16939   7.465   8.429   2.801
 2157SOL    HW116940   7.412   8.349   2.774
 2157SOL    HW216941   7.537   8.447   2.734
 2158SOL     OW16942   4.492   7.994   1.559
 2158SOL    HW116943   4.440   7.937   1.623
 2158SOL    HW216944   4.557   8.051   1.609
 2159SOL     OW16945   4.500   0.347   2.406
 2159SOL    HW116946   4.448   0.272   2.446
 2159SOL    HW216947   4.577   0.369   2.466
 2160SOL     OW16948   8.501   6.672   3.638
 2160SOL    HW116949   8.599   6.656   3.643
 2160SOL    HW216950   8.484   6.771   3.634
 2161SOL     OW16951   2.233   4.621   0.653
 2161SOL    HW116952   2.216   4.695   0.719
 2161SOL    HW216953   2.168   4.547   0.668
 2162SOL     OW16954   8.383   5.056   1.312
 2162SOL    HW116955   8.301   5.042   1.367
 2162SOL    HW216956   8.444   4.977   1.321
 2163SOL     OW16957   9.952   9.721   1.313
 2163SOL    HW116958   0.023   9.649   1.318
 2163SOL    HW216959   9.957   9.777   1.395
 2164SOL     OW16960   9.343   1.338   2.546
 2164SOL    HW116961   9.254   1.294   2.556
 2164SOL    HW216962   9.336   1.435   2.572
 2165SOL     OW16963   3.910   4.459   3.330
 2165SOL    HW116964   3.926   4.541   3.385
 2165SOL    HW216965   3.927   4.378   3.387
 2166SOL     OW16966   3.006   1.201   2.755
 2166SOL    HW116967   3.052   1.225   2.841
 2166SOL    HW216968   3.070   1.211   2.679
 2167SOL     OW16969   2.146   7.342   2.674
 2167SOL    HW116970   2.053   7.308   2.686
 2167SOL    HW216971   2.164   7.357   2.577
 2168SOL     OW16972   9.531   9.402   3.542
 2168SOL    HW116973   9.433   9.410   3.525
 2168SOL    HW216974   9.561   9.309   3.523
 2169SOL     OW16975   4.422   0.349   3.351
 2169SOL    HW116976   4.486   0.415   3.312
 2169SOL    HW216977   4.329   0.370   3.321
 2170SOL     OW16978   0.577   0.148   1.597
 2170SOL    HW116979   0.631   0.149   1.513
 2170SOL    HW216980   0.480   0.148   1.575
 2171SOL     OW16981   3.732   1.504   3.633
 2171SOL    HW116982   3.714   1.470   3.725
 2171SOL    HW216983   3.818   1.466   3.600
 2172SOL     OW16984   9.890   7.146   1.362
 2172SOL    HW116985   9.821   7.087   1.405
 2172SOL    HW216986   9.843   7.218   1.310
 2173SOL     OW16987   1.453   8.983   2.129
 2173SOL    HW116988   1.530   9.040   2.158
 2173SOL    HW216989   1.381   9.041   2.090
 2174SOL     OW16990   4.604   0.013   2.416
 2174SOL    HW116991   4.657   9.952   2.476
 2174SOL    HW216992   4.529   0.053   2.468
 2175SOL     OW16993   7.759   0.109   0.058
 2175SOL    HW116994   7.789   0.178   4.773
 2175SOL    HW216995   7.775   0.143   0.150
 2176SOL     OW16996   1.072   9.124   2.830
 2176SOL    HW116997   1.031   9.205   2.787
 2176SOL    HW216998   1.051   9.123   2.927
 2177SOL     OW16999   1.704   5.361   1.932
 2177SOL    HW117000   1.688   5.267   1.903
 2177SOL    HW217001   1.689   5.423   1.854
 2178SOL     OW17002   4.309   9.078   2.564
 2178SOL    HW117003   4.328   9.105   2.658
 2178SOL    HW217004   4.256   9.150   2.519
 2179SOL     OW17005   1.490   0.428   1.127
 2179SOL    HW117006   1.532   0.509   1.086
 2179SOL    HW217007   1.549   0.348   1.112
 2180SOL     OW17008   4.103   8.180   3.591
 2180SOL    HW117009   4.017   8.207   3.634
 2180SOL    HW217010   4.178   8.199   3.653
 2181SOL     OW17011   8.248   5.321   3.241
 2181SOL    HW117012   8.292   5.261   3.308
 2181SOL    HW217013   8.226   5.269   3.158
 2182SOL     OW17014   9.268   6.298   2.946
 2182SOL    HW117015   9.254   6.235   2.870
 2182SOL    HW217016   9.190   6.360   2.953
 2183SOL     OW17017   2.837   3.713   0.763
 2183SOL    HW117018   2.751   3.683   0.805
 2183SOL    HW217019   2.900   3.636   0.757
 2184SOL     OW17020   9.357   0.520   2.901
 2184SOL    HW117021   9.275   0.464   2.888
 2184SOL    HW217022   9.416   0.479   2.971
 2185SOL     OW17023   2.408   7.374   1.734
 2185SOL    HW117024   2.362   7.305   1.679
 2185SOL    HW217025   2.356   7.388   1.819
 2186SOL     OW17026   1.699   8.862   2.505
 2186SOL    HW117027   1.732   8.953   2.478
 2186SOL    HW217028   1.601   8.855   2.486
 2187SOL     OW17029   4.923   7.440   0.506
 2187SOL    HW117030   4.949   7.472   0.598
 2187SOL    HW217031   4.869   7.357   0.514
 2188SOL     OW17032   5.020   8.118   0.344
 2188SOL    HW117033   4.939   8.071   0.309
 2188SOL    HW217034   5.061   8.172   0.271
 2189SOL     OW17035   0.400   8.734   0.451
 2189SOL    HW117036   0.351   8.710   0.535
 2189SOL    HW217037   0.380   8.667   0.380
 2190SOL     OW17038   9.804   1.471   3.126
 2190SOL    HW117039   9.900   1.446   3.132
 2190SOL    HW217040   9.757   1.405   3.067
 2191SOL     OW17041   8.187   8.637   1.937
 2191SOL    HW117042   8.155   8.556   1.987
 2191SOL    HW217043   8.124   8.657   1.862
 2192SOL     OW17044   3.125   4.837   3.680
 2192SOL    HW117045   3.204   4.876   3.727
 2192SOL    HW217046   3.156   4.779   3.605
 2193SOL     OW17047   9.537   1.705   0.785
 2193SOL    HW117048   9.529   1.695   0.884
 2193SOL    HW217049   9.589   1.627   0.748
 2194SOL     OW17050   0.804   0.048   3.055
 2194SOL    HW117051   0.886   0.079   3.007
 2194SOL    HW217052   0.726   0.050   2.992
 2195SOL     OW17053   8.780   6.335   1.114
 2195SOL    HW117054   8.751   6.426   1.143
 2195SOL    HW217055   8.752   6.268   1.184
 2196SOL     OW17056   7.877   2.646   2.753
 2196SOL    HW117057   7.832   2.624   2.840
 2196SOL    HW217058   7.937   2.725   2.766
 2197SOL     OW17059   0.211   5.478   0.468
 2197SOL    HW117060   0.292   5.420   0.474
 2197SOL    HW217061   0.169   5.466   0.378
 2198SOL     OW17062   8.799   9.686   0.645
 2198SOL    HW117063   8.726   9.698   0.578
 2198SOL    HW217064   8.822   9.589   0.653
 2199SOL     OW17065   2.135   2.234   0.393
 2199SOL    HW117066   2.111   2.218   0.297
 2199SOL    HW217067   2.220   2.188   0.414
 2200SOL     OW17068   9.968   2.455   2.409
 2200SOL    HW117069   9.888   2.453   2.469
 2200SOL    HW217070   9.946   2.409   2.323
 2201SOL     OW17071   8.800   0.301   3.566
 2201SOL    HW117072   8.783   0.205   3.587
 2201SOL    HW217073   8.743   0.358   3.624
 2202SOL     OW17074   8.498   8.910   0.252
 2202SOL    HW117075   8.500   8.811   0.263
 2202SOL    HW217076   8.484   8.934   0.156
 2203SOL     OW17077   0.282   8.082   0.356
 2203SOL    HW117078   0.346   8.157   0.344
 2203SOL    HW217079   0.331   7.995   0.351
 2204SOL     OW17080   0.940   8.510   3.138
 2204SOL    HW117081   1.003   8.504   3.060
 2204SOL    HW217082   0.874   8.584   3.121
 2205SOL     OW17083   8.371   1.634   0.571
 2205SOL    HW117084   8.462   1.622   0.612
 2205SOL    HW217085   8.320   1.548   0.576
 2206SOL     OW17086   5.611   7.472   3.505
 2206SOL    HW117087   5.560   7.445   3.423
 2206SOL    HW217088   5.602   7.402   3.575
 2207SOL     OW17089   2.160   9.098   0.984
 2207SOL    HW117090   2.175   9.191   1.017
 2207SOL    HW217091   2.209   9.086   0.897
 2208SOL     OW17092   2.528   9.284   0.324
 2208SOL    HW117093   2.458   9.215   0.304
 2208SOL    HW217094   2.618   9.242   0.320
 2209SOL     OW17095   3.490   9.962   0.336
 2209SOL    HW117096   3.580   9.923   0.318
 2209SOL    HW217097   3.427   9.889   0.363
 2210SOL     OW17098   1.274   0.551   0.267
 2210SOL    HW117099   1.307   0.489   0.194
 2210SOL    HW217100   1.345   0.560   0.337
 2211SOL     OW17101   0.247   2.278   2.950
 2211SOL    HW117102   0.323   2.264   2.886
 2211SOL    HW217103   0.165   2.305   2.900
 2212SOL     OW17104   7.322   0.904   2.201
 2212SOL    HW117105   7.259   0.965   2.249
 2212SOL    HW217106   7.391   0.958   2.153
 2213SOL     OW17107   8.365   0.650   2.188
 2213SOL    HW117108   8.347   0.721   2.256
 2213SOL    HW217109   8.385   0.564   2.234
 2214SOL     OW17110   2.584   5.652   3.558
 2214SOL    HW117111   2.674   5.636   3.598
 2214SOL    HW217112   2.574   5.749   3.537
 2215SOL     OW17113   9.974   7.938   0.506
 2215SOL    HW117114   9.981   8.033   0.475
 2215SOL    HW217115   0.007   7.931   0.600
 2216SOL     OW17116   1.380   0.067   3.212
 2216SOL    HW117117   1.413   0.154   3.177
 2216SOL    HW217118   1.280   0.066   3.209
 2217SOL     OW17119   1.369   9.791   2.410
 2217SOL    HW117120   1.271   9.790   2.389
 2217SOL    HW217121   1.418   9.730   2.348
 2218SOL     OW17122   0.083   6.831   3.109
 2218SOL    HW117123   0.051   6.736   3.112
 2218SOL    HW217124   0.168   6.836   3.057
 2219SOL     OW17125   8.101   8.912   2.406
 2219SOL    HW117126   8.180   8.941   2.351
 2219SOL    HW217127   8.019   8.958   2.373
 2220SOL     OW17128   1.796   2.032   2.839
 2220SOL    HW117129   1.829   1.944   2.873
 2220SOL    HW217130   1.776   2.092   2.916
 2221SOL     OW17131   3.723   7.650   2.398
 2221SOL    HW117132   3.739   7.639   2.496
 2221SOL    HW217133   3.627   7.635   2.378
 2222SOL     OW17134   3.314   5.274   3.698
 2222SOL    HW117135   3.413   5.258   3.700
 2222SOL    HW217136   3.297   5.372   3.684
 2223SOL     OW17137   9.533   8.649   0.940
 2223SOL    HW117138   9.567   8.727   0.992
 2223SOL    HW217139   9.435   8.661   0.921
 2224SOL     OW17140   0.891   6.229   1.193
 2224SOL    HW117141   0.796   6.259   1.187
 2224SOL    HW217142   0.895   6.130   1.185
 2225SOL     OW17143   2.466   8.067   3.260
 2225SOL    HW117144   2.377   8.077   3.304
 2225SOL    HW217145   2.459   8.090   3.163
 2226SOL     OW17146   1.466   0.497   1.457
 2226SOL    HW117147   1.459   0.434   1.380
 2226SOL    HW217148   1.511   0.581   1.428
 2227SOL     OW17149   2.005   8.730   2.833
 2227SOL    HW117150   2.017   8.827   2.815
 2227SOL    HW217151   2.041   8.677   2.756
 2228SOL     OW17152   9.383   5.829   0.781
 2228SOL    HW117153   9.332   5.759   0.831
 2228SOL    HW217154   9.415   5.899   0.846
 2229SOL     OW17155   1.928   5.854   0.977
 2229SOL    HW117156   2.018   5.868   1.020
 2229SOL    HW217157   1.880   5.941   0.972
 2230SOL     OW17158   4.626   1.360   1.376
 2230SOL    HW117159   4.620   1.460   1.373
 2230SOL    HW217160   4.580   1.326   1.457
 2231SOL     OW17161   2.350   7.933   0.606
 2231SOL    HW117162   2.423   7.922   0.539
 2231SOL    HW217163   2.377   8.001   0.674
 2232SOL     OW17164   0.904   0.322   3.510
 2232SOL    HW117165   0.922   0.226   3.533
 2232SOL    HW217166   0.924   0.337   3.414
 2233SOL     OW17167   8.964   4.330   2.860
 2233SOL    HW117168   8.942   4.314   2.764
 2233SOL    HW217169   8.896   4.390   2.901
 2234SOL     OW17170   5.540   9.605   2.458
 2234SOL    HW117171   5.501   9.578   2.546
 2234SOL    HW217172   5.544   9.526   2.398
 2235SOL     OW17173   1.044   7.068   2.466
 2235SOL    HW117174   1.077   7.096   2.557
 2235SOL    HW217175   0.970   7.129   2.438
 2236SOL     OW17176   6.385   8.820   2.271
 2236SOL    HW117177   6.398   8.863   2.360
 2236SOL    HW217178   6.343   8.730   2.284
 2237SOL     OW17179   1.061   4.700   0.494
 2237SOL    HW117180   1.052   4.681   0.397
 2237SOL    HW217181   1.059   4.799   0.509
 2238SOL     OW17182   3.049   5.576   0.445
 2238SOL    HW117183   3.056   5.494   0.389
 2238SOL    HW217184   3.096   5.652   0.399
 2239SOL     OW17185   9.081   2.167   1.518
 2239SOL    HW117186   9.027   2.204   1.443
 2239SOL    HW217187   9.053   2.072   1.535
 2240SOL     OW17188   9.758   5.824   0.197
 2240SOL    HW117189   9.781   5.814   0.294
 2240SOL    HW217190   9.684   5.761   0.174
 2241SOL     OW17191   4.234   2.104   0.084
 2241SOL    HW117192   4.289   2.023   0.063
 2241SOL    HW217193   4.159   2.078   0.144
 2242SOL     OW17194   8.482   0.834   0.932
 2242SOL    HW117195   8.529   0.876   0.854
 2242SOL    HW217196   8.531   0.751   0.960
 2243SOL     OW17197   2.175   2.556   2.413
 2243SOL    HW117198   2.232   2.475   2.425
 2243SOL    HW217199   2.126   2.576   2.498
 2244SOL     OW17200   8.999   5.002   0.727
 2244SOL    HW117201   9.095   4.975   0.730
 2244SOL    HW217202   8.986   5.071   0.656
 2245SOL     OW17203   2.659   4.690   0.354
 2245SOL    HW117204   2.616   4.674   0.443
 2245SOL    HW217205   2.594   4.669   0.281
 2246SOL     OW17206   5.203   6.659   2.459
 2246SOL    HW117207   5.140   6.735   2.444
 2246SOL    HW217208   5.167   6.577   2.416
 2247SOL     OW17209   2.405   0.602   2.378
 2247SOL    HW117210   2.312   0.628   2.405
 2247SOL    HW217211   2.470   0.667   2.418
 2248SOL     OW17212   0.955   4.427   0.485
 2248SOL    HW117213   0.969   4.520   0.518
 2248SOL    HW217214   0.858   4.409   0.473
 2249SOL     OW17215   6.759   9.651   3.591
 2249SOL    HW117216   6.851   9.677   3.620
 2249SOL    HW217217   6.761   9.559   3.552
 2250SOL     OW17218   1.984   9.965   0.296
 2250SOL    HW117219   1.924   9.905   0.349
 2250SOL    HW217220   2.050   9.910   0.244
 2251SOL     OW17221   8.893   3.666   2.873
 2251SOL    HW117222   8.861   3.580   2.913
 2251SOL    HW217223   8.842   3.742   2.913
 2252SOL     OW17224   1.072   0.373   1.198
 2252SOL    HW117225   0.982   0.340   1.170
 2252SOL    HW217226   1.076   0.380   1.298
 2253SOL     OW17227   2.716   3.675   0.396
 2253SOL    HW117228   2.721   3.660   0.297
 2253SOL    HW217229   2.791   3.736   0.424
 2254SOL     OW17230   3.529   4.988   1.431
 2254SOL    HW117231   3.497   5.015   1.340
 2254SOL    HW217232   3.613   5.038   1.453
 2255SOL     OW17233   1.370   8.546   0.396
 2255SOL    HW117234   1.409   8.557   0.487
 2255SOL    HW217235   1.433   8.494   0.338
 2256SOL     OW17236   3.398   3.632   0.889
 2256SOL    HW117237   3.336   3.559   0.860
 2256SOL    HW217238   3.490   3.612   0.855
 2257SOL     OW17239   4.862   2.063   1.477
 2257SOL    HW117240   4.832   2.136   1.416
 2257SOL    HW217241   4.820   2.075   1.567
 2258SOL     OW17242   7.720   7.857   1.479
 2258SOL    HW117243   7.637   7.909   1.498
 2258SOL    HW217244   7.765   7.833   1.565
 2259SOL     OW17245   3.195   4.279   0.613
 2259SOL    HW117246   3.131   4.284   0.689
 2259SOL    HW217247   3.278   4.330   0.636
 2260SOL     OW17248   2.337   2.080   0.733
 2260SOL    HW117249   2.270   2.019   0.776
 2260SOL    HW217250   2.414   2.026   0.699
 2261SOL     OW17251   5.038   0.378   2.135
 2261SOL    HW117252   5.108   0.405   2.201
 2261SOL    HW217253   5.072   0.302   2.079
 2262SOL     OW17254   8.430   9.841   2.940
 2262SOL    HW117255   8.511   9.896   2.958
 2262SOL    HW217256   8.392   9.808   3.027
 2263SOL     OW17257   4.421   1.004   0.733
 2263SOL    HW117258   4.476   0.922   0.743
 2263SOL    HW217259   4.376   1.005   0.644
 2264SOL     OW17260   9.335   1.977   1.733
 2264SOL    HW117261   9.349   2.010   1.826
 2264SOL    HW217262   9.346   2.053   1.669
 2265SOL     OW17263   9.852   4.971   2.589
 2265SOL    HW117264   9.772   5.014   2.547
 2265SOL    HW217265   9.925   5.039   2.599
 2266SOL     OW17266   0.944   3.379   2.806
 2266SOL    HW117267   0.971   3.385   2.902
 2266SOL    HW217268   0.954   3.285   2.774
 2267SOL     OW17269   1.936   4.459   2.244
 2267SOL    HW117270   1.995   4.431   2.319
 2267SOL    HW217271   1.913   4.379   2.188
 2268SOL     OW17272   3.139   5.474   0.681
 2268SOL    HW117273   3.121   5.538   0.755
 2268SOL    HW217274   3.115   5.515   0.594
 2269SOL     OW17275   3.891   8.658   2.775
 2269SOL    HW117276   3.935   8.745   2.752
 2269SOL    HW217277   3.800   8.676   2.812
 2270SOL     OW17278   9.174   2.337   2.230
 2270SOL    HW117279   9.190   2.304   2.137
 2270SOL    HW217280   9.099   2.403   2.230
 2271SOL     OW17281   5.204   3.354   0.515
 2271SOL    HW117282   5.200   3.255   0.519
 2271SOL    HW217283   5.235   3.390   0.603
 2272SOL     OW17284   3.746   5.319   3.517
 2272SOL    HW117285   3.685   5.278   3.585
 2272SOL    HW217286   3.692   5.370   3.451
 2273SOL     OW17287   6.912   7.575   2.567
 2273SOL    HW117288   6.881   7.561   2.660
 2273SOL    HW217289   7.006   7.540   2.557
 2274SOL     OW17290   2.687   4.664   2.020
 2274SOL    HW117291   2.637   4.612   1.949
 2274SOL    HW217292   2.637   4.748   2.040
 2275SOL     OW17293   0.020   5.289   1.164
 2275SOL    HW117294   0.033   5.216   1.232
 2275SOL    HW217295   9.927   5.285   1.129
 2276SOL     OW17296   9.740   3.588   2.321
 2276SOL    HW117297   9.815   3.529   2.289
 2276SOL    HW217298   9.714   3.560   2.414
 2277SOL     OW17299   8.612   5.467   2.730
 2277SOL    HW117300   8.658   5.457   2.818
 2277SOL    HW217301   8.529   5.522   2.742
 2278SOL     OW17302   1.640   8.218   2.081
 2278SOL    HW117303   1.668   8.285   2.013
 2278SOL    HW217304   1.563   8.164   2.046
 2279SOL     OW17305   3.119   1.017   1.578
 2279SOL    HW117306   3.052   1.049   1.510
 2279SOL    HW217307   3.189   0.962   1.532
 2280SOL     OW17308   0.982   1.556   1.340
 2280SOL    HW117309   0.980   1.603   1.251
 2280SOL    HW217310   1.055   1.488   1.340
 2281SOL     OW17311   0.525   5.596   1.828
 2281SOL    HW117312   0.458   5.623   1.897
 2281SOL    HW217313   0.478   5.578   1.741
 2282SOL     OW17314   0.491   2.787   2.644
 2282SOL    HW117315   0.573   2.736   2.618
 2282SOL    HW217316   0.426   2.726   2.689
 2283SOL     OW17317   3.591   5.472   3.352
 2283SOL    HW117318   3.583   5.553   3.410
 2283SOL    HW217319   3.635   5.496   3.266
 2284SOL     OW17320   9.180   2.811   1.346
 2284SOL    HW117321   9.198   2.717   1.317
 2284SOL    HW217322   9.266   2.855   1.372
 2285SOL     OW17323   2.803   9.620   0.087
 2285SOL    HW117324   2.837   9.697   0.142
 2285SOL    HW217325   2.709   9.598   0.115
 2286SOL     OW17326   9.646   3.209   1.130
 2286SOL    HW117327   9.576   3.229   1.062
 2286SOL    HW217328   9.729   3.260   1.109
 2287SOL     OW17329   4.244   7.559   3.109
 2287SOL    HW117330   4.199   7.629   3.164
 2287SOL    HW217331   4.287   7.492   3.170
 2288SOL     OW17332   1.979   6.339   1.035
 2288SOL    HW117333   1.930   6.252   1.048
 2288SOL    HW217334   1.980   6.389   1.121
 2289SOL     OW17335   3.677   2.198   0.903
 2289SOL    HW117336   3.612   2.131   0.939
 2289SOL    HW217337   3.662   2.210   0.805
 2290SOL     OW17338   8.645   7.071   3.418
 2290SOL    HW117339   8.603   7.004   3.358
 2290SOL    HW217340   8.745   7.060   3.416
 2291SOL     OW17341   8.487   7.871   1.690
 2291SOL    HW117342   8.580   7.881   1.654
 2291SOL    HW217343   8.450   7.961   1.714
 2292SOL     OW17344   1.922   3.201   1.273
 2292SOL    HW117345   1.983   3.242   1.205
 2292SOL    HW217346   1.874   3.274   1.322
 2293SOL     OW17347   4.593   9.484   3.419
 2293SOL    HW117348   4.655   9.559   3.394
 2293SOL    HW217349   4.629   9.437   3.500
 2294SOL     OW17350   4.780   4.460   1.625
 2294SOL    HW117351   4.780   4.411   1.538
 2294SOL    HW217352   4.688   4.495   1.644
 2295SOL     OW17353   8.788   6.521   1.736
 2295SOL    HW117354   8.768   6.610   1.694
 2295SOL    HW217355   8.873   6.527   1.787
 2296SOL     OW17356   1.682   0.788   1.607
 2296SOL    HW117357   1.655   0.760   1.515
 2296SOL    HW217358   1.698   0.887   1.609
 2297SOL     OW17359   3.120   0.107   2.069
 2297SOL    HW117360   3.209   0.130   2.107
 2297SOL    HW217361   3.094   0.015   2.099
 2298SOL     OW17362   2.584   1.622   1.289
 2298SOL    HW117363   2.640   1.547   1.253
 2298SOL    HW217364   2.634   1.708   1.282
 2299SOL     OW17365   8.394   6.370   1.618
 2299SOL    HW117366   8.340   6.315   1.553
 2299SOL    HW217367   8.369   6.345   1.711
 2300SOL     OW17368   0.328   6.447   2.361
 2300SOL    HW117369   0.262   6.377   2.389
 2300SOL    HW217370   0.306   6.533   2.406
 2301SOL     OW17371   0.322   6.787   3.592
 2301SOL    HW117372   0.340   6.689   3.600
 2301SOL    HW217373   0.283   6.806   3.501
 2302SOL     OW17374   7.716   7.512   1.709
 2302SOL    HW117375   7.731   7.601   1.666
 2302SOL    HW217376   7.802   7.462   1.712
 2303SOL     OW17377   7.646   6.019   2.605
 2303SOL    HW117378   7.661   5.927   2.567
 2303SOL    HW217379   7.565   6.017   2.664
 2304SOL     OW17380   8.848   1.957   0.566
 2304SOL    HW117381   8.920   1.896   0.596
 2304SOL    HW217382   8.889   2.035   0.518
 2305SOL     OW17383   3.496   1.410   3.505
 2305SOL    HW117384   3.577   1.457   3.540
 2305SOL    HW217385   3.510   1.311   3.511
 2306SOL     OW17386   8.293   6.475   0.113
 2306SOL    HW117387   8.345   6.453   0.195
 2306SOL    HW217388   8.257   6.391   0.073
 2307SOL     OW17389   0.076   7.922   2.070
 2307SOL    HW117390   9.977   7.934   2.067
 2307SOL    HW217391   0.107   7.923   2.165
 2308SOL     OW17392   3.647   2.085   2.746
 2308SOL    HW117393   3.692   2.135   2.820
 2308SOL    HW217394   3.673   1.989   2.751
 2309SOL     OW17395   0.617   2.303   3.570
 2309SOL    HW117396   0.649   2.393   3.541
 2309SOL    HW217397   0.520   2.293   3.548
 2310SOL     OW17398   9.637   3.215   3.520
 2310SOL    HW117399   9.692   3.272   3.459
 2310SOL    HW217400   9.569   3.272   3.566
 2311SOL     OW17401   0.462   3.839   1.025
 2311SOL    HW117402   0.369   3.827   0.991
 2311SOL    HW217403   0.508   3.911   0.973
 2312SOL     OW17404   4.896   1.488   2.037
 2312SOL    HW117405   4.894   1.397   2.079
 2312SOL    HW217406   4.894   1.480   1.938
 2313SOL     OW17407   8.402   8.106   0.828
 2313SOL    HW117408   8.416   8.010   0.850
 2313SOL    HW217409   8.370   8.113   0.733
 2314SOL     OW17410   8.003   1.792   0.862
 2314SOL    HW117411   8.091   1.747   0.878
 2314SOL    HW217412   8.017   1.872   0.803
 2315SOL     OW17413   8.878   0.786   0.486
 2315SOL    HW117414   8.945   0.758   0.555
 2315SOL    HW217415   8.897   0.739   0.400
 2316SOL     OW17416   4.757   3.341   3.572
 2316SOL    HW117417   4.742   3.248   3.606
 2316SOL    HW217418   4.743   3.343   3.472
 2317SOL     OW17419   1.641   0.634   1.034
 2317SOL    HW117420   1.695   0.655   0.952
 2317SOL    HW217421   1.595   0.716   1.066
 2318SOL     OW17422   2.681   1.048   2.990
 2318SOL    HW117423   2.717   1.026   2.899
 2318SOL    HW217424   2.612   1.119   2.981
 2319SOL     OW17425   3.207   0.887   2.027
 2319SOL    HW117426   3.200   0.978   2.066
 2319SOL    HW217427   3.117   0.844   2.024
 2320SOL     OW17428   9.340   1.211   0.657
 2320SOL    HW117429   9.416   1.169   0.607
 2320SOL    HW217430   9.256   1.159   0.640
 2321SOL     OW17431   3.043   5.333   0.320
 2321SOL    HW117432   3.062   5.348   0.223
 2321SOL    HW217433   2.962   5.275   0.329
 2322SOL     OW17434   2.016   4.128   0.910
 2322SOL    HW117435   2.001   4.202   0.976
 2322SOL    HW217436   2.089   4.155   0.846
 2323SOL     OW17437   3.969   2.724   2.047
 2323SOL    HW117438   3.885   2.763   2.013
 2323SOL    HW217439   4.046   2.754   1.991
 2324SOL     OW17440   3.170   4.759   1.639
 2324SOL    HW117441   3.100   4.816   1.596
 2324SOL    HW217442   3.251   4.756   1.580
 2325SOL     OW17443   3.057   5.445   1.368
 2325SOL    HW117444   3.108   5.419   1.450
 2325SOL    HW217445   2.960   5.431   1.383
 2326SOL     OW17446   3.026   4.617   1.325
 2326SOL    HW117447   3.091   4.557   1.280
 2326SOL    HW217448   3.019   4.593   1.422
 2327SOL     OW17449   3.027   9.176   3.016
 2327SOL    HW117450   3.003   9.203   2.923
 2327SOL    HW217451   3.124   9.194   3.032
 2328SOL     OW17452   9.598   9.070   1.628
 2328SOL    HW117453   9.527   9.001   1.640
 2328SOL    HW217454   9.570   9.135   1.557
 2329SOL     OW17455   1.694   3.061   1.185
 2329SOL    HW117456   1.615   3.122   1.186
 2329SOL    HW217457   1.774   3.110   1.219
 2330SOL     OW17458   8.720   3.955   1.609
 2330SOL    HW117459   8.641   4.006   1.575
 2330SOL    HW217460   8.729   3.869   1.558
 2331SOL     OW17461   9.993   9.457   0.689
 2331SOL    HW117462   9.993   9.365   0.651
 2331SOL    HW217463   9.976   9.524   0.617
 2332SOL     OW17464   0.712   5.183   3.497
 2332SOL    HW117465   0.760   5.181   3.409
 2332SOL    HW217466   0.709   5.091   3.536
 2333SOL     OW17467   3.502   7.915   2.907
 2333SOL    HW117468   3.510   7.899   2.809
 2333SOL    HW217469   3.546   7.840   2.957
 2334SOL     OW17470   8.601   6.852   2.126
 2334SOL    HW117471   8.625   6.755   2.128
 2334SOL    HW217472   8.543   6.873   2.205
 2335SOL     OW17473   8.380   1.319   3.720
 2335SOL    HW117474   8.289   1.324   3.679
 2335SOL    HW217475   8.421   1.230   3.698
 2336SOL     OW17476   7.813   2.409   1.098
 2336SOL    HW117477   7.910   2.386   1.092
 2336SOL    HW217478   7.761   2.350   1.037
 2337SOL     OW17479   5.358   8.061   2.404
 2337SOL    HW117480   5.283   8.030   2.346
 2337SOL    HW217481   5.442   8.013   2.377
 2338SOL     OW17482   1.227   4.552   0.649
 2338SOL    HW117483   1.197   4.457   0.644
 2338SOL    HW217484   1.175   4.607   0.584
 2339SOL     OW17485   0.861   3.615   0.948
 2339SOL    HW117486   0.914   3.584   1.027
 2339SOL    HW217487   0.871   3.714   0.938
 2340SOL     OW17488   1.738   2.335   1.147
 2340SOL    HW117489   1.779   2.321   1.237
 2340SOL    HW217490   1.651   2.287   1.142
 2341SOL     OW17491   3.379   0.149   3.323
 2341SOL    HW117492   3.410   0.127   3.416
 2341SOL    HW217493   3.281   0.133   3.316
 2342SOL     OW17494   0.355   6.100   2.534
 2342SOL    HW117495   0.439   6.112   2.481
 2342SOL    HW217496   0.282   6.157   2.496
 2343SOL     OW17497   3.504   6.421   1.497
 2343SOL    HW117498   3.517   6.512   1.457
 2343SOL    HW217499   3.421   6.421   1.553
 2344SOL     OW17500   9.747   0.197   0.562
 2344SOL    HW117501   9.686   0.151   0.626
 2344SOL    HW217502   9.827   0.139   0.545
 2345SOL     OW17503   0.074   9.701   1.756
 2345SOL    HW117504   0.084   9.622   1.695
 2345SOL    HW217505   9.989   9.692   1.808
 2346SOL     OW17506   1.924   3.410   2.005
 2346SOL    HW117507   1.834   3.367   2.010
 2346SOL    HW217508   1.915   3.505   1.975
 2347SOL     OW17509   0.724   8.973   1.935
 2347SOL    HW117510   0.765   8.884   1.958
 2347SOL    HW217511   0.763   9.043   1.995
 2348SOL     OW17512   0.723   7.057   0.141
 2348SOL    HW117513   0.752   7.017   0.228
 2348SOL    HW217514   0.722   6.986   0.071
 2349SOL     OW17515   5.585   9.972   2.766
 2349SOL    HW117516   5.645   9.912   2.820
 2349SOL    HW217517   5.575   9.934   2.674
 2350SOL     OW17518   0.773   8.053   3.117
 2350SOL    HW117519   0.735   8.065   3.209
 2350SOL    HW217520   0.842   7.981   3.119
 2351SOL     OW17521   6.207   9.065   1.614
 2351SOL    HW117522   6.117   9.083   1.653
 2351SOL    HW217523   6.263   9.016   1.680
 2352SOL     OW17524   0.116   4.265   1.520
 2352SOL    HW117525   0.074   4.226   1.601
 2352SOL    HW217526   0.134   4.193   1.453
 2353SOL     OW17527   9.898   0.796   3.264
 2353SOL    HW117528   9.847   0.774   3.347
 2353SOL    HW217529   9.916   0.712   3.213
 2354SOL     OW17530   3.598   3.299   0.662
 2354SOL    HW117531   3.536   3.304   0.583
 2354SOL    HW217532   3.678   3.244   0.637
 2355SOL     OW17533   2.554   6.046   1.341
 2355SOL    HW117534   2.513   6.132   1.372
 2355SOL    HW217535   2.635   6.066   1.285
 2356SOL     OW17536   8.089   4.952   2.649
 2356SOL    HW117537   8.084   5.043   2.607
 2356SOL    HW217538   8.165   4.950   2.714
 2357SOL     OW17539   8.103   5.419   2.207
 2357SOL    HW117540   8.086   5.324   2.231
 2357SOL    HW217541   8.084   5.477   2.287
 2358SOL     OW17542   3.815   7.339   1.663
 2358SOL    HW117543   3.772   7.307   1.579
 2358SOL    HW217544   3.746   7.351   1.734
 2359SOL     OW17545   8.734   7.946   0.752
 2359SOL    HW117546   8.782   7.910   0.832
 2359SOL    HW217547   8.761   8.041   0.736
 2360SOL     OW17548   9.020   9.454   0.886
 2360SOL    HW117549   9.095   9.520   0.880
 2360SOL    HW217550   8.975   9.445   0.797
 2361SOL     OW17551   9.689   8.580   0.265
 2361SOL    HW117552   9.702   8.625   0.353
 2361SOL    HW217553   9.691   8.481   0.277
 2362SOL     OW17554   7.609   2.084   2.541
 2362SOL    HW117555   7.562   1.998   2.520
 2362SOL    HW217556   7.542   2.153   2.570
 2363SOL     OW17557   9.761   5.187   3.066
 2363SOL    HW117558   9.703   5.113   3.032
 2363SOL    HW217559   9.777   5.175   3.164
 2364SOL     OW17560   8.473   2.695   2.093
 2364SOL    HW117561   8.471   2.717   1.996
 2364SOL    HW217562   8.466   2.595   2.105
 2365SOL     OW17563   6.289   0.882   2.827
 2365SOL    HW117564   6.263   0.979   2.833
 2365SOL    HW217565   6.209   0.825   2.845
 2366SOL     OW17566   3.564   6.128   3.274
 2366SOL    HW117567   3.586   6.225   3.278
 2366SOL    HW217568   3.638   6.076   3.317
 2367SOL     OW17569   8.716   5.252   2.367
 2367SOL    HW117570   8.737   5.259   2.269
 2367SOL    HW217571   8.705   5.156   2.392
 2368SOL     OW17572   4.411   9.716   0.813
 2368SOL    HW117573   4.406   9.816   0.814
 2368SOL    HW217574   4.432   9.684   0.721
 2369SOL     OW17575   1.408   1.435   2.998
 2369SOL    HW117576   1.312   1.420   3.023
 2369SOL    HW217577   1.412   1.496   2.919
 2370SOL     OW17578   1.457   2.532   2.075
 2370SOL    HW117579   1.476   2.512   1.979
 2370SOL    HW217580   1.383   2.474   2.108
 2371SOL     OW17581   3.229   2.180   3.398
 2371SOL    HW117582   3.245   2.118   3.474
 2371SOL    HW217583   3.161   2.249   3.425
 2372SOL     OW17584   8.676   4.887   0.480
 2372SOL    HW117585   8.708   4.824   0.409
 2372SOL    HW217586   8.713   4.858   0.569
 2373SOL     OW17587   3.071   8.845   2.768
 2373SOL    HW117588   3.125   8.863   2.851
 2373SOL    HW217589   3.108   8.764   2.721
 2374SOL     OW17590   8.240   2.946   3.181
 2374SOL    HW117591   8.215   2.930   3.276
 2374SOL    HW217592   8.288   3.034   3.172
 2375SOL     OW17593   2.375   7.977   1.998
 2375SOL    HW117594   2.307   7.913   1.962
 2375SOL    HW217595   2.361   8.067   1.955
 2376SOL     OW17596   0.198   6.632   1.482
 2376SOL    HW117597   0.249   6.599   1.561
 2376SOL    HW217598   0.152   6.555   1.437
 2377SOL     OW17599   8.315   1.457   3.373
 2377SOL    HW117600   8.362   1.545   3.374
 2377SOL    HW217601   8.295   1.431   3.278
 2378SOL     OW17602   0.266   8.085   1.950
 2378SOL    HW117603   0.345   8.023   1.945
 2378SOL    HW217604   0.190   8.037   1.993
 2379SOL     OW17605   3.792   9.411   0.861
 2379SOL    HW117606   3.709   9.465   0.879
 2379SOL    HW217607   3.767   9.318   0.835
 2380SOL     OW17608   0.041   5.201   3.045
 2380SOL    HW117609   9.941   5.194   3.043
 2380SOL    HW217610   0.080   5.113   3.072
 2381SOL     OW17611   1.830   1.814   2.353
 2381SOL    HW117612   1.819   1.910   2.381
 2381SOL    HW217613   1.801   1.804   2.258
 2382SOL     OW17614   9.183   9.815   2.057
 2382SOL    HW117615   9.087   9.844   2.062
 2382SOL    HW217616   9.205   9.789   1.963
 2383SOL     OW17617   7.533   1.274   0.955
 2383SOL    HW117618   7.437   1.250   0.936
 2383SOL    HW217619   7.591   1.195   0.934
 2384SOL     OW17620   3.048   2.383   3.448
 2384SOL    HW117621   3.066   2.434   3.532
 2384SOL    HW217622   3.041   2.446   3.371
 2385SOL     OW17623   4.955   8.219   0.594
 2385SOL    HW117624   4.977   8.184   0.503
 2385SOL    HW217625   5.012   8.174   0.663
 2386SOL     OW17626   8.173   7.589   1.365
 2386SOL    HW117627   8.271   7.610   1.354
 2386SOL    HW217628   8.121   7.633   1.292
 2387SOL     OW17629   0.391   7.949   1.313
 2387SOL    HW117630   0.294   7.933   1.329
 2387SOL    HW217631   0.432   7.870   1.269
 2388SOL     OW17632   8.407   0.665   0.642
 2388SOL    HW117633   8.386   0.623   0.730
 2388SOL    HW217634   8.328   0.656   0.581
 2389SOL     OW17635   1.872   6.555   1.705
 2389SOL    HW117636   1.831   6.574   1.616
 2389SOL    HW217637   1.909   6.640   1.744
 2390SOL     OW17638   3.840   8.194   2.457
 2390SOL    HW117639   3.846   8.289   2.428
 2390SOL    HW217640   3.906   8.139   2.406
 2391SOL     OW17641   4.521   8.336   0.490
 2391SOL    HW117642   4.611   8.367   0.519
 2391SOL    HW217643   4.471   8.412   0.448
 2392SOL     OW17644   2.515   4.997   0.128
 2392SOL    HW117645   2.474   4.920   0.177
 2392SOL    HW217646   2.449   5.071   0.120
 2393SOL     OW17647   8.307   1.042   0.154
 2393SOL    HW117648   8.388   1.030   0.212
 2393SOL    HW217649   8.304   1.136   0.120
 2394SOL     OW17650   5.084   7.648   3.060
 2394SOL    HW117651   5.034   7.660   2.974
 2394SOL    HW217652   5.027   7.598   3.125
 2395SOL     OW17653   9.509   8.402   3.562
 2395SOL    HW117654   9.436   8.341   3.592
 2395SOL    HW217655   9.471   8.472   3.501
 2396SOL     OW17656   8.301   7.881   3.251
 2396SOL    HW117657   8.377   7.822   3.224
 2396SOL    HW217658   8.265   7.928   3.171
 2397SOL     OW17659   6.094   8.436   3.460
 2397SOL    HW117660   6.002   8.411   3.490
 2397SOL    HW217661   6.110   8.399   3.368
 2398SOL     OW17662   1.628   0.016   0.329
 2398SOL    HW117663   1.708   9.971   0.369
 2398SOL    HW217664   1.605   9.970   0.242
 2399SOL     OW17665   7.605   9.303   2.976
 2399SOL    HW117666   7.704   9.313   2.981
 2399SOL    HW217667   7.582   9.206   2.967
 2400SOL     OW17668   4.150   0.058   2.105
 2400SOL    HW117669   4.150   9.976   2.047
 2400SOL    HW217670   4.141   0.139   2.048
 2401SOL     OW17671   4.917   9.992   3.065
 2401SOL    HW117672   4.864   9.934   3.126
 2401SOL    HW217673   5.007   9.951   3.048
 2402SOL     OW17674   8.290   2.834   1.355
 2402SOL    HW117675   8.313   2.915   1.300
 2402SOL    HW217676   8.216   2.857   1.418
 2403SOL     OW17677   9.818   4.821   3.012
 2403SOL    HW117678   9.744   4.876   2.973
 2403SOL    HW217679   9.834   4.849   3.107
 2404SOL     OW17680   1.176   0.401   3.565
 2404SOL    HW117681   1.078   0.382   3.558
 2404SOL    HW217682   1.191   0.499   3.549
 2405SOL     OW17683   4.221   7.599   0.081
 2405SOL    HW117684   4.227   7.695   0.109
 2405SOL    HW217685   4.307   7.552   0.102
 2406SOL     OW17686   4.016   3.823   0.492
 2406SOL    HW117687   3.945   3.887   0.520
 2406SOL    HW217688   4.016   3.745   0.556
 2407SOL     OW17689   1.143   1.673   3.189
 2407SOL    HW117690   1.162   1.584   3.147
 2407SOL    HW217691   1.160   1.745   3.122
 2408SOL     OW17692   0.128   3.833   1.728
 2408SOL    HW117693   0.097   3.755   1.782
 2408SOL    HW217694   0.065   3.846   1.651
 2409SOL     OW17695   5.141   6.845   2.122
 2409SOL    HW117696   5.227   6.798   2.103
 2409SOL    HW217697   5.119   6.907   2.048
 2410SOL     OW17698   5.069   9.056   2.575
 2410SOL    HW117699   4.990   9.005   2.608
 2410SOL    HW217700   5.049   9.095   2.485
 2411SOL     OW17701   3.180   5.559   0.986
 2411SOL    HW117702   3.085   5.542   1.010
 2411SOL    HW217703   3.232   5.474   0.990
 2412SOL     OW17704   9.557   4.979   3.211
 2412SOL    HW117705   9.546   4.979   3.112
 2412SOL    HW217706   9.643   4.934   3.236
 2413SOL     OW17707   0.536   8.792   2.715
 2413SOL    HW117708   0.611   8.850   2.683
 2413SOL    HW217709   0.455   8.849   2.732
 2414SOL     OW17710   1.999   1.675   3.153
 2414SOL    HW117711   2.003   1.740   3.229
 2414SOL    HW217712   2.091   1.666   3.113
 2415SOL     OW17713   4.643   1.858   0.989
 2415SOL    HW117714   4.598   1.771   1.011
 2415SOL    HW217715   4.576   1.932   0.996
 2416SOL     OW17716   8.471   4.658   0.237
 2416SOL    HW117717   8.422   4.742   0.215
 2416SOL    HW217718   8.569   4.676   0.240
 2417SOL     OW17719   3.913   6.790   1.630
 2417SOL    HW117720   3.911   6.842   1.545
 2417SOL    HW217721   3.828   6.738   1.640
 2418SOL     OW17722   4.130   2.747   0.614
 2418SOL    HW117723   4.124   2.797   0.528
 2418SOL    HW217724   4.198   2.789   0.674
 2419SOL     OW17725   0.794   8.782   2.382
 2419SOL    HW117726   0.768   8.715   2.313
 2419SOL    HW217727   0.882   8.756   2.422
 2420SOL     OW17728   1.758   8.648   0.603
 2420SOL    HW117729   1.787   8.694   0.518
 2420SOL    HW217730   1.803   8.559   0.610
 2421SOL     OW17731   6.354   9.563   2.424
 2421SOL    HW117732   6.288   9.543   2.352
 2421SOL    HW217733   6.443   9.526   2.398
 2422SOL     OW17734   7.982   2.583   1.452
 2422SOL    HW117735   7.970   2.495   1.498
 2422SOL    HW217736   7.961   2.657   1.516
 2423SOL     OW17737   7.532   6.174   2.184
 2423SOL    HW117738   7.584   6.103   2.136
 2423SOL    HW217739   7.576   6.195   2.271
 2424SOL     OW17740   2.811   8.409   2.309
 2424SOL    HW117741   2.759   8.422   2.393
 2424SOL    HW217742   2.781   8.325   2.264
 2425SOL     OW17743   7.513   8.190   3.053
 2425SOL    HW117744   7.578   8.246   3.104
 2425SOL    HW217745   7.421   8.225   3.065
 2426SOL     OW17746   4.339   4.751   1.677
 2426SOL    HW117747   4.254   4.705   1.651
 2426SOL    HW217748   4.350   4.833   1.621
 2427SOL     OW17749   3.011   1.162   0.300
 2427SOL    HW117750   3.088   1.134   0.243
 2427SOL    HW217751   2.954   1.227   0.249
 2428SOL     OW17752   1.830   3.362   3.584
 2428SOL    HW117753   1.913   3.307   3.590
 2428SOL    HW217754   1.781   3.340   3.499
 2429SOL     OW17755   4.388   9.851   2.982
 2429SOL    HW117756   4.480   9.811   2.977
 2429SOL    HW217757   4.322   9.778   3.002
 2430SOL     OW17758   4.939   0.005   1.686
 2430SOL    HW117759   4.956   0.102   1.700
 2430SOL    HW217760   4.882   9.970   1.760
 2431SOL     OW17761   0.380   3.897   0.183
 2431SOL    HW117762   0.388   3.890   0.084
 2431SOL    HW217763   0.349   3.989   0.208
 2432SOL     OW17764   8.734   9.077   0.216
 2432SOL    HW117765   8.798   9.003   0.194
 2432SOL    HW217766   8.650   9.038   0.253
 2433SOL     OW17767   5.052   2.790   1.564
 2433SOL    HW117768   5.113   2.741   1.627
 2433SOL    HW217769   5.100   2.805   1.477
 2434SOL     OW17770   8.742   0.445   2.758
 2434SOL    HW117771   8.717   0.525   2.813
 2434SOL    HW217772   8.691   0.446   2.672
 2435SOL     OW17773   9.022   9.773   0.165
 2435SOL    HW117774   8.983   9.777   0.257
 2435SOL    HW217775   8.984   9.847   0.109
 2436SOL     OW17776   9.044   6.366   1.176
 2436SOL    HW117777   8.958   6.349   1.129
 2436SOL    HW217778   9.120   6.335   1.119
 2437SOL     OW17779   9.038   8.009   2.859
 2437SOL    HW117780   9.107   7.979   2.794
 2437SOL    HW217781   8.969   8.065   2.811
 2438SOL     OW17782   5.409   7.482   2.638
 2438SOL    HW117783   5.484   7.431   2.680
 2438SOL    HW217784   5.437   7.511   2.546
 2439SOL     OW17785   2.902   0.390   2.859
 2439SOL    HW117786   2.919   0.487   2.879
 2439SOL    HW217787   2.864   0.346   2.940
 2440SOL     OW17788   4.612   9.635   1.496
 2440SOL    HW117789   4.542   9.643   1.426
 2440SOL    HW217790   4.654   9.544   1.491
 2441SOL     OW17791   4.635   2.252   2.244
 2441SOL    HW117792   4.722   2.221   2.206
 2441SOL    HW217793   4.570   2.268   2.170
 2442SOL     OW17794   7.336   9.978   1.335
 2442SOL    HW117795   7.393   9.967   1.254
 2442SOL    HW217796   7.331   9.891   1.384
 2443SOL     OW17797   9.859   7.347   0.921
 2443SOL    HW117798   9.950   7.378   0.950
 2443SOL    HW217799   9.815   7.419   0.867
 2444SOL     OW17800   3.644   7.382   1.873
 2444SOL    HW117801   3.703   7.462   1.886
 2444SOL    HW217802   3.549   7.408   1.887
 2445SOL     OW17803   1.782   8.926   1.095
 2445SOL    HW117804   1.715   8.929   1.170
 2445SOL    HW217805   1.840   8.846   1.106
 2446SOL     OW17806   0.579   9.550   0.220
 2446SOL    HW117807   0.677   9.541   0.201
 2446SOL    HW217808   0.552   9.483   0.289
 2447SOL     OW17809   1.459   2.102   1.855
 2447SOL    HW117810   1.486   2.064   1.943
 2447SOL    HW217811   1.380   2.163   1.867
 2448SOL     OW17812   8.557   0.722   2.595
 2448SOL    HW117813   8.653   0.730   2.623
 2448SOL    HW217814   8.510   0.658   2.655
 2449SOL     OW17815   9.201   9.748   2.774
 2449SOL    HW117816   9.223   9.684   2.847
 2449SOL    HW217817   9.103   9.743   2.753
 2450SOL     OW17818   5.225   1.216   3.055
 2450SOL    HW117819   5.135   1.197   3.095
 2450SOL    HW217820   5.214   1.273   2.974
 2451SOL     OW17821   7.261   7.239   3.137
 2451SOL    HW117822   7.185   7.189   3.095
 2451SOL    HW217823   7.238   7.259   3.233
 2452SOL     OW17824   3.357   9.314   0.223
 2452SOL    HW117825   3.288   9.259   0.271
 2452SOL    HW217826   3.322   9.339   0.132
 2453SOL     OW17827   1.120   7.688   2.969
 2453SOL    HW117828   1.039   7.700   2.912
 2453SOL    HW217829   1.202   7.714   2.918
 2454SOL     OW17830   5.404   7.431   3.317
 2454SOL    HW117831   5.369   7.516   3.355
 2454SOL    HW217832   5.354   7.354   3.357
 2455SOL     OW17833   5.054   2.170   2.451
 2455SOL    HW117834   4.998   2.089   2.438
 2455SOL    HW217835   5.088   2.203   2.363
 2456SOL     OW17836   1.298   0.513   0.710
 2456SOL    HW117837   1.202   0.540   0.710
 2456SOL    HW217838   1.356   0.593   0.698
 2457SOL     OW17839   7.369   8.724   1.944
 2457SOL    HW117840   7.323   8.788   1.882
 2457SOL    HW217841   7.315   8.715   2.028
 2458SOL     OW17842   5.868   8.941   3.275
 2458SOL    HW117843   5.961   8.976   3.289
 2458SOL    HW217844   5.821   8.997   3.207
 2459SOL     OW17845   8.898   4.817   1.372
 2459SOL    HW117846   8.897   4.721   1.401
 2459SOL    HW217847   8.837   4.870   1.430
 2460SOL     OW17848   6.810   9.441   2.765
 2460SOL    HW117849   6.749   9.394   2.702
 2460SOL    HW217850   6.892   9.385   2.779
 2461SOL     OW17851   1.509   0.082   2.164
 2461SOL    HW117852   1.440   0.121   2.103
 2461SOL    HW217853   1.535   9.992   2.130
 2462SOL     OW17854   1.062   0.870   0.709
 2462SOL    HW117855   1.113   0.907   0.787
 2462SOL    HW217856   0.970   0.909   0.707
 2463SOL     OW17857   0.179   3.059   2.093
 2463SOL    HW117858   0.168   3.158   2.086
 2463SOL    HW217859   0.141   3.015   2.012
 2464SOL     OW17860   8.578   6.260   0.071
 2464SOL    HW117861   8.645   6.324   0.109
 2464SOL    HW217862   8.530   6.214   0.145
 2465SOL     OW17863   2.694   1.541   2.265
 2465SOL    HW117864   2.712   1.488   2.183
 2465SOL    HW217865   2.721   1.636   2.251
 2466SOL     OW17866   8.696   6.434   2.648
 2466SOL    HW117867   8.735   6.482   2.726
 2466SOL    HW217868   8.649   6.352   2.680
 2467SOL     OW17869   3.212   6.901   0.815
 2467SOL    HW117870   3.241   6.837   0.885
 2467SOL    HW217871   3.202   6.992   0.855
 2468SOL     OW17872   2.026   0.440   2.400
 2468SOL    HW117873   2.088   0.384   2.344
 2468SOL    HW217874   1.972   0.381   2.459
 2469SOL     OW17875   0.837   9.604   0.098
 2469SOL    HW117876   0.780   9.679   0.064
 2469SOL    HW217877   0.927   9.640   0.123
 2470SOL     OW17878   5.628   0.334   1.478
 2470SOL    HW117879   5.645   0.236   1.462
 2470SOL    HW217880   5.530   0.350   1.487
 2471SOL     OW17881   8.156   3.115   2.198
 2471SOL    HW117882   8.142   3.170   2.280
 2471SOL    HW217883   8.250   3.126   2.166
 2472SOL     OW17884   4.753   7.533   1.716
 2472SOL    HW117885   4.814   7.596   1.669
 2472SOL    HW217886   4.769   7.539   1.815
 2473SOL     OW17887   9.560   9.882   2.804
 2473SOL    HW117888   9.471   9.928   2.810
 2473SOL    HW217889   9.573   9.848   2.711
 2474SOL     OW17890   2.208   0.838   2.213
 2474SOL    HW117891   2.189   0.794   2.300
 2474SOL    HW217892   2.193   0.773   2.138
 2475SOL     OW17893   3.631   3.374   1.051
 2475SOL    HW117894   3.723   3.388   1.088
 2475SOL    HW217895   3.621   3.425   0.966
 2476SOL     OW17896   2.853   3.885   0.541
 2476SOL    HW117897   2.860   3.977   0.579
 2476SOL    HW217898   2.840   3.819   0.616
 2477SOL     OW17899   0.191   7.039   2.283
 2477SOL    HW117900   0.282   7.007   2.256
 2477SOL    HW217901   0.144   6.966   2.333
 2478SOL     OW17902   5.199   7.167   3.075
 2478SOL    HW117903   5.263   7.197   3.004
 2478SOL    HW217904   5.228   7.204   3.163
 2479SOL     OW17905   6.991   8.797   1.972
 2479SOL    HW117906   6.968   8.706   1.936
 2479SOL    HW217907   6.910   8.855   1.973
 2480SOL     OW17908   5.284   9.627   3.609
 2480SOL    HW117909   5.204   9.687   3.609
 2480SOL    HW217910   5.367   9.682   3.598
 2481SOL     OW17911   5.450   6.924   1.895
 2481SOL    HW117912   5.428   6.853   1.961
 2481SOL    HW217913   5.423   6.895   1.803
 2482SOL     OW17914   4.460   7.734   3.152
 2482SOL    HW117915   4.530   7.736   3.081
 2482SOL    HW217916   4.384   7.675   3.123
 2483SOL     OW17917   3.974   1.975   0.710
 2483SOL    HW117918   3.970   1.882   0.747
 2483SOL    HW217919   3.901   1.987   0.643
 2484SOL     OW17920   1.108   8.995   3.449
 2484SOL    HW117921   1.208   9.002   3.451
 2484SOL    HW217922   1.082   8.901   3.427
 2485SOL     OW17923   5.211   0.205   2.732
 2485SOL    HW117924   5.148   0.152   2.676
 2485SOL    HW217925   5.179   0.300   2.737
 2486SOL     OW17926   0.932   5.454   3.239
 2486SOL    HW117927   0.886   5.377   3.194
 2486SOL    HW217928   0.878   5.538   3.225
 2487SOL     OW17929   2.348   7.085   3.642
 2487SOL    HW117930   2.267   7.142   3.655
 2487SOL    HW217931   2.320   6.998   3.602
 2488SOL     OW17932   7.865   8.554   1.405
 2488SOL    HW117933   7.785   8.554   1.465
 2488SOL    HW217934   7.948   8.567   1.459
 2489SOL     OW17935   6.560   0.068   2.851
 2489SOL    HW117936   6.502   0.038   2.927
 2489SOL    HW217937   6.656   0.063   2.878
 2490SOL     OW17938   9.757   2.212   1.971
 2490SOL    HW117939   9.693   2.148   2.013
 2490SOL    HW217940   9.710   2.298   1.952
 2491SOL     OW17941   3.729   3.780   0.711
 2491SOL    HW117942   3.707   3.689   0.747
 2491SOL    HW217943   3.824   3.802   0.735
 2492SOL     OW17944   1.083   4.708   2.998
 2492SOL    HW117945   1.059   4.616   3.027
 2492SOL    HW217946   0.999   4.761   2.984
 2493SOL     OW17947   0.378   2.912   2.214
 2493SOL    HW117948   0.302   2.960   2.170
 2493SOL    HW217949   0.375   2.927   2.312
 2494SOL     OW17950   3.657   0.190   2.451
 2494SOL    HW117951   3.756   0.191   2.468
 2494SOL    HW217952   3.609   0.217   2.534
 2495SOL     OW17953   1.650   6.322   3.675
 2495SOL    HW117954   1.738   6.360   3.703
 2495SOL    HW217955   1.648   6.313   3.575
 2496SOL     OW17956   9.901   7.969   0.164
 2496SOL    HW117957   9.943   8.014   0.086
 2496SOL    HW217958   9.955   7.889   0.190
 2497SOL     OW17959   3.875   8.121   1.577
 2497SOL    HW117960   3.841   8.197   1.632
 2497SOL    HW217961   3.863   8.035   1.627
 2498SOL     OW17962   7.985   6.665   1.231
 2498SOL    HW117963   8.035   6.578   1.226
 2498SOL    HW217964   7.928   6.665   1.314
 2499SOL     OW17965   4.272   7.228   2.661
 2499SOL    HW117966   4.345   7.222   2.729
 2499SOL    HW217967   4.221   7.313   2.675
 2500SOL     OW17968   9.999   2.934   0.450
 2500SOL    HW117969   0.031   2.950   0.357
 2500SOL    HW217970   9.987   3.022   0.496
 2501SOL     OW17971   9.303   2.460   3.494
 2501SOL    HW117972   9.302   2.522   3.416
 2501SOL    HW217973   9.209   2.447   3.528
 2502SOL     OW17974   3.944   9.691   3.400
 2502SOL    HW117975   3.990   9.763   3.346
 2502SOL    HW217976   4.009   9.652   3.465
 2503SOL     OW17977   0.926   1.363   0.668
 2503SOL    HW117978   0.998   1.320   0.723
 2503SOL    HW217979   0.865   1.415   0.728
 2504SOL     OW17980   1.572   4.480   2.600
 2504SOL    HW117981   1.473   4.469   2.608
 2504SOL    HW217982   1.596   4.495   2.504
 2505SOL     OW17983   8.588   2.365   0.197
 2505SOL    HW117984   8.579   2.333   0.102
 2505SOL    HW217985   8.628   2.457   0.198
 2506SOL     OW17986   8.674   1.957   2.537
 2506SOL    HW117987   8.634   2.039   2.495
 2506SOL    HW217988   8.660   1.879   2.475
 2507SOL     OW17989   8.496   1.188   0.807
 2507SOL    HW117990   8.415   1.238   0.838
 2507SOL    HW217991   8.501   1.192   0.708
 2508SOL     OW17992   1.711   9.934   0.725
 2508SOL    HW117993   1.704   9.842   0.686
 2508SOL    HW217994   1.619   9.971   0.738
 2509SOL     OW17995   2.303   3.597   0.821
 2509SOL    HW117996   2.339   3.576   0.913
 2509SOL    HW217997   2.356   3.672   0.781
 2510SOL     OW17998   7.036   7.551   2.907
 2510SOL    HW117999   7.075   7.460   2.892
 2510SOL    HW218000   6.941   7.552   2.876
 2511SOL     OW18001   4.460   0.837   1.953
 2511SOL    HW118002   4.390   0.904   1.926
 2511SOL    HW218003   4.517   0.814   1.873
 2512SOL     OW18004   9.663   6.688   1.929
 2512SOL    HW118005   9.758   6.695   1.897
 2512SOL    HW218006   9.643   6.764   1.990
 2513SOL     OW18007   1.396   3.167   1.966
 2513SOL    HW118008   1.323   3.172   1.899
 2513SOL    HW218009   1.407   3.072   1.996
 2514SOL     OW18010   3.250   0.012   3.697
 2514SOL    HW118011   3.248   0.040   3.793
 2514SOL    HW218012   3.327   0.056   3.651
 2515SOL     OW18013   9.245   8.027   1.735
 2515SOL    HW118014   9.286   7.970   1.806
 2515SOL    HW218015   9.283   8.120   1.740
 2516SOL     OW18016   2.339   0.007   1.414
 2516SOL    HW118017   2.423   9.955   1.397
 2516SOL    HW218018   2.356   0.074   1.487
 2517SOL     OW18019   0.309   5.555   2.247
 2517SOL    HW118020   0.219   5.547   2.290
 2517SOL    HW218021   0.299   5.583   2.152
 2518SOL     OW18022   2.958   6.185   3.308
 2518SOL    HW118023   2.990   6.217   3.218
 2518SOL    HW218024   2.911   6.260   3.355
 2519SOL     OW18025   0.732   1.658   0.286
 2519SOL    HW118026   0.776   1.618   0.366
 2519SOL    HW218027   0.677   1.737   0.314
 2520SOL     OW18028   1.421   0.292   3.507
 2520SOL    HW118029   1.433   0.194   3.522
 2520SOL    HW218030   1.327   0.318   3.533
 2521SOL     OW18031   1.104   3.427   0.300
 2521SOL    HW118032   1.033   3.491   0.274
 2521SOL    HW218033   1.078   3.380   0.384
 2522SOL     OW18034   7.751   8.026   1.810
 2522SOL    HW118035   7.793   7.943   1.772
 2522SOL    HW218036   7.775   8.034   1.906
 2523SOL     OW18037   8.725   0.036   0.612
 2523SOL    HW118038   8.755   0.044   0.517
 2523SOL    HW218039   8.785   0.089   0.671
 2524SOL     OW18040   8.119   1.401   1.205
 2524SOL    HW118041   8.104   1.337   1.280
 2524SOL    HW218042   8.044   1.391   1.138
 2525SOL     OW18043   0.624   9.271   2.379
 2525SOL    HW118044   0.624   9.174   2.355
 2525SOL    HW218045   0.582   9.284   2.469
 2526SOL     OW18046   2.597   9.586   0.812
 2526SOL    HW118047   2.619   9.677   0.777
 2526SOL    HW218048   2.678   9.527   0.803
 2527SOL     OW18049   7.996   1.082   2.934
 2527SOL    HW118050   8.012   1.173   2.970
 2527SOL    HW218051   7.926   1.086   2.862
 2528SOL     OW18052   5.261   1.934   1.683
 2528SOL    HW118053   5.216   1.951   1.595
 2528SOL    HW218054   5.228   1.847   1.720
 2529SOL     OW18055   8.241   0.638   2.918
 2529SOL    HW118056   8.148   0.623   2.884
 2529SOL    HW218057   8.249   0.731   2.954
 2530SOL     OW18058   3.263   6.844   3.241
 2530SOL    HW118059   3.244   6.750   3.213
 2530SOL    HW218060   3.358   6.853   3.269
 2531SOL     OW18061   5.053   2.352   0.861
 2531SOL    HW118062   5.124   2.292   0.825
 2531SOL    HW218063   5.021   2.414   0.790
 2532SOL     OW18064   6.301   9.832   2.402
 2532SOL    HW118065   6.297   9.892   2.483
 2532SOL    HW218066   6.329   9.741   2.430
 2533SOL     OW18067   1.917   3.514   0.964
 2533SOL    HW118068   1.967   3.600   0.957
 2533SOL    HW218069   1.913   3.470   0.874
 2534SOL     OW18070   2.832   5.170   0.365
 2534SOL    HW118071   2.743   5.206   0.393
 2534SOL    HW218072   2.820   5.109   0.286
 2535SOL     OW18073   3.899   8.624   3.332
 2535SOL    HW118074   3.908   8.610   3.234
 2535SOL    HW218075   3.983   8.664   3.368
 2536SOL     OW18076   9.878   3.554   2.937
 2536SOL    HW118077   9.907   3.512   2.851
 2536SOL    HW218078   9.958   3.576   2.993
 2537SOL     OW18079   3.120   6.905   1.794
 2537SOL    HW118080   3.179   6.985   1.800
 2537SOL    HW218081   3.090   6.892   1.700
 2538SOL     OW18082   3.018   7.490   0.955
 2538SOL    HW118083   3.008   7.522   1.050
 2538SOL    HW218084   3.059   7.562   0.900
 2539SOL     OW18085   9.979   6.259   0.229
 2539SOL    HW118086   9.941   6.350   0.243
 2539SOL    HW218087   9.914   6.204   0.175
 2540SOL     OW18088   5.410   0.338   3.591
 2540SOL    HW118089   5.324   0.388   3.580
 2540SOL    HW218090   5.476   0.395   3.639
 2541SOL     OW18091   0.101   0.405   3.565
 2541SOL    HW118092   0.140   0.317   3.591
 2541SOL    HW218093   0.087   0.408   3.466
 2542SOL     OW18094   4.353   8.471   0.998
 2542SOL    HW118095   4.401   8.392   0.961
 2542SOL    HW218096   4.400   8.503   1.081
 2543SOL     OW18097   0.651   1.805   1.218
 2543SOL    HW118098   0.594   1.751   1.156
 2543SOL    HW218099   0.636   1.902   1.201
 2544SOL     OW18100   9.353   1.526   3.605
 2544SOL    HW118101   9.365   1.428   3.620
 2544SOL    HW218102   9.261   1.543   3.570
 2545SOL     OW18103   8.275   6.092   3.410
 2545SOL    HW118104   8.182   6.110   3.441
 2545SOL    HW218105   8.314   6.175   3.370
 2546SOL     OW18106   8.716   5.165   0.440
 2546SOL    HW118107   8.655   5.220   0.496
 2546SOL    HW218108   8.697   5.068   0.456
 2547SOL     OW18109   1.395   3.075   1.507
 2547SOL    HW118110   1.365   3.170   1.503
 2547SOL    HW218111   1.455   3.062   1.586
 2548SOL     OW18112   9.431   0.953   3.456
 2548SOL    HW118113   9.441   0.920   3.362
 2548SOL    HW218114   9.496   1.027   3.472
 2549SOL     OW18115   0.132   8.746   2.485
 2549SOL    HW118116   0.084   8.819   2.435
 2549SOL    HW218117   0.231   8.756   2.470
 2550SOL     OW18118   7.454   7.244   1.957
 2550SOL    HW118119   7.471   7.184   1.879
 2550SOL    HW218120   7.497   7.206   2.039
 2551SOL     OW18121   0.187   6.863   3.365
 2551SOL    HW118122   0.235   6.951   3.364
 2551SOL    HW218123   0.148   6.846   3.274
 2552SOL     OW18124   4.265   0.253   3.008
 2552SOL    HW118125   4.261   0.187   3.084
 2552SOL    HW218126   4.328   0.327   3.032
 2553SOL     OW18127   8.184   2.265   3.274
 2553SOL    HW118128   8.214   2.357   3.251
 2553SOL    HW218129   8.088   2.254   3.252
 2554SOL     OW18130   9.509   9.240   1.444
 2554SOL    HW118131   9.558   9.265   1.361
 2554SOL    HW218132   9.416   9.278   1.442
 2555SOL     OW18133   6.793   0.067   2.625
 2555SOL    HW118134   6.822   0.058   2.721
 2555SOL    HW218135   6.740   0.151   2.614
 2556SOL     OW18136   8.844   5.277   0.775
 2556SOL    HW118137   8.748   5.252   0.783
 2556SOL    HW218138   8.890   5.267   0.863
 2557SOL     OW18139   1.672   6.771   0.824
 2557SOL    HW118140   1.590   6.828   0.824
 2557SOL    HW218141   1.651   6.682   0.783
 2558SOL     OW18142   0.403   7.695   3.723
 2558SOL    HW118143   0.438   7.654   3.807
 2558SOL    HW218144   0.465   7.675   3.647
 2559SOL     OW18145   3.698   5.933   2.002
 2559SOL    HW118146   3.623   5.979   2.048
 2559SOL    HW218147   3.663   5.854   1.952
 2560SOL     OW18148   9.590   5.189   2.735
 2560SOL    HW118149   9.507   5.244   2.744
 2560SOL    HW218150   9.670   5.249   2.729
 2561SOL     OW18151   0.865   0.993   2.190
 2561SOL    HW118152   0.953   0.945   2.199
 2561SOL    HW218153   0.881   1.091   2.178
 2562SOL     OW18154   4.829   0.157   2.688
 2562SOL    HW118155   4.781   0.084   2.736
 2562SOL    HW218156   4.908   0.118   2.640
 2563SOL     OW18157   5.040   5.548   1.845
 2563SOL    HW118158   5.077   5.455   1.842
 2563SOL    HW218159   5.013   5.577   1.753
 2564SOL     OW18160   0.714   2.632   1.001
 2564SOL    HW118161   0.624   2.590   1.010
 2564SOL    HW218162   0.725   2.669   0.909
 2565SOL     OW18163   8.957   1.845   2.147
 2565SOL    HW118164   8.978   1.759   2.193
 2565SOL    HW218165   8.933   1.826   2.052
 2566SOL     OW18166   4.100   9.557   3.595
 2566SOL    HW118167   4.083   9.463   3.567
 2566SOL    HW218168   4.056   9.574   3.684
 2567SOL     OW18169   0.234   7.093   0.274
 2567SOL    HW118170   0.186   7.049   0.198
 2567SOL    HW218171   0.328   7.115   0.246
 2568SOL     OW18172   1.352   4.966   0.549
 2568SOL    HW118173   1.371   5.061   0.573
 2568SOL    HW218174   1.439   4.916   0.540
 2569SOL     OW18175   1.122   4.099   2.896
 2569SOL    HW118176   1.180   4.174   2.864
 2569SOL    HW218177   1.057   4.074   2.824
 2570SOL     OW18178   2.596   6.932   1.590
 2570SOL    HW118179   2.505   6.932   1.631
 2570SOL    HW218180   2.638   6.841   1.601
 2571SOL     OW18181   0.069   6.266   2.819
 2571SOL    HW118182   0.160   6.241   2.854
 2571SOL    HW218183   0.020   6.183   2.793
 2572SOL     OW18184   8.899   0.245   2.850
 2572SOL    HW118185   8.895   0.172   2.782
 2572SOL    HW218186   8.843   0.322   2.820
 2573SOL     OW18187   6.421   8.839   1.486
 2573SOL    HW118188   6.481   8.910   1.521
 2573SOL    HW218189   6.334   8.880   1.458
 2574SOL     OW18190   9.135   3.417   0.617
 2574SOL    HW118191   9.199   3.359   0.567
 2574SOL    HW218192   9.069   3.360   0.667
 2575SOL     OW18193   0.641   6.348   1.186
 2575SOL    HW118194   0.692   6.434   1.182
 2575SOL    HW218195   0.551   6.361   1.144
 2576SOL     OW18196   2.698   7.483   0.591
 2576SOL    HW118197   2.779   7.534   0.561
 2576SOL    HW218198   2.720   7.386   0.598
 2577SOL     OW18199   4.351   1.788   2.010
 2577SOL    HW118200   4.440   1.804   2.053
 2577SOL    HW218201   4.293   1.868   2.024
 2578SOL     OW18202   1.732   6.588   1.187
 2578SOL    HW118203   1.671   6.518   1.149
 2578SOL    HW218204   1.789   6.625   1.114
 2579SOL     OW18205   9.495   2.381   2.569
 2579SOL    HW118206   9.481   2.462   2.625
 2579SOL    HW218207   9.462   2.300   2.618
 2580SOL     OW18208   8.315   0.267   1.000
 2580SOL    HW118209   8.333   0.192   0.937
 2580SOL    HW218210   8.278   0.231   1.086
 2581SOL     OW18211   3.225   3.218   0.648
 2581SOL    HW118212   3.295   3.238   0.579
 2581SOL    HW218213   3.146   3.176   0.604
 2582SOL     OW18214   4.172   1.611   0.456
 2582SOL    HW118215   4.173   1.683   0.387
 2582SOL    HW218216   4.243   1.544   0.435
 2583SOL     OW18217   5.198   0.040   1.085
 2583SOL    HW118218   5.112   9.992   1.104
 2583SOL    HW218219   5.267   9.974   1.055
 2584SOL     OW18220   6.741   0.178   1.868
 2584SOL    HW118221   6.656   0.215   1.829
 2584SOL    HW218222   6.802   0.254   1.890
 2585SOL     OW18223   3.484   9.979   2.812
 2585SOL    HW118224   3.475   9.999   2.909
 2585SOL    HW218225   3.409   0.021   2.762
 2586SOL     OW18226   8.583   1.200   3.160
 2586SOL    HW118227   8.628   1.114   3.182
 2586SOL    HW218228   8.507   1.182   3.097
 2587SOL     OW18229   3.287   0.105   2.672
 2587SOL    HW118230   3.218   0.140   2.736
 2587SOL    HW218231   3.242   0.071   2.589
 2588SOL     OW18232   1.375   7.634   1.877
 2588SOL    HW118233   1.351   7.639   1.780
 2588SOL    HW218234   1.474   7.647   1.888
 2589SOL     OW18235   0.859   0.515   0.489
 2589SOL    HW118236   0.918   0.499   0.410
 2589SOL    HW218237   0.820   0.607   0.483
 2590SOL     OW18238   8.923   9.494   2.306
 2590SOL    HW118239   8.925   9.528   2.212
 2590SOL    HW218240   8.928   9.394   2.304
 2591SOL     OW18241   8.134   8.628   1.463
 2591SOL    HW118242   8.199   8.570   1.512
 2591SOL    HW218243   8.180   8.712   1.434
 2592SOL     OW18244   3.508   9.833   2.576
 2592SOL    HW118245   3.500   9.879   2.664
 2592SOL    HW218246   3.451   9.750   2.577
 2593SOL     OW18247   8.430   7.411   1.899
 2593SOL    HW118248   8.424   7.325   1.950
 2593SOL    HW218249   8.495   7.401   1.824
 2594SOL     OW18250   4.140   3.126   0.278
 2594SOL    HW118251   4.061   3.136   0.218
 2594SOL    HW218252   4.144   3.031   0.312
 2595SOL     OW18253   2.134   6.118   2.713
 2595SOL    HW118254   2.214   6.168   2.747
 2595SOL    HW218255   2.053   6.146   2.765
 2596SOL     OW18256   3.411   0.972   2.583
 2596SOL    HW118257   3.410   1.049   2.646
 2596SOL    HW218258   3.477   0.904   2.614
 2597SOL     OW18259   3.440   1.329   0.591
 2597SOL    HW118260   3.409   1.279   0.511
 2597SOL    HW218261   3.362   1.352   0.649
 2598SOL     OW18262   3.992   3.731   2.130
 2598SOL    HW118263   3.916   3.744   2.067
 2598SOL    HW218264   4.078   3.752   2.084
 2599SOL     OW18265   3.318   7.614   1.034
 2599SOL    HW118266   3.349   7.655   1.120
 2599SOL    HW218267   3.303   7.516   1.046
 2600SOL     OW18268   2.345   3.684   2.789
 2600SOL    HW118269   2.356   3.585   2.785
 2600SOL    HW218270   2.408   3.727   2.724
 2601SOL     OW18271   1.268   3.958   2.116
 2601SOL    HW118272   1.230   3.874   2.154
 2601SOL    HW218273   1.362   3.941   2.085
 2602SOL     OW18274   8.715   5.689   1.960
 2602SOL    HW118275   8.749   5.773   1.919
 2602SOL    HW218276   8.633   5.658   1.911
 2603SOL     OW18277   8.549   2.881   1.444
 2603SOL    HW118278   8.601   2.805   1.482
 2603SOL    HW218279   8.454   2.853   1.431
 2604SOL     OW18280   0.048   1.283   1.100
 2604SOL    HW118281   0.016   1.378   1.110
 2604SOL    HW218282   9.976   1.220   1.129
 2605SOL     OW18283   1.275   6.724   0.939
 2605SOL    HW118284   1.324   6.636   0.940
 2605SOL    HW218285   1.229   6.737   1.026
 2606SOL     OW18286   7.351   1.258   2.652
 2606SOL    HW118287   7.362   1.338   2.712
 2606SOL    HW218288   7.344   1.175   2.707
 2607SOL     OW18289   0.192   8.462   3.614
 2607SOL    HW118290   0.267   8.410   3.574
 2607SOL    HW218291   0.108   8.406   3.611
 2608SOL     OW18292   8.967   2.983   2.373
 2608SOL    HW118293   8.996   2.893   2.402
 2608SOL    HW218294   9.018   3.053   2.423
 2609SOL     OW18295   8.526   6.502   3.418
 2609SOL    HW118296   8.514   6.573   3.487
 2609SOL    HW218297   8.592   6.434   3.452
 2610SOL     OW18298   9.675   9.612   3.455
 2610SOL    HW118299   9.618   9.532   3.474
 2610SOL    HW218300   9.628   9.694   3.486
 2611SOL     OW18301   1.666   0.226   1.072
 2611SOL    HW118302   1.729   0.228   1.151
 2611SOL    HW218303   1.616   0.140   1.072
 2612SOL     OW18304   8.712   3.067   2.331
 2612SOL    HW118305   8.803   3.031   2.354
 2612SOL    HW218306   8.651   2.991   2.310
 2613SOL     OW18307   8.257   2.521   3.223
 2613SOL    HW118308   8.257   2.540   3.125
 2613SOL    HW218309   8.343   2.553   3.263
 2614SOL     OW18310   0.740   3.215   1.176
 2614SOL    HW118311   0.670   3.279   1.208
 2614SOL    HW218312   0.728   3.201   1.077
 2615SOL     OW18313   8.071   6.142   2.449
 2615SOL    HW118314   8.093   6.160   2.545
 2615SOL    HW218315   8.013   6.215   2.414
 2616SOL     OW18316   3.396   8.469   2.303
 2616SOL    HW118317   3.484   8.497   2.339
 2616SOL    HW218318   3.381   8.372   2.322
 2617SOL     OW18319   8.766   9.254   3.004
 2617SOL    HW118320   8.726   9.217   2.921
 2617SOL    HW218321   8.817   9.183   3.052
 2618SOL     OW18322   4.621   9.738   1.762
 2618SOL    HW118323   4.616   9.707   1.667
 2618SOL    HW218324   4.687   9.812   1.770
 2619SOL     OW18325   3.642   5.397   2.433
 2619SOL    HW118326   3.548   5.419   2.461
 2619SOL    HW218327   3.642   5.312   2.381
 2620SOL     OW18328   8.212   8.453   1.240
 2620SOL    HW118329   8.265   8.384   1.289
 2620SOL    HW218330   8.170   8.516   1.305
 2621SOL     OW18331   8.953   1.955   2.593
 2621SOL    HW118332   8.854   1.958   2.576
 2621SOL    HW218333   9.000   2.019   2.533
 2622SOL     OW18334   8.822   0.771   2.201
 2622SOL    HW118335   8.770   0.758   2.285
 2622SOL    HW218336   8.900   0.831   2.219
 2623SOL     OW18337   2.645   2.943   0.902
 2623SOL    HW118338   2.705   3.006   0.950
 2623SOL    HW218339   2.574   2.909   0.964
 2624SOL     OW18340   5.161   2.151   1.825
 2624SOL    HW118341   5.195   2.072   1.774
 2624SOL    HW218342   5.218   2.164   1.907
 2625SOL     OW18343   0.726   3.996   3.226
 2625SOL    HW118344   0.709   4.058   3.150
 2625SOL    HW218345   0.640   3.979   3.274
 2626SOL     OW18346   4.883   1.796   1.725
 2626SOL    HW118347   4.820   1.736   1.675
 2626SOL    HW218348   4.852   1.891   1.718
 2627SOL     OW18349   8.526   4.593   1.454
 2627SOL    HW118350   8.563   4.537   1.381
 2627SOL    HW218351   8.589   4.595   1.532
 2628SOL     OW18352   4.553   2.054   2.928
 2628SOL    HW118353   4.574   1.969   2.880
 2628SOL    HW218354   4.556   2.039   3.027
 2629SOL     OW18355   8.933   7.762   0.514
 2629SOL    HW118356   8.912   7.712   0.430
 2629SOL    HW218357   8.972   7.851   0.492
 2630SOL     OW18358   0.447   2.564   0.994
 2630SOL    HW118359   0.424   2.556   0.897
 2630SOL    HW218360   0.415   2.653   1.028
 2631SOL     OW18361   2.692   6.555   2.970
 2631SOL    HW118362   2.698   6.633   2.907
 2631SOL    HW218363   2.780   6.542   3.015
 2632SOL     OW18364   8.711   5.805   2.488
 2632SOL    HW118365   8.731   5.786   2.392
 2632SOL    HW218366   8.728   5.723   2.543
 2633SOL     OW18367   6.295   8.837   3.616
 2633SOL    HW118368   6.283   8.760   3.553
 2633SOL    HW218369   6.206   8.877   3.638
 2634SOL     OW18370   3.366   4.957   3.262
 2634SOL    HW118371   3.286   5.015   3.272
 2634SOL    HW218372   3.338   4.866   3.232
 2635SOL     OW18373   3.156   3.235   2.019
 2635SOL    HW118374   3.082   3.239   1.952
 2635SOL    HW218375   3.185   3.328   2.042
 2636SOL     OW18376   5.671   7.517   1.730
 2636SOL    HW118377   5.735   7.545   1.802
 2636SOL    HW218378   5.581   7.559   1.748
 2637SOL     OW18379   4.445   9.879   1.926
 2637SOL    HW118380   4.491   9.906   2.011
 2637SOL    HW218381   4.506   9.820   1.873
 2638SOL     OW18382   3.021   3.412   0.489
 2638SOL    HW118383   3.011   3.314   0.509
 2638SOL    HW218384   3.018   3.426   0.390
 2639SOL     OW18385   1.086   9.003   2.141
 2639SOL    HW118386   1.155   9.048   2.085
 2639SOL    HW218387   1.098   8.904   2.137
 2640SOL     OW18388   3.337   2.706   2.907
 2640SOL    HW118389   3.339   2.616   2.863
 2640SOL    HW218390   3.420   2.757   2.883
 2641SOL     OW18391   1.150   8.629   0.746
 2641SOL    HW118392   1.088   8.559   0.712
 2641SOL    HW218393   1.237   8.624   0.696
 2642SOL     OW18394   8.601   2.850   0.078
 2642SOL    HW118395   8.590   2.813   4.767
 2642SOL    HW218396   8.512   2.884   0.111
 2643SOL     OW18397   0.055   3.224   1.761
 2643SOL    HW118398   0.138   3.211   1.707
 2643SOL    HW218399   9.976   3.226   1.700
 2644SOL     OW18400   6.341   6.913   2.526
 2644SOL    HW118401   6.265   6.973   2.550
 2644SOL    HW218402   6.427   6.953   2.558
 2645SOL     OW18403   8.366   4.630   2.816
 2645SOL    HW118404   8.286   4.645   2.760
 2645SOL    HW218405   8.408   4.542   2.792
 2646SOL     OW18406   4.251   6.627   1.939
 2646SOL    HW118407   4.168   6.629   1.995
 2646SOL    HW218408   4.230   6.661   1.847
 2647SOL     OW18409   9.301   6.708   0.692
 2647SOL    HW118410   9.294   6.808   0.701
 2647SOL    HW218411   9.218   6.673   0.647
 2648SOL     OW18412   4.697   1.616   1.625
 2648SOL    HW118413   4.625   1.650   1.685
 2648SOL    HW218414   4.664   1.614   1.531
 2649SOL     OW18415   6.959   9.661   0.109
 2649SOL    HW118416   6.923   9.631   0.198
 2649SOL    HW218417   6.915   9.747   0.082
 2650SOL     OW18418   0.289   2.817   3.089
 2650SOL    HW118419   0.193   2.791   3.099
 2650SOL    HW218420   0.342   2.739   3.058
 2651SOL     OW18421   0.292   1.318   3.066
 2651SOL    HW118422   0.347   1.273   3.136
 2651SOL    HW218423   0.228   1.252   3.026
 2652SOL     OW18424   8.575   4.698   1.872
 2652SOL    HW118425   8.489   4.654   1.897
 2652SOL    HW218426   8.638   4.695   1.949
 2653SOL     OW18427   2.288   7.438   1.979
 2653SOL    HW118428   2.323   7.426   2.072
 2653SOL    HW218429   2.316   7.528   1.944
 2654SOL     OW18430   7.654   7.309   2.924
 2654SOL    HW118431   7.718   7.243   2.884
 2654SOL    HW218432   7.702   7.395   2.941
 2655SOL     OW18433   0.073   8.384   0.574
 2655SOL    HW118434   9.979   8.350   0.579
 2655SOL    HW218435   0.085   8.436   0.489
 2656SOL     OW18436   6.369   8.338   2.000
 2656SOL    HW118437   6.462   8.306   1.985
 2656SOL    HW218438   6.344   8.405   1.930
 2657SOL     OW18439   2.704   7.287   0.237
 2657SOL    HW118440   2.644   7.208   0.244
 2657SOL    HW218441   2.650   7.371   0.250
 2658SOL     OW18442   2.538   8.361   1.940
 2658SOL    HW118443   2.599   8.322   1.871
 2658SOL    HW218444   2.546   8.460   1.940
 2659SOL     OW18445   0.721   8.572   1.754
 2659SOL    HW118446   0.694   8.516   1.832
 2659SOL    HW218447   0.779   8.647   1.784
 2660SOL     OW18448   2.452   1.872   2.998
 2660SOL    HW118449   2.480   1.877   2.902
 2660SOL    HW218450   2.473   1.959   3.043
 2661SOL     OW18451   3.792   5.349   1.957
 2661SOL    HW118452   3.812   5.304   1.870
 2661SOL    HW218453   3.842   5.435   1.963
 2662SOL     OW18454   1.688   6.330   2.556
 2662SOL    HW118455   1.699   6.349   2.654
 2662SOL    HW218456   1.763   6.372   2.505
 2663SOL     OW18457   1.473   0.023   1.038
 2663SOL    HW118458   1.462   0.021   0.938
 2663SOL    HW218459   1.401   0.080   1.078
 2664SOL     OW18460   3.695   3.164   1.376
 2664SOL    HW118461   3.623   3.119   1.323
 2664SOL    HW218462   3.732   3.100   1.443
 2665SOL     OW18463   1.587   8.131   0.252
 2665SOL    HW118464   1.504   8.116   0.305
 2665SOL    HW218465   1.661   8.074   0.289
 2666SOL     OW18466   2.420   5.425   0.700
 2666SOL    HW118467   2.379   5.352   0.645
 2666SOL    HW218468   2.520   5.413   0.702
 2667SOL     OW18469   9.506   7.347   2.308
 2667SOL    HW118470   9.474   7.401   2.231
 2667SOL    HW218471   9.563   7.404   2.367
 2668SOL     OW18472   8.936   2.983   0.641
 2668SOL    HW118473   8.934   3.042   0.560
 2668SOL    HW218474   9.010   2.917   0.633
 2669SOL     OW18475   4.256   4.016   0.103
 2669SOL    HW118476   4.195   4.078   0.153
 2669SOL    HW218477   4.218   3.924   0.103
 2670SOL     OW18478   4.352   0.395   1.562
 2670SOL    HW118479   4.398   0.373   1.648
 2670SOL    HW218480   4.254   0.376   1.571
 2671SOL     OW18481   0.581   6.288   1.925
 2671SOL    HW118482   0.588   6.274   1.827
 2671SOL    HW218483   0.506   6.233   1.962
 2672SOL     OW18484   2.111   8.759   1.375
 2672SOL    HW118485   2.130   8.819   1.298
 2672SOL    HW218486   2.144   8.801   1.460
 2673SOL     OW18487   1.499   8.654   1.365
 2673SOL    HW118488   1.470   8.650   1.461
 2673SOL    HW218489   1.499   8.749   1.334
 2674SOL     OW18490   9.789   2.046   0.051
 2674SOL    HW118491   9.831   2.015   4.747
 2674SOL    HW218492   9.853   2.032   0.126
 2675SOL     OW18493   8.359   9.718   2.042
 2675SOL    HW118494   8.446   9.758   2.015
 2675SOL    HW218495   8.337   9.745   2.136
 2676SOL     OW18496   6.350   8.931   1.810
 2676SOL    HW118497   6.390   8.841   1.797
 2676SOL    HW218498   6.302   8.934   1.897
 2677SOL     OW18499   5.642   0.871   2.067
 2677SOL    HW118500   5.581   0.936   2.110
 2677SOL    HW218501   5.597   0.830   1.988
 2678SOL     OW18502   3.689   9.927   3.169
 2678SOL    HW118503   3.750   0.005   3.153
 2678SOL    HW218504   3.692   9.901   3.265
 2679SOL     OW18505   4.480   3.307   2.249
 2679SOL    HW118506   4.495   3.406   2.247
 2679SOL    HW218507   4.445   3.280   2.339
 2680SOL     OW18508   3.937   4.161   2.563
 2680SOL    HW118509   3.896   4.200   2.645
 2680SOL    HW218510   3.985   4.076   2.587
 2681SOL     OW18511   2.540   0.418   0.985
 2681SOL    HW118512   2.495   0.400   1.073
 2681SOL    HW218513   2.485   0.482   0.932
 2682SOL     OW18514   1.577   7.732   3.015
 2682SOL    HW118515   1.575   7.661   3.086
 2682SOL    HW218516   1.590   7.821   3.057
 2683SOL     OW18517   0.688   0.596   2.336
 2683SOL    HW118518   0.673   0.695   2.336
 2683SOL    HW218519   0.639   0.554   2.413
 2684SOL     OW18520   2.175   7.057   0.141
 2684SOL    HW118521   2.260   7.005   0.148
 2684SOL    HW218522   2.197   7.155   0.140
 2685SOL     OW18523   9.360   4.178   2.496
 2685SOL    HW118524   9.323   4.216   2.411
 2685SOL    HW218525   9.434   4.115   2.475
 2686SOL     OW18526   2.920   6.322   1.241
 2686SOL    HW118527   2.912   6.335   1.340
 2686SOL    HW218528   2.940   6.409   1.197
 2687SOL     OW18529   6.543   8.671   2.656
 2687SOL    HW118530   6.562   8.699   2.750
 2687SOL    HW218531   6.623   8.628   2.616
 2688SOL     OW18532   0.488   2.736   1.476
 2688SOL    HW118533   0.551   2.738   1.398
 2688SOL    HW218534   0.526   2.792   1.550
 2689SOL     OW18535   3.129   3.864   1.371
 2689SOL    HW118536   3.091   3.800   1.305
 2689SOL    HW218537   3.218   3.897   1.338
 2690SOL     OW18538   3.801   3.415   1.411
 2690SOL    HW118539   3.874   3.404   1.478
 2690SOL    HW218540   3.752   3.328   1.401
 2691SOL     OW18541   2.324   9.662   1.913
 2691SOL    HW118542   2.257   9.592   1.938
 2691SOL    HW218543   2.316   9.684   1.816
 2692SOL     OW18544   9.757   2.478   2.583
 2692SOL    HW118545   9.672   2.432   2.557
 2692SOL    HW218546   9.763   2.485   2.683
 2693SOL     OW18547   4.227   2.001   2.874
 2693SOL    HW118548   4.268   2.076   2.823
 2693SOL    HW218549   4.289   1.923   2.875
 2694SOL     OW18550   1.487   5.114   1.480
 2694SOL    HW118551   1.567   5.154   1.523
 2694SOL    HW218552   1.512   5.076   1.391
 2695SOL     OW18553   8.183   9.907   3.375
 2695SOL    HW118554   8.090   9.889   3.342
 2695SOL    HW218555   8.185   9.993   3.426
 2696SOL     OW18556   5.231   2.627   1.703
 2696SOL    HW118557   5.292   2.652   1.628
 2696SOL    HW218558   5.203   2.531   1.693
 2697SOL     OW18559   6.195   7.580   2.767
 2697SOL    HW118560   6.104   7.555   2.800
 2697SOL    HW218561   6.199   7.678   2.750
 2698SOL     OW18562   3.229   5.536   3.624
 2698SOL    HW118563   3.264   5.622   3.662
 2698SOL    HW218564   3.215   5.546   3.526
 2699SOL     OW18565   3.147   4.871   2.535
 2699SOL    HW118566   3.167   4.933   2.458
 2699SOL    HW218567   3.227   4.866   2.595
 2700SOL     OW18568   4.638   3.075   1.153
 2700SOL    HW118569   4.710   3.074   1.083
 2700SOL    HW218570   4.647   2.994   1.211
 2701SOL     OW18571   2.689   0.135   2.433
 2701SOL    HW118572   2.629   0.208   2.399
 2701SOL    HW218573   2.743   0.170   2.510
 2702SOL     OW18574   1.684   7.467   2.389
 2702SOL    HW118575   1.622   7.391   2.410
 2702SOL    HW218576   1.668   7.496   2.295
 2703SOL     OW18577   6.160   0.051   3.299
 2703SOL    HW118578   6.206   9.963   3.286
 2703SOL    HW218579   6.221   0.125   3.273
 2704SOL     OW18580   0.767   8.525   0.162
 2704SOL    HW118581   0.706   8.601   0.136
 2704SOL    HW218582   0.845   8.523   0.100
 2705SOL     OW18583   8.682   5.047   1.958
 2705SOL    HW118584   8.585   5.053   1.935
 2705SOL    HW218585   8.733   5.013   1.879
 2706SOL     OW18586   3.721   9.097   1.109
 2706SOL    HW118587   3.816   9.108   1.137
 2706SOL    HW218588   3.718   9.067   1.014
 2707SOL     OW18589   5.444   7.969   2.652
 2707SOL    HW118590   5.409   8.014   2.569
 2707SOL    HW218591   5.423   8.025   2.732
 2708SOL     OW18592   4.800   2.225   1.264
 2708SOL    HW118593   4.764   2.302   1.212
 2708SOL    HW218594   4.868   2.176   1.209
 2709SOL     OW18595   1.702   7.691   2.134
 2709SOL    HW118596   1.684   7.691   2.035
 2709SOL    HW218597   1.616   7.688   2.184
 2710SOL     OW18598   4.153   6.824   3.296
 2710SOL    HW118599   4.252   6.834   3.307
 2710SOL    HW218600   4.107   6.905   3.331
 2711SOL     OW18601   0.344   2.466   2.377
 2711SOL    HW118602   0.391   2.551   2.356
 2711SOL    HW218603   0.289   2.478   2.460
 2712SOL     OW18604   0.126   3.478   2.484
 2712SOL    HW118605   0.065   3.449   2.410
 2712SOL    HW218606   0.209   3.519   2.445
 2713SOL     OW18607   0.864   0.640   1.012
 2713SOL    HW118608   0.808   0.600   1.085
 2713SOL    HW218609   0.896   0.567   0.951
 2714SOL     OW18610   2.733   0.764   1.571
 2714SOL    HW118611   2.789   0.810   1.640
 2714SOL    HW218612   2.651   0.817   1.553
 2715SOL     OW18613   1.074   7.813   2.169
 2715SOL    HW118614   0.992   7.808   2.112
 2715SOL    HW218615   1.151   7.848   2.115
 2716SOL     OW18616   6.029   7.249   2.809
 2716SOL    HW118617   6.092   7.197   2.866
 2716SOL    HW218618   5.936   7.212   2.820
 2717SOL     OW18619   5.328   8.195   1.853
 2717SOL    HW118620   5.297   8.290   1.843
 2717SOL    HW218621   5.403   8.191   1.918
 2718SOL     OW18622   9.916   6.045   2.769
 2718SOL    HW118623   9.828   6.032   2.814
 2718SOL    HW218624   9.937   5.965   2.713
 2719SOL     OW18625   5.071   6.893   2.397
 2719SOL    HW118626   5.143   6.936   2.452
 2719SOL    HW218627   5.097   6.896   2.300
 2720SOL     OW18628   9.847   2.604   1.734
 2720SOL    HW118629   9.857   2.643   1.826
 2720SOL    HW218630   9.750   2.608   1.707
 2721SOL     OW18631   2.818   3.322   2.138
 2721SOL    HW118632   2.886   3.342   2.067
 2721SOL    HW218633   2.861   3.330   2.228
 2722SOL     OW18634   0.419   3.282   3.284
 2722SOL    HW118635   0.456   3.349   3.349
 2722SOL    HW218636   0.474   3.282   3.201
 2723SOL     OW18637   7.488   8.051   2.231
 2723SOL    HW118638   7.491   8.147   2.201
 2723SOL    HW218639   7.517   8.045   2.326
 2724SOL     OW18640   4.459   0.989   2.199
 2724SOL    HW118641   4.520   1.064   2.175
 2724SOL    HW218642   4.453   0.925   2.122
 2725SOL     OW18643   8.206   5.978   0.988
 2725SOL    HW118644   8.214   5.938   0.896
 2725SOL    HW218645   8.274   5.936   1.048
 2726SOL     OW18646   2.721   9.065   0.560
 2726SOL    HW118647   2.792   9.000   0.589
 2726SOL    HW218648   2.743   9.101   0.470
 2727SOL     OW18649   1.468   5.874   0.878
 2727SOL    HW118650   1.482   5.865   0.977
 2727SOL    HW218651   1.370   5.873   0.858
 2728SOL     OW18652   3.673   7.055   2.187
 2728SOL    HW118653   3.671   7.083   2.091
 2728SOL    HW218654   3.718   7.126   2.241
 2729SOL     OW18655   0.668   2.158   0.345
 2729SOL    HW118656   0.753   2.201   0.316
 2729SOL    HW218657   0.596   2.227   0.348
 2730SOL     OW18658   8.091   9.875   1.279
 2730SOL    HW118659   8.141   9.956   1.248
 2730SOL    HW218660   8.014   9.904   1.336
 2731SOL     OW18661   7.327   8.537   3.255
 2731SOL    HW118662   7.357   8.632   3.264
 2731SOL    HW218663   7.368   8.482   3.328
 2732SOL     OW18664   9.403   4.455   0.549
 2732SOL    HW118665   9.308   4.425   0.560
 2732SOL    HW218666   9.410   4.513   0.468
 2733SOL     OW18667   8.364   3.442   1.776
 2733SOL    HW118668   8.334   3.398   1.692
 2733SOL    HW218669   8.289   3.497   1.814
 2734SOL     OW18670   2.964   0.321   1.136
 2734SOL    HW118671   2.961   0.310   1.037
 2734SOL    HW218672   2.888   0.270   1.177
 2735SOL     OW18673   3.581   9.298   0.547
 2735SOL    HW118674   3.584   9.253   0.458
 2735SOL    HW218675   3.597   9.396   0.536
 2736SOL     OW18676   4.745   9.825   2.568
 2736SOL    HW118677   4.759   9.862   2.660
 2736SOL    HW218678   4.716   9.729   2.575
 2737SOL     OW18679   8.454   8.455   3.559
 2737SOL    HW118680   8.434   8.553   3.552
 2737SOL    HW218681   8.550   8.442   3.580
 2738SOL     OW18682   0.107   7.390   1.047
 2738SOL    HW118683   0.063   7.462   1.100
 2738SOL    HW218684   0.115   7.308   1.103
 2739SOL     OW18685   8.473   7.598   3.481
 2739SOL    HW118686   8.431   7.518   3.525
 2739SOL    HW218687   8.460   7.679   3.538
 2740SOL     OW18688   1.911   5.191   1.445
 2740SOL    HW118689   1.978   5.225   1.511
 2740SOL    HW218690   1.928   5.233   1.356
 2741SOL     OW18691   3.285   0.723   2.238
 2741SOL    HW118692   3.270   0.796   2.172
 2741SOL    HW218693   3.213   0.655   2.230
 2742SOL     OW18694   0.672   2.133   0.711
 2742SOL    HW118695   0.591   2.188   0.692
 2742SOL    HW218696   0.653   2.037   0.690
 2743SOL     OW18697   9.137   9.176   0.589
 2743SOL    HW118698   9.218   9.213   0.634
 2743SOL    HW218699   9.101   9.244   0.526
 2744SOL     OW18700   6.485   9.693   2.929
 2744SOL    HW118701   6.437   9.606   2.918
 2744SOL    HW218702   6.501   9.735   2.840
 2745SOL     OW18703   2.371   0.575   1.651
 2745SOL    HW118704   2.320   0.529   1.724
 2745SOL    HW218705   2.336   0.545   1.562
 2746SOL     OW18706   1.157   5.109   3.184
 2746SOL    HW118707   1.224   5.171   3.224
 2746SOL    HW218708   1.079   5.099   3.246
 2747SOL     OW18709   1.686   4.832   1.792
 2747SOL    HW118710   1.599   4.784   1.792
 2747SOL    HW218711   1.745   4.794   1.863
 2748SOL     OW18712   8.916   9.220   2.282
 2748SOL    HW118713   8.966   9.150   2.331
 2748SOL    HW218714   8.823   9.227   2.319
 2749SOL     OW18715   3.861   8.678   0.796
 2749SOL    HW118716   3.894   8.602   0.741
 2749SOL    HW218717   3.907   8.679   0.884
 2750SOL     OW18718   7.842   2.086   0.046
 2750SOL    HW118719   7.775   2.018   0.076
 2750SOL    HW218720   7.804   2.140   4.753
 2751SOL     OW18721   4.279   1.166   0.906
 2751SOL    HW118722   4.251   1.105   0.980
 2751SOL    HW218723   4.329   1.113   0.837
 2752SOL     OW18724   2.271   3.066   3.527
 2752SOL    HW118725   2.350   3.057   3.587
 2752SOL    HW218726   2.265   2.985   3.467
 2753SOL     OW18727   3.282   9.091   3.290
 2753SOL    HW118728   3.226   9.125   3.366
 2753SOL    HW218729   3.268   8.992   3.280
 2754SOL     OW18730   0.569   4.432   0.690
 2754SOL    HW118731   0.571   4.333   0.709
 2754SOL    HW218732   0.589   4.482   0.775
 2755SOL     OW18733   2.328   9.943   1.955
 2755SOL    HW118734   2.418   9.952   1.997
 2755SOL    HW218735   2.306   9.846   1.943
 2756SOL     OW18736   7.188   0.196   1.276
 2756SOL    HW118737   7.240   0.116   1.308
 2756SOL    HW218738   7.216   0.218   1.183
 2757SOL     OW18739   1.032   3.248   1.597
 2757SOL    HW118740   0.961   3.278   1.661
 2757SOL    HW218741   1.002   3.165   1.550
 2758SOL     OW18742   8.409   9.073   3.137
 2758SOL    HW118743   8.466   9.110   3.210
 2758SOL    HW218744   8.315   9.061   3.171
 2759SOL     OW18745   9.975   9.207   0.558
 2759SOL    HW118746   0.008   9.146   0.487
 2759SOL    HW218747   9.977   9.160   0.646
 2760SOL     OW18748   2.589   7.187   3.689
 2760SOL    HW118749   2.501   7.142   3.675
 2760SOL    HW218750   2.603   7.204   3.786
 2761SOL     OW18751   6.330   0.263   3.255
 2761SOL    HW118752   6.312   0.297   3.347
 2761SOL    HW218753   6.312   0.335   3.188
 2762SOL     OW18754   9.802   9.960   2.015
 2762SOL    HW118755   9.783   0.035   1.952
 2762SOL    HW218756   9.737   9.962   2.091
 2763SOL     OW18757   0.107   9.483   1.587
 2763SOL    HW118758   0.020   9.434   1.595
 2763SOL    HW218759   0.129   9.495   1.490
 2764SOL     OW18760   7.514   7.218   2.662
 2764SOL    HW118761   7.525   7.120   2.677
 2764SOL    HW218762   7.556   7.269   2.737
 2765SOL     OW18763   1.402   1.575   1.072
 2765SOL    HW118764   1.456   1.586   1.155
 2765SOL    HW218765   1.422   1.650   1.009
 2766SOL     OW18766   2.516   4.041   1.909
 2766SOL    HW118767   2.605   4.085   1.893
 2766SOL    HW218768   2.528   3.942   1.913
 2767SOL     OW18769   9.952   9.788   1.047
 2767SOL    HW118770   9.929   9.704   0.998
 2767SOL    HW218771   9.946   9.772   1.146
 2768SOL     OW18772   3.140   3.485   2.694
 2768SOL    HW118773   3.217   3.480   2.630
 2768SOL    HW218774   3.113   3.580   2.706
 2769SOL     OW18775   1.953   6.241   2.882
 2769SOL    HW118776   2.012   6.316   2.913
 2769SOL    HW218777   1.862   6.277   2.864
 2770SOL     OW18778   4.132   8.563   1.401
 2770SOL    HW118779   4.184   8.644   1.372
 2770SOL    HW218780   4.039   8.568   1.363
 2771SOL     OW18781   1.547   3.351   2.792
 2771SOL    HW118782   1.531   3.444   2.827
 2771SOL    HW218783   1.641   3.345   2.758
 2772SOL     OW18784   4.280   4.100   0.649
 2772SOL    HW118785   4.271   4.007   0.684
 2772SOL    HW218786   4.332   4.100   0.564
 2773SOL     OW18787   6.703   9.630   1.206
 2773SOL    HW118788   6.679   9.618   1.302
 2773SOL    HW218789   6.649   9.567   1.150
 2774SOL     OW18790   8.189   3.482   2.389
 2774SOL    HW118791   8.099   3.522   2.406
 2774SOL    HW218792   8.190   3.387   2.421
 2775SOL     OW18793   9.736   3.524   1.361
 2775SOL    HW118794   9.835   3.521   1.367
 2775SOL    HW218795   9.699   3.433   1.378
 2776SOL     OW18796   2.736   1.451   0.871
 2776SOL    HW118797   2.664   1.474   0.805
 2776SOL    HW218798   2.815   1.510   0.856
 2777SOL     OW18799   6.184   8.083   1.847
 2777SOL    HW118800   6.246   8.147   1.802
 2777SOL    HW218801   6.221   8.057   1.936
 2778SOL     OW18802   8.770   5.764   2.220
 2778SOL    HW118803   8.744   5.724   2.132
 2778SOL    HW218804   8.861   5.805   2.212
 2779SOL     OW18805   9.182   1.409   3.166
 2779SOL    HW118806   9.183   1.502   3.200
 2779SOL    HW218807   9.218   1.347   3.236
 2780SOL     OW18808   8.420   3.454   0.520
 2780SOL    HW118809   8.409   3.362   0.483
 2780SOL    HW218810   8.466   3.449   0.609
 2781SOL     OW18811   0.697   1.194   3.256
 2781SOL    HW118812   0.682   1.167   3.161
 2781SOL    HW218813   0.753   1.277   3.259
 2782SOL     OW18814   1.530   3.911   2.053
 2782SOL    HW118815   1.603   3.904   2.121
 2782SOL    HW218816   1.566   3.948   1.968
 2783SOL     OW18817   4.282   0.677   3.329
 2783SOL    HW118818   4.232   0.602   3.286
 2783SOL    HW218819   4.298   0.749   3.261
 2784SOL     OW18820   3.482   7.719   0.834
 2784SOL    HW118821   3.427   7.677   0.907
 2784SOL    HW218822   3.496   7.652   0.761
 2785SOL     OW18823   4.048   3.202   0.541
 2785SOL    HW118824   4.105   3.174   0.463
 2785SOL    HW218825   4.107   3.233   0.615
 2786SOL     OW18826   0.093   4.571   2.889
 2786SOL    HW118827   0.166   4.519   2.845
 2786SOL    HW218828   0.066   4.648   2.831
 2787SOL     OW18829   5.563   9.543   1.789
 2787SOL    HW118830   5.628   9.618   1.776
 2787SOL    HW218831   5.483   9.576   1.839
 2788SOL     OW18832   0.430   4.662   2.050
 2788SOL    HW118833   0.421   4.671   2.149
 2788SOL    HW218834   0.501   4.724   2.018
 2789SOL     OW18835   1.544   7.260   1.628
 2789SOL    HW118836   1.483   7.268   1.549
 2789SOL    HW218837   1.515   7.183   1.685
 2790SOL     OW18838   0.515   3.180   1.479
 2790SOL    HW118839   0.599   3.153   1.526
 2790SOL    HW218840   0.509   3.279   1.476
 2791SOL     OW18841   9.486   4.197   0.519
 2791SOL    HW118842   9.414   4.154   0.464
 2791SOL    HW218843   9.468   4.295   0.525
 2792SOL     OW18844   2.177   0.258   2.256
 2792SOL    HW118845   2.261   0.256   2.201
 2792SOL    HW218846   2.097   0.257   2.196
 2793SOL     OW18847   8.628   3.530   1.340
 2793SOL    HW118848   8.672   3.619   1.327
 2793SOL    HW218849   8.529   3.541   1.340
 2794SOL     OW18850   8.544   9.627   3.454
 2794SOL    HW118851   8.586   9.692   3.389
 2794SOL    HW218852   8.545   9.535   3.415
 2795SOL     OW18853   1.371   9.074   3.491
 2795SOL    HW118854   1.433   9.087   3.413
 2795SOL    HW218855   1.333   9.163   3.518
 2796SOL     OW18856   3.847   5.215   1.725
 2796SOL    HW118857   3.807   5.193   1.636
 2796SOL    HW218858   3.946   5.225   1.715
 2797SOL     OW18859   3.193   2.082   1.762
 2797SOL    HW118860   3.226   2.126   1.846
 2797SOL    HW218861   3.179   2.150   1.691
 2798SOL     OW18862   4.476   8.289   3.532
 2798SOL    HW118863   4.576   8.290   3.526
 2798SOL    HW218864   4.443   8.196   3.517
 2799SOL     OW18865   9.746   8.112   0.799
 2799SOL    HW118866   9.822   8.092   0.861
 2799SOL    HW218867   9.667   8.142   0.852
 2800SOL     OW18868   8.596   1.266   2.343
 2800SOL    HW118869   8.569   1.255   2.247
 2800SOL    HW218870   8.533   1.216   2.402
 2801SOL     OW18871   1.261   3.023   2.713
 2801SOL    HW118872   1.259   2.934   2.668
 2801SOL    HW218873   1.344   3.030   2.769
 2802SOL     OW18874   3.297   4.368   2.357
 2802SOL    HW118875   3.266   4.389   2.450
 2802SOL    HW218876   3.303   4.452   2.304
 2803SOL     OW18877   1.035   2.676   0.410
 2803SOL    HW118878   1.035   2.689   0.509
 2803SOL    HW218879   1.129   2.669   0.378
 2804SOL     OW18880   4.980   0.273   1.740
 2804SOL    HW118881   5.053   0.293   1.675
 2804SOL    HW218882   4.902   0.333   1.723
 2805SOL     OW18883   3.247   5.083   2.376
 2805SOL    HW118884   3.236   5.136   2.460
 2805SOL    HW218885   3.300   5.136   2.310
 2806SOL     OW18886   8.767   4.480   3.022
 2806SOL    HW118887   8.733   4.392   3.056
 2806SOL    HW218888   8.826   4.521   3.092
 2807SOL     OW18889   9.004   9.372   3.495
 2807SOL    HW118890   8.962   9.388   3.406
 2807SOL    HW218891   8.940   9.323   3.554
 2808SOL     OW18892   8.106   2.393   0.845
 2808SOL    HW118893   8.155   2.321   0.796
 2808SOL    HW218894   8.016   2.406   0.803
 2809SOL     OW18895   2.032   1.898   0.607
 2809SOL    HW118896   1.997   1.991   0.595
 2809SOL    HW218897   1.959   1.832   0.591
 2810SOL     OW18898   2.447   4.818   2.603
 2810SOL    HW118899   2.371   4.800   2.541
 2810SOL    HW218900   2.431   4.770   2.689
 2811SOL     OW18901   8.508   4.149   0.551
 2811SOL    HW118902   8.595   4.147   0.501
 2811SOL    HW218903   8.456   4.067   0.530
 2812SOL     OW18904   0.157   2.830   0.660
 2812SOL    HW118905   0.099   2.857   0.583
 2812SOL    HW218906   0.248   2.868   0.648
 2813SOL     OW18907   0.932   8.735   1.167
 2813SOL    HW118908   0.961   8.827   1.194
 2813SOL    HW218909   0.921   8.732   1.068
 2814SOL     OW18910   9.765   7.228   1.661
 2814SOL    HW118911   9.725   7.264   1.745
 2814SOL    HW218912   9.761   7.297   1.589
 2815SOL     OW18913   2.632   7.352   2.069
 2815SOL    HW118914   2.606   7.448   2.077
 2815SOL    HW218915   2.648   7.329   1.973
 2816SOL     OW18916   1.101   5.984   0.181
 2816SOL    HW118917   1.158   5.911   0.219
 2816SOL    HW218918   1.159   6.061   0.153
 2817SOL     OW18919   0.082   4.963   0.588
 2817SOL    HW118920   0.156   4.940   0.651
 2817SOL    HW218921   0.120   5.012   0.509
 2818SOL     OW18922   1.888   8.394   3.324
 2818SOL    HW118923   1.900   8.477   3.377
 2818SOL    HW218924   1.791   8.380   3.305
 2819SOL     OW18925   5.650   0.656   3.379
 2819SOL    HW118926   5.606   0.590   3.318
 2819SOL    HW218927   5.709   0.607   3.443
 2820SOL     OW18928   0.164   1.385   1.682
 2820SOL    HW118929   0.198   1.469   1.726
 2820SOL    HW218930   0.201   1.306   1.729
 2821SOL     OW18931   1.449   3.605   2.894
 2821SOL    HW118932   1.389   3.649   2.828
 2821SOL    HW218933   1.465   3.666   2.972
 2822SOL     OW18934   9.005   8.132   3.335
 2822SOL    HW118935   9.056   8.094   3.412
 2822SOL    HW218936   8.920   8.080   3.323
 2823SOL     OW18937   7.517   9.428   2.741
 2823SOL    HW118938   7.534   9.391   2.832
 2823SOL    HW218939   7.543   9.524   2.738
 2824SOL     OW18940   1.896   0.907   2.176
 2824SOL    HW118941   1.921   0.811   2.187
 2824SOL    HW218942   1.905   0.933   2.080
 2825SOL     OW18943   4.823   9.021   1.880
 2825SOL    HW118944   4.826   9.015   1.980
 2825SOL    HW218945   4.729   9.007   1.849
 2826SOL     OW18946   2.330   8.954   2.433
 2826SOL    HW118947   2.322   8.896   2.514
 2826SOL    HW218948   2.296   8.904   2.353
 2827SOL     OW18949   5.310   7.517   2.960
 2827SOL    HW118950   5.229   7.563   2.997
 2827SOL    HW218951   5.373   7.584   2.923
 2828SOL     OW18952   0.145   2.155   3.182
 2828SOL    HW118953   0.197   2.184   3.101
 2828SOL    HW218954   0.203   2.099   3.240
 2829SOL     OW18955   3.424   4.021   2.952
 2829SOL    HW118956   3.430   3.941   3.012
 2829SOL    HW218957   3.438   4.104   3.007
 2830SOL     OW18958   2.904   5.635   1.043
 2830SOL    HW118959   2.846   5.559   1.074
 2830SOL    HW218960   2.865   5.721   1.075
 2831SOL     OW18961   1.302   2.658   0.333
 2831SOL    HW118962   1.317   2.560   0.319
 2831SOL    HW218963   1.353   2.688   0.413
 2832SOL     OW18964   3.014   8.896   1.834
 2832SOL    HW118965   2.996   8.940   1.922
 2832SOL    HW218966   2.936   8.910   1.773
 2833SOL     OW18967   3.303   6.249   2.209
 2833SOL    HW118968   3.317   6.346   2.190
 2833SOL    HW218969   3.205   6.228   2.203
 2834SOL     OW18970   2.877   4.270   3.415
 2834SOL    HW118971   2.956   4.273   3.353
 2834SOL    HW218972   2.895   4.204   3.488
 2835SOL     OW18973   5.101   8.239   3.324
 2835SOL    HW118974   5.077   8.303   3.251
 2835SOL    HW218975   5.023   8.181   3.345
 2836SOL     OW18976   2.387   0.325   0.543
 2836SOL    HW118977   2.321   0.342   0.616
 2836SOL    HW218978   2.416   0.412   0.502
 2837SOL     OW18979   0.998   3.673   3.019
 2837SOL    HW118980   1.001   3.712   2.927
 2837SOL    HW218981   1.068   3.717   3.076
 2838SOL     OW18982   1.434   3.281   2.388
 2838SOL    HW118983   1.533   3.295   2.399
 2838SOL    HW218984   1.389   3.293   2.477
 2839SOL     OW18985   4.795   8.002   0.248
 2839SOL    HW118986   4.726   8.036   0.311
 2839SOL    HW218987   4.750   7.948   0.176
 2840SOL     OW18988   8.497   6.041   3.568
 2840SOL    HW118989   8.505   6.114   3.635
 2840SOL    HW218990   8.421   6.061   3.505
 2841SOL     OW18991   9.292   9.304   2.203
 2841SOL    HW118992   9.309   9.214   2.162
 2841SOL    HW218993   9.233   9.294   2.283
 2842SOL     OW18994   8.174   4.230   0.673
 2842SOL    HW118995   8.219   4.143   0.696
 2842SOL    HW218996   8.143   4.227   0.578
 2843SOL     OW18997   7.846   2.644   0.411
 2843SOL    HW118998   7.780   2.583   0.454
 2843SOL    HW218999   7.854   2.623   0.314
 2844SOL     OW19000   5.651   8.153   2.955
 2844SOL    HW119001   5.750   8.142   2.940
 2844SOL    HW219002   5.626   8.110   3.042
 2845SOL     OW19003   8.593   9.142   3.337
 2845SOL    HW119004   8.677   9.087   3.338
 2845SOL    HW219005   8.562   9.156   3.431
 2846SOL     OW19006   4.139   0.046   0.250
 2846SOL    HW119007   4.127   0.017   0.345
 2846SOL    HW219008   4.055   0.088   0.217
 2847SOL     OW19009   2.640   4.037   2.435
 2847SOL    HW119010   2.668   4.105   2.502
 2847SOL    HW219011   2.691   3.952   2.449
 2848SOL     OW19012   6.743   9.599   2.981
 2848SOL    HW119013   6.651   9.637   2.968
 2848SOL    HW219014   6.767   9.543   2.901
 2849SOL     OW19015   2.669   1.045   0.440
 2849SOL    HW119016   2.650   1.053   0.538
 2849SOL    HW219017   2.713   0.957   0.421
 2850SOL     OW19018   0.071   2.040   1.487
 2850SOL    HW119019   0.121   2.043   1.574
 2850SOL    HW219020   0.131   2.070   1.413
 2851SOL     OW19021   1.426   6.133   1.232
 2851SOL    HW119022   1.422   6.232   1.243
 2851SOL    HW219023   1.334   6.095   1.243
 2852SOL     OW19024   7.632   8.774   3.477
 2852SOL    HW119025   7.693   8.844   3.440
 2852SOL    HW219026   7.577   8.813   3.551
 2853SOL     OW19027   1.490   1.968   0.262
 2853SOL    HW119028   1.493   1.895   0.195
 2853SOL    HW219029   1.428   2.040   0.231
 2854SOL     OW19030   6.090   9.505   2.974
 2854SOL    HW119031   6.086   9.579   2.908
 2854SOL    HW219032   6.184   9.473   2.984
 2855SOL     OW19033   9.755   0.526   1.764
 2855SOL    HW119034   9.656   0.533   1.767
 2855SOL    HW219035   9.790   0.583   1.689
 2856SOL     OW19036   9.593   4.970   1.355
 2856SOL    HW119037   9.608   4.910   1.434
 2856SOL    HW219038   9.502   4.953   1.317
 2857SOL     OW19039   2.699   8.786   1.278
 2857SOL    HW119040   2.625   8.719   1.283
 2857SOL    HW219041   2.695   8.834   1.191
 2858SOL     OW19042   9.813   5.822   3.478
 2858SOL    HW119043   9.774   5.781   3.560
 2858SOL    HW219044   9.894   5.874   3.501
 2859SOL     OW19045   3.615   3.017   3.082
 2859SOL    HW119046   3.635   3.013   3.180
 2859SOL    HW219047   3.533   3.071   3.067
 2860SOL     OW19048   0.986   3.171   2.423
 2860SOL    HW119049   0.901   3.131   2.391
 2860SOL    HW219050   0.988   3.269   2.400
 2861SOL     OW19051   0.778   0.734   1.398
 2861SOL    HW119052   0.873   0.706   1.408
 2861SOL    HW219053   0.723   0.693   1.470
 2862SOL     OW19054   4.582   8.983   1.740
 2862SOL    HW119055   4.612   8.900   1.693
 2862SOL    HW219056   4.483   8.987   1.741
 2863SOL     OW19057   9.472   3.292   0.928
 2863SOL    HW119058   9.378   3.315   0.953
 2863SOL    HW219059   9.512   3.366   0.874
 2864SOL     OW19060   3.389   6.232   2.469
 2864SOL    HW119061   3.374   6.251   2.372
 2864SOL    HW219062   3.335   6.296   2.524
 2865SOL     OW19063   4.448   8.872   3.446
 2865SOL    HW119064   4.398   8.904   3.366
 2865SOL    HW219065   4.383   8.851   3.520
 2866SOL     OW19066   1.586   2.601   2.715
 2866SOL    HW119067   1.517   2.562   2.654
 2866SOL    HW219068   1.677   2.568   2.688
 2867SOL     OW19069   1.187   5.361   3.397
 2867SOL    HW119070   1.104   5.388   3.347
 2867SOL    HW219071   1.223   5.439   3.446
 2868SOL     OW19072   2.493   5.681   2.265
 2868SOL    HW119073   2.555   5.753   2.298
 2868SOL    HW219074   2.505   5.600   2.322
 2869SOL     OW19075   0.887   0.017   1.960
 2869SOL    HW119076   0.827   9.981   1.888
 2869SOL    HW219077   0.981   0.021   1.926
 2870SOL     OW19078   9.223   5.961   2.320
 2870SOL    HW119079   9.230   6.060   2.327
 2870SOL    HW219080   9.233   5.920   2.410
 2871SOL     OW19081   2.628   7.988   1.387
 2871SOL    HW119082   2.648   7.947   1.297
 2871SOL    HW219083   2.649   7.921   1.458
 2872SOL     OW19084   2.395   1.394   1.304
 2872SOL    HW119085   2.301   1.409   1.273
 2872SOL    HW219086   2.443   1.481   1.308
 2873SOL     OW19087   8.507   9.823   1.299
 2873SOL    HW119088   8.428   9.761   1.297
 2873SOL    HW219089   8.545   9.832   1.207
 2874SOL     OW19090   7.687   6.642   3.462
 2874SOL    HW119091   7.730   6.559   3.427
 2874SOL    HW219092   7.697   6.645   3.561
 2875SOL     OW19093   9.786   6.626   0.631
 2875SOL    HW119094   9.829   6.670   0.552
 2875SOL    HW219095   9.748   6.538   0.604
 2876SOL     OW19096   7.191   8.717   2.148
 2876SOL    HW119097   7.156   8.677   2.233
 2876SOL    HW219098   7.115   8.754   2.095
 2877SOL     OW19099   5.120   0.155   2.347
 2877SOL    HW119100   5.098   0.235   2.402
 2877SOL    HW219101   5.214   0.164   2.312
 2878SOL     OW19102   2.139   5.816   3.491
 2878SOL    HW119103   2.089   5.903   3.494
 2878SOL    HW219104   2.074   5.740   3.503
 2879SOL     OW19105   0.871   9.504   1.638
 2879SOL    HW119106   0.790   9.531   1.586
 2879SOL    HW219107   0.847   9.429   1.700
 2880SOL     OW19108   7.008   9.329   3.567
 2880SOL    HW119109   7.103   9.361   3.569
 2880SOL    HW219110   7.003   9.237   3.607
 2881SOL     OW19111   1.135   5.781   3.204
 2881SOL    HW119112   1.186   5.695   3.203
 2881SOL    HW219113   1.164   5.836   3.283
 2882SOL     OW19114   1.306   9.390   2.575
 2882SOL    HW119115   1.215   9.407   2.536
 2882SOL    HW219116   1.350   9.477   2.596
 2883SOL     OW19117   2.376   6.883   3.227
 2883SOL    HW119118   2.352   6.790   3.201
 2883SOL    HW219119   2.299   6.944   3.205
 2884SOL     OW19120   4.657   9.199   2.774
 2884SOL    HW119121   4.686   9.113   2.732
 2884SOL    HW219122   4.737   9.245   2.813
 2885SOL     OW19123   8.802   7.741   2.809
 2885SOL    HW119124   8.719   7.797   2.818
 2885SOL    HW219125   8.857   7.777   2.734
 2886SOL     OW19126   1.907   9.119   2.954
 2886SOL    HW119127   1.959   9.061   2.892
 2886SOL    HW219128   1.901   9.212   2.916
 2887SOL     OW19129   2.003   8.213   2.753
 2887SOL    HW119130   2.005   8.113   2.764
 2887SOL    HW219131   1.936   8.237   2.682
 2888SOL     OW19132   3.522   7.960   3.719
 2888SOL    HW119133   3.449   7.921   3.663
 2888SOL    HW219134   3.591   7.890   3.738
 2889SOL     OW19135   0.531   3.391   0.841
 2889SOL    HW119136   0.560   3.469   0.896
 2889SOL    HW219137   0.590   3.313   0.860
 2890SOL     OW19138   1.720   2.206   3.030
 2890SOL    HW119139   1.720   2.211   3.130
 2890SOL    HW219140   1.676   2.288   2.993
 2891SOL     OW19141   8.151   0.144   3.536
 2891SOL    HW119142   8.070   0.156   3.594
 2891SOL    HW219143   8.232   0.173   3.587
 2892SOL     OW19144   5.084   8.949   3.488
 2892SOL    HW119145   5.075   9.038   3.533
 2892SOL    HW219146   5.012   8.888   3.521
 2893SOL     OW19147   8.221   7.817   1.833
 2893SOL    HW119148   8.310   7.777   1.852
 2893SOL    HW219149   8.182   7.775   1.751
 2894SOL     OW19150   2.841   2.238   1.241
 2894SOL    HW119151   2.852   2.204   1.147
 2894SOL    HW219152   2.843   2.338   1.240
 2895SOL     OW19153   3.020   5.831   2.851
 2895SOL    HW119154   3.066   5.879   2.925
 2895SOL    HW219155   2.943   5.778   2.888
 2896SOL     OW19156   4.559   8.697   2.499
 2896SOL    HW119157   4.468   8.660   2.518
 2896SOL    HW219158   4.553   8.795   2.483
 2897SOL     OW19159   4.569   7.444   2.951
 2897SOL    HW119160   4.622   7.526   2.973
 2897SOL    HW219161   4.576   7.378   3.026
 2898SOL     OW19162   9.069   0.248   3.522
 2898SOL    HW119163   8.978   0.280   3.547
 2898SOL    HW219164   9.116   0.320   3.471
 2899SOL     OW19165   7.248   8.724   1.420
 2899SOL    HW119166   7.159   8.678   1.419
 2899SOL    HW219167   7.316   8.664   1.378
 2900SOL     OW19168   2.649   8.343   0.299
 2900SOL    HW119169   2.600   8.422   0.261
 2900SOL    HW219170   2.746   8.366   0.308
 2901SOL     OW19171   9.560   8.408   1.074
 2901SOL    HW119172   9.626   8.420   1.148
 2901SOL    HW219173   9.548   8.495   1.026
 2902SOL     OW19174   9.023   2.826   2.997
 2902SOL    HW119175   9.112   2.781   3.004
 2902SOL    HW219176   9.024   2.889   2.919
 2903SOL     OW19177   4.645   3.746   3.453
 2903SOL    HW119178   4.599   3.671   3.406
 2903SOL    HW219179   4.718   3.709   3.512
 2904SOL     OW19180   3.204   1.398   0.710
 2904SOL    HW119181   3.188   1.390   0.809
 2904SOL    HW219182   3.130   1.353   0.660
 2905SOL     OW19183   3.890   2.268   1.862
 2905SOL    HW119184   3.964   2.327   1.895
 2905SOL    HW219185   3.857   2.210   1.938
 2906SOL     OW19186   9.698   1.494   1.302
 2906SOL    HW119187   9.699   1.579   1.355
 2906SOL    HW219188   9.610   1.449   1.313
 2907SOL     OW19189   8.882   3.042   3.634
 2907SOL    HW119190   8.883   3.080   3.541
 2907SOL    HW219191   8.967   3.066   3.680
 2908SOL     OW19192   4.212   0.742   2.439
 2908SOL    HW119193   4.193   0.836   2.468
 2908SOL    HW219194   4.228   0.684   2.519
 2909SOL     OW19195   0.363   5.827   1.454
 2909SOL    HW119196   0.313   5.906   1.492
 2909SOL    HW219197   0.456   5.855   1.429
 2910SOL     OW19198   2.291   6.279   1.854
 2910SOL    HW119199   2.268   6.249   1.761
 2910SOL    HW219200   2.322   6.201   1.908
 2911SOL     OW19201   0.480   6.813   0.353
 2911SOL    HW119202   0.428   6.819   0.268
 2911SOL    HW219203   0.509   6.905   0.382
 2912SOL     OW19204   3.713   3.243   1.686
 2912SOL    HW119205   3.633   3.292   1.652
 2912SOL    HW219206   3.720   3.155   1.639
 2913SOL     OW19207   8.191   0.829   1.640
 2913SOL    HW119208   8.155   0.745   1.679
 2913SOL    HW219209   8.281   0.848   1.679
 2914SOL     OW19210   9.367   4.648   1.332
 2914SOL    HW119211   9.457   4.631   1.293
 2914SOL    HW219212   9.314   4.562   1.331
 2915SOL     OW19213   9.055   2.696   2.374
 2915SOL    HW119214   8.993   2.702   2.452
 2915SOL    HW219215   9.018   2.630   2.308
 2916SOL     OW19216   0.604   0.557   3.363
 2916SOL    HW119217   0.506   0.551   3.346
 2916SOL    HW219218   0.625   0.522   3.454
 2917SOL     OW19219   7.344   0.563   3.589
 2917SOL    HW119220   7.317   0.605   3.676
 2917SOL    HW219221   7.326   0.627   3.514
 2918SOL     OW19222   2.731   4.718   1.681
 2918SOL    HW119223   2.698   4.624   1.690
 2918SOL    HW219224   2.662   4.781   1.715
 2919SOL     OW19225   2.047   3.194   3.621
 2919SOL    HW119226   2.124   3.143   3.584
 2919SOL    HW219227   1.978   3.131   3.656
 2920SOL     OW19228   2.630   6.311   0.758
 2920SOL    HW119229   2.559   6.241   0.767
 2920SOL    HW219230   2.715   6.278   0.798
 2921SOL     OW19231   2.837   9.450   1.830
 2921SOL    HW119232   2.817   9.352   1.837
 2921SOL    HW219233   2.915   9.473   1.888
 2922SOL     OW19234   3.383   1.881   0.580
 2922SOL    HW119235   3.361   1.783   0.577
 2922SOL    HW219236   3.299   1.934   0.573
 2923SOL     OW19237   0.289   5.275   1.964
 2923SOL    HW119238   0.330   5.343   2.025
 2923SOL    HW219239   0.192   5.295   1.952
 2924SOL     OW19240   0.615   8.316   2.767
 2924SOL    HW119241   0.667   8.233   2.790
 2924SOL    HW219242   0.550   8.336   2.840
 2925SOL     OW19243   4.486   9.556   1.024
 2925SOL    HW119244   4.467   9.617   0.948
 2925SOL    HW219245   4.584   9.536   1.028
 2926SOL     OW19246   2.469   4.722   3.560
 2926SOL    HW119247   2.397   4.721   3.491
 2926SOL    HW219248   2.434   4.685   3.646
 2927SOL     OW19249   3.616   7.455   1.109
 2927SOL    HW119250   3.638   7.420   1.018
 2927SOL    HW219251   3.621   7.555   1.109
 2928SOL     OW19252   4.355   1.757   2.863
 2928SOL    HW119253   4.454   1.753   2.872
 2928SOL    HW219254   4.314   1.680   2.912
 2929SOL     OW19255   0.749   5.687   2.917
 2929SOL    HW119256   0.706   5.776   2.901
 2929SOL    HW219257   0.847   5.693   2.899
 2930SOL     OW19258   3.077   7.771   2.039
 2930SOL    HW119259   3.128   7.856   2.037
 2930SOL    HW219260   3.111   7.710   1.967
 2931SOL     OW19261   2.287   2.171   3.612
 2931SOL    HW119262   2.312   2.074   3.608
 2931SOL    HW219263   2.365   2.224   3.645
 2932SOL     OW19264   1.799   8.928   0.150
 2932SOL    HW119265   1.759   9.019   0.146
 2932SOL    HW219266   1.856   8.912   0.069
 2933SOL     OW19267   2.235   9.201   2.348
 2933SOL    HW119268   2.274   9.119   2.389
 2933SOL    HW219269   2.198   9.261   2.420
 2934SOL     OW19270   4.577   1.739   0.151
 2934SOL    HW119271   4.613   1.646   0.144
 2934SOL    HW219272   4.627   1.788   0.222
 2935SOL     OW19273   7.213   7.206   2.112
 2935SOL    HW119274   7.142   7.274   2.130
 2935SOL    HW219275   7.275   7.241   2.041
 2936SOL     OW19276   2.219   9.716   0.673
 2936SOL    HW119277   2.122   9.707   0.696
 2936SOL    HW219278   2.273   9.718   0.757
 2937SOL     OW19279   2.214   3.843   0.494
 2937SOL    HW119280   2.226   3.942   0.501
 2937SOL    HW219281   2.302   3.798   0.502
 2938SOL     OW19282   9.040   3.490   2.266
 2938SOL    HW119283   8.971   3.494   2.339
 2938SOL    HW219284   9.032   3.572   2.209
 2939SOL     OW19285   1.613   8.361   3.320
 2939SOL    HW119286   1.561   8.286   3.280
 2939SOL    HW219287   1.583   8.447   3.278
 2940SOL     OW19288   4.609   0.522   3.246
 2940SOL    HW119289   4.593   0.615   3.278
 2940SOL    HW219290   4.707   0.504   3.241
 2941SOL     OW19291   1.693   8.343   3.007
 2941SOL    HW119292   1.740   8.431   2.999
 2941SOL    HW219293   1.758   8.274   3.039
 2942SOL     OW19294   3.777   2.135   2.514
 2942SOL    HW119295   3.730   2.121   2.601
 2942SOL    HW219296   3.715   2.111   2.439
 2943SOL     OW19297   0.493   5.353   3.516
 2943SOL    HW119298   0.569   5.289   3.503
 2943SOL    HW219299   0.470   5.358   3.613
 2944SOL     OW19300   5.356   0.328   2.025
 2944SOL    HW119301   5.371   0.425   2.047
 2944SOL    HW219302   5.370   0.273   2.107
 2945SOL     OW19303   3.606   1.278   1.603
 2945SOL    HW119304   3.518   1.279   1.556
 2945SOL    HW219305   3.610   1.354   1.667
 2946SOL     OW19306   4.874   9.593   3.622
 2946SOL    HW119307   4.950   9.652   3.647
 2946SOL    HW219308   4.836   9.622   3.534
 2947SOL     OW19309   1.920   2.544   3.742
 2947SOL    HW119310   1.967   2.631   3.729
 2947SOL    HW219311   1.986   2.469   3.732
 2948SOL     OW19312   1.666   1.077   3.322
 2948SOL    HW119313   1.574   1.055   3.355
 2948SOL    HW219314   1.723   1.106   3.398
 2949SOL     OW19315   7.918   6.896   2.140
 2949SOL    HW119316   7.928   6.922   2.044
 2949SOL    HW219317   7.887   6.974   2.193
 2950SOL     OW19318   1.849   2.922   0.595
 2950SOL    HW119319   1.837   2.941   0.693
 2950SOL    HW219320   1.859   2.823   0.582
 2951SOL     OW19321   4.103   7.955   2.057
 2951SOL    HW119322   4.128   8.019   1.984
 2951SOL    HW219323   4.016   7.912   2.036
 2952SOL     OW19324   0.503   4.403   2.979
 2952SOL    HW119325   0.546   4.465   2.914
 2952SOL    HW219326   0.464   4.457   3.055
 2953SOL     OW19327   0.478   9.276   3.037
 2953SOL    HW119328   0.469   9.372   3.011
 2953SOL    HW219329   0.407   9.222   2.991
 2954SOL     OW19330   2.532   7.072   0.315
 2954SOL    HW119331   2.605   7.023   0.362
 2954SOL    HW219332   2.471   7.007   0.270
 2955SOL     OW19333   4.434   8.998   0.889
 2955SOL    HW119334   4.345   9.008   0.934
 2955SOL    HW219335   4.451   8.902   0.869
 2956SOL     OW19336   3.697   2.521   3.640
 2956SOL    HW119337   3.672   2.429   3.609
 2956SOL    HW219338   3.790   2.543   3.610
 2957SOL     OW19339   0.230   4.889   2.687
 2957SOL    HW119340   0.147   4.869   2.738
 2957SOL    HW219341   0.262   4.981   2.711
 2958SOL     OW19342   2.389   0.439   3.574
 2958SOL    HW119343   2.442   0.397   3.647
 2958SOL    HW219344   2.317   0.495   3.613
 2959SOL     OW19345   9.615   0.974   1.169
 2959SOL    HW119346   9.519   0.969   1.197
 2959SOL    HW219347   9.625   0.930   1.079
 2960SOL     OW19348   2.687   5.397   0.691
 2960SOL    HW119349   2.737   5.475   0.653
 2960SOL    HW219350   2.739   5.357   0.766
 2961SOL     OW19351   8.410   3.260   2.640
 2961SOL    HW119352   8.434   3.244   2.545
 2961SOL    HW219353   8.419   3.357   2.661
 2962SOL     OW19354   9.687   4.289   0.239
 2962SOL    HW119355   9.597   4.297   0.196
 2962SOL    HW219356   9.692   4.202   0.288
 2963SOL     OW19357   3.356   0.698   3.195
 2963SOL    HW119358   3.288   0.664   3.260
 2963SOL    HW219359   3.379   0.626   3.130
 2964SOL     OW19360   2.293   6.449   1.287
 2964SOL    HW119361   2.341   6.506   1.220
 2964SOL    HW219362   2.195   6.451   1.269
 2965SOL     OW19363   9.632   5.067   1.743
 2965SOL    HW119364   9.633   5.159   1.704
 2965SOL    HW219365   9.725   5.041   1.770
 2966SOL     OW19366   4.502   9.372   0.462
 2966SOL    HW119367   4.531   9.317   0.541
 2966SOL    HW219368   4.494   9.468   0.490
 2967SOL     OW19369   2.228   6.613   1.500
 2967SOL    HW119370   2.233   6.706   1.464
 2967SOL    HW219371   2.267   6.550   1.433
 2968SOL     OW19372   9.741   2.480   3.126
 2968SOL    HW119373   9.806   2.416   3.165
 2968SOL    HW219374   9.751   2.570   3.169
 2969SOL     OW19375   0.579   0.982   2.603
 2969SOL    HW119376   0.677   0.979   2.623
 2969SOL    HW219377   0.532   0.912   2.657
 2970SOL     OW19378   8.072   5.599   2.410
 2970SOL    HW119379   8.147   5.659   2.382
 2970SOL    HW219380   8.029   5.636   2.493
 2971SOL     OW19381   0.275   2.052   3.441
 2971SOL    HW119382   0.297   2.149   3.450
 2971SOL    HW219383   0.217   2.024   3.518
 2972SOL     OW19384   1.063   0.922   3.685
 2972SOL    HW119385   1.001   0.994   3.714
 2972SOL    HW219386   1.038   0.891   3.594
 2973SOL     OW19387   2.418   3.383   3.174
 2973SOL    HW119388   2.351   3.445   3.134
 2973SOL    HW219389   2.386   3.351   3.263
 2974SOL     OW19390   1.898   8.581   1.819
 2974SOL    HW119391   1.988   8.580   1.862
 2974SOL    HW219392   1.868   8.675   1.806
 2975SOL     OW19393   3.385   4.175   1.485
 2975SOL    HW119394   3.417   4.260   1.527
 2975SOL    HW219395   3.287   4.164   1.501
 2976SOL     OW19396   8.689   7.960   2.637
 2976SOL    HW119397   8.606   7.904   2.638
 2976SOL    HW219398   8.765   7.907   2.599
 2977SOL     OW19399   1.520   2.112   2.486
 2977SOL    HW119400   1.502   2.015   2.501
 2977SOL    HW219401   1.487   2.165   2.564
 2978SOL     OW19402   3.040   9.473   0.955
 2978SOL    HW119403   3.098   9.392   0.945
 2978SOL    HW219404   3.040   9.502   1.050
 2979SOL     OW19405   4.171   5.285   1.386
 2979SOL    HW119406   4.192   5.314   1.479
 2979SOL    HW219407   4.254   5.246   1.344
 2980SOL     OW19408   4.302   2.386   1.257
 2980SOL    HW119409   4.222   2.439   1.286
 2980SOL    HW219410   4.283   2.289   1.268
 2981SOL     OW19411   4.243   1.152   2.274
 2981SOL    HW119412   4.200   1.185   2.190
 2981SOL    HW219413   4.318   1.089   2.250
 2982SOL     OW19414   8.496   5.775   1.570
 2982SOL    HW119415   8.591   5.795   1.548
 2982SOL    HW219416   8.443   5.860   1.572
 2983SOL     OW19417   2.701   6.690   1.190
 2983SOL    HW119418   2.629   6.624   1.210
 2983SOL    HW219419   2.667   6.761   1.128
 2984SOL     OW19420   3.947   1.435   1.022
 2984SOL    HW119421   3.994   1.461   0.937
 2984SOL    HW219422   3.873   1.372   1.000
 2985SOL     OW19423   3.131   7.915   1.347
 2985SOL    HW119424   3.054   7.897   1.286
 2985SOL    HW219425   3.210   7.947   1.295
 2986SOL     OW19426   3.969   4.770   2.739
 2986SOL    HW119427   3.941   4.862   2.710
 2986SOL    HW219428   4.024   4.728   2.667
 2987SOL     OW19429   9.539   8.083   2.268
 2987SOL    HW119430   9.552   8.096   2.170
 2987SOL    HW219431   9.457   8.133   2.298
 2988SOL     OW19432   4.456   8.245   0.892
 2988SOL    HW119433   4.442   8.167   0.954
 2988SOL    HW219434   4.546   8.237   0.850
 2989SOL     OW19435   7.600   1.845   1.914
 2989SOL    HW119436   7.655   1.762   1.914
 2989SOL    HW219437   7.606   1.888   1.824
 2990SOL     OW19438   9.855   3.994   2.804
 2990SOL    HW119439   9.926   3.989   2.874
 2990SOL    HW219440   9.800   3.911   2.807
 2991SOL     OW19441   0.121   1.958   3.650
 2991SOL    HW119442   0.123   1.865   3.613
 2991SOL    HW219443   0.148   1.955   3.746
 2992SOL     OW19444   3.034   7.486   3.709
 2992SOL    HW119445   3.086   7.521   3.631
 2992SOL    HW219446   2.974   7.413   3.678
 2993SOL     OW19447   9.187   8.059   1.283
 2993SOL    HW119448   9.122   8.120   1.239
 2993SOL    HW219449   9.262   8.113   1.322
 2994SOL     OW19450   7.170   0.451   1.855
 2994SOL    HW119451   7.267   0.437   1.835
 2994SOL    HW219452   7.157   0.542   1.894
 2995SOL     OW19453   7.250   9.814   1.031
 2995SOL    HW119454   7.166   9.868   1.023
 2995SOL    HW219455   7.238   9.726   0.985
 2996SOL     OW19456   0.798   5.094   2.346
 2996SOL    HW119457   0.726   5.137   2.290
 2996SOL    HW219458   0.758   5.057   2.430
 2997SOL     OW19459   8.243   1.689   0.930
 2997SOL    HW119460   8.317   1.752   0.906
 2997SOL    HW219461   8.279   1.616   0.989
 2998SOL     OW19462   2.006   9.231   3.637
 2998SOL    HW119463   1.912   9.263   3.640
 2998SOL    HW219464   2.010   9.134   3.662
 2999SOL     OW19465   0.937   5.822   3.535
 2999SOL    HW119466   0.845   5.850   3.563
 2999SOL    HW219467   0.940   5.722   3.527
 3000SOL     OW19468   2.163   4.671   2.873
 3000SOL    HW119469   2.126   4.596   2.817
 3000SOL    HW219470   2.261   4.680   2.855
 3001SOL     OW19471   9.660   0.392   2.107
 3001SOL    HW119472   9.638   0.349   2.020
 3001SOL    HW219473   9.697   0.323   2.170
 3002SOL     OW19474   9.328   0.267   1.499
 3002SOL    HW119475   9.320   0.198   1.571
 3002SOL    HW219476   9.237   0.297   1.471
 3003SOL     OW19477   1.736   4.509   1.438
 3003SOL    HW119478   1.698   4.595   1.404
 3003SOL    HW219479   1.836   4.516   1.444
 3004SOL     OW19480   9.715   8.028   0.356
 3004SOL    HW119481   9.757   7.993   0.439
 3004SOL    HW219482   9.771   8.004   0.277
 3005SOL     OW19483   0.493   8.187   2.543
 3005SOL    HW119484   0.529   8.236   2.622
 3005SOL    HW219485   0.475   8.092   2.568
 3006SOL     OW19486   2.868   3.413   1.251
 3006SOL    HW119487   2.843   3.408   1.155
 3006SOL    HW219488   2.966   3.431   1.260
 3007SOL     OW19489   3.182   8.632   2.373
 3007SOL    HW119490   3.101   8.620   2.316
 3007SOL    HW219491   3.252   8.566   2.346
 3008SOL     OW19492   3.408   2.155   3.049
 3008SOL    HW119493   3.448   2.187   3.135
 3008SOL    HW219494   3.310   2.143   3.061
 3009SOL     OW19495   3.171   3.201   1.182
 3009SOL    HW119496   3.252   3.214   1.125
 3009SOL    HW219497   3.122   3.120   1.153
 3010SOL     OW19498   4.148   9.382   3.046
 3010SOL    HW119499   4.240   9.386   3.008
 3010SOL    HW219500   4.145   9.315   3.120
 3011SOL     OW19501   9.774   7.495   3.205
 3011SOL    HW119502   9.767   7.572   3.142
 3011SOL    HW219503   9.687   7.482   3.252
 3012SOL     OW19504   3.498   8.575   3.086
 3012SOL    HW119505   3.407   8.580   3.045
 3012SOL    HW219506   3.489   8.562   3.185
 3013SOL     OW19507   0.530   5.546   3.317
 3013SOL    HW119508   0.491   5.635   3.338
 3013SOL    HW219509   0.517   5.485   3.395
 3014SOL     OW19510   5.279   9.932   1.919
 3014SOL    HW119511   5.317   9.919   2.011
 3014SOL    HW219512   5.214   0.007   1.920
 3015SOL     OW19513   2.974   9.004   1.018
 3015SOL    HW119514   3.003   9.044   0.931
 3015SOL    HW219515   3.027   8.921   1.035
 3016SOL     OW19516   5.070   0.939   2.301
 3016SOL    HW119517   4.974   0.913   2.289
 3016SOL    HW219518   5.092   1.013   2.237
 3017SOL     OW19519   2.583   9.866   2.063
 3017SOL    HW119520   2.527   9.819   2.131
 3017SOL    HW219521   2.617   9.800   1.996
 3018SOL     OW19522   3.125   7.639   0.374
 3018SOL    HW119523   3.131   7.539   0.372
 3018SOL    HW219524   3.216   7.678   0.388
 3019SOL     OW19525   1.387   4.698   1.204
 3019SOL    HW119526   1.421   4.651   1.122
 3019SOL    HW219527   1.461   4.705   1.270
 3020SOL     OW19528   0.025   3.722   3.521
 3020SOL    HW119529   0.091   3.649   3.505
 3020SOL    HW219530   9.979   3.745   3.435
 3021SOL     OW19531   2.247   1.550   1.650
 3021SOL    HW119532   2.304   1.608   1.591
 3021SOL    HW219533   2.265   1.573   1.746
 3022SOL     OW19534   4.299   0.270   0.236
 3022SOL    HW119535   4.255   0.180   0.234
 3022SOL    HW219536   4.333   0.293   0.145
 3023SOL     OW19537   9.342   3.998   1.632
 3023SOL    HW119538   9.260   4.051   1.613
 3023SOL    HW219539   9.319   3.921   1.692
 3024SOL     OW19540   3.042   8.200   2.068
 3024SOL    HW119541   3.050   8.256   1.986
 3024SOL    HW219542   2.945   8.187   2.091
 3025SOL     OW19543   2.392   8.846   2.699
 3025SOL    HW119544   2.381   8.836   2.798
 3025SOL    HW219545   2.471   8.792   2.669
 3026SOL     OW19546   8.264   3.822   1.387
 3026SOL    HW119547   8.293   3.855   1.477
 3026SOL    HW219548   8.184   3.875   1.358
 3027SOL     OW19549   0.835   3.234   1.813
 3027SOL    HW119550   0.790   3.176   1.746
 3027SOL    HW219551   0.887   3.178   1.878
 3028SOL     OW19552   3.528   7.744   1.885
 3028SOL    HW119553   3.524   7.788   1.795
 3028SOL    HW219554   3.472   7.661   1.884
 3029SOL     OW19555   4.148   4.464   2.077
 3029SOL    HW119556   4.088   4.490   2.001
 3029SOL    HW219557   4.130   4.523   2.156
 3030SOL     OW19558   2.584   1.857   1.005
 3030SOL    HW119559   2.635   1.849   1.091
 3030SOL    HW219560   2.604   1.945   0.962
 3031SOL     OW19561   0.283   4.088   1.098
 3031SOL    HW119562   0.357   4.021   1.096
 3031SOL    HW219563   0.233   4.080   1.184
 3032SOL     OW19564   1.011   3.101   1.981
 3032SOL    HW119565   1.049   3.023   2.031
 3032SOL    HW219566   1.028   3.185   2.033
 3033SOL     OW19567   7.364   6.385   3.571
 3033SOL    HW119568   7.332   6.290   3.569
 3033SOL    HW219569   7.308   6.440   3.509
 3034SOL     OW19570   8.518   6.674   3.081
 3034SOL    HW119571   8.565   6.590   3.109
 3034SOL    HW219572   8.451   6.652   3.010
 3035SOL     OW19573   0.470   1.806   2.314
 3035SOL    HW119574   0.541   1.774   2.252
 3035SOL    HW219575   0.459   1.741   2.389
 3036SOL     OW19576   7.604   8.003   3.604
 3036SOL    HW119577   7.590   8.100   3.622
 3036SOL    HW219578   7.535   7.970   3.539
 3037SOL     OW19579   7.893   9.991   1.437
 3037SOL    HW119580   7.795   0.011   1.441
 3037SOL    HW219581   7.945   0.076   1.438
 3038SOL     OW19582   2.936   6.088   1.533
 3038SOL    HW119583   2.924   6.009   1.472
 3038SOL    HW219584   2.962   6.057   1.624
 3039SOL     OW19585   2.590   9.365   3.687
 3039SOL    HW119586   2.548   9.297   3.747
 3039SOL    HW219587   2.686   9.342   3.673
 3040SOL     OW19588   1.903   3.538   2.983
 3040SOL    HW119589   1.932   3.449   2.947
 3040SOL    HW219590   1.961   3.610   2.945
 3041SOL     OW19591   9.948   0.354   0.702
 3041SOL    HW119592   9.999   0.273   0.729
 3041SOL    HW219593   9.869   0.328   0.646
 3042SOL     OW19594   0.771   5.825   0.402
 3042SOL    HW119595   0.724   5.876   0.473
 3042SOL    HW219596   0.797   5.886   0.328
 3043SOL     OW19597   2.930   7.856   1.178
 3043SOL    HW119598   2.952   7.759   1.172
 3043SOL    HW219599   2.832   7.869   1.168
 3044SOL     OW19600   3.916   3.023   3.656
 3044SOL    HW119601   3.880   2.949   3.598
 3044SOL    HW219602   3.928   3.106   3.601
 3045SOL     OW19603   9.270   0.309   0.480
 3045SOL    HW119604   9.349   0.363   0.450
 3045SOL    HW219605   9.197   0.371   0.510
 3046SOL     OW19606   0.419   5.386   0.764
 3046SOL    HW119607   0.448   5.313   0.826
 3046SOL    HW219608   0.358   5.449   0.811
 3047SOL     OW19609   9.995   2.967   2.276
 3047SOL    HW119610   0.015   2.872   2.300
 3047SOL    HW219611   0.064   3.001   2.213
 3048SOL     OW19612   8.877   0.014   1.621
 3048SOL    HW119613   8.872   9.922   1.659
 3048SOL    HW219614   8.939   0.070   1.677
 3049SOL     OW19615   0.758   6.825   0.724
 3049SOL    HW119616   0.766   6.773   0.640
 3049SOL    HW219617   0.830   6.894   0.728
 3050SOL     OW19618   9.759   6.098   0.146
 3050SOL    HW119619   9.770   5.999   0.144
 3050SOL    HW219620   9.708   6.124   0.228
 3051SOL     OW19621   0.269   6.787   1.826
 3051SOL    HW119622   0.305   6.783   1.919
 3051SOL    HW219623   0.194   6.854   1.822
 3052SOL     OW19624   8.605   1.464   0.614
 3052SOL    HW119625   8.660   1.509   0.544
 3052SOL    HW219626   8.565   1.381   0.577
 3053SOL     OW19627   9.608   5.931   2.479
 3053SOL    HW119628   9.569   5.983   2.555
 3053SOL    HW219629   9.558   5.951   2.395
 3054SOL     OW19630   8.549   0.547   3.350
 3054SOL    HW119631   8.506   0.559   3.260
 3054SOL    HW219632   8.631   0.491   3.341
 3055SOL     OW19633   1.296   3.810   0.312
 3055SOL    HW119634   1.225   3.847   0.372
 3055SOL    HW219635   1.281   3.843   0.218
 3056SOL     OW19636   2.554   3.199   0.161
 3056SOL    HW119637   2.569   3.103   0.185
 3056SOL    HW219638   2.641   3.248   0.162
 3057SOL     OW19639   5.121   3.024   2.323
 3057SOL    HW119640   5.196   3.081   2.290
 3057SOL    HW219641   5.117   3.028   2.423
 3058SOL     OW19642   2.280   9.919   3.240
 3058SOL    HW119643   2.365   9.935   3.190
 3058SOL    HW219644   2.302   9.883   3.331
 3059SOL     OW19645   0.488   7.187   0.210
 3059SOL    HW119646   0.480   7.274   0.161
 3059SOL    HW219647   0.568   7.138   0.176
 3060SOL     OW19648   9.081   3.780   3.239
 3060SOL    HW119649   9.027   3.814   3.316
 3060SOL    HW219650   9.099   3.854   3.175
 3061SOL     OW19651   2.283   2.170   1.616
 3061SOL    HW119652   2.345   2.247   1.598
 3061SOL    HW219653   2.192   2.205   1.635
 3062SOL     OW19654   8.768   1.265   2.965
 3062SOL    HW119655   8.708   1.260   3.045
 3062SOL    HW219656   8.834   1.339   2.977
 3063SOL     OW19657   0.185   5.081   0.959
 3063SOL    HW119658   0.147   5.168   0.930
 3063SOL    HW219659   0.114   5.029   1.008
 3064SOL     OW19660   9.615   8.327   2.970
 3064SOL    HW119661   9.592   8.239   2.929
 3064SOL    HW219662   9.631   8.394   2.897
 3065SOL     OW19663   0.200   2.198   0.875
 3065SOL    HW119664   0.100   2.196   0.878
 3065SOL    HW219665   0.231   2.167   0.785
 3066SOL     OW19666   1.268   7.759   3.691
 3066SOL    HW119667   1.232   7.673   3.728
 3066SOL    HW219668   1.306   7.742   3.600
 3067SOL     OW19669   1.244   5.603   3.556
 3067SOL    HW119670   1.145   5.601   3.551
 3067SOL    HW219671   1.275   5.696   3.576
 3068SOL     OW19672   7.584   1.599   1.383
 3068SOL    HW119673   7.497   1.647   1.390
 3068SOL    HW219674   7.630   1.599   1.472
 3069SOL     OW19675   1.101   6.493   2.294
 3069SOL    HW119676   1.060   6.517   2.382
 3069SOL    HW219677   1.133   6.575   2.248
 3070SOL     OW19678   8.625   4.528   2.260
 3070SOL    HW119679   8.670   4.579   2.186
 3070SOL    HW219680   8.568   4.591   2.313
 3071SOL     OW19681   9.493   8.841   3.423
 3071SOL    HW119682   9.541   8.861   3.508
 3071SOL    HW219683   9.479   8.742   3.415
 3072SOL     OW19684   2.426   1.022   1.000
 3072SOL    HW119685   2.496   0.984   0.939
 3072SOL    HW219686   2.450   1.117   1.022
 3073SOL     OW19687   8.808   3.804   3.672
 3073SOL    HW119688   8.846   3.817   3.764
 3073SOL    HW219689   8.718   3.762   3.679
 3074SOL     OW19690   2.929   0.648   3.004
 3074SOL    HW119691   2.873   0.691   3.075
 3074SOL    HW219692   2.991   0.582   3.046
 3075SOL     OW19693   1.108   0.387   1.468
 3075SOL    HW119694   1.154   0.425   1.549
 3075SOL    HW219695   1.138   0.293   1.454
 3076SOL     OW19696   2.659   2.078   1.379
 3076SOL    HW119697   2.569   2.102   1.342
 3076SOL    HW219698   2.728   2.141   1.344
 3077SOL     OW19699   0.520   1.937   3.442
 3077SOL    HW119700   0.554   1.916   3.534
 3077SOL    HW219701   0.426   1.971   3.448
 3078SOL     OW19702   7.892   5.744   0.630
 3078SOL    HW119703   7.842   5.757   0.545
 3078SOL    HW219704   7.943   5.826   0.652
 3079SOL     OW19705   0.467   9.334   2.666
 3079SOL    HW119706   0.451   9.392   2.746
 3079SOL    HW219707   0.383   9.330   2.611
 3080SOL     OW19708   2.377   2.721   0.842
 3080SOL    HW119709   2.430   2.637   0.856
 3080SOL    HW219710   2.333   2.719   0.753
 3081SOL     OW19711   0.240   8.176   0.610
 3081SOL    HW119712   0.180   8.256   0.602
 3081SOL    HW219713   0.260   8.139   0.519
 3082SOL     OW19714   2.947   1.522   2.391
 3082SOL    HW119715   2.950   1.424   2.410
 3082SOL    HW219716   2.860   1.546   2.349
 3083SOL     OW19717   4.579   3.838   0.243
 3083SOL    HW119718   4.488   3.862   0.279
 3083SOL    HW219719   4.570   3.766   0.175
 3084SOL     OW19720   3.026   7.925   2.855
 3084SOL    HW119721   3.068   7.979   2.928
 3084SOL    HW219722   3.054   7.962   2.767
 3085SOL     OW19723   4.704   9.107   3.280
 3085SOL    HW119724   4.692   9.067   3.371
 3085SOL    HW219725   4.630   9.171   3.261
 3086SOL     OW19726   4.787   2.309   0.402
 3086SOL    HW119727   4.855   2.242   0.373
 3086SOL    HW219728   4.751   2.283   0.492
 3087SOL     OW19729   8.115   4.906   1.192
 3087SOL    HW119730   8.119   4.808   1.209
 3087SOL    HW219731   8.124   4.955   1.279
 3088SOL     OW19732   5.220   1.796   1.024
 3088SOL    HW119733   5.273   1.880   1.035
 3088SOL    HW219734   5.161   1.805   0.943
 3089SOL     OW19735   3.394   7.432   3.493
 3089SOL    HW119736   3.313   7.490   3.499
 3089SOL    HW219737   3.476   7.488   3.488
 3090SOL     OW19738   1.974   8.341   0.408
 3090SOL    HW119739   1.939   8.374   0.496
 3090SOL    HW219740   1.989   8.243   0.412
 3091SOL     OW19741   4.230   9.144   2.194
 3091SOL    HW119742   4.206   9.047   2.187
 3091SOL    HW219743   4.319   9.160   2.153
 3092SOL     OW19744   9.869   9.363   1.625
 3092SOL    HW119745   9.794   9.428   1.615
 3092SOL    HW219746   9.863   9.320   1.715
 3093SOL     OW19747   9.178   6.669   3.088
 3093SOL    HW119748   9.187   6.768   3.082
 3093SOL    HW219749   9.253   6.631   3.141
 3094SOL     OW19750   3.728   3.343   2.688
 3094SOL    HW119751   3.673   3.426   2.694
 3094SOL    HW219752   3.793   3.351   2.612
 3095SOL     OW19753   5.185   9.370   1.351
 3095SOL    HW119754   5.241   9.433   1.297
 3095SOL    HW219755   5.244   9.309   1.403
 3096SOL     OW19756   0.409   8.318   2.000
 3096SOL    HW119757   0.356   8.398   1.971
 3096SOL    HW219758   0.359   8.235   1.979
 3097SOL     OW19759   5.283   9.351   3.644
 3097SOL    HW119760   5.276   9.450   3.651
 3097SOL    HW219761   5.378   9.325   3.630
 3098SOL     OW19762   1.322   5.482   2.695
 3098SOL    HW119763   1.405   5.513   2.743
 3098SOL    HW219764   1.324   5.516   2.601
 3099SOL     OW19765   9.873   2.141   1.318
 3099SOL    HW119766   9.948   2.119   1.381
 3099SOL    HW219767   9.794   2.173   1.370
 3100SOL     OW19768   1.918   3.664   1.920
 3100SOL    HW119769   1.948   3.749   1.964
 3100SOL    HW219770   1.910   3.678   1.822
 3101SOL     OW19771   7.436   9.582   1.671
 3101SOL    HW119772   7.532   9.572   1.699
 3101SOL    HW219773   7.378   9.590   1.752
 3102SOL     OW19774   3.262   5.256   2.610
 3102SOL    HW119775   3.302   5.324   2.550
 3102SOL    HW219776   3.184   5.296   2.659
 3103SOL     OW19777   9.888   2.934   1.565
 3103SOL    HW119778   9.964   2.878   1.600
 3103SOL    HW219779   9.816   2.874   1.530
 3104SOL     OW19780   1.559   3.322   0.916
 3104SOL    HW119781   1.638   3.289   0.864
 3104SOL    HW219782   1.486   3.346   0.853
 3105SOL     OW19783   1.779   7.338   1.233
 3105SOL    HW119784   1.871   7.372   1.214
 3105SOL    HW219785   1.739   7.390   1.308
 3106SOL     OW19786   3.656   2.254   0.635
 3106SOL    HW119787   3.583   2.253   0.567
 3106SOL    HW219788   3.692   2.347   0.643
 3107SOL     OW19789   3.760   1.554   0.724
 3107SOL    HW119790   3.693   1.561   0.797
 3107SOL    HW219791   3.741   1.624   0.655
 3108SOL     OW19792   8.053   8.934   0.946
 3108SOL    HW119793   8.033   8.841   0.916
 3108SOL    HW219794   8.140   8.935   0.996
 3109SOL     OW19795   0.464   8.215   0.762
 3109SOL    HW119796   0.377   8.202   0.714
 3109SOL    HW219797   0.534   8.245   0.697
 3110SOL     OW19798   9.401   7.166   0.942
 3110SOL    HW119799   9.351   7.251   0.929
 3110SOL    HW219800   9.337   7.090   0.953
 3111SOL     OW19801   2.968   9.579   3.628
 3111SOL    HW119802   2.976   9.543   3.535
 3111SOL    HW219803   3.037   9.650   3.643
 3112SOL     OW19804   0.324   1.116   2.624
 3112SOL    HW119805   0.341   1.211   2.648
 3112SOL    HW219806   0.408   1.063   2.637
 3113SOL     OW19807   8.852   2.349   2.715
 3113SOL    HW119808   8.946   2.335   2.747
 3113SOL    HW219809   8.819   2.438   2.746
 3114SOL     OW19810   5.560   9.413   2.261
 3114SOL    HW119811   5.494   9.439   2.191
 3114SOL    HW219812   5.653   9.436   2.230
 3115SOL     OW19813   1.757   3.212   0.755
 3115SOL    HW119814   1.783   3.125   0.797
 3115SOL    HW219815   1.689   3.196   0.684
 3116SOL     OW19816   3.696   2.495   2.634
 3116SOL    HW119817   3.762   2.472   2.563
 3116SOL    HW219818   3.630   2.420   2.645
 3117SOL     OW19819   4.500   8.885   0.541
 3117SOL    HW119820   4.565   8.890   0.465
 3117SOL    HW219821   4.478   8.978   0.571
 3118SOL     OW19822   9.086   5.770   1.672
 3118SOL    HW119823   9.001   5.732   1.636
 3118SOL    HW219824   9.100   5.861   1.634
 3119SOL     OW19825   3.204   3.283   2.398
 3119SOL    HW119826   3.231   3.187   2.406
 3119SOL    HW219827   3.267   3.341   2.449
 3120SOL     OW19828   8.268   1.322   0.870
 3120SOL    HW119829   8.193   1.260   0.895
 3120SOL    HW219830   8.279   1.391   0.942
 3121SOL     OW19831   6.031   9.905   2.052
 3121SOL    HW119832   6.014   9.887   1.955
 3121SOL    HW219833   6.117   9.861   2.079
 3122SOL     OW19834   8.851   1.716   0.894
 3122SOL    HW119835   8.824   1.623   0.871
 3122SOL    HW219836   8.784   1.780   0.855
 3123SOL     OW19837   9.312   3.595   0.096
 3123SOL    HW119838   9.313   3.695   0.089
 3123SOL    HW219839   9.406   3.562   0.097
 3124SOL     OW19840   2.975   5.250   0.636
 3124SOL    HW119841   2.962   5.240   0.537
 3124SOL    HW219842   3.045   5.320   0.652
 3125SOL     OW19843   4.235   8.488   3.234
 3125SOL    HW119844   4.193   8.403   3.266
 3125SOL    HW219845   4.334   8.481   3.242
 3126SOL     OW19846   2.051   2.472   2.179
 3126SOL    HW119847   2.120   2.478   2.107
 3126SOL    HW219848   2.089   2.512   2.263
 3127SOL     OW19849   7.425   9.061   2.575
 3127SOL    HW119850   7.432   9.020   2.484
 3127SOL    HW219851   7.510   9.111   2.595
 3128SOL     OW19852   0.864   6.118   2.438
 3128SOL    HW119853   0.881   6.185   2.366
 3128SOL    HW219854   0.909   6.032   2.415
 3129SOL     OW19855   0.566   7.953   0.236
 3129SOL    HW119856   0.501   7.890   0.277
 3129SOL    HW219857   0.544   7.966   0.140
 3130SOL     OW19858   3.980   4.521   1.864
 3130SOL    HW119859   3.902   4.585   1.866
 3130SOL    HW219860   3.946   4.428   1.856
 3131SOL     OW19861   9.437   6.095   3.593
 3131SOL    HW119862   9.379   6.175   3.610
 3131SOL    HW219863   9.394   6.014   3.633
 3132SOL     OW19864   5.456   7.868   2.103
 3132SOL    HW119865   5.362   7.838   2.085
 3132SOL    HW219866   5.472   7.872   2.202
 3133SOL     OW19867   1.517   1.338   0.986
 3133SOL    HW119868   1.452   1.285   0.932
 3133SOL    HW219869   1.474   1.423   1.017
 3134SOL     OW19870   9.089   7.911   2.321
 3134SOL    HW119871   9.148   7.954   2.253
 3134SOL    HW219872   9.087   7.812   2.306
 3135SOL     OW19873   3.630   1.767   3.601
 3135SOL    HW119874   3.675   1.678   3.608
 3135SOL    HW219875   3.565   1.777   3.676
 3136SOL     OW19876   4.136   0.738   2.884
 3136SOL    HW119877   4.058   0.676   2.877
 3136SOL    HW219878   4.111   0.827   2.845
 3137SOL     OW19879   9.432   9.551   2.220
 3137SOL    HW119880   9.390   9.461   2.214
 3137SOL    HW219881   9.364   9.618   2.252
 3138SOL     OW19882   9.292   5.458   3.307
 3138SOL    HW119883   9.254   5.548   3.285
 3138SOL    HW219884   9.387   5.454   3.274
 3139SOL     OW19885   1.553   8.406   0.253
 3139SOL    HW119886   1.562   8.307   0.238
 3139SOL    HW219887   1.643   8.448   0.251
 3140SOL     OW19888   7.784   0.287   0.996
 3140SOL    HW119889   7.724   0.278   1.076
 3140SOL    HW219890   7.834   0.374   1.002
 3141SOL     OW19891   3.895   7.473   2.262
 3141SOL    HW119892   3.837   7.549   2.290
 3141SOL    HW219893   3.927   7.488   2.168
 3142SOL     OW19894   2.706   4.865   2.307
 3142SOL    HW119895   2.634   4.925   2.343
 3142SOL    HW219896   2.784   4.921   2.279
 3143SOL     OW19897   4.529   8.635   2.075
 3143SOL    HW119898   4.556   8.603   2.165
 3143SOL    HW219899   4.512   8.734   2.078
 3144SOL     OW19900   2.328   2.331   2.470
 3144SOL    HW119901   2.363   2.238   2.460
 3144SOL    HW219902   2.253   2.331   2.537
 3145SOL     OW19903   9.259   0.255   2.155
 3145SOL    HW119904   9.314   0.175   2.177
 3145SOL    HW219905   9.233   0.303   2.239
 3146SOL     OW19906   4.654   3.751   0.498
 3146SOL    HW119907   4.638   3.781   0.404
 3146SOL    HW219908   4.567   3.729   0.542
 3147SOL     OW19909   4.066   7.353   3.018
 3147SOL    HW119910   4.135   7.424   3.033
 3147SOL    HW219911   3.998   7.358   3.091
 3148SOL     OW19912   1.188   2.796   0.964
 3148SOL    HW119913   1.097   2.801   1.005
 3148SOL    HW219914   1.254   2.841   1.024
 3149SOL     OW19915   1.197   0.960   0.939
 3149SOL    HW119916   1.157   0.898   1.006
 3149SOL    HW219917   1.220   1.047   0.983
 3150SOL     OW19918   4.958   7.199   2.093
 3150SOL    HW119919   4.873   7.194   2.146
 3150SOL    HW219920   4.938   7.183   1.996
 3151SOL     OW19921   6.554   7.874   3.280
 3151SOL    HW119922   6.517   7.913   3.364
 3151SOL    HW219923   6.493   7.893   3.204
 3152SOL     OW19924   2.759   8.255   0.719
 3152SOL    HW119925   2.731   8.209   0.636
 3152SOL    HW219926   2.830   8.201   0.765
 3153SOL     OW19927   0.860   6.589   2.055
 3153SOL    HW119928   0.928   6.535   2.005
 3153SOL    HW219929   0.892   6.683   2.065
 3154SOL     OW19930   8.732   1.056   0.805
 3154SOL    HW119931   8.646   1.107   0.808
 3154SOL    HW219932   8.772   1.063   0.713
 3155SOL     OW19933   7.602   8.116   2.801
 3155SOL    HW119934   7.552   8.032   2.780
 3155SOL    HW219935   7.567   8.155   2.886
 3156SOL     OW19936   1.788   8.029   2.462
 3156SOL    HW119937   1.791   7.957   2.532
 3156SOL    HW219938   1.708   8.015   2.403
 3157SOL     OW19939   0.077   9.560   2.823
 3157SOL    HW119940   0.138   9.631   2.858
 3157SOL    HW219941   0.003   9.602   2.771
 3158SOL     OW19942   8.452   0.962   2.104
 3158SOL    HW119943   8.480   0.881   2.052
 3158SOL    HW219944   8.407   0.934   2.189
 3159SOL     OW19945   8.398   8.366   3.006
 3159SOL    HW119946   8.482   8.318   3.028
 3159SOL    HW219947   8.320   8.313   3.040
 3160SOL     OW19948   0.624   1.857   0.659
 3160SOL    HW119949   0.538   1.810   0.639
 3160SOL    HW219950   0.660   1.825   0.747
 3161SOL     OW19951   0.595   3.596   1.010
 3161SOL    HW119952   0.551   3.685   1.018
 3161SOL    HW219953   0.692   3.609   0.987
 3162SOL     OW19954   0.608   2.540   0.197
 3162SOL    HW119955   0.588   2.638   0.190
 3162SOL    HW219956   0.701   2.528   0.229
 3163SOL     OW19957   8.584   3.661   2.902
 3163SOL    HW119958   8.627   3.750   2.915
 3163SOL    HW219959   8.640   3.590   2.944
 3164SOL     OW19960   8.892   6.058   3.006
 3164SOL    HW119961   8.891   6.156   3.023
 3164SOL    HW219962   8.940   6.040   2.920
 3165SOL     OW19963   9.432   6.483   2.812
 3165SOL    HW119964   9.496   6.431   2.755
 3165SOL    HW219965   9.387   6.421   2.876
 3166SOL     OW19966   8.520   8.288   2.334
 3166SOL    HW119967   8.513   8.290   2.434
 3166SOL    HW219968   8.615   8.304   2.307
 3167SOL     OW19969   8.236   8.070   1.728
 3167SOL    HW119970   8.224   7.982   1.774
 3167SOL    HW219971   8.301   8.126   1.779
 3168SOL     OW19972   1.106   0.077   3.195
 3168SOL    HW119973   1.086   0.102   3.100
 3168SOL    HW219974   1.055   0.138   3.257
 3169SOL     OW19975   3.032   7.173   3.472
 3169SOL    HW119976   2.956   7.215   3.522
 3169SOL    HW219977   3.015   7.074   3.463
 3170SOL     OW19978   1.726   4.146   3.264
 3170SOL    HW119979   1.662   4.152   3.187
 3170SOL    HW219980   1.751   4.239   3.292
 3171SOL     OW19981   7.934   1.694   2.796
 3171SOL    HW119982   7.990   1.748   2.859
 3171SOL    HW219983   7.841   1.688   2.831
 3172SOL     OW19984   8.242   5.732   0.327
 3172SOL    HW119985   8.153   5.689   0.341
 3172SOL    HW219986   8.230   5.829   0.306
 3173SOL     OW19987   1.007   5.076   3.604
 3173SOL    HW119988   0.984   5.167   3.638
 3173SOL    HW219989   1.104   5.072   3.580
 3174SOL     OW19990   0.937   1.690   1.109
 3174SOL    HW119991   0.845   1.692   1.149
 3174SOL    HW219992   0.953   1.773   1.056
 3175SOL     OW19993   9.612   9.100   0.334
 3175SOL    HW119994   9.644   9.012   0.298
 3175SOL    HW219995   9.538   9.135   0.277
 3176SOL     OW19996   2.390   8.235   0.339
 3176SOL    HW119997   2.482   8.272   0.327
 3176SOL    HW219998   2.382   8.148   0.290
 3177SOL     OW19999   7.687   6.816   2.532
 3177SOL    HW120000   7.677   6.798   2.434
 3177SOL    HW220001   7.715   6.733   2.579
 3178SOL     OW20002   4.520   6.769   3.024
 3178SOL    HW120003   4.568   6.763   3.111
 3178SOL    HW220004   4.534   6.685   2.971
 3179SOL     OW20005   8.605   0.812   3.413
 3179SOL    HW120006   8.600   0.713   3.405
 3179SOL    HW220007   8.652   0.836   3.498
 3180SOL     OW20008   7.186   3.348   0.230
 3180SOL    HW120009   7.184   3.285   0.152
 3180SOL    HW220010   7.140   3.433   0.205
 3181SOL     OW20011   1.854   3.679   1.644
 3181SOL    HW120012   1.852   3.610   1.572
 3181SOL    HW220013   1.933   3.738   1.632
 3182SOL     OW20014   8.090   6.907   2.728
 3182SOL    HW120015   8.072   6.934   2.823
 3182SOL    HW220016   8.185   6.875   2.720
 3183SOL     OW20017   0.227   4.613   1.163
 3183SOL    HW120018   0.127   4.619   1.165
 3183SOL    HW220019   0.255   4.518   1.169
 3184SOL     OW20020   1.110   1.336   3.306
 3184SOL    HW120021   1.085   1.271   3.377
 3184SOL    HW220022   1.200   1.375   3.327
 3185SOL     OW20023   2.304   1.491   0.901
 3185SOL    HW120024   2.224   1.432   0.913
 3185SOL    HW220025   2.326   1.535   0.988
 3186SOL     OW20026   0.774   1.503   0.842
 3186SOL    HW120027   0.769   1.601   0.859
 3186SOL    HW220028   0.777   1.454   0.929
 3187SOL     OW20029   3.986   1.700   3.101
 3187SOL    HW120030   3.893   1.699   3.063
 3187SOL    HW220031   3.982   1.672   3.197
 3188SOL     OW20032   4.801   6.911   3.625
 3188SOL    HW120033   4.798   6.973   3.547
 3188SOL    HW220034   4.844   6.825   3.598
 3189SOL     OW20035   9.720   9.287   0.500
 3189SOL    HW120036   9.815   9.262   0.519
 3189SOL    HW220037   9.675   9.213   0.451
 3190SOL     OW20038   3.219   6.933   2.185
 3190SOL    HW120039   3.245   6.898   2.275
 3190SOL    HW220040   3.275   7.013   2.163
 3191SOL     OW20041   2.588   4.397   0.597
 3191SOL    HW120042   2.682   4.395   0.629
 3191SOL    HW220043   2.558   4.492   0.588
 3192SOL     OW20044   3.294   2.033   3.617
 3192SOL    HW120045   3.379   2.064   3.661
 3192SOL    HW220046   3.272   1.941   3.649
 3193SOL     OW20047   0.131   9.164   3.397
 3193SOL    HW120048   0.085   9.224   3.463
 3193SOL    HW220049   0.179   9.091   3.447
 3194SOL     OW20050   3.728   3.904   0.130
 3194SOL    HW120051   3.800   3.846   0.166
 3194SOL    HW220052   3.763   3.998   0.120
 3195SOL     OW20053   4.072   0.156   0.810
 3195SOL    HW120054   4.034   0.247   0.792
 3195SOL    HW220055   4.111   0.154   0.902
 3196SOL     OW20056   7.493   1.837   2.457
 3196SOL    HW120057   7.433   1.756   2.453
 3196SOL    HW220058   7.524   1.860   2.365
 3197SOL     OW20059   5.055   6.821   2.793
 3197SOL    HW120060   5.078   6.853   2.885
 3197SOL    HW220061   5.105   6.875   2.726
 3198SOL     OW20062   3.289   9.164   1.362
 3198SOL    HW120063   3.326   9.150   1.270
 3198SOL    HW220064   3.192   9.139   1.362
 3199SOL     OW20065   7.909   5.936   2.349
 3199SOL    HW120066   7.952   5.918   2.261
 3199SOL    HW220067   7.962   6.006   2.398
 3200SOL     OW20068   4.341   7.653   0.416
 3200SOL    HW120069   4.252   7.632   0.457
 3200SOL    HW220070   4.328   7.722   0.344
 3201SOL     OW20071   8.912   9.861   2.084
 3201SOL    HW120072   8.862   9.863   2.170
 3201SOL    HW220073   8.881   9.936   2.026
 3202SOL     OW20074   4.383   9.732   3.284
 3202SOL    HW120075   4.318   9.701   3.216
 3202SOL    HW220076   4.344   9.723   3.376
 3203SOL     OW20077   1.288   4.885   0.808
 3203SOL    HW120078   1.296   4.902   0.710
 3203SOL    HW220079   1.221   4.812   0.824
 3204SOL     OW20080   9.934   8.930   3.185
 3204SOL    HW120081   9.926   8.854   3.249
 3204SOL    HW220082   9.936   8.895   3.092
 3205SOL     OW20083   9.248   3.092   0.701
 3205SOL    HW120084   9.270   3.134   0.613
 3205SOL    HW220085   9.284   3.149   0.775
 3206SOL     OW20086   3.974   1.813   1.955
 3206SOL    HW120087   3.878   1.790   1.968
 3206SOL    HW220088   4.031   1.734   1.979
 3207SOL     OW20089   7.648   2.524   0.571
 3207SOL    HW120090   7.597   2.594   0.520
 3207SOL    HW220091   7.587   2.479   0.636
 3208SOL     OW20092   1.546   9.373   3.006
 3208SOL    HW120093   1.518   9.351   3.099
 3208SOL    HW220094   1.629   9.428   3.008
 3209SOL     OW20095   4.387   2.281   3.013
 3209SOL    HW120096   4.433   2.202   2.972
 3209SOL    HW220097   4.433   2.365   2.985
 3210SOL     OW20098   1.911   2.920   3.247
 3210SOL    HW120099   1.941   2.871   3.165
 3210SOL    HW220100   1.903   2.856   3.324
 3211SOL     OW20101   9.762   5.186   1.410
 3211SOL    HW120102   9.739   5.267   1.355
 3211SOL    HW220103   9.698   5.112   1.389
 3212SOL     OW20104   9.893   6.436   2.243
 3212SOL    HW120105   9.853   6.356   2.199
 3212SOL    HW220106   9.904   6.418   2.341
 3213SOL     OW20107   2.357   5.490   3.621
 3213SOL    HW120108   2.423   5.565   3.612
 3213SOL    HW220109   2.405   5.404   3.634
 3214SOL     OW20110   0.846   8.963   3.270
 3214SOL    HW120111   0.771   8.952   3.205
 3214SOL    HW220112   0.814   9.015   3.349
 3215SOL     OW20113   5.344   7.183   1.908
 3215SOL    HW120114   5.379   7.089   1.907
 3215SOL    HW220115   5.421   7.247   1.908
 3216SOL     OW20116   9.603   1.219   1.544
 3216SOL    HW120117   9.589   1.257   1.636
 3216SOL    HW220118   9.555   1.276   1.477
 3217SOL     OW20119   1.576   3.094   3.669
 3217SOL    HW120120   1.551   3.188   3.649
 3217SOL    HW220121   1.508   3.054   3.731
 3218SOL     OW20122   8.750   7.244   2.974
 3218SOL    HW120123   8.771   7.333   2.933
 3218SOL    HW220124   8.651   7.233   2.981
 3219SOL     OW20125   7.988   1.124   3.544
 3219SOL    HW120126   8.044   1.194   3.589
 3219SOL    HW220127   7.986   1.142   3.445
 3220SOL     OW20128   7.149   9.191   0.734
 3220SOL    HW120129   7.220   9.231   0.676
 3220SOL    HW220130   7.065   9.244   0.726
 3221SOL     OW20131   9.223   4.647   2.901
 3221SOL    HW120132   9.228   4.552   2.931
 3221SOL    HW220133   9.208   4.649   2.802
 3222SOL     OW20134   8.630   8.330   1.711
 3222SOL    HW120135   8.704   8.368   1.656
 3222SOL    HW220136   8.620   8.383   1.796
 3223SOL     OW20137   0.369   0.535   1.574
 3223SOL    HW120138   0.283   0.509   1.530
 3223SOL    HW220139   0.369   0.503   1.669
 3224SOL     OW20140   1.569   4.798   0.527
 3224SOL    HW120141   1.536   4.727   0.590
 3224SOL    HW220142   1.668   4.804   0.533
 3225SOL     OW20143   3.579   2.036   2.341
 3225SOL    HW120144   3.646   1.989   2.284
 3225SOL    HW220145   3.491   1.989   2.334
 3226SOL     OW20146   6.399   9.929   3.517
 3226SOL    HW120147   6.404   0.019   3.559
 3226SOL    HW220148   6.441   9.861   3.578
 3227SOL     OW20149   7.919   4.959   1.009
 3227SOL    HW120150   7.989   4.942   1.078
 3227SOL    HW220151   7.961   4.995   0.926
 3228SOL     OW20152   4.131   0.831   0.847
 3228SOL    HW120153   4.092   0.748   0.887
 3228SOL    HW220154   4.165   0.890   0.920
 3229SOL     OW20155   2.193   4.352   2.956
 3229SOL    HW120156   2.290   4.371   2.975
 3229SOL    HW220157   2.168   4.391   2.868
 3230SOL     OW20158   0.928   9.391   0.341
 3230SOL    HW120159   0.876   9.379   0.256
 3230SOL    HW220160   0.903   9.478   0.384
 3231SOL     OW20161   1.937   7.468   1.622
 3231SOL    HW120162   1.937   7.496   1.718
 3231SOL    HW220163   1.904   7.373   1.615
 3232SOL     OW20164   8.512   4.351   3.706
 3232SOL    HW120165   8.520   4.295   3.788
 3232SOL    HW220166   8.598   4.398   3.689
 3233SOL     OW20167   8.902   7.226   1.467
 3233SOL    HW120168   8.998   7.225   1.495
 3233SOL    HW220169   8.894   7.193   1.373
 3234SOL     OW20170   9.669   7.482   2.491
 3234SOL    HW120171   9.679   7.411   2.560
 3234SOL    HW220172   9.681   7.572   2.532
 3235SOL     OW20173   8.948   3.745   0.799
 3235SOL    HW120174   8.853   3.719   0.814
 3235SOL    HW220175   8.958   3.784   0.707
 3236SOL     OW20176   7.378   7.347   2.910
 3236SOL    HW120177   7.476   7.334   2.924
 3236SOL    HW220178   7.328   7.315   2.990
 3237SOL     OW20179   2.345   9.086   0.311
 3237SOL    HW120180   2.245   9.095   0.305
 3237SOL    HW220181   2.370   9.051   0.402
 3238SOL     OW20182   3.871   9.398   1.973
 3238SOL    HW120183   3.829   9.367   1.887
 3238SOL    HW220184   3.968   9.376   1.972
 3239SOL     OW20185   1.597   2.449   0.919
 3239SOL    HW120186   1.521   2.464   0.982
 3239SOL    HW220187   1.678   2.421   0.971
 3240SOL     OW20188   9.994   0.824   3.658
 3240SOL    HW120189   0.012   0.832   3.756
 3240SOL    HW220190   0.005   0.913   3.615
 3241SOL     OW20191   5.115   6.909   3.051
 3241SOL    HW120192   5.144   7.004   3.060
 3241SOL    HW220193   5.184   6.849   3.092
 3242SOL     OW20194   5.949   8.046   3.408
 3242SOL    HW120195   5.889   8.109   3.358
 3242SOL    HW220196   5.932   8.056   3.506
 3243SOL     OW20197   7.692   7.791   3.082
 3243SOL    HW120198   7.781   7.807   3.039
 3243SOL    HW220199   7.632   7.746   3.016
 3244SOL     OW20200   2.897   2.846   3.673
 3244SOL    HW120201   2.990   2.825   3.642
 3244SOL    HW220202   2.837   2.768   3.655
 3245SOL     OW20203   8.678   4.992   1.513
 3245SOL    HW120204   8.640   4.935   1.440
 3245SOL    HW220205   8.605   5.023   1.573
 3246SOL     OW20206   1.545   6.188   2.263
 3246SOL    HW120207   1.594   6.235   2.190
 3246SOL    HW220208   1.454   6.227   2.272
 3247SOL     OW20209   9.461   0.839   3.210
 3247SOL    HW120210   9.526   0.773   3.172
 3247SOL    HW220211   9.428   0.899   3.137
 3248SOL     OW20212   3.563   4.125   2.732
 3248SOL    HW120213   3.604   4.057   2.672
 3248SOL    HW220214   3.513   4.079   2.805
 3249SOL     OW20215   9.061   9.441   3.018
 3249SOL    HW120216   9.139   9.503   3.020
 3249SOL    HW220217   9.091   9.347   3.036
 3250SOL     OW20218   3.635   8.570   2.409
 3250SOL    HW120219   3.725   8.527   2.401
 3250SOL    HW220220   3.590   8.539   2.493
 3251SOL     OW20221   7.997   2.775   1.143
 3251SOL    HW120222   8.051   2.706   1.191
 3251SOL    HW220223   8.058   2.840   1.099
 3252SOL     OW20224   8.675   1.560   0.024
 3252SOL    HW120225   8.685   1.555   4.706
 3252SOL    HW220226   8.765   1.572   0.066
 3253SOL     OW20227   2.526   7.802   2.993
 3253SOL    HW120228   2.487   7.894   2.996
 3253SOL    HW220229   2.519   7.766   2.900
 3254SOL     OW20230   2.535   4.353   0.185
 3254SOL    HW120231   2.507   4.305   0.268
 3254SOL    HW220232   2.506   4.449   0.190
 3255SOL     OW20233   3.775   5.573   3.646
 3255SOL    HW120234   3.792   5.480   3.611
 3255SOL    HW220235   3.696   5.612   3.598
 3256SOL     OW20236   3.828   4.135   1.616
 3256SOL    HW120237   3.855   4.165   1.708
 3256SOL    HW220238   3.736   4.097   1.619
 3257SOL     OW20239   3.888   8.414   2.896
 3257SOL    HW120240   3.814   8.405   2.963
 3257SOL    HW220241   3.883   8.504   2.853
 3258SOL     OW20242   4.589   7.140   1.572
 3258SOL    HW120243   4.504   7.192   1.578
 3258SOL    HW220244   4.573   7.055   1.522
 3259SOL     OW20245   9.496   5.212   0.512
 3259SOL    HW120246   9.399   5.196   0.492
 3259SOL    HW220247   9.538   5.125   0.540
 3260SOL     OW20248   1.854   5.640   2.217
 3260SOL    HW120249   1.837   5.721   2.160
 3260SOL    HW220250   1.784   5.571   2.199
 3261SOL     OW20251   3.231   5.550   3.030
 3261SOL    HW120252   3.233   5.587   2.937
 3261SOL    HW220253   3.308   5.587   3.082
 3262SOL     OW20254   1.876   4.727   3.621
 3262SOL    HW120255   1.913   4.776   3.542
 3262SOL    HW220256   1.839   4.793   3.687
 3263SOL     OW20257   8.720   4.624   1.655
 3263SOL    HW120258   8.657   4.647   1.730
 3263SOL    HW220259   8.810   4.662   1.675
 3264SOL     OW20260   6.893   9.829   3.036
 3264SOL    HW120261   6.846   9.743   3.014
 3264SOL    HW220262   6.927   9.824   3.130
 3265SOL     OW20263   3.709   0.850   1.647
 3265SOL    HW120264   3.690   0.935   1.698
 3265SOL    HW220265   3.808   0.837   1.640
 3266SOL     OW20266   8.981   9.734   2.423
 3266SOL    HW120267   8.960   9.643   2.388
 3266SOL    HW220268   8.914   9.800   2.389
 3267SOL     OW20269   1.851   7.703   2.373
 3267SOL    HW120270   1.797   7.719   2.290
 3267SOL    HW220271   1.823   7.616   2.414
 3268SOL     OW20272   1.599   6.247   1.632
 3268SOL    HW120273   1.583   6.150   1.613
 3268SOL    HW220274   1.525   6.301   1.591
 3269SOL     OW20275   9.503   0.452   0.375
 3269SOL    HW120276   9.546   0.369   0.339
 3269SOL    HW220277   9.573   0.521   0.392
 3270SOL     OW20278   4.385   0.333   4.770
 3270SOL    HW120279   4.343   0.354   4.682
 3270SOL    HW220280   4.476   0.373   4.774
 3271SOL     OW20281   0.065   5.542   2.358
 3271SOL    HW120282   9.996   5.537   2.431
 3271SOL    HW220283   0.020   5.553   2.270
 3272SOL     OW20284   3.874   7.833   1.995
 3272SOL    HW120285   3.849   7.745   1.955
 3272SOL    HW220286   3.815   7.851   2.074
 3273SOL     OW20287   9.952   4.336   2.910
 3273SOL    HW120288   9.967   4.288   2.824
 3273SOL    HW220289   0.001   4.424   2.909
 3274SOL     OW20290   8.524   7.585   0.966
 3274SOL    HW120291   8.451   7.528   0.927
 3274SOL    HW220292   8.594   7.601   0.896
 3275SOL     OW20293   6.301   9.569   1.532
 3275SOL    HW120294   6.224   9.584   1.470
 3275SOL    HW220295   6.314   9.470   1.545
 3276SOL     OW20296   0.353   3.672   2.826
 3276SOL    HW120297   0.324   3.678   2.922
 3276SOL    HW220298   0.451   3.693   2.819
 3277SOL     OW20299   1.222   4.849   0.194
 3277SOL    HW120300   1.187   4.908   0.121
 3277SOL    HW220301   1.157   4.775   0.210
 3278SOL     OW20302   9.741   5.336   0.803
 3278SOL    HW120303   9.782   5.263   0.748
 3278SOL    HW220304   9.665   5.376   0.752
 3279SOL     OW20305   9.214   4.718   1.570
 3279SOL    HW120306   9.224   4.627   1.610
 3279SOL    HW220307   9.263   4.723   1.484
 3280SOL     OW20308   8.590   6.775   1.371
 3280SOL    HW120309   8.553   6.846   1.311
 3280SOL    HW220310   8.514   6.722   1.411
 3281SOL     OW20311   9.711   3.884   3.107
 3281SOL    HW120312   9.715   3.847   3.014
 3281SOL    HW220313   9.681   3.979   3.103
 3282SOL     OW20314   9.605   1.396   0.985
 3282SOL    HW120315   9.585   1.483   1.029
 3282SOL    HW220316   9.660   1.340   1.046
 3283SOL     OW20317   3.284   2.927   1.336
 3283SOL    HW120318   3.247   3.004   1.389
 3283SOL    HW220319   3.371   2.953   1.295
 3284SOL     OW20320   2.921   1.254   2.426
 3284SOL    HW120321   3.006   1.239   2.477
 3284SOL    HW220322   2.847   1.204   2.471
 3285SOL     OW20323   2.355   7.211   1.332
 3285SOL    HW120324   2.414   7.131   1.319
 3285SOL    HW220325   2.319   7.210   1.426
 3286SOL     OW20326   9.458   5.699   3.495
 3286SOL    HW120327   9.484   5.724   3.401
 3286SOL    HW220328   9.419   5.608   3.495
 3287SOL     OW20329   0.314   4.391   3.541
 3287SOL    HW120330   0.226   4.397   3.494
 3287SOL    HW220331   0.379   4.452   3.497
 3288SOL     OW20332   9.813   7.064   3.690
 3288SOL    HW120333   9.794   7.162   3.679
 3288SOL    HW220334   9.910   7.050   3.708
 3289SOL     OW20335   4.882   9.325   2.881
 3289SOL    HW120336   4.855   9.407   2.930
 3289SOL    HW220337   4.939   9.268   2.941
 3290SOL     OW20338   3.220   3.177   1.455
 3290SOL    HW120339   3.297   3.233   1.487
 3290SOL    HW220340   3.201   3.198   1.360
 3291SOL     OW20341   3.359   4.959   3.744
 3291SOL    HW120342   3.415   4.953   3.661
 3291SOL    HW220343   3.382   5.042   3.794
 3292SOL     OW20344   9.536   6.252   1.058
 3292SOL    HW120345   9.557   6.299   1.144
 3292SOL    HW220346   9.607   6.274   0.990
 3293SOL     OW20347   3.764   1.606   1.155
 3293SOL    HW120348   3.691   1.593   1.088
 3293SOL    HW220349   3.844   1.553   1.127
 3294SOL     OW20350   0.811   6.380   1.645
 3294SOL    HW120351   0.731   6.321   1.647
 3294SOL    HW220352   0.859   6.368   1.559
 3295SOL     OW20353   8.505   1.089   3.608
 3295SOL    HW120354   8.590   1.038   3.620
 3295SOL    HW220355   8.518   1.159   3.538
 3296SOL     OW20356   4.167   2.486   0.530
 3296SOL    HW120357   4.148   2.576   0.570
 3296SOL    HW220358   4.182   2.420   0.603
 3297SOL     OW20359   7.989   4.655   2.887
 3297SOL    HW120360   8.052   4.632   2.812
 3297SOL    HW220361   7.928   4.728   2.857
 3298SOL     OW20362   9.656   2.239   1.467
 3298SOL    HW120363   9.621   2.275   1.380
 3298SOL    HW220364   9.580   2.202   1.520
 3299SOL     OW20365   3.446   9.178   2.500
 3299SOL    HW120366   3.487   9.092   2.529
 3299SOL    HW220367   3.368   9.199   2.560
 3300SOL     OW20368   5.281   8.891   2.665
 3300SOL    HW120369   5.214   8.956   2.631
 3300SOL    HW220370   5.357   8.884   2.601
 3301SOL     OW20371   4.056   2.027   0.283
 3301SOL    HW120372   3.979   2.080   0.248
 3301SOL    HW220373   4.109   2.084   0.347
 3302SOL     OW20374   1.129   6.760   0.708
 3302SOL    HW120375   1.177   6.750   0.795
 3302SOL    HW220376   1.140   6.677   0.654
 3303SOL     OW20377   1.598   5.968   1.629
 3303SOL    HW120378   1.578   5.874   1.601
 3303SOL    HW220379   1.697   5.983   1.628
 3304SOL     OW20380   0.695   5.001   2.603
 3304SOL    HW120381   0.764   4.943   2.647
 3304SOL    HW220382   0.708   5.096   2.633
 3305SOL     OW20383   8.447   0.283   2.833
 3305SOL    HW120384   8.370   0.220   2.821
 3305SOL    HW220385   8.480   0.279   2.927
 3306SOL     OW20386   6.232   6.838   2.906
 3306SOL    HW120387   6.218   6.935   2.924
 3306SOL    HW220388   6.329   6.822   2.887
 3307SOL     OW20389   7.533   4.974   0.648
 3307SOL    HW120390   7.535   4.899   0.714
 3307SOL    HW220391   7.611   5.034   0.663
 3308SOL     OW20392   3.974   4.208   0.491
 3308SOL    HW120393   3.909   4.133   0.479
 3308SOL    HW220394   4.007   4.208   0.585
 3309SOL     OW20395   9.764   3.416   3.374
 3309SOL    HW120396   9.734   3.431   3.280
 3309SOL    HW220397   9.723   3.485   3.433
 3310SOL     OW20398   7.933   9.627   3.437
 3310SOL    HW120399   7.981   9.647   3.523
 3310SOL    HW220400   7.856   9.567   3.456
 3311SOL     OW20401   2.042   4.509   3.621
 3311SOL    HW120402   2.084   4.497   3.711
 3311SOL    HW220403   1.979   4.586   3.623
 3312SOL     OW20404   1.280   9.212   1.218
 3312SOL    HW120405   1.276   9.120   1.181
 3312SOL    HW220406   1.205   9.225   1.284
 3313SOL     OW20407   4.627   4.739   1.476
 3313SOL    HW120408   4.609   4.685   1.558
 3313SOL    HW220409   4.590   4.691   1.396
 3314SOL     OW20410   8.049   0.954   0.159
 3314SOL    HW120411   8.143   0.987   0.158
 3314SOL    HW220412   7.987   1.028   0.134
 3315SOL     OW20413   0.478   3.955   2.971
 3315SOL    HW120414   0.531   3.885   2.922
 3315SOL    HW220415   0.538   4.029   3.000
 3316SOL     OW20416   6.036   0.249   2.384
 3316SOL    HW120417   6.129   0.227   2.413
 3316SOL    HW220418   6.029   0.239   2.285
 3317SOL     OW20419   1.214   9.283   3.601
 3317SOL    HW120420   1.165   9.220   3.662
 3317SOL    HW220421   1.215   9.374   3.642
 3318SOL     OW20422   7.571   7.281   3.457
 3318SOL    HW120423   7.491   7.241   3.502
 3318SOL    HW220424   7.547   7.305   3.363
 3319SOL     OW20425   3.405   5.241   2.210
 3319SOL    HW120426   3.411   5.340   2.210
 3319SOL    HW220427   3.496   5.202   2.229
 3320SOL     OW20428   8.728   2.085   1.016
 3320SOL    HW120429   8.674   2.167   0.998
 3320SOL    HW220430   8.685   2.032   1.089
 3321SOL     OW20431   8.825   0.086   1.960
 3321SOL    HW120432   8.764   0.122   1.889
 3321SOL    HW220433   8.889   0.157   1.988
 3322SOL     OW20434   2.607   4.240   3.450
 3322SOL    HW120435   2.705   4.251   3.430
 3322SOL    HW220436   2.578   4.311   3.514
 3323SOL     OW20437   2.888   0.266   3.363
 3323SOL    HW120438   2.788   0.262   3.359
 3323SOL    HW220439   2.916   0.285   3.457
 3324SOL     OW20440   3.524   9.971   2.340
 3324SOL    HW120441   3.582   0.048   2.368
 3324SOL    HW220442   3.504   9.914   2.419
 3325SOL     OW20443   5.682   7.069   1.951
 3325SOL    HW120444   5.605   7.009   1.931
 3325SOL    HW220445   5.740   7.028   2.021
 3326SOL     OW20446   3.787   1.842   2.748
 3326SOL    HW120447   3.877   1.881   2.731
 3326SOL    HW220448   3.789   1.789   2.832
 3327SOL     OW20449   9.792   1.747   2.791
 3327SOL    HW120450   9.821   1.793   2.874
 3327SOL    HW220451   9.824   1.798   2.711
 3328SOL     OW20452   0.643   1.097   3.007
 3328SOL    HW120453   0.727   1.091   2.953
 3328SOL    HW220454   0.596   1.009   3.004
 3329SOL     OW20455   0.344   6.814   0.588
 3329SOL    HW120456   0.394   6.798   0.502
 3329SOL    HW220457   0.400   6.782   0.665
 3330SOL     OW20458   2.834   4.520   2.204
 3330SOL    HW120459   2.830   4.567   2.292
 3330SOL    HW220460   2.775   4.568   2.138
 3331SOL     OW20461   9.602   4.676   1.826
 3331SOL    HW120462   9.608   4.729   1.910
 3331SOL    HW220463   9.583   4.580   1.848
 3332SOL     OW20464   9.218   5.715   3.220
 3332SOL    HW120465   9.131   5.764   3.212
 3332SOL    HW220466   9.289   5.776   3.254
 3333SOL     OW20467   9.593   4.512   2.792
 3333SOL    HW120468   9.519   4.453   2.760
 3333SOL    HW220469   9.635   4.472   2.873
 3334SOL     OW20470   8.984   5.845   3.166
 3334SOL    HW120471   8.914   5.777   3.145
 3334SOL    HW220472   8.959   5.932   3.124
 3335SOL     OW20473   5.140   1.703   1.774
 3335SOL    HW120474   5.048   1.737   1.756
 3335SOL    HW220475   5.151   1.614   1.728
 3336SOL     OW20476   2.154   1.137   1.597
 3336SOL    HW120477   2.246   1.153   1.562
 3336SOL    HW220478   2.129   1.208   1.662
 3337SOL     OW20479   9.594   5.846   1.201
 3337SOL    HW120480   9.675   5.791   1.181
 3337SOL    HW220481   9.520   5.786   1.233
 3338SOL     OW20482   8.000   7.017   2.990
 3338SOL    HW120483   8.054   6.965   3.056
 3338SOL    HW220484   7.904   7.019   3.019
 3339SOL     OW20485   3.762   2.876   0.393
 3339SOL    HW120486   3.675   2.923   0.376
 3339SOL    HW220487   3.781   2.876   0.491
 3340SOL     OW20488   7.537   9.947   3.210
 3340SOL    HW120489   7.442   9.978   3.215
 3340SOL    HW220490   7.561   9.927   3.115
 3341SOL     OW20491   0.915   2.158   0.835
 3341SOL    HW120492   0.824   2.152   0.794
 3341SOL    HW220493   0.927   2.248   0.878
 3342SOL     OW20494   3.458   4.169   0.844
 3342SOL    HW120495   3.392   4.158   0.917
 3342SOL    HW220496   3.536   4.109   0.860
 3343SOL     OW20497   9.272   0.742   1.019
 3343SOL    HW120498   9.198   0.675   1.025
 3343SOL    HW220499   9.360   0.694   1.010
 3344SOL     OW20500   3.738   8.481   3.688
 3344SOL    HW120501   3.788   8.395   3.677
 3344SOL    HW220502   3.713   8.492   3.784
 3345SOL     OW20503   5.162   0.455   3.523
 3345SOL    HW120504   5.132   0.365   3.491
 3345SOL    HW220505   5.083   0.515   3.534
 3346SOL     OW20506   8.596   5.400   1.535
 3346SOL    HW120507   8.645   5.480   1.569
 3346SOL    HW220508   8.659   5.342   1.483
 3347SOL     OW20509   4.842   2.439   1.724
 3347SOL    HW120510   4.850   2.521   1.780
 3347SOL    HW220511   4.855   2.358   1.781
 3348SOL     OW20512   2.328   3.405   2.800
 3348SOL    HW120513   2.404   3.347   2.830
 3348SOL    HW220514   2.248   3.387   2.857
 3349SOL     OW20515   2.303   2.221   2.023
 3349SOL    HW120516   2.218   2.170   2.034
 3349SOL    HW220517   2.366   2.196   2.097
 3350SOL     OW20518   9.966   6.289   1.053
 3350SOL    HW120519   9.995   6.194   1.068
 3350SOL    HW220520   9.922   6.324   1.136
 3351SOL     OW20521   4.384   3.117   0.843
 3351SOL    HW120522   4.481   3.124   0.820
 3351SOL    HW220523   4.373   3.131   0.942
 3352SOL     OW20524   0.458   1.366   0.276
 3352SOL    HW120525   0.432   1.283   0.226
 3352SOL    HW220526   0.504   1.429   0.214
 3353SOL     OW20527   6.200   8.081   3.304
 3353SOL    HW120528   6.111   8.061   3.346
 3353SOL    HW220529   6.272   8.066   3.372
 3354SOL     OW20530   3.602   7.116   1.208
 3354SOL    HW120531   3.620   7.093   1.113
 3354SOL    HW220532   3.523   7.177   1.213
 3355SOL     OW20533   0.448   9.409   0.423
 3355SOL    HW120534   0.365   9.438   0.374
 3355SOL    HW220535   0.465   9.471   0.499
 3356SOL     OW20536   8.388   3.198   0.413
 3356SOL    HW120537   8.309   3.189   0.352
 3356SOL    HW220538   8.411   3.108   0.452
 3357SOL     OW20539   8.939   8.639   2.690
 3357SOL    HW120540   9.002   8.713   2.714
 3357SOL    HW220541   8.984   8.573   2.631
 3358SOL     OW20542   9.071   6.498   2.909
 3358SOL    HW120543   9.108   6.563   2.976
 3358SOL    HW220544   9.110   6.516   2.819
 3359SOL     OW20545   9.841   7.087   3.354
 3359SOL    HW120546   9.823   6.988   3.359
 3359SOL    HW220547   9.911   7.111   3.421
 3360SOL     OW20548   9.057   9.297   1.619
 3360SOL    HW120549   8.972   9.251   1.592
 3360SOL    HW220550   9.035   9.388   1.654
 3361SOL     OW20551   1.249   1.060   2.020
 3361SOL    HW120552   1.200   1.006   2.089
 3361SOL    HW220553   1.347   1.040   2.027
 3362SOL     OW20554   9.381   8.279   0.698
 3362SOL    HW120555   9.430   8.248   0.779
 3362SOL    HW220556   9.335   8.201   0.654
 3363SOL     OW20557   7.755   0.890   1.499
 3363SOL    HW120558   7.707   0.813   1.457
 3363SOL    HW220559   7.761   0.966   1.434
 3364SOL     OW20560   4.780   7.569   2.652
 3364SOL    HW120561   4.681   7.569   2.670
 3364SOL    HW220562   4.796   7.548   2.556
 3365SOL     OW20563   0.061   0.668   2.609
 3365SOL    HW120564   9.992   0.596   2.610
 3365SOL    HW220565   0.070   0.705   2.516
 3366SOL     OW20566   2.865   4.551   3.351
 3366SOL    HW120567   2.833   4.599   3.432
 3366SOL    HW220568   2.872   4.453   3.371
 3367SOL     OW20569   5.783   7.157   2.903
 3367SOL    HW120570   5.800   7.059   2.914
 3367SOL    HW220571   5.784   7.201   2.993
 3368SOL     OW20572   1.218   4.357   2.394
 3368SOL    HW120573   1.278   4.294   2.345
 3368SOL    HW220574   1.264   4.389   2.477
 3369SOL     OW20575   4.779   8.417   0.540
 3369SOL    HW120576   4.850   8.351   0.561
 3369SOL    HW220577   4.807   8.472   0.461
 3370SOL     OW20578   8.852   7.459   1.604
 3370SOL    HW120579   8.927   7.485   1.664
 3370SOL    HW220580   8.871   7.369   1.563
 3371SOL     OW20581   2.135   2.942   0.552
 3371SOL    HW120582   2.186   3.014   0.599
 3371SOL    HW220583   2.039   2.945   0.581
 3372SOL     OW20584   8.821   7.007   2.864
 3372SOL    HW120585   8.801   7.096   2.906
 3372SOL    HW220586   8.897   7.018   2.800
 3373SOL     OW20587   1.456   1.484   0.639
 3373SOL    HW120588   1.365   1.506   0.674
 3373SOL    HW220589   1.460   1.387   0.616
 3374SOL     OW20590   2.658   8.417   0.934
 3374SOL    HW120591   2.695   8.391   1.023
 3374SOL    HW220592   2.699   8.360   0.863
 3375SOL     OW20593   4.348   7.240   0.170
 3375SOL    HW120594   4.381   7.334   0.163
 3375SOL    HW220595   4.425   7.178   0.187
 3376SOL     OW20596   0.413   0.464   1.838
 3376SOL    HW120597   0.429   0.540   1.901
 3376SOL    HW220598   0.480   0.392   1.856
 3377SOL     OW20599   3.342   5.789   1.416
 3377SOL    HW120600   3.388   5.852   1.354
 3377SOL    HW220601   3.254   5.762   1.377
 3378SOL     OW20602   8.466   3.116   3.455
 3378SOL    HW120603   8.533   3.054   3.495
 3378SOL    HW220604   8.378   3.105   3.502
 3379SOL     OW20605   9.205   9.669   0.860
 3379SOL    HW120606   9.242   9.711   0.944
 3379SOL    HW220607   9.127   9.722   0.828
 3380SOL     OW20608   9.372   3.341   2.123
 3380SOL    HW120609   9.281   3.355   2.085
 3380SOL    HW220610   9.422   3.428   2.122
 3381SOL     OW20611   8.254   8.295   3.668
 3381SOL    HW120612   8.337   8.339   3.634
 3381SOL    HW220613   8.184   8.364   3.686
 3382SOL     OW20614   8.467   3.522   2.696
 3382SOL    HW120615   8.483   3.574   2.612
 3382SOL    HW220616   8.513   3.567   2.772
 3383SOL     OW20617   9.445   0.910   0.730
 3383SOL    HW120618   9.437   0.893   0.631
 3383SOL    HW220619   9.353   0.928   0.767
 3384SOL     OW20620   7.968   6.861   3.423
 3384SOL    HW120621   8.003   6.792   3.486
 3384SOL    HW220622   7.936   6.941   3.475
 3385SOL     OW20623   1.354   9.331   1.535
 3385SOL    HW120624   1.443   9.332   1.582
 3385SOL    HW220625   1.358   9.391   1.455
 3386SOL     OW20626   0.884   8.157   1.186
 3386SOL    HW120627   0.788   8.131   1.180
 3386SOL    HW220628   0.940   8.090   1.138
 3387SOL     OW20629   0.150   3.732   0.616
 3387SOL    HW120630   0.245   3.751   0.640
 3387SOL    HW220631   0.135   3.750   0.519
 3388SOL     OW20632   1.907   6.444   0.786
 3388SOL    HW120633   1.936   6.387   0.863
 3388SOL    HW220634   1.965   6.426   0.707
 3389SOL     OW20635   1.671   7.189   3.048
 3389SOL    HW120636   1.610   7.248   2.995
 3389SOL    HW220637   1.741   7.246   3.093
 3390SOL     OW20638   9.952   1.484   3.581
 3390SOL    HW120639   9.918   1.488   3.675
 3390SOL    HW220640   0.042   1.441   3.580
 3391SOL     OW20641   1.929   2.941   2.922
 3391SOL    HW120642   1.898   2.973   2.833
 3391SOL    HW220643   1.947   3.019   2.981
 3392SOL     OW20644   2.240   5.885   2.835
 3392SOL    HW120645   2.215   5.803   2.784
 3392SOL    HW220646   2.192   5.964   2.796
 3393SOL     OW20647   1.192   6.508   0.585
 3393SOL    HW120648   1.273   6.555   0.549
 3393SOL    HW220649   1.191   6.414   0.552
 3394SOL     OW20650   7.263   6.225   2.706
 3394SOL    HW120651   7.278   6.216   2.607
 3394SOL    HW220652   7.319   6.158   2.754
 3395SOL     OW20653   1.713   3.888   0.481
 3395SOL    HW120654   1.725   3.789   0.496
 3395SOL    HW220655   1.763   3.938   0.552
 3396SOL     OW20656   1.615   8.130   3.696
 3396SOL    HW120657   1.589   8.141   3.792
 3396SOL    HW220658   1.679   8.054   3.687
 3397SOL     OW20659   6.504   7.926   2.160
 3397SOL    HW120660   6.548   8.011   2.189
 3397SOL    HW220661   6.413   7.947   2.124
 3398SOL     OW20662   0.884   5.246   1.303
 3398SOL    HW120663   0.983   5.232   1.306
 3398SOL    HW220664   0.837   5.160   1.322
 3399SOL     OW20665   4.657   1.322   2.829
 3399SOL    HW120666   4.614   1.337   2.918
 3399SOL    HW220667   4.754   1.302   2.842
 3400SOL     OW20668   1.286   8.173   1.375
 3400SOL    HW120669   1.293   8.082   1.335
 3400SOL    HW220670   1.190   8.197   1.388
 3401SOL     OW20671   8.657   5.708   0.364
 3401SOL    HW120672   8.735   5.646   0.371
 3401SOL    HW220673   8.591   5.671   0.298
 3402SOL     OW20674   3.228   2.377   0.180
 3402SOL    HW120675   3.265   2.284   0.175
 3402SOL    HW220676   3.303   2.443   0.174
 3403SOL     OW20677   0.223   9.526   0.278
 3403SOL    HW120678   0.228   9.582   0.361
 3403SOL    HW220679   0.229   9.585   0.198
 3404SOL     OW20680   3.845   3.542   3.326
 3404SOL    HW120681   3.795   3.616   3.282
 3404SOL    HW220682   3.813   3.531   3.420
 3405SOL     OW20683   9.789   5.355   3.518
 3405SOL    HW120684   9.796   5.436   3.459
 3405SOL    HW220685   9.714   5.368   3.583
 3406SOL     OW20686   4.626   3.332   1.229
 3406SOL    HW120687   4.716   3.372   1.249
 3406SOL    HW220688   4.638   3.236   1.202
 3407SOL     OW20689   4.096   7.748   1.641
 3407SOL    HW120690   4.186   7.781   1.667
 3407SOL    HW220691   4.082   7.655   1.676
 3408SOL     OW20692   3.344   0.430   2.072
 3408SOL    HW120693   3.298   0.435   2.161
 3408SOL    HW220694   3.308   0.502   2.013
 3409SOL     OW20695   9.932   8.179   2.196
 3409SOL    HW120696   9.949   8.159   2.293
 3409SOL    HW220697   9.880   8.104   2.155
 3410SOL     OW20698   5.833   6.882   2.876
 3410SOL    HW120699   5.909   6.819   2.862
 3410SOL    HW220700   5.747   6.831   2.882
 3411SOL     OW20701   5.162   1.128   2.118
 3411SOL    HW120702   5.211   1.078   2.047
 3411SOL    HW220703   5.226   1.185   2.169
 3412SOL     OW20704   9.533   6.218   2.191
 3412SOL    HW120705   9.631   6.228   2.171
 3412SOL    HW220706   9.512   6.121   2.202
 3413SOL     OW20707   9.486   8.904   3.159
 3413SOL    HW120708   9.489   8.889   3.258
 3413SOL    HW220709   9.404   8.860   3.122
 3414SOL     OW20710   7.979   0.129   0.642
 3414SOL    HW120711   7.886   0.133   0.678
 3414SOL    HW220712   8.007   0.220   0.611
 3415SOL     OW20713   1.924   5.624   3.499
 3415SOL    HW120714   1.844   5.661   3.547
 3415SOL    HW220715   1.925   5.524   3.509
 3416SOL     OW20716   3.911   8.934   2.133
 3416SOL    HW120717   3.845   8.886   2.190
 3416SOL    HW220718   3.900   9.033   2.145
 3417SOL     OW20719   9.177   6.609   0.319
 3417SOL    HW120720   9.133   6.636   0.405
 3417SOL    HW220721   9.249   6.543   0.337
 3418SOL     OW20722   1.753   5.451   2.575
 3418SOL    HW120723   1.676   5.487   2.521
 3418SOL    HW220724   1.728   5.362   2.613
 3419SOL     OW20725   3.796   1.222   1.406
 3419SOL    HW120726   3.888   1.231   1.442
 3419SOL    HW220727   3.729   1.245   1.477
 3420SOL     OW20728   7.011   0.477   2.459
 3420SOL    HW120729   7.065   0.521   2.531
 3420SOL    HW220730   7.030   0.379   2.459
 3421SOL     OW20731   7.319   0.319   2.748
 3421SOL    HW120732   7.335   0.392   2.682
 3421SOL    HW220733   7.224   0.289   2.744
 3422SOL     OW20734   0.961   4.975   1.005
 3422SOL    HW120735   0.996   5.003   0.915
 3422SOL    HW220736   1.030   4.923   1.054
 3423SOL     OW20737   0.901   7.826   1.945
 3423SOL    HW120738   0.871   7.782   1.860
 3423SOL    HW220739   0.904   7.925   1.932
 3424SOL     OW20740   1.056   8.051   3.340
 3424SOL    HW120741   1.003   8.134   3.359
 3424SOL    HW220742   1.103   8.022   3.423
 3425SOL     OW20743   4.161   0.423   3.295
 3425SOL    HW120744   4.085   0.375   3.251
 3425SOL    HW220745   4.136   0.447   3.388
 3426SOL     OW20746   9.786   2.744   3.219
 3426SOL    HW120747   9.702   2.794   3.199
 3426SOL    HW220748   9.835   2.789   3.294
 3427SOL     OW20749   7.129   0.031   0.205
 3427SOL    HW120750   7.040   0.058   0.168
 3427SOL    HW220751   7.202   0.068   0.148
 3428SOL     OW20752   7.932   0.523   1.030
 3428SOL    HW120753   7.956   0.605   1.082
 3428SOL    HW220754   7.998   0.511   0.955
 3429SOL     OW20755   1.493   4.585   0.968
 3429SOL    HW120756   1.470   4.488   0.979
 3429SOL    HW220757   1.496   4.608   0.871
 3430SOL     OW20758   0.940   6.984   3.421
 3430SOL    HW120759   1.032   7.004   3.454
 3430SOL    HW220760   0.872   7.026   3.482
 3431SOL     OW20761   8.361   0.922   2.577
 3431SOL    HW120762   8.398   1.014   2.572
 3431SOL    HW220763   8.436   0.857   2.589
 3432SOL     OW20764   8.474   5.388   2.375
 3432SOL    HW120765   8.438   5.391   2.282
 3432SOL    HW220766   8.565   5.346   2.374
 3433SOL     OW20767   1.825   4.255   1.338
 3433SOL    HW120768   1.754   4.188   1.357
 3433SOL    HW220769   1.796   4.345   1.370
 3434SOL     OW20770   1.010   3.130   2.704
 3434SOL    HW120771   0.990   3.139   2.607
 3434SOL    HW220772   1.102   3.092   2.715
 3435SOL     OW20773   9.851   3.402   1.081
 3435SOL    HW120774   9.901   3.388   1.166
 3435SOL    HW220775   9.812   3.494   1.079
 3436SOL     OW20776   4.807   8.193   2.327
 3436SOL    HW120777   4.725   8.213   2.381
 3436SOL    HW220778   4.887   8.189   2.388
 3437SOL     OW20779   8.027   6.726   0.965
 3437SOL    HW120780   8.115   6.772   0.959
 3437SOL    HW220781   8.003   6.713   1.061
 3438SOL     OW20782   1.187   6.709   0.302
 3438SOL    HW120783   1.261   6.664   0.353
 3438SOL    HW220784   1.188   6.807   0.321
 3439SOL     OW20785   0.861   4.606   0.734
 3439SOL    HW120786   0.938   4.666   0.757
 3439SOL    HW220787   0.800   4.652   0.669
 3440SOL     OW20788   9.814   6.328   1.283
 3440SOL    HW120789   9.736   6.391   1.284
 3440SOL    HW220790   9.781   6.234   1.291
 3441SOL     OW20791   7.460   9.134   1.629
 3441SOL    HW120792   7.549   9.159   1.590
 3441SOL    HW220793   7.437   9.040   1.601
 3442SOL     OW20794   2.671   2.725   2.264
 3442SOL    HW120795   2.698   2.788   2.336
 3442SOL    HW220796   2.620   2.649   2.303
 3443SOL     OW20797   0.409   2.379   1.940
 3443SOL    HW120798   0.497   2.424   1.956
 3443SOL    HW220799   0.403   2.349   1.845
 3444SOL     OW20800   0.605   9.688   0.885
 3444SOL    HW120801   0.661   9.668   0.966
 3444SOL    HW220802   0.513   9.712   0.914
 3445SOL     OW20803   5.119   7.005   1.897
 3445SOL    HW120804   5.031   7.041   1.868
 3445SOL    HW220805   5.188   7.078   1.895
 3446SOL     OW20806   0.974   5.110   2.979
 3446SOL    HW120807   1.011   5.122   2.887
 3446SOL    HW220808   1.049   5.110   3.045
 3447SOL     OW20809   8.961   4.259   2.123
 3447SOL    HW120810   9.046   4.220   2.088
 3447SOL    HW220811   8.898   4.278   2.047
 3448SOL     OW20812   0.610   1.372   1.727
 3448SOL    HW120813   0.667   1.347   1.805
 3448SOL    HW220814   0.573   1.290   1.685
 3449SOL     OW20815   0.969   5.465   2.654
 3449SOL    HW120816   1.006   5.486   2.744
 3449SOL    HW220817   0.943   5.550   2.608
 3450SOL     OW20818   4.175   8.970   0.555
 3450SOL    HW120819   4.197   8.873   0.550
 3450SOL    HW220820   4.259   9.024   0.558
 3451SOL     OW20821   3.637   7.261   3.207
 3451SOL    HW120822   3.673   7.211   3.286
 3451SOL    HW220823   3.617   7.196   3.133
 3452SOL     OW20824   4.848   9.550   3.053
 3452SOL    HW120825   4.944   9.576   3.037
 3452SOL    HW220826   4.839   9.509   3.144
 3453SOL     OW20827   2.704   4.027   1.031
 3453SOL    HW120828   2.746   4.118   1.026
 3453SOL    HW220829   2.665   4.004   0.941
 3454SOL     OW20830   5.289   0.252   3.068
 3454SOL    HW120831   5.325   0.261   3.161
 3454SOL    HW220832   5.365   0.247   3.003
 3455SOL     OW20833   4.515   1.226   1.174
 3455SOL    HW120834   4.575   1.155   1.138
 3455SOL    HW220835   4.563   1.277   1.245
 3456SOL     OW20836   3.744   2.427   1.037
 3456SOL    HW120837   3.700   2.411   1.126
 3456SOL    HW220838   3.721   2.353   0.974
 3457SOL     OW20839   7.350   7.521   2.303
 3457SOL    HW120840   7.374   7.430   2.336
 3457SOL    HW220841   7.421   7.553   2.240
 3458SOL     OW20842   7.872   2.870   3.454
 3458SOL    HW120843   7.873   2.824   3.542
 3458SOL    HW220844   7.831   2.810   3.385
 3459SOL     OW20845   9.048   0.860   2.750
 3459SOL    HW120846   9.110   0.813   2.813
 3459SOL    HW220847   9.010   0.941   2.794
 3460SOL     OW20848   1.102   0.365   2.468
 3460SOL    HW120849   1.042   0.432   2.424
 3460SOL    HW220850   1.149   0.311   2.398
 3461SOL     OW20851   4.126   3.406   0.306
 3461SOL    HW120852   4.152   3.309   0.305
 3461SOL    HW220853   4.089   3.432   0.217
 3462SOL     OW20854   0.683   7.534   0.613
 3462SOL    HW120855   0.748   7.529   0.688
 3462SOL    HW220856   0.723   7.495   0.531
 3463SOL     OW20857   3.148   2.131   3.140
 3463SOL    HW120858   3.141   2.035   3.112
 3463SOL    HW220859   3.168   2.137   3.237
 3464SOL     OW20860   2.950   8.700   0.266
 3464SOL    HW120861   3.008   8.748   0.332
 3464SOL    HW220862   2.857   8.736   0.273
 3465SOL     OW20863   1.454   0.497   2.285
 3465SOL    HW120864   1.482   0.423   2.347
 3465SOL    HW220865   1.533   0.529   2.234
 3466SOL     OW20866   9.282   3.784   1.791
 3466SOL    HW120867   9.345   3.771   1.867
 3466SOL    HW220868   9.279   3.701   1.736
 3467SOL     OW20869   2.342   9.488   3.268
 3467SOL    HW120870   2.353   9.473   3.367
 3467SOL    HW220871   2.419   9.543   3.235
 3468SOL     OW20872   8.387   8.309   1.409
 3468SOL    HW120873   8.446   8.236   1.444
 3468SOL    HW220874   8.345   8.358   1.486
 3469SOL     OW20875   5.143   7.506   2.581
 3469SOL    HW120876   5.111   7.600   2.578
 3469SOL    HW220877   5.238   7.503   2.612
 3470SOL     OW20878   0.902   1.566   0.481
 3470SOL    HW120879   0.997   1.575   0.451
 3470SOL    HW220880   0.895   1.491   0.547
 3471SOL     OW20881   4.014   0.545   0.535
 3471SOL    HW120882   4.019   0.474   0.465
 3471SOL    HW220883   4.026   0.635   0.493
 3472SOL     OW20884   8.087   4.438   0.237
 3472SOL    HW120885   8.133   4.454   0.150
 3472SOL    HW220886   8.019   4.509   0.253
 3473SOL     OW20887   2.911   4.397   1.955
 3473SOL    HW120888   2.896   4.405   2.053
 3473SOL    HW220889   2.917   4.488   1.914
 3474SOL     OW20890   1.558   1.211   2.653
 3474SOL    HW120891   1.557   1.197   2.752
 3474SOL    HW220892   1.535   1.125   2.607
 3475SOL     OW20893   8.791   4.302   1.908
 3475SOL    HW120894   8.837   4.341   1.828
 3475SOL    HW220895   8.697   4.336   1.912
 3476SOL     OW20896   8.968   4.784   2.596
 3476SOL    HW120897   9.043   4.726   2.629
 3476SOL    HW220898   8.885   4.764   2.648
 3477SOL     OW20899   2.505   2.129   1.848
 3477SOL    HW120900   2.460   2.103   1.762
 3477SOL    HW220901   2.438   2.173   1.908
 3478SOL     OW20902   9.183   6.320   1.581
 3478SOL    HW120903   9.216   6.238   1.628
 3478SOL    HW220904   9.216   6.401   1.630
 3479SOL     OW20905   7.852   6.659   1.473
 3479SOL    HW120906   7.885   6.665   1.568
 3479SOL    HW220907   7.812   6.569   1.458
 3480SOL     OW20908   0.524   1.156   1.364
 3480SOL    HW120909   0.553   1.107   1.282
 3480SOL    HW220910   0.436   1.201   1.346
 3481SOL     OW20911   2.589   0.761   2.506
 3481SOL    HW120912   2.604   0.679   2.562
 3481SOL    HW220913   2.668   0.776   2.446
 3482SOL     OW20914   6.922   0.372   1.946
 3482SOL    HW120915   7.008   0.402   1.904
 3482SOL    HW220916   6.873   0.452   1.982
 3483SOL     OW20917   8.513   1.226   2.063
 3483SOL    HW120918   8.500   1.130   2.087
 3483SOL    HW220919   8.518   1.235   1.963
 3484SOL     OW20920   8.407   8.613   1.780
 3484SOL    HW120921   8.331   8.629   1.842
 3484SOL    HW220922   8.482   8.568   1.829
 3485SOL     OW20923   8.371   2.128   0.926
 3485SOL    HW120924   8.444   2.195   0.938
 3485SOL    HW220925   8.320   2.149   0.842
 3486SOL     OW20926   8.232   2.134   1.160
 3486SOL    HW120927   8.167   2.209   1.149
 3486SOL    HW220928   8.285   2.123   1.076
 3487SOL     OW20929   7.964   9.226   3.253
 3487SOL    HW120930   7.972   9.247   3.156
 3487SOL    HW220931   7.871   9.245   3.284
 3488SOL     OW20932   4.245   8.763   3.607
 3488SOL    HW120933   4.203   8.742   3.518
 3488SOL    HW220934   4.288   8.680   3.644
 3489SOL     OW20935   9.407   7.901   3.414
 3489SOL    HW120936   9.333   7.873   3.353
 3489SOL    HW220937   9.475   7.953   3.362
 3490SOL     OW20938   0.118   2.488   3.112
 3490SOL    HW120939   0.192   2.433   3.073
 3490SOL    HW220940   0.054   2.427   3.159
 3491SOL     OW20941   4.721   0.830   0.984
 3491SOL    HW120942   4.740   0.916   1.031
 3491SOL    HW220943   4.792   0.764   1.006
 3492SOL     OW20944   7.976   5.484   0.597
 3492SOL    HW120945   7.942   5.575   0.623
 3492SOL    HW220946   8.029   5.446   0.672
 3493SOL     OW20947   8.362   1.366   1.463
 3493SOL    HW120948   8.296   1.356   1.537
 3493SOL    HW220949   8.352   1.456   1.420
 3494SOL     OW20950   4.511   7.207   2.803
 3494SOL    HW120951   4.526   7.288   2.859
 3494SOL    HW220952   4.592   7.190   2.747
 3495SOL     OW20953   1.454   8.204   1.151
 3495SOL    HW120954   1.386   8.182   1.081
 3495SOL    HW220955   1.408   8.216   1.239
 3496SOL     OW20956   0.854   5.498   1.190
 3496SOL    HW120957   0.865   5.411   1.237
 3496SOL    HW220958   0.770   5.497   1.137
 3497SOL     OW20959   9.591   4.805   0.788
 3497SOL    HW120960   9.675   4.820   0.840
 3497SOL    HW220961   9.512   4.826   0.846
 3498SOL     OW20962   1.141   2.778   3.677
 3498SOL    HW120963   1.057   2.820   3.640
 3498SOL    HW220964   1.142   2.681   3.655
 3499SOL     OW20965   4.643   9.393   2.329
 3499SOL    HW120966   4.578   9.428   2.262
 3499SOL    HW220967   4.646   9.455   2.408
 3500SOL     OW20968   3.075   0.043   2.488
 3500SOL    HW120969   3.024   0.023   2.571
 3500SOL    HW220970   3.056   0.137   2.460
 3501SOL     OW20971   3.871   7.786   0.735
 3501SOL    HW120972   3.860   7.852   0.661
 3501SOL    HW220973   3.897   7.834   0.819
 3502SOL     OW20974   4.411   2.813   1.870
 3502SOL    HW120975   4.428   2.751   1.793
 3502SOL    HW220976   4.417   2.763   1.956
 3503SOL     OW20977   0.671   2.988   3.420
 3503SOL    HW120978   0.599   2.936   3.373
 3503SOL    HW220979   0.703   3.062   3.360
 3504SOL     OW20980   2.492   6.503   2.191
 3504SOL    HW120981   2.410   6.542   2.150
 3504SOL    HW220982   2.489   6.403   2.183
 3505SOL     OW20983   2.830   7.317   3.606
 3505SOL    HW120984   2.758   7.259   3.643
 3505SOL    HW220985   2.792   7.407   3.582
 3506SOL     OW20986   1.727   1.057   1.611
 3506SOL    HW120987   1.810   1.071   1.557
 3506SOL    HW220988   1.649   1.102   1.567
 3507SOL     OW20989   5.022   8.428   3.142
 3507SOL    HW120990   4.953   8.452   3.210
 3507SOL    HW220991   5.044   8.508   3.086
 3508SOL     OW20992   6.804   8.575   2.604
 3508SOL    HW120993   6.846   8.586   2.694
 3508SOL    HW220994   6.836   8.490   2.562
 3509SOL     OW20995   7.573   1.670   2.674
 3509SOL    HW120996   7.554   1.749   2.616
 3509SOL    HW220997   7.619   1.700   2.757
 3510SOL     OW20998   1.209   6.253   0.481
 3510SOL    HW120999   1.155   6.210   0.409
 3510SOL    HW221000   1.298   6.209   0.486
 3511SOL     OW21001   9.320   1.219   1.169
 3511SOL    HW121002   9.329   1.119   1.175
 3511SOL    HW221003   9.328   1.247   1.073
 3512SOL     OW21004   9.098   8.749   2.420
 3512SOL    HW121005   9.103   8.654   2.450
 3512SOL    HW221006   9.004   8.772   2.395
 3513SOL     OW21007   9.610   1.872   3.738
 3513SOL    HW121008   9.677   1.844   3.669
 3513SOL    HW221009   9.620   1.814   3.819
 3514SOL     OW21010   7.341   0.503   2.549
 3514SOL    HW121011   7.357   0.467   2.457
 3514SOL    HW221012   7.369   0.599   2.554
 3515SOL     OW21013   3.452   0.879   0.881
 3515SOL    HW121014   3.441   0.843   0.973
 3515SOL    HW221015   3.367   0.923   0.852
 3516SOL     OW21016   4.438   4.011   1.176
 3516SOL    HW121017   4.502   3.953   1.126
 3516SOL    HW221018   4.464   4.013   1.272
 3517SOL     OW21019   1.525   6.612   1.946
 3517SOL    HW121020   1.498   6.627   2.041
 3517SOL    HW221021   1.567   6.521   1.937
 3518SOL     OW21022   2.985   4.361   0.214
 3518SOL    HW121023   2.913   4.295   0.193
 3518SOL    HW221024   2.948   4.453   0.211
 3519SOL     OW21025   1.056   1.027   3.029
 3519SOL    HW121026   1.148   1.039   2.992
 3519SOL    HW221027   0.989   1.070   2.967
 3520SOL     OW21028   9.675   5.679   3.664
 3520SOL    HW121029   9.667   5.584   3.695
 3520SOL    HW221030   9.593   5.704   3.612
 3521SOL     OW21031   3.501   0.273   2.665
 3521SOL    HW121032   3.467   0.361   2.632
 3521SOL    HW221033   3.426   0.207   2.667
 3522SOL     OW21034   7.811   0.921   1.113
 3522SOL    HW121035   7.810   0.986   1.189
 3522SOL    HW221036   7.890   0.861   1.121
 3523SOL     OW21037   8.770   6.782   3.015
 3523SOL    HW121038   8.786   6.868   2.966
 3523SOL    HW221039   8.673   6.775   3.038
 3524SOL     OW21040   9.124   1.465   0.945
 3524SOL    HW121041   9.089   1.484   0.854
 3524SOL    HW221042   9.215   1.423   0.938
 3525SOL     OW21043   2.104   7.827   0.581
 3525SOL    HW121044   2.197   7.862   0.593
 3525SOL    HW221045   2.078   7.775   0.662
 3526SOL     OW21046   9.504   7.249   3.513
 3526SOL    HW121047   9.539   7.156   3.505
 3526SOL    HW221048   9.408   7.247   3.541
 3527SOL     OW21049   4.490   2.290   2.008
 3527SOL    HW121050   4.399   2.256   1.987
 3527SOL    HW221051   4.516   2.360   1.942
 3528SOL     OW21052   3.485   8.165   1.317
 3528SOL    HW121053   3.436   8.249   1.295
 3528SOL    HW221054   3.571   8.162   1.266
 3529SOL     OW21055   4.553   7.741   0.876
 3529SOL    HW121056   4.467   7.752   0.926
 3529SOL    HW221057   4.535   7.723   0.780
 3530SOL     OW21058   3.754   4.270   3.039
 3530SOL    HW121059   3.779   4.257   2.943
 3530SOL    HW221060   3.765   4.366   3.064
 3531SOL     OW21061   8.140   1.039   1.165
 3531SOL    HW121062   8.200   0.959   1.159
 3531SOL    HW221063   8.114   1.068   1.073
 3532SOL     OW21064   0.831   6.284   0.572
 3532SOL    HW121065   0.888   6.208   0.604
 3532SOL    HW221066   0.790   6.261   0.484
 3533SOL     OW21067   9.039   7.333   0.691
 3533SOL    HW121068   8.957   7.314   0.637
 3533SOL    HW221069   9.120   7.329   0.632
 3534SOL     OW21070   9.892   8.569   1.951
 3534SOL    HW121071   9.944   8.484   1.961
 3534SOL    HW221072   9.932   8.639   2.010
 3535SOL     OW21073   0.008   5.918   0.527
 3535SOL    HW121074   0.085   5.855   0.523
 3535SOL    HW221075   9.923   5.868   0.508
 3536SOL     OW21076   0.027   2.367   2.805
 3536SOL    HW121077   9.938   2.325   2.788
 3536SOL    HW221078   0.015   2.462   2.831
 3537SOL     OW21079   1.660   6.540   3.282
 3537SOL    HW121080   1.647   6.456   3.334
 3537SOL    HW221081   1.736   6.529   3.218
 3538SOL     OW21082   9.199   4.630   2.629
 3538SOL    HW121083   9.175   4.554   2.569
 3538SOL    HW221084   9.280   4.677   2.593
 3539SOL     OW21085   3.543   1.119   2.175
 3539SOL    HW121086   3.604   1.043   2.196
 3539SOL    HW221087   3.591   1.205   2.188
 3540SOL     OW21088   5.008   2.105   0.640
 3540SOL    HW121089   4.933   2.101   0.707
 3540SOL    HW221090   5.011   2.020   0.588
 3541SOL     OW21091   2.911   3.109   3.740
 3541SOL    HW121092   2.909   3.111   3.840
 3541SOL    HW221093   2.902   3.015   3.708
 3542SOL     OW21094   0.501   2.608   3.312
 3542SOL    HW121095   0.473   2.703   3.324
 3542SOL    HW221096   0.581   2.589   3.369
 3543SOL     OW21097   7.371   8.870   1.616
 3543SOL    HW121098   7.300   8.890   1.684
 3543SOL    HW221099   7.332   8.817   1.541
 3544SOL     OW21100   5.545   7.247   3.653
 3544SOL    HW121101   5.453   7.214   3.673
 3544SOL    HW221102   5.605   7.168   3.637
 3545SOL     OW21103   4.902   0.564   3.487
 3545SOL    HW121104   4.831   0.516   3.539
 3545SOL    HW221105   4.895   0.538   3.391
 3546SOL     OW21106   9.933   0.604   1.335
 3546SOL    HW121107   9.903   0.697   1.315
 3546SOL    HW221108   9.891   0.541   1.271
 3547SOL     OW21109   9.102   2.338   2.834
 3547SOL    HW121110   9.174   2.407   2.846
 3547SOL    HW221111   9.141   2.247   2.847
 3548SOL     OW21112   9.406   0.709   2.198
 3548SOL    HW121113   9.494   0.694   2.153
 3548SOL    HW221114   9.417   0.778   2.269
 3549SOL     OW21115   0.553   3.365   2.369
 3549SOL    HW121116   0.554   3.321   2.279
 3549SOL    HW221117   0.544   3.295   2.439
 3550SOL     OW21118   4.675   7.953   0.650
 3550SOL    HW121119   4.616   7.875   0.628
 3550SOL    HW221120   4.714   7.940   0.741
 3551SOL     OW21121   2.563   3.419   2.154
 3551SOL    HW121122   2.659   3.392   2.150
 3551SOL    HW221123   2.519   3.397   2.066
 3552SOL     OW21124   3.059   0.111   1.794
 3552SOL    HW121125   3.057   0.019   1.756
 3552SOL    HW221126   3.084   0.107   1.891
 3553SOL     OW21127   9.971   2.330   3.515
 3553SOL    HW121128   9.995   2.306   3.609
 3553SOL    HW221129   9.975   2.429   3.504
 3554SOL     OW21130   3.060   2.271   0.376
 3554SOL    HW121131   3.112   2.306   0.298
 3554SOL    HW221132   3.114   2.279   0.459
 3555SOL     OW21133   8.181   0.545   1.436
 3555SOL    HW121134   8.109   0.615   1.440
 3555SOL    HW221135   8.263   0.586   1.395
 3556SOL     OW21136   2.230   3.595   1.732
 3556SOL    HW121137   2.319   3.631   1.705
 3556SOL    HW221138   2.214   3.508   1.684
 3557SOL     OW21139   7.024   0.586   2.750
 3557SOL    HW121140   6.958   0.516   2.776
 3557SOL    HW221141   7.095   0.592   2.820
 3558SOL     OW21142   4.582   0.797   3.305
 3558SOL    HW121143   4.666   0.805   3.251
 3558SOL    HW221144   4.507   0.840   3.255
 3559SOL     OW21145   8.772   4.842   0.740
 3559SOL    HW121146   8.693   4.885   0.785
 3559SOL    HW221147   8.849   4.905   0.743
 3560SOL     OW21148   2.055   0.653   0.324
 3560SOL    HW121149   2.092   0.563   0.299
 3560SOL    HW221150   1.956   0.652   0.309
 3561SOL     OW21151   8.602   7.875   0.520
 3561SOL    HW121152   8.504   7.871   0.538
 3561SOL    HW221153   8.650   7.900   0.604
 3562SOL     OW21154   0.692   6.300   3.031
 3562SOL    HW121155   0.663   6.330   2.940
 3562SOL    HW221156   0.750   6.219   3.022
 3563SOL     OW21157   1.154   5.138   1.783
 3563SOL    HW121158   1.072   5.086   1.761
 3563SOL    HW221159   1.148   5.171   1.877
 3564SOL     OW21160   7.995   5.955   3.737
 3564SOL    HW121161   7.958   5.926   3.825
 3564SOL    HW221162   7.919   5.985   3.678
 3565SOL     OW21163   3.801   9.322   3.165
 3565SOL    HW121164   3.749   9.237   3.159
 3565SOL    HW221165   3.851   9.337   3.079
 3566SOL     OW21166   9.747   3.128   0.779
 3566SOL    HW121167   9.685   3.111   0.703
 3566SOL    HW221168   9.781   3.222   0.775
 3567SOL     OW21169   2.520   5.773   0.995
 3567SOL    HW121170   2.471   5.812   1.074
 3567SOL    HW221171   2.480   5.685   0.971
 3568SOL     OW21172   7.604   7.061   2.143
 3568SOL    HW121173   7.669   7.079   2.216
 3568SOL    HW221174   7.650   7.068   2.054
 3569SOL     OW21175   8.263   1.381   0.602
 3569SOL    HW121176   8.263   1.363   0.701
 3569SOL    HW221177   8.329   1.320   0.557
 3570SOL     OW21178   2.778   3.830   2.784
 3570SOL    HW121179   2.749   3.831   2.880
 3570SOL    HW221180   2.697   3.828   2.725
 3571SOL     OW21181   0.808   1.913   3.230
 3571SOL    HW121182   0.818   1.897   3.328
 3571SOL    HW221183   0.731   1.976   3.215
 3572SOL     OW21184   9.270   6.192   0.460
 3572SOL    HW121185   9.201   6.216   0.529
 3572SOL    HW221186   9.297   6.275   0.411
 3573SOL     OW21187   5.730   9.702   3.684
 3573SOL    HW121188   5.723   9.633   3.612
 3573SOL    HW221189   5.714   9.661   3.773
 3574SOL     OW21190   9.356   8.511   2.664
 3574SOL    HW121191   9.434   8.465   2.621
 3574SOL    HW221192   9.351   8.605   2.632
 3575SOL     OW21193   8.578   2.861   2.848
 3575SOL    HW121194   8.657   2.906   2.805
 3575SOL    HW221195   8.544   2.788   2.789
 3576SOL     OW21196   0.436   2.593   3.035
 3576SOL    HW121197   0.464   2.589   3.131
 3576SOL    HW221198   0.512   2.566   2.977
 3577SOL     OW21199   5.403   0.293   3.312
 3577SOL    HW121200   5.462   0.362   3.271
 3577SOL    HW221201   5.409   0.298   3.412
 3578SOL     OW21202   2.246   0.985   0.112
 3578SOL    HW121203   2.238   0.969   0.014
 3578SOL    HW221204   2.300   1.067   0.129
 3579SOL     OW21205   1.632   4.201   2.178
 3579SOL    HW121206   1.670   4.204   2.271
 3579SOL    HW221207   1.705   4.217   2.112
 3580SOL     OW21208   5.144   8.423   2.251
 3580SOL    HW121209   5.222   8.363   2.232
 3580SOL    HW221210   5.131   8.431   2.350
 3581SOL     OW21211   8.045   5.045   0.789
 3581SOL    HW121212   8.134   5.040   0.835
 3581SOL    HW221213   8.059   5.047   0.690
 3582SOL     OW21214   0.408   4.605   3.145
 3582SOL    HW121215   0.313   4.636   3.140
 3582SOL    HW221216   0.469   4.680   3.120
 3583SOL     OW21217   6.558   0.213   2.097
 3583SOL    HW121218   6.468   0.172   2.113
 3583SOL    HW221219   6.605   0.163   2.024
 3584SOL     OW21220   4.258   4.227   1.167
 3584SOL    HW121221   4.327   4.155   1.159
 3584SOL    HW221222   4.262   4.286   1.086
 3585SOL     OW21223   1.804   8.057   0.923
 3585SOL    HW121224   1.793   8.149   0.884
 3585SOL    HW221225   1.729   7.999   0.891
 3586SOL     OW21226   2.402   0.335   1.209
 3586SOL    HW121227   2.323   0.276   1.189
 3586SOL    HW221228   2.458   0.292   1.279
 3587SOL     OW21229   2.039   7.943   2.817
 3587SOL    HW121230   2.095   7.866   2.784
 3587SOL    HW221231   2.074   7.975   2.904
 3588SOL     OW21232   2.312   0.268   3.382
 3588SOL    HW121233   2.339   0.337   3.450
 3588SOL    HW221234   2.214   0.275   3.364
 3589SOL     OW21235   0.627   5.904   1.408
 3589SOL    HW121236   0.702   5.855   1.361
 3589SOL    HW221237   0.630   5.882   1.506
 3590SOL     OW21238   8.241   0.101   2.803
 3590SOL    HW121239   8.252   0.062   2.894
 3590SOL    HW221240   8.143   0.115   2.785
 3591SOL     OW21241   6.850   9.058   2.922
 3591SOL    HW121242   6.949   9.064   2.921
 3591SOL    HW221243   6.814   9.102   3.004
 3592SOL     OW21244   9.595   1.413   2.167
 3592SOL    HW121245   9.591   1.375   2.259
 3592SOL    HW221246   9.511   1.390   2.117
 3593SOL     OW21247   8.999   0.074   1.360
 3593SOL    HW121248   8.911   0.061   1.315
 3593SOL    HW221249   8.993   0.045   1.455
 3594SOL     OW21250   4.181   8.969   2.892
 3594SOL    HW121251   4.239   8.892   2.920
 3594SOL    HW221252   4.239   9.045   2.864
 3595SOL     OW21253   2.552   8.722   3.596
 3595SOL    HW121254   2.528   8.697   3.502
 3595SOL    HW221255   2.627   8.665   3.628
 3596SOL     OW21256   2.072   2.583   0.978
 3596SOL    HW121257   2.128   2.500   0.983
 3596SOL    HW221258   2.043   2.609   1.070
 3597SOL     OW21259   8.717   7.337   2.203
 3597SOL    HW121260   8.789   7.297   2.260
 3597SOL    HW221261   8.656   7.391   2.260
 3598SOL     OW21262   3.859   4.449   0.008
 3598SOL    HW121263   3.908   4.476   0.091
 3598SOL    HW221264   3.805   4.367   0.026
 3599SOL     OW21265   8.552   4.838   1.329
 3599SOL    HW121266   8.535   4.749   1.373
 3599SOL    HW221267   8.569   4.824   1.232
 3600SOL     OW21268   0.005   8.226   3.020
 3600SOL    HW121269   9.930   8.268   3.071
 3600SOL    HW221270   0.068   8.297   2.988
 3601SOL     OW21271   0.917   7.484   3.602
 3601SOL    HW121272   0.818   7.476   3.606
 3601SOL    HW221273   0.948   7.471   3.508
 3602SOL     OW21274   5.286   7.209   3.429
 3602SOL    HW121275   5.356   7.150   3.389
 3602SOL    HW221276   5.286   7.198   3.529
 3603SOL     OW21277   3.836   6.650   2.866
 3603SOL    HW121278   3.879   6.666   2.955
 3603SOL    HW221279   3.851   6.730   2.808
 3604SOL     OW21280   3.615   2.257   1.786
 3604SOL    HW121281   3.714   2.269   1.789
 3604SOL    HW221282   3.578   2.258   1.879
 3605SOL     OW21283   0.521   1.643   1.040
 3605SOL    HW121284   0.512   1.579   1.117
 3605SOL    HW221285   0.457   1.617   0.968
 3606SOL     OW21286   1.738   9.309   3.629
 3606SOL    HW121287   1.675   9.245   3.674
 3606SOL    HW221288   1.719   9.312   3.531
 3607SOL     OW21289   8.283   2.230   3.531
 3607SOL    HW121290   8.358   2.164   3.529
 3607SOL    HW221291   8.248   2.243   3.438
 3608SOL     OW21292   4.432   8.314   2.947
 3608SOL    HW121293   4.441   8.340   2.851
 3608SOL    HW221294   4.517   8.332   2.996
 3609SOL     OW21295   2.617   1.270   0.299
 3609SOL    HW121296   2.637   1.187   0.351
 3609SOL    HW221297   2.529   1.261   0.253
 3610SOL     OW21298   0.136   7.959   0.734
 3610SOL    HW121299   0.196   7.881   0.712
 3610SOL    HW221300   0.177   8.043   0.699
 3611SOL     OW21301   3.377   9.075   2.871
 3611SOL    HW121302   3.330   9.120   2.795
 3611SOL    HW221303   3.475   9.071   2.851
 3612SOL     OW21304   2.566   2.882   1.789
 3612SOL    HW121305   2.587   2.816   1.861
 3612SOL    HW221306   2.648   2.900   1.735
 3613SOL     OW21307   7.366   4.640   0.636
 3613SOL    HW121308   7.430   4.671   0.707
 3613SOL    HW221309   7.325   4.719   0.591
 3614SOL     OW21310   8.174   0.135   1.205
 3614SOL    HW121311   8.100   0.122   1.140
 3614SOL    HW221312   8.139   0.180   1.287
 3615SOL     OW21313   4.393   0.947   0.142
 3615SOL    HW121314   4.476   0.948   0.198
 3615SOL    HW221315   4.374   0.852   0.114
 3616SOL     OW21316   9.590   8.135   2.001
 3616SOL    HW121317   9.526   8.108   1.929
 3616SOL    HW221318   9.616   8.231   1.988
 3617SOL     OW21319   1.890   1.085   2.387
 3617SOL    HW121320   1.943   1.170   2.387
 3617SOL    HW221321   1.914   1.031   2.307
 3618SOL     OW21322   1.466   0.916   0.862
 3618SOL    HW121323   1.470   0.853   0.784
 3618SOL    HW221324   1.371   0.944   0.877
 3619SOL     OW21325   0.864   6.987   1.394
 3619SOL    HW121326   0.924   7.031   1.327
 3619SOL    HW221327   0.770   6.987   1.359
 3620SOL     OW21328   2.397   7.990   3.607
 3620SOL    HW121329   2.340   7.969   3.527
 3620SOL    HW221330   2.362   8.072   3.652
 3621SOL     OW21331   3.489   3.546   3.297
 3621SOL    HW121332   3.444   3.522   3.211
 3621SOL    HW221333   3.573   3.597   3.277
 3622SOL     OW21334   4.353   0.068   0.540
 3622SOL    HW121335   4.254   0.081   0.533
 3622SOL    HW221336   4.381   9.994   0.479
 3623SOL     OW21337   0.448   4.422   1.916
 3623SOL    HW121338   0.434   4.501   1.975
 3623SOL    HW221339   0.459   4.452   1.821
 3624SOL     OW21340   4.814   8.929   3.108
 3624SOL    HW121341   4.761   8.996   3.160
 3624SOL    HW221342   4.908   8.930   3.140
 3625SOL     OW21343   0.848   9.128   2.124
 3625SOL    HW121344   0.935   9.079   2.129
 3625SOL    HW221345   0.857   9.217   2.169
 3626SOL     OW21346   0.020   9.079   0.111
 3626SOL    HW121347   9.937   9.061   0.058
 3626SOL    HW221348   0.030   9.177   0.124
 3627SOL     OW21349   9.683   4.742   2.491
 3627SOL    HW121350   9.738   4.816   2.529
 3627SOL    HW221351   9.588   4.752   2.521
 3628SOL     OW21352   8.221   7.096   0.963
 3628SOL    HW121353   8.242   7.165   1.032
 3628SOL    HW221354   8.243   7.132   0.872
 3629SOL     OW21355   3.157   1.876   3.049
 3629SOL    HW121356   3.069   1.856   3.007
 3629SOL    HW221357   3.231   1.857   2.984
 3630SOL     OW21358   0.577   8.974   1.087
 3630SOL    HW121359   0.637   8.982   1.167
 3630SOL    HW221360   0.632   8.959   1.005
 3631SOL     OW21361   8.022   8.673   2.285
 3631SOL    HW121362   8.045   8.754   2.338
 3631SOL    HW221363   7.975   8.700   2.201
 3632SOL     OW21364   1.807   7.257   3.585
 3632SOL    HW121365   1.763   7.225   3.669
 3632SOL    HW221366   1.751   7.230   3.506
 3633SOL     OW21367   8.322   4.559   3.219
 3633SOL    HW121368   8.319   4.574   3.120
 3633SOL    HW221369   8.327   4.648   3.266
 3634SOL     OW21370   2.460   0.563   0.446
 3634SOL    HW121371   2.480   0.624   0.523
 3634SOL    HW221372   2.435   0.618   0.366
 3635SOL     OW21373   0.707   9.911   1.681
 3635SOL    HW121374   0.625   9.854   1.686
 3635SOL    HW221375   0.681   0.002   1.649
 3636SOL     OW21376   3.407   7.324   1.235
 3636SOL    HW121377   3.394   7.361   1.327
 3636SOL    HW221378   3.480   7.374   1.189
 3637SOL     OW21379   2.906   5.750   3.428
 3637SOL    HW121380   2.891   5.687   3.505
 3637SOL    HW221381   2.880   5.842   3.455
 3638SOL     OW21382   0.038   1.028   1.372
 3638SOL    HW121383   0.119   1.001   1.320
 3638SOL    HW221384   0.044   1.126   1.393
 3639SOL     OW21385   2.227   0.421   0.743
 3639SOL    HW121386   2.162   0.382   0.809
 3639SOL    HW221387   2.290   0.482   0.791
 3640SOL     OW21388   5.515   0.298   1.799
 3640SOL    HW121389   5.465   0.312   1.884
 3640SOL    HW221390   5.475   0.222   1.748
 3641SOL     OW21391   3.754   2.995   2.630
 3641SOL    HW121392   3.706   2.910   2.608
 3641SOL    HW221393   3.696   3.052   2.688
 3642SOL     OW21394   9.996   9.354   1.120
 3642SOL    HW121395   9.948   9.281   1.168
 3642SOL    HW221396   0.060   9.314   1.054
 3643SOL     OW21397   5.592   8.314   1.563
 3643SOL    HW121398   5.688   8.286   1.558
 3643SOL    HW221399   5.537   8.237   1.595
 3644SOL     OW21400   0.263   8.696   0.693
 3644SOL    HW121401   0.250   8.610   0.741
 3644SOL    HW221402   0.178   8.749   0.695
 3645SOL     OW21403   4.323   3.640   1.242
 3645SOL    HW121404   4.236   3.602   1.273
 3645SOL    HW221405   4.385   3.650   1.319
 3646SOL     OW21406   3.119   2.673   1.487
 3646SOL    HW121407   3.206   2.658   1.440
 3646SOL    HW221408   3.132   2.737   1.563
 3647SOL     OW21409   6.069   0.703   2.877
 3647SOL    HW121410   6.096   0.618   2.832
 3647SOL    HW221411   6.023   0.682   2.963
 3648SOL     OW21412   3.830   0.948   0.567
 3648SOL    HW121413   3.813   0.956   0.469
 3648SOL    HW221414   3.924   0.975   0.586
 3649SOL     OW21415   9.027   9.142   1.195
 3649SOL    HW121416   9.081   9.226   1.200
 3649SOL    HW221417   9.088   9.063   1.190
 3650SOL     OW21418   1.495   7.268   2.431
 3650SOL    HW121419   1.448   7.267   2.342
 3650SOL    HW221420   1.537   7.179   2.447
 3651SOL     OW21421   7.697   6.386   2.062
 3651SOL    HW121422   7.629   6.315   2.079
 3651SOL    HW221423   7.709   6.442   2.144
 3652SOL     OW21424   8.303   3.236   0.737
 3652SOL    HW121425   8.225   3.183   0.771
 3652SOL    HW221426   8.385   3.178   0.735
 3653SOL     OW21427   9.063   5.012   2.484
 3653SOL    HW121428   9.034   5.096   2.531
 3653SOL    HW221429   9.022   4.933   2.529
 3654SOL     OW21430   9.420   2.440   0.905
 3654SOL    HW121431   9.355   2.397   0.843
 3654SOL    HW221432   9.513   2.428   0.869
 3655SOL     OW21433   4.301   0.031   3.182
 3655SOL    HW121434   4.369   0.042   3.255
 3655SOL    HW221435   4.335   9.967   3.113
 3656SOL     OW21436   2.826   9.912   1.311
 3656SOL    HW121437   2.838   9.844   1.239
 3656SOL    HW221438   2.914   9.929   1.356
 3657SOL     OW21439   4.219   4.204   1.441
 3657SOL    HW121440   4.141   4.261   1.465
 3657SOL    HW221441   4.236   4.210   1.342
 3658SOL     OW21442   8.391   0.513   3.571
 3658SOL    HW121443   8.448   0.518   3.490
 3658SOL    HW221444   8.375   0.417   3.596
 3659SOL     OW21445   2.428   7.725   2.279
 3659SOL    HW121446   2.334   7.692   2.270
 3659SOL    HW221447   2.483   7.688   2.203
 3660SOL     OW21448   7.679   9.503   3.475
 3660SOL    HW121449   7.648   9.576   3.413
 3660SOL    HW221450   7.623   9.505   3.558
 3661SOL     OW21451   2.379   9.737   0.898
 3661SOL    HW121452   2.409   9.832   0.884
 3661SOL    HW221453   2.455   9.675   0.877
 3662SOL     OW21454   9.631   5.094   2.475
 3662SOL    HW121455   9.561   5.134   2.416
 3662SOL    HW221456   9.611   5.118   2.570
 3663SOL     OW21457   4.589   0.784   0.749
 3663SOL    HW121458   4.652   0.804   0.824
 3663SOL    HW221459   4.535   0.703   0.772
 3664SOL     OW21460   8.568   2.731   0.815
 3664SOL    HW121461   8.492   2.766   0.870
 3664SOL    HW221462   8.532   2.685   0.734
 3665SOL     OW21463   4.240   0.648   0.669
 3665SOL    HW121464   4.203   0.723   0.724
 3665SOL    HW221465   4.165   0.600   0.624
 3666SOL     OW21466   1.297   4.454   2.658
 3666SOL    HW121467   1.204   4.419   2.667
 3666SOL    HW221468   1.308   4.535   2.716
 3667SOL     OW21469   3.557   3.141   2.766
 3667SOL    HW121470   3.482   3.167   2.827
 3667SOL    HW221471   3.615   3.221   2.749
 3668SOL     OW21472   7.922   6.348   2.353
 3668SOL    HW121473   8.009   6.379   2.315
 3668SOL    HW221474   7.850   6.414   2.330
 3669SOL     OW21475   3.606   7.706   0.252
 3669SOL    HW121476   3.697   7.679   0.282
 3669SOL    HW221477   3.607   7.803   0.226
 3670SOL     OW21478   4.891   8.745   1.707
 3670SOL    HW121479   4.796   8.715   1.698
 3670SOL    HW221480   4.902   8.836   1.667
 3671SOL     OW21481   1.373   4.170   2.263
 3671SOL    HW121482   1.464   4.187   2.225
 3671SOL    HW221483   1.325   4.103   2.206
 3672SOL     OW21484   0.255   0.552   2.385
 3672SOL    HW121485   0.288   0.541   2.479
 3672SOL    HW221486   0.222   0.646   2.372
 3673SOL     OW21487   4.227   2.123   1.302
 3673SOL    HW121488   4.303   2.059   1.310
 3673SOL    HW221489   4.165   2.111   1.379
 3674SOL     OW21490   8.094   2.910   1.534
 3674SOL    HW121491   8.151   2.907   1.616
 3674SOL    HW221492   8.006   2.867   1.553
 3675SOL     OW21493   9.421   9.263   1.084
 3675SOL    HW121494   9.503   9.292   1.133
 3675SOL    HW221495   9.443   9.183   1.027
 3676SOL     OW21496   8.572   4.172   2.881
 3676SOL    HW121497   8.632   4.105   2.837
 3676SOL    HW221498   8.613   4.202   2.967
 3677SOL     OW21499   0.465   7.898   1.952
 3677SOL    HW121500   0.439   7.805   1.928
 3677SOL    HW221501   0.508   7.899   2.042
 3678SOL     OW21502   9.219   9.179   2.591
 3678SOL    HW121503   9.224   9.278   2.606
 3678SOL    HW221504   9.211   9.132   2.679
 3679SOL     OW21505   2.307   0.200   2.493
 3679SOL    HW121506   2.242   0.208   2.418
 3679SOL    HW221507   2.393   0.245   2.468
 3680SOL     OW21508   0.716   4.855   0.973
 3680SOL    HW121509   0.808   4.889   0.990
 3680SOL    HW221510   0.655   4.885   1.046
 3681SOL     OW21511   3.045   9.862   1.654
 3681SOL    HW121512   2.987   9.781   1.649
 3681SOL    HW221513   3.062   9.898   1.562
 3682SOL     OW21514   2.112   2.477   0.516
 3682SOL    HW121515   2.127   2.386   0.477
 3682SOL    HW221516   2.059   2.468   0.601
 3683SOL     OW21517   0.850   0.968   2.624
 3683SOL    HW121518   0.889   1.044   2.572
 3683SOL    HW221519   0.906   0.886   2.610
 3684SOL     OW21520   3.937   9.062   2.790
 3684SOL    HW121521   4.023   9.026   2.826
 3684SOL    HW221522   3.928   9.036   2.693
 3685SOL     OW21523   9.939   6.195   3.653
 3685SOL    HW121524   9.995   6.166   3.731
 3685SOL    HW221525   9.958   6.135   3.575
 3686SOL     OW21526   4.532   3.195   3.125
 3686SOL    HW121527   4.439   3.226   3.145
 3686SOL    HW221528   4.552   3.207   3.028
 3687SOL     OW21529   0.282   3.551   1.978
 3687SOL    HW121530   0.322   3.599   2.056
 3687SOL    HW221531   0.346   3.552   1.902
 3688SOL     OW21532   9.434   8.166   1.371
 3688SOL    HW121533   9.499   8.135   1.302
 3688SOL    HW221534   9.451   8.118   1.457
 3689SOL     OW21535   4.076   0.772   0.408
 3689SOL    HW121536   4.021   0.776   0.324
 3689SOL    HW221537   4.173   0.779   0.385
 3690SOL     OW21538   5.047   9.753   3.285
 3690SOL    HW121539   5.096   9.839   3.276
 3690SOL    HW221540   5.083   9.687   3.218
 3691SOL     OW21541   0.363   5.407   0.149
 3691SOL    HW121542   0.401   5.398   0.057
 3691SOL    HW221543   0.362   5.504   0.175
 3692SOL     OW21544   9.560   3.095   0.564
 3692SOL    HW121545   9.598   3.068   0.476
 3692SOL    HW221546   9.481   3.155   0.550
 3693SOL     OW21547   9.282   9.016   3.435
 3693SOL    HW121548   9.367   8.964   3.430
 3693SOL    HW221549   9.291   9.100   3.382
 3694SOL     OW21550   9.580   8.675   1.328
 3694SOL    HW121551   9.641   8.600   1.304
 3694SOL    HW221552   9.584   8.691   1.426
 3695SOL     OW21553   9.379   7.298   1.394
 3695SOL    HW121554   9.441   7.220   1.392
 3695SOL    HW221555   9.331   7.306   1.307
 3696SOL     OW21556   2.953   0.810   2.586
 3696SOL    HW121557   2.892   0.779   2.513
 3696SOL    HW221558   3.047   0.813   2.551
 3697SOL     OW21559   5.476   9.300   3.273
 3697SOL    HW121560   5.522   9.361   3.209
 3697SOL    HW221561   5.401   9.348   3.318
 3698SOL     OW21562   0.953   8.577   2.754
 3698SOL    HW121563   0.863   8.598   2.791
 3698SOL    HW221564   1.012   8.542   2.827
 3699SOL     OW21565   0.285   6.244   1.357
 3699SOL    HW121566   0.276   6.207   1.264
 3699SOL    HW221567   0.382   6.248   1.382
 3700SOL     OW21568   2.496   8.605   1.290
 3700SOL    HW121569   2.525   8.516   1.325
 3700SOL    HW221570   2.436   8.592   1.211
 3701SOL     OW21571   2.873   8.593   2.976
 3701SOL    HW121572   2.846   8.668   2.916
 3701SOL    HW221573   2.824   8.510   2.950
 3702SOL     OW21574   3.107   0.877   1.039
 3702SOL    HW121575   3.016   0.836   1.039
 3702SOL    HW221576   3.135   0.897   0.945
 3703SOL     OW21577   9.890   4.766   1.609
 3703SOL    HW121578   9.793   4.779   1.587
 3703SOL    HW221579   9.903   4.676   1.651
 3704SOL     OW21580   8.364   0.866   3.291
 3704SOL    HW121581   8.456   0.858   3.330
 3704SOL    HW221582   8.304   0.797   3.332
 3705SOL     OW21583   9.791   9.971   3.160
 3705SOL    HW121584   9.750   9.911   3.091
 3705SOL    HW221585   9.721   9.996   3.227
 3706SOL     OW21586   6.704   7.423   2.468
 3706SOL    HW121587   6.789   7.471   2.488
 3706SOL    HW221588   6.627   7.468   2.513
 3707SOL     OW21589   9.586   5.687   2.222
 3707SOL    HW121590   9.611   5.661   2.315
 3707SOL    HW221591   9.492   5.657   2.203
 3708SOL     OW21592   7.950   6.689   1.736
 3708SOL    HW121593   7.922   6.613   1.795
 3708SOL    HW221594   8.045   6.675   1.706
 3709SOL     OW21595   3.760   9.960   0.098
 3709SOL    HW121596   3.693   9.920   0.035
 3709SOL    HW221597   3.760   9.907   0.184
 3710SOL     OW21598   4.403   7.116   3.284
 3710SOL    HW121599   4.418   7.021   3.312
 3710SOL    HW221600   4.337   7.119   3.209
 3711SOL     OW21601   1.599   4.441   0.261
 3711SOL    HW121602   1.505   4.436   0.294
 3711SOL    HW221603   1.604   4.506   0.185
 3712SOL     OW21604   2.972   2.117   2.834
 3712SOL    HW121605   2.936   2.032   2.871
 3712SOL    HW221606   3.065   2.102   2.801
 3713SOL     OW21607   2.119   5.435   0.995
 3713SOL    HW121608   2.138   5.350   0.945
 3713SOL    HW221609   2.035   5.476   0.959
 3714SOL     OW21610   8.132   5.980   2.859
 3714SOL    HW121611   8.179   5.971   2.946
 3714SOL    HW221612   8.040   5.940   2.866
 3715SOL     OW21613   1.145   0.018   1.844
 3715SOL    HW121614   1.141   0.008   1.745
 3715SOL    HW221615   1.199   9.943   1.883
 3716SOL     OW21616   1.173   6.747   2.198
 3716SOL    HW121617   1.210   6.815   2.262
 3716SOL    HW221618   1.085   6.778   2.164
 3717SOL     OW21619   2.102   2.963   2.524
 3717SOL    HW121620   2.179   2.899   2.515
 3717SOL    HW221621   2.106   3.031   2.452
 3718SOL     OW21622   8.265   5.011   0.969
 3718SOL    HW121623   8.327   5.082   1.002
 3718SOL    HW221624   8.219   4.968   1.046
 3719SOL     OW21625   2.539   8.574   0.209
 3719SOL    HW121626   2.602   8.650   0.227
 3719SOL    HW221627   2.446   8.608   0.200
 3720SOL     OW21628   1.824   3.869   1.283
 3720SOL    HW121629   1.831   3.951   1.340
 3720SOL    HW221630   1.912   3.820   1.285
 3721SOL     OW21631   4.173   9.854   1.916
 3721SOL    HW121632   4.136   9.767   1.950
 3721SOL    HW221633   4.272   9.853   1.923
 3722SOL     OW21634   4.123   7.013   3.664
 3722SOL    HW121635   4.204   7.063   3.634
 3722SOL    HW221636   4.095   7.046   3.754
 3723SOL     OW21637   4.708   7.200   2.200
 3723SOL    HW121638   4.685   7.297   2.196
 3723SOL    HW221639   4.629   7.147   2.229
 3724SOL     OW21640   0.718   3.566   0.562
 3724SOL    HW121641   0.770   3.509   0.625
 3724SOL    HW221642   0.717   3.660   0.594
 3725SOL     OW21643   5.021   8.009   1.926
 3725SOL    HW121644   5.034   7.963   1.838
 3725SOL    HW221645   5.028   8.108   1.913
 3726SOL     OW21646   4.452   6.689   2.446
 3726SOL    HW121647   4.464   6.706   2.544
 3726SOL    HW221648   4.535   6.716   2.397
 3727SOL     OW21649   0.967   7.863   3.156
 3727SOL    HW121650   1.008   7.920   3.227
 3727SOL    HW221651   1.039   7.824   3.099
 3728SOL     OW21652   1.083   7.420   2.443
 3728SOL    HW121653   1.156   7.384   2.501
 3728SOL    HW221654   1.022   7.478   2.497
 3729SOL     OW21655   1.832   2.536   2.027
 3729SOL    HW121656   1.911   2.527   2.088
 3729SOL    HW221657   1.781   2.450   2.026
 3730SOL     OW21658   8.814   6.383   0.844
 3730SOL    HW121659   8.794   6.361   0.939
 3730SOL    HW221660   8.833   6.299   0.794
 3731SOL     OW21661   6.340   9.308   1.572
 3731SOL    HW121662   6.432   9.299   1.611
 3731SOL    HW221663   6.289   9.224   1.590
 3732SOL     OW21664   2.489   7.340   3.454
 3732SOL    HW121665   2.503   7.284   3.535
 3732SOL    HW221666   2.542   7.302   3.378
 3733SOL     OW21667   3.494   4.472   0.284
 3733SOL    HW121668   3.416   4.412   0.298
 3733SOL    HW221669   3.481   4.526   0.201
 3734SOL     OW21670   8.128   4.565   3.590
 3734SOL    HW121671   8.123   4.531   3.496
 3734SOL    HW221672   8.038   4.558   3.633
 3735SOL     OW21673   1.259   8.875   2.593
 3735SOL    HW121674   1.272   8.970   2.621
 3735SOL    HW221675   1.325   8.852   2.522
 3736SOL     OW21676   0.398   2.967   0.667
 3736SOL    HW121677   0.454   2.971   0.584
 3736SOL    HW221678   0.457   2.961   0.747
 3737SOL     OW21679   3.796   7.367   3.564
 3737SOL    HW121680   3.731   7.339   3.635
 3737SOL    HW221681   3.882   7.395   3.607
 3738SOL     OW21682   2.260   5.273   1.331
 3738SOL    HW121683   2.330   5.312   1.270
 3738SOL    HW221684   2.188   5.341   1.346
 3739SOL     OW21685   9.427   4.616   0.334
 3739SOL    HW121686   9.386   4.585   0.248
 3739SOL    HW221687   9.395   4.708   0.356
 3740SOL     OW21688   3.359   3.649   1.165
 3740SOL    HW121689   3.375   3.647   1.066
 3740SOL    HW221690   3.361   3.743   1.197
 3741SOL     OW21691   1.315   7.362   2.620
 3741SOL    HW121692   1.381   7.336   2.549
 3741SOL    HW221693   1.300   7.461   2.617
 3742SOL     OW21694   6.197   9.039   2.924
 3742SOL    HW121695   6.126   9.103   2.952
 3742SOL    HW221696   6.160   8.946   2.923
 3743SOL     OW21697   0.842   7.307   0.151
 3743SOL    HW121698   0.809   7.359   0.073
 3743SOL    HW221699   0.803   7.215   0.148
 3744SOL     OW21700   8.924   4.588   3.223
 3744SOL    HW121701   8.962   4.663   3.169
 3744SOL    HW221702   8.998   4.539   3.269
 3745SOL     OW21703   7.915   1.339   1.026
 3745SOL    HW121704   7.880   1.410   0.966
 3745SOL    HW221705   7.843   1.310   1.089
 3746SOL     OW21706   3.721   8.399   3.347
 3746SOL    HW121707   3.789   8.469   3.368
 3746SOL    HW221708   3.724   8.378   3.250
 3747SOL     OW21709   9.955   8.317   3.569
 3747SOL    HW121710   9.890   8.385   3.603
 3747SOL    HW221711   9.917   8.225   3.581
 3748SOL     OW21712   0.649   2.164   1.776
 3748SOL    HW121713   0.600   2.113   1.705
 3748SOL    HW221714   0.650   2.110   1.860
 3749SOL     OW21715   0.815   2.963   1.263
 3749SOL    HW121716   0.868   2.976   1.346
 3749SOL    HW221717   0.777   3.050   1.233
 3750SOL     OW21718   0.999   5.064   0.745
 3750SOL    HW121719   1.040   5.033   0.659
 3750SOL    HW221720   0.900   5.052   0.740
 3751SOL     OW21721   9.343   3.457   1.272
 3751SOL    HW121722   9.361   3.481   1.177
 3751SOL    HW221723   9.398   3.515   1.332
 3752SOL     OW21724   3.184   1.367   0.982
 3752SOL    HW121725   3.190   1.431   1.058
 3752SOL    HW221726   3.139   1.283   1.013
 3753SOL     OW21727   9.693   2.114   2.544
 3753SOL    HW121728   9.615   2.054   2.557
 3753SOL    HW221729   9.681   2.167   2.459
 3754SOL     OW21730   0.857   3.881   1.993
 3754SOL    HW121731   0.928   3.882   1.923
 3754SOL    HW221732   0.838   3.975   2.022
 3755SOL     OW21733   7.515   9.917   1.889
 3755SOL    HW121734   7.501   9.914   1.790
 3755SOL    HW221735   7.613   9.922   1.909
 3756SOL     OW21736   7.433   8.398   3.464
 3756SOL    HW121737   7.530   8.415   3.451
 3756SOL    HW221738   7.406   8.428   3.556
 3757SOL     OW21739   1.825   6.326   0.165
 3757SOL    HW121740   1.819   6.319   0.265
 3757SOL    HW221741   1.859   6.417   0.141
 3758SOL     OW21742   3.397   4.745   1.486
 3758SOL    HW121743   3.447   4.829   1.464
 3758SOL    HW221744   3.416   4.675   1.418
 3759SOL     OW21745   9.911   4.597   2.432
 3759SOL    HW121746   9.826   4.644   2.456
 3759SOL    HW221747   9.989   4.656   2.450
 3760SOL     OW21748   3.186   7.961   2.439
 3760SOL    HW121749   3.144   8.014   2.513
 3760SOL    HW221750   3.240   7.887   2.479
 3761SOL     OW21751   0.319   2.619   2.770
 3761SOL    HW121752   0.364   2.583   2.851
 3761SOL    HW221753   0.293   2.543   2.710
 3762SOL     OW21754   7.555   4.520   0.081
 3762SOL    HW121755   7.518   4.588   0.144
 3762SOL    HW221756   7.613   4.565   0.013
 3763SOL     OW21757   1.519   4.873   3.274
 3763SOL    HW121758   1.524   4.967   3.308
 3763SOL    HW221759   1.433   4.860   3.225
 3764SOL     OW21760   5.005   8.277   1.879
 3764SOL    HW121761   4.955   8.305   1.960
 3764SOL    HW221762   5.083   8.337   1.864
 3765SOL     OW21763   8.761   3.050   0.179
 3765SOL    HW121764   8.693   3.123   0.184
 3765SOL    HW221765   8.717   2.965   0.151
 3766SOL     OW21766   8.049   2.574   3.394
 3766SOL    HW121767   7.971   2.604   3.339
 3766SOL    HW221768   8.125   2.550   3.333
 3767SOL     OW21769   4.279   9.376   0.969
 3767SOL    HW121770   4.356   9.434   0.994
 3767SOL    HW221771   4.195   9.430   0.974
 3768SOL     OW21772   4.345   3.136   1.111
 3768SOL    HW121773   4.285   3.203   1.155
 3768SOL    HW221774   4.434   3.138   1.157
 3769SOL     OW21775   2.617   9.245   0.741
 3769SOL    HW121776   2.654   9.171   0.686
 3769SOL    HW221777   2.690   9.308   0.767
 3770SOL     OW21778   0.498   9.265   1.591
 3770SOL    HW121779   0.475   9.359   1.614
 3770SOL    HW221780   0.504   9.210   1.674
 3771SOL     OW21781   0.764   1.601   1.712
 3771SOL    HW121782   0.710   1.517   1.724
 3771SOL    HW221783   0.727   1.654   1.635
 3772SOL     OW21784   2.788   8.153   2.180
 3772SOL    HW121785   2.738   8.088   2.124
 3772SOL    HW221786   2.794   8.119   2.274
 3773SOL     OW21787   8.584   2.790   1.176
 3773SOL    HW121788   8.564   2.830   1.265
 3773SOL    HW221789   8.507   2.804   1.115
 3774SOL     OW21790   0.194   9.653   0.756
 3774SOL    HW121791   0.250   9.669   0.838
 3774SOL    HW221792   0.143   9.568   0.768
 3775SOL     OW21793   7.502   0.222   3.460
 3775SOL    HW121794   7.410   0.186   3.475
 3775SOL    HW221795   7.502   0.278   3.377
 3776SOL     OW21796   5.422   1.630   2.669
 3776SOL    HW121797   5.451   1.557   2.608
 3776SOL    HW221798   5.501   1.688   2.691
 3777SOL     OW21799   2.302   3.503   0.382
 3777SOL    HW121800   2.208   3.515   0.350
 3777SOL    HW221801   2.360   3.475   0.306
 3778SOL     OW21802   0.785   3.646   3.541
 3778SOL    HW121803   0.849   3.717   3.510
 3778SOL    HW221804   0.787   3.569   3.478
 3779SOL     OW21805   8.383   6.269   0.783
 3779SOL    HW121806   8.426   6.239   0.868
 3779SOL    HW221807   8.286   6.243   0.784
 3780SOL     OW21808   0.753   4.599   3.438
 3780SOL    HW121809   0.801   4.533   3.381
 3780SOL    HW221810   0.761   4.573   3.534
 3781SOL     OW21811   3.525   3.150   2.418
 3781SOL    HW121812   3.438   3.102   2.430
 3781SOL    HW221813   3.570   3.160   2.507
 3782SOL     OW21814   1.748   1.303   1.373
 3782SOL    HW121815   1.826   1.243   1.393
 3782SOL    HW221816   1.761   1.344   1.283
 3783SOL     OW21817   2.543   5.869   3.221
 3783SOL    HW121818   2.506   5.918   3.142
 3783SOL    HW221819   2.523   5.772   3.211
 3784SOL     OW21820   9.868   7.893   1.346
 3784SOL    HW121821   9.853   7.796   1.367
 3784SOL    HW221822   9.965   7.909   1.331
 3785SOL     OW21823   9.711   7.421   1.460
 3785SOL    HW121824   9.712   7.383   1.368
 3785SOL    HW221825   9.622   7.461   1.479
 3786SOL     OW21826   3.303   3.737   3.374
 3786SOL    HW121827   3.309   3.762   3.471
 3786SOL    HW221828   3.360   3.656   3.357
 3787SOL     OW21829   6.443   0.407   2.446
 3787SOL    HW121830   6.400   0.464   2.377
 3787SOL    HW221831   6.427   0.446   2.537
 3788SOL     OW21832   1.560   2.225   0.032
 3788SOL    HW121833   1.546   2.223   4.715
 3788SOL    HW221834   1.553   2.320   0.065
 3789SOL     OW21835   3.265   2.433   2.442
 3789SOL    HW121836   3.215   2.355   2.480
 3789SOL    HW221837   3.353   2.401   2.406
 3790SOL     OW21838   1.699   5.323   0.453
 3790SOL    HW121839   1.652   5.277   0.377
 3790SOL    HW221840   1.797   5.306   0.446
 3791SOL     OW21841   6.007   7.503   3.166
 3791SOL    HW121842   6.073   7.577   3.156
 3791SOL    HW221843   5.950   7.519   3.246
 3792SOL     OW21844   0.106   0.214   2.628
 3792SOL    HW121845   0.138   0.157   2.553
 3792SOL    HW221846   0.185   0.255   2.675
 3793SOL     OW21847   4.328   8.213   0.647
 3793SOL    HW121848   4.394   8.250   0.582
 3793SOL    HW221849   4.361   8.228   0.740
 3794SOL     OW21850   3.393   2.915   3.673
 3794SOL    HW121851   3.408   2.985   3.743
 3794SOL    HW221852   3.445   2.833   3.695
 3795SOL     OW21853   1.745   9.592   1.673
 3795SOL    HW121854   1.811   9.556   1.739
 3795SOL    HW221855   1.784   9.587   1.581
 3796SOL     OW21856   3.911   7.728   1.123
 3796SOL    HW121857   3.919   7.651   1.059
 3796SOL    HW221858   3.954   7.703   1.210
 3797SOL     OW21859   8.131   6.434   1.234
 3797SOL    HW121860   8.135   6.340   1.200
 3797SOL    HW221861   8.127   6.433   1.334
 3798SOL     OW21862   1.208   1.390   1.334
 3798SOL    HW121863   1.218   1.313   1.398
 3798SOL    HW221864   1.237   1.474   1.379
 3799SOL     OW21865   9.537   1.129   0.461
 3799SOL    HW121866   9.635   1.117   0.447
 3799SOL    HW221867   9.508   1.216   0.422
 3800SOL     OW21868   2.129   6.383   2.065
 3800SOL    HW121869   2.178   6.468   2.083
 3800SOL    HW221870   2.172   6.335   1.988
 3801SOL     OW21871   7.566   9.695   3.313
 3801SOL    HW121872   7.565   9.785   3.270
 3801SOL    HW221873   7.540   9.625   3.246
 3802SOL     OW21874   8.920   6.630   3.187
 3802SOL    HW121875   8.862   6.689   3.131
 3802SOL    HW221876   9.016   6.646   3.162
 3803SOL     OW21877   5.804   0.299   3.392
 3803SOL    HW121878   5.853   0.220   3.430
 3803SOL    HW221879   5.799   0.371   3.462
 3804SOL     OW21880   9.865   5.574   2.557
 3804SOL    HW121881   9.772   5.596   2.528
 3804SOL    HW221882   9.910   5.656   2.592
 3805SOL     OW21883   5.453   4.867   1.233
 3805SOL    HW121884   5.438   4.799   1.162
 3805SOL    HW221885   5.545   4.857   1.270
 3806SOL     OW21886   2.703   5.838   0.220
 3806SOL    HW121887   2.755   5.886   0.290
 3806SOL    HW221888   2.764   5.807   0.147
 3807SOL     OW21889   8.313   7.291   1.138
 3807SOL    HW121890   8.406   7.264   1.166
 3807SOL    HW221891   8.256   7.301   1.220
 3808SOL     OW21892   7.479   0.789   2.857
 3808SOL    HW121893   7.547   0.716   2.858
 3808SOL    HW221894   7.404   0.766   2.920
 3809SOL     OW21895   0.372   6.565   0.093
 3809SOL    HW121896   0.467   6.542   0.112
 3809SOL    HW221897   0.315   6.483   0.103
 3810SOL     OW21898   0.929   1.902   2.752
 3810SOL    HW121899   0.999   1.879   2.819
 3810SOL    HW221900   0.887   1.818   2.717
 3811SOL     OW21901   2.808   6.954   1.932
 3811SOL    HW121902   2.876   6.987   1.997
 3811SOL    HW221903   2.803   7.017   1.854
 3812SOL     OW21904   0.419   5.141   1.096
 3812SOL    HW121905   0.479   5.160   1.018
 3812SOL    HW221906   0.328   5.118   1.063
 3813SOL     OW21907   9.327   5.046   2.526
 3813SOL    HW121908   9.364   5.099   2.449
 3813SOL    HW221909   9.230   5.026   2.509
 3814SOL     OW21910   3.258   5.169   0.392
 3814SOL    HW121911   3.190   5.238   0.365
 3814SOL    HW221912   3.211   5.089   0.429
 3815SOL     OW21913   0.537   8.725   3.287
 3815SOL    HW121914   0.616   8.708   3.228
 3815SOL    HW221915   0.509   8.821   3.278
 3816SOL     OW21916   9.276   5.446   0.323
 3816SOL    HW121917   9.349   5.500   0.364
 3816SOL    HW221918   9.258   5.366   0.379
 3817SOL     OW21919   0.597   6.389   2.338
 3817SOL    HW121920   0.503   6.422   2.345
 3817SOL    HW221921   0.601   6.292   2.361
 3818SOL     OW21922   2.880   7.480   1.838
 3818SOL    HW121923   2.801   7.420   1.823
 3818SOL    HW221924   2.954   7.428   1.881
 3819SOL     OW21925   7.287   9.381   3.578
 3819SOL    HW121926   7.354   9.441   3.620
 3819SOL    HW221927   7.304   9.287   3.607
 3820SOL     OW21928   7.215   8.965   3.356
 3820SOL    HW121929   7.129   8.992   3.312
 3820SOL    HW221930   7.196   8.924   3.445
 3821SOL     OW21931   8.777   1.462   0.822
 3821SOL    HW121932   8.742   1.414   0.902
 3821SOL    HW221933   8.709   1.460   0.749
 3822SOL     OW21934   2.300   5.992   2.525
 3822SOL    HW121935   2.270   5.912   2.474
 3822SOL    HW221936   2.226   6.023   2.585
 3823SOL     OW21937   0.157   2.015   2.077
 3823SOL    HW121938   0.233   1.981   2.021
 3823SOL    HW221939   0.182   2.009   2.174
 3824SOL     OW21940   8.141   4.691   0.090
 3824SOL    HW121941   8.057   4.688   0.146
 3824SOL    HW221942   8.208   4.751   0.134
 3825SOL     OW21943   2.377   9.822   3.482
 3825SOL    HW121944   2.349   9.741   3.534
 3825SOL    HW221945   2.475   9.815   3.460
 3826SOL     OW21946   1.015   8.219   1.418
 3826SOL    HW121947   0.969   8.205   1.330
 3826SOL    HW221948   0.968   8.291   1.469
 3827SOL     OW21949   0.519   1.185   3.620
 3827SOL    HW121950   0.490   1.207   3.526
 3827SOL    HW221951   0.480   1.097   3.647
 3828SOL     OW21952   1.556   0.761   2.045
 3828SOL    HW121953   1.613   0.683   2.074
 3828SOL    HW221954   1.535   0.752   1.948
 3829SOL     OW21955   8.191   3.155   3.561
 3829SOL    HW121956   8.105   3.177   3.608
 3829SOL    HW221957   8.180   3.069   3.510
 3830SOL     OW21958   0.651   7.995   0.495
 3830SOL    HW121959   0.620   7.982   0.401
 3830SOL    HW221960   0.618   7.919   0.552
 3831SOL     OW21961   4.130   2.861   0.361
 3831SOL    HW121962   4.058   2.812   0.312
 3831SOL    HW221963   4.219   2.841   0.319
 3832SOL     OW21964   1.925   9.899   3.619
 3832SOL    HW121965   2.017   9.903   3.659
 3832SOL    HW221966   1.920   9.825   3.552
 3833SOL     OW21967   8.293   0.887   2.315
 3833SOL    HW121968   8.311   0.895   2.413
 3833SOL    HW221969   8.216   0.946   2.290
 3834SOL     OW21970   5.622   6.332   2.474
 3834SOL    HW121971   5.684   6.409   2.458
 3834SOL    HW221972   5.555   6.357   2.544
 3835SOL     OW21973   4.938   7.827   3.410
 3835SOL    HW121974   4.883   7.746   3.389
 3835SOL    HW221975   5.027   7.798   3.446
 3836SOL     OW21976   9.529   7.678   0.727
 3836SOL    HW121977   9.529   7.611   0.654
 3836SOL    HW221978   9.583   7.758   0.701
 3837SOL     OW21979   1.834   0.958   0.976
 3837SOL    HW121980   1.777   1.028   0.933
 3837SOL    HW221981   1.823   0.871   0.926
 3838SOL     OW21982   7.893   6.458   1.884
 3838SOL    HW121983   7.976   6.424   1.929
 3838SOL    HW221984   7.814   6.439   1.941
 3839SOL     OW21985   0.006   5.075   1.345
 3839SOL    HW121986   9.921   5.115   1.380
 3839SOL    HW221987   0.047   5.018   1.416
 3840SOL     OW21988   7.123   8.433   1.716
 3840SOL    HW121989   7.214   8.447   1.756
 3840SOL    HW221990   7.132   8.387   1.628
 3841SOL     OW21991   0.084   0.130   0.787
 3841SOL    HW121992   0.114   0.067   0.859
 3841SOL    HW221993   0.157   0.138   0.718
 3842SOL     OW21994   5.468   7.557   2.382
 3842SOL    HW121995   5.496   7.502   2.303
 3842SOL    HW221996   5.392   7.617   2.356
 3843SOL     OW21997   3.993   6.796   3.072
 3843SOL    HW121998   4.048   6.807   2.989
 3843SOL    HW221999   4.050   6.807   3.153
 3844SOL     OW22000   0.621   1.831   3.677
 3844SOL    HW122001   0.535   1.781   3.676
 3844SOL    HW222002   0.653   1.842   3.771
 3845SOL     OW22003   5.786   0.160   2.725
 3845SOL    HW122004   5.707   0.104   2.749
 3845SOL    HW222005   5.765   0.256   2.745
 3846SOL     OW22006   1.619   0.806   0.165
 3846SOL    HW122007   1.631   0.905   0.174
 3846SOL    HW222008   1.526   0.786   0.137
 3847SOL     OW22009   8.643   1.890   0.335
 3847SOL    HW122010   8.664   1.988   0.329
 3847SOL    HW222011   8.707   1.846   0.397
 3848SOL     OW22012   9.986   4.482   1.392
 3848SOL    HW122013   9.897   4.475   1.439
 3848SOL    HW222014   0.047   4.410   1.425
 3849SOL     OW22015   2.333   6.257   2.825
 3849SOL    HW122016   2.338   6.248   2.925
 3849SOL    HW222017   2.391   6.332   2.796
 3850SOL     OW22018   9.398   6.101   3.092
 3850SOL    HW122019   9.345   6.175   3.051
 3850SOL    HW222020   9.359   6.077   3.181
 3851SOL     OW22021   4.530   3.577   2.302
 3851SOL    HW122022   4.605   3.558   2.366
 3851SOL    HW222023   4.458   3.628   2.349
 3852SOL     OW22024   9.062   3.261   3.077
 3852SOL    HW122025   9.063   3.357   3.105
 3852SOL    HW222026   9.122   3.209   3.138
 3853SOL     OW22027   0.124   1.095   2.001
 3853SOL    HW122028   0.097   1.131   2.091
 3853SOL    HW222029   0.191   1.156   1.959
 3854SOL     OW22030   3.825   2.499   2.101
 3854SOL    HW122031   3.877   2.426   2.146
 3854SOL    HW222032   3.887   2.575   2.080
 3855SOL     OW22033   8.406   5.106   1.914
 3855SOL    HW122034   8.403   5.206   1.912
 3855SOL    HW222035   8.333   5.072   1.974
 3856SOL     OW22036   2.608   0.257   3.396
 3856SOL    HW122037   2.640   0.180   3.452
 3856SOL    HW222038   2.508   0.253   3.388
 3857SOL     OW22039   8.995   7.833   3.064
 3857SOL    HW122040   8.903   7.803   3.089
 3857SOL    HW222041   8.990   7.893   2.984
 3858SOL     OW22042   3.989   5.088   1.356
 3858SOL    HW122043   4.035   5.006   1.388
 3858SOL    HW222044   4.050   5.167   1.367
 3859SOL     OW22045   0.668   8.414   1.974
 3859SOL    HW122046   0.735   8.340   1.974
 3859SOL    HW222047   0.576   8.376   1.987
 3860SOL     OW22048   5.749   9.108   2.085
 3860SOL    HW122049   5.684   9.101   2.160
 3860SOL    HW222050   5.748   9.024   2.031
 3861SOL     OW22051   1.566   2.700   0.813
 3861SOL    HW122052   1.588   2.762   0.888
 3861SOL    HW222053   1.586   2.606   0.840
 3862SOL     OW22054   9.195   8.760   3.351
 3862SOL    HW122055   9.202   8.753   3.251
 3862SOL    HW222056   9.214   8.854   3.380
 3863SOL     OW22057   1.569   5.200   2.300
 3863SOL    HW122058   1.475   5.200   2.333
 3863SOL    HW222059   1.620   5.125   2.343
 3864SOL     OW22060   6.339   8.921   3.271
 3864SOL    HW122061   6.341   8.893   3.367
 3864SOL    HW222062   6.337   8.839   3.213
 3865SOL     OW22063   1.123   3.983   0.989
 3865SOL    HW122064   1.212   3.940   1.003
 3865SOL    HW222065   1.112   4.059   1.053
 3866SOL     OW22066   4.086   8.426   0.964
 3866SOL    HW122067   4.046   8.514   0.989
 3866SOL    HW222068   4.185   8.430   0.973
 3867SOL     OW22069   8.803   0.548   1.270
 3867SOL    HW122070   8.842   0.618   1.210
 3867SOL    HW222071   8.869   0.474   1.283
 3868SOL     OW22072   8.902   3.072   1.593
 3868SOL    HW122073   8.947   3.059   1.682
 3868SOL    HW222074   8.904   3.170   1.570
 3869SOL     OW22075   3.924   0.911   1.119
 3869SOL    HW122076   4.009   0.957   1.091
 3869SOL    HW222077   3.854   0.981   1.139
 3870SOL     OW22078   3.750   8.962   3.428
 3870SOL    HW122079   3.664   9.011   3.408
 3870SOL    HW222080   3.729   8.874   3.470
 3871SOL     OW22081   3.347   0.789   1.134
 3871SOL    HW122082   3.332   0.695   1.167
 3871SOL    HW222083   3.261   0.827   1.100
 3872SOL     OW22084   4.314   1.380   0.406
 3872SOL    HW122085   4.379   1.311   0.373
 3872SOL    HW222086   4.221   1.350   0.385
 3873SOL     OW22087   1.686   4.835   2.958
 3873SOL    HW122088   1.766   4.809   2.903
 3873SOL    HW222089   1.632   4.754   2.980
 3874SOL     OW22090   4.345   8.987   0.218
 3874SOL    HW122091   4.332   9.081   0.248
 3874SOL    HW222092   4.441   8.961   0.229
 3875SOL     OW22093   3.638   9.029   1.754
 3875SOL    HW122094   3.550   9.056   1.794
 3875SOL    HW222095   3.660   8.935   1.782
 3876SOL     OW22096   4.465   2.067   1.046
 3876SOL    HW122097   4.463   2.043   1.143
 3876SOL    HW222098   4.374   2.098   1.018
 3877SOL     OW22099   6.251   9.501   2.670
 3877SOL    HW122100   6.186   9.571   2.699
 3877SOL    HW222101   6.290   9.526   2.581
 3878SOL     OW22102   9.719   4.284   2.307
 3878SOL    HW122103   9.750   4.366   2.258
 3878SOL    HW222104   9.712   4.305   2.405
 3879SOL     OW22105   8.079   4.948   3.346
 3879SOL    HW122106   8.049   4.911   3.434
 3879SOL    HW222107   8.049   5.043   3.338
 3880SOL     OW22108   0.281   3.422   2.723
 3880SOL    HW122109   0.299   3.514   2.760
 3880SOL    HW222110   0.229   3.430   2.638
 3881SOL     OW22111   3.689   1.874   1.174
 3881SOL    HW122112   3.769   1.929   1.197
 3881SOL    HW222113   3.712   1.777   1.174
 3882SOL     OW22114   4.486   7.581   1.728
 3882SOL    HW122115   4.454   7.514   1.795
 3882SOL    HW222116   4.585   7.572   1.717
 3883SOL     OW22117   9.251   4.009   2.256
 3883SOL    HW122118   9.197   3.977   2.334
 3883SOL    HW222119   9.247   4.109   2.251
 3884SOL     OW22120   6.271   8.400   1.498
 3884SOL    HW122121   6.311   8.337   1.564
 3884SOL    HW222122   6.343   8.460   1.462
 3885SOL     OW22123   1.030   5.444   0.402
 3885SOL    HW122124   1.120   5.403   0.418
 3885SOL    HW222125   1.015   5.454   0.304
 3886SOL     OW22126   3.098   6.582   2.477
 3886SOL    HW122127   3.151   6.514   2.528
 3886SOL    HW222128   3.160   6.646   2.432
 3887SOL     OW22129   3.399   7.503   1.928
 3887SOL    HW122130   3.313   7.536   1.891
 3887SOL    HW222131   3.385   7.472   2.022
 3888SOL     OW22132   7.924   7.519   3.236
 3888SOL    HW122133   7.848   7.571   3.276
 3888SOL    HW222134   7.963   7.458   3.305
 3889SOL     OW22135   1.818   7.214   1.600
 3889SOL    HW122136   1.720   7.237   1.609
 3889SOL    HW222137   1.831   7.117   1.617
 3890SOL     OW22138   1.111   3.446   2.595
 3890SOL    HW122139   1.053   3.435   2.676
 3890SOL    HW222140   1.196   3.396   2.608
 3891SOL     OW22141   0.494   9.801   0.224
 3891SOL    HW122142   0.521   9.705   0.219
 3891SOL    HW222143   0.491   9.829   0.320
 3892SOL     OW22144   6.776   0.538   2.326
 3892SOL    HW122145   6.736   0.447   2.334
 3892SOL    HW222146   6.865   0.539   2.371
 3893SOL     OW22147   9.750   6.253   3.358
 3893SOL    HW122148   9.839   6.298   3.362
 3893SOL    HW222149   9.708   6.255   3.449
 3894SOL     OW22150   3.965   1.779   2.372
 3894SOL    HW122151   3.966   1.701   2.435
 3894SOL    HW222152   4.056   1.818   2.365
 3895SOL     OW22153   7.697   9.218   1.533
 3895SOL    HW122154   7.714   9.311   1.500
 3895SOL    HW222155   7.777   9.162   1.515
 3896SOL     OW22156   9.589   3.507   0.779
 3896SOL    HW122157   9.601   3.606   0.780
 3896SOL    HW222158   9.679   3.463   0.785
 3897SOL     OW22159   7.534   3.929   0.243
 3897SOL    HW122160   7.468   3.910   0.170
 3897SOL    HW222161   7.592   4.006   0.217
 3898SOL     OW22162   0.461   9.974   0.794
 3898SOL    HW122163   0.421   9.886   0.819
 3898SOL    HW222164   0.483   0.026   0.876
 3899SOL     OW22165   9.852   6.686   2.723
 3899SOL    HW122166   9.785   6.654   2.790
 3899SOL    HW222167   9.928   6.621   2.720
 3900SOL     OW22168   0.966   3.850   3.472
 3900SOL    HW122169   1.053   3.802   3.467
 3900SOL    HW222170   0.970   3.920   3.543
 3901SOL     OW22171   2.439   2.391   1.544
 3901SOL    HW122172   2.531   2.428   1.534
 3901SOL    HW222173   2.393   2.390   1.455
 3902SOL     OW22174   9.894   1.941   2.602
 3902SOL    HW122175   9.815   1.997   2.577
 3902SOL    HW222176   9.968   2.000   2.633
 3903SOL     OW22177   4.348   0.400   1.987
 3903SOL    HW122178   4.314   0.494   1.996
 3903SOL    HW222179   4.270   0.339   1.972
 3904SOL     OW22180   8.790   1.369   3.385
 3904SOL    HW122181   8.694   1.347   3.403
 3904SOL    HW222182   8.797   1.466   3.362
 3905SOL     OW22183   0.388   4.348   2.237
 3905SOL    HW122184   0.294   4.380   2.252
 3905SOL    HW222185   0.394   4.251   2.258
 3906SOL     OW22186   2.659   7.959   2.006
 3906SOL    HW122187   2.704   7.869   2.005
 3906SOL    HW222188   2.561   7.947   2.017
 3907SOL     OW22189   2.925   0.885   1.729
 3907SOL    HW122190   3.000   0.926   1.676
 3907SOL    HW222191   2.903   0.945   1.806
 3908SOL     OW22192   9.016   8.765   0.411
 3908SOL    HW122193   8.941   8.786   0.474
 3908SOL    HW222194   9.095   8.823   0.433
 3909SOL     OW22195   1.664   7.687   1.857
 3909SOL    HW122196   1.700   7.779   1.837
 3909SOL    HW222197   1.639   7.642   1.771
 3910SOL     OW22198   6.412   9.968   1.828
 3910SOL    HW122199   6.443   9.933   1.916
 3910SOL    HW222200   6.427   9.899   1.757
 3911SOL     OW22201   2.509   3.330   2.571
 3911SOL    HW122202   2.436   3.337   2.639
 3911SOL    HW222203   2.469   3.310   2.481
 3912SOL     OW22204   2.472   7.702   2.743
 3912SOL    HW122205   2.377   7.731   2.730
 3912SOL    HW222206   2.519   7.701   2.655
 3913SOL     OW22207   2.431   8.907   0.124
 3913SOL    HW122208   2.393   8.975   0.187
 3913SOL    HW222209   2.380   8.822   0.133
 3914SOL     OW22210   2.451   2.211   1.027
 3914SOL    HW122211   2.480   2.306   1.039
 3914SOL    HW222212   2.507   2.167   0.956
 3915SOL     OW22213   0.821   6.201   2.029
 3915SOL    HW122214   0.845   6.251   2.113
 3915SOL    HW222215   0.735   6.237   1.993
 3916SOL     OW22216   4.953   1.905   2.164
 3916SOL    HW122217   4.895   1.857   2.098
 3916SOL    HW222218   5.046   1.910   2.129
 3917SOL     OW22219   0.327   4.672   0.913
 3917SOL    HW122220   0.290   4.655   1.004
 3917SOL    HW222221   0.422   4.640   0.909
 3918SOL     OW22222   8.428   2.933   0.479
 3918SOL    HW122223   8.396   2.853   0.430
 3918SOL    HW222224   8.522   2.919   0.508
 3919SOL     OW22225   3.672   7.226   1.460
 3919SOL    HW122226   3.674   7.193   1.366
 3919SOL    HW222227   3.594   7.186   1.508
 3920SOL     OW22228   4.014   8.590   0.430
 3920SOL    HW122229   3.931   8.541   0.457
 3920SOL    HW222230   4.076   8.596   0.508
 3921SOL     OW22231   0.762   9.288   1.794
 3921SOL    HW122232   0.749   9.360   1.862
 3921SOL    HW222233   0.686   9.224   1.798
 3922SOL     OW22234   5.642   9.060   2.518
 3922SOL    HW122235   5.595   8.972   2.521
 3922SOL    HW222236   5.740   9.045   2.507
 3923SOL     OW22237   4.688   2.892   2.637
 3923SOL    HW122238   4.675   2.892   2.538
 3923SOL    HW222239   4.736   2.809   2.665
 3924SOL     OW22240   2.771   3.533   1.498
 3924SOL    HW122241   2.819   3.497   1.417
 3924SOL    HW222242   2.672   3.525   1.484
 3925SOL     OW22243   1.790   9.539   1.956
 3925SOL    HW122244   1.785   9.482   2.039
 3925SOL    HW222245   1.698   9.554   1.921
 3926SOL     OW22246   1.057   1.633   2.309
 3926SOL    HW122247   1.116   1.631   2.229
 3926SOL    HW222248   1.113   1.648   2.391
 3927SOL     OW22249   0.631   9.562   1.507
 3927SOL    HW122250   0.658   9.504   1.431
 3927SOL    HW222251   0.579   9.640   1.472
 3928SOL     OW22252   3.113   5.117   3.601
 3928SOL    HW122253   3.103   5.022   3.631
 3928SOL    HW222254   3.189   5.160   3.649
 3929SOL     OW22255   1.697   8.298   0.822
 3929SOL    HW122256   1.689   8.340   0.912
 3929SOL    HW222257   1.613   8.247   0.801
 3930SOL     OW22258   8.603   8.167   3.441
 3930SOL    HW122259   8.526   8.122   3.487
 3930SOL    HW222260   8.659   8.099   3.395
 3931SOL     OW22261   3.883   7.732   2.918
 3931SOL    HW122262   3.874   7.831   2.912
 3931SOL    HW222263   3.977   7.706   2.897
 3932SOL     OW22264   1.661   6.068   2.648
 3932SOL    HW122265   1.681   6.147   2.591
 3932SOL    HW222266   1.682   5.984   2.597
 3933SOL     OW22267   1.359   7.263   1.428
 3933SOL    HW122268   1.267   7.240   1.460
 3933SOL    HW222269   1.358   7.354   1.387
 3934SOL     OW22270   0.845   7.975   0.189
 3934SOL    HW122271   0.748   7.971   0.214
 3934SOL    HW222272   0.869   7.896   0.133
 3935SOL     OW22273   0.653   3.819   1.805
 3935SOL    HW122274   0.610   3.897   1.758
 3935SOL    HW222275   0.708   3.853   1.881
 3936SOL     OW22276   9.387   1.788   2.389
 3936SOL    HW122277   9.349   1.712   2.442
 3936SOL    HW222278   9.314   1.829   2.334
 3937SOL     OW22279   9.414   9.463   1.839
 3937SOL    HW122280   9.489   9.507   1.890
 3937SOL    HW222281   9.430   9.365   1.835
 3938SOL     OW22282   1.358   3.537   0.304
 3938SOL    HW122283   1.343   3.636   0.311
 3938SOL    HW222284   1.270   3.490   0.302
 3939SOL     OW22285   3.955   6.945   1.402
 3939SOL    HW122286   4.038   6.890   1.394
 3939SOL    HW222287   3.979   7.042   1.393
 3940SOL     OW22288   9.932   8.624   0.879
 3940SOL    HW122289   9.850   8.594   0.830
 3940SOL    HW222290   0.009   8.564   0.856
 3941SOL     OW22291   7.881   2.497   3.598
 3941SOL    HW122292   7.873   2.583   3.649
 3941SOL    HW222293   7.950   2.507   3.526
 3942SOL     OW22294   0.425   6.020   1.755
 3942SOL    HW122295   0.349   6.033   1.691
 3942SOL    HW222296   0.397   6.050   1.846
 3943SOL     OW22297   4.250   7.329   0.413
 3943SOL    HW122298   4.198   7.260   0.463
 3943SOL    HW222299   4.286   7.289   0.329
 3944SOL     OW22300   3.442   6.743   1.907
 3944SOL    HW122301   3.346   6.734   1.935
 3944SOL    HW222302   3.473   6.657   1.867
 3945SOL     OW22303   4.167   0.904   3.560
 3945SOL    HW122304   4.221   0.821   3.572
 3945SOL    HW222305   4.213   0.981   3.603
 3946SOL     OW22306   2.713   1.122   2.540
 3946SOL    HW122307   2.736   1.065   2.619
 3946SOL    HW222308   2.616   1.144   2.542
 3947SOL     OW22309   2.340   5.984   3.606
 3947SOL    HW122310   2.275   5.915   3.574
 3947SOL    HW222311   2.431   5.963   3.569
 3948SOL     OW22312   9.194   6.712   1.062
 3948SOL    HW122313   9.121   6.692   1.127
 3948SOL    HW222314   9.172   6.796   1.012
 3949SOL     OW22315   3.885   8.581   1.269
 3949SOL    HW122316   3.862   8.494   1.225
 3949SOL    HW222317   3.802   8.620   1.310
 3950SOL     OW22318   0.951   2.251   2.909
 3950SOL    HW122319   0.898   2.219   2.829
 3950SOL    HW222320   0.913   2.338   2.940
 3951SOL     OW22321   3.130   0.759   2.841
 3951SOL    HW122322   3.090   0.782   2.752
 3951SOL    HW222323   3.059   0.724   2.901
 3952SOL     OW22324   8.985   5.711   2.867
 3952SOL    HW122325   8.915   5.701   2.939
 3952SOL    HW222326   9.073   5.681   2.902
 3953SOL     OW22327   7.709   1.060   3.294
 3953SOL    HW122328   7.713   1.035   3.390
 3953SOL    HW222329   7.781   1.012   3.243
 3954SOL     OW22330   2.527   2.492   0.890
 3954SOL    HW122331   2.477   2.434   0.826
 3954SOL    HW222332   2.622   2.498   0.862
 3955SOL     OW22333   1.151   5.223   1.337
 3955SOL    HW122334   1.194   5.139   1.303
 3955SOL    HW222335   1.188   5.246   1.426
 3956SOL     OW22336   3.796   2.145   2.087
 3956SOL    HW122337   3.793   2.054   2.128
 3956SOL    HW222338   3.703   2.181   2.079
 3957SOL     OW22339   1.283   6.961   1.189
 3957SOL    HW122340   1.254   6.866   1.189
 3957SOL    HW222341   1.353   6.975   1.259
 3958SOL     OW22342   0.959   2.588   1.807
 3958SOL    HW122343   0.864   2.595   1.775
 3958SOL    HW222344   0.961   2.569   1.905
 3959SOL     OW22345   0.350   2.336   1.669
 3959SOL    HW122346   0.434   2.371   1.628
 3959SOL    HW222347   0.273   2.355   1.608
 3960SOL     OW22348   0.715   0.535   1.217
 3960SOL    HW122349   0.744   0.603   1.284
 3960SOL    HW222350   0.623   0.503   1.239
 3961SOL     OW22351   1.357   9.572   0.329
 3961SOL    HW122352   1.399   9.606   0.413
 3961SOL    HW222353   1.306   9.489   0.349
 3962SOL     OW22354   1.757   1.313   2.057
 3962SOL    HW122355   1.843   1.362   2.046
 3962SOL    HW222356   1.756   1.234   1.996
 3963SOL     OW22357   9.560   0.895   2.638
 3963SOL    HW122358   9.646   0.910   2.688
 3963SOL    HW222359   9.529   0.801   2.653
 3964SOL     OW22360   0.772   3.915   0.061
 3964SOL    HW122361   0.764   4.015   0.056
 3964SOL    HW222362   0.865   3.888   0.033
 3965SOL     OW22363   0.399   8.755   2.464
 3965SOL    HW122364   0.466   8.750   2.537
 3965SOL    HW222365   0.427   8.695   2.389
 3966SOL     OW22366   0.027   3.925   2.461
 3966SOL    HW122367   0.098   3.890   2.522
 3966SOL    HW222368   0.060   4.007   2.416
 3967SOL     OW22369   8.648   8.248   3.049
 3967SOL    HW122370   8.664   8.155   3.082
 3967SOL    HW222371   8.707   8.266   2.970
 3968SOL     OW22372   8.703   6.633   0.799
 3968SOL    HW122373   8.607   6.606   0.807
 3968SOL    HW222374   8.761   6.552   0.810
 3969SOL     OW22375   2.215   7.046   0.800
 3969SOL    HW122376   2.201   7.138   0.835
 3969SOL    HW222377   2.156   7.032   0.720
 3970SOL     OW22378   2.684   4.961   3.303
 3970SOL    HW122379   2.608   4.987   3.362
 3970SOL    HW222380   2.760   5.024   3.316
 3971SOL     OW22381   2.883   9.020   2.075
 3971SOL    HW122382   2.881   8.936   2.128
 3971SOL    HW222383   2.860   9.098   2.133
 3972SOL     OW22384   4.456   0.782   1.051
 3972SOL    HW122385   4.429   0.713   0.984
 3972SOL    HW222386   4.545   0.821   1.025
 3973SOL     OW22387   8.297   9.003   2.238
 3973SOL    HW122388   8.300   9.103   2.229
 3973SOL    HW222389   8.283   8.962   2.147
 3974SOL     OW22390   4.266   2.395   1.582
 3974SOL    HW122391   4.348   2.431   1.537
 3974SOL    HW222392   4.285   2.304   1.618
 3975SOL     OW22393   1.117   7.346   0.152
 3975SOL    HW122394   1.019   7.325   0.156
 3975SOL    HW222395   1.168   7.261   0.136
 3976SOL     OW22396   9.225   9.975   0.212
 3976SOL    HW122397   9.183   9.890   0.183
 3976SOL    HW222398   9.325   9.966   0.211
 3977SOL     OW22399   8.359   2.939   0.161
 3977SOL    HW122400   8.331   2.863   0.219
 3977SOL    HW222401   8.301   3.018   0.178
 3978SOL     OW22402   3.822   0.705   0.693
 3978SOL    HW122403   3.825   0.793   0.646
 3978SOL    HW222404   3.872   0.636   0.641
 3979SOL     OW22405   2.471   6.508   0.858
 3979SOL    HW122406   2.384   6.461   0.874
 3979SOL    HW222407   2.539   6.442   0.826
 3980SOL     OW22408   1.025   6.691   2.904
 3980SOL    HW122409   1.036   6.606   2.853
 3980SOL    HW222410   1.087   6.692   2.982
 3981SOL     OW22411   0.174   1.697   2.569
 3981SOL    HW122412   0.139   1.603   2.574
 3981SOL    HW222413   0.124   1.748   2.500
 3982SOL     OW22414   2.999   3.716   1.178
 3982SOL    HW122415   3.050   3.630   1.182
 3982SOL    HW222416   2.905   3.696   1.151
 3983SOL     OW22417   0.740   8.583   0.655
 3983SOL    HW122418   0.692   8.564   0.741
 3983SOL    HW222419   0.828   8.534   0.656
 3984SOL     OW22420   0.122   0.837   0.266
 3984SOL    HW122421   0.119   0.799   0.358
 3984SOL    HW222422   0.055   0.789   0.208
 3985SOL     OW22423   2.909   6.270   0.154
 3985SOL    HW122424   2.913   6.354   0.100
 3985SOL    HW222425   2.889   6.292   0.249
 3986SOL     OW22426   1.230   3.307   3.515
 3986SOL    HW122427   1.328   3.324   3.529
 3986SOL    HW222428   1.185   3.298   3.603
 3987SOL     OW22429   7.196   7.886   3.094
 3987SOL    HW122430   7.165   7.798   3.131
 3987SOL    HW222431   7.294   7.897   3.111
 3988SOL     OW22432   2.261   8.246   3.570
 3988SOL    HW122433   2.333   8.309   3.541
 3988SOL    HW222434   2.245   8.179   3.497
 3989SOL     OW22435   3.440   3.108   3.466
 3989SOL    HW122436   3.409   3.039   3.532
 3989SOL    HW222437   3.379   3.109   3.387
 3990SOL     OW22438   2.189   7.826   0.065
 3990SOL    HW122439   2.182   7.843   4.748
 3990SOL    HW222440   2.098   7.826   0.105
 3991SOL     OW22441   2.394   7.841   1.211
 3991SOL    HW122442   2.342   7.860   1.128
 3991SOL    HW222443   2.492   7.854   1.193
 3992SOL     OW22444   3.688   3.777   1.660
 3992SOL    HW122445   3.641   3.865   1.653
 3992SOL    HW222446   3.703   3.740   1.568
 3993SOL     OW22447   9.336   3.060   2.534
 3993SOL    HW122448   9.254   3.114   2.514
 3993SOL    HW222449   9.311   2.982   2.592
 3994SOL     OW22450   2.426   9.348   0.570
 3994SOL    HW122451   2.464   9.323   0.482
 3994SOL    HW222452   2.489   9.321   0.643
 3995SOL     OW22453   0.030   4.138   3.561
 3995SOL    HW122454   0.015   4.186   3.648
 3995SOL    HW222455   0.100   4.068   3.573
 3996SOL     OW22456   6.083   6.540   2.592
 3996SOL    HW122457   6.181   6.545   2.572
 3996SOL    HW222458   6.050   6.447   2.574
 3997SOL     OW22459   3.260   1.723   0.288
 3997SOL    HW122460   3.207   1.640   0.273
 3997SOL    HW222461   3.350   1.699   0.325
 3998SOL     OW22462   9.039   3.978   0.912
 3998SOL    HW122463   8.976   4.051   0.885
 3998SOL    HW222464   9.001   3.890   0.884
 3999SOL     OW22465   2.515   5.881   1.556
 3999SOL    HW122466   2.602   5.835   1.577
 3999SOL    HW222467   2.528   5.944   1.480
 4000SOL     OW22468   7.681   9.619   2.972
 4000SOL    HW122469   7.771   9.577   2.982
 4000SOL    HW222470   7.617   9.578   3.037
 4001SOL     OW22471   1.101   9.811   2.377
 4001SOL    HW122472   1.069   9.904   2.396
 4001SOL    HW222473   1.034   9.745   2.410
 4002SOL     OW22474   2.024   2.278   1.639
 4002SOL    HW122475   2.044   2.373   1.663
 4002SOL    HW222476   1.972   2.276   1.554
 4003SOL     OW22477   4.176   8.795   0.116
 4003SOL    HW122478   4.235   8.861   0.163
 4003SOL    HW222479   4.174   8.815   0.018
 4004SOL     OW22480   3.804   8.350   0.265
 4004SOL    HW122481   3.787   8.393   0.354
 4004SOL    HW222482   3.722   8.359   0.208
 4005SOL     OW22483   3.297   9.853   1.971
 4005SOL    HW122484   3.219   9.862   2.032
 4005SOL    HW222485   3.278   9.784   1.901
 4006SOL     OW22486   7.604   0.591   2.390
 4006SOL    HW122487   7.546   0.529   2.338
 4006SOL    HW222488   7.547   0.657   2.440
 4007SOL     OW22489   0.435   8.457   1.403
 4007SOL    HW122490   0.338   8.437   1.390
 4007SOL    HW222491   0.446   8.521   1.479
 4008SOL     OW22492   6.109   9.080   3.256
 4008SOL    HW122493   6.097   9.124   3.167
 4008SOL    HW222494   6.195   9.028   3.256
 4009SOL     OW22495   4.493   1.168   0.008
 4009SOL    HW122496   4.450   1.086   0.047
 4009SOL    HW222497   4.423   1.228   4.753
 4010SOL     OW22498   0.712   4.756   0.548
 4010SOL    HW122499   0.741   4.726   0.457
 4010SOL    HW222500   0.612   4.767   0.549
 4011SOL     OW22501   2.249   8.514   2.813
 4011SOL    HW122502   2.177   8.480   2.873
 4011SOL    HW222503   2.330   8.457   2.823
 4012SOL     OW22504   8.722   5.686   3.331
 4012SOL    HW122505   8.665   5.633   3.394
 4012SOL    HW222506   8.775   5.753   3.383
 4013SOL     OW22507   3.720   3.573   0.337
 4013SOL    HW122508   3.655   3.519   0.283
 4013SOL    HW222509   3.770   3.512   0.399
 4014SOL     OW22510   9.352   1.317   2.058
 4014SOL    HW122511   9.263   1.333   2.015
 4014SOL    HW222512   9.360   1.221   2.084
 4015SOL     OW22513   2.237   1.412   0.497
 4015SOL    HW122514   2.237   1.317   0.465
 4015SOL    HW222515   2.154   1.430   0.549
 4016SOL     OW22516   1.185   3.051   1.314
 4016SOL    HW122517   1.224   3.009   1.232
 4016SOL    HW222518   1.257   3.064   1.382
 4017SOL     OW22519   9.851   7.822   3.522
 4017SOL    HW122520   9.924   7.763   3.557
 4017SOL    HW222521   9.765   7.772   3.521
 4018SOL     OW22522   3.772   0.768   3.051
 4018SOL    HW122523   3.742   0.675   3.034
 4018SOL    HW222524   3.865   0.767   3.089
 4019SOL     OW22525   6.024   6.688   2.817
 4019SOL    HW122526   6.054   6.636   2.738
 4019SOL    HW222527   6.100   6.741   2.854
 4020SOL     OW22528   7.910   9.874   3.326
 4020SOL    HW122529   7.909   9.784   3.370
 4020SOL    HW222530   7.840   9.932   3.367
 4021SOL     OW22531   1.554   3.182   0.568
 4021SOL    HW122532   1.457   3.208   0.572
 4021SOL    HW222533   1.561   3.085   0.543
 4022SOL     OW22534   4.274   1.732   1.205
 4022SOL    HW122535   4.231   1.779   1.128
 4022SOL    HW222536   4.232   1.641   1.215
 4023SOL     OW22537   0.537   3.057   0.120
 4023SOL    HW122538   0.614   3.119   0.108
 4023SOL    HW222539   0.454   3.110   0.136
 4024SOL     OW22540   2.334   6.911   1.663
 4024SOL    HW122541   2.315   6.832   1.721
 4024SOL    HW222542   2.302   6.893   1.570
 4025SOL     OW22543   3.713   0.378   0.749
 4025SOL    HW122544   3.809   0.388   0.773
 4025SOL    HW222545   3.656   0.414   0.823
 4026SOL     OW22546   0.027   7.550   0.340
 4026SOL    HW122547   0.070   7.462   0.357
 4026SOL    HW222548   9.934   7.535   0.305
 4027SOL     OW22549   2.044   4.421   0.702
 4027SOL    HW122550   1.965   4.384   0.654
 4027SOL    HW222551   2.112   4.348   0.716
 4028SOL     OW22552   9.108   9.764   3.124
 4028SOL    HW122553   9.140   9.859   3.120
 4028SOL    HW222554   9.178   9.705   3.083
 4029SOL     OW22555   3.785   4.535   3.100
 4029SOL    HW122556   3.727   4.612   3.127
 4029SOL    HW222557   3.842   4.507   3.177
 4030SOL     OW22558   1.680   9.311   3.366
 4030SOL    HW122559   1.588   9.297   3.327
 4030SOL    HW222560   1.747   9.262   3.310
 4031SOL     OW22561   3.445   5.811   2.866
 4031SOL    HW122562   3.379   5.746   2.827
 4031SOL    HW222563   3.426   5.902   2.830
 4032SOL     OW22564   7.777   8.975   2.703
 4032SOL    HW122565   7.720   9.054   2.678
 4032SOL    HW222566   7.760   8.900   2.638
 4033SOL     OW22567   4.615   1.086   3.168
 4033SOL    HW122568   4.691   1.079   3.233
 4033SOL    HW222569   4.626   1.016   3.097
 4034SOL     OW22570   1.870   4.923   1.394
 4034SOL    HW122571   1.866   5.020   1.419
 4034SOL    HW222572   1.890   4.869   1.476
 4035SOL     OW22573   7.850   0.451   1.298
 4035SOL    HW122574   7.892   0.477   1.211
 4035SOL    HW222575   7.779   0.382   1.282
 4036SOL     OW22576   1.799   3.782   2.489
 4036SOL    HW122577   1.884   3.833   2.490
 4036SOL    HW222578   1.739   3.814   2.563
 4037SOL     OW22579   8.943   2.234   0.464
 4037SOL    HW122580   8.911   2.264   0.554
 4037SOL    HW222581   8.999   2.306   0.423
 4038SOL     OW22582   1.112   1.534   1.924
 4038SOL    HW122583   1.175   1.458   1.938
 4038SOL    HW222584   1.082   1.535   1.829
 4039SOL     OW22585   2.539   8.633   1.932
 4039SOL    HW122586   2.568   8.714   1.881
 4039SOL    HW222587   2.520   8.658   2.027
 4040SOL     OW22588   2.435   8.930   3.242
 4040SOL    HW122589   2.340   8.960   3.252
 4040SOL    HW222590   2.494   8.988   3.297
 4041SOL     OW22591   5.956   7.505   2.885
 4041SOL    HW122592   5.976   7.414   2.851
 4041SOL    HW222593   5.965   7.506   2.985
 4042SOL     OW22594   0.736   6.817   3.325
 4042SOL    HW122595   0.753   6.722   3.350
 4042SOL    HW222596   0.813   6.873   3.356
 4043SOL     OW22597   9.263   5.633   0.914
 4043SOL    HW122598   9.189   5.570   0.894
 4043SOL    HW222599   9.333   5.587   0.969
 4044SOL     OW22600   7.053   0.146   2.037
 4044SOL    HW122601   7.002   0.228   2.011
 4044SOL    HW222602   7.122   0.126   1.967
 4045SOL     OW22603   1.528   8.590   3.197
 4045SOL    HW122604   1.613   8.635   3.170
 4045SOL    HW222605   1.464   8.659   3.232
 4046SOL     OW22606   8.021   0.235   1.414
 4046SOL    HW122607   7.966   0.313   1.382
 4046SOL    HW222608   8.080   0.264   1.489
 4047SOL     OW22609   3.214   2.036   2.730
 4047SOL    HW122610   3.279   1.992   2.792
 4047SOL    HW222611   3.192   1.974   2.655
 4048SOL     OW22612   6.996   9.900   0.967
 4048SOL    HW122613   6.940   9.819   0.949
 4048SOL    HW222614   7.012   9.949   0.881
 4049SOL     OW22615   3.078   0.181   2.827
 4049SOL    HW122616   3.018   0.262   2.831
 4049SOL    HW222617   3.023   0.101   2.803
 4050SOL     OW22618   0.885   4.801   3.287
 4050SOL    HW122619   0.833   4.732   3.337
 4050SOL    HW222620   0.867   4.792   3.189
 4051SOL     OW22621   2.283   6.237   0.538
 4051SOL    HW122622   2.328   6.217   0.625
 4051SOL    HW222623   2.293   6.158   0.477
 4052SOL     OW22624   9.761   1.330   3.439
 4052SOL    HW122625   9.810   1.393   3.500
 4052SOL    HW222626   9.827   1.276   3.386
 4053SOL     OW22627   3.647   3.511   2.970
 4053SOL    HW122628   3.707   3.446   3.016
 4053SOL    HW222629   3.555   3.503   3.006
 4054SOL     OW22630   9.163   5.253   2.214
 4054SOL    HW122631   9.111   5.167   2.213
 4054SOL    HW222632   9.100   5.329   2.227
 4055SOL     OW22633   4.720   4.982   1.401
 4055SOL    HW122634   4.687   4.891   1.427
 4055SOL    HW222635   4.722   5.040   1.483
 4056SOL     OW22636   4.391   4.428   0.462
 4056SOL    HW122637   4.479   4.466   0.491
 4056SOL    HW222638   4.323   4.443   0.534
 4057SOL     OW22639   4.028   1.964   2.695
 4057SOL    HW122640   4.091   1.982   2.770
 4057SOL    HW222641   4.012   2.050   2.645
 4058SOL     OW22642   3.947   8.900   1.860
 4058SOL    HW122643   3.941   8.923   1.957
 4058SOL    HW222644   3.865   8.850   1.833
 4059SOL     OW22645   0.668   0.738   0.034
 4059SOL    HW122646   0.762   0.715   0.060
 4059SOL    HW222647   0.661   0.742   4.715
 4060SOL     OW22648   7.370   5.906   3.020
 4060SOL    HW122649   7.332   5.972   3.084
 4060SOL    HW222650   7.396   5.823   3.070
 4061SOL     OW22651   4.545   1.333   3.082
 4061SOL    HW122652   4.559   1.404   3.150
 4061SOL    HW222653   4.579   1.246   3.117
 4062SOL     OW22654   8.460   8.269   0.372
 4062SOL    HW122655   8.553   8.301   0.391
 4062SOL    HW222656   8.398   8.347   0.368
 4063SOL     OW22657   9.375   3.207   1.441
 4063SOL    HW122658   9.374   3.107   1.436
 4063SOL    HW222659   9.344   3.246   1.354
 4064SOL     OW22660   2.290   0.508   1.396
 4064SOL    HW122661   2.343   0.455   1.330
 4064SOL    HW222662   2.278   0.601   1.361
 4065SOL     OW22663   5.918   9.527   1.590
 4065SOL    HW122664   5.991   9.556   1.652
 4065SOL    HW222665   5.953   9.526   1.496
 4066SOL     OW22666   2.509   0.338   2.373
 4066SOL    HW122667   2.479   0.312   2.281
 4066SOL    HW222668   2.489   0.435   2.388
 4067SOL     OW22669   1.014   7.264   1.007
 4067SOL    HW122670   0.977   7.350   1.042
 4067SOL    HW222671   0.953   7.227   0.938
 4068SOL     OW22672   2.567   3.601   3.271
 4068SOL    HW122673   2.499   3.650   3.325
 4068SOL    HW222674   2.524   3.520   3.230
 4069SOL     OW22675   0.146   3.768   1.309
 4069SOL    HW122676   0.177   3.681   1.347
 4069SOL    HW222677   0.163   3.769   1.210
 4070SOL     OW22678   1.463   3.268   0.238
 4070SOL    HW122679   1.439   3.362   0.261
 4070SOL    HW222680   1.562   3.263   0.222
 4071SOL     OW22681   4.111   0.051   1.731
 4071SOL    HW122682   4.022   0.047   1.685
 4071SOL    HW222683   4.120   9.972   1.792
 4072SOL     OW22684   7.364   8.108   1.535
 4072SOL    HW122685   7.393   8.058   1.616
 4072SOL    HW222686   7.417   8.077   1.455
 4073SOL     OW22687   7.660   0.651   1.388
 4073SOL    HW122688   7.735   0.591   1.359
 4073SOL    HW222689   7.599   0.600   1.450
 4074SOL     OW22690   8.926   5.133   0.120
 4074SOL    HW122691   9.018   5.170   0.116
 4074SOL    HW222692   8.862   5.205   0.148
 4075SOL     OW22693   3.438   7.135   1.576
 4075SOL    HW122694   3.436   7.098   1.669
 4075SOL    HW222695   3.398   7.068   1.513
 4076SOL     OW22696   3.162   7.356   2.655
 4076SOL    HW122697   3.145   7.386   2.749
 4076SOL    HW222698   3.151   7.433   2.593
 4077SOL     OW22699   4.365   6.352   2.794
 4077SOL    HW122700   4.336   6.302   2.876
 4077SOL    HW222701   4.298   6.423   2.773
 4078SOL     OW22702   3.581   2.731   0.147
 4078SOL    HW122703   3.627   2.673   0.214
 4078SOL    HW222704   3.487   2.699   0.134
 4079SOL     OW22705   3.367   9.979   0.082
 4079SOL    HW122706   3.283   0.032   0.073
 4079SOL    HW222707   3.411   0.000   0.169
 4080SOL     OW22708   1.938   8.972   0.815
 4080SOL    HW122709   1.916   8.878   0.842
 4080SOL    HW222710   1.990   9.015   0.888
 4081SOL     OW22711  10.000   5.058   0.168
 4081SOL    HW122712   0.038   5.150   0.176
 4081SOL    HW222713   9.900   5.063   0.170
 4082SOL     OW22714   9.706   2.758   1.438
 4082SOL    HW122715   9.680   2.832   1.376
 4082SOL    HW222716   9.750   2.685   1.386
 4083SOL     OW22717   3.480   2.257   0.429
 4083SOL    HW122718   3.482   2.162   0.399
 4083SOL    HW222719   3.514   2.316   0.356
 4084SOL     OW22720   4.710   0.177   2.011
 4084SOL    HW122721   4.654   0.247   2.054
 4084SOL    HW222722   4.794   0.219   1.976
 4085SOL     OW22723   8.115   2.003   0.044
 4085SOL    HW122724   8.022   2.033   0.021
 4085SOL    HW222725   8.150   1.946   4.752
 4086SOL     OW22726   1.512   0.449   2.713
 4086SOL    HW122727   1.450   0.381   2.753
 4086SOL    HW222728   1.595   0.455   2.770
 4087SOL     OW22729   0.273   9.719   3.567
 4087SOL    HW122730   0.282   9.735   3.666
 4087SOL    HW222731   0.263   9.621   3.550
 4088SOL     OW22732   7.436   9.949   0.738
 4088SOL    HW122733   7.430   9.947   0.638
 4088SOL    HW222734   7.375   0.019   0.774
 4089SOL     OW22735   0.240   8.168   1.687
 4089SOL    HW122736   0.321   8.139   1.635
 4089SOL    HW222737   0.246   8.134   1.780
 4090SOL     OW22738   1.384   0.695   2.817
 4090SOL    HW122739   1.418   0.614   2.770
 4090SOL    HW222740   1.341   0.756   2.751
 4091SOL     OW22741   1.723   6.998   2.855
 4091SOL    HW122742   1.709   7.073   2.920
 4091SOL    HW222743   1.794   6.937   2.891
 4092SOL     OW22744   4.042   7.476   2.017
 4092SOL    HW122745   4.086   7.386   2.015
 4092SOL    HW222746   4.022   7.505   1.923
 4093SOL     OW22747   7.662   2.865   0.841
 4093SOL    HW122748   7.565   2.843   0.832
 4093SOL    HW222749   7.709   2.793   0.892
 4094SOL     OW22750   8.743   1.586   0.410
 4094SOL    HW122751   8.674   1.547   0.350
 4094SOL    HW222752   8.828   1.600   0.359
 4095SOL     OW22753   8.399   5.846   1.130
 4095SOL    HW122754   8.397   5.782   1.207
 4095SOL    HW222755   8.477   5.909   1.141
 4096SOL     OW22756   2.962   1.342   1.484
 4096SOL    HW122757   2.959   1.250   1.446
 4096SOL    HW222758   2.952   1.409   1.410
 4097SOL     OW22759   1.173   2.932   2.132
 4097SOL    HW122760   1.257   2.908   2.082
 4097SOL    HW222761   1.197   2.984   2.214
 4098SOL     OW22762   4.574   9.719   2.288
 4098SOL    HW122763   4.643   9.719   2.360
 4098SOL    HW222764   4.586   9.801   2.231
 4099SOL     OW22765   0.413   0.041   2.005
 4099SOL    HW122766   0.424   9.945   2.030
 4099SOL    HW222767   0.346   0.084   2.066
 4100SOL     OW22768   1.543   0.330   1.670
 4100SOL    HW122769   1.520   0.379   1.755
 4100SOL    HW222770   1.539   0.394   1.593
 4101SOL     OW22771   4.458   9.191   2.042
 4101SOL    HW122772   4.414   9.188   1.952
 4101SOL    HW222773   4.476   9.286   2.067
 4102SOL     OW22774   9.304   4.019   2.718
 4102SOL    HW122775   9.306   4.085   2.643
 4102SOL    HW222776   9.309   3.926   2.682
 4103SOL     OW22777   1.002   5.033   2.180
 4103SOL    HW122778   0.961   4.974   2.110
 4103SOL    HW222779   0.932   5.058   2.247
 4104SOL     OW22780   1.455   7.322   3.582
 4104SOL    HW122781   1.511   7.270   3.647
 4104SOL    HW222782   1.358   7.308   3.603
 4105SOL     OW22783   4.093   0.764   2.196
 4105SOL    HW122784   4.143   0.756   2.282
 4105SOL    HW222785   3.995   0.756   2.213
 4106SOL     OW22786   2.364   9.953   0.284
 4106SOL    HW122787   2.460   9.943   0.255
 4106SOL    HW222788   2.358   9.946   0.383
 4107SOL     OW22789   3.502   2.303   2.388
 4107SOL    HW122790   3.531   2.212   2.358
 4107SOL    HW222791   3.552   2.372   2.336
 4108SOL     OW22792   0.554   0.227   2.534
 4108SOL    HW122793   0.545   0.327   2.541
 4108SOL    HW222794   0.594   0.203   2.446
 4109SOL     OW22795   7.825   9.723   1.502
 4109SOL    HW122796   7.866   9.683   1.583
 4109SOL    HW222797   7.860   9.816   1.489
 4110SOL     OW22798   9.445   2.897   2.906
 4110SOL    HW122799   9.421   2.990   2.879
 4110SOL    HW222800   9.526   2.867   2.856
 4111SOL     OW22801   3.288   0.773   0.609
 4111SOL    HW122802   3.364   0.713   0.635
 4111SOL    HW222803   3.278   0.774   0.510
 4112SOL     OW22804   8.980   6.634   0.124
 4112SOL    HW122805   9.046   6.619   0.197
 4112SOL    HW222806   9.023   6.614   0.036
 4113SOL     OW22807   6.310   0.427   1.864
 4113SOL    HW122808   6.379   0.445   1.934
 4113SOL    HW222809   6.290   0.511   1.814
 4114SOL     OW22810   8.669   2.909   3.107
 4114SOL    HW122811   8.623   2.897   3.019
 4114SOL    HW222812   8.718   2.996   3.107
 4115SOL     OW22813   8.063   1.138   0.917
 4115SOL    HW122814   8.013   1.104   0.838
 4115SOL    HW222815   8.008   1.207   0.964
 4116SOL     OW22816   2.554   3.103   0.694
 4116SOL    HW122817   2.621   3.091   0.621
 4116SOL    HW222818   2.578   3.045   0.772
 4117SOL     OW22819   6.219   9.233   2.295
 4117SOL    HW122820   6.222   9.228   2.395
 4117SOL    HW222821   6.148   9.170   2.261
 4118SOL     OW22822   3.385   3.511   3.048
 4118SOL    HW122823   3.367   3.597   3.000
 4118SOL    HW222824   3.315   3.444   3.025
 4119SOL     OW22825   1.286   4.541   1.461
 4119SOL    HW122826   1.257   4.633   1.434
 4119SOL    HW222827   1.363   4.511   1.404
 4120SOL     OW22828   9.235   3.093   0.139
 4120SOL    HW122829   9.241   3.191   0.159
 4120SOL    HW222830   9.151   3.075   0.088
 4121SOL     OW22831   2.877   9.808   3.296
 4121SOL    HW122832   2.968   9.833   3.330
 4121SOL    HW222833   2.886   9.732   3.231
 4122SOL     OW22834   7.993   8.673   0.859
 4122SOL    HW122835   7.973   8.611   0.934
 4122SOL    HW222836   8.067   8.636   0.803
 4123SOL     OW22837   1.429   9.311   3.253
 4123SOL    HW122838   1.386   9.392   3.291
 4123SOL    HW222839   1.360   9.253   3.210
 4124SOL     OW22840   8.006   5.219   3.328
 4124SOL    HW122841   7.945   5.220   3.249
 4124SOL    HW222842   8.093   5.261   3.303
 4125SOL     OW22843   4.177   7.980   0.687
 4125SOL    HW122844   4.187   7.950   0.782
 4125SOL    HW222845   4.236   8.059   0.670
 4126SOL     OW22846   9.028   7.837   2.004
 4126SOL    HW122847   8.949   7.819   2.064
 4126SOL    HW222848   9.081   7.913   2.041
 4127SOL     OW22849   4.870   8.772   2.559
 4127SOL    HW122850   4.965   8.740   2.552
 4127SOL    HW222851   4.812   8.716   2.500
 4128SOL     OW22852   0.869   9.332   0.935
 4128SOL    HW122853   0.931   9.406   0.963
 4128SOL    HW222854   0.792   9.327   0.999
 4129SOL     OW22855   7.617   1.585   2.244
 4129SOL    HW122856   7.592   1.679   2.221
 4129SOL    HW222857   7.642   1.536   2.160
 4130SOL     OW22858   2.427   5.061   2.940
 4130SOL    HW122859   2.366   4.995   2.985
 4130SOL    HW222860   2.398   5.154   2.962
 4131SOL     OW22861   7.833   7.721   1.978
 4131SOL    HW122862   7.915   7.763   2.016
 4131SOL    HW222863   7.752   7.769   2.013
 4132SOL     OW22864   3.314   4.507   1.868
 4132SOL    HW122865   3.259   4.579   1.910
 4132SOL    HW222866   3.406   4.510   1.907
 4133SOL     OW22867   8.801   3.375   3.273
 4133SOL    HW122868   8.709   3.385   3.310
 4133SOL    HW222869   8.865   3.428   3.329
 4134SOL     OW22870   0.264   8.884   1.997
 4134SOL    HW122871   0.288   8.809   1.936
 4134SOL    HW222872   0.259   8.970   1.945
 4135SOL     OW22873   0.493   3.245   0.390
 4135SOL    HW122874   0.422   3.227   0.321
 4135SOL    HW222875   0.449   3.272   0.476
 4136SOL     OW22876   4.166   4.128   1.855
 4136SOL    HW122877   4.168   4.038   1.813
 4136SOL    HW222878   4.256   4.171   1.847
 4137SOL     OW22879   0.027   6.837   1.447
 4137SOL    HW122880   0.097   6.769   1.466
 4137SOL    HW222881   0.060   6.928   1.475
 4138SOL     OW22882   0.443   1.233   3.343
 4138SOL    HW122883   0.538   1.224   3.312
 4138SOL    HW222884   0.403   1.142   3.353
 4139SOL     OW22885   1.815   4.404   3.302
 4139SOL    HW122886   1.779   4.494   3.279
 4139SOL    HW222887   1.898   4.388   3.248
 4140SOL     OW22888   2.534   2.511   2.406
 4140SOL    HW122889   2.542   2.570   2.487
 4140SOL    HW222890   2.459   2.446   2.419
 4141SOL     OW22891   1.372   8.794   3.285
 4141SOL    HW122892   1.326   8.762   3.368
 4141SOL    HW222893   1.304   8.826   3.219
 4142SOL     OW22894   2.119   9.881   1.516
 4142SOL    HW122895   2.046   9.937   1.556
 4142SOL    HW222896   2.187   9.941   1.474
 4143SOL     OW22897   3.588   1.571   0.943
 4143SOL    HW122898   3.541   1.650   0.903
 4143SOL    HW222899   3.523   1.497   0.958
 4144SOL     OW22900   1.981   8.842   2.535
 4144SOL    HW122901   2.023   8.754   2.556
 4144SOL    HW222902   1.882   8.834   2.541
 4145SOL     OW22903   8.334   2.349   2.407
 4145SOL    HW122904   8.355   2.388   2.497
 4145SOL    HW222905   8.243   2.306   2.410
 4146SOL     OW22906   7.887   1.996   3.268
 4146SOL    HW122907   7.890   2.091   3.238
 4146SOL    HW222908   7.979   1.956   3.259
 4147SOL     OW22909   9.675   1.510   0.492
 4147SOL    HW122910   9.673   1.606   0.464
 4147SOL    HW222911   9.686   1.505   0.592
 4148SOL     OW22912   7.953   0.504   3.065
 4148SOL    HW122913   7.956   0.540   2.972
 4148SOL    HW222914   7.965   0.579   3.130
 4149SOL     OW22915   1.693   5.824   2.474
 4149SOL    HW122916   1.772   5.795   2.529
 4149SOL    HW222917   1.646   5.744   2.437
 4150SOL     OW22918   8.267   1.412   2.595
 4150SOL    HW122919   8.195   1.406   2.664
 4150SOL    HW222920   8.228   1.441   2.508
 4151SOL     OW22921   3.929   3.264   1.860
 4151SOL    HW122922   3.895   3.293   1.950
 4151SOL    HW222923   3.853   3.267   1.794
 4152SOL     OW22924   2.383   0.846   1.690
 4152SOL    HW122925   2.417   0.883   1.603
 4152SOL    HW222926   2.382   0.746   1.686
 4153SOL     OW22927   9.917   1.728   0.288
 4153SOL    HW122928   9.836   1.733   0.346
 4153SOL    HW222929   9.939   1.818   0.251
 4154SOL     OW22930   9.194   4.421   1.932
 4154SOL    HW122931   9.176   4.323   1.937
 4154SOL    HW222932   9.270   4.444   1.992
 4155SOL     OW22933   3.538   5.458   1.957
 4155SOL    HW122934   3.628   5.415   1.967
 4155SOL    HW222935   3.486   5.412   1.885
 4156SOL     OW22936   3.179   5.157   3.337
 4156SOL    HW122937   3.246   5.230   3.322
 4156SOL    HW222938   3.164   5.145   3.435
 4157SOL     OW22939   1.341   9.395   1.018
 4157SOL    HW122940   1.308   9.350   0.935
 4157SOL    HW222941   1.316   9.340   1.097
 4158SOL     OW22942   2.852   0.774   1.024
 4158SOL    HW122943   2.780   0.800   1.088
 4158SOL    HW222944   2.826   0.690   0.976
 4159SOL     OW22945   1.620   2.451   2.956
 4159SOL    HW122946   1.605   2.495   2.868
 4159SOL    HW222947   1.544   2.473   3.018
 4160SOL     OW22948   2.578   9.489   2.690
 4160SOL    HW122949   2.514   9.514   2.763
 4160SOL    HW222950   2.571   9.556   2.615
 4161SOL     OW22951   4.911   2.565   1.489
 4161SOL    HW122952   4.876   2.510   1.565
 4161SOL    HW222953   4.952   2.649   1.525
 4162SOL     OW22954   0.378   7.402   2.777
 4162SOL    HW122955   0.478   7.402   2.780
 4162SOL    HW222956   0.347   7.460   2.701
 4163SOL     OW22957   1.801   9.806   0.417
 4163SOL    HW122958   1.760   9.761   0.338
 4163SOL    HW222959   1.790   9.748   0.498
 4164SOL     OW22960   2.306   6.628   3.160
 4164SOL    HW122961   2.382   6.563   3.172
 4164SOL    HW222962   2.285   6.635   3.063
 4165SOL     OW22963   0.366   7.791   0.909
 4165SOL    HW122964   0.423   7.872   0.923
 4165SOL    HW222965   0.311   7.774   0.991
 4166SOL     OW22966   2.417   2.135   1.285
 4166SOL    HW122967   2.424   2.136   1.185
 4166SOL    HW222968   2.358   2.210   1.315
 4167SOL     OW22969   8.557   4.001   3.422
 4167SOL    HW122970   8.522   3.919   3.468
 4167SOL    HW222971   8.498   4.079   3.443
 4168SOL     OW22972   8.359   5.353   2.127
 4168SOL    HW122973   8.375   5.373   2.031
 4168SOL    HW222974   8.267   5.382   2.153
 4169SOL     OW22975   9.209   1.932   2.226
 4169SOL    HW122976   9.257   1.966   2.145
 4169SOL    HW222977   9.121   1.893   2.198
 4170SOL     OW22978   1.060   7.670   1.609
 4170SOL    HW122979   1.030   7.575   1.611
 4170SOL    HW222980   0.983   7.730   1.629
 4171SOL     OW22981   5.028   3.225   1.622
 4171SOL    HW122982   5.005   3.321   1.609
 4171SOL    HW222983   4.950   3.178   1.664
 4172SOL     OW22984   0.237   1.033   2.375
 4172SOL    HW122985   0.182   1.100   2.325
 4172SOL    HW222986   0.266   1.072   2.462
 4173SOL     OW22987   3.764   9.155   0.099
 4173SOL    HW122988   3.763   9.213   0.017
 4173SOL    HW222989   3.859   9.140   0.128
 4174SOL     OW22990   8.284   7.067   1.377
 4174SOL    HW122991   8.212   6.999   1.367
 4174SOL    HW222992   8.244   7.158   1.378
 4175SOL     OW22993   7.306   9.114   3.641
 4175SOL    HW122994   7.215   9.072   3.643
 4175SOL    HW222995   7.375   9.042   3.636
 4176SOL     OW22996   9.174   6.572   3.414
 4176SOL    HW122997   9.228   6.585   3.498
 4176SOL    HW222998   9.078   6.558   3.438
 4177SOL     OW22999   5.691   7.865   2.601
 4177SOL    HW123000   5.708   7.778   2.649
 4177SOL    HW223001   5.602   7.900   2.629
 4178SOL     OW23002   0.694   9.703   2.284
 4178SOL    HW123003   0.615   9.746   2.328
 4178SOL    HW223004   0.666   9.618   2.240
 4179SOL     OW23005   1.251   0.235   0.398
 4179SOL    HW123006   1.206   0.149   0.421
 4179SOL    HW223007   1.187   0.295   0.350
 4180SOL     OW23008   6.747   0.044   1.502
 4180SOL    HW123009   6.818   0.071   1.437
 4180SOL    HW223010   6.790   0.011   1.586
 4181SOL     OW23011   9.823   0.440   2.415
 4181SOL    HW123012   9.735   0.486   2.423
 4181SOL    HW223013   9.879   0.486   2.347
 4182SOL     OW23014   4.185   1.767   3.453
 4182SOL    HW123015   4.191   1.854   3.404
 4182SOL    HW223016   4.103   1.718   3.426
 4183SOL     OW23017   0.159   0.945   1.609
 4183SOL    HW123018   0.245   0.900   1.587
 4183SOL    HW223019   0.110   0.967   1.524
 4184SOL     OW23020   3.900   5.198   2.159
 4184SOL    HW123021   3.861   5.248   2.082
 4184SOL    HW223022   3.959   5.258   2.212
 4185SOL     OW23023   5.722   9.209   3.793
 4185SOL    HW123024   5.775   9.173   3.717
 4185SOL    HW223025   5.770   9.190   3.879
 4186SOL     OW23026   8.956   4.650   1.130
 4186SOL    HW123027   8.952   4.706   1.213
 4186SOL    HW223028   8.930   4.556   1.151
 4187SOL     OW23029   8.404   4.929   0.479
 4187SOL    HW123030   8.357   4.858   0.533
 4187SOL    HW223031   8.502   4.913   0.482
 4188SOL     OW23032   1.627   4.414   1.682
 4188SOL    HW123033   1.676   4.445   1.763
 4188SOL    HW223034   1.667   4.454   1.600
 4189SOL     OW23035   4.746   5.133   1.633
 4189SOL    HW123036   4.685   5.172   1.701
 4189SOL    HW223037   4.811   5.071   1.679
 4190SOL     OW23038   2.758   9.929   0.501
 4190SOL    HW123039   2.696   0.008   0.499
 4190SOL    HW223040   2.842   9.954   0.548
 4191SOL     OW23041   3.198   0.090   0.921
 4191SOL    HW123042   3.128   0.147   0.877
 4191SOL    HW223043   3.261   0.056   0.851
 4192SOL     OW23044   2.150   8.734   3.069
 4192SOL    HW123045   2.098   8.720   2.985
 4192SOL    HW223046   2.096   8.789   3.133
 4193SOL     OW23047   6.580   8.981   2.150
 4193SOL    HW123048   6.666   8.967   2.198
 4193SOL    HW223049   6.510   8.921   2.188
 4194SOL     OW23050   1.815   0.718   0.842
 4194SOL    HW123051   1.815   0.717   0.742
 4194SOL    HW223052   1.901   0.680   0.875
 4195SOL     OW23053   3.137   2.732   0.372
 4195SOL    HW123054   3.092   2.737   0.461
 4195SOL    HW223055   3.087   2.668   0.313
 4196SOL     OW23056   7.696   1.490   0.900
 4196SOL    HW123057   7.704   1.537   0.988
 4196SOL    HW223058   7.627   1.418   0.906
 4197SOL     OW23059   5.865   7.822   3.275
 4197SOL    HW123060   5.900   7.836   3.182
 4197SOL    HW223061   5.898   7.895   3.334
 4198SOL     OW23062   3.236   2.276   2.011
 4198SOL    HW123063   3.287   2.361   2.025
 4198SOL    HW223064   3.139   2.296   2.001
 4199SOL     OW23065   1.697   2.794   1.488
 4199SOL    HW123066   1.740   2.706   1.468
 4199SOL    HW223067   1.623   2.811   1.422
 4200SOL     OW23068   3.836   4.433   0.417
 4200SOL    HW123069   3.886   4.478   0.343
 4200SOL    HW223070   3.882   4.347   0.441
 4201SOL     OW23071   4.402   7.372   1.893
 4201SOL    HW123072   4.322   7.313   1.907
 4201SOL    HW223073   4.413   7.433   1.972
 4202SOL     OW23074   5.603   8.035   3.698
 4202SOL    HW123075   5.521   8.071   3.654
 4202SOL    HW223076   5.584   7.944   3.734
 4203SOL     OW23077   0.463   0.802   0.675
 4203SOL    HW123078   0.486   0.899   0.684
 4203SOL    HW223079   0.470   0.775   0.579
 4204SOL     OW23080   9.821   1.712   1.741
 4204SOL    HW123081   9.829   1.780   1.669
 4204SOL    HW223082   9.807   1.758   1.829
 4205SOL     OW23083   8.024   8.127   1.295
 4205SOL    HW123084   8.074   8.144   1.210
 4205SOL    HW223085   8.085   8.086   1.362
 4206SOL     OW23086   1.804   7.628   2.894
 4206SOL    HW123087   1.728   7.679   2.934
 4206SOL    HW223088   1.769   7.548   2.844
 4207SOL     OW23089   4.547   7.716   0.592
 4207SOL    HW123090   4.624   7.676   0.542
 4207SOL    HW223091   4.462   7.698   0.543
 4208SOL     OW23092   4.564   6.549   2.855
 4208SOL    HW123093   4.515   6.466   2.827
 4208SOL    HW223094   4.557   6.618   2.782
 4209SOL     OW23095   8.174   9.699   1.829
 4209SOL    HW123096   8.228   9.676   1.748
 4209SOL    HW223097   8.233   9.700   1.910
 4210SOL     OW23098   9.170   1.057   3.212
 4210SOL    HW123099   9.077   1.085   3.235
 4210SOL    HW223100   9.235   1.114   3.261
 4211SOL     OW23101   2.085   8.287   1.193
 4211SOL    HW123102   2.085   8.346   1.273
 4211SOL    HW223103   2.056   8.195   1.219
 4212SOL     OW23104   8.211   0.320   1.593
 4212SOL    HW123105   8.289   0.267   1.560
 4212SOL    HW223106   8.208   0.408   1.545
 4213SOL     OW23107   1.598   7.136   3.736
 4213SOL    HW123108   1.554   7.113   3.823
 4213SOL    HW223109   1.597   7.057   3.675
 4214SOL     OW23110   4.887   2.813   1.034
 4214SOL    HW123111   4.816   2.750   1.003
 4214SOL    HW223112   4.976   2.785   0.997
 4215SOL     OW23113   9.279   2.945   3.570
 4215SOL    HW123114   9.232   2.857   3.579
 4215SOL    HW223115   9.226   3.016   3.618
 4216SOL     OW23116   2.230   4.607   1.180
 4216SOL    HW123117   2.282   4.633   1.098
 4216SOL    HW223118   2.137   4.642   1.173
 4217SOL     OW23119   4.338   7.846   2.378
 4217SOL    HW123120   4.276   7.816   2.306
 4217SOL    HW223121   4.390   7.768   2.413
 4218SOL     OW23122   8.462   7.668   1.984
 4218SOL    HW123123   8.445   7.573   1.957
 4218SOL    HW223124   8.548   7.699   1.943
 4219SOL     OW23125   4.254   4.452   0.231
 4219SOL    HW123126   4.300   4.450   0.319
 4219SOL    HW223127   4.321   4.436   0.158
 4220SOL     OW23128   8.231   9.287   0.745
 4220SOL    HW123129   8.143   9.239   0.752
 4220SOL    HW223130   8.215   9.385   0.736
 4221SOL     OW23131   2.656   2.770   0.456
 4221SOL    HW123132   2.681   2.764   0.552
 4221SOL    HW223133   2.575   2.714   0.439
 4222SOL     OW23134   1.970   4.689   1.167
 4222SOL    HW123135   1.944   4.647   1.080
 4222SOL    HW223136   1.912   4.769   1.185
 4223SOL     OW23137   7.173   8.295   1.486
 4223SOL    HW123138   7.236   8.219   1.503
 4223SOL    HW223139   7.202   8.343   1.403
 4224SOL     OW23140   0.994   6.299   1.830
 4224SOL    HW123141   0.927   6.333   1.764
 4224SOL    HW223142   0.948   6.246   1.901
 4225SOL     OW23143   3.924   4.149   2.287
 4225SOL    HW123144   4.011   4.158   2.238
 4225SOL    HW223145   3.941   4.151   2.385
 4226SOL     OW23146   8.759   7.176   1.816
 4226SOL    HW123147   8.693   7.140   1.883
 4226SOL    HW223148   8.719   7.171   1.724
 4227SOL     OW23149   1.333   9.556   3.336
 4227SOL    HW123150   1.404   9.609   3.382
 4227SOL    HW223151   1.311   9.598   3.248
 4228SOL     OW23152   2.818   6.185   3.696
 4228SOL    HW123153   2.857   6.270   3.731
 4228SOL    HW223154   2.730   6.204   3.652
 4229SOL     OW23155   8.435   4.304   3.238
 4229SOL    HW123156   8.397   4.396   3.232
 4229SOL    HW223157   8.423   4.269   3.331
 4230SOL     OW23158   3.116   0.104   0.115
 4230SOL    HW123159   3.041   0.169   0.128
 4230SOL    HW223160   3.112   0.033   0.185
 4231SOL     OW23161   1.286   2.155   0.214
 4231SOL    HW123162   1.215   2.121   0.275
 4231SOL    HW223163   1.253   2.154   0.119
 4232SOL     OW23164   4.643   2.489   2.672
 4232SOL    HW123165   4.711   2.559   2.695
 4232SOL    HW223166   4.639   2.478   2.573
 4233SOL     OW23167   0.392   8.283   1.018
 4233SOL    HW123168   0.435   8.364   1.056
 4233SOL    HW223169   0.423   8.270   0.924
 4234SOL     OW23170   3.997   9.817   2.994
 4234SOL    HW123171   4.026   9.835   2.900
 4234SOL    HW223172   3.906   9.774   2.994
 4235SOL     OW23173   8.735   9.393   2.641
 4235SOL    HW123174   8.672   9.462   2.676
 4235SOL    HW223175   8.827   9.410   2.678
 4236SOL     OW23176   0.758   8.909   1.664
 4236SOL    HW123177   0.679   8.907   1.603
 4236SOL    HW223178   0.730   8.942   1.754
 4237SOL     OW23179   0.626   8.261   0.544
 4237SOL    HW123180   0.645   8.163   0.533
 4237SOL    HW223181   0.699   8.314   0.501
 4238SOL     OW23182   2.533   7.461   2.863
 4238SOL    HW123183   2.564   7.400   2.789
 4238SOL    HW223184   2.523   7.554   2.827
 4239SOL     OW23185   2.112   0.921   0.341
 4239SOL    HW123186   2.147   0.948   0.251
 4239SOL    HW223187   2.092   0.823   0.341
 4240SOL     OW23188   3.186   2.686   2.119
 4240SOL    HW123189   3.106   2.632   2.145
 4240SOL    HW223190   3.157   2.778   2.093
 4241SOL     OW23191   1.396   5.604   3.098
 4241SOL    HW123192   1.394   5.702   3.081
 4241SOL    HW223193   1.304   5.566   3.087
 4242SOL     OW23194   4.374   7.396   2.336
 4242SOL    HW123195   4.419   7.319   2.381
 4242SOL    HW223196   4.277   7.398   2.362
 4243SOL     OW23197   3.259   3.877   0.870
 4243SOL    HW123198   3.282   3.918   0.782
 4243SOL    HW223199   3.305   3.789   0.879
 4244SOL     OW23200   9.975   5.583   2.107
 4244SOL    HW123201   9.913   5.660   2.092
 4244SOL    HW223202   9.967   5.519   2.030
 4245SOL     OW23203   9.622   0.848   0.924
 4245SOL    HW123204   9.594   0.757   0.956
 4245SOL    HW223205   9.563   0.876   0.849
 4246SOL     OW23206   9.289   4.733   2.261
 4246SOL    HW123207   9.200   4.711   2.301
 4246SOL    HW223208   9.277   4.775   2.171
 4247SOL     OW23209   4.955   3.312   0.392
 4247SOL    HW123210   4.882   3.375   0.417
 4247SOL    HW223211   5.039   3.338   0.440
 4248SOL     OW23212   2.254   4.742   2.420
 4248SOL    HW123213   2.275   4.753   2.322
 4248SOL    HW223214   2.238   4.645   2.440
 4249SOL     OW23215   5.484   9.224   1.969
 4249SOL    HW123216   5.440   9.308   1.999
 4249SOL    HW223217   5.569   9.210   2.021
 4250SOL     OW23218   8.987   7.690   0.768
 4250SOL    HW123219   8.968   7.716   0.673
 4250SOL    HW223220   9.086   7.676   0.779
 4251SOL     OW23221   1.312   8.718   0.958
 4251SOL    HW123222   1.377   8.761   0.897
 4251SOL    HW223223   1.241   8.672   0.905
 4252SOL     OW23224   1.330   0.888   3.654
 4252SOL    HW123225   1.234   0.908   3.675
 4252SOL    HW223226   1.386   0.905   3.735
 4253SOL     OW23227   3.550   0.450   0.957
 4253SOL    HW123228   3.457   0.463   0.922
 4253SOL    HW223229   3.569   0.518   1.028
 4254SOL     OW23230   0.081   6.527   2.068
 4254SOL    HW123231   0.077   6.627   2.072
 4254SOL    HW223232   0.013   6.488   2.130
 4255SOL     OW23233   3.381   3.650   0.156
 4255SOL    HW123234   3.408   3.746   0.162
 4255SOL    HW223235   3.281   3.643   0.158
 4256SOL     OW23236   7.355   0.574   0.162
 4256SOL    HW123237   7.356   0.477   0.188
 4256SOL    HW223238   7.278   0.591   0.101
 4257SOL     OW23239   2.001   1.061   2.699
 4257SOL    HW123240   1.950   1.074   2.614
 4257SOL    HW223241   2.030   0.965   2.705
 4258SOL     OW23242   9.257   8.769   3.078
 4258SOL    HW123243   9.269   8.687   3.022
 4258SOL    HW223244   9.172   8.815   3.052
 4259SOL     OW23245   8.380   0.123   1.488
 4259SOL    HW123246   8.469   0.082   1.505
 4259SOL    HW223247   8.308   0.054   1.500
 4260SOL     OW23248   9.156   0.334   2.889
 4260SOL    HW123249   9.059   0.311   2.881
 4260SOL    HW223250   9.207   0.289   2.816
 4261SOL     OW23251   2.810   6.382   3.437
 4261SOL    HW123252   2.746   6.311   3.466
 4261SOL    HW223253   2.761   6.467   3.423
 4262SOL     OW23254   0.356   7.756   3.321
 4262SOL    HW123255   0.346   7.810   3.404
 4262SOL    HW223256   0.265   7.734   3.285
 4263SOL     OW23257   7.870   8.162   2.813
 4263SOL    HW123258   7.889   8.217   2.894
 4263SOL    HW223259   7.772   8.144   2.806
 4264SOL     OW23260   0.064   1.454   2.556
 4264SOL    HW123261   0.069   1.383   2.626
 4264SOL    HW223262   9.973   1.456   2.516
 4265SOL     OW23263   2.642   7.230   3.258
 4265SOL    HW123264   2.615   7.155   3.198
 4265SOL    HW223265   2.681   7.304   3.203
 4266SOL     OW23266   4.376   3.091   1.473
 4266SOL    HW123267   4.374   3.069   1.571
 4266SOL    HW223268   4.385   3.006   1.420
 4267SOL     OW23269   4.628   0.452   0.006
 4267SOL    HW123270   4.638   0.532   0.065
 4267SOL    HW223271   4.709   0.394   0.013
 4268SOL     OW23272   1.461   6.994   2.784
 4268SOL    HW123273   1.446   6.966   2.689
 4268SOL    HW223274   1.558   6.984   2.806
 4269SOL     OW23275   8.152   6.619   3.086
 4269SOL    HW123276   8.221   6.609   3.014
 4269SOL    HW223277   8.060   6.611   3.046
 4270SOL     OW23278   4.408   0.142   1.455
 4270SOL    HW123279   4.417   0.094   1.542
 4270SOL    HW223280   4.392   0.239   1.472
 4271SOL     OW23281   7.891   9.319   2.594
 4271SOL    HW123282   7.949   9.399   2.576
 4271SOL    HW223283   7.949   9.237   2.602
 4272SOL     OW23284   0.462   8.085   1.541
 4272SOL    HW123285   0.526   8.155   1.509
 4272SOL    HW223286   0.429   8.032   1.464
 4273SOL     OW23287   9.217   5.367   1.359
 4273SOL    HW123288   9.212   5.309   1.278
 4273SOL    HW223289   9.313   5.381   1.384
 4274SOL     OW23290   1.007   4.196   2.476
 4274SOL    HW123291   1.081   4.253   2.443
 4274SOL    HW223292   0.954   4.161   2.399
 4275SOL     OW23293   2.661   5.868   2.393
 4275SOL    HW123294   2.609   5.865   2.478
 4275SOL    HW223295   2.735   5.935   2.401
 4276SOL     OW23296   8.161   6.849   0.121
 4276SOL    HW123297   8.156   6.808   0.212
 4276SOL    HW223298   8.068   6.867   0.088
 4277SOL     OW23299   2.255   1.144   0.428
 4277SOL    HW123300   2.201   1.062   0.406
 4277SOL    HW223301   2.294   1.133   0.520
 4278SOL     OW23302   9.105   1.070   0.617
 4278SOL    HW123303   9.125   1.013   0.697
 4278SOL    HW223304   9.006   1.077   0.605
 4279SOL     OW23305   2.059   2.085   2.054
 4279SOL    HW123306   2.011   2.128   2.130
 4279SOL    HW223307   2.006   2.097   1.970
 4280SOL     OW23308   4.298   2.141   1.675
 4280SOL    HW123309   4.284   2.150   1.774
 4280SOL    HW223310   4.211   2.118   1.631
 4281SOL     OW23311   9.389   6.456   0.421
 4281SOL    HW123312   9.413   6.475   0.516
 4281SOL    HW223313   9.464   6.486   0.361
 4282SOL     OW23314   8.274   5.828   0.743
 4282SOL    HW123315   8.331   5.821   0.662
 4282SOL    HW223316   8.302   5.760   0.810
 4283SOL     OW23317   8.841   3.522   2.460
 4283SOL    HW123318   8.833   3.608   2.512
 4283SOL    HW223319   8.780   3.526   2.381
 4284SOL     OW23320   5.061   0.362   2.519
 4284SOL    HW123321   5.017   0.414   2.592
 4284SOL    HW223322   5.106   0.424   2.455
 4285SOL     OW23323   9.814   5.350   2.706
 4285SOL    HW123324   9.884   5.282   2.682
 4285SOL    HW223325   9.828   5.432   2.651
 4286SOL     OW23326   4.506   1.188   0.365
 4286SOL    HW123327   4.577   1.196   0.295
 4286SOL    HW223328   4.548   1.189   0.455
 4287SOL     OW23329   8.384   1.174   1.793
 4287SOL    HW123330   8.319   1.156   1.867
 4287SOL    HW223331   8.334   1.182   1.707
 4288SOL     OW23332   1.342   8.530   1.159
 4288SOL    HW123333   1.342   8.601   1.089
 4288SOL    HW223334   1.396   8.561   1.237
 4289SOL     OW23335   0.313   5.823   2.331
 4289SOL    HW123336   0.303   5.825   2.430
 4289SOL    HW223337   0.317   5.728   2.300
 4290SOL     OW23338   3.138   9.851   3.363
 4290SOL    HW123339   3.205   9.813   3.301
 4290SOL    HW223340   3.153   9.815   3.455
 4291SOL     OW23341   1.731   8.865   3.434
 4291SOL    HW123342   1.723   8.878   3.533
 4291SOL    HW223343   1.663   8.921   3.387
 4292SOL     OW23344   4.005   8.171   0.283
 4292SOL    HW123345   3.935   8.240   0.266
 4292SOL    HW223346   3.963   8.080   0.286
 4293SOL     OW23347   8.319   1.770   3.616
 4293SOL    HW123348   8.377   1.838   3.572
 4293SOL    HW223349   8.225   1.783   3.587
 4294SOL     OW23350   8.531   9.461   1.806
 4294SOL    HW123351   8.544   9.457   1.707
 4294SOL    HW223352   8.445   9.416   1.831
 4295SOL     OW23353   0.650   7.054   3.219
 4295SOL    HW123354   0.675   7.058   3.123
 4295SOL    HW223355   0.673   6.963   3.255
 4296SOL     OW23356   3.648   0.644   1.951
 4296SOL    HW123357   3.606   0.642   2.042
 4296SOL    HW223358   3.643   0.737   1.914
 4297SOL     OW23359   9.707   9.030   2.848
 4297SOL    HW123360   9.751   8.955   2.798
 4297SOL    HW223361   9.777   9.088   2.890
 4298SOL     OW23362   3.272   7.812   0.044
 4298SOL    HW123363   3.347   7.825   4.760
 4298SOL    HW223364   3.240   7.718   0.040
 4299SOL     OW23365   7.737   1.951   1.119
 4299SOL    HW123366   7.807   1.881   1.131
 4299SOL    HW223367   7.646   1.908   1.122
 4300SOL     OW23368   8.738   3.464   3.012
 4300SOL    HW123369   8.781   3.448   3.101
 4300SOL    HW223370   8.664   3.399   2.999
 4301SOL     OW23371   5.997   8.615   2.359
 4301SOL    HW123372   5.966   8.594   2.266
 4301SOL    HW223373   6.096   8.624   2.359
 4302SOL     OW23374   8.499   6.716   2.492
 4302SOL    HW123375   8.598   6.709   2.503
 4302SOL    HW223376   8.476   6.792   2.432
 4303SOL     OW23377   0.331   6.832   0.127
 4303SOL    HW123378   0.240   6.864   0.103
 4303SOL    HW223379   0.340   6.735   0.104
 4304SOL     OW23380   2.216   6.192   1.588
 4304SOL    HW123381   2.177   6.113   1.634
 4304SOL    HW223382   2.147   6.265   1.582
 4305SOL     OW23383   9.769   0.741   3.514
 4305SOL    HW123384   9.684   0.749   3.566
 4305SOL    HW223385   9.845   0.772   3.571
 4306SOL     OW23386   1.365   4.620   3.527
 4306SOL    HW123387   1.340   4.697   3.586
 4306SOL    HW223388   1.465   4.609   3.527
 4307SOL     OW23389   4.757   9.499   1.058
 4307SOL    HW123390   4.795   9.418   1.103
 4307SOL    HW223391   4.830   9.566   1.046
 4308SOL     OW23392   7.523   0.294   0.662
 4308SOL    HW123393   7.575   0.378   0.646
 4308SOL    HW223394   7.582   0.227   0.709
 4309SOL     OW23395   8.314   9.656   1.585
 4309SOL    HW123396   8.291   9.666   1.488
 4309SOL    HW223397   8.353   9.742   1.619
 4310SOL     OW23398   7.378   0.095   0.068
 4310SOL    HW123399   7.445   0.024   0.091
 4310SOL    HW223400   7.377   0.108   4.750
 4311SOL     OW23401   8.400   6.987   0.145
 4311SOL    HW123402   8.385   7.035   0.231
 4311SOL    HW223403   8.313   6.951   0.111
 4312SOL     OW23404   8.090   0.594   1.737
 4312SOL    HW123405   8.037   0.545   1.668
 4312SOL    HW223406   8.032   0.610   1.817
 4313SOL     OW23407   0.407   0.852   2.237
 4313SOL    HW123408   0.343   0.902   2.295
 4313SOL    HW223409   0.497   0.848   2.282
 4314SOL     OW23410   7.953   1.961   1.723
 4314SOL    HW123411   7.962   2.010   1.637
 4314SOL    HW223412   7.987   2.018   1.798
 4315SOL     OW23413   7.619   8.776   1.682
 4315SOL    HW123414   7.629   8.690   1.633
 4315SOL    HW223415   7.529   8.816   1.662
 4316SOL     OW23416   9.266   5.819   2.554
 4316SOL    HW123417   9.252   5.733   2.505
 4316SOL    HW223418   9.325   5.803   2.633
 4317SOL     OW23419   9.092   7.638   2.294
 4317SOL    HW123420   9.070   7.574   2.220
 4317SOL    HW223421   9.047   7.609   2.378
 4318SOL     OW23422   0.031   0.765   0.890
 4318SOL    HW123423   0.103   0.765   0.960
 4318SOL    HW223424   9.974   0.847   0.902
 4319SOL     OW23425   3.864   4.078   1.118
 4319SOL    HW123426   3.852   4.124   1.031
 4319SOL    HW223427   3.910   3.990   1.103
 4320SOL     OW23428   1.270   3.088   0.315
 4320SOL    HW123429   1.274   3.007   0.257
 4320SOL    HW223430   1.332   3.158   0.278
 4321SOL     OW23431   0.029   8.945   2.327
 4321SOL    HW123432   0.022   8.886   2.247
 4321SOL    HW223433   9.991   9.035   2.306
 4322SOL     OW23434   8.569   7.190   0.857
 4322SOL    HW123435   8.604   7.270   0.808
 4322SOL    HW223436   8.592   7.197   0.954
 4323SOL     OW23437   8.303   0.357   0.445
 4323SOL    HW123438   8.348   0.302   0.374
 4323SOL    HW223439   8.353   0.347   0.531
 4324SOL     OW23440   2.936   1.644   3.169
 4324SOL    HW123441   2.915   1.562   3.115
 4324SOL    HW223442   2.862   1.710   3.161
 4325SOL     OW23443   4.600   3.822   1.042
 4325SOL    HW123444   4.582   3.768   0.960
 4325SOL    HW223445   4.618   3.760   1.119
 4326SOL     OW23446   3.519   1.529   2.962
 4326SOL    HW123447   3.489   1.508   3.055
 4326SOL    HW223448   3.441   1.526   2.900
 4327SOL     OW23449   3.511   6.491   1.802
 4327SOL    HW123450   3.581   6.420   1.809
 4327SOL    HW223451   3.425   6.450   1.771
 4328SOL     OW23452   4.620   2.536   0.641
 4328SOL    HW123453   4.533   2.541   0.592
 4328SOL    HW223454   4.694   2.564   0.580
 4329SOL     OW23455   4.044   9.592   1.218
 4329SOL    HW123456   3.950   9.622   1.231
 4329SOL    HW223457   4.106   9.668   1.238
 4330SOL     OW23458   8.563   1.459   0.251
 4330SOL    HW123459   8.464   1.475   0.254
 4330SOL    HW223460   8.599   1.490   0.163
 4331SOL     OW23461   2.857   9.322   3.664
 4331SOL    HW123462   2.918   9.250   3.632
 4331SOL    HW223463   2.905   9.410   3.663
 4332SOL     OW23464   9.564   7.833   2.395
 4332SOL    HW123465   9.491   7.772   2.362
 4332SOL    HW223466   9.558   7.920   2.347
 4333SOL     OW23467   9.832   2.740   0.998
 4333SOL    HW123468   9.894   2.667   1.027
 4333SOL    HW223469   9.745   2.731   1.047
 4334SOL     OW23470   9.703   9.828   1.621
 4334SOL    HW123471   9.656   9.894   1.563
 4334SOL    HW223472   9.802   9.833   1.604
 4335SOL     OW23473   7.963   2.754   0.760
 4335SOL    HW123474   7.903   2.716   0.831
 4335SOL    HW223475   7.908   2.808   0.696
 4336SOL     OW23476   5.350   9.461   2.955
 4336SOL    HW123477   5.332   9.363   2.951
 4336SOL    HW223478   5.430   9.478   3.012
 4337SOL     OW23479   5.888   8.523   2.590
 4337SOL    HW123480   5.854   8.430   2.577
 4337SOL    HW223481   5.919   8.559   2.502
 4338SOL     OW23482   1.716   8.876   3.716
 4338SOL    HW123483   1.621   8.865   3.685
 4338SOL    HW223484   1.722   8.855   3.813
 4339SOL     OW23485   4.240   2.177   0.417
 4339SOL    HW123486   4.229   2.272   0.389
 4339SOL    HW223487   4.325   2.140   0.377
 4340SOL     OW23488   9.857   0.986   0.901
 4340SOL    HW123489   9.847   1.069   0.955
 4340SOL    HW223490   9.773   0.933   0.906
 4341SOL     OW23491   1.508   3.073   2.821
 4341SOL    HW123492   1.561   3.016   2.759
 4341SOL    HW223493   1.536   3.168   2.811
 4342SOL     OW23494   9.606   6.977   3.537
 4342SOL    HW123495   9.676   7.009   3.600
 4342SOL    HW223496   9.647   6.914   3.470
 4343SOL     OW23497   4.873   9.786   2.117
 4343SOL    HW123498   4.885   9.739   2.204
 4343SOL    HW223499   4.925   9.872   2.118
 4344SOL     OW23500   5.009   0.020   2.131
 4344SOL    HW123501   5.037   0.057   2.219
 4344SOL    HW223502   5.053   0.072   2.057
 4345SOL     OW23503   4.893   7.935   2.276
 4345SOL    HW123504   4.865   8.030   2.284
 4345SOL    HW223505   4.813   7.875   2.279
 4346SOL     OW23506   0.500   4.819   2.730
 4346SOL    HW123507   0.404   4.839   2.710
 4346SOL    HW223508   0.558   4.889   2.688
 4347SOL     OW23509   9.016   6.873   1.604
 4347SOL    HW123510   9.111   6.841   1.600
 4347SOL    HW223511   9.003   6.930   1.685
 4348SOL     OW23512   0.709   8.114   3.381
 4348SOL    HW123513   0.783   8.177   3.403
 4348SOL    HW223514   0.622   8.153   3.408
 4349SOL     OW23515   1.416   4.127   3.518
 4349SOL    HW123516   1.417   4.027   3.505
 4349SOL    HW223517   1.499   4.154   3.567
 4350SOL     OW23518   0.391   4.090   2.324
 4350SOL    HW123519   0.431   4.057   2.410
 4350SOL    HW223520   0.291   4.093   2.334
 4351SOL     OW23521   1.272   9.146   2.000
 4351SOL    HW123522   1.222   9.233   1.999
 4351SOL    HW223523   1.347   9.150   1.935
 4352SOL     OW23524   3.504   1.802   0.821
 4352SOL    HW123525   3.516   1.880   0.883
 4352SOL    HW223526   3.474   1.835   0.732
 4353SOL     OW23527   3.361   0.145   2.201
 4353SOL    HW123528   3.431   0.208   2.166
 4353SOL    HW223529   3.406   0.072   2.252
 4354SOL     OW23530   1.030   5.475   0.127
 4354SOL    HW123531   1.130   5.478   0.136
 4354SOL    HW223532   0.999   5.555   0.076
 4355SOL     OW23533   3.044   1.636   3.418
 4355SOL    HW123534   3.002   1.633   3.328
 4355SOL    HW223535   2.973   1.641   3.488
 4356SOL     OW23536   8.519   6.796   1.720
 4356SOL    HW123537   8.611   6.785   1.682
 4356SOL    HW223538   8.478   6.881   1.687
 4357SOL     OW23539   9.647   6.890   2.973
 4357SOL    HW123540   9.735   6.933   2.994
 4357SOL    HW223541   9.594   6.880   3.057
 4358SOL     OW23542   1.274   0.774   1.393
 4358SOL    HW123543   1.313   0.861   1.363
 4358SOL    HW223544   1.287   0.705   1.322
 4359SOL     OW23545   7.926   7.211   1.500
 4359SOL    HW123546   7.847   7.243   1.447
 4359SOL    HW223547   7.919   7.112   1.514
 4360SOL     OW23548   1.692   0.546   2.150
 4360SOL    HW123549   1.696   0.446   2.158
 4360SOL    HW223550   1.784   0.584   2.162
 4361SOL     OW23551   2.421   5.678   0.592
 4361SOL    HW123552   2.407   5.588   0.632
 4361SOL    HW223553   2.493   5.674   0.523
 4362SOL     OW23554   2.586   1.245   1.902
 4362SOL    HW123555   2.590   1.284   1.810
 4362SOL    HW223556   2.537   1.158   1.899
 4363SOL     OW23557   7.135   9.548   2.919
 4363SOL    HW123558   7.137   9.625   2.855
 4363SOL    HW223559   7.110   9.464   2.870
 4364SOL     OW23560   5.738   8.382   2.043
 4364SOL    HW123561   5.738   8.332   1.957
 4364SOL    HW223562   5.648   8.424   2.057
 4365SOL     OW23563   8.079   8.299   1.746
 4365SOL    HW123564   7.985   8.292   1.712
 4365SOL    HW223565   8.125   8.211   1.736
 4366SOL     OW23566   0.560   7.252   2.528
 4366SOL    HW123567   0.545   7.229   2.431
 4366SOL    HW223568   0.596   7.345   2.535
 4367SOL     OW23569   3.124   4.188   1.269
 4367SOL    HW123570   3.065   4.120   1.225
 4367SOL    HW223571   3.115   4.181   1.368
 4368SOL     OW23572   3.188   8.222   0.856
 4368SOL    HW123573   3.167   8.276   0.937
 4368SOL    HW223574   3.272   8.170   0.872
 4369SOL     OW23575   4.425   3.267   0.532
 4369SOL    HW123576   4.467   3.223   0.453
 4369SOL    HW223577   4.496   3.299   0.594
 4370SOL     OW23578   1.760   9.361   1.282
 4370SOL    HW123579   1.778   9.374   1.184
 4370SOL    HW223580   1.684   9.297   1.293
 4371SOL     OW23581   0.200   4.484   1.676
 4371SOL    HW123582   0.176   4.406   1.619
 4371SOL    HW223583   0.297   4.505   1.664
 4372SOL     OW23584   0.573   5.130   3.178
 4372SOL    HW123585   0.580   5.067   3.255
 4372SOL    HW223586   0.512   5.092   3.109
 4373SOL     OW23587   0.116   5.313   0.222
 4373SOL    HW123588   0.048   5.380   0.192
 4373SOL    HW223589   0.206   5.341   0.187
 4374SOL     OW23590   9.750   4.591   3.174
 4374SOL    HW123591   9.762   4.665   3.108
 4374SOL    HW223592   9.827   4.590   3.238
 4375SOL     OW23593   8.654   3.330   1.532
 4375SOL    HW123594   8.752   3.331   1.552
 4375SOL    HW223595   8.632   3.402   1.467
 4376SOL     OW23596   2.534   5.902   2.637
 4376SOL    HW123597   2.576   5.962   2.705
 4376SOL    HW223598   2.448   5.943   2.606
 4377SOL     OW23599   8.635   3.451   1.837
 4377SOL    HW123600   8.683   3.364   1.850
 4377SOL    HW223601   8.539   3.433   1.816
 4378SOL     OW23602   1.833   9.805   2.800
 4378SOL    HW123603   1.884   9.779   2.882
 4378SOL    HW223604   1.755   9.863   2.826
 4379SOL     OW23605   9.317   5.863   3.666
 4379SOL    HW123606   9.248   5.805   3.710
 4379SOL    HW223607   9.371   5.808   3.602
 4380SOL     OW23608   8.613   6.054   2.938
 4380SOL    HW123609   8.705   6.033   2.972
 4380SOL    HW223610   8.556   5.972   2.944
 4381SOL     OW23611   8.816   8.617   0.998
 4381SOL    HW123612   8.739   8.619   1.061
 4381SOL    HW223613   8.830   8.708   0.959
 4382SOL     OW23614   2.299   9.722   1.652
 4382SOL    HW123615   2.229   9.776   1.604
 4382SOL    HW223616   2.386   9.770   1.649
 4383SOL     OW23617   3.988   2.907   1.406
 4383SOL    HW123618   3.896   2.922   1.441
 4383SOL    HW223619   3.984   2.883   1.309
 4384SOL     OW23620   8.669   3.215   2.748
 4384SOL    HW123621   8.583   3.224   2.698
 4384SOL    HW223622   8.652   3.231   2.846
 4385SOL     OW23623   9.082   2.115   2.393
 4385SOL    HW123624   9.118   2.204   2.364
 4385SOL    HW223625   9.133   2.042   2.348
 4386SOL     OW23626   4.321   9.460   2.541
 4386SOL    HW123627   4.264   9.388   2.502
 4386SOL    HW223628   4.323   9.538   2.478
 4387SOL     OW23629   1.873   1.584   2.734
 4387SOL    HW123630   1.790   1.556   2.685
 4387SOL    HW223631   1.934   1.505   2.744
 4388SOL     OW23632   8.883   0.755   1.118
 4388SOL    HW123633   8.877   0.769   1.019
 4388SOL    HW223634   8.919   0.838   1.162
 4389SOL     OW23635   4.136   2.811   1.846
 4389SOL    HW123636   4.124   2.725   1.797
 4389SOL    HW223637   4.234   2.830   1.858
 4390SOL     OW23638   3.765   8.000   3.549
 4390SOL    HW123639   3.682   8.056   3.537
 4390SOL    HW223640   3.744   7.922   3.608
 4391SOL     OW23641   9.472   6.854   3.185
 4391SOL    HW123642   9.383   6.888   3.153
 4391SOL    HW223643   9.462   6.759   3.216
 4392SOL     OW23644   1.041   9.422   2.497
 4392SOL    HW123645   0.998   9.511   2.481
 4392SOL    HW223646   1.009   9.384   2.584
 4393SOL     OW23647   1.069   7.807   2.462
 4393SOL    HW123648   1.041   7.889   2.512
 4393SOL    HW223649   1.069   7.826   2.364
 4394SOL     OW23650   6.183   9.957   2.883
 4394SOL    HW123651   6.139   0.046   2.878
 4394SOL    HW223652   6.263   9.962   2.942
 4395SOL     OW23653   8.018   9.671   1.101
 4395SOL    HW123654   8.017   9.750   1.162
 4395SOL    HW223655   7.946   9.607   1.129
 4396SOL     OW23656   4.487   7.622   2.443
 4396SOL    HW123657   4.496   7.603   2.541
 4396SOL    HW223658   4.450   7.541   2.397
 4397SOL     OW23659   4.687   3.475   2.988
 4397SOL    HW123660   4.760   3.503   3.050
 4397SOL    HW223661   4.598   3.498   3.028
 4398SOL     OW23662   4.188   2.731   1.476
 4398SOL    HW123663   4.118   2.801   1.466
 4398SOL    HW223664   4.152   2.643   1.446
 4399SOL     OW23665   7.859   3.701   0.547
 4399SOL    HW123666   7.922   3.725   0.621
 4399SOL    HW223667   7.812   3.783   0.515
 4400SOL     OW23668   7.725   0.126   0.776
 4400SOL    HW123669   7.704   0.036   0.816
 4400SOL    HW223670   7.745   0.191   0.849
 4401SOL     OW23671   6.245   8.348   2.815
 4401SOL    HW123672   6.278   8.404   2.739
 4401SOL    HW223673   6.147   8.363   2.827
 4402SOL     OW23674   9.641   3.273   1.399
 4402SOL    HW123675   9.550   3.253   1.435
 4402SOL    HW223676   9.646   3.244   1.303
 4403SOL     OW23677   5.326   9.988   2.855
 4403SOL    HW123678   5.424   9.987   2.836
 4403SOL    HW223679   5.286   0.075   2.825
 4404SOL     OW23680   1.606   7.505   3.191
 4404SOL    HW123681   1.580   7.528   3.285
 4404SOL    HW223682   1.695   7.461   3.190
 4405SOL     OW23683   2.004   9.888   3.245
 4405SOL    HW123684   2.102   9.910   3.245
 4405SOL    HW223685   1.984   9.826   3.320
 4406SOL     OW23686   7.726   6.531   2.294
 4406SOL    HW123687   7.711   6.626   2.268
 4406SOL    HW223688   7.669   6.508   2.373
 4407SOL     OW23689   7.682   7.807   2.552
 4407SOL    HW123690   7.763   7.754   2.577
 4407SOL    HW223691   7.609   7.744   2.527
 4408SOL     OW23692   2.259   1.670   3.042
 4408SOL    HW123693   2.256   1.608   2.964
 4408SOL    HW223694   2.321   1.746   3.022
 4409SOL     OW23695   0.581   1.266   0.499
 4409SOL    HW123696   0.569   1.329   0.576
 4409SOL    HW223697   0.535   1.302   0.418
 4410SOL     OW23698   0.433   7.087   2.940
 4410SOL    HW123699   0.422   7.087   2.841
 4410SOL    HW223700   0.530   7.082   2.963
 4411SOL     OW23701   4.427   0.583   0.862
 4411SOL    HW123702   4.459   0.489   0.876
 4411SOL    HW223703   4.360   0.584   0.788
 4412SOL     OW23704   1.010   3.272   1.226
 4412SOL    HW123705   0.916   3.242   1.207
 4412SOL    HW223706   1.065   3.193   1.253
 4413SOL     OW23707   5.895   6.994   2.624
 4413SOL    HW123708   5.865   6.966   2.715
 4413SOL    HW223709   5.914   6.912   2.569
 4414SOL     OW23710   7.866   9.448   1.164
 4414SOL    HW123711   7.923   9.370   1.139
 4414SOL    HW223712   7.783   9.448   1.108
 4415SOL     OW23713   0.093   7.805   0.295
 4415SOL    HW123714   0.074   7.708   0.305
 4415SOL    HW223715   0.056   7.854   0.374
 4416SOL     OW23716   7.364   7.134   3.581
 4416SOL    HW123717   7.388   7.139   3.678
 4416SOL    HW223718   7.348   7.038   3.556
 4417SOL     OW23719   2.087   3.823   1.660
 4417SOL    HW123720   2.137   3.872   1.589
 4417SOL    HW223721   2.140   3.744   1.691
 4418SOL     OW23722   4.739   4.263   1.156
 4418SOL    HW123723   4.737   4.328   1.081
 4418SOL    HW223724   4.760   4.172   1.122
 4419SOL     OW23725   5.136   0.182   1.948
 4419SOL    HW123726   5.085   0.215   1.869
 4419SOL    HW223727   5.220   0.234   1.958
 4420SOL     OW23728   5.696   9.513   3.499
 4420SOL    HW123729   5.755   9.491   3.422
 4420SOL    HW223730   5.638   9.434   3.520
 4421SOL     OW23731   9.426   1.768   1.576
 4421SOL    HW123732   9.398   1.849   1.627
 4421SOL    HW223733   9.379   1.687   1.612
 4422SOL     OW23734   7.826   1.730   3.537
 4422SOL    HW123735   7.787   1.822   3.541
 4422SOL    HW223736   7.761   1.669   3.491
 4423SOL     OW23737   5.133   0.890   3.485
 4423SOL    HW123738   5.174   0.813   3.436
 4423SOL    HW223739   5.180   0.902   3.573
 4424SOL     OW23740   0.783   9.336   0.108
 4424SOL    HW123741   0.807   9.430   0.081
 4424SOL    HW223742   0.699   9.309   0.062
 4425SOL     OW23743   1.274   0.438   2.077
 4425SOL    HW123744   1.326   0.453   2.161
 4425SOL    HW223745   1.184   0.482   2.085
 4426SOL     OW23746   3.406   3.695   1.920
 4426SOL    HW123747   3.491   3.718   1.967
 4426SOL    HW223748   3.373   3.776   1.870
 4427SOL     OW23749   0.398   0.812   1.580
 4427SOL    HW123750   0.468   0.833   1.648
 4427SOL    HW223751   0.383   0.713   1.577
 4428SOL     OW23752   0.114   3.327   2.027
 4428SOL    HW123753   0.085   3.296   1.936
 4428SOL    HW223754   0.182   3.399   2.018
 4429SOL     OW23755   8.595   4.693   2.961
 4429SOL    HW123756   8.653   4.614   2.980
 4429SOL    HW223757   8.513   4.662   2.912
 4430SOL     OW23758   9.634   8.852   0.218
 4430SOL    HW123759   9.667   8.758   0.214
 4430SOL    HW223760   9.535   8.851   0.234
 4431SOL     OW23761   7.947   9.586   1.708
 4431SOL    HW123762   7.990   9.508   1.662
 4431SOL    HW223763   8.014   9.633   1.764
 4432SOL     OW23764   9.101   6.279   0.654
 4432SOL    HW123765   9.133   6.341   0.726
 4432SOL    HW223766   9.023   6.226   0.688
 4433SOL     OW23767   2.359   8.077   2.254
 4433SOL    HW123768   2.375   8.026   2.169
 4433SOL    HW223769   2.383   8.020   2.332
 4434SOL     OW23770   7.693   8.471   3.430
 4434SOL    HW123771   7.767   8.428   3.482
 4434SOL    HW223772   7.698   8.571   3.443
 4435SOL     OW23773   9.563   8.916   0.546
 4435SOL    HW123774   9.495   8.928   0.618
 4435SOL    HW223775   9.560   8.994   0.483
 4436SOL     OW23776   1.509   7.355   0.352
 4436SOL    HW123777   1.416   7.388   0.362
 4436SOL    HW223778   1.568   7.430   0.322
 4437SOL     OW23779   8.660   6.325   1.585
 4437SOL    HW123780   8.712   6.394   1.636
 4437SOL    HW223781   8.562   6.346   1.591
 4438SOL     OW23782   8.370   2.815   0.999
 4438SOL    HW123783   8.313   2.893   1.025
 4438SOL    HW223784   8.312   2.743   0.962
 4439SOL     OW23785   0.609   7.942   1.723
 4439SOL    HW123786   0.556   7.930   1.807
 4439SOL    HW223787   0.552   7.990   1.655
 4440SOL     OW23788   2.133   3.911   1.059
 4440SOL    HW123789   2.213   3.921   1.119
 4440SOL    HW223790   2.107   4.000   1.023
 4441SOL     OW23791   2.079   5.551   2.330
 4441SOL    HW123792   2.051   5.472   2.385
 4441SOL    HW223793   1.999   5.592   2.287
 4442SOL     OW23794   1.221   9.643   2.834
 4442SOL    HW123795   1.175   9.731   2.824
 4442SOL    HW223796   1.293   9.635   2.765
 4443SOL     OW23797   3.586   1.481   1.784
 4443SOL    HW123798   3.672   1.475   1.834
 4443SOL    HW223799   3.581   1.569   1.737
 4444SOL     OW23800   4.986   2.783   0.367
 4444SOL    HW123801   5.052   2.758   0.438
 4444SOL    HW223802   4.953   2.876   0.382
 4445SOL     OW23803   7.878   5.257   0.476
 4445SOL    HW123804   7.906   5.345   0.514
 4445SOL    HW223805   7.845   5.270   0.382
 4446SOL     OW23806   1.885   6.475   2.151
 4446SOL    HW123807   1.883   6.571   2.121
 4446SOL    HW223808   1.968   6.431   2.115
 4447SOL     OW23809   2.550   9.689   2.491
 4447SOL    HW123810   2.530   9.783   2.518
 4447SOL    HW223811   2.502   9.668   2.406
 4448SOL     OW23812   3.811   7.564   1.417
 4448SOL    HW123813   3.821   7.482   1.360
 4448SOL    HW223814   3.892   7.621   1.408
 4449SOL     OW23815   0.862   6.644   0.911
 4449SOL    HW123816   0.905   6.576   0.851
 4449SOL    HW223817   0.821   6.716   0.855
 4450SOL     OW23818   8.879   7.405   3.358
 4450SOL    HW123819   8.896   7.335   3.289
 4450SOL    HW223820   8.960   7.413   3.417
 4451SOL     OW23821   2.304   7.594   0.184
 4451SOL    HW123822   2.268   7.667   0.125
 4451SOL    HW223823   2.257   7.508   0.163
 4452SOL     OW23824   9.581   6.404   2.414
 4452SOL    HW123825   9.563   6.349   2.332
 4452SOL    HW223826   9.564   6.501   2.393
 4453SOL     OW23827   8.100   1.854   2.078
 4453SOL    HW123828   8.092   1.949   2.048
 4453SOL    HW223829   8.059   1.794   2.010
 4454SOL     OW23830   1.757   1.222   3.106
 4454SOL    HW123831   1.782   1.313   3.138
 4454SOL    HW223832   1.723   1.167   3.182
 4455SOL     OW23833   9.423   4.312   2.722
 4455SOL    HW123834   9.384   4.286   2.634
 4455SOL    HW223835   9.501   4.252   2.742
 4456SOL     OW23836   2.867   5.310   0.889
 4456SOL    HW123837   2.914   5.283   0.804
 4456SOL    HW223838   2.933   5.310   0.964
 4457SOL     OW23839   1.056   6.548   3.482
 4457SOL    HW123840   1.092   6.597   3.561
 4457SOL    HW223841   1.120   6.556   3.405
 4458SOL     OW23842   3.221   5.689   2.504
 4458SOL    HW123843   3.270   5.729   2.427
 4458SOL    HW223844   3.129   5.727   2.508
 4459SOL     OW23845   9.323   4.562   0.085
 4459SOL    HW123846   9.398   4.617   0.048
 4459SOL    HW223847   9.242   4.620   0.096
 4460SOL     OW23848   8.381   9.300   0.332
 4460SOL    HW123849   8.371   9.399   0.323
 4460SOL    HW223850   8.317   9.254   0.270
 4461SOL     OW23851   8.486   5.637   1.813
 4461SOL    HW123852   8.438   5.695   1.878
 4461SOL    HW223853   8.486   5.681   1.723
 4462SOL     OW23854   8.484   3.124   1.587
 4462SOL    HW123855   8.553   3.194   1.567
 4462SOL    HW223856   8.509   3.039   1.540
 4463SOL     OW23857   9.987   5.820   2.617
 4463SOL    HW123858   9.946   5.842   2.529
 4463SOL    HW223859   0.087   5.826   2.610
 4464SOL     OW23860   8.784   9.578   0.153
 4464SOL    HW123861   8.867   9.630   0.137
 4464SOL    HW223862   8.704   9.635   0.132
 4465SOL     OW23863   2.843   2.105   0.330
 4465SOL    HW123864   2.927   2.157   0.345
 4465SOL    HW223865   2.859   2.035   0.260
 4466SOL     OW23866   0.841   4.866   2.998
 4466SOL    HW123867   0.833   4.846   2.900
 4466SOL    HW223868   0.879   4.958   3.009
 4467SOL     OW23869   9.698   0.024   3.628
 4467SOL    HW123870   9.738   0.115   3.635
 4467SOL    HW223871   9.760   9.957   3.669
 4468SOL     OW23872   4.027   1.820   1.329
 4468SOL    HW123873   3.977   1.746   1.373
 4468SOL    HW223874   4.120   1.790   1.309
 4469SOL     OW23875   1.561   5.038   2.070
 4469SOL    HW123876   1.601   5.075   1.986
 4469SOL    HW223877   1.563   5.108   2.141
 4470SOL     OW23878   1.507   9.126   2.870
 4470SOL    HW123879   1.520   9.218   2.908
 4470SOL    HW223880   1.437   9.129   2.800
 4471SOL     OW23881   7.623   9.882   3.750
 4471SOL    HW123882   7.713   9.914   3.719
 4471SOL    HW223883   7.571   9.849   3.671
 4472SOL     OW23884   4.971   6.619   2.138
 4472SOL    HW123885   5.023   6.705   2.134
 4472SOL    HW223886   4.876   6.637   2.113
 4473SOL     OW23887   4.909   3.071   1.986
 4473SOL    HW123888   5.006   3.065   1.960
 4473SOL    HW223889   4.902   3.120   2.074
 4474SOL     OW23890   0.758   0.768   0.466
 4474SOL    HW123891   0.660   0.756   0.449
 4474SOL    HW223892   0.791   0.847   0.414
 4475SOL     OW23893   4.754   9.386   1.463
 4475SOL    HW123894   4.712   9.328   1.533
 4475SOL    HW223895   4.842   9.419   1.496
 4476SOL     OW23896   1.373   5.364   1.481
 4476SOL    HW123897   1.358   5.393   1.387
 4476SOL    HW223898   1.418   5.275   1.483
 4477SOL     OW23899   1.414   4.730   1.766
 4477SOL    HW123900   1.384   4.816   1.725
 4477SOL    HW223901   1.417   4.659   1.696
 4478SOL     OW23902   7.813   1.106   2.734
 4478SOL    HW123903   7.740   1.046   2.700
 4478SOL    HW223904   7.824   1.183   2.671
 4479SOL     OW23905   9.747   7.317   1.203
 4479SOL    HW123906   9.701   7.244   1.152
 4479SOL    HW223907   9.781   7.386   1.139
 4480SOL     OW23908   9.189   0.048   1.152
 4480SOL    HW123909   9.122   0.050   1.226
 4480SOL    HW223910   9.259   0.118   1.168
 4481SOL     OW23911   1.868   2.213   2.641
 4481SOL    HW123912   1.847   2.155   2.719
 4481SOL    HW223913   1.847   2.164   2.556
 4482SOL     OW23914   1.883   6.220   1.420
 4482SOL    HW123915   1.927   6.297   1.466
 4482SOL    HW223916   1.864   6.148   1.487
 4483SOL     OW23917   4.690   8.154   1.675
 4483SOL    HW123918   4.669   8.252   1.681
 4483SOL    HW223919   4.782   8.142   1.637
 4484SOL     OW23920   4.537   8.972   2.458
 4484SOL    HW123921   4.570   9.023   2.379
 4484SOL    HW223922   4.450   9.010   2.489
 4485SOL     OW23923   1.305   2.860   1.739
 4485SOL    HW123924   1.286   2.958   1.744
 4485SOL    HW223925   1.229   2.814   1.695
 4486SOL     OW23926   2.445   4.667   3.094
 4486SOL    HW123927   2.531   4.685   3.142
 4486SOL    HW223928   2.388   4.749   3.096
 4487SOL     OW23929   3.106   1.496   0.258
 4487SOL    HW123930   3.053   1.438   0.197
 4487SOL    HW223931   3.053   1.516   0.340
 4488SOL     OW23932   9.634   3.285   1.796
 4488SOL    HW123933   9.540   3.307   1.769
 4488SOL    HW223934   9.676   3.365   1.838
 4489SOL     OW23935   0.261   1.599   1.820
 4489SOL    HW123936   0.329   1.625   1.889
 4489SOL    HW223937   0.169   1.605   1.860
 4490SOL     OW23938   7.651   1.579   3.381
 4490SOL    HW123939   7.554   1.562   3.401
 4490SOL    HW223940   7.697   1.492   3.362
 4491SOL     OW23941   9.793   8.327   1.529
 4491SOL    HW123942   9.719   8.359   1.588
 4491SOL    HW223943   9.796   8.227   1.530
 4492SOL     OW23944   0.189   2.130   0.224
 4492SOL    HW123945   0.221   2.219   0.192
 4492SOL    HW223946   0.262   2.083   0.273
 4493SOL     OW23947   5.068   8.945   3.209
 4493SOL    HW123948   5.078   8.949   3.308
 4493SOL    HW223949   5.134   8.879   3.172
 4494SOL     OW23950   9.745   0.863   0.265
 4494SOL    HW123951   9.775   0.947   0.311
 4494SOL    HW223952   9.821   0.826   0.211
 4495SOL     OW23953   5.964   9.755   3.348
 4495SOL    HW123954   5.972   9.769   3.447
 4495SOL    HW223955   5.885   9.806   3.313
 4496SOL     OW23956   4.103   2.412   1.962
 4496SOL    HW123957   4.111   2.478   1.887
 4496SOL    HW223958   4.141   2.451   2.046
 4497SOL     OW23959   2.259   3.957   3.611
 4497SOL    HW123960   2.353   3.979   3.583
 4497SOL    HW223961   2.250   3.859   3.624
 4498SOL     OW23962   1.550   9.000   3.283
 4498SOL    HW123963   1.483   8.927   3.279
 4498SOL    HW223964   1.590   9.015   3.192
 4499SOL     OW23965   1.724   5.602   0.466
 4499SOL    HW123966   1.678   5.642   0.545
 4499SOL    HW223967   1.708   5.503   0.465
 4500SOL     OW23968   9.526   0.451   1.511
 4500SOL    HW123969   9.449   0.387   1.502
 4500SOL    HW223970   9.511   0.511   1.590
 4501SOL     OW23971   8.071   5.213   2.550
 4501SOL    HW123972   8.151   5.273   2.558
 4501SOL    HW223973   7.988   5.265   2.571
 4502SOL     OW23974   9.885   3.825   0.633
 4502SOL    HW123975   9.893   3.924   0.618
 4502SOL    HW223976   9.976   3.788   0.655
 4503SOL     OW23977   0.034   6.000   3.471
 4503SOL    HW123978   0.028   6.058   3.390
 4503SOL    HW223979   0.089   5.919   3.451
 4504SOL     OW23980   1.171   9.400   1.974
 4504SOL    HW123981   1.089   9.441   2.015
 4504SOL    HW223982   1.171   9.419   1.875
 4505SOL     OW23983   0.581   6.385   0.637
 4505SOL    HW123984   0.675   6.351   0.627
 4505SOL    HW223985   0.560   6.448   0.563
 4506SOL     OW23986   3.617   0.338   0.504
 4506SOL    HW123987   3.596   0.427   0.465
 4506SOL    HW223988   3.651   0.350   0.598
 4507SOL     OW23989   5.106   2.718   0.898
 4507SOL    HW123990   5.060   2.659   0.832
 4507SOL    HW223991   5.168   2.780   0.851
 4508SOL     OW23992   6.372   8.228   1.695
 4508SOL    HW123993   6.430   8.150   1.719
 4508SOL    HW223994   6.398   8.307   1.751
 4509SOL     OW23995   3.382   6.029   1.851
 4509SOL    HW123996   3.378   6.065   1.758
 4509SOL    HW223997   3.315   5.956   1.862
 4510SOL     OW23998   9.586   5.409   3.698
 4510SOL    HW123999   9.572   5.372   3.790
 4510SOL    HW224000   9.498   5.413   3.650
 4511SOL     OW24001   3.971   3.882   0.798
 4511SOL    HW124002   4.066   3.875   0.767
 4511SOL    HW224003   3.969   3.874   0.898
 4512SOL     OW24004   9.536   7.991   1.568
 4512SOL    HW124005   9.535   7.939   1.653
 4512SOL    HW224006   9.628   8.026   1.551
 4513SOL     OW24007   3.528   9.567   3.309
 4513SOL    HW124008   3.514   9.521   3.221
 4513SOL    HW224009   3.607   9.525   3.355
 4514SOL     OW24010   6.671   8.752   2.886
 4514SOL    HW124011   6.758   8.703   2.878
 4514SOL    HW224012   6.679   8.841   2.840
 4515SOL     OW24013   3.917   4.843   0.785
 4515SOL    HW124014   3.986   4.819   0.854
 4515SOL    HW224015   3.952   4.818   0.695
 4516SOL     OW24016   4.534   2.346   0.285
 4516SOL    HW124017   4.506   2.250   0.287
 4516SOL    HW224018   4.630   2.354   0.310
 4517SOL     OW24019   7.873   5.873   2.876
 4517SOL    HW124020   7.812   5.851   2.952
 4517SOL    HW224021   7.850   5.963   2.840
 4518SOL     OW24022   1.824   0.272   1.298
 4518SOL    HW124023   1.788   0.192   1.346
 4518SOL    HW224024   1.916   0.292   1.331
 4519SOL     OW24025   4.063   8.935   1.371
 4519SOL    HW124026   4.019   8.997   1.306
 4519SOL    HW224027   4.038   8.961   1.464
 4520SOL     OW24028   3.511   3.187   0.112
 4520SOL    HW124029   3.526   3.167   0.015
 4520SOL    HW224030   3.532   3.284   0.130
 4521SOL     OW24031   4.195   3.054   3.624
 4521SOL    HW124032   4.278   3.043   3.679
 4521SOL    HW224033   4.115   3.026   3.677
 4522SOL     OW24034   3.327   7.735   2.521
 4522SOL    HW124035   3.248   7.677   2.539
 4522SOL    HW224036   3.377   7.700   2.442
 4523SOL     OW24037   7.292   0.173   0.807
 4523SOL    HW124038   7.304   0.203   0.902
 4523SOL    HW224039   7.340   0.235   0.745
 4524SOL     OW24040   3.973   1.383   3.551
 4524SOL    HW124041   4.052   1.374   3.611
 4524SOL    HW224042   3.993   1.342   3.462
 4525SOL     OW24043   0.624   6.844   2.681
 4525SOL    HW124044   0.712   6.871   2.721
 4525SOL    HW224045   0.596   6.756   2.719
 4526SOL     OW24046   7.453   8.549   1.302
 4526SOL    HW124047   7.458   8.606   1.220
 4526SOL    HW224048   7.483   8.456   1.280
 4527SOL     OW24049   8.079   4.474   3.327
 4527SOL    HW124050   8.174   4.480   3.296
 4527SOL    HW224051   8.020   4.519   3.260
 4528SOL     OW24052   1.002   2.737   2.218
 4528SOL    HW124053   1.061   2.668   2.261
 4528SOL    HW224054   1.059   2.812   2.182
 4529SOL     OW24055   0.447   1.581   1.619
 4529SOL    HW124056   0.376   1.599   1.687
 4529SOL    HW224057   0.502   1.503   1.647
 4530SOL     OW24058   2.604   6.214   3.521
 4530SOL    HW124059   2.585   6.118   3.500
 4530SOL    HW224060   2.519   6.267   3.519
 4531SOL     OW24061   8.062   9.881   0.532
 4531SOL    HW124062   7.999   9.808   0.559
 4531SOL    HW224063   8.026   9.969   0.564
 4532SOL     OW24064   1.782   6.621   1.451
 4532SOL    HW124065   1.722   6.692   1.486
 4532SOL    HW224066   1.760   6.602   1.355
 4533SOL     OW24067   9.107   2.042   0.351
 4533SOL    HW124068   9.048   2.113   0.389
 4533SOL    HW224069   9.174   2.014   0.420
 4534SOL     OW24070   0.488   1.175   0.935
 4534SOL    HW124071   0.545   1.257   0.938
 4534SOL    HW224072   0.516   1.112   1.008
 4535SOL     OW24073   9.179   8.455   0.750
 4535SOL    HW124074   9.209   8.530   0.808
 4535SOL    HW224075   9.257   8.397   0.726
 4536SOL     OW24076   0.994   2.273   1.181
 4536SOL    HW124077   0.900   2.258   1.212
 4536SOL    HW224078   1.009   2.371   1.165
 4537SOL     OW24079   2.126   7.521   3.576
 4537SOL    HW124080   2.201   7.543   3.513
 4537SOL    HW224081   2.088   7.606   3.613
 4538SOL     OW24082   8.408   0.403   2.306
 4538SOL    HW124083   8.342   0.388   2.380
 4538SOL    HW224084   8.425   0.317   2.258
 4539SOL     OW24085   7.580   9.461   0.369
 4539SOL    HW124086   7.619   9.540   0.416
 4539SOL    HW224087   7.496   9.489   0.322
 4540SOL     OW24088   0.310   7.741   0.647
 4540SOL    HW124089   0.289   7.649   0.614
 4540SOL    HW224090   0.320   7.739   0.747
 4541SOL     OW24091   3.919   8.055   0.618
 4541SOL    HW124092   3.999   8.016   0.663
 4541SOL    HW224093   3.944   8.141   0.573
 4542SOL     OW24094   7.771   9.460   1.423
 4542SOL    HW124095   7.808   9.452   1.330
 4542SOL    HW224096   7.787   9.552   1.458
 4543SOL     OW24097   1.742   9.650   0.639
 4543SOL    HW124098   1.823   9.665   0.695
 4543SOL    HW224099   1.727   9.551   0.627
 4544SOL     OW24100   3.533   6.707   2.462
 4544SOL    HW124101   3.558   6.637   2.395
 4544SOL    HW224102   3.595   6.785   2.453
 4545SOL     OW24103   0.464   7.409   0.721
 4545SOL    HW124104   0.498   7.324   0.762
 4545SOL    HW224105   0.540   7.460   0.682
 4546SOL     OW24106   3.295   0.874   1.427
 4546SOL    HW124107   3.267   0.849   1.334
 4546SOL    HW224108   3.389   0.845   1.443
 4547SOL     OW24109   4.946   5.295   1.544
 4547SOL    HW124110   4.966   5.271   1.449
 4547SOL    HW224111   4.869   5.241   1.576
 4548SOL     OW24112   9.517   0.759   3.625
 4548SOL    HW124113   9.439   0.722   3.676
 4548SOL    HW224114   9.486   0.828   3.561
 4549SOL     OW24115   3.939   9.707   2.379
 4549SOL    HW124116   3.940   9.690   2.281
 4549SOL    HW224117   4.016   9.766   2.404
 4550SOL     OW24118   8.121   8.305   2.298
 4550SOL    HW124119   8.138   8.355   2.213
 4550SOL    HW224120   8.161   8.354   2.375
 4551SOL     OW24121   0.133   7.778   1.838
 4551SOL    HW124122   0.115   7.823   1.926
 4551SOL    HW224123   0.221   7.730   1.843
 4552SOL     OW24124   7.718   0.611   0.875
 4552SOL    HW124125   7.789   0.566   0.928
 4552SOL    HW224126   7.651   0.653   0.937
 4553SOL     OW24127   1.580   3.622   2.065
 4553SOL    HW124128   1.534   3.537   2.092
 4553SOL    HW224129   1.517   3.699   2.077
 4554SOL     OW24130   4.810   4.185   0.830
 4554SOL    HW124131   4.778   4.274   0.862
 4554SOL    HW224132   4.749   4.152   0.758
 4555SOL     OW24133   5.978   6.776   2.489
 4555SOL    HW124134   6.005   6.784   2.393
 4555SOL    HW224135   6.014   6.690   2.526
 4556SOL     OW24136   2.444   2.600   0.415
 4556SOL    HW124137   2.376   2.645   0.473
 4556SOL    HW224138   2.450   2.503   0.440
 4557SOL     OW24139   1.914   0.131   0.667
 4557SOL    HW124140   1.852   0.053   0.671
 4557SOL    HW224141   1.881   0.204   0.727
 4558SOL     OW24142   1.022   1.514   1.667
 4558SOL    HW124143   0.931   1.555   1.676
 4558SOL    HW224144   1.013   1.416   1.651
 4559SOL     OW24145   1.381   2.939   1.112
 4559SOL    HW124146   1.459   2.891   1.073
 4559SOL    HW224147   1.402   3.037   1.118
 4560SOL     OW24148   9.629   0.350   0.943
 4560SOL    HW124149   9.693   0.278   0.914
 4560SOL    HW224150   9.536   0.321   0.923
 4561SOL     OW24151   2.206   9.367   2.765
 4561SOL    HW124152   2.245   9.275   2.773
 4561SOL    HW224153   2.179   9.384   2.671
 4562SOL     OW24154   9.595   8.892   3.672
 4562SOL    HW124155   9.508   8.933   3.699
 4562SOL    HW224156   9.669   8.958   3.685
 4563SOL     OW24157   8.315   7.645   2.866
 4563SOL    HW124158   8.247   7.655   2.939
 4563SOL    HW224159   8.300   7.558   2.819
 4564SOL     OW24160   4.105   7.457   2.682
 4564SOL    HW124161   4.019   7.418   2.717
 4564SOL    HW224162   4.130   7.536   2.738
 4565SOL     OW24163   2.712   2.127   3.552
 4565SOL    HW124164   2.715   2.207   3.612
 4565SOL    HW224165   2.770   2.144   3.472
 4566SOL     OW24166   0.481   1.108   2.158
 4566SOL    HW124167   0.441   1.016   2.167
 4566SOL    HW224168   0.525   1.133   2.244
 4567SOL     OW24169   7.920   9.483   2.991
 4567SOL    HW124170   7.955   9.391   2.970
 4567SOL    HW224171   7.973   9.523   3.065
 4568SOL     OW24172   5.421   0.066   3.630
 4568SOL    HW124173   5.427   0.163   3.608
 4568SOL    HW224174   5.424   0.053   3.729
 4569SOL     OW24175   7.038   7.106   3.034
 4569SOL    HW124176   6.945   7.077   3.053
 4569SOL    HW224177   7.039   7.170   2.957
 4570SOL     OW24178   6.684   0.225   3.549
 4570SOL    HW124179   6.726   0.135   3.556
 4570SOL    HW224180   6.594   0.223   3.593
 4571SOL     OW24181   5.229   6.967   2.629
 4571SOL    HW124182   5.240   7.062   2.600
 4571SOL    HW224183   5.295   6.946   2.702
 4572SOL     OW24184   1.709   0.199   2.950
 4572SOL    HW124185   1.779   0.252   2.901
 4572SOL    HW224186   1.751   0.149   3.025
 4573SOL     OW24187   9.069   6.731   2.519
 4573SOL    HW124188   9.123   6.815   2.523
 4573SOL    HW224189   9.109   6.662   2.579
 4574SOL     OW24190   3.597   4.299   3.449
 4574SOL    HW124191   3.555   4.346   3.371
 4574SOL    HW224192   3.614   4.364   3.523
 4575SOL     OW24193   5.837   8.352   3.515
 4575SOL    HW124194   5.802   8.303   3.435
 4575SOL    HW224195   5.772   8.422   3.542
 4576SOL     OW24196   6.125   9.617   1.746
 4576SOL    HW124197   6.201   9.604   1.683
 4576SOL    HW224198   6.138   9.559   1.826
 4577SOL     OW24199   0.898   7.731   2.816
 4577SOL    HW124200   0.915   7.822   2.778
 4577SOL    HW224201   0.809   7.731   2.863
 4578SOL     OW24202   2.268   4.806   1.727
 4578SOL    HW124203   2.204   4.730   1.728
 4578SOL    HW224204   2.276   4.841   1.633
 4579SOL     OW24205   7.458   6.050   2.810
 4579SOL    HW124206   7.490   6.127   2.865
 4579SOL    HW224207   7.422   5.979   2.870
 4580SOL     OW24208   7.073   0.110   0.468
 4580SOL    HW124209   7.079   0.076   0.374
 4580SOL    HW224210   7.151   0.170   0.487
 4581SOL     OW24211   2.008   5.188   0.709
 4581SOL    HW124212   1.930   5.162   0.767
 4581SOL    HW224213   2.092   5.187   0.764
 4582SOL     OW24214   0.690   6.679   2.995
 4582SOL    HW124215   0.625   6.701   3.067
 4582SOL    HW224216   0.780   6.664   3.035
 4583SOL     OW24217   3.542   4.298   2.244
 4583SOL    HW124218   3.526   4.201   2.226
 4583SOL    HW224219   3.461   4.337   2.288
 4584SOL     OW24220   4.497   7.023   2.269
 4584SOL    HW124221   4.488   7.083   2.348
 4584SOL    HW224222   4.416   6.966   2.261
 4585SOL     OW24223   9.447   8.463   2.175
 4585SOL    HW124224   9.402   8.544   2.137
 4585SOL    HW224225   9.497   8.489   2.258
 4586SOL     OW24226   2.352   0.078   3.588
 4586SOL    HW124227   2.321   0.137   3.514
 4586SOL    HW224228   2.357   9.983   3.555
 4587SOL     OW24229   2.220   3.409   0.633
 4587SOL    HW124230   2.260   3.436   0.545
 4587SOL    HW224231   2.252   3.471   0.705
 4588SOL     OW24232   1.343   3.638   1.804
 4588SOL    HW124233   1.301   3.694   1.732
 4588SOL    HW224234   1.440   3.661   1.811
 4589SOL     OW24235   3.150   6.042   2.711
 4589SOL    HW124236   3.101   6.128   2.723
 4589SOL    HW224237   3.104   5.970   2.764
 4590SOL     OW24238   1.633   4.193   3.666
 4590SOL    HW124239   1.715   4.230   3.621
 4590SOL    HW224240   1.627   4.229   3.759
 4591SOL     OW24241   3.917   2.315   1.276
 4591SOL    HW124242   3.930   2.218   1.256
 4591SOL    HW224243   3.820   2.338   1.270
 4592SOL     OW24244   8.157   7.312   1.371
 4592SOL    HW124245   8.075   7.278   1.418
 4592SOL    HW224246   8.161   7.412   1.377
 4593SOL     OW24247   9.263   5.223   1.960
 4593SOL    HW124248   9.225   5.230   2.053
 4593SOL    HW224249   9.344   5.164   1.962
 4594SOL     OW24250   3.166   1.122   2.143
 4594SOL    HW124251   3.216   1.133   2.229
 4594SOL    HW224252   3.078   1.169   2.150
 4595SOL     OW24253   2.269   1.600   1.917
 4595SOL    HW124254   2.248   1.683   1.969
 4595SOL    HW224255   2.267   1.521   1.977
 4596SOL     OW24256   3.794   4.281   2.765
 4596SOL    HW124257   3.702   4.244   2.749
 4596SOL    HW224258   3.790   4.380   2.768
 4597SOL     OW24259   1.069   3.329   2.110
 4597SOL    HW124260   1.119   3.403   2.064
 4597SOL    HW224261   1.041   3.360   2.201
 4598SOL     OW24262   8.363   1.623   1.356
 4598SOL    HW124263   8.346   1.711   1.311
 4598SOL    HW224264   8.458   1.596   1.340
 4599SOL     OW24265   9.611   5.648   2.494
 4599SOL    HW124266   9.594   5.744   2.514
 4599SOL    HW224267   9.533   5.593   2.523
 4600SOL     OW24268   4.377   7.902   1.990
 4600SOL    HW124269   4.418   7.993   1.991
 4600SOL    HW224270   4.285   7.906   2.029
 4601SOL     OW24271   1.917   7.405   0.826
 4601SOL    HW124272   1.843   7.369   0.882
 4601SOL    HW224273   1.912   7.366   0.735
 4602SOL     OW24274   1.129   9.518   0.590
 4602SOL    HW124275   1.169   9.453   0.527
 4602SOL    HW224276   1.195   9.541   0.661
 4603SOL     OW24277   8.367   6.477   2.451
 4603SOL    HW124278   8.406   6.569   2.462
 4603SOL    HW224279   8.348   6.438   2.541
 4604SOL     OW24280   2.374   2.501   3.559
 4604SOL    HW124281   2.393   2.596   3.585
 4604SOL    HW224282   2.278   2.492   3.535
 4605SOL     OW24283   8.982   6.512   1.519
 4605SOL    HW124284   8.906   6.513   1.584
 4605SOL    HW224285   9.049   6.444   1.546
 4606SOL     OW24286   0.305   0.125   0.613
 4606SOL    HW124287   0.312   0.115   0.514
 4606SOL    HW224288   0.356   0.052   0.658
 4607SOL     OW24289   3.263   6.893   1.343
 4607SOL    HW124290   3.249   6.972   1.283
 4607SOL    HW224291   3.231   6.810   1.297
 4608SOL     OW24292   5.720   8.683   2.748
 4608SOL    HW124293   5.661   8.628   2.808
 4608SOL    HW224294   5.769   8.622   2.685
 4609SOL     OW24295   1.965   5.299   2.006
 4609SOL    HW124296   1.879   5.342   1.980
 4609SOL    HW224297   1.947   5.208   2.043
 4610SOL     OW24298   6.920   8.556   1.848
 4610SOL    HW124299   6.856   8.614   1.797
 4610SOL    HW224300   6.991   8.522   1.787
 4611SOL     OW24301   0.733   8.328   3.116
 4611SOL    HW124302   0.814   8.385   3.125
 4611SOL    HW224303   0.760   8.232   3.109
 4612SOL     OW24304   8.147   6.435   3.291
 4612SOL    HW124305   8.233   6.384   3.288
 4612SOL    HW224306   8.150   6.509   3.223
 4613SOL     OW24307   0.581   5.431   1.444
 4613SOL    HW124308   0.530   5.495   1.502
 4613SOL    HW224309   0.674   5.421   1.480
 4614SOL     OW24310   6.192   7.104   2.977
 4614SOL    HW124311   6.260   7.170   3.010
 4614SOL    HW224312   6.133   7.076   3.052
 4615SOL     OW24313   6.449   9.601   3.242
 4615SOL    HW124314   6.377   9.663   3.272
 4615SOL    HW224315   6.444   9.590   3.143
 4616SOL     OW24316   4.692   2.468   2.397
 4616SOL    HW124317   4.672   2.551   2.344
 4616SOL    HW224318   4.666   2.387   2.344
 4617SOL     OW24319   0.047   2.698   2.303
 4617SOL    HW124320   0.095   2.676   2.219
 4617SOL    HW224321   0.032   2.614   2.356
 4618SOL     OW24322   3.413   8.488   0.359
 4618SOL    HW124323   3.352   8.538   0.420
 4618SOL    HW224324   3.487   8.548   0.329
 4619SOL     OW24325   9.238   4.991   0.275
 4619SOL    HW124326   9.278   4.945   0.355
 4619SOL    HW224327   9.202   4.923   0.212
 4620SOL     OW24328   9.122   3.491   1.433
 4620SOL    HW124329   9.189   3.462   1.366
 4620SOL    HW224330   9.169   3.528   1.514
 4621SOL     OW24331   3.750   1.380   2.922
 4621SOL    HW124332   3.775   1.361   3.017
 4621SOL    HW224333   3.664   1.431   2.920
 4622SOL     OW24334   3.266   8.823   3.267
 4622SOL    HW124335   3.340   8.795   3.329
 4622SOL    HW224336   3.185   8.768   3.286
 4623SOL     OW24337   2.335   3.863   1.253
 4623SOL    HW124338   2.434   3.882   1.252
 4623SOL    HW224339   2.296   3.896   1.338
 4624SOL     OW24340   3.186   8.696   1.716
 4624SOL    HW124341   3.189   8.716   1.618
 4624SOL    HW224342   3.135   8.768   1.763
 4625SOL     OW24343   7.851   7.895   3.666
 4625SOL    HW124344   7.759   7.930   3.647
 4625SOL    HW224345   7.917   7.970   3.659
 4626SOL     OW24346   2.947   6.480   1.745
 4626SOL    HW124347   3.004   6.420   1.801
 4626SOL    HW224348   2.922   6.562   1.798
 4627SOL     OW24349   6.963   9.750   3.300
 4627SOL    HW124350   6.864   9.737   3.305
 4627SOL    HW224351   7.005   9.665   3.267
 4628SOL     OW24352   2.613   2.984   2.802
 4628SOL    HW124353   2.654   3.032   2.725
 4628SOL    HW224354   2.668   2.904   2.824
 4629SOL     OW24355   4.175   9.525   0.545
 4629SOL    HW124356   4.191   9.448   0.607
 4629SOL    HW224357   4.161   9.491   0.452
 4630SOL     OW24358   2.182   0.071   0.762
 4630SOL    HW124359   2.156   0.038   0.853
 4630SOL    HW224360   2.100   0.102   0.714
 4631SOL     OW24361   0.682   7.409   2.233
 4631SOL    HW124362   0.619   7.331   2.244
 4631SOL    HW224363   0.776   7.377   2.238
 4632SOL     OW24364   3.310   8.303   3.046
 4632SOL    HW124365   3.290   8.391   3.002
 4632SOL    HW224366   3.295   8.311   3.144
 4633SOL     OW24367   3.364   9.424   2.393
 4633SOL    HW124368   3.400   9.457   2.305
 4633SOL    HW224369   3.397   9.332   2.410
 4634SOL     OW24370   2.245   7.227   3.336
 4634SOL    HW124371   2.322   7.267   3.385
 4634SOL    HW224372   2.160   7.273   3.364
 4635SOL     OW24373   9.930   0.707   0.123
 4635SOL    HW124374   9.915   0.623   0.175
 4635SOL    HW224375   9.923   0.688   0.025
 4636SOL     OW24376   9.463   3.036   3.386
 4636SOL    HW124377   9.531   3.093   3.432
 4636SOL    HW224378   9.403   2.994   3.454
 4637SOL     OW24379   0.762   7.220   1.959
 4637SOL    HW124380   0.858   7.243   1.971
 4637SOL    HW224381   0.707   7.268   2.028
 4638SOL     OW24382   4.935   4.981   1.753
 4638SOL    HW124383   4.980   4.999   1.841
 4638SOL    HW224384   5.000   4.941   1.689
 4639SOL     OW24385   0.976   6.987   0.701
 4639SOL    HW124386   1.036   6.908   0.713
 4639SOL    HW224387   0.995   7.031   0.613
 4640SOL     OW24388   0.622   3.740   2.861
 4640SOL    HW124389   0.682   3.697   2.793
 4640SOL    HW224390   0.665   3.736   2.951
 4641SOL     OW24391   3.771   7.571   0.600
 4641SOL    HW124392   3.804   7.649   0.653
 4641SOL    HW224393   3.672   7.564   0.609
 4642SOL     OW24394   8.851   5.139   2.831
 4642SOL    HW124395   8.813   5.225   2.867
 4642SOL    HW224396   8.901   5.092   2.904
 4643SOL     OW24397   5.572   8.035   3.191
 4643SOL    HW124398   5.577   7.936   3.203
 4643SOL    HW224399   5.488   8.069   3.233
 4644SOL     OW24400   9.689   3.993   3.715
 4644SOL    HW124401   9.726   3.980   3.624
 4644SOL    HW224402   9.762   3.983   3.783
 4645SOL     OW24403   7.869   8.928   3.152
 4645SOL    HW124404   7.820   8.840   3.145
 4645SOL    HW224405   7.899   8.956   3.061
 4646SOL     OW24406   1.345   1.210   0.826
 4646SOL    HW124407   1.377   1.205   0.731
 4646SOL    HW224408   1.247   1.227   0.827
 4647SOL     OW24409   9.552   5.471   3.227
 4647SOL    HW124410   9.627   5.509   3.282
 4647SOL    HW224411   9.589   5.440   3.139
 4648SOL     OW24412   4.927   0.398   2.788
 4648SOL    HW124413   4.858   0.470   2.777
 4648SOL    HW224414   4.889   0.310   2.761
 4649SOL     OW24415   8.950   7.347   0.326
 4649SOL    HW124416   8.885   7.348   0.250
 4649SOL    HW224417   8.901   7.339   0.412
 4650SOL     OW24418   9.168   1.941   1.194
 4650SOL    HW124419   9.100   2.001   1.151
 4650SOL    HW224420   9.123   1.882   1.261
 4651SOL     OW24421   1.356   0.254   2.819
 4651SOL    HW124422   1.379   0.255   2.916
 4651SOL    HW224423   1.364   0.160   2.784
 4652SOL     OW24424   0.612   5.843   1.673
 4652SOL    HW124425   0.544   5.907   1.708
 4652SOL    HW224426   0.601   5.754   1.719
 4653SOL     OW24427   1.495   8.314   2.823
 4653SOL    HW124428   1.559   8.330   2.898
 4653SOL    HW224429   1.525   8.234   2.771
 4654SOL     OW24430   3.112   0.117   3.286
 4654SOL    HW124431   3.028   0.163   3.314
 4654SOL    HW224432   3.108   0.021   3.314
 4655SOL     OW24433   8.100   0.527   0.813
 4655SOL    HW124434   8.197   0.525   0.839
 4655SOL    HW224435   8.086   0.472   0.731
 4656SOL     OW24436   9.803   5.656   1.184
 4656SOL    HW124437   9.827   5.630   1.090
 4656SOL    HW224438   9.886   5.683   1.233
 4657SOL     OW24439   8.507   8.500   2.798
 4657SOL    HW124440   8.457   8.455   2.872
 4657SOL    HW224441   8.603   8.507   2.823
 4658SOL     OW24442   4.517   1.427   2.204
 4658SOL    HW124443   4.449   1.407   2.275
 4658SOL    HW224444   4.555   1.518   2.218
 4659SOL     OW24445   8.015   0.741   1.172
 4659SOL    HW124446   8.007   0.750   1.271
 4659SOL    HW224447   8.109   0.761   1.143
 4660SOL     OW24448   1.692   1.891   3.548
 4660SOL    HW124449   1.698   1.793   3.568
 4660SOL    HW224450   1.626   1.934   3.609
 4661SOL     OW24451   5.549   9.296   3.599
 4661SOL    HW124452   5.610   9.280   3.677
 4661SOL    HW224453   5.556   9.218   3.536
 4662SOL     OW24454   8.651   4.482   1.238
 4662SOL    HW124455   8.590   4.502   1.161
 4662SOL    HW224456   8.729   4.428   1.205
 4663SOL     OW24457   0.951   0.373   0.835
 4663SOL    HW124458   1.005   0.291   0.815
 4663SOL    HW224459   0.991   0.452   0.788
 4664SOL     OW24460   2.396   8.830   2.986
 4664SOL    HW124461   2.306   8.789   3.000
 4664SOL    HW224462   2.430   8.866   3.073
 4665SOL     OW24463   0.885   7.482   0.791
 4665SOL    HW124464   0.882   7.382   0.782
 4665SOL    HW224465   0.955   7.519   0.730
 4666SOL     OW24466   9.986   0.225   0.141
 4666SOL    HW124467  10.000   0.306   0.084
 4666SOL    HW224468   0.005   0.248   0.237
 4667SOL     OW24469   0.605   2.852   1.707
 4667SOL    HW124470   0.549   2.877   1.786
 4667SOL    HW224471   0.650   2.764   1.724
 4668SOL     OW24472   9.505   3.585   2.147
 4668SOL    HW124473   9.578   3.591   2.214
 4668SOL    HW224474   9.430   3.647   2.173
 4669SOL     OW24475   9.504   3.891   1.143
 4669SOL    HW124476   9.578   3.826   1.132
 4669SOL    HW224477   9.416   3.842   1.148
 4670SOL     OW24478   7.255   8.085   1.910
 4670SOL    HW124479   7.259   8.175   1.953
 4670SOL    HW224480   7.336   8.072   1.851
 4671SOL     OW24481   2.337   1.008   1.260
 4671SOL    HW124482   2.382   1.002   1.170
 4671SOL    HW224483   2.275   1.086   1.261
 4672SOL     OW24484   0.797   6.698   0.483
 4672SOL    HW124485   0.882   6.651   0.461
 4672SOL    HW224486   0.720   6.640   0.461
 4673SOL     OW24487   1.225   2.248   1.889
 4673SOL    HW124488   1.145   2.204   1.930
 4673SOL    HW224489   1.196   2.301   1.809
 4674SOL     OW24490   2.353   9.015   1.761
 4674SOL    HW124491   2.397   9.099   1.793
 4674SOL    HW224492   2.290   8.982   1.832
 4675SOL     OW24493   1.686   4.144   2.663
 4675SOL    HW124494   1.692   4.045   2.675
 4675SOL    HW224495   1.596   4.175   2.695
 4676SOL     OW24496   9.271   2.716   3.019
 4676SOL    HW124497   9.338   2.783   2.986
 4676SOL    HW224498   9.289   2.628   2.976
 4677SOL     OW24499   5.811   6.513   2.730
 4677SOL    HW124500   5.879   6.577   2.766
 4677SOL    HW224501   5.814   6.515   2.630
 4678SOL     OW24502   1.743   9.377   0.594
 4678SOL    HW124503   1.746   9.285   0.633
 4678SOL    HW224504   1.830   9.397   0.548
 4679SOL     OW24505   6.711   1.521   2.776
 4679SOL    HW124506   6.627   1.504   2.724
 4679SOL    HW224507   6.714   1.462   2.856
 4680SOL     OW24508   9.863   5.583   0.923
 4680SOL    HW124509   9.875   5.492   0.883
 4680SOL    HW224510   9.776   5.621   0.892
 4681SOL     OW24511   8.997   5.456   1.730
 4681SOL    HW124512   8.935   5.506   1.670
 4681SOL    HW224513   9.091   5.481   1.709
 4682SOL     OW24514   3.895   8.994   2.523
 4682SOL    HW124515   3.822   8.948   2.472
 4682SOL    HW224516   3.892   9.092   2.505
 4683SOL     OW24517   7.606   0.332   3.684
 4683SOL    HW124518   7.650   0.417   3.653
 4683SOL    HW224519   7.564   0.287   3.605
 4684SOL     OW24520   5.577   7.510   3.120
 4684SOL    HW124521   5.535   7.543   3.036
 4684SOL    HW224522   5.506   7.472   3.180
 4685SOL     OW24523   1.051   2.021   0.642
 4685SOL    HW124524   1.008   2.074   0.715
 4685SOL    HW224525   0.992   1.945   0.616
 4686SOL     OW24526   2.532   4.405   2.748
 4686SOL    HW124527   2.588   4.334   2.706
 4686SOL    HW224528   2.514   4.381   2.844
 4687SOL     OW24529   0.832   8.360   1.599
 4687SOL    HW124530   0.802   8.444   1.643
 4687SOL    HW224531   0.857   8.293   1.668
 4688SOL     OW24532   3.487   9.128   2.036
 4688SOL    HW124533   3.468   9.048   2.092
 4688SOL    HW224534   3.430   9.127   1.954
 4689SOL     OW24535   0.214   3.514   3.508
 4689SOL    HW124536   0.152   3.462   3.566
 4689SOL    HW224537   0.305   3.473   3.512
 4690SOL     OW24538   1.299   7.714   3.421
 4690SOL    HW124539   1.204   7.737   3.443
 4690SOL    HW224540   1.304   7.681   3.326
 4691SOL     OW24541   3.023   5.305   1.114
 4691SOL    HW124542   3.050   5.352   1.198
 4691SOL    HW224543   3.012   5.207   1.132
 4692SOL     OW24544   9.905   2.345   2.160
 4692SOL    HW124545   9.856   2.286   2.096
 4692SOL    HW224546   9.999   2.359   2.128
 4693SOL     OW24547   3.284   1.486   2.816
 4693SOL    HW124548   3.313   1.462   2.723
 4693SOL    HW224549   3.247   1.405   2.861
 4694SOL     OW24550   9.382   6.858   1.327
 4694SOL    HW124551   9.415   6.789   1.263
 4694SOL    HW224552   9.317   6.918   1.279
 4695SOL     OW24553   0.432   8.986   3.275
 4695SOL    HW124554   0.467   9.078   3.294
 4695SOL    HW224555   0.347   8.993   3.222
 4696SOL     OW24556   9.057   2.973   3.228
 4696SOL    HW124557   9.052   2.900   3.296
 4696SOL    HW224558   9.037   2.936   3.137
 4697SOL     OW24559   8.107   0.958   2.688
 4697SOL    HW124560   8.202   0.938   2.664
 4697SOL    HW224561   8.102   0.989   2.782
 4698SOL     OW24562   9.844   3.162   2.380
 4698SOL    HW124563   9.896   3.088   2.338
 4698SOL    HW224564   9.749   3.132   2.396
 4699SOL     OW24565   1.328   7.664   1.600
 4699SOL    HW124566   1.229   7.674   1.604
 4699SOL    HW224567   1.369   7.754   1.584
 4700SOL     OW24568   2.281   6.622   2.882
 4700SOL    HW124569   2.269   6.704   2.826
 4700SOL    HW224570   2.358   6.568   2.847
 4701SOL     OW24571   7.712   0.271   1.581
 4701SOL    HW124572   7.681   0.190   1.530
 4701SOL    HW224573   7.740   0.243   1.673
 4702SOL     OW24574   1.881   5.474   3.018
 4702SOL    HW124575   1.804   5.419   2.986
 4702SOL    HW224576   1.966   5.423   3.004
 4703SOL     OW24577   8.173   8.880   1.317
 4703SOL    HW124578   8.228   8.906   1.238
 4703SOL    HW224579   8.090   8.834   1.286
 4704SOL     OW24580   8.967   1.451   3.002
 4704SOL    HW124581   9.037   1.432   3.071
 4704SOL    HW224582   8.951   1.550   2.999
 4705SOL     OW24583   3.041   9.710   2.747
 4705SOL    HW124584   2.961   9.689   2.803
 4705SOL    HW224585   3.041   9.652   2.665
 4706SOL     OW24586   9.149   6.971   0.945
 4706SOL    HW124587   9.056   7.008   0.942
 4706SOL    HW224588   9.186   6.967   0.852
 4707SOL     OW24589   8.755   9.627   1.460
 4707SOL    HW124590   8.760   9.608   1.362
 4707SOL    HW224591   8.677   9.579   1.499
 4708SOL     OW24592   9.098   3.941   2.474
 4708SOL    HW124593   9.067   3.910   2.564
 4708SOL    HW224594   9.032   4.007   2.437
 4709SOL     OW24595   0.018   7.355   2.563
 4709SOL    HW124596   9.948   7.288   2.536
 4709SOL    HW224597   0.088   7.311   2.619
 4710SOL     OW24598   1.844   9.166   0.388
 4710SOL    HW124599   1.766   9.159   0.327
 4710SOL    HW224600   1.817   9.138   0.481
 4711SOL     OW24601   7.858   2.403   2.338
 4711SOL    HW124602   7.927   2.366   2.277
 4711SOL    HW224603   7.777   2.428   2.285
 4712SOL     OW24604   1.161   2.510   3.623
 4712SOL    HW124605   1.082   2.464   3.583
 4712SOL    HW224606   1.241   2.451   3.617
 4713SOL     OW24607   4.102   0.472   3.560
 4713SOL    HW124608   4.123   0.377   3.582
 4713SOL    HW224609   4.167   0.532   3.608
 4714SOL     OW24610   8.780   5.770   0.690
 4714SOL    HW124611   8.740   5.849   0.642
 4714SOL    HW224612   8.711   5.698   0.697
 4715SOL     OW24613   9.380   4.846   0.966
 4715SOL    HW124614   9.370   4.880   1.059
 4715SOL    HW224615   9.379   4.746   0.967
 4716SOL     OW24616   4.596   8.085   0.418
 4716SOL    HW124617   4.621   8.037   0.502
 4716SOL    HW224618   4.568   8.178   0.441
 4717SOL     OW24619   6.514   0.478   2.042
 4717SOL    HW124620   6.531   0.383   2.065
 4717SOL    HW224621   6.601   0.528   2.037
 4718SOL     OW24622   8.625   6.381   2.392
 4718SOL    HW124623   8.531   6.415   2.386
 4718SOL    HW224624   8.661   6.401   2.483
 4719SOL     OW24625   8.443   2.508   1.737
 4719SOL    HW124626   8.442   2.469   1.645
 4719SOL    HW224627   8.532   2.491   1.779
 4720SOL     OW24628   8.767   0.951   1.459
 4720SOL    HW124629   8.777   1.032   1.517
 4720SOL    HW224630   8.671   0.921   1.459
 4721SOL     OW24631   1.049   9.230   1.372
 4721SOL    HW124632   1.018   9.216   1.466
 4721SOL    HW224633   1.048   9.327   1.351
 4722SOL     OW24634   3.072   1.143   1.099
 4722SOL    HW124635   3.087   1.046   1.078
 4722SOL    HW224636   2.975   1.158   1.117
 4723SOL     OW24637   9.247   5.548   1.654
 4723SOL    HW124638   9.202   5.638   1.649
 4723SOL    HW224639   9.290   5.527   1.567
 4724SOL     OW24640   8.812   8.213   0.781
 4724SOL    HW124641   8.728   8.223   0.833
 4724SOL    HW224642   8.847   8.304   0.756
 4725SOL     OW24643   4.092   1.526   0.703
 4725SOL    HW124644   4.048   1.438   0.690
 4725SOL    HW224645   4.116   1.565   0.613
 4726SOL     OW24646   2.407   0.788   0.290
 4726SOL    HW124647   2.319   0.810   0.248
 4726SOL    HW224648   2.481   0.825   0.233
 4727SOL     OW24649   1.022   0.014   0.151
 4727SOL    HW124650   1.039   9.973   0.061
 4727SOL    HW224651   1.011   9.942   0.219
 4728SOL     OW24652   3.130   1.655   1.853
 4728SOL    HW124653   3.196   1.581   1.864
 4728SOL    HW224654   3.072   1.637   1.773
 4729SOL     OW24655   2.034   9.631   2.420
 4729SOL    HW124656   2.035   9.710   2.482
 4729SOL    HW224657   2.081   9.656   2.335
 4730SOL     OW24658   5.070   9.806   3.556
 4730SOL    HW124659   5.049   9.761   3.469
 4730SOL    HW224660   5.128   9.886   3.539
 4731SOL     OW24661   3.265   2.677   3.170
 4731SOL    HW124662   3.338   2.620   3.206
 4731SOL    HW224663   3.283   2.697   3.073
 4732SOL     OW24664   9.534   7.075   1.404
 4732SOL    HW124665   9.488   6.996   1.366
 4732SOL    HW224666   9.575   7.050   1.492
 4733SOL     OW24667   0.297   0.142   1.558
 4733SOL    HW124668   0.229   0.153   1.486
 4733SOL    HW224669   0.270   0.196   1.638
 4734SOL     OW24670   9.535   7.496   0.525
 4734SOL    HW124671   9.485   7.457   0.447
 4734SOL    HW224672   9.626   7.456   0.529
 4735SOL     OW24673   1.244   5.864   2.284
 4735SOL    HW124674   1.318   5.898   2.342
 4735SOL    HW224675   1.260   5.767   2.265
 4736SOL     OW24676   6.262   8.649   3.428
 4736SOL    HW124677   6.283   8.648   3.330
 4736SOL    HW224678   6.195   8.578   3.449
 4737SOL     OW24679   2.504   7.441   1.331
 4737SOL    HW124680   2.447   7.521   1.349
 4737SOL    HW224681   2.446   7.359   1.334
 4738SOL     OW24682   2.845   6.783   1.415
 4738SOL    HW124683   2.797   6.740   1.491
 4738SOL    HW224684   2.802   6.756   1.329
 4739SOL     OW24685   8.780   4.941   2.189
 4739SOL    HW124686   8.741   4.982   2.107
 4739SOL    HW224687   8.876   4.967   2.198
 4740SOL     OW24688   1.585   5.796   2.827
 4740SOL    HW124689   1.561   5.699   2.828
 4740SOL    HW224690   1.682   5.806   2.850
 4741SOL     OW24691   1.744   2.956   1.909
 4741SOL    HW124692   1.801   2.992   1.983
 4741SOL    HW224693   1.699   2.872   1.940
 4742SOL     OW24694   4.298   1.270   1.354
 4742SOL    HW124695   4.354   1.251   1.272
 4742SOL    HW224696   4.344   1.233   1.434
 4743SOL     OW24697   4.151   0.409   2.310
 4743SOL    HW124698   4.074   0.441   2.255
 4743SOL    HW224699   4.204   0.487   2.343
 4744SOL     OW24700   3.452   2.037   1.397
 4744SOL    HW124701   3.552   2.032   1.389
 4744SOL    HW224702   3.412   1.947   1.381
 4745SOL     OW24703   5.029   0.662   3.045
 4745SOL    HW124704   5.102   0.715   3.089
 4745SOL    HW224705   5.069   0.583   2.999
 4746SOL     OW24706   1.136   4.290   0.643
 4746SOL    HW124707   1.062   4.319   0.582
 4746SOL    HW224708   1.212   4.254   0.589
 4747SOL     OW24709   4.887   7.144   1.831
 4747SOL    HW124710   4.791   7.138   1.858
 4747SOL    HW224711   4.894   7.194   1.744
 4748SOL     OW24712   9.358   2.161   1.511
 4748SOL    HW124713   9.387   2.119   1.425
 4748SOL    HW224714   9.258   2.167   1.513
 4749SOL     OW24715   8.408   9.513   2.979
 4749SOL    HW124716   8.354   9.565   3.046
 4749SOL    HW224717   8.504   9.513   3.006
 4750SOL     OW24718   1.256   8.688   3.509
 4750SOL    HW124719   1.211   8.618   3.453
 4750SOL    HW224720   1.195   8.715   3.584
 4751SOL     OW24721   7.685   2.568   1.680
 4751SOL    HW124722   7.711   2.491   1.738
 4751SOL    HW224723   7.654   2.534   1.591
 4752SOL     OW24724   4.298   3.493   0.066
 4752SOL    HW124725   4.341   3.414   0.110
 4752SOL    HW224726   4.207   3.467   0.034
 4753SOL     OW24727   8.747   9.743   2.890
 4753SOL    HW124728   8.823   9.729   2.827
 4753SOL    HW224729   8.737   9.662   2.948
 4754SOL     OW24730   5.290   0.679   3.402
 4754SOL    HW124731   5.256   0.594   3.443
 4754SOL    HW224732   5.362   0.717   3.460
 4755SOL     OW24733   7.239   8.232   3.090
 4755SOL    HW124734   7.182   8.278   3.159
 4755SOL    HW224735   7.216   8.135   3.087
 4756SOL     OW24736   5.347   8.693   1.622
 4756SOL    HW124737   5.388   8.767   1.675
 4756SOL    HW224738   5.419   8.640   1.576
 4757SOL     OW24739   1.880   2.478   3.047
 4757SOL    HW124740   1.786   2.467   3.014
 4757SOL    HW224741   1.933   2.398   3.020
 4758SOL     OW24742   8.895   9.687   3.274
 4758SOL    HW124743   8.970   9.718   3.215
 4758SOL    HW224744   8.891   9.587   3.274
 4759SOL     OW24745   4.006   8.865   3.092
 4759SOL    HW124746   4.010   8.765   3.083
 4759SOL    HW224747   4.058   8.907   3.017
 4760SOL     OW24748   3.349   5.339   1.003
 4760SOL    HW124749   3.330   5.326   1.100
 4760SOL    HW224750   3.395   5.257   0.967
 4761SOL     OW24751   8.468   6.827   0.460
 4761SOL    HW124752   8.422   6.784   0.382
 4761SOL    HW224753   8.567   6.813   0.452
 4762SOL     OW24754   2.756   1.453   1.152
 4762SOL    HW124755   2.836   1.494   1.195
 4762SOL    HW224756   2.760   1.466   1.053
 4763SOL     OW24757   1.030   4.649   0.227
 4763SOL    HW124758   1.057   4.554   0.213
 4763SOL    HW224759   0.930   4.655   0.237
 4764SOL     OW24760   8.428   8.877   0.743
 4764SOL    HW124761   8.404   8.905   0.650
 4764SOL    HW224762   8.428   8.958   0.803
 4765SOL     OW24763   1.291   1.325   1.936
 4765SOL    HW124764   1.267   1.228   1.945
 4765SOL    HW224765   1.363   1.336   1.868
 4766SOL     OW24766   9.719   4.266   3.677
 4766SOL    HW124767   9.642   4.314   3.634
 4766SOL    HW224768   9.692   4.173   3.699
 4767SOL     OW24769   6.045   6.789   2.222
 4767SOL    HW124770   6.135   6.832   2.219
 4767SOL    HW224771   5.976   6.854   2.191
 4768SOL     OW24772   4.028   7.217   1.390
 4768SOL    HW124773   3.944   7.251   1.350
 4768SOL    HW224774   4.103   7.279   1.368
 4769SOL     OW24775   1.658   9.162   0.179
 4769SOL    HW124776   1.709   9.245   0.154
 4769SOL    HW224777   1.561   9.175   0.156
 4770SOL     OW24778   7.966   5.639   1.841
 4770SOL    HW124779   7.918   5.553   1.824
 4770SOL    HW224780   7.901   5.715   1.839
 4771SOL     OW24781   9.762   5.922   0.859
 4771SOL    HW124782   9.857   5.907   0.887
 4771SOL    HW224783   9.757   6.004   0.803
 4772SOL     OW24784   5.066   9.187   3.622
 4772SOL    HW124785   5.014   9.198   3.706
 4772SOL    HW224786   5.148   9.244   3.625
 4773SOL     OW24787   9.905   8.445   2.743
 4773SOL    HW124788   9.994   8.416   2.709
 4773SOL    HW224789   9.914   8.473   2.839
 4774SOL     OW24790   9.280   6.233   2.312
 4774SOL    HW124791   9.371   6.241   2.272
 4774SOL    HW224792   9.218   6.296   2.266
 4775SOL     OW24793   9.482   5.950   2.231
 4775SOL    HW124794   9.518   5.860   2.210
 4775SOL    HW224795   9.384   5.944   2.248
 4776SOL     OW24796   9.150   8.173   0.105
 4776SOL    HW124797   9.090   8.202   0.030
 4776SOL    HW224798   9.174   8.252   0.161
 4777SOL     OW24799   2.771   2.065   1.832
 4777SOL    HW124800   2.678   2.095   1.849
 4777SOL    HW224801   2.821   2.060   1.918
 4778SOL     OW24802   7.863   8.896   1.680
 4778SOL    HW124803   7.876   8.957   1.602
 4778SOL    HW224804   7.771   8.857   1.677
 4779SOL     OW24805   3.927   6.619   3.535
 4779SOL    HW124806   3.984   6.667   3.603
 4779SOL    HW224807   3.983   6.595   3.456
 4780SOL     OW24808   8.384   7.085   0.416
 4780SOL    HW124809   8.469   7.137   0.406
 4780SOL    HW224810   8.405   6.992   0.444
 4781SOL     OW24811   2.164   5.566   1.627
 4781SOL    HW124812   2.167   5.637   1.557
 4781SOL    HW224813   2.254   5.557   1.670
 4782SOL     OW24814   1.770   7.331   0.060
 4782SOL    HW124815   1.779   7.234   0.080
 4782SOL    HW224816   1.749   7.380   0.145
 4783SOL     OW24817   0.734   2.545   3.458
 4783SOL    HW124818   0.810   2.480   3.465
 4783SOL    HW224819   0.762   2.623   3.401
 4784SOL     OW24820   2.614   1.956   0.399
 4784SOL    HW124821   2.536   2.016   0.383
 4784SOL    HW224822   2.699   2.006   0.380
 4785SOL     OW24823   1.738   1.426   1.124
 4785SOL    HW124824   1.662   1.381   1.076
 4785SOL    HW224825   1.800   1.467   1.057
 4786SOL     OW24826   4.157   6.811   2.848
 4786SOL    HW124827   4.241   6.864   2.856
 4786SOL    HW224828   4.180   6.717   2.819
 4787SOL     OW24829   4.735   0.374   2.548
 4787SOL    HW124830   4.773   0.388   2.456
 4787SOL    HW224831   4.769   0.288   2.585
 4788SOL     OW24832   8.447   5.113   2.937
 4788SOL    HW124833   8.460   5.149   2.845
 4788SOL    HW224834   8.506   5.163   3.001
 4789SOL     OW24835   8.361   4.177   1.278
 4789SOL    HW124836   8.368   4.122   1.194
 4789SOL    HW224837   8.323   4.266   1.256
 4790SOL     OW24838   0.352   9.120   1.136
 4790SOL    HW124839   0.433   9.072   1.103
 4790SOL    HW224840   0.348   9.114   1.236
 4791SOL     OW24841   8.387   4.599   3.687
 4791SOL    HW124842   8.292   4.591   3.655
 4791SOL    HW224843   8.426   4.507   3.695
 4792SOL     OW24844   7.748   0.376   2.495
 4792SOL    HW124845   7.703   0.461   2.466
 4792SOL    HW224846   7.681   0.314   2.535
 4793SOL     OW24847   1.703   6.119   0.588
 4793SOL    HW124848   1.658   6.133   0.676
 4793SOL    HW224849   1.762   6.039   0.593
 4794SOL     OW24850   8.977   5.584   0.623
 4794SOL    HW124851   8.909   5.651   0.651
 4794SOL    HW224852   8.952   5.545   0.534
 4795SOL     OW24853   4.103   6.220   2.073
 4795SOL    HW124854   4.017   6.200   2.026
 4795SOL    HW224855   4.105   6.317   2.099
 4796SOL     OW24856   9.069   6.073   3.387
 4796SOL    HW124857   9.069   6.160   3.337
 4796SOL    HW224858   9.158   6.030   3.379
 4797SOL     OW24859   0.583   4.394   2.594
 4797SOL    HW124860   0.595   4.415   2.497
 4797SOL    HW224861   0.621   4.304   2.614
 4798SOL     OW24862   1.311   5.165   2.384
 4798SOL    HW124863   1.283   5.080   2.339
 4798SOL    HW224864   1.230   5.215   2.413
 4799SOL     OW24865   7.407   0.412   2.284
 4799SOL    HW124866   7.337   0.340   2.285
 4799SOL    HW224867   7.484   0.383   2.227
 4800SOL     OW24868   5.312   8.616   3.255
 4800SOL    HW124869   5.267   8.641   3.169
 4800SOL    HW224870   5.366   8.533   3.241
 4801SOL     OW24871   4.359   1.858   0.054
 4801SOL    HW124872   4.439   1.812   0.092
 4801SOL    HW224873   4.357   1.843   4.736
 4802SOL     OW24874   2.801   1.781   2.192
 4802SOL    HW124875   2.744   1.769   2.111
 4802SOL    HW224876   2.897   1.793   2.164
 4803SOL     OW24877   1.397   8.895   0.752
 4803SOL    HW124878   1.423   8.966   0.817
 4803SOL    HW224879   1.298   8.896   0.739
 4804SOL     OW24880   1.663   5.435   2.192
 4804SOL    HW124881   1.633   5.351   2.237
 4804SOL    HW224882   1.676   5.418   2.094
 4805SOL     OW24883   6.598   7.677   2.952
 4805SOL    HW124884   6.519   7.626   2.987
 4805SOL    HW224885   6.569   7.736   2.876
 4806SOL     OW24886   9.424   4.061   2.047
 4806SOL    HW124887   9.368   4.029   2.124
 4806SOL    HW224888   9.520   4.061   2.074
 4807SOL     OW24889   0.370   1.537   2.918
 4807SOL    HW124890   0.344   1.454   2.967
 4807SOL    HW224891   0.313   1.614   2.949
 4808SOL     OW24892   3.197   0.949   0.794
 4808SOL    HW124893   3.122   1.010   0.767
 4808SOL    HW224894   3.214   0.883   0.721
 4809SOL     OW24895   9.029   4.382   0.926
 4809SOL    HW124896   9.008   4.474   0.893
 4809SOL    HW224897   9.123   4.379   0.960
 4810SOL     OW24898   9.876   7.758   0.747
 4810SOL    HW124899   9.812   7.806   0.687
 4810SOL    HW224900   9.924   7.687   0.695
 4811SOL     OW24901   8.450   5.074   1.647
 4811SOL    HW124902   8.440   5.085   1.746
 4811SOL    HW224903   8.414   5.155   1.601
 4812SOL     OW24904   9.293   8.708   1.572
 4812SOL    HW124905   9.230   8.722   1.496
 4812SOL    HW224906   9.247   8.658   1.645
 4813SOL     OW24907   1.529   9.595   1.904
 4813SOL    HW124908   1.471   9.605   1.823
 4813SOL    HW224909   1.537   9.683   1.951
 4814SOL     OW24910   0.661   0.018   0.607
 4814SOL    HW124911   0.593   0.021   0.680
 4814SOL    HW224912   0.716   0.101   0.609
 4815SOL     OW24913   1.144   5.505   3.064
 4815SOL    HW124914   1.069   5.480   3.125
 4815SOL    HW224915   1.172   5.425   3.011
 4816SOL     OW24916   8.814   6.572   2.845
 4816SOL    HW124917   8.788   6.650   2.903
 4816SOL    HW224918   8.909   6.547   2.863
 4817SOL     OW24919   5.657   7.679   2.104
 4817SOL    HW124920   5.578   7.739   2.090
 4817SOL    HW224921   5.626   7.590   2.139
 4818SOL     OW24922   0.770   0.645   1.821
 4818SOL    HW124923   0.753   0.607   1.912
 4818SOL    HW224924   0.868   0.648   1.803
 4819SOL     OW24925   2.140   0.074   2.672
 4819SOL    HW124926   2.166   0.074   2.768
 4819SOL    HW224927   2.212   0.118   2.617
 4820SOL     OW24928   6.517   9.743   3.678
 4820SOL    HW124929   6.477   9.687   3.751
 4820SOL    HW224930   6.604   9.703   3.650
 4821SOL     OW24931   2.331   6.995   2.060
 4821SOL    HW124932   2.414   6.941   2.052
 4821SOL    HW224933   2.350   7.078   2.113
 4822SOL     OW24934   3.883   2.459   3.021
 4822SOL    HW124935   3.975   2.447   3.059
 4822SOL    HW224936   3.888   2.519   2.941
 4823SOL     OW24937   2.746   5.261   1.824
 4823SOL    HW124938   2.846   5.260   1.824
 4823SOL    HW224939   2.713   5.202   1.750
 4824SOL     OW24940   8.440   0.321   0.680
 4824SOL    HW124941   8.426   0.392   0.749
 4824SOL    HW224942   8.421   0.231   0.719
 4825SOL     OW24943   0.439   6.934   2.225
 4825SOL    HW124944   0.478   6.889   2.305
 4825SOL    HW224945   0.422   6.866   2.153
 4826SOL     OW24946   1.295   3.961   1.289
 4826SOL    HW124947   1.213   3.907   1.309
 4826SOL    HW224948   1.314   4.023   1.364
 4827SOL     OW24949   1.399   9.900   0.431
 4827SOL    HW124950   1.422   9.818   0.482
 4827SOL    HW224951   1.482   9.953   0.413
 4828SOL     OW24952   5.672   3.151   0.787
 4828SOL    HW124953   5.619   3.161   0.702
 4828SOL    HW224954   5.617   3.183   0.864
 4829SOL     OW24955   8.913   5.382   3.459
 4829SOL    HW124956   8.966   5.326   3.395
 4829SOL    HW224957   8.822   5.341   3.471
 4830SOL     OW24958   2.056   6.395   0.553
 4830SOL    HW124959   2.072   6.465   0.483
 4830SOL    HW224960   2.134   6.333   0.556
 4831SOL     OW24961   0.912   1.791   1.485
 4831SOL    HW124962   0.963   1.715   1.445
 4831SOL    HW224963   0.816   1.767   1.491
 4832SOL     OW24964   1.706   7.542   0.270
 4832SOL    HW124965   1.646   7.573   0.196
 4832SOL    HW224966   1.707   7.610   0.343
 4833SOL     OW24967   1.040   8.825   0.208
 4833SOL    HW124968   1.016   8.876   0.126
 4833SOL    HW224969   0.978   8.851   0.282
 4834SOL     OW24970   4.726   8.482   1.949
 4834SOL    HW124971   4.655   8.536   1.994
 4834SOL    HW224972   4.784   8.438   2.018
 4835SOL     OW24973   8.596   9.722   1.847
 4835SOL    HW124974   8.568   9.626   1.839
 4835SOL    HW224975   8.531   9.780   1.797
 4836SOL     OW24976   0.740   8.988   1.306
 4836SOL    HW124977   0.836   8.970   1.284
 4836SOL    HW224978   0.732   9.073   1.356
 4837SOL     OW24979   6.771   9.579   2.187
 4837SOL    HW124980   6.751   9.675   2.170
 4837SOL    HW224981   6.785   9.532   2.100
 4838SOL     OW24982   9.110   7.555   1.265
 4838SOL    HW124983   9.141   7.464   1.235
 4838SOL    HW224984   9.012   7.553   1.283
 4839SOL     OW24985   9.939   4.745   0.689
 4839SOL    HW124986   9.898   4.675   0.631
 4839SOL    HW224987   9.979   4.816   0.631
 4840SOL     OW24988   2.058   2.874   0.963
 4840SOL    HW124989   2.078   2.778   0.945
 4840SOL    HW224990   2.065   2.891   1.062
 4841SOL     OW24991   8.934   8.882   1.581
 4841SOL    HW124992   8.897   8.974   1.568
 4841SOL    HW224993   8.863   8.823   1.619
 4842SOL     OW24994   0.910   9.076   0.122
 4842SOL    HW124995   0.876   9.036   0.206
 4842SOL    HW224996   0.872   9.168   0.111
 4843SOL     OW24997   0.401   6.150   3.384
 4843SOL    HW124998   0.479   6.199   3.345
 4843SOL    HW224999   0.433   6.086   3.453
 4844SOL     OW25000   5.848   7.558   3.375
 4844SOL    HW125001   5.848   7.657   3.363
 4844SOL    HW225002   5.771   7.531   3.432
 4845SOL     OW25003   2.904   5.135   2.496
 4845SOL    HW125004   2.931   5.088   2.580
 4845SOL    HW225005   2.814   5.176   2.508
 4846SOL     OW25006   6.691   9.783   0.500
 4846SOL    HW125007   6.742   9.763   0.584
 4846SOL    HW225008   6.594   9.765   0.515
 4847SOL     OW25009   5.807   0.379   3.137
 4847SOL    HW125010   5.838   0.299   3.087
 4847SOL    HW225011   5.805   0.358   3.235
 4848SOL     OW25012   7.534   8.533   3.047
 4848SOL    HW125013   7.448   8.541   3.097
 4848SOL    HW225014   7.516   8.503   2.953
 4849SOL     OW25015   7.633   8.822   1.958
 4849SOL    HW125016   7.653   8.803   1.861
 4849SOL    HW225017   7.547   8.777   1.983
 4850SOL     OW25018   3.428   6.716   2.716
 4850SOL    HW125019   3.477   6.709   2.630
 4850SOL    HW225020   3.491   6.745   2.789
 4851SOL     OW25021   1.202   3.704   3.416
 4851SOL    HW125022   1.160   3.613   3.421
 4851SOL    HW225023   1.199   3.737   3.322
 4852SOL     OW25024   1.731   7.519   1.437
 4852SOL    HW125025   1.823   7.513   1.476
 4852SOL    HW225026   1.664   7.532   1.510
 4853SOL     OW25027   4.746   0.422   1.696
 4853SOL    HW125028   4.735   0.415   1.596
 4853SOL    HW225029   4.663   0.388   1.740
 4854SOL     OW25030   0.721   3.644   2.063
 4854SOL    HW125031   0.773   3.573   2.014
 4854SOL    HW225032   0.765   3.733   2.047
 4855SOL     OW25033   4.467   0.443   3.023
 4855SOL    HW125034   4.525   0.467   3.101
 4855SOL    HW225035   4.518   0.384   2.961
 4856SOL     OW25036   1.389   0.009   2.701
 4856SOL    HW125037   1.468   9.973   2.751
 4856SOL    HW225038   1.413   0.023   2.605
 4857SOL     OW25039   8.640   6.063   1.660
 4857SOL    HW125040   8.661   6.159   1.641
 4857SOL    HW225041   8.543   6.046   1.640
 4858SOL     OW25042   0.236   8.748   2.979
 4858SOL    HW125043   0.231   8.712   2.887
 4858SOL    HW225044   0.285   8.684   3.038
 4859SOL     OW25045   8.936   9.585   2.050
 4859SOL    HW125046   9.027   9.558   2.018
 4859SOL    HW225047   8.929   9.685   2.048
 4860SOL     OW25048   1.265   1.851   0.702
 4860SOL    HW125049   1.188   1.913   0.690
 4860SOL    HW225050   1.335   1.872   0.634
 4861SOL     OW25051   9.080   3.387   1.798
 4861SOL    HW125052   9.168   3.361   1.758
 4861SOL    HW225053   9.078   3.361   1.895
 4862SOL     OW25054   5.947   0.453   2.566
 4862SOL    HW125055   5.973   0.381   2.502
 4862SOL    HW225056   5.931   0.538   2.517
 4863SOL     OW25057   5.942   0.070   3.464
 4863SOL    HW125058   5.949   9.993   3.528
 4863SOL    HW225059   6.020   0.069   3.402
 4864SOL     OW25060   9.871   4.472   0.319
 4864SOL    HW125061   9.811   4.401   0.284
 4864SOL    HW225062   9.864   4.477   0.418
 4865SOL     OW25063   8.399   4.218   3.493
 4865SOL    HW125064   8.439   4.268   3.569
 4865SOL    HW225065   8.300   4.206   3.509
 4866SOL     OW25066   3.716   2.523   0.636
 4866SOL    HW125067   3.798   2.554   0.683
 4866SOL    HW225068   3.640   2.584   0.659
 4867SOL     OW25069   1.372   7.256   2.189
 4867SOL    HW125070   1.351   7.169   2.145
 4867SOL    HW225071   1.335   7.331   2.133
 4868SOL     OW25072   3.040   7.843   3.508
 4868SOL    HW125073   3.043   7.880   3.601
 4868SOL    HW225074   2.946   7.821   3.484
 4869SOL     OW25075   2.940   6.350   2.412
 4869SOL    HW125076   2.997   6.432   2.417
 4869SOL    HW225077   2.901   6.331   2.502
 4870SOL     OW25078   8.928   2.847   1.440
 4870SOL    HW125079   8.930   2.928   1.499
 4870SOL    HW225080   9.019   2.834   1.399
 4871SOL     OW25081   1.180   5.718   1.528
 4871SOL    HW125082   1.244   5.678   1.594
 4871SOL    HW225083   1.089   5.680   1.543
 4872SOL     OW25084   0.094   8.533   0.337
 4872SOL    HW125085   0.057   8.618   0.372
 4872SOL    HW225086   0.029   8.492   0.273
 4873SOL     OW25087   4.893   7.809   0.556
 4873SOL    HW125088   4.849   7.747   0.492
 4873SOL    HW225089   4.828   7.879   0.586
 4874SOL     OW25090   5.547   8.798   3.088
 4874SOL    HW125091   5.524   8.819   3.183
 4874SOL    HW225092   5.491   8.855   3.027
 4875SOL     OW25093   9.744   3.065   3.010
 4875SOL    HW125094   9.843   3.057   3.022
 4875SOL    HW225095   9.698   3.006   3.076
 4876SOL     OW25096   3.782   4.021   0.437
 4876SOL    HW125097   3.718   3.944   0.441
 4876SOL    HW225098   3.745   4.091   0.376
 4877SOL     OW25099   6.490   0.556   2.949
 4877SOL    HW125100   6.509   0.653   2.961
 4877SOL    HW225101   6.423   0.526   3.016
 4878SOL     OW25102   0.722   4.034   0.504
 4878SOL    HW125103   0.675   4.082   0.430
 4878SOL    HW225104   0.790   3.972   0.465
 4879SOL     OW25105   9.249   2.348   3.188
 4879SOL    HW125106   9.339   2.338   3.146
 4879SOL    HW225107   9.239   2.441   3.222
 4880SOL     OW25108   1.256   3.191   0.567
 4880SOL    HW125109   1.269   3.142   0.481
 4880SOL    HW225110   1.166   3.235   0.568
 4881SOL     OW25111   4.740   4.430   0.934
 4881SOL    HW125112   4.652   4.463   0.899
 4881SOL    HW225113   4.798   4.508   0.956
 4882SOL     OW25114   9.750   0.994   1.606
 4882SOL    HW125115   9.830   1.021   1.660
 4882SOL    HW225116   9.704   1.075   1.571
 4883SOL     OW25117   2.074   9.342   0.107
 4883SOL    HW125118   2.132   9.337   0.025
 4883SOL    HW225119   2.102   9.418   0.164
 4884SOL     OW25120   2.401   5.158   1.540
 4884SOL    HW125121   2.346   5.208   1.473
 4884SOL    HW225122   2.384   5.197   1.631
 4885SOL     OW25123   0.065   3.522   0.769
 4885SOL    HW125124   0.139   3.501   0.833
 4885SOL    HW225125   0.092   3.598   0.710
 4886SOL     OW25126   4.636   9.128   2.249
 4886SOL    HW125127   4.577   9.137   2.169
 4886SOL    HW225128   4.650   9.217   2.291
 4887SOL     OW25129   4.123   5.243   1.729
 4887SOL    HW125130   4.218   5.239   1.699
 4887SOL    HW225131   4.109   5.178   1.804
 4888SOL     OW25132   0.511   8.509   1.136
 4888SOL    HW125133   0.497   8.477   1.230
 4888SOL    HW225134   0.475   8.602   1.127
 4889SOL     OW25135   8.006   2.545   2.533
 4889SOL    HW125136   7.949   2.494   2.467
 4889SOL    HW225137   7.948   2.581   2.606
 4890SOL     OW25138   6.740   9.827   2.504
 4890SOL    HW125139   6.804   9.759   2.541
 4890SOL    HW225140   6.766   9.918   2.538
 4891SOL     OW25141   4.815   0.833   2.263
 4891SOL    HW125142   4.744   0.864   2.327
 4891SOL    HW225143   4.774   0.776   2.192
 4892SOL     OW25144   4.131   7.750   3.258
 4892SOL    HW125145   4.035   7.723   3.251
 4892SOL    HW225146   4.142   7.817   3.331
 4893SOL     OW25147   9.739   6.147   0.698
 4893SOL    HW125148   9.802   6.153   0.621
 4893SOL    HW225149   9.647   6.169   0.668
 4894SOL     OW25150   8.409   1.111   1.354
 4894SOL    HW125151   8.401   1.208   1.376
 4894SOL    HW225152   8.433   1.100   1.257
 4895SOL     OW25153   0.505   9.481   3.416
 4895SOL    HW125154   0.408   9.494   3.435
 4895SOL    HW225155   0.551   9.446   3.497
 4896SOL     OW25156   2.525   3.237   2.876
 4896SOL    HW125157   2.588   3.274   2.944
 4896SOL    HW225158   2.554   3.145   2.849
 4897SOL     OW25159   2.360   6.341   3.532
 4897SOL    HW125160   2.368   6.437   3.559
 4897SOL    HW225161   2.311   6.290   3.602
 4898SOL     OW25162   7.508   6.916   2.980
 4898SOL    HW125163   7.414   6.928   3.011
 4898SOL    HW225164   7.514   6.935   2.882
 4899SOL     OW25165   3.781   2.211   2.942
 4899SOL    HW125166   3.769   2.169   3.032
 4899SOL    HW225167   3.835   2.294   2.952
 4900SOL     OW25168   9.232   7.952   0.860
 4900SOL    HW125169   9.295   7.961   0.937
 4900SOL    HW225170   9.165   8.027   0.862
 4901SOL     OW25171   3.156   6.484   1.467
 4901SOL    HW125172   3.204   6.448   1.547
 4901SOL    HW225173   3.059   6.459   1.473
 4902SOL     OW25174   0.690   8.622   2.157
 4902SOL    HW125175   0.695   8.542   2.097
 4902SOL    HW225176   0.599   8.628   2.197
 4903SOL     OW25177   1.394   9.799   1.488
 4903SOL    HW125178   1.490   9.799   1.458
 4903SOL    HW225179   1.385   9.741   1.570
 4904SOL     OW25180   2.165   8.874   1.927
 4904SOL    HW125181   2.076   8.913   1.904
 4904SOL    HW225182   2.161   8.774   1.920
 4905SOL     OW25183   2.917   1.552   0.462
 4905SOL    HW125184   2.825   1.525   0.491
 4905SOL    HW225185   2.951   1.624   0.522
 4906SOL     OW25186   9.968   9.637   0.483
 4906SOL    HW125187   9.911   9.637   0.401
 4906SOL    HW225188   0.062   9.659   0.457
 4907SOL     OW25189   7.824   6.436   3.646
 4907SOL    HW125190   7.814   6.527   3.685
 4907SOL    HW225191   7.919   6.422   3.618
 4908SOL     OW25192   9.789   5.485   1.807
 4908SOL    HW125193   9.798   5.560   1.741
 4908SOL    HW225194   9.712   5.503   1.867
 4909SOL     OW25195   7.240   8.473   2.949
 4909SOL    HW125196   7.237   8.388   3.002
 4909SOL    HW225197   7.318   8.471   2.886
 4910SOL     OW25198   5.845   6.983   2.171
 4910SOL    HW125199   5.767   6.976   2.233
 4910SOL    HW225200   5.879   7.077   2.171
 4911SOL     OW25201   0.880   3.435   0.742
 4911SOL    HW125202   0.873   3.507   0.811
 4911SOL    HW225203   0.905   3.349   0.786
 4912SOL     OW25204   2.235   3.583   3.095
 4912SOL    HW125205   2.303   3.655   3.100
 4912SOL    HW225206   2.162   3.609   3.032
 4913SOL     OW25207   1.885   1.491   0.194
 4913SOL    HW125208   1.837   1.412   0.232
 4913SOL    HW225209   1.838   1.575   0.219
 4914SOL     OW25210   4.113   0.352   2.802
 4914SOL    HW125211   4.071   0.269   2.766
 4914SOL    HW225212   4.167   0.329   2.883
 4915SOL     OW25213   7.962   8.969   2.902
 4915SOL    HW125214   7.889   8.968   2.833
 4915SOL    HW225215   8.019   8.888   2.892
 4916SOL     OW25216   9.037   1.218   2.215
 4916SOL    HW125217   9.033   1.245   2.118
 4916SOL    HW225218   9.100   1.279   2.263
 4917SOL     OW25219   9.101   2.444   0.390
 4917SOL    HW125220   9.198   2.448   0.417
 4917SOL    HW225221   9.075   2.531   0.349
 4918SOL     OW25222   7.649   1.023   2.335
 4918SOL    HW125223   7.582   1.024   2.260
 4918SOL    HW225224   7.620   1.088   2.405
 4919SOL     OW25225   7.919   3.191   0.218
 4919SOL    HW125226   7.921   3.163   0.314
 4919SOL    HW225227   7.962   3.281   0.209
 4920SOL     OW25228   9.100   5.658   0.269
 4920SOL    HW125229   9.140   5.743   0.303
 4920SOL    HW225230   9.166   5.583   0.281
 4921SOL     OW25231   1.021   0.755   2.583
 4921SOL    HW125232   1.017   0.689   2.658
 4921SOL    HW225233   1.115   0.789   2.575
 4922SOL     OW25234   4.407   1.394   0.987
 4922SOL    HW125235   4.456   1.345   1.059
 4922SOL    HW225236   4.346   1.331   0.939
 4923SOL     OW25237   2.506   5.471   2.451
 4923SOL    HW125238   2.432   5.411   2.482
 4923SOL    HW225239   2.526   5.539   2.521
 4924SOL     OW25240   9.940   5.506   0.141
 4924SOL    HW125241   9.943   5.605   0.139
 4924SOL    HW225242   9.850   5.474   0.111
 4925SOL     OW25243   8.998   4.383   3.708
 4925SOL    HW125244   9.087   4.366   3.665
 4925SOL    HW225245   9.009   4.377   3.808
 4926SOL     OW25246   7.900   0.478   1.573
 4926SOL    HW125247   7.835   0.405   1.593
 4926SOL    HW225248   7.902   0.496   1.475
 4927SOL     OW25249   3.703   8.883   0.122
 4927SOL    HW125250   3.787   8.845   0.161
 4927SOL    HW225251   3.714   8.981   0.107
 4928SOL     OW25252   2.717   3.826   3.332
 4928SOL    HW125253   2.672   3.737   3.324
 4928SOL    HW225254   2.793   3.820   3.397
 4929SOL     OW25255   7.783   6.037   3.584
 4929SOL    HW125256   7.715   6.109   3.598
 4929SOL    HW225257   7.737   5.950   3.571
 4930SOL     OW25258   3.483   6.889   0.067
 4930SOL    HW125259   3.486   6.795   0.033
 4930SOL    HW225260   3.389   6.915   0.087
 4931SOL     OW25261   0.489   9.532   1.748
 4931SOL    HW125262   0.436   9.614   1.772
 4931SOL    HW225263   0.542   9.550   1.665
 4932SOL     OW25264   2.342   6.259   3.098
 4932SOL    HW125265   2.300   6.226   3.183
 4932SOL    HW225266   2.416   6.323   3.121
 4933SOL     OW25267   3.730   5.577   2.741
 4933SOL    HW125268   3.791   5.517   2.689
 4933SOL    HW225269   3.780   5.617   2.818
 4934SOL     OW25270   2.386   7.670   1.869
 4934SOL    HW125271   2.307   7.731   1.865
 4934SOL    HW225272   2.426   7.662   1.777
 4935SOL     OW25273   2.815   7.317   0.905
 4935SOL    HW125274   2.743   7.340   0.971
 4935SOL    HW225275   2.891   7.381   0.916
 4936SOL     OW25276   9.824   4.861   0.914
 4936SOL    HW125277   9.870   4.818   0.836
 4936SOL    HW225278   9.892   4.891   0.981
 4937SOL     OW25279   3.484   5.471   2.816
 4937SOL    HW125280   3.574   5.510   2.799
 4937SOL    HW225281   3.427   5.481   2.735
 4938SOL     OW25282   1.202   7.706   0.418
 4938SOL    HW125283   1.182   7.786   0.362
 4938SOL    HW225284   1.292   7.716   0.461
 4939SOL     OW25285   9.244   6.959   2.540
 4939SOL    HW125286   9.268   7.052   2.511
 4939SOL    HW225287   9.327   6.903   2.541
 4940SOL     OW25288   4.390   3.704   0.578
 4940SOL    HW125289   4.355   3.766   0.507
 4940SOL    HW225290   4.348   3.614   0.566
 4941SOL     OW25291   2.456   3.710   0.475
 4941SOL    HW125292   2.552   3.700   0.448
 4941SOL    HW225293   2.406   3.628   0.447
 4942SOL     OW25294   9.981   0.405   1.863
 4942SOL    HW125295   0.034   0.488   1.881
 4942SOL    HW225296   9.891   0.431   1.827
 4943SOL     OW25297   6.821   7.888   2.138
 4943SOL    HW125298   6.772   7.831   2.205
 4943SOL    HW225299   6.892   7.940   2.184
 4944SOL     OW25300   9.637   9.156   3.488
 4944SOL    HW125301   9.659   9.124   3.396
 4944SOL    HW225302   9.702   9.119   3.553
 4945SOL     OW25303   2.536   3.973   3.492
 4945SOL    HW125304   2.603   3.923   3.437
 4945SOL    HW225305   2.554   4.071   3.486
 4946SOL     OW25306   0.149   6.240   2.415
 4946SOL    HW125307   0.066   6.283   2.451
 4946SOL    HW225308   0.125   6.162   2.358
 4947SOL     OW25309   9.603   4.741   3.695
 4947SOL    HW125310   9.691   4.740   3.647
 4947SOL    HW225311   9.529   4.728   3.629
 4948SOL     OW25312   0.200   4.675   1.890
 4948SOL    HW125313   0.200   4.603   1.820
 4948SOL    HW225314   0.279   4.661   1.950
 4949SOL     OW25315   4.504   4.603   1.270
 4949SOL    HW125316   4.553   4.665   1.208
 4949SOL    HW225317   4.407   4.626   1.271
 4950SOL     OW25318   2.427   7.209   2.464
 4950SOL    HW125319   2.462   7.186   2.373
 4950SOL    HW225320   2.345   7.264   2.456
 4951SOL     OW25321   4.055   7.458   3.615
 4951SOL    HW125322   4.072   7.407   3.530
 4951SOL    HW225323   4.140   7.461   3.669
 4952SOL     OW25324   9.683   8.260   3.401
 4952SOL    HW125325   9.624   8.319   3.454
 4952SOL    HW225326   9.731   8.196   3.461
 4953SOL     OW25327   0.970   9.070   0.911
 4953SOL    HW125328   0.951   9.168   0.917
 4953SOL    HW225329   0.883   9.020   0.907
 4954SOL     OW25330   1.989   1.359   2.431
 4954SOL    HW125331   2.011   1.443   2.381
 4954SOL    HW225332   1.896   1.365   2.468
 4955SOL     OW25333   3.092   5.747   2.107
 4955SOL    HW125334   2.998   5.766   2.135
 4955SOL    HW225335   3.111   5.650   2.121
 4956SOL     OW25336   0.796   6.564   3.402
 4956SOL    HW125337   0.890   6.560   3.437
 4956SOL    HW225338   0.736   6.511   3.461
 4957SOL     OW25339   9.226   1.407   2.294
 4957SOL    HW125340   9.282   1.389   2.213
 4957SOL    HW225341   9.280   1.390   2.376
 4958SOL     OW25342   2.603   6.582   0.435
 4958SOL    HW125343   2.548   6.628   0.504
 4958SOL    HW225344   2.588   6.483   0.442
 4959SOL     OW25345   9.371   8.939   0.748
 4959SOL    HW125346   9.438   8.975   0.813
 4959SOL    HW225347   9.283   8.927   0.794
 4960SOL     OW25348   3.017   0.554   0.764
 4960SOL    HW125349   2.932   0.550   0.816
 4960SOL    HW225350   3.027   0.645   0.724
 4961SOL     OW25351   9.726   5.097   0.195
 4961SOL    HW125352   9.718   5.179   0.251
 4961SOL    HW225353   9.669   5.025   0.235
 4962SOL     OW25354   3.985   9.294   1.595
 4962SOL    HW125355   4.069   9.337   1.625
 4962SOL    HW225356   3.972   9.310   1.497
 4963SOL     OW25357   9.826   2.567   1.290
 4963SOL    HW125358   9.801   2.487   1.235
 4963SOL    HW225359   9.925   2.571   1.301
 4964SOL     OW25360   3.008   9.353   0.597
 4964SOL    HW125361   2.995   9.364   0.498
 4964SOL    HW225362   3.064   9.429   0.631
 4965SOL     OW25363   7.931   9.557   0.064
 4965SOL    HW125364   7.987   9.637   0.085
 4965SOL    HW225365   7.868   9.578   4.771
 4966SOL     OW25366   3.807   3.123   0.638
 4966SOL    HW125367   3.797   3.025   0.655
 4966SOL    HW225368   3.895   3.140   0.593
 4967SOL     OW25369   0.494   3.584   1.796
 4967SOL    HW125370   0.545   3.663   1.831
 4967SOL    HW225371   0.472   3.599   1.699
 4968SOL     OW25372   3.392   5.315   1.764
 4968SOL    HW125373   3.318   5.329   1.698
 4968SOL    HW225374   3.442   5.231   1.741
 4969SOL     OW25375   8.822   8.987   3.382
 4969SOL    HW125376   8.791   8.898   3.415
 4969SOL    HW225377   8.892   9.023   3.443
 4970SOL     OW25378   3.989   9.011   3.321
 4970SOL    HW125379   3.899   8.997   3.362
 4970SOL    HW225380   3.997   8.955   3.238
 4971SOL     OW25381   1.294   5.540   0.213
 4971SOL    HW125382   1.298   5.477   0.291
 4971SOL    HW225383   1.287   5.634   0.248
 4972SOL     OW25384   9.602   7.718   3.488
 4972SOL    HW125385   9.521   7.773   3.466
 4972SOL    HW225386   9.592   7.627   3.449
 4973SOL     OW25387   2.408   0.168   1.625
 4973SOL    HW125388   2.491   0.149   1.677
 4973SOL    HW225389   2.331   0.178   1.689
 4974SOL     OW25390   1.838   9.580   1.420
 4974SOL    HW125391   1.926   9.612   1.385
 4974SOL    HW225392   1.811   9.497   1.371
 4975SOL     OW25393   9.293   9.798   1.088
 4975SOL    HW125394   9.390   9.789   1.113
 4975SOL    HW225395   9.263   9.891   1.108
 4976SOL     OW25396   1.460   1.910   0.524
 4976SOL    HW125397   1.530   1.951   0.583
 4976SOL    HW225398   1.474   1.940   0.430
 4977SOL     OW25399   8.068   9.560   2.247
 4977SOL    HW125400   8.069   9.479   2.189
 4977SOL    HW225401   7.979   9.604   2.240
 4978SOL     OW25402   1.013   3.858   1.738
 4978SOL    HW125403   1.106   3.841   1.705
 4978SOL    HW225404   0.956   3.778   1.720
 4979SOL     OW25405   3.909   4.243   1.861
 4979SOL    HW125406   3.862   4.220   1.947
 4979SOL    HW225407   4.001   4.205   1.863
 4980SOL     OW25408   0.396   3.727   3.457
 4980SOL    HW125409   0.326   3.659   3.479
 4980SOL    HW225410   0.462   3.687   3.393
 4981SOL     OW25411   3.497   8.183   2.141
 4981SOL    HW125412   3.544   8.096   2.148
 4981SOL    HW225413   3.426   8.189   2.211
 4982SOL     OW25414   2.296   6.844   3.502
 4982SOL    HW125415   2.220   6.785   3.473
 4982SOL    HW225416   2.342   6.881   3.422
 4983SOL     OW25417   0.691   9.425   1.274
 4983SOL    HW125418   0.614   9.400   1.215
 4983SOL    HW225419   0.720   9.344   1.326
 4984SOL     OW25420   1.279   7.609   3.176
 4984SOL    HW125421   1.314   7.520   3.145
 4984SOL    HW225422   1.217   7.646   3.107
 4985SOL     OW25423   2.468   1.865   2.109
 4985SOL    HW125424   2.388   1.869   2.049
 4985SOL    HW225425   2.537   1.805   2.068
 4986SOL     OW25426   4.070   0.070   0.544
 4986SOL    HW125427   3.982   0.101   0.509
 4986SOL    HW225428   4.078   0.096   0.641
 4987SOL     OW25429   3.714   0.465   3.288
 4987SOL    HW125430   3.763   0.517   3.358
 4987SOL    HW225431   3.618   0.454   3.315
 4988SOL     OW25432   2.849   8.425   1.422
 4988SOL    HW125433   2.901   8.376   1.491
 4988SOL    HW225434   2.754   8.434   1.451
 4989SOL     OW25435   8.640   2.930   3.581
 4989SOL    HW125436   8.724   2.978   3.607
 4989SOL    HW225437   8.630   2.847   3.636
 4990SOL     OW25438   2.281   2.373   1.311
 4990SOL    HW125439   2.341   2.416   1.243
 4990SOL    HW225440   2.221   2.443   1.351
 4991SOL     OW25441   8.378   6.309   1.891
 4991SOL    HW125442   8.372   6.214   1.924
 4991SOL    HW225443   8.468   6.346   1.915
 4992SOL     OW25444   8.830   9.138   1.572
 4992SOL    HW125445   8.806   9.149   1.669
 4992SOL    HW225446   8.749   9.152   1.516
 4993SOL     OW25447   5.364   9.953   3.210
 4993SOL    HW125448   5.324   9.990   3.294
 4993SOL    HW225449   5.293   9.942   3.141
 4994SOL     OW25450   4.041   7.491   1.722
 4994SOL    HW125451   3.953   7.451   1.694
 4994SOL    HW225452   4.113   7.424   1.708
 4995SOL     OW25453   7.968   0.130   2.763
 4995SOL    HW125454   7.907   0.139   2.842
 4995SOL    HW225455   7.945   0.046   2.713
 4996SOL     OW25456   0.147   3.023   1.379
 4996SOL    HW125457   0.162   2.926   1.397
 4996SOL    HW225458   0.059   3.035   1.332
 4997SOL     OW25459   3.277   3.535   0.511
 4997SOL    HW125460   3.180   3.511   0.511
 4997SOL    HW225461   3.287   3.634   0.506
 4998SOL     OW25462   4.246   1.406   3.188
 4998SOL    HW125463   4.300   1.326   3.163
 4998SOL    HW225464   4.231   1.463   3.107
 4999SOL     OW25465   3.274   1.567   3.570
 4999SOL    HW125466   3.199   1.574   3.504
 4999SOL    HW225467   3.345   1.507   3.534
 5000SOL     OW25468   4.445   3.825   1.635
 5000SOL    HW125469   4.499   3.816   1.719
 5000SOL    HW225470   4.457   3.743   1.579
 5001SOL     OW25471   8.199   8.739   2.610
 5001SOL    HW125472   8.285   8.702   2.574
 5001SOL    HW225473   8.161   8.802   2.542
 5002SOL     OW25474   9.778   4.206   1.382
 5002SOL    HW125475   9.776   4.287   1.441
 5002SOL    HW225476   9.778   4.124   1.439
 5003SOL     OW25477   2.633   0.547   3.390
 5003SOL    HW125478   2.554   0.606   3.405
 5003SOL    HW225479   2.611   0.453   3.417
 5004SOL     OW25480   8.387   7.603   0.666
 5004SOL    HW125481   8.378   7.695   0.627
 5004SOL    HW225482   8.313   7.587   0.731
 5005SOL     OW25483   0.627   6.268   3.296
 5005SOL    HW125484   0.630   6.292   3.199
 5005SOL    HW225485   0.709   6.217   3.320
 5006SOL     OW25486   0.260   5.846   0.819
 5006SOL    HW125487   0.227   5.923   0.763
 5006SOL    HW225488   0.333   5.878   0.879
 5007SOL     OW25489   5.488   8.893   1.771
 5007SOL    HW125490   5.511   8.982   1.730
 5007SOL    HW225491   5.433   8.907   1.853
 5008SOL     OW25492   8.946   4.059   2.935
 5008SOL    HW125493   9.017   4.039   3.003
 5008SOL    HW225494   8.950   4.156   2.911
 5009SOL     OW25495   4.863   1.312   2.389
 5009SOL    HW125496   4.828   1.400   2.423
 5009SOL    HW225497   4.822   1.238   2.441
 5010SOL     OW25498   0.700   3.821   0.686
 5010SOL    HW125499   0.761   3.833   0.764
 5010SOL    HW225500   0.710   3.898   0.624
 5011SOL     OW25501   4.675   1.732   3.160
 5011SOL    HW125502   4.650   1.650   3.211
 5011SOL    HW225503   4.616   1.808   3.187
 5012SOL     OW25504   8.518   1.277   3.409
 5012SOL    HW125505   8.541   1.255   3.314
 5012SOL    HW225506   8.451   1.351   3.410
 5013SOL     OW25507   2.953   8.621   2.217
 5013SOL    HW125508   2.911   8.707   2.248
 5013SOL    HW225509   2.896   8.544   2.244
 5014SOL     OW25510   8.314   7.744   2.416
 5014SOL    HW125511   8.235   7.764   2.474
 5014SOL    HW225512   8.281   7.711   2.327
 5015SOL     OW25513   9.514   4.189   1.296
 5015SOL    HW125514   9.493   4.183   1.199
 5015SOL    HW225515   9.613   4.195   1.308
 5016SOL     OW25516   4.044   6.731   2.245
 5016SOL    HW125517   3.996   6.761   2.163
 5016SOL    HW225518   4.010   6.783   2.324
 5017SOL     OW25519   9.044   2.570   1.544
 5017SOL    HW125520   9.086   2.645   1.595
 5017SOL    HW225521   8.952   2.596   1.516
 5018SOL     OW25522   7.728   1.583   1.155
 5018SOL    HW125523   7.805   1.647   1.152
 5018SOL    HW225524   7.674   1.599   1.238
 5019SOL     OW25525   5.594   0.048   3.086
 5019SOL    HW125526   5.569   0.117   3.017
 5019SOL    HW225527   5.512   0.019   3.134
 5020SOL     OW25528   8.945   0.538   2.074
 5020SOL    HW125529   8.873   0.584   2.126
 5020SOL    HW225530   9.030   0.590   2.081
 5021SOL     OW25531   1.034   0.124   0.703
 5021SOL    HW125532   1.092   0.078   0.635
 5021SOL    HW225533   0.955   0.165   0.657
 5022SOL     OW25534   9.511   4.522   3.315
 5022SOL    HW125535   9.448   4.476   3.252
 5022SOL    HW225536   9.593   4.550   3.265
 5023SOL     OW25537   9.252   7.061   2.850
 5023SOL    HW125538   9.343   7.043   2.814
 5023SOL    HW225539   9.184   7.047   2.778
 5024SOL     OW25540   3.611   1.272   0.307
 5024SOL    HW125541   3.668   1.285   0.388
 5024SOL    HW225542   3.524   1.231   0.332
 5025SOL     OW25543   7.204   7.534   3.363
 5025SOL    HW125544   7.143   7.573   3.295
 5025SOL    HW225545   7.180   7.438   3.378
 5026SOL     OW25546   8.143   7.654   0.908
 5026SOL    HW125547   8.108   7.677   0.998
 5026SOL    HW225548   8.192   7.566   0.913
 5027SOL     OW25549   0.580   2.889   2.883
 5027SOL    HW125550   0.513   2.955   2.918
 5027SOL    HW225551   0.553   2.860   2.791
 5028SOL     OW25552   7.123   9.773   0.599
 5028SOL    HW125553   7.166   9.796   0.511
 5028SOL    HW225554   7.113   9.856   0.654
 5029SOL     OW25555   2.212   5.954   2.183
 5029SOL    HW125556   2.203   5.883   2.253
 5029SOL    HW225557   2.130   6.011   2.183
 5030SOL     OW25558   4.879   3.824   0.248
 5030SOL    HW125559   4.931   3.910   0.251
 5030SOL    HW225560   4.782   3.846   0.237
 5031SOL     OW25561   1.541   1.779   1.635
 5031SOL    HW125562   1.537   1.688   1.594
 5031SOL    HW225563   1.457   1.828   1.615
 5032SOL     OW25564   3.117   5.703   1.287
 5032SOL    HW125565   3.126   5.711   1.188
 5032SOL    HW225566   3.099   5.608   1.312
 5033SOL     OW25567   2.587   5.930   3.478
 5033SOL    HW125568   2.684   5.950   3.487
 5033SOL    HW225569   2.564   5.911   3.383
 5034SOL     OW25570   9.771   4.391   1.160
 5034SOL    HW125571   9.814   4.344   1.083
 5034SOL    HW225572   9.789   4.339   1.244
 5035SOL     OW25573   9.251   3.816   0.357
 5035SOL    HW125574   9.183   3.743   0.360
 5035SOL    HW225575   9.319   3.802   0.429
 5036SOL     OW25576   2.649   4.853   0.943
 5036SOL    HW125577   2.741   4.852   0.903
 5036SOL    HW225578   2.652   4.894   1.034
 5037SOL     OW25579   2.164   7.640   2.268
 5037SOL    HW125580   2.140   7.713   2.332
 5037SOL    HW225581   2.105   7.646   2.187
 5038SOL     OW25582   3.152   2.843   1.702
 5038SOL    HW125583   3.091   2.807   1.773
 5038SOL    HW225584   3.239   2.870   1.743
 5039SOL     OW25585   9.114   7.491   1.718
 5039SOL    HW125586   9.131   7.398   1.685
 5039SOL    HW225587   9.145   7.557   1.649
 5040SOL     OW25588   2.721   0.723   2.837
 5040SOL    HW125589   2.740   0.814   2.801
 5040SOL    HW225590   2.799   0.693   2.893
 5041SOL     OW25591   4.160   1.853   0.997
 5041SOL    HW125592   4.089   1.815   0.938
 5041SOL    HW225593   4.171   1.951   0.976
 5042SOL     OW25594   2.805   0.718   3.237
 5042SOL    HW125595   2.883   0.751   3.289
 5042SOL    HW225596   2.745   0.664   3.296
 5043SOL     OW25597   3.726   0.557   0.216
 5043SOL    HW125598   3.672   0.566   0.300
 5043SOL    HW225599   3.701   0.473   0.169
 5044SOL     OW25600   5.054   3.544   1.128
 5044SOL    HW125601   5.057   3.502   1.037
 5044SOL    HW225602   5.051   3.644   1.118
 5045SOL     OW25603   4.058   9.339   1.326
 5045SOL    HW125604   4.154   9.315   1.344
 5045SOL    HW225605   4.054   9.432   1.289
 5046SOL     OW25606   0.755   9.651   1.118
 5046SOL    HW125607   0.729   9.579   1.183
 5046SOL    HW225608   0.852   9.644   1.097
 5047SOL     OW25609   3.856   7.368   1.223
 5047SOL    HW125610   3.766   7.386   1.185
 5047SOL    HW225611   3.921   7.352   1.148
 5048SOL     OW25612   2.376   5.324   3.005
 5048SOL    HW125613   2.405   5.294   3.096
 5048SOL    HW225614   2.440   5.393   2.971
 5049SOL     OW25615   0.646   8.950   3.089
 5049SOL    HW125616   0.557   8.970   3.130
 5049SOL    HW225617   0.675   9.028   3.034
 5050SOL     OW25618   1.903   8.083   1.625
 5050SOL    HW125619   1.864   8.136   1.549
 5050SOL    HW225620   1.957   8.144   1.683
 5051SOL     OW25621   8.728   2.400   2.475
 5051SOL    HW125622   8.786   2.372   2.552
 5051SOL    HW225623   8.695   2.493   2.490
 5052SOL     OW25624   3.929   2.641   0.762
 5052SOL    HW125625   4.008   2.677   0.712
 5052SOL    HW225626   3.961   2.585   0.838
 5053SOL     OW25627   4.367   8.794   2.995
 5053SOL    HW125628   4.458   8.819   2.961
 5053SOL    HW225629   4.362   8.694   3.004
 5054SOL     OW25630   7.901   9.897   2.633
 5054SOL    HW125631   7.987   9.888   2.584
 5054SOL    HW225632   7.889   9.817   2.693
 5055SOL     OW25633   5.391   6.922   2.849
 5055SOL    HW125634   5.417   7.019   2.848
 5055SOL    HW225635   5.382   6.890   2.943
 5056SOL     OW25636   4.370   0.027   1.208
 5056SOL    HW125637   4.298   0.077   1.160
 5056SOL    HW225638   4.385   0.069   1.298
 5057SOL     OW25639   4.146   9.568   2.730
 5057SOL    HW125640   4.060   9.538   2.689
 5057SOL    HW225641   4.223   9.529   2.679
 5058SOL     OW25642   9.558   8.646   1.609
 5058SOL    HW125643   9.565   8.550   1.636
 5058SOL    HW225644   9.462   8.669   1.594
 5059SOL     OW25645   6.912   8.759   3.181
 5059SOL    HW125646   6.830   8.753   3.124
 5059SOL    HW225647   6.925   8.853   3.211
 5060SOL     OW25648   1.851   4.316   3.559
 5060SOL    HW125649   1.826   4.344   3.466
 5060SOL    HW225650   1.927   4.372   3.591
 5061SOL     OW25651   2.745   2.763   0.713
 5061SOL    HW125652   2.708   2.831   0.776
 5061SOL    HW225653   2.766   2.679   0.763
 5062SOL     OW25654   7.633   4.866   0.415
 5062SOL    HW125655   7.589   4.913   0.492
 5062SOL    HW225656   7.715   4.819   0.447
 5063SOL     OW25657   9.010   5.550   1.318
 5063SOL    HW125658   9.077   5.477   1.329
 5063SOL    HW225659   8.978   5.552   1.223
 5064SOL     OW25660   8.149   2.698   2.350
 5064SOL    HW125661   8.099   2.647   2.419
 5064SOL    HW225662   8.165   2.640   2.270
 5065SOL     OW25663   2.009   9.845   2.593
 5065SOL    HW125664   1.951   9.822   2.671
 5065SOL    HW225665   2.069   9.921   2.618
 5066SOL     OW25666   5.614   8.316   2.728
 5066SOL    HW125667   5.628   8.261   2.810
 5066SOL    HW225668   5.683   8.293   2.660
 5067SOL     OW25669   5.604   0.198   2.395
 5067SOL    HW125670   5.688   0.151   2.422
 5067SOL    HW225671   5.558   0.232   2.477
 5068SOL     OW25672   4.374   3.329   3.456
 5068SOL    HW125673   4.409   3.237   3.438
 5068SOL    HW225674   4.281   3.337   3.422
 5069SOL     OW25675   0.926   4.985   1.724
 5069SOL    HW125676   0.931   4.920   1.649
 5069SOL    HW225677   0.849   5.047   1.709
 5070SOL     OW25678   9.778   3.868   2.342
 5070SOL    HW125679   9.765   3.769   2.330
 5070SOL    HW225680   9.864   3.885   2.389
 5071SOL     OW25681   3.458   8.490   3.344
 5071SOL    HW125682   3.546   8.445   3.359
 5071SOL    HW225683   3.385   8.420   3.343
 5072SOL     OW25684   4.391   6.959   2.877
 5072SOL    HW125685   4.442   6.902   2.941
 5072SOL    HW225686   4.442   7.043   2.860
 5073SOL     OW25687   2.194   5.559   1.235
 5073SOL    HW125688   2.172   5.521   1.145
 5073SOL    HW225689   2.293   5.568   1.244
 5074SOL     OW25690   0.248   8.723   3.646
 5074SOL    HW125691   0.243   8.733   3.746
 5074SOL    HW225692   0.219   8.631   3.621
 5075SOL     OW25693   7.436   7.289   2.406
 5075SOL    HW125694   7.409   7.203   2.364
 5075SOL    HW225695   7.475   7.271   2.497
 5076SOL     OW25696   3.683   4.953   0.677
 5076SOL    HW125697   3.673   5.052   0.669
 5076SOL    HW225698   3.774   4.932   0.713
 5077SOL     OW25699   4.284   8.114   2.451
 5077SOL    HW125700   4.357   8.175   2.421
 5077SOL    HW225701   4.307   8.020   2.426
 5078SOL     OW25702   9.590   4.905   0.351
 5078SOL    HW125703   9.633   4.934   0.436
 5078SOL    HW225704   9.636   4.823   0.317
 5079SOL     OW25705   2.271   8.810   3.650
 5079SOL    HW125706   2.231   8.749   3.582
 5079SOL    HW225707   2.369   8.794   3.657
 5080SOL     OW25708   3.601   3.971   1.136
 5080SOL    HW125709   3.604   3.963   1.036
 5080SOL    HW225710   3.688   4.007   1.169
 5081SOL     OW25711   4.080   8.271   0.530
 5081SOL    HW125712   4.070   8.240   0.436
 5081SOL    HW225713   4.172   8.249   0.563
 5082SOL     OW25714   2.169   7.829   1.873
 5082SOL    HW125715   2.096   7.799   1.935
 5082SOL    HW225716   2.130   7.882   1.798
 5083SOL     OW25717   5.819   9.102   3.563
 5083SOL    HW125718   5.739   9.076   3.508
 5083SOL    HW225719   5.877   9.163   3.509
 5084SOL     OW25720   6.097   8.713   2.659
 5084SOL    HW125721   6.100   8.805   2.619
 5084SOL    HW225722   6.015   8.665   2.627
 5085SOL     OW25723   5.541   9.141   2.279
 5085SOL    HW125724   5.539   9.241   2.277
 5085SOL    HW225725   5.575   9.109   2.368
 5086SOL     OW25726   9.576   8.049   3.261
 5086SOL    HW125727   9.604   8.138   3.298
 5086SOL    HW225728   9.508   8.062   3.189
 5087SOL     OW25729   5.173   8.238   2.992
 5087SOL    HW125730   5.113   8.302   3.040
 5087SOL    HW225731   5.134   8.146   2.996
 5088SOL     OW25732   9.357   2.042   2.007
 5088SOL    HW125733   9.442   2.058   2.056
 5088SOL    HW225734   9.307   2.127   1.996
 5089SOL     OW25735   8.177   9.567   0.713
 5089SOL    HW125736   8.187   9.622   0.796
 5089SOL    HW225737   8.232   9.606   0.639
 5090SOL     OW25738   5.072   7.936   1.659
 5090SOL    HW125739   5.041   8.026   1.629
 5090SOL    HW225740   5.170   7.939   1.676
 5091SOL     OW25741   2.250   0.802   0.723
 5091SOL    HW125742   2.180   0.747   0.678
 5091SOL    HW225743   2.211   0.847   0.803
 5092SOL     OW25744   7.036   0.182   3.194
 5092SOL    HW125745   6.967   0.128   3.242
 5092SOL    HW225746   7.109   0.122   3.161
 5093SOL     OW25747   1.465   9.346   0.576
 5093SOL    HW125748   1.441   9.280   0.505
 5093SOL    HW225749   1.563   9.364   0.573
 5094SOL     OW25750   0.867   6.475   3.151
 5094SOL    HW125751   0.832   6.508   3.240
 5094SOL    HW225752   0.797   6.419   3.107
 5095SOL     OW25753   7.918   7.456   1.987
 5095SOL    HW125754   7.881   7.549   1.986
 5095SOL    HW225755   7.933   7.426   1.893
 5096SOL     OW25756   3.031   1.694   2.587
 5096SOL    HW125757   3.024   1.657   2.680
 5096SOL    HW225758   2.996   1.627   2.522
 5097SOL     OW25759   1.090   8.781   3.706
 5097SOL    HW125760   1.101   8.877   3.731
 5097SOL    HW225761   0.996   8.753   3.721
 5098SOL     OW25762   9.280   4.882   1.785
 5098SOL    HW125763   9.258   4.825   1.706
 5098SOL    HW225764   9.368   4.928   1.769
 5099SOL     OW25765   9.235   9.738   2.308
 5099SOL    HW125766   9.147   9.743   2.356
 5099SOL    HW225767   9.222   9.763   2.213
 5100SOL     OW25768   1.937   0.990   0.545
 5100SOL    HW125769   1.892   0.903   0.566
 5100SOL    HW225770   1.998   0.977   0.467
 5101SOL     OW25771   4.146   8.135   1.555
 5101SOL    HW125772   4.046   8.133   1.552
 5101SOL    HW225773   4.183   8.090   1.475
 5102SOL     OW25774   3.679   9.843   1.473
 5102SOL    HW125775   3.677   9.743   1.478
 5102SOL    HW225776   3.676   9.881   1.566
 5103SOL     OW25777   0.264   3.157   1.590
 5103SOL    HW125778   0.207   3.112   1.522
 5103SOL    HW225779   0.356   3.170   1.553
 5104SOL     OW25780   4.745   8.304   3.477
 5104SOL    HW125781   4.793   8.221   3.449
 5104SOL    HW225782   4.778   8.381   3.422
 5105SOL     OW25783   3.967   4.958   1.114
 5105SOL    HW125784   3.873   4.948   1.080
 5105SOL    HW225785   3.966   5.017   1.195
 5106SOL     OW25786   0.249   9.687   0.493
 5106SOL    HW125787   0.331   9.743   0.483
 5106SOL    HW225788   0.230   9.674   0.591
 5107SOL     OW25789   1.743   2.621   1.150
 5107SOL    HW125790   1.729   2.523   1.158
 5107SOL    HW225791   1.834   2.645   1.185
 5108SOL     OW25792   3.957   2.809   2.642
 5108SOL    HW125793   3.889   2.881   2.651
 5108SOL    HW225794   4.045   2.849   2.616
 5109SOL     OW25795   2.669   0.815   1.239
 5109SOL    HW125796   2.609   0.852   1.309
 5109SOL    HW225797   2.760   0.799   1.277
 5110SOL     OW25798   1.705   0.922   3.657
 5110SOL    HW125799   1.706   0.873   3.744
 5110SOL    HW225800   1.700   0.856   3.582
 5111SOL     OW25801   9.801   7.899   3.258
 5111SOL    HW125802   9.716   7.952   3.263
 5111SOL    HW225803   9.822   7.863   3.349
 5112SOL     OW25804   0.137   0.617   1.910
 5112SOL    HW125805   0.216   0.590   1.964
 5112SOL    HW225806   0.147   0.712   1.880
 5113SOL     OW25807   9.912   3.040   1.240
 5113SOL    HW125808   9.912   3.028   1.141
 5113SOL    HW225809   9.825   3.010   1.277
 5114SOL     OW25810   5.364   0.091   1.690
 5114SOL    HW125811   5.359   0.043   1.602
 5114SOL    HW225812   5.352   0.026   1.765
 5115SOL     OW25813   0.379   3.331   0.623
 5115SOL    HW125814   0.303   3.275   0.657
 5115SOL    HW225815   0.441   3.351   0.699
 5116SOL     OW25816   9.108   8.841   2.087
 5116SOL    HW125817   9.033   8.791   2.130
 5116SOL    HW225818   9.083   8.865   1.993
 5117SOL     OW25819   1.845   5.644   3.232
 5117SOL    HW125820   1.892   5.625   3.318
 5117SOL    HW225821   1.871   5.576   3.163
 5118SOL     OW25822   1.422   6.367   0.278
 5118SOL    HW125823   1.412   6.458   0.319
 5118SOL    HW225824   1.439   6.300   0.350
 5119SOL     OW25825   4.007   0.104   2.736
 5119SOL    HW125826   3.914   0.079   2.761
 5119SOL    HW225827   4.066   0.023   2.740
 5120SOL     OW25828   2.752   1.170   0.880
 5120SOL    HW125829   2.743   1.269   0.870
 5120SOL    HW225830   2.684   1.125   0.821
 5121SOL     OW25831   4.811   3.535   2.750
 5121SOL    HW125832   4.754   3.518   2.830
 5121SOL    HW225833   4.907   3.536   2.777
 5122SOL     OW25834   8.621   7.209   0.357
 5122SOL    HW125835   8.596   7.301   0.327
 5122SOL    HW225836   8.649   7.155   0.278
 5123SOL     OW25837   8.666   2.671   3.704
 5123SOL    HW125838   8.715   2.626   3.629
 5123SOL    HW225839   8.722   2.669   3.787
 5124SOL     OW25840   2.156   7.038   3.171
 5124SOL    HW125841   2.189   7.112   3.230
 5124SOL    HW225842   2.117   7.077   3.087
 5125SOL     OW25843   4.431   8.349   2.673
 5125SOL    HW125844   4.339   8.309   2.670
 5125SOL    HW225845   4.497   8.285   2.635
 5126SOL     OW25846   8.929   9.062   0.735
 5126SOL    HW125847   8.850   9.121   0.722
 5126SOL    HW225848   9.009   9.102   0.690
 5127SOL     OW25849   6.102   0.160   1.298
 5127SOL    HW125850   6.059   0.246   1.323
 5127SOL    HW225851   6.184   0.146   1.354
 5128SOL     OW25852   0.706   0.268   0.901
 5128SOL    HW125853   0.634   0.282   0.832
 5128SOL    HW225854   0.791   0.308   0.869
 5129SOL     OW25855   8.366   7.562   3.226
 5129SOL    HW125856   8.452   7.543   3.180
 5129SOL    HW225857   8.384   7.586   3.321
 5130SOL     OW25858   5.322   2.057   1.013
 5130SOL    HW125859   5.287   2.123   1.078
 5130SOL    HW225860   5.415   2.083   0.985
 5131SOL     OW25861   8.679   6.439   0.436
 5131SOL    HW125862   8.764   6.430   0.487
 5131SOL    HW225863   8.698   6.433   0.338
 5132SOL     OW25864   5.435   7.685   3.447
 5132SOL    HW125865   5.483   7.732   3.373
 5132SOL    HW225866   5.499   7.626   3.497
 5133SOL     OW25867   2.205   8.435   0.283
 5133SOL    HW125868   2.117   8.407   0.322
 5133SOL    HW225869   2.273   8.364   0.298
 5134SOL     OW25870   4.741   8.608   2.867
 5134SOL    HW125871   4.735   8.549   2.787
 5134SOL    HW225872   4.676   8.683   2.858
 5135SOL     OW25873   1.524   1.028   2.055
 5135SOL    HW125874   1.541   0.930   2.059
 5135SOL    HW225875   1.563   1.072   2.136
 5136SOL     OW25876   3.514   2.028   1.679
 5136SOL    HW125877   3.551   2.116   1.710
 5136SOL    HW225878   3.476   2.039   1.587
 5137SOL     OW25879   0.735   7.275   1.212
 5137SOL    HW125880   0.781   7.342   1.154
 5137SOL    HW225881   0.694   7.204   1.154
 5138SOL     OW25882   7.561   9.034   2.950
 5138SOL    HW125883   7.631   8.989   2.895
 5138SOL    HW225884   7.489   8.968   2.973
 5139SOL     OW25885   2.009   6.120   0.125
 5139SOL    HW125886   1.966   6.037   0.159
 5139SOL    HW225887   1.942   6.195   0.128
 5140SOL     OW25888   0.054   9.918   2.974
 5140SOL    HW125889   9.974   9.913   2.915
 5140SOL    HW225890   0.024   9.929   3.069
 5141SOL     OW25891   8.012   8.998   1.884
 5141SOL    HW125892   8.008   9.097   1.874
 5141SOL    HW225893   7.961   8.955   1.810
 5142SOL     OW25894   0.072   9.291   2.783
 5142SOL    HW125895   0.079   9.390   2.799
 5142SOL    HW225896   0.152   9.245   2.823
 5143SOL     OW25897   3.315   2.119   0.194
 5143SOL    HW125898   3.395   2.073   0.233
 5143SOL    HW225899   3.233   2.065   0.213
 5144SOL     OW25900   0.392   9.882   1.597
 5144SOL    HW125901   0.352   9.973   1.588
 5144SOL    HW225902   0.364   9.842   1.685
 5145SOL     OW25903   4.046   8.065   2.324
 5145SOL    HW125904   4.061   8.030   2.231
 5145SOL    HW225905   4.132   8.102   2.359
 5146SOL     OW25906   8.257   3.849   3.168
 5146SOL    HW125907   8.292   3.939   3.143
 5146SOL    HW225908   8.274   3.784   3.094
 5147SOL     OW25909   5.406   8.454   2.627
 5147SOL    HW125910   5.438   8.498   2.543
 5147SOL    HW225911   5.480   8.400   2.667
 5148SOL     OW25912   4.704   1.880   1.346
 5148SOL    HW125913   4.764   1.864   1.268
 5148SOL    HW225914   4.748   1.944   1.409
 5149SOL     OW25915   2.309   2.791   2.490
 5149SOL    HW125916   2.271   2.713   2.439
 5149SOL    HW225917   2.400   2.768   2.523
 5150SOL     OW25918   3.113   2.994   0.282
 5150SOL    HW125919   3.121   2.900   0.315
 5150SOL    HW225920   3.060   2.994   0.197
 5151SOL     OW25921   5.214   8.616   2.068
 5151SOL    HW125922   5.182   8.550   2.136
 5151SOL    HW225923   5.137   8.670   2.034
 5152SOL     OW25924   3.555   4.504   3.653
 5152SOL    HW125925   3.566   4.468   3.746
 5152SOL    HW225926   3.465   4.479   3.617
 5153SOL     OW25927   9.544   2.363   0.616
 5153SOL    HW125928   9.539   2.271   0.576
 5153SOL    HW225929   9.614   2.365   0.687
 5154SOL     OW25930   3.205   0.254   3.060
 5154SOL    HW125931   3.177   0.195   3.136
 5154SOL    HW225932   3.167   0.218   2.975
 5155SOL     OW25933   2.958   2.771   1.278
 5155SOL    HW125934   2.882   2.825   1.314
 5155SOL    HW225935   3.022   2.750   1.351
 5156SOL     OW25936   1.753   3.806   2.204
 5156SOL    HW125937   1.759   3.795   2.303
 5156SOL    HW225938   1.711   3.725   2.164
 5157SOL     OW25939   9.851   9.828   3.742
 5157SOL    HW125940   9.864   9.734   3.709
 5157SOL    HW225941   9.913   9.845   3.818
 5158SOL     OW25942   9.391   7.232   1.996
 5158SOL    HW125943   9.336   7.207   1.917
 5158SOL    HW225944   9.366   7.175   2.074
 5159SOL     OW25945   2.945   1.625   0.842
 5159SOL    HW125946   2.981   1.666   0.759
 5159SOL    HW225947   2.995   1.659   0.921
 5160SOL     OW25948   2.547   1.714   0.280
 5160SOL    HW125949   2.568   1.802   0.324
 5160SOL    HW225950   2.454   1.686   0.304
 5161SOL     OW25951   7.285   6.819   2.683
 5161SOL    HW125952   7.218   6.796   2.755
 5161SOL    HW225953   7.241   6.877   2.615
 5162SOL     OW25954   9.890   7.014   3.027
 5162SOL    HW125955   9.899   7.100   3.075
 5162SOL    HW225956   9.958   6.949   3.062
 5163SOL     OW25957   9.954   8.054   2.508
 5163SOL    HW125958   9.974   8.053   2.606
 5163SOL    HW225959   9.860   8.083   2.493
 5164SOL     OW25960   8.083   8.516   3.656
 5164SOL    HW125961   8.028   8.581   3.708
 5164SOL    HW225962   8.110   8.557   3.569
 5165SOL     OW25963   1.976   6.846   3.251
 5165SOL    HW125964   2.024   6.775   3.302
 5165SOL    HW225965   2.038   6.922   3.233
 5166SOL     OW25966   7.741   8.777   2.517
 5166SOL    HW125967   7.799   8.696   2.519
 5166SOL    HW225968   7.668   8.764   2.450
 5167SOL     OW25969   3.711   7.856   2.208
 5167SOL    HW125970   3.613   7.858   2.188
 5167SOL    HW225971   3.728   7.795   2.285
 5168SOL     OW25972   9.403   2.167   2.705
 5168SOL    HW125973   9.334   2.150   2.775
 5168SOL    HW225974   9.432   2.080   2.664
 5169SOL     OW25975   2.564   3.691   2.211
 5169SOL    HW125976   2.557   3.592   2.200
 5169SOL    HW225977   2.546   3.736   2.123
 5170SOL     OW25978   4.265   8.379   1.547
 5170SOL    HW125979   4.216   8.292   1.553
 5170SOL    HW225980   4.208   8.446   1.500
 5171SOL     OW25981   9.703   9.075   3.232
 5171SOL    HW125982   9.794   9.037   3.215
 5171SOL    HW225983   9.634   9.014   3.192
 5172SOL     OW25984   9.878   3.213   1.542
 5172SOL    HW125985   9.887   3.113   1.547
 5172SOL    HW225986   9.788   3.236   1.505
 5173SOL     OW25987   2.653   0.299   0.324
 5173SOL    HW125988   2.565   0.309   0.278
 5173SOL    HW225989   2.647   0.227   0.393
 5174SOL     OW25990   4.050   7.971   2.620
 5174SOL    HW125991   4.071   7.978   2.523
 5174SOL    HW225992   3.951   7.970   2.633
 5175SOL     OW25993   3.508   7.511   3.175
 5175SOL    HW125994   3.415   7.504   3.139
 5175SOL    HW225995   3.543   7.419   3.192
 5176SOL     OW25996   3.727   1.621   3.260
 5176SOL    HW125997   3.725   1.657   3.166
 5176SOL    HW225998   3.643   1.647   3.308
 5177SOL     OW25999   2.675   9.990   2.789
 5177SOL    HW126000   2.613   0.066   2.808
 5177SOL    HW226001   2.640   9.907   2.832
 5178SOL     OW26002   3.932   2.104   0.950
 5178SOL    HW126003   3.954   2.060   0.863
 5178SOL    HW226004   3.843   2.148   0.944
 5179SOL     OW26005   3.667   6.134   2.294
 5179SOL    HW126006   3.705   6.223   2.272
 5179SOL    HW226007   3.595   6.111   2.228
 5180SOL     OW26008   8.743   0.803   1.936
 5180SOL    HW126009   8.780   0.798   2.029
 5180SOL    HW226010   8.648   0.773   1.936
 5181SOL     OW26011   2.055   8.990   2.761
 5181SOL    HW126012   2.143   9.038   2.763
 5181SOL    HW226013   2.034   8.962   2.668
 5182SOL     OW26014   3.645   8.691   2.882
 5182SOL    HW126015   3.574   8.717   2.817
 5182SOL    HW226016   3.602   8.658   2.966
 5183SOL     OW26017   5.788   6.544   2.441
 5183SOL    HW126018   5.759   6.640   2.448
 5183SOL    HW226019   5.861   6.536   2.374
 5184SOL     OW26020   1.117   8.729   2.113
 5184SOL    HW126021   1.204   8.735   2.064
 5184SOL    HW226022   1.123   8.659   2.184
 5185SOL     OW26023   3.346   8.392   1.244
 5185SOL    HW126024   3.261   8.374   1.195
 5185SOL    HW226025   3.399   8.460   1.194
 5186SOL     OW26026   8.757   1.592   3.737
 5186SOL    HW126027   8.661   1.576   3.717
 5186SOL    HW226028   8.810   1.510   3.716
 5187SOL     OW26029   3.983   4.340   1.491
 5187SOL    HW126030   3.918   4.279   1.537
 5187SOL    HW226031   3.967   4.337   1.392
 5188SOL     OW26032   9.311   9.982   2.852
 5188SOL    HW126033   9.262   9.901   2.818
 5188SOL    HW226034   9.285   9.998   2.948
 5189SOL     OW26035   9.668   9.982   1.189
 5189SOL    HW126036   9.633   9.890   1.169
 5189SOL    HW226037   9.731   0.010   1.117
 5190SOL     OW26038   1.246   1.208   1.531
 5190SOL    HW126039   1.275   1.123   1.574
 5190SOL    HW226040   1.155   1.233   1.565
 5191SOL     OW26041   6.803   0.014   0.386
 5191SOL    HW126042   6.875   0.044   0.448
 5191SOL    HW226043   6.757   9.934   0.425
 5192SOL     OW26044   2.669   3.408   0.439
 5192SOL    HW126045   2.689   3.506   0.440
 5192SOL    HW226046   2.707   3.367   0.356
 5193SOL     OW26047   3.083   4.279   0.878
 5193SOL    HW126048   3.144   4.217   0.927
 5193SOL    HW226049   3.104   4.373   0.905
 5194SOL     OW26050   2.321   7.551   3.391
 5194SOL    HW126051   2.331   7.585   3.298
 5194SOL    HW226052   2.388   7.478   3.407
 5195SOL     OW26053   2.049   7.299   1.966
 5195SOL    HW126054   1.979   7.364   1.936
 5195SOL    HW226055   2.138   7.344   1.966
 5196SOL     OW26056   1.173   3.400   0.945
 5196SOL    HW126057   1.170   3.492   0.982
 5196SOL    HW226058   1.243   3.395   0.874
 5197SOL     OW26059   9.884   9.207   2.955
 5197SOL    HW126060   9.951   9.230   2.884
 5197SOL    HW226061   9.928   9.208   3.045
 5198SOL     OW26062   2.315   8.181   1.053
 5198SOL    HW126063   2.234   8.229   1.088
 5198SOL    HW226064   2.389   8.189   1.120
 5199SOL     OW26065   8.646   7.952   1.087
 5199SOL    HW126066   8.733   7.911   1.059
 5199SOL    HW226067   8.573   7.922   1.025
 5200SOL     OW26068   5.821   9.700   2.725
 5200SOL    HW126069   5.787   9.745   2.808
 5200SOL    HW226070   5.790   9.605   2.722
 5201SOL     OW26071   9.695   7.274   2.673
 5201SOL    HW126072   9.607   7.277   2.720
 5201SOL    HW226073   9.765   7.237   2.735
 5202SOL     OW26074   0.236   6.371   3.430
 5202SOL    HW126075   0.275   6.280   3.412
 5202SOL    HW226076   0.136   6.365   3.429
 5203SOL     OW26077   8.026   9.231   2.974
 5203SOL    HW126078   8.003   9.138   2.944
 5203SOL    HW226079   8.125   9.244   2.967
 5204SOL     OW26080   1.257   7.626   2.610
 5204SOL    HW126081   1.205   7.694   2.558
 5204SOL    HW226082   1.295   7.669   2.692
 5205SOL     OW26083   0.936   1.262   2.153
 5205SOL    HW126084   1.029   1.296   2.163
 5205SOL    HW226085   0.879   1.300   2.225
 5206SOL     OW26086   1.397   3.614   1.094
 5206SOL    HW126087   1.393   3.713   1.078
 5206SOL    HW226088   1.492   3.583   1.084
 5207SOL     OW26089   8.221   2.178   1.432
 5207SOL    HW126090   8.233   2.164   1.334
 5207SOL    HW226091   8.275   2.257   1.460
 5208SOL     OW26092   1.344   3.736   2.460
 5208SOL    HW126093   1.429   3.684   2.448
 5208SOL    HW226094   1.314   3.728   2.555
 5209SOL     OW26095   2.785   1.380   2.736
 5209SOL    HW126096   2.855   1.310   2.720
 5209SOL    HW226097   2.794   1.416   2.829
 5210SOL     OW26098   0.434   1.631   2.522
 5210SOL    HW126099   0.486   1.662   2.602
 5210SOL    HW226100   0.337   1.652   2.536
 5211SOL     OW26101   9.458   8.489   3.124
 5211SOL    HW126102   9.516   8.418   3.085
 5211SOL    HW226103   9.381   8.506   3.063
 5212SOL     OW26104   4.148   2.630   2.919
 5212SOL    HW126105   4.064   2.621   2.866
 5212SOL    HW226106   4.196   2.713   2.892
 5213SOL     OW26107   0.290   1.289   1.285
 5213SOL    HW126108   0.221   1.297   1.356
 5213SOL    HW226109   0.246   1.265   1.198
 5214SOL     OW26110   8.866   4.177   0.840
 5214SOL    HW126111   8.771   4.208   0.834
 5214SOL    HW226112   8.925   4.255   0.864
 5215SOL     OW26113   2.226   0.170   1.836
 5215SOL    HW126114   2.126   0.168   1.838
 5215SOL    HW226115   2.262   0.091   1.884
 5216SOL     OW26116   2.596   5.288   0.446
 5216SOL    HW126117   2.556   5.356   0.384
 5216SOL    HW226118   2.633   5.334   0.526
 5217SOL     OW26119   4.578   0.559   0.429
 5217SOL    HW126120   4.644   0.573   0.503
 5217SOL    HW226121   4.539   0.467   0.437
 5218SOL     OW26122   2.631   3.561   0.890
 5218SOL    HW126123   2.601   3.502   0.816
 5218SOL    HW226124   2.554   3.581   0.951
 5219SOL     OW26125   3.564   5.694   3.506
 5219SOL    HW126126   3.597   5.775   3.555
 5219SOL    HW226127   3.481   5.718   3.455
 5220SOL     OW26128   1.194   9.742   0.972
 5220SOL    HW126129   1.233   9.763   1.061
 5220SOL    HW226130   1.128   9.813   0.946
 5221SOL     OW26131   8.534   4.273   2.195
 5221SOL    HW126132   8.465   4.233   2.256
 5221SOL    HW226133   8.568   4.359   2.234
 5222SOL     OW26134   0.187   5.919   2.037
 5222SOL    HW126135   0.119   5.918   1.963
 5222SOL    HW226136   0.143   5.944   2.123
 5223SOL     OW26137   8.602   7.424   0.696
 5223SOL    HW126138   8.513   7.458   0.665
 5223SOL    HW226139   8.659   7.502   0.724
 5224SOL     OW26140   9.362   8.944   1.689
 5224SOL    HW126141   9.336   8.862   1.638
 5224SOL    HW226142   9.282   9.004   1.697
 5225SOL     OW26143   9.218   2.612   3.270
 5225SOL    HW126144   9.242   2.657   3.184
 5225SOL    HW226145   9.142   2.662   3.313
 5226SOL     OW26146   8.781   6.990   2.523
 5226SOL    HW126147   8.771   6.891   2.522
 5226SOL    HW226148   8.691   7.033   2.515
 5227SOL     OW26149   2.386   5.237   1.807
 5227SOL    HW126150   2.446   5.213   1.883
 5227SOL    HW226151   2.293   5.206   1.826
 5228SOL     OW26152   3.108   6.112   0.784
 5228SOL    HW126153   3.129   6.184   0.718
 5228SOL    HW226154   3.168   6.123   0.864
 5229SOL     OW26155   0.024   2.222   0.584
 5229SOL    HW126156   0.016   2.317   0.556
 5229SOL    HW226157   0.120   2.194   0.579
 5230SOL     OW26158   3.019   2.175   0.755
 5230SOL    HW126159   3.096   2.235   0.778
 5230SOL    HW226160   3.047   2.109   0.686
 5231SOL     OW26161   1.925   0.207   2.558
 5231SOL    HW126162   1.863   0.142   2.514
 5231SOL    HW226163   2.004   0.158   2.595
 5232SOL     OW26164   5.743   9.841   2.952
 5232SOL    HW126165   5.681   9.894   3.010
 5232SOL    HW226166   5.834   9.838   2.994
 5233SOL     OW26167   1.409   2.892   1.995
 5233SOL    HW126168   1.493   2.842   2.016
 5233SOL    HW226169   1.377   2.867   1.904
 5234SOL     OW26170   0.296   2.681   1.834
 5234SOL    HW126171   0.350   2.598   1.822
 5234SOL    HW226172   0.355   2.755   1.865
 5235SOL     OW26173   7.528   6.184   3.316
 5235SOL    HW126174   7.537   6.283   3.306
 5235SOL    HW226175   7.601   6.138   3.264
 5236SOL     OW26176   1.654   1.127   0.850
 5236SOL    HW126177   1.584   1.056   0.848
 5236SOL    HW226178   1.619   1.207   0.899
 5237SOL     OW26179   0.537   1.066   0.683
 5237SOL    HW126180   0.516   1.110   0.770
 5237SOL    HW226181   0.553   1.136   0.613
 5238SOL     OW26182   1.889   8.413   0.660
 5238SOL    HW126183   1.977   8.411   0.708
 5238SOL    HW226184   1.820   8.367   0.715
 5239SOL     OW26185   2.481   0.182   2.865
 5239SOL    HW126186   2.477   0.214   2.960
 5239SOL    HW226187   2.456   0.258   2.804
 5240SOL     OW26188   0.193   1.877   2.776
 5240SOL    HW126189   0.181   1.807   2.706
 5240SOL    HW226190   0.148   1.961   2.747
 5241SOL     OW26191   2.289   9.093   0.739
 5241SOL    HW126192   2.242   9.179   0.717
 5241SOL    HW226193   2.361   9.077   0.672
 5242SOL     OW26194   4.140   1.608   2.029
 5242SOL    HW126195   4.149   1.540   1.957
 5242SOL    HW226196   4.224   1.662   2.035
 5243SOL     OW26197   2.266   7.113   2.796
 5243SOL    HW126198   2.187   7.108   2.858
 5243SOL    HW226199   2.254   7.190   2.734
 5244SOL     OW26200   3.378   0.963   3.605
 5244SOL    HW126201   3.278   0.961   3.611
 5244SOL    HW226202   3.410   0.883   3.553
 5245SOL     OW26203   5.194   9.781   2.365
 5245SOL    HW126204   5.096   9.763   2.358
 5245SOL    HW226205   5.213   9.826   2.452
 5246SOL     OW26206   8.376   8.725   3.470
 5246SOL    HW126207   8.421   8.708   3.382
 5246SOL    HW226208   8.279   8.702   3.463
 5247SOL     OW26209   9.442   5.224   1.041
 5247SOL    HW126210   9.507   5.150   1.054
 5247SOL    HW226211   9.357   5.204   1.090
 5248SOL     OW26212   0.890   4.878   1.982
 5248SOL    HW126213   0.792   4.862   1.991
 5248SOL    HW226214   0.910   4.915   1.892
 5249SOL     OW26215   4.408   3.492   1.819
 5249SOL    HW126216   4.404   3.551   1.899
 5249SOL    HW226217   4.331   3.428   1.821
 5250SOL     OW26218   3.006   7.371   0.126
 5250SOL    HW126219   2.907   7.363   0.135
 5250SOL    HW226220   3.047   7.375   0.217
 5251SOL     OW26221   1.849   4.254   0.579
 5251SOL    HW126222   1.859   4.170   0.631
 5251SOL    HW226223   1.878   4.239   0.484
 5252SOL     OW26224   2.943   7.762   0.199
 5252SOL    HW126225   3.012   7.719   0.256
 5252SOL    HW226226   2.974   7.853   0.172
 5253SOL     OW26227   3.406   0.035   1.783
 5253SOL    HW126228   3.364   9.974   1.850
 5253SOL    HW226229   3.425   0.123   1.827
 5254SOL     OW26230   8.581   9.152   3.613
 5254SOL    HW126231   8.675   9.179   3.635
 5254SOL    HW226232   8.571   9.053   3.625
 5255SOL     OW26233   8.907   4.109   2.357
 5255SOL    HW126234   8.929   4.171   2.281
 5255SOL    HW226235   8.864   4.027   2.321
 5256SOL     OW26236   0.886   1.417   3.697
 5256SOL    HW126237   0.824   1.465   3.634
 5256SOL    HW226238   0.978   1.455   3.688
 5257SOL     OW26239   8.964   4.738   1.703
 5257SOL    HW126240   9.049   4.739   1.651
 5257SOL    HW226241   8.935   4.831   1.723
 5258SOL     OW26242   2.694   3.570   2.944
 5258SOL    HW126243   2.695   3.555   2.845
 5258SOL    HW226244   2.695   3.482   2.991
 5259SOL     OW26245   1.650   8.622   2.650
 5259SOL    HW126246   1.666   8.617   2.749
 5259SOL    HW226247   1.671   8.714   2.618
 5260SOL     OW26248   2.570   9.853   1.406
 5260SOL    HW126249   2.572   9.856   1.506
 5260SOL    HW226250   2.661   9.876   1.370
 5261SOL     OW26251   5.829   0.838   2.813
 5261SOL    HW126252   5.921   0.801   2.824
 5261SOL    HW226253   5.762   0.767   2.836
 5262SOL     OW26254   9.075   8.183   0.862
 5262SOL    HW126255   8.982   8.176   0.827
 5262SOL    HW226256   9.120   8.263   0.822
 5263SOL     OW26257   8.607   0.599   0.999
 5263SOL    HW126258   8.650   0.598   1.090
 5263SOL    HW226259   8.665   0.550   0.935
 5264SOL     OW26260   3.939   2.993   1.782
 5264SOL    HW126261   3.953   3.087   1.814
 5264SOL    HW226262   4.020   2.938   1.801
 5265SOL     OW26263   7.559   7.603   2.147
 5265SOL    HW126264   7.580   7.699   2.132
 5265SOL    HW226265   7.547   7.558   2.058
 5266SOL     OW26266   6.923   9.179   1.905
 5266SOL    HW126267   6.971   9.168   1.818
 5266SOL    HW226268   6.983   9.152   1.980
 5267SOL     OW26269   9.884   9.703   2.673
 5267SOL    HW126270   9.798   9.682   2.625
 5267SOL    HW226271   9.871   9.783   2.731
 5268SOL     OW26272   1.327   3.285   2.640
 5268SOL    HW126273   1.298   3.193   2.664
 5268SOL    HW226274   1.402   3.313   2.700
 5269SOL     OW26275   3.206   6.875   2.723
 5269SOL    HW126276   3.241   6.958   2.765
 5269SOL    HW226277   3.280   6.807   2.719
 5270SOL     OW26278   4.507   4.510   0.820
 5270SOL    HW126279   4.431   4.573   0.835
 5270SOL    HW226280   4.473   4.416   0.817
 5271SOL     OW26281   8.809   2.676   0.447
 5271SOL    HW126282   8.837   2.644   0.537
 5271SOL    HW226283   8.888   2.677   0.385
 5272SOL     OW26284   8.881   9.424   0.647
 5272SOL    HW126285   8.936   9.404   0.566
 5272SOL    HW226286   8.814   9.350   0.661
 5273SOL     OW26287   1.121   7.584   1.197
 5273SOL    HW126288   1.034   7.541   1.173
 5273SOL    HW226289   1.165   7.619   1.114
 5274SOL     OW26290   7.293   6.130   3.174
 5274SOL    HW126291   7.363   6.148   3.242
 5274SOL    HW226292   7.209   6.180   3.197
 5275SOL     OW26293   3.340   2.677   2.556
 5275SOL    HW126294   3.439   2.691   2.565
 5275SOL    HW226295   3.323   2.584   2.521
 5276SOL     OW26296   4.952   7.251   2.969
 5276SOL    HW126297   4.958   7.290   2.877
 5276SOL    HW226298   5.043   7.223   2.999
 5277SOL     OW26299   8.767   7.407   2.586
 5277SOL    HW126300   8.681   7.432   2.541
 5277SOL    HW226301   8.760   7.426   2.684
 5278SOL     OW26302   0.634   8.271   1.429
 5278SOL    HW126303   0.565   8.344   1.419
 5278SOL    HW226304   0.708   8.303   1.488
 5279SOL     OW26305   0.465   6.842   1.565
 5279SOL    HW126306   0.372   6.822   1.595
 5279SOL    HW226307   0.529   6.819   1.639
 5280SOL     OW26308   9.029   1.689   2.569
 5280SOL    HW126309   8.946   1.639   2.596
 5280SOL    HW226310   9.011   1.787   2.572
 5281SOL     OW26311   0.362   9.166   3.686
 5281SOL    HW126312   0.335   9.093   3.623
 5281SOL    HW226313   0.380   9.127   3.776
 5282SOL     OW26314   2.277   5.183   2.323
 5282SOL    HW126315   2.287   5.237   2.406
 5282SOL    HW226316   2.248   5.243   2.248
 5283SOL     OW26317   2.112   5.413   2.696
 5283SOL    HW126318   2.128   5.511   2.689
 5283SOL    HW226319   2.057   5.383   2.618
 5284SOL     OW26320   8.017   9.933   1.853
 5284SOL    HW126321   8.082   9.858   1.843
 5284SOL    HW226322   8.063   0.020   1.834
 5285SOL     OW26323   2.624   9.945   0.194
 5285SOL    HW126324   2.704   9.889   0.216
 5285SOL    HW226325   2.648   0.014   0.126
 5286SOL     OW26326   4.606   0.877   2.938
 5286SOL    HW126327   4.606   0.914   2.846
 5286SOL    HW226328   4.533   0.809   2.946
 5287SOL     OW26329   1.698   8.375   3.581
 5287SOL    HW126330   1.667   8.294   3.631
 5287SOL    HW226331   1.661   8.372   3.488
 5288SOL     OW26332   7.415   6.640   3.681
 5288SOL    HW126333   7.397   6.545   3.655
 5288SOL    HW226334   7.513   6.652   3.697
 5289SOL     OW26335   1.986   6.984   0.316
 5289SOL    HW126336   2.023   7.018   0.403
 5289SOL    HW226337   2.051   7.001   0.242
 5290SOL     OW26338   4.555   2.472   1.808
 5290SOL    HW126339   4.641   2.452   1.760
 5290SOL    HW226340   4.498   2.530   1.750
 5291SOL     OW26341   1.955   1.064   2.980
 5291SOL    HW126342   1.882   1.121   3.019
 5291SOL    HW226343   1.948   1.065   2.881
 5292SOL     OW26344   7.658   9.432   0.996
 5292SOL    HW126345   7.677   9.366   0.924
 5292SOL    HW226346   7.561   9.428   1.020
 5293SOL     OW26347   1.495   4.423   1.322
 5293SOL    HW126348   1.509   4.348   1.257
 5293SOL    HW226349   1.582   4.445   1.367
 5294SOL     OW26350   2.443   0.940   2.661
 5294SOL    HW126351   2.438   1.029   2.616
 5294SOL    HW226352   2.493   0.876   2.603
 5295SOL     OW26353   3.196   5.830   1.861
 5295SOL    HW126354   3.165   5.791   1.948
 5295SOL    HW226355   3.244   5.759   1.809
 5296SOL     OW26356   1.463   6.520   3.700
 5296SOL    HW126357   1.540   6.456   3.697
 5296SOL    HW226358   1.378   6.469   3.712
 5297SOL     OW26359   7.532   0.357   3.222
 5297SOL    HW126360   7.479   0.325   3.143
 5297SOL    HW226361   7.629   0.341   3.206
 5298SOL     OW26362   2.174   5.336   3.489
 5298SOL    HW126363   2.230   5.409   3.529
 5298SOL    HW226364   2.079   5.366   3.483
 5299SOL     OW26365   3.442   3.332   1.538
 5299SOL    HW126366   3.449   3.409   1.601
 5299SOL    HW226367   3.467   3.362   1.446
 5300SOL     OW26368   3.508   4.889   1.992
 5300SOL    HW126369   3.584   4.929   1.941
 5300SOL    HW226370   3.424   4.899   1.940
 5301SOL     OW26371   0.604   4.629   1.222
 5301SOL    HW126372   0.519   4.671   1.252
 5301SOL    HW226373   0.669   4.700   1.195
 5302SOL     OW26374   2.363   2.345   0.729
 5302SOL    HW126375   2.350   2.246   0.739
 5302SOL    HW226376   2.385   2.366   0.633
 5303SOL     OW26377   9.967   9.858   1.549
 5303SOL    HW126378   0.024   9.824   1.624
 5303SOL    HW226379   9.964   9.958   1.552
 5304SOL     OW26380   2.848   6.095   3.002
 5304SOL    HW126381   2.905   6.175   3.021
 5304SOL    HW226382   2.871   6.022   3.066
 5305SOL     OW26383   3.835   4.817   1.505
 5305SOL    HW126384   3.790   4.735   1.541
 5305SOL    HW226385   3.804   4.897   1.555
 5306SOL     OW26386   2.848   3.945   1.418
 5306SOL    HW126387   2.836   3.895   1.504
 5306SOL    HW226388   2.941   3.932   1.384
 5307SOL     OW26389   8.761   5.266   2.105
 5307SOL    HW126390   8.735   5.192   2.044
 5307SOL    HW226391   8.805   5.339   2.052
 5308SOL     OW26392   2.751   7.052   0.933
 5308SOL    HW126393   2.777   7.149   0.925
 5308SOL    HW226394   2.770   7.005   0.847
 5309SOL     OW26395   8.678   5.024   2.645
 5309SOL    HW126396   8.752   5.053   2.705
 5309SOL    HW226397   8.601   5.087   2.653
 5310SOL     OW26398   0.369   0.975   3.378
 5310SOL    HW126399   0.445   0.918   3.347
 5310SOL    HW226400   0.285   0.945   3.333
 5311SOL     OW26401   2.674   3.330   3.083
 5311SOL    HW126402   2.731   3.268   3.137
 5311SOL    HW226403   2.586   3.342   3.129
 5312SOL     OW26404   4.724   1.315   3.470
 5312SOL    HW126405   4.661   1.282   3.539
 5312SOL    HW226406   4.766   1.238   3.423
 5313SOL     OW26407   4.371   9.984   0.800
 5313SOL    HW126408   4.308   0.038   0.856
 5313SOL    HW226409   4.373   0.022   0.707
 5314SOL     OW26410   7.041   7.656   3.162
 5314SOL    HW126411   7.048   7.611   3.074
 5314SOL    HW226412   6.947   7.688   3.176
 5315SOL     OW26413   3.258   4.118   1.020
 5315SOL    HW126414   3.229   4.126   1.116
 5315SOL    HW226415   3.248   4.023   0.991
 5316SOL     OW26416   9.613   7.087   2.296
 5316SOL    HW126417   9.698   7.098   2.348
 5316SOL    HW226418   9.571   7.176   2.280
 5317SOL     OW26419   2.845   8.992   3.366
 5317SOL    HW126420   2.789   8.979   3.447
 5317SOL    HW226421   2.839   8.910   3.308
 5318SOL     OW26422   8.387   3.719   0.569
 5318SOL    HW126423   8.325   3.724   0.647
 5318SOL    HW226424   8.395   3.623   0.540
 5319SOL     OW26425   2.639   9.197   3.173
 5319SOL    HW126426   2.682   9.287   3.180
 5319SOL    HW226427   2.604   9.169   3.263
 5320SOL     OW26428   1.141   2.387   2.536
 5320SOL    HW126429   1.123   2.299   2.491
 5320SOL    HW226430   1.141   2.373   2.635
 5321SOL     OW26431   2.252   6.779   0.456
 5321SOL    HW126432   2.327   6.750   0.515
 5321SOL    HW226433   2.174   6.807   0.512
 5322SOL     OW26434   0.265   7.429   3.316
 5322SOL    HW126435   0.306   7.513   3.281
 5322SOL    HW226436   0.257   7.362   3.242
 5323SOL     OW26437   3.861   7.933   0.313
 5323SOL    HW126438   3.864   7.834   0.322
 5323SOL    HW226439   3.770   7.961   0.282
 5324SOL     OW26440   6.824   0.052   2.902
 5324SOL    HW126441   6.828   0.129   2.966
 5324SOL    HW226442   6.858   9.969   2.947
 5325SOL     OW26443   7.622   0.333   2.134
 5325SOL    HW126444   7.649   0.388   2.055
 5325SOL    HW226445   7.704   0.300   2.181
 5326SOL     OW26446   8.333   8.464   0.987
 5326SOL    HW126447   8.416   8.410   0.976
 5326SOL    HW226448   8.300   8.456   1.081
 5327SOL     OW26449   9.571   6.382   3.197
 5327SOL    HW126450   9.629   6.330   3.260
 5327SOL    HW226451   9.594   6.358   3.103
 5328SOL     OW26452   2.224   2.222   3.345
 5328SOL    HW126453   2.298   2.249   3.283
 5328SOL    HW226454   2.263   2.192   3.432
 5329SOL     OW26455   2.601   3.048   3.379
 5329SOL    HW126456   2.641   2.960   3.354
 5329SOL    HW226457   2.517   3.062   3.328
 5330SOL     OW26458   6.933   6.642   3.073
 5330SOL    HW126459   6.962   6.552   3.106
 5330SOL    HW226460   6.930   6.707   3.149
 5331SOL     OW26461   9.851   4.392   1.955
 5331SOL    HW126462   9.844   4.434   2.046
 5331SOL    HW226463   9.876   4.296   1.964
 5332SOL     OW26464   3.529   2.695   3.763
 5332SOL    HW126465   3.543   2.679   3.860
 5332SOL    HW226466   3.587   2.634   3.710
 5333SOL     OW26467   7.936   8.271   2.562
 5333SOL    HW126468   7.901   8.241   2.650
 5333SOL    HW226469   8.019   8.219   2.540
 5334SOL     OW26470   3.937   0.559   2.845
 5334SOL    HW126471   3.994   0.478   2.829
 5334SOL    HW226472   3.861   0.536   2.906
 5335SOL     OW26473   7.880   9.124   0.525
 5335SOL    HW126474   7.948   9.059   0.492
 5335SOL    HW226475   7.909   9.217   0.504
 5336SOL     OW26476   7.899   0.789   2.630
 5336SOL    HW126477   7.971   0.856   2.647
 5336SOL    HW226478   7.877   0.788   2.533
 5337SOL     OW26479   3.999   5.828   2.531
 5337SOL    HW126480   4.034   5.739   2.501
 5337SOL    HW226481   3.964   5.879   2.453
 5338SOL     OW26482   0.240   6.058   1.555
 5338SOL    HW126483   0.260   6.126   1.484
 5338SOL    HW226484   0.146   6.069   1.587
 5339SOL     OW26485   1.403   6.751   3.571
 5339SOL    HW126486   1.471   6.824   3.567
 5339SOL    HW226487   1.441   6.673   3.621
 5340SOL     OW26488   2.931   4.882   1.568
 5340SOL    HW126489   2.853   4.823   1.587
 5340SOL    HW226490   2.900   4.964   1.520
 5341SOL     OW26491   2.694   7.648   0.810
 5341SOL    HW126492   2.693   7.580   0.737
 5341SOL    HW226493   2.604   7.690   0.818
 5342SOL     OW26494   3.246   8.321   3.313
 5342SOL    HW126495   3.159   8.367   3.297
 5342SOL    HW226496   3.229   8.229   3.350
 5343SOL     OW26497   3.328   2.908   0.748
 5343SOL    HW126498   3.383   2.985   0.780
 5343SOL    HW226499   3.334   2.902   0.649
 5344SOL     OW26500   9.648   5.025   1.084
 5344SOL    HW126501   9.636   4.990   1.177
 5344SOL    HW226502   9.694   4.956   1.028
 5345SOL     OW26503   6.651   8.576   2.181
 5345SOL    HW126504   6.580   8.604   2.246
 5345SOL    HW226505   6.649   8.637   2.102
 5346SOL     OW26506   7.196   1.145   2.977
 5346SOL    HW126507   7.231   1.088   2.903
 5346SOL    HW226508   7.132   1.092   3.033
 5347SOL     OW26509   8.364   8.966   0.490
 5347SOL    HW126510   8.411   8.942   0.405
 5347SOL    HW226511   8.395   9.056   0.521
 5348SOL     OW26512   2.308   9.107   2.762
 5348SOL    HW126513   2.336   9.027   2.710
 5348SOL    HW226514   2.379   9.129   2.829
 5349SOL     OW26515   0.707   0.119   1.360
 5349SOL    HW126516   0.684   0.034   1.313
 5349SOL    HW226517   0.748   0.183   1.295
 5350SOL     OW26518   9.930   8.888   1.127
 5350SOL    HW126519   0.016   8.905   1.078
 5350SOL    HW226520   9.927   8.792   1.155
 5351SOL     OW26521   0.842   8.955   0.364
 5351SOL    HW126522   0.856   9.030   0.429
 5351SOL    HW226523   0.778   8.889   0.403
 5352SOL     OW26524   2.500   6.222   2.180
 5352SOL    HW126525   2.591   6.184   2.194
 5352SOL    HW226526   2.452   6.168   2.111
 5353SOL     OW26527   0.732   2.738   0.755
 5353SOL    HW126528   0.704   2.682   0.676
 5353SOL    HW226529   0.807   2.798   0.728
 5354SOL     OW26530   4.304   9.172   3.687
 5354SOL    HW126531   4.280   9.177   3.784
 5354SOL    HW226532   4.240   9.112   3.640
 5355SOL     OW26533   2.236   1.889   0.415
 5355SOL    HW126534   2.163   1.892   0.484
 5355SOL    HW226535   2.255   1.795   0.390
 5356SOL     OW26536   7.662   1.892   0.118
 5356SOL    HW126537   7.718   1.833   0.176
 5356SOL    HW226538   7.623   1.838   0.044
 5357SOL     OW26539   7.624   0.339   2.879
 5357SOL    HW126540   7.688   0.263   2.894
 5357SOL    HW226541   7.537   0.318   2.923
 5358SOL     OW26542   1.866   1.782   2.931
 5358SOL    HW126543   1.908   1.745   3.014
 5358SOL    HW226544   1.864   1.711   2.861
 5359SOL     OW26545   0.552   0.227   1.861
 5359SOL    HW126546   0.568   0.200   1.766
 5359SOL    HW226547   0.499   0.155   1.907
 5360SOL     OW26548   9.226   6.936   3.091
 5360SOL    HW126549   9.169   6.996   3.147
 5360SOL    HW226550   9.236   6.977   3.000
 5361SOL     OW26551   1.845   5.893   0.677
 5361SOL    HW126552   1.896   5.854   0.599
 5361SOL    HW226553   1.902   5.888   0.759
 5362SOL     OW26554   9.611   0.042   3.360
 5362SOL    HW126555   9.573   0.135   3.357
 5362SOL    HW226556   9.650   0.025   3.450
 5363SOL     OW26557   0.740   3.070   1.613
 5363SOL    HW126558   0.687   2.993   1.648
 5363SOL    HW226559   0.820   3.036   1.564
 5364SOL     OW26560   9.981   6.099   1.630
 5364SOL    HW126561   9.985   6.042   1.712
 5364SOL    HW226562   9.933   6.184   1.651
 5365SOL     OW26563   4.730   9.360   3.621
 5365SOL    HW126564   4.776   9.444   3.651
 5365SOL    HW226565   4.785   9.315   3.551
 5366SOL     OW26566   3.193   9.800   2.439
 5366SOL    HW126567   3.155   9.891   2.456
 5366SOL    HW226568   3.182   9.777   2.343
 5367SOL     OW26569   3.780   9.466   3.392
 5367SOL    HW126570   3.789   9.411   3.308
 5367SOL    HW226571   3.845   9.542   3.388
 5368SOL     OW26572   2.022   6.794   0.619
 5368SOL    HW126573   1.982   6.859   0.684
 5368SOL    HW226574   1.955   6.774   0.547
 5369SOL     OW26575   1.154   8.559   1.465
 5369SOL    HW126576   1.166   8.658   1.450
 5369SOL    HW226577   1.090   8.523   1.397
 5370SOL     OW26578   1.341   9.116   2.390
 5370SOL    HW126579   1.250   9.117   2.349
 5370SOL    HW226580   1.334   9.136   2.487
 5371SOL     OW26581   2.899   5.853   1.373
 5371SOL    HW126582   2.984   5.804   1.351
 5371SOL    HW226583   2.842   5.859   1.291
 5372SOL     OW26584   4.616   7.877   0.068
 5372SOL    HW126585   4.547   7.934   0.113
 5372SOL    HW226586   4.605   7.883   4.750
 5373SOL     OW26587   0.875   6.899   2.795
 5373SOL    HW126588   0.945   6.956   2.751
 5373SOL    HW226589   0.920   6.822   2.840
 5374SOL     OW26590   6.840   9.444   3.184
 5374SOL    HW126591   6.795   9.500   3.114
 5374SOL    HW226592   6.938   9.466   3.186
 5375SOL     OW26593   1.651   6.509   0.713
 5375SOL    HW126594   1.743   6.482   0.741
 5375SOL    HW226595   1.650   6.530   0.615
 5376SOL     OW26596   8.221   2.250   0.428
 5376SOL    HW126597   8.122   2.262   0.433
 5376SOL    HW226598   8.242   2.165   0.379
 5377SOL     OW26599   3.322   1.453   1.851
 5377SOL    HW126600   3.284   1.364   1.828
 5377SOL    HW226601   3.417   1.457   1.823
 5378SOL     OW26602   3.387   9.455   2.783
 5378SOL    HW126603   3.484   9.438   2.801
 5378SOL    HW226604   3.378   9.519   2.707
 5379SOL     OW26605   8.471   9.714   0.911
 5379SOL    HW126606   8.374   9.739   0.915
 5379SOL    HW226607   8.524   9.776   0.968
 5380SOL     OW26608   3.582   4.697   0.417
 5380SOL    HW126609   3.673   4.731   0.393
 5380SOL    HW226610   3.566   4.610   0.370
 5381SOL     OW26611   4.065   2.731   0.105
 5381SOL    HW126612   4.051   2.647   0.157
 5381SOL    HW226613   3.978   2.779   0.094
 5382SOL     OW26614   9.806   6.697   2.291
 5382SOL    HW126615   9.833   6.605   2.263
 5382SOL    HW226616   9.884   6.744   2.330
 5383SOL     OW26617   8.714   8.651   0.165
 5383SOL    HW126618   8.617   8.634   0.182
 5383SOL    HW226619   8.769   8.581   0.210
 5384SOL     OW26620   8.567   7.079   1.981
 5384SOL    HW126621   8.575   6.989   2.022
 5384SOL    HW226622   8.481   7.122   2.010
 5385SOL     OW26623   3.343   8.789   1.226
 5385SOL    HW126624   3.388   8.709   1.187
 5385SOL    HW226625   3.411   8.860   1.244
 5386SOL     OW26626   2.042   8.397   2.950
 5386SOL    HW126627   2.020   8.330   2.879
 5386SOL    HW226628   1.962   8.452   2.971
 5387SOL     OW26629   2.562   0.121   0.549
 5387SOL    HW126630   2.509   0.206   0.553
 5387SOL    HW226631   2.499   0.043   0.555
 5388SOL     OW26632   1.830   1.136   3.539
 5388SOL    HW126633   1.924   1.105   3.537
 5388SOL    HW226634   1.775   1.072   3.593
 5389SOL     OW26635   6.617   7.713   2.279
 5389SOL    HW126636   6.576   7.790   2.228
 5389SOL    HW226637   6.544   7.659   2.320
 5390SOL     OW26638   2.181   3.630   2.221
 5390SOL    HW126639   2.114   3.590   2.283
 5390SOL    HW226640   2.196   3.569   2.143
 5391SOL     OW26641   0.913   1.944   0.193
 5391SOL    HW126642   0.950   1.854   0.169
 5391SOL    HW226643   0.815   1.936   0.212
 5392SOL     OW26644   8.920   1.133   3.315
 5392SOL    HW126645   8.845   1.077   3.279
 5392SOL    HW226646   8.887   1.225   3.335
 5393SOL     OW26647   1.789   7.938   1.829
 5393SOL    HW126648   1.837   7.969   1.911
 5393SOL    HW226649   1.830   7.981   1.749
 5394SOL     OW26650   1.258   4.850   3.158
 5394SOL    HW126651   1.196   4.802   3.096
 5394SOL    HW226652   1.228   4.944   3.169
 5395SOL     OW26653   9.096   3.312   2.061
 5395SOL    HW126654   9.078   3.216   2.084
 5395SOL    HW226655   9.065   3.370   2.136
 5396SOL     OW26656   9.243   1.709   1.047
 5396SOL    HW126657   9.178   1.633   1.042
 5396SOL    HW226658   9.207   1.779   1.108
 5397SOL     OW26659   6.359   7.977   3.110
 5397SOL    HW126660   6.298   8.018   3.178
 5397SOL    HW226661   6.330   8.005   3.018
 5398SOL     OW26662   2.848   0.445   1.926
 5398SOL    HW126663   2.906   0.514   1.883
 5398SOL    HW226664   2.821   0.377   1.857
 5399SOL     OW26665   0.082   3.011   0.191
 5399SOL    HW126666   0.037   3.088   0.146
 5399SOL    HW226667   0.094   2.936   0.125
 5400SOL     OW26668   1.220   0.858   0.482
 5400SOL    HW126669   1.163   0.866   0.564
 5400SOL    HW226670   1.162   0.837   0.403
 5401SOL     OW26671   0.235   0.874   1.871
 5401SOL    HW126672   0.204   0.946   1.933
 5401SOL    HW226673   0.223   0.903   1.777
 5402SOL     OW26674   7.730   5.819   3.105
 5402SOL    HW126675   7.800   5.783   3.167
 5402SOL    HW226676   7.712   5.915   3.128
 5403SOL     OW26677   6.913   9.643   2.610
 5403SOL    HW126678   6.869   9.573   2.667
 5403SOL    HW226679   6.988   9.685   2.662
 5404SOL     OW26680   9.000   8.836   3.001
 5404SOL    HW126681   8.966   8.747   3.030
 5404SOL    HW226682   9.027   8.832   2.905
 5405SOL     OW26683   4.846   8.565   0.318
 5405SOL    HW126684   4.886   8.506   0.248
 5405SOL    HW226685   4.757   8.597   0.287
 5406SOL     OW26686   1.405   2.746   3.739
 5406SOL    HW126687   1.311   2.771   3.719
 5406SOL    HW226688   1.408   2.686   3.819
 5407SOL     OW26689   9.820   7.550   2.271
 5407SOL    HW126690   9.862   7.636   2.300
 5407SOL    HW226691   9.761   7.516   2.344
 5408SOL     OW26692   5.420   9.518   2.690
 5408SOL    HW126693   5.462   9.429   2.671
 5408SOL    HW226694   5.388   9.520   2.785
 5409SOL     OW26695   8.018   8.567   3.177
 5409SOL    HW126696   7.992   8.475   3.147
 5409SOL    HW226697   8.102   8.595   3.130
 5410SOL     OW26698   8.272   9.668   1.311
 5410SOL    HW126699   8.202   9.738   1.296
 5410SOL    HW226700   8.252   9.589   1.254
 5411SOL     OW26701   2.849   3.771   1.641
 5411SOL    HW126702   2.826   3.689   1.588
 5411SOL    HW226703   2.835   3.753   1.738
 5412SOL     OW26704   5.052   0.036   2.582
 5412SOL    HW126705   5.118   9.962   2.596
 5412SOL    HW226706   5.060   0.071   2.488
 5413SOL     OW26707   4.666   2.993   0.544
 5413SOL    HW126708   4.601   2.918   0.539
 5413SOL    HW226709   4.661   3.037   0.634
 5414SOL     OW26710   8.400   8.053   3.589
 5414SOL    HW126711   8.357   8.124   3.645
 5414SOL    HW226712   8.329   7.993   3.553
 5415SOL     OW26713   4.306   9.196   1.812
 5415SOL    HW126714   4.296   9.272   1.748
 5415SOL    HW226715   4.302   9.110   1.761
 5416SOL     OW26716   8.444   9.463   1.026
 5416SOL    HW126717   8.464   9.548   0.977
 5416SOL    HW226718   8.348   9.460   1.051
 5417SOL     OW26719   6.292   0.178   2.441
 5417SOL    HW126720   6.355   0.255   2.451
 5417SOL    HW226721   6.309   0.112   2.514
 5418SOL     OW26722   9.363   7.656   2.316
 5418SOL    HW126723   9.397   7.603   2.238
 5418SOL    HW226724   9.263   7.660   2.312
 5419SOL     OW26725   3.757   4.197   2.085
 5419SOL    HW126726   3.681   4.252   2.119
 5419SOL    HW226727   3.820   4.178   2.160
 5420SOL     OW26728   0.665   1.334   2.847
 5420SOL    HW126729   0.634   1.263   2.910
 5420SOL    HW226730   0.593   1.352   2.780
 5421SOL     OW26731   0.599   1.012   1.131
 5421SOL    HW126732   0.670   0.974   1.071
 5421SOL    HW226733   0.564   0.940   1.191
 5422SOL     OW26734   0.293   6.663   2.765
 5422SOL    HW126735   0.283   6.731   2.837
 5422SOL    HW226736   0.386   6.628   2.765
 5423SOL     OW26737   0.026   5.197   2.597
 5423SOL    HW126738   0.049   5.196   2.499
 5423SOL    HW226739   0.091   5.254   2.646
 5424SOL     OW26740   3.027   9.120   0.753
 5424SOL    HW126741   2.991   9.038   0.708
 5424SOL    HW226742   3.015   9.199   0.694
 5425SOL     OW26743   1.100   3.941   0.450
 5425SOL    HW126744   1.110   3.963   0.547
 5425SOL    HW226745   1.012   3.895   0.435
 5426SOL     OW26746   8.150   2.535   2.129
 5426SOL    HW126747   8.131   2.437   2.141
 5426SOL    HW226748   8.190   2.551   2.039
 5427SOL     OW26749   0.686   4.411   0.438
 5427SOL    HW126750   0.645   4.331   0.393
 5427SOL    HW226751   0.642   4.426   0.526
 5428SOL     OW26752   0.183   5.781   3.429
 5428SOL    HW126753   0.280   5.788   3.406
 5428SOL    HW226754   0.147   5.694   3.396
 5429SOL     OW26755   8.205   7.249   2.344
 5429SOL    HW126756   8.194   7.155   2.311
 5429SOL    HW226757   8.176   7.313   2.274
 5430SOL     OW26758   3.647   5.047   0.203
 5430SOL    HW126759   3.654   5.108   0.124
 5430SOL    HW226760   3.655   4.952   0.173
 5431SOL     OW26761   4.678   4.782   1.151
 5431SOL    HW126762   4.755   4.751   1.095
 5431SOL    HW226763   4.708   4.856   1.211
 5432SOL     OW26764   7.802   3.431   0.545
 5432SOL    HW126765   7.812   3.530   0.552
 5432SOL    HW226766   7.890   3.387   0.565
 5433SOL     OW26767   6.346   7.557   2.992
 5433SOL    HW126768   6.291   7.616   3.051
 5433SOL    HW226769   6.306   7.554   2.901
 5434SOL     OW26770   9.607   7.834   1.784
 5434SOL    HW126771   9.597   7.735   1.778
 5434SOL    HW226772   9.704   7.858   1.782
 5435SOL     OW26773   8.621   9.271   0.952
 5435SOL    HW126774   8.558   9.345   0.977
 5435SOL    HW226775   8.708   9.284   0.999
 5436SOL     OW26776   3.100   2.946   2.074
 5436SOL    HW126777   3.112   3.045   2.071
 5436SOL    HW226778   3.004   2.924   2.085
 5437SOL     OW26779   6.096   0.843   2.297
 5437SOL    HW126780   6.196   0.843   2.296
 5437SOL    HW226781   6.062   0.853   2.204
 5438SOL     OW26782   3.030   4.648   2.868
 5438SOL    HW126783   3.031   4.623   2.771
 5438SOL    HW226784   2.958   4.715   2.885
 5439SOL     OW26785   2.677   4.008   0.354
 5439SOL    HW126786   2.646   3.943   0.285
 5439SOL    HW226787   2.735   3.961   0.421
 5440SOL     OW26788   4.372   3.245   0.171
 5440SOL    HW126789   4.292   3.191   0.197
 5440SOL    HW226790   4.451   3.214   0.224
 5441SOL     OW26791   3.114   4.344   1.769
 5441SOL    HW126792   3.043   4.340   1.840
 5441SOL    HW226793   3.193   4.394   1.804
 5442SOL     OW26794   2.028   7.106   2.929
 5442SOL    HW126795   1.974   7.157   2.862
 5442SOL    HW226796   1.989   7.015   2.941
 5443SOL     OW26797   8.266   1.604   1.838
 5443SOL    HW126798   8.246   1.536   1.767
 5443SOL    HW226799   8.294   1.556   1.922
 5444SOL     OW26800   9.261   6.979   0.698
 5444SOL    HW126801   9.343   7.035   0.685
 5444SOL    HW226802   9.196   6.999   0.625
 5445SOL     OW26803   1.108   5.986   1.529
 5445SOL    HW126804   1.147   5.894   1.531
 5445SOL    HW226805   1.017   5.985   1.570
 5446SOL     OW26806   8.509   2.892   2.271
 5446SOL    HW126807   8.460   2.869   2.355
 5446SOL    HW226808   8.500   2.817   2.205
 5447SOL     OW26809   4.483   7.191   2.481
 5447SOL    HW126810   4.408   7.194   2.547
 5447SOL    HW226811   4.570   7.196   2.530
 5448SOL     OW26812   7.777   2.168   1.280
 5448SOL    HW126813   7.764   2.091   1.217
 5448SOL    HW226814   7.795   2.251   1.227
 5449SOL     OW26815   3.032   5.353   2.376
 5449SOL    HW126816   3.003   5.264   2.412
 5449SOL    HW226817   2.993   5.426   2.432
 5450SOL     OW26818   7.805   1.098   1.322
 5450SOL    HW126819   7.752   1.172   1.281
 5450SOL    HW226820   7.896   1.132   1.348
 5451SOL     OW26821   7.161   7.666   2.161
 5451SOL    HW126822   7.226   7.614   2.218
 5451SOL    HW226823   7.191   7.761   2.154
 5452SOL     OW26824   9.014   2.766   3.394
 5452SOL    HW126825   9.047   2.756   3.488
 5452SOL    HW226826   8.914   2.765   3.394
 5453SOL     OW26827   7.693   0.049   0.503
 5453SOL    HW126828   7.699   0.077   0.598
 5453SOL    HW226829   7.599   0.023   0.481
 5454SOL     OW26830   8.545   7.697   2.260
 5454SOL    HW126831   8.514   7.692   2.166
 5454SOL    HW226832   8.473   7.736   2.317
 5455SOL     OW26833   1.058   9.070   3.705
 5455SOL    HW126834   1.078   9.045   3.610
 5455SOL    HW226835   0.963   9.049   3.726
 5456SOL     OW26836   2.295   4.950   0.624
 5456SOL    HW126837   2.392   4.933   0.638
 5456SOL    HW226838   2.243   4.913   0.701
 5457SOL     OW26839   3.718   0.958   3.238
 5457SOL    HW126840   3.738   0.920   3.329
 5457SOL    HW226841   3.721   0.885   3.170
 5458SOL     OW26842   6.654   9.326   2.567
 5458SOL    HW126843   6.614   9.387   2.499
 5458SOL    HW226844   6.716   9.261   2.522
 5459SOL     OW26845   9.574   5.547   1.958
 5459SOL    HW126846   9.589   5.563   2.055
 5459SOL    HW226847   9.477   5.527   1.942
 5460SOL     OW26848   3.256   5.999   2.459
 5460SOL    HW126849   3.205   5.996   2.545
 5460SOL    HW226850   3.315   6.079   2.458
 5461SOL     OW26851   0.085   8.487   2.409
 5461SOL    HW126852   0.093   8.579   2.446
 5461SOL    HW226853   0.124   8.483   2.317
 5462SOL     OW26854   3.912   7.045   0.303
 5462SOL    HW126855   3.974   7.105   0.253
 5462SOL    HW226856   3.823   7.042   0.257
 5463SOL     OW26857   1.605   8.413   2.483
 5463SOL    HW126858   1.615   8.487   2.549
 5463SOL    HW226859   1.518   8.421   2.436
 5464SOL     OW26860   1.877   3.115   0.393
 5464SOL    HW126861   1.956   3.080   0.343
 5464SOL    HW226862   1.854   3.052   0.468
 5465SOL     OW26863   2.264   7.919   0.982
 5465SOL    HW126864   2.284   8.015   1.000
 5465SOL    HW226865   2.165   7.904   0.987
 5466SOL     OW26866   9.224   2.146   3.376
 5466SOL    HW126867   9.305   2.167   3.432
 5466SOL    HW226868   9.221   2.209   3.298
 5467SOL     OW26869   5.018   1.854   2.662
 5467SOL    HW126870   5.054   1.939   2.702
 5467SOL    HW226871   4.971   1.875   2.576
 5468SOL     OW26872   0.962   7.417   1.615
 5468SOL    HW126873   1.027   7.348   1.582
 5468SOL    HW226874   0.881   7.416   1.556
 5469SOL     OW26875   2.144   2.568   1.437
 5469SOL    HW126876   2.121   2.568   1.534
 5469SOL    HW226877   2.213   2.639   1.419
 5470SOL     OW26878   3.465   5.687   3.108
 5470SOL    HW126879   3.547   5.630   3.109
 5470SOL    HW226880   3.461   5.738   3.022
 5471SOL     OW26881   8.403   2.007   2.919
 5471SOL    HW126882   8.449   2.084   2.962
 5471SOL    HW226883   8.446   1.922   2.949
 5472SOL     OW26884   2.163   7.824   3.230
 5472SOL    HW126885   2.232   7.761   3.194
 5472SOL    HW226886   2.083   7.772   3.260
 5473SOL     OW26887   3.558   7.627   1.496
 5473SOL    HW126888   3.649   7.598   1.468
 5473SOL    HW226889   3.565   7.711   1.550
 5474SOL     OW26890   7.797   3.101   0.799
 5474SOL    HW126891   7.755   3.011   0.811
 5474SOL    HW226892   7.734   3.160   0.748
 5475SOL     OW26893   9.034   6.530   1.858
 5475SOL    HW126894   9.110   6.559   1.800
 5475SOL    HW226895   9.057   6.442   1.901
 5476SOL     OW26896   0.431   1.383   2.685
 5476SOL    HW126897   0.397   1.438   2.762
 5476SOL    HW226898   0.429   1.438   2.602
 5477SOL     OW26899   4.910   3.039   0.427
 5477SOL    HW126900   4.823   3.022   0.474
 5477SOL    HW226901   4.917   3.136   0.404
 5478SOL     OW26902   3.277   6.812   2.429
 5478SOL    HW126903   3.369   6.771   2.438
 5478SOL    HW226904   3.253   6.858   2.514
 5479SOL     OW26905   2.410   8.055   2.978
 5479SOL    HW126906   2.311   8.056   2.987
 5479SOL    HW226907   2.435   8.057   2.881
 5480SOL     OW26908   8.012   9.235   1.063
 5480SOL    HW126909   7.994   9.149   1.110
 5480SOL    HW226910   8.008   9.221   0.964
 5481SOL     OW26911   3.443   7.721   1.260
 5481SOL    HW126912   3.475   7.687   1.348
 5481SOL    HW226913   3.521   7.729   1.197
 5482SOL     OW26914   3.519   2.539   1.657
 5482SOL    HW126915   3.561   2.524   1.746
 5482SOL    HW226916   3.478   2.453   1.625
 5483SOL     OW26917   3.373   3.469   2.528
 5483SOL    HW126918   3.449   3.497   2.587
 5483SOL    HW226919   3.404   3.471   2.433
 5484SOL     OW26920   5.200   7.796   2.018
 5484SOL    HW126921   5.139   7.874   2.033
 5484SOL    HW226922   5.153   7.728   1.962
 5485SOL     OW26923   2.764   4.202   0.174
 5485SOL    HW126924   2.745   4.134   0.245
 5485SOL    HW226925   2.685   4.262   0.162
 5486SOL     OW26926   9.034   9.011   3.566
 5486SOL    HW126927   9.036   8.915   3.594
 5486SOL    HW226928   9.118   9.033   3.517
 5487SOL     OW26929   9.219   7.645   1.935
 5487SOL    HW126930   9.184   7.580   1.867
 5487SOL    HW226931   9.143   7.700   1.970
 5488SOL     OW26932   7.802   9.646   2.258
 5488SOL    HW126933   7.735   9.617   2.189
 5488SOL    HW226934   7.769   9.621   2.349
 5489SOL     OW26935   0.092   0.194   1.364
 5489SOL    HW126936   0.029   0.170   1.438
 5489SOL    HW226937   0.042   0.200   1.278
 5490SOL     OW26938   0.033   6.034   1.121
 5490SOL    HW126939   0.007   6.010   1.215
 5490SOL    HW226940   0.022   5.953   1.063
 5491SOL     OW26941   8.267   1.120   3.340
 5491SOL    HW126942   8.297   1.027   3.319
 5491SOL    HW226943   8.342   1.172   3.380
 5492SOL     OW26944   1.332   8.400   3.139
 5492SOL    HW126945   1.407   8.467   3.140
 5492SOL    HW226946   1.370   8.309   3.153
 5493SOL     OW26947   9.561   9.724   1.151
 5493SOL    HW126948   9.579   9.704   1.055
 5493SOL    HW226949   9.617   9.664   1.208
 5494SOL     OW26950   2.262   6.625   2.076
 5494SOL    HW126951   2.269   6.648   1.979
 5494SOL    HW226952   2.219   6.700   2.125
 5495SOL     OW26953   3.862   5.016   2.674
 5495SOL    HW126954   3.791   5.028   2.744
 5495SOL    HW226955   3.819   5.001   2.585
 5496SOL     OW26956   3.070   0.571   2.177
 5496SOL    HW126957   3.026   0.481   2.173
 5496SOL    HW226958   3.010   0.639   2.134
 5497SOL     OW26959   9.378   3.156   2.818
 5497SOL    HW126960   9.287   3.196   2.825
 5497SOL    HW226961   9.418   3.181   2.730
 5498SOL     OW26962   3.764   5.271   3.094
 5498SOL    HW126963   3.851   5.224   3.081
 5498SOL    HW226964   3.693   5.204   3.116
 5499SOL     OW26965   2.149   0.909   3.088
 5499SOL    HW126966   2.071   0.962   3.055
 5499SOL    HW226967   2.202   0.876   3.009
 5500SOL     OW26968   9.072   0.790   3.163
 5500SOL    HW126969   9.109   0.875   3.202
 5500SOL    HW226970   9.128   0.761   3.086
 5501SOL     OW26971   4.723   8.460   2.636
 5501SOL    HW126972   4.694   8.366   2.622
 5501SOL    HW226973   4.666   8.522   2.582
 5502SOL     OW26974   1.183   2.520   0.907
 5502SOL    HW126975   1.192   2.617   0.926
 5502SOL    HW226976   1.088   2.492   0.918
 5503SOL     OW26977   8.897   9.411   3.243
 5503SOL    HW126978   8.809   9.369   3.220
 5503SOL    HW226979   8.950   9.424   3.159
 5504SOL     OW26980   4.477   9.457   2.112
 5504SOL    HW126981   4.546   9.521   2.077
 5504SOL    HW226982   4.388   9.503   2.114
 5505SOL     OW26983   2.734   6.849   2.438
 5505SOL    HW126984   2.718   6.775   2.373
 5505SOL    HW226985   2.808   6.824   2.500
 5506SOL     OW26986   6.939   9.010   3.290
 5506SOL    HW126987   6.888   9.076   3.235
 5506SOL    HW226988   6.893   8.997   3.378
 5507SOL     OW26989   5.027   0.237   3.161
 5507SOL    HW126990   5.121   0.242   3.126
 5507SOL    HW226991   4.980   0.159   3.120
 5508SOL     OW26992   8.451   3.601   3.222
 5508SOL    HW126993   8.380   3.631   3.286
 5508SOL    HW226994   8.417   3.607   3.128
 5509SOL     OW26995   9.157   0.915   1.400
 5509SOL    HW126996   9.078   0.945   1.347
 5509SOL    HW226997   9.130   0.840   1.460
 5510SOL     OW26998   9.650   0.542   3.371
 5510SOL    HW126999   9.697   0.603   3.434
 5510SOL    HW227000   9.647   0.584   3.280
 5511SOL     OW27001   0.247   9.384   1.806
 5511SOL    HW127002   0.336   9.428   1.809
 5511SOL    HW227003   0.195   9.415   1.727
 5512SOL     OW27004   7.962   1.997   0.311
 5512SOL    HW127005   7.941   2.017   0.216
 5512SOL    HW227006   8.061   1.985   0.322
 5513SOL     OW27007   8.106   5.031   0.109
 5513SOL    HW127008   8.084   5.129   0.106
 5513SOL    HW227009   8.089   4.990   0.020
 5514SOL     OW27010   8.325   1.662   2.701
 5514SOL    HW127011   8.320   1.566   2.671
 5514SOL    HW227012   8.247   1.712   2.664
 5515SOL     OW27013   6.686   0.549   3.267
 5515SOL    HW127014   6.637   0.462   3.258
 5515SOL    HW227015   6.780   0.531   3.293
 5516SOL     OW27016   3.024   3.594   3.042
 5516SOL    HW127017   3.055   3.658   3.112
 5516SOL    HW227018   3.016   3.641   2.954
 5517SOL     OW27019   8.518   6.891   3.266
 5517SOL    HW127020   8.433   6.944   3.263
 5517SOL    HW227021   8.510   6.813   3.203
 5518SOL     OW27022   2.577   6.851   1.006
 5518SOL    HW127023   2.481   6.864   0.981
 5518SOL    HW227024   2.629   6.932   0.980
 5519SOL     OW27025   0.719   1.518   3.503
 5519SOL    HW127026   0.772   1.471   3.431
 5519SOL    HW227027   0.660   1.586   3.461
 5520SOL     OW27028   0.025   8.831   0.722
 5520SOL    HW127029   9.981   8.767   0.785
 5520SOL    HW227030   0.001   8.806   0.628
 5521SOL     OW27031   8.436   0.907   1.739
 5521SOL    HW127032   8.459   0.852   1.819
 5521SOL    HW227033   8.432   1.003   1.764
 5522SOL     OW27034   4.194   2.140   1.026
 5522SOL    HW127035   4.198   2.142   1.125
 5522SOL    HW227036   4.099   2.147   0.996
 5523SOL     OW27037   8.896   7.079   0.946
 5523SOL    HW127038   8.877   7.174   0.923
 5523SOL    HW227039   8.835   7.019   0.895
 5524SOL     OW27040   8.422   8.616   2.490
 5524SOL    HW127041   8.447   8.703   2.448
 5524SOL    HW227042   8.501   8.577   2.537
 5525SOL     OW27043   9.599   3.060   2.479
 5525SOL    HW127044   9.648   3.062   2.566
 5525SOL    HW227045   9.502   3.075   2.495
 5526SOL     OW27046   4.457   4.278   1.558
 5526SOL    HW127047   4.370   4.253   1.515
 5526SOL    HW227048   4.520   4.313   1.488
 5527SOL     OW27049   1.948   0.631   2.198
 5527SOL    HW127050   1.974   0.564   2.267
 5527SOL    HW227051   2.015   0.632   2.124
 5528SOL     OW27052   3.912   6.809   2.026
 5528SOL    HW127053   3.921   6.879   1.955
 5528SOL    HW227054   3.815   6.793   2.043
 5529SOL     OW27055   7.370   3.333   0.431
 5529SOL    HW127056   7.459   3.327   0.387
 5529SOL    HW227057   7.298   3.329   0.362
 5530SOL     OW27058   4.770   2.600   0.871
 5530SOL    HW127059   4.856   2.589   0.820
 5530SOL    HW227060   4.693   2.586   0.809
 5531SOL     OW27061   1.976   6.324   3.280
 5531SOL    HW127062   1.934   6.401   3.233
 5531SOL    HW227063   1.958   6.240   3.230
 5532SOL     OW27064   6.005   8.739   1.898
 5532SOL    HW127065   6.041   8.698   1.815
 5532SOL    HW227066   6.077   8.796   1.940
 5533SOL     OW27067   4.115   7.409   2.411
 5533SOL    HW127068   4.036   7.443   2.360
 5533SOL    HW227069   4.109   7.441   2.506
 5534SOL     OW27070   5.349   3.419   1.021
 5534SOL    HW127071   5.334   3.518   1.022
 5534SOL    HW227072   5.303   3.377   1.100
 5535SOL     OW27073   3.400   5.504   1.406
 5535SOL    HW127074   3.394   5.604   1.398
 5535SOL    HW227075   3.494   5.478   1.429
 5536SOL     OW27076   9.364   1.055   2.125
 5536SOL    HW127077   9.355   0.994   2.047
 5536SOL    HW227078   9.380   1.002   2.208
 5537SOL     OW27079   9.197   1.874   3.400
 5537SOL    HW127080   9.264   1.847   3.470
 5537SOL    HW227081   9.200   1.974   3.389
 5538SOL     OW27082   0.691   2.600   1.762
 5538SOL    HW127083   0.644   2.541   1.695
 5538SOL    HW227084   0.663   2.574   1.854
 5539SOL     OW27085   0.927   5.619   1.574
 5539SOL    HW127086   0.903   5.524   1.552
 5539SOL    HW227087   0.895   5.640   1.667
 5540SOL     OW27088   2.141   3.787   0.240
 5540SOL    HW127089   2.089   3.702   0.238
 5540SOL    HW227090   2.169   3.807   0.334
 5541SOL     OW27091   0.098   0.208   2.969
 5541SOL    HW127092   0.073   0.116   2.940
 5541SOL    HW227093   0.156   0.202   3.051
 5542SOL     OW27094   0.843   6.654   1.664
 5542SOL    HW127095   0.760   6.694   1.700
 5542SOL    HW227096   0.834   6.554   1.661
 5543SOL     OW27097   0.951   9.975   1.144
 5543SOL    HW127098   0.966   9.957   1.047
 5543SOL    HW227099   0.914   0.067   1.156
 5544SOL     OW27100   3.055   1.743   0.612
 5544SOL    HW127101   3.143   1.697   0.599
 5544SOL    HW227102   3.065   1.840   0.590
 5545SOL     OW27103   7.782   5.265   0.212
 5545SOL    HW127104   7.713   5.330   0.183
 5545SOL    HW227105   7.745   5.172   0.206
 5546SOL     OW27106   3.500   9.987   1.332
 5546SOL    HW127107   3.459   9.926   1.264
 5546SOL    HW227108   3.573   9.939   1.380
 5547SOL     OW27109   0.948   7.981   2.723
 5547SOL    HW127110   1.025   8.033   2.759
 5547SOL    HW227111   0.863   8.025   2.751
 5548SOL     OW27112   0.248   8.118   2.724
 5548SOL    HW127113   0.289   8.060   2.654
 5548SOL    HW227114   0.304   8.117   2.807
 5549SOL     OW27115   2.311   3.313   3.411
 5549SOL    HW127116   2.226   3.358   3.384
 5549SOL    HW227117   2.291   3.224   3.452
 5550SOL     OW27118   1.872   4.010   0.705
 5550SOL    HW127119   1.918   4.045   0.786
 5550SOL    HW227120   1.912   3.922   0.679
 5551SOL     OW27121   1.498   3.347   3.576
 5551SOL    HW127122   1.540   3.416   3.634
 5551SOL    HW227123   1.553   3.336   3.493
 5552SOL     OW27124   8.060   3.322   0.587
 5552SOL    HW127125   8.158   3.308   0.602
 5552SOL    HW227126   8.020   3.240   0.547
 5553SOL     OW27127   0.911   2.250   0.244
 5553SOL    HW127128   0.898   2.197   0.160
 5553SOL    HW227129   0.980   2.205   0.301
 5554SOL     OW27130   5.590   0.490   3.761
 5554SOL    HW127131   5.552   0.582   3.776
 5554SOL    HW227132   5.606   0.446   3.849
 5555SOL     OW27133   3.809   0.138   0.468
 5555SOL    HW127134   3.742   0.211   0.479
 5555SOL    HW227135   3.772   0.053   0.506
 5556SOL     OW27136   8.424   3.124   2.127
 5556SOL    HW127137   8.455   3.033   2.156
 5556SOL    HW227138   8.423   3.128   2.027
 5557SOL     OW27139   7.171   8.554   2.630
 5557SOL    HW127140   7.120   8.476   2.666
 5557SOL    HW227141   7.193   8.617   2.704
 5558SOL     OW27142   8.546   1.922   2.091
 5558SOL    HW127143   8.641   1.950   2.081
 5558SOL    HW227144   8.541   1.822   2.096
 5559SOL     OW27145   2.602   6.305   0.488
 5559SOL    HW127146   2.589   6.207   0.475
 5559SOL    HW227147   2.608   6.325   0.586
 5560SOL     OW27148   3.229   1.052   0.178
 5560SOL    HW127149   3.248   0.954   0.189
 5560SOL    HW227150   3.300   1.093   0.121
 5561SOL     OW27151   4.587   1.502   3.301
 5561SOL    HW127152   4.646   1.443   3.356
 5561SOL    HW227153   4.502   1.519   3.350
 5562SOL     OW27154   7.543   5.637   3.399
 5562SOL    HW127155   7.571   5.543   3.422
 5562SOL    HW227156   7.596   5.701   3.454
 5563SOL     OW27157   3.670   8.846   2.379
 5563SOL    HW127158   3.661   8.747   2.388
 5563SOL    HW227159   3.628   8.890   2.459
 5564SOL     OW27160   1.456   3.201   1.137
 5564SOL    HW127161   1.494   3.242   1.054
 5564SOL    HW227162   1.399   3.268   1.184
 5565SOL     OW27163   2.866   9.814   0.283
 5565SOL    HW127164   2.819   9.851   0.363
 5565SOL    HW227165   2.959   9.852   0.279
 5566SOL     OW27166   0.127   0.520   0.820
 5566SOL    HW127167   0.088   0.609   0.844
 5566SOL    HW227168   0.059   0.466   0.771
 5567SOL     OW27169   9.318   1.249   3.344
 5567SOL    HW127170   9.400   1.297   3.314
 5567SOL    HW227171   9.316   1.248   3.444
 5568SOL     OW27172   3.816   3.333   2.106
 5568SOL    HW127173   3.789   3.404   2.171
 5568SOL    HW227174   3.748   3.260   2.106
 5569SOL     OW27175   8.474   7.826   3.007
 5569SOL    HW127176   8.436   7.751   2.953
 5569SOL    HW227177   8.411   7.904   3.005
 5570SOL     OW27178   1.900   4.799   0.823
 5570SOL    HW127179   1.891   4.710   0.867
 5570SOL    HW227180   1.868   4.793   0.728
 5571SOL     OW27181   7.670   0.753   3.104
 5571SOL    HW127182   7.683   0.699   3.021
 5571SOL    HW227183   7.748   0.815   3.115
 5572SOL     OW27184   3.032   2.041   1.292
 5572SOL    HW127185   3.118   2.091   1.300
 5572SOL    HW227186   2.957   2.106   1.279
 5573SOL     OW27187   5.933   0.016   1.459
 5573SOL    HW127188   5.995   0.066   1.398
 5573SOL    HW227189   5.926   0.063   1.546
 5574SOL     OW27190   0.192   7.415   0.792
 5574SOL    HW127191   0.173   7.416   0.890
 5574SOL    HW227192   0.290   7.418   0.776
 5575SOL     OW27193   2.410   4.389   1.016
 5575SOL    HW127194   2.433   4.486   1.025
 5575SOL    HW227195   2.332   4.368   1.074
 5576SOL     OW27196   4.885   1.951   2.432
 5576SOL    HW127197   4.893   1.926   2.336
 5576SOL    HW227198   4.792   1.983   2.450
 5577SOL     OW27199   9.797   3.007   3.609
 5577SOL    HW127200   9.740   3.082   3.576
 5577SOL    HW227201   9.752   2.961   3.685
 5578SOL     OW27202   3.554   0.785   1.430
 5578SOL    HW127203   3.605   0.808   1.513
 5578SOL    HW227204   3.616   0.739   1.365
 5579SOL     OW27205   9.234   2.675   1.949
 5579SOL    HW127206   9.237   2.731   2.032
 5579SOL    HW227207   9.312   2.613   1.948
 5580SOL     OW27208   0.255   9.053   2.454
 5580SOL    HW127209   0.165   9.021   2.425
 5580SOL    HW227210   0.322   9.034   2.383
 5581SOL     OW27211   0.981   3.213   0.872
 5581SOL    HW127212   1.033   3.134   0.841
 5581SOL    HW227213   1.043   3.279   0.915
 5582SOL     OW27214   0.109   0.727   0.518
 5582SOL    HW127215   0.158   0.787   0.582
 5582SOL    HW227216   0.017   0.711   0.552
 5583SOL     OW27217   1.977   5.315   1.215
 5583SOL    HW127218   1.898   5.376   1.212
 5583SOL    HW227219   2.044   5.342   1.145
 5584SOL     OW27220   8.826   8.875   0.917
 5584SOL    HW127221   8.854   8.951   0.858
 5584SOL    HW227222   8.822   8.906   1.012
 5585SOL     OW27223   9.583   2.616   1.641
 5585SOL    HW127224   9.618   2.657   1.556
 5585SOL    HW227225   9.514   2.547   1.618
 5586SOL     OW27226   7.788   4.191   0.405
 5586SOL    HW127227   7.753   4.178   0.312
 5586SOL    HW227228   7.744   4.270   0.447
 5587SOL     OW27229   3.731   9.550   0.257
 5587SOL    HW127230   3.779   9.476   0.305
 5587SOL    HW227231   3.767   9.560   0.165
 5588SOL     OW27232   5.573   0.737   2.528
 5588SOL    HW127233   5.655   0.736   2.584
 5588SOL    HW227234   5.598   0.722   2.432
 5589SOL     OW27235   4.989   2.103   1.103
 5589SOL    HW127236   4.971   2.125   1.007
 5589SOL    HW227237   5.072   2.151   1.132
 5590SOL     OW27238   7.331   3.049   0.191
 5590SOL    HW127239   7.280   3.007   0.266
 5590SOL    HW227240   7.426   3.061   0.218
 5591SOL     OW27241   2.526   7.027   2.824
 5591SOL    HW127242   2.538   6.969   2.743
 5591SOL    HW227243   2.435   7.068   2.823
 5592SOL     OW27244   2.949   2.457   1.503
 5592SOL    HW127245   2.922   2.450   1.407
 5592SOL    HW227246   3.010   2.535   1.516
 5593SOL     OW27247   0.290   4.257   3.247
 5593SOL    HW127248   0.386   4.271   3.270
 5593SOL    HW227249   0.284   4.202   3.163
 5594SOL     OW27250   2.977   3.994   1.140
 5594SOL    HW127251   2.900   4.006   1.076
 5594SOL    HW227252   2.998   3.896   1.147
 5595SOL     OW27253   0.749   3.239   0.117
 5595SOL    HW127254   0.734   3.300   0.195
 5595SOL    HW227255   0.843   3.247   0.086
 5596SOL     OW27256   1.992   4.869   3.416
 5596SOL    HW127257   1.949   4.878   3.327
 5596SOL    HW227258   2.088   4.841   3.405
 5597SOL     OW27259   7.328   9.259   1.256
 5597SOL    HW127260   7.241   9.212   1.244
 5597SOL    HW227261   7.334   9.296   1.349
 5598SOL     OW27262   9.747   1.219   1.157
 5598SOL    HW127263   9.737   1.273   1.240
 5598SOL    HW227264   9.697   1.133   1.168
 5599SOL     OW27265   2.747   2.884   2.474
 5599SOL    HW127266   2.766   2.823   2.551
 5599SOL    HW227267   2.740   2.978   2.507
 5600SOL     OW27268   4.180   1.563   2.970
 5600SOL    HW127269   4.130   1.513   2.899
 5600SOL    HW227270   4.117   1.622   3.020
 5601SOL     OW27271   3.077   8.324   2.310
 5601SOL    HW127272   2.988   8.365   2.331
 5601SOL    HW227273   3.072   8.279   2.221
 5602SOL     OW27274   9.288   6.806   1.591
 5602SOL    HW127275   9.346   6.850   1.660
 5602SOL    HW227276   9.326   6.824   1.500
 5603SOL     OW27277   1.003   6.607   1.332
 5603SOL    HW127278   1.008   6.673   1.407
 5603SOL    HW227279   0.992   6.515   1.370
 5604SOL     OW27280   9.437   4.301   1.530
 5604SOL    HW127281   9.487   4.253   1.602
 5604SOL    HW227282   9.461   4.262   1.441
 5605SOL     OW27283   9.379   8.058   3.073
 5605SOL    HW127284   9.294   8.110   3.067
 5605SOL    HW227285   9.429   8.065   2.987
 5606SOL     OW27286   2.589   8.417   1.509
 5606SOL    HW127287   2.620   8.374   1.594
 5606SOL    HW227288   2.493   8.396   1.494
 5607SOL     OW27289   2.558   4.911   0.690
 5607SOL    HW127290   2.636   4.964   0.657
 5607SOL    HW227291   2.571   4.891   0.787
 5608SOL     OW27292   2.479   1.240   3.019
 5608SOL    HW127293   2.434   1.189   3.091
 5608SOL    HW227294   2.425   1.234   2.935
 5609SOL     OW27295   1.840   9.319   2.567
 5609SOL    HW127296   1.809   9.233   2.526
 5609SOL    HW227297   1.797   9.396   2.520
 5610SOL     OW27298   0.774   1.349   1.067
 5610SOL    HW127299   0.755   1.378   1.160
 5610SOL    HW227300   0.828   1.265   1.068
 5611SOL     OW27301   4.537   0.333   0.923
 5611SOL    HW127302   4.511   0.237   0.934
 5611SOL    HW227303   4.617   0.352   0.978
 5612SOL     OW27304   1.386   1.016   1.306
 5612SOL    HW127305   1.438   1.075   1.368
 5612SOL    HW227306   1.319   1.071   1.256
 5613SOL     OW27307   9.609   5.271   2.146
 5613SOL    HW127308   9.576   5.207   2.078
 5613SOL    HW227309   9.709   5.273   2.146
 5614SOL     OW27310   5.031   8.158   2.473
 5614SOL    HW127311   5.097   8.230   2.493
 5614SOL    HW227312   5.058   8.074   2.520
 5615SOL     OW27313   4.314   3.517   0.842
 5615SOL    HW127314   4.359   3.498   0.930
 5615SOL    HW227315   4.379   3.563   0.782
 5616SOL     OW27316   2.970   2.315   1.986
 5616SOL    HW127317   2.954   2.220   2.013
 5616SOL    HW227318   2.927   2.333   1.898
 5617SOL     OW27319   3.603   0.305   2.209
 5617SOL    HW127320   3.566   0.398   2.209
 5617SOL    HW227321   3.622   0.276   2.303
 5618SOL     OW27322   1.471   6.909   2.516
 5618SOL    HW127323   1.482   6.810   2.505
 5618SOL    HW227324   1.396   6.941   2.458
 5619SOL     OW27325   0.866   3.811   0.399
 5619SOL    HW127326   0.906   3.722   0.378
 5619SOL    HW227327   0.773   3.816   0.362
 5620SOL     OW27328   3.253   2.207   1.322
 5620SOL    HW127329   3.284   2.285   1.268
 5620SOL    HW227330   3.330   2.148   1.346
 5621SOL     OW27331   9.012   3.671   1.256
 5621SOL    HW127332   9.005   3.761   1.301
 5621SOL    HW227333   9.041   3.603   1.323
 5622SOL     OW27334   2.839   2.333   1.747
 5622SOL    HW127335   2.881   2.358   1.660
 5622SOL    HW227336   2.813   2.236   1.746
 5623SOL     OW27337   3.573   5.176   3.680
 5623SOL    HW127338   3.642   5.130   3.736
 5623SOL    HW227339   3.540   5.113   3.609
 5624SOL     OW27340   0.533   0.094   1.032
 5624SOL    HW127341   0.469   0.140   1.094
 5624SOL    HW227342   0.595   0.162   0.993
 5625SOL     OW27343   0.538   4.226   1.296
 5625SOL    HW127344   0.602   4.234   1.220
 5625SOL    HW227345   0.537   4.132   1.329
 5626SOL     OW27346   0.541   6.786   2.428
 5626SOL    HW127347   0.611   6.731   2.382
 5626SOL    HW227348   0.575   6.814   2.518
 5627SOL     OW27349   3.911   9.314   2.912
 5627SOL    HW127350   3.925   9.228   2.863
 5627SOL    HW227351   4.000   9.350   2.942
 5628SOL     OW27352   3.728   0.499   3.016
 5628SOL    HW127353   3.675   0.425   2.974
 5628SOL    HW227354   3.725   0.489   3.116
 5629SOL     OW27355   8.597   5.554   0.737
 5629SOL    HW127356   8.631   5.505   0.817
 5629SOL    HW227357   8.514   5.605   0.762
 5630SOL     OW27358   9.637   3.781   0.741
 5630SOL    HW127359   9.617   3.859   0.800
 5630SOL    HW227360   9.730   3.789   0.705
 5631SOL     OW27361   8.714   0.974   3.223
 5631SOL    HW127362   8.753   0.921   3.148
 5631SOL    HW227363   8.675   0.913   3.291
 5632SOL     OW27364   7.371   1.593   2.390
 5632SOL    HW127365   7.314   1.512   2.405
 5632SOL    HW227366   7.451   1.567   2.334
 5633SOL     OW27367   1.579   2.916   0.511
 5633SOL    HW127368   1.524   2.838   0.539
 5633SOL    HW227369   1.674   2.904   0.542
 5634SOL     OW27370   8.405   0.529   2.725
 5634SOL    HW127371   8.346   0.576   2.791
 5634SOL    HW227372   8.431   0.440   2.762
 5635SOL     OW27373   4.279   8.790   1.317
 5635SOL    HW127374   4.356   8.846   1.347
 5635SOL    HW227375   4.194   8.836   1.340
 5636SOL     OW27376   5.244   2.174   0.767
 5636SOL    HW127377   5.260   2.113   0.844
 5636SOL    HW227378   5.169   2.140   0.711
 5637SOL     OW27379   8.848   4.546   1.428
 5637SOL    HW127380   8.781   4.522   1.358
 5637SOL    HW227381   8.801   4.563   1.515
 5638SOL     OW27382   0.757   3.185   3.239
 5638SOL    HW127383   0.691   3.196   3.164
 5638SOL    HW227384   0.846   3.157   3.202
 5639SOL     OW27385   8.578   1.770   2.720
 5639SOL    HW127386   8.601   1.841   2.654
 5639SOL    HW227387   8.487   1.734   2.700
 5640SOL     OW27388   0.098   8.418   1.260
 5640SOL    HW127389   0.098   8.355   1.338
 5640SOL    HW227390   0.107   8.366   1.175
 5641SOL     OW27391   9.004   5.242   2.630
 5641SOL    HW127392   8.947   5.315   2.592
 5641SOL    HW227393   8.958   5.199   2.707
 5642SOL     OW27394   4.138   4.192   2.127
 5642SOL    HW127395   4.156   4.149   2.038
 5642SOL    HW227396   4.149   4.291   2.118
 5643SOL     OW27397   4.660   2.224   0.929
 5643SOL    HW127398   4.683   2.302   0.987
 5643SOL    HW227399   4.585   2.172   0.970
 5644SOL     OW27400   8.799   7.415   1.953
 5644SOL    HW127401   8.793   7.336   1.892
 5644SOL    HW227402   8.762   7.390   2.043
 5645SOL     OW27403   2.852   8.673   0.757
 5645SOL    HW127404   2.827   8.606   0.687
 5645SOL    HW227405   2.772   8.693   0.814
 5646SOL     OW27406   3.720   8.306   2.689
 5646SOL    HW127407   3.788   8.332   2.757
 5646SOL    HW227408   3.766   8.260   2.612
 5647SOL     OW27409   9.065   2.992   1.090
 5647SOL    HW127410   9.114   2.948   1.015
 5647SOL    HW227411   9.003   2.925   1.132
 5648SOL     OW27412   2.942   4.074   3.603
 5648SOL    HW127413   2.928   3.978   3.578
 5648SOL    HW227414   2.909   4.089   3.696
 5649SOL     OW27415   9.794   7.410   0.526
 5649SOL    HW127416   9.826   7.316   0.537
 5649SOL    HW227417   9.858   7.473   0.571
 5650SOL     OW27418   8.276   4.109   0.280
 5650SOL    HW127419   8.319   4.040   0.339
 5650SOL    HW227420   8.199   4.150   0.328
 5651SOL     OW27421   7.423   8.791   3.284
 5651SOL    HW127422   7.501   8.785   3.346
 5651SOL    HW227423   7.355   8.854   3.322
 5652SOL     OW27424   8.622   5.622   1.152
 5652SOL    HW127425   8.554   5.634   1.225
 5652SOL    HW227426   8.700   5.682   1.169
 5653SOL     OW27427   2.874   2.145   0.990
 5653SOL    HW127428   2.785   2.116   0.956
 5653SOL    HW227429   2.938   2.153   0.914
 5654SOL     OW27430   9.463   2.624   2.693
 5654SOL    HW127431   9.540   2.687   2.704
 5654SOL    HW227432   9.414   2.647   2.609
 5655SOL     OW27433   3.661   9.253   2.340
 5655SOL    HW127434   3.627   9.298   2.257
 5655SOL    HW227435   3.584   9.223   2.395
 5656SOL     OW27436   5.592   7.930   2.345
 5656SOL    HW127437   5.668   7.942   2.281
 5656SOL    HW227438   5.628   7.898   2.433
 5657SOL     OW27439   8.662   5.265   3.498
 5657SOL    HW127440   8.667   5.212   3.583
 5657SOL    HW227441   8.651   5.202   3.421
 5658SOL     OW27442   9.484   7.696   2.980
 5658SOL    HW127443   9.482   7.596   2.979
 5658SOL    HW227444   9.392   7.732   2.965
 5659SOL     OW27445   8.180   9.950   0.294
 5659SOL    HW127446   8.138   9.921   0.380
 5659SOL    HW227447   8.146   0.040   0.269
 5660SOL     OW27448   8.679   2.618   0.210
 5660SOL    HW127449   8.713   2.634   0.302
 5660SOL    HW227450   8.652   2.706   0.169
 5661SOL     OW27451   1.172   5.923   2.867
 5661SOL    HW127452   1.237   5.927   2.791
 5661SOL    HW227453   1.145   6.016   2.892
 5662SOL     OW27454   3.634   8.642   0.237
 5662SOL    HW127455   3.625   8.731   0.192
 5662SOL    HW227456   3.726   8.635   0.277
 5663SOL     OW27457   3.911   4.825   3.246
 5663SOL    HW127458   3.819   4.786   3.250
 5663SOL    HW227459   3.929   4.858   3.153
 5664SOL     OW27460   1.146   1.960   3.398
 5664SOL    HW127461   1.226   1.910   3.430
 5664SOL    HW227462   1.067   1.898   3.397
 5665SOL     OW27463   1.764   1.795   0.570
 5665SOL    HW127464   1.729   1.728   0.635
 5665SOL    HW227465   1.731   1.886   0.596
 5666SOL     OW27466   1.670   3.317   3.362
 5666SOL    HW127467   1.675   3.230   3.312
 5666SOL    HW227468   1.697   3.392   3.301
 5667SOL     OW27469   1.616   7.199   3.396
 5667SOL    HW127470   1.546   7.253   3.441
 5667SOL    HW227471   1.596   7.193   3.298
 5668SOL     OW27472   1.894   4.889   3.151
 5668SOL    HW127473   1.943   4.802   3.142
 5668SOL    HW227474   1.806   4.883   3.104
 5669SOL     OW27475   3.513   6.698   1.422
 5669SOL    HW127476   3.583   6.759   1.384
 5669SOL    HW227477   3.423   6.738   1.406
 5670SOL     OW27478   8.463   9.934   0.299
 5670SOL    HW127479   8.363   9.929   0.299
 5670SOL    HW227480   8.490   0.030   0.303
 5671SOL     OW27481   1.020   6.801   1.525
 5671SOL    HW127482   0.964   6.867   1.474
 5671SOL    HW227483   0.963   6.749   1.587
 5672SOL     OW27484   0.636   0.409   0.336
 5672SOL    HW127485   0.705   0.433   0.405
 5672SOL    HW227486   0.619   0.311   0.339
 5673SOL     OW27487   2.847   3.539   3.257
 5673SOL    HW127488   2.748   3.548   3.243
 5673SOL    HW227489   2.893   3.541   3.169
 5674SOL     OW27490   7.458   9.981   1.079
 5674SOL    HW127491   7.538   9.951   1.027
 5674SOL    HW227492   7.379   9.924   1.054
 5675SOL     OW27493   5.276   7.181   3.707
 5675SOL    HW127494   5.276   7.246   3.783
 5675SOL    HW227495   5.189   7.131   3.706
 5676SOL     OW27496   3.004   8.027   0.129
 5676SOL    HW127497   3.089   8.041   0.078
 5676SOL    HW227498   2.927   8.060   0.074
 5677SOL     OW27499   1.436   2.683   0.581
 5677SOL    HW127500   1.351   2.632   0.596
 5677SOL    HW227501   1.485   2.693   0.667
 5678SOL     OW27502   3.078   0.479   3.145
 5678SOL    HW127503   3.125   0.396   3.113
 5678SOL    HW227504   3.111   0.502   3.236
 5679SOL     OW27505   0.347   9.761   0.963
 5679SOL    HW127506   0.348   9.705   1.046
 5679SOL    HW227507   0.283   9.837   0.975
 5680SOL     OW27508   2.611   5.653   0.399
 5680SOL    HW127509   2.637   5.722   0.332
 5680SOL    HW227510   2.553   5.584   0.356
 5681SOL     OW27511   2.716   0.757   3.771
 5681SOL    HW127512   2.722   0.808   3.858
 5681SOL    HW227513   2.646   0.799   3.713
 5682SOL     OW27514   9.927   1.532   1.154
 5682SOL    HW127515   9.981   1.594   1.211
 5682SOL    HW227516   9.840   1.513   1.199
 5683SOL     OW27517   9.325   1.120   1.484
 5683SOL    HW127518   9.420   1.091   1.492
 5683SOL    HW227519   9.268   1.042   1.460
 5684SOL     OW27520   1.504   5.954   0.246
 5684SOL    HW127521   1.566   5.876   0.239
 5684SOL    HW227522   1.538   6.030   0.193
 5685SOL     OW27523   2.245   4.276   1.221
 5685SOL    HW127524   2.188   4.246   1.298
 5685SOL    HW227525   2.341   4.272   1.248
 5686SOL     OW27526   9.905   4.060   1.181
 5686SOL    HW127527   9.903   4.114   1.097
 5686SOL    HW227528   9.855   4.109   1.253
 5687SOL     OW27529   9.331   3.268   0.479
 5687SOL    HW127530   9.300   3.271   0.385
 5687SOL    HW227531   9.390   3.347   0.497
 5688SOL     OW27532   3.707   3.556   3.571
 5688SOL    HW127533   3.633   3.489   3.566
 5688SOL    HW227534   3.669   3.648   3.576
 5689SOL     OW27535   0.802   9.746   2.690
 5689SOL    HW127536   0.778   9.713   2.781
 5689SOL    HW227537   0.835   9.840   2.696
 5690SOL     OW27538   8.364   5.601   2.746
 5690SOL    HW127539   8.334   5.683   2.698
 5690SOL    HW227540   8.302   5.582   2.823
 5691SOL     OW27541   8.624   3.827   3.207
 5691SOL    HW127542   8.570   3.744   3.219
 5691SOL    HW227543   8.600   3.893   3.278
 5692SOL     OW27544   1.097   5.148   2.732
 5692SOL    HW127545   1.107   5.057   2.691
 5692SOL    HW227546   1.083   5.216   2.660
 5693SOL     OW27547   9.486   9.217   2.505
 5693SOL    HW127548   9.394   9.189   2.532
 5693SOL    HW227549   9.503   9.190   2.410
 5694SOL     OW27550   2.908   6.501   0.853
 5694SOL    HW127551   2.893   6.402   0.860
 5694SOL    HW227552   2.966   6.520   0.774
 5695SOL     OW27553   3.604   0.647   1.157
 5695SOL    HW127554   3.525   0.707   1.162
 5695SOL    HW227555   3.669   0.682   1.089
 5696SOL     OW27556   8.530   8.302   2.610
 5696SOL    HW127557   8.510   8.373   2.678
 5696SOL    HW227558   8.506   8.212   2.648
 5697SOL     OW27559   9.920   3.800   1.064
 5697SOL    HW127560   9.833   3.753   1.077
 5697SOL    HW227561   9.916   3.890   1.108
 5698SOL     OW27562   1.544   0.315   2.465
 5698SOL    HW127563   1.510   0.222   2.478
 5698SOL    HW227564   1.539   0.364   2.552
 5699SOL     OW27565   4.270   2.358   0.181
 5699SOL    HW127566   4.368   2.372   0.195
 5699SOL    HW227567   4.255   2.273   0.130
 5700SOL     OW27568   2.292   1.758   2.299
 5700SOL    HW127569   2.370   1.801   2.254
 5700SOL    HW227570   2.284   1.793   2.392
 5701SOL     OW27571   1.007   3.306   0.532
 5701SOL    HW127572   0.944   3.230   0.515
 5701SOL    HW227573   0.969   3.367   0.601
 5702SOL     OW27574   9.659   9.789   0.508
 5702SOL    HW127575   9.628   9.694   0.508
 5702SOL    HW227576   9.725   9.803   0.434
 5703SOL     OW27577   1.128   8.373   1.091
 5703SOL    HW127578   1.213   8.423   1.110
 5703SOL    HW227579   1.060   8.397   1.160
 5704SOL     OW27580   8.477   7.188   3.000
 5704SOL    HW127581   8.379   7.198   2.984
 5704SOL    HW227582   8.498   7.217   3.094
 5705SOL     OW27583   4.027   8.585   3.082
 5705SOL    HW127584   4.107   8.549   3.130
 5705SOL    HW227585   3.996   8.519   3.014
 5706SOL     OW27586   7.474   9.047   0.274
 5706SOL    HW127587   7.521   9.102   0.344
 5706SOL    HW227588   7.502   8.952   0.283
 5707SOL     OW27589   7.975   0.591   2.802
 5707SOL    HW127590   7.954   0.668   2.742
 5707SOL    HW227591   7.987   0.508   2.747
 5708SOL     OW27592   6.703   8.970   2.715
 5708SOL    HW127593   6.628   9.033   2.698
 5708SOL    HW227594   6.764   9.009   2.785
 5709SOL     OW27595   6.996   8.114   1.811
 5709SOL    HW127596   7.006   8.143   1.716
 5709SOL    HW227597   7.084   8.081   1.845
 5710SOL     OW27598   5.596   9.769   2.239
 5710SOL    HW127599   5.691   9.761   2.211
 5710SOL    HW227600   5.577   9.703   2.312
 5711SOL     OW27601   2.521   2.137   2.826
 5711SOL    HW127602   2.543   2.137   2.923
 5711SOL    HW227603   2.531   2.044   2.789
 5712SOL     OW27604   0.792   6.957   1.888
 5712SOL    HW127605   0.764   7.046   1.925
 5712SOL    HW227606   0.840   6.971   1.802
 5713SOL     OW27607   8.091   1.730   2.567
 5713SOL    HW127608   8.081   1.657   2.500
 5713SOL    HW227609   8.020   1.721   2.637
 5714SOL     OW27610   1.774   9.547   2.408
 5714SOL    HW127611   1.870   9.573   2.402
 5714SOL    HW227612   1.728   9.606   2.474
 5715SOL     OW27613   1.799   5.119   0.874
 5715SOL    HW127614   1.757   5.156   0.957
 5715SOL    HW227615   1.803   5.019   0.881
 5716SOL     OW27616   0.871   6.316   2.627
 5716SOL    HW127617   0.872   6.233   2.570
 5716SOL    HW227618   0.895   6.395   2.571
 5717SOL     OW27619   1.985   9.398   0.456
 5717SOL    HW127620   1.946   9.318   0.412
 5717SOL    HW227621   2.028   9.457   0.388
 5718SOL     OW27622   9.745   6.327   0.900
 5718SOL    HW127623   9.831   6.321   0.950
 5718SOL    HW227624   9.747   6.265   0.822
 5719SOL     OW27625   9.987   0.580   3.112
 5719SOL    HW127626   9.947   0.521   3.042
 5719SOL    HW227627   0.080   0.606   3.085
 5720SOL     OW27628   1.752   0.819   2.726
 5720SOL    HW127629   1.754   0.826   2.627
 5720SOL    HW227630   1.807   0.741   2.756
 5721SOL     OW27631   5.296   9.503   3.359
 5721SOL    HW127632   5.287   9.524   3.457
 5721SOL    HW227633   5.358   9.569   3.316
 5722SOL     OW27634   9.053   0.396   0.132
 5722SOL    HW127635   9.143   0.435   0.113
 5722SOL    HW227636   9.064   0.313   0.188
 5723SOL     OW27637   4.028   1.556   2.547
 5723SOL    HW127638   4.076   1.494   2.485
 5723SOL    HW227639   4.093   1.622   2.586
 5724SOL     OW27640   1.955   7.441   0.345
 5724SOL    HW127641   1.864   7.465   0.311
 5724SOL    HW227642   2.009   7.524   0.358
 5725SOL     OW27643   1.203   5.901   0.823
 5725SOL    HW127644   1.121   5.877   0.874
 5725SOL    HW227645   1.209   6.001   0.815
 5726SOL     OW27646   8.273   7.126   3.548
 5726SOL    HW127647   8.325   7.062   3.605
 5726SOL    HW227648   8.279   7.100   3.452
 5727SOL     OW27649   0.996   3.058   0.263
 5727SOL    HW127650   1.091   3.055   0.294
 5727SOL    HW227651   0.987   3.125   0.190
 5728SOL     OW27652   9.403   8.577   3.381
 5728SOL    HW127653   9.423   8.538   3.291
 5728SOL    HW227654   9.317   8.628   3.377
 5729SOL     OW27655   2.808   8.826   2.829
 5729SOL    HW127656   2.788   8.898   2.896
 5729SOL    HW227657   2.903   8.835   2.798
 5730SOL     OW27658   4.643   2.092   2.477
 5730SOL    HW127659   4.638   2.157   2.401
 5730SOL    HW227660   4.662   2.142   2.561
 5731SOL     OW27661   0.967   6.457   0.740
 5731SOL    HW127662   1.053   6.481   0.694
 5731SOL    HW227663   0.910   6.403   0.679
 5732SOL     OW27664   9.327   8.677   2.060
 5732SOL    HW127665   9.246   8.726   2.092
 5732SOL    HW227666   9.391   8.743   2.018
 5733SOL     OW27667   3.004   1.290   0.545
 5733SOL    HW127668   2.965   1.380   0.524
 5733SOL    HW227669   3.014   1.237   0.461
 5734SOL     OW27670   2.187   1.839   2.056
 5734SOL    HW127671   2.145   1.930   2.057
 5734SOL    HW227672   2.206   1.810   2.149
 5735SOL     OW27673   0.250   9.447   3.530
 5735SOL    HW127674   0.156   9.426   3.503
 5735SOL    HW227675   0.290   9.368   3.576
 5736SOL     OW27676   5.881   0.168   1.683
 5736SOL    HW127677   5.945   0.212   1.746
 5736SOL    HW227678   5.787   0.189   1.711
 5737SOL     OW27679   0.205   5.364   2.740
 5737SOL    HW127680   0.275   5.427   2.706
 5737SOL    HW227681   0.183   5.387   2.835
 5738SOL     OW27682   4.256   2.879   2.837
 5738SOL    HW127683   4.350   2.910   2.850
 5738SOL    HW227684   4.192   2.948   2.870
 5739SOL     OW27685   0.896   7.076   1.651
 5739SOL    HW127686   0.825   7.144   1.669
 5739SOL    HW227687   0.879   7.032   1.563
 5740SOL     OW27688   8.696   2.416   1.598
 5740SOL    HW127689   8.706   2.509   1.562
 5740SOL    HW227690   8.690   2.352   1.522
 5741SOL     OW27691   8.031   1.122   2.480
 5741SOL    HW127692   7.976   1.199   2.512
 5741SOL    HW227693   8.055   1.064   2.557
 5742SOL     OW27694   1.548   4.184   1.170
 5742SOL    HW127695   1.549   4.150   1.265
 5742SOL    HW227696   1.599   4.121   1.112
 5743SOL     OW27697   0.972   8.440   0.668
 5743SOL    HW127698   1.030   8.387   0.606
 5743SOL    HW227699   0.951   8.386   0.749
 5744SOL     OW27700   2.149   9.679   2.176
 5744SOL    HW127701   2.084   9.723   2.114
 5744SOL    HW227702   2.179   9.591   2.138
 5745SOL     OW27703   9.135   7.327   2.630
 5745SOL    HW127704   9.190   7.303   2.551
 5745SOL    HW227705   9.070   7.254   2.649
 5746SOL     OW27706   1.317   8.183   2.225
 5746SOL    HW127707   1.359   8.152   2.140
 5746SOL    HW227708   1.220   8.200   2.210
 5747SOL     OW27709   5.520   8.128   2.043
 5747SOL    HW127710   5.619   8.145   2.044
 5747SOL    HW227711   5.502   8.031   2.056
 5748SOL     OW27712   1.462   7.898   1.567
 5748SOL    HW127713   1.501   7.968   1.626
 5748SOL    HW227714   1.518   7.888   1.485
 5749SOL     OW27715   1.991   3.551   2.414
 5749SOL    HW127716   2.040   3.507   2.489
 5749SOL    HW227717   1.928   3.620   2.450
 5750SOL     OW27718   3.746   5.634   2.324
 5750SOL    HW127719   3.722   5.699   2.396
 5750SOL    HW227720   3.705   5.545   2.346
 5751SOL     OW27721   3.447   8.721   2.689
 5751SOL    HW127722   3.347   8.722   2.685
 5751SOL    HW227723   3.480   8.630   2.665
 5752SOL     OW27724   6.811   9.172   2.416
 5752SOL    HW127725   6.798   9.088   2.363
 5752SOL    HW227726   6.897   9.216   2.389
 5753SOL     OW27727   8.378   3.910   1.127
 5753SOL    HW127728   8.304   3.854   1.089
 5753SOL    HW227729   8.387   3.891   1.225
 5754SOL     OW27730   9.234   3.167   3.293
 5754SOL    HW127731   9.172   3.090   3.278
 5754SOL    HW227732   9.326   3.134   3.312
 5755SOL     OW27733   3.731   0.159   2.018
 5755SOL    HW127734   3.658   0.153   1.950
 5755SOL    HW227735   3.697   0.206   2.099
 5756SOL     OW27736   0.145   4.695   3.129
 5756SOL    HW127737   0.084   4.661   3.201
 5756SOL    HW227738   0.122   4.651   3.042
 5757SOL     OW27739   3.328   4.038   0.640
 5757SOL    HW127740   3.392   4.076   0.708
 5757SOL    HW227741   3.257   4.106   0.620
 5758SOL     OW27742   0.825   9.944   2.226
 5758SOL    HW127743   0.785   9.853   2.237
 5758SOL    HW227744   0.850   9.959   2.131
 5759SOL     OW27745   8.873   5.535   0.361
 5759SOL    HW127746   8.951   5.580   0.318
 5759SOL    HW227747   8.843   5.459   0.305
 5760SOL     OW27748   0.026   8.779   2.087
 5760SOL    HW127749   9.946   8.836   2.062
 5760SOL    HW227750   0.109   8.823   2.053
 5761SOL     OW27751   9.265   3.375   2.380
 5761SOL    HW127752   9.191   3.435   2.348
 5761SOL    HW227753   9.323   3.350   2.302
 5762SOL     OW27754   4.310   8.703   0.859
 5762SOL    HW127755   4.263   8.759   0.928
 5762SOL    HW227756   4.333   8.614   0.899
 5763SOL     OW27757   3.720   1.715   3.001
 5763SOL    HW127758   3.675   1.803   3.010
 5763SOL    HW227759   3.653   1.646   2.974
 5764SOL     OW27760   1.947   5.090   3.577
 5764SOL    HW127761   2.030   5.103   3.631
 5764SOL    HW227762   1.959   5.013   3.515
 5765SOL     OW27763   2.709   3.182   1.296
 5765SOL    HW127764   2.770   3.261   1.301
 5765SOL    HW227765   2.614   3.213   1.299
 5766SOL     OW27766   4.524   4.545   1.655
 5766SOL    HW127767   4.482   4.457   1.631
 5766SOL    HW227768   4.452   4.612   1.675
 5767SOL     OW27769   3.460   0.758   3.451
 5767SOL    HW127770   3.494   0.676   3.498
 5767SOL    HW227771   3.445   0.737   3.355
 5768SOL     OW27772   4.359   3.157   2.051
 5768SOL    HW127773   4.319   3.075   2.093
 5768SOL    HW227774   4.395   3.217   2.122
 5769SOL     OW27775   7.903   8.719   3.714
 5769SOL    HW127776   7.807   8.707   3.688
 5769SOL    HW227777   7.944   8.790   3.656
 5770SOL     OW27778   9.584   6.536   0.246
 5770SOL    HW127779   9.568   6.624   0.201
 5770SOL    HW227780   9.561   6.462   0.182
 5771SOL     OW27781   7.834   7.523   2.974
 5771SOL    HW127782   7.861   7.505   3.068
 5771SOL    HW227783   7.853   7.618   2.951
 5772SOL     OW27784   8.455   6.953   1.197
 5772SOL    HW127785   8.390   6.993   1.262
 5772SOL    HW227786   8.405   6.909   1.123
 5773SOL     OW27787   1.894   0.611   2.838
 5773SOL    HW127788   1.869   0.619   2.935
 5773SOL    HW227789   1.895   0.514   2.813
 5774SOL     OW27790   2.872   9.933   2.335
 5774SOL    HW127791   2.793   9.993   2.350
 5774SOL    HW227792   2.950   9.967   2.387
 5775SOL     OW27793   7.035   7.409   2.158
 5775SOL    HW127794   6.936   7.422   2.159
 5775SOL    HW227795   7.080   7.497   2.166
 5776SOL     OW27796   0.716   2.653   2.578
 5776SOL    HW127797   0.751   2.700   2.497
 5776SOL    HW227798   0.740   2.556   2.574
 5777SOL     OW27799   1.255   1.300   2.208
 5777SOL    HW127800   1.271   1.331   2.114
 5777SOL    HW227801   1.258   1.200   2.211
 5778SOL     OW27802   9.704   4.379   3.009
 5778SOL    HW127803   9.792   4.356   2.970
 5778SOL    HW227804   9.715   4.452   3.077
 5779SOL     OW27805   2.002   3.960   2.796
 5779SOL    HW127806   1.924   4.001   2.843
 5779SOL    HW227807   2.087   4.003   2.829
 5780SOL     OW27808   0.304   4.561   2.520
 5780SOL    HW127809   0.326   4.519   2.608
 5780SOL    HW227810   0.241   4.637   2.534
 5781SOL     OW27811   8.558   3.121   1.023
 5781SOL    HW127812   8.552   3.111   0.924
 5781SOL    HW227813   8.637   3.070   1.057
 5782SOL     OW27814   0.801   7.746   1.695
 5782SOL    HW127815   0.768   7.656   1.724
 5782SOL    HW227816   0.725   7.810   1.691
 5783SOL     OW27817   8.547   5.521   3.478
 5783SOL    HW127818   8.450   5.515   3.500
 5783SOL    HW227819   8.591   5.433   3.494
 5784SOL     OW27820   4.952   7.597   1.349
 5784SOL    HW127821   4.904   7.532   1.290
 5784SOL    HW227822   4.962   7.684   1.302
 5785SOL     OW27823   1.528   1.200   1.492
 5785SOL    HW127824   1.599   1.250   1.443
 5785SOL    HW227825   1.442   1.251   1.487
 5786SOL     OW27826   2.155   0.217   1.136
 5786SOL    HW127827   2.118   0.282   1.070
 5786SOL    HW227828   2.138   0.123   1.104
 5787SOL     OW27829   2.033   3.922   2.526
 5787SOL    HW127830   2.020   3.938   2.624
 5787SOL    HW227831   2.126   3.890   2.510
 5788SOL     OW27832   4.084   0.585   0.974
 5788SOL    HW127833   4.177   0.557   0.996
 5788SOL    HW227834   4.024   0.566   1.051
 5789SOL     OW27835   3.845   4.821   0.345
 5789SOL    HW127836   3.802   4.802   0.257
 5789SOL    HW227837   3.822   4.914   0.373
 5790SOL     OW27838   4.639   7.814   2.033
 5790SOL    HW127839   4.682   7.897   1.998
 5790SOL    HW227840   4.540   7.820   2.019
 5791SOL     OW27841   3.175   2.874   3.331
 5791SOL    HW127842   3.207   2.803   3.268
 5791SOL    HW227843   3.209   2.963   3.300
 5792SOL     OW27844   0.973   6.061   0.663
 5792SOL    HW127845   1.016   5.998   0.597
 5792SOL    HW227846   1.044   6.113   0.709
 5793SOL     OW27847   0.284   2.125   0.602
 5793SOL    HW127848   0.357   2.192   0.618
 5793SOL    HW227849   0.305   2.071   0.521
 5794SOL     OW27850   0.927   5.852   1.908
 5794SOL    HW127851   1.027   5.862   1.910
 5794SOL    HW227852   0.889   5.885   1.994
 5795SOL     OW27853   0.281   4.387   2.800
 5795SOL    HW127854   0.250   4.292   2.788
 5795SOL    HW227855   0.360   4.389   2.861
 5796SOL     OW27856   4.163   3.493   2.735
 5796SOL    HW127857   4.094   3.433   2.776
 5796SOL    HW227858   4.155   3.491   2.636
 5797SOL     OW27859   8.876   6.141   0.724
 5797SOL    HW127860   8.912   6.065   0.777
 5797SOL    HW227861   8.806   6.108   0.660
 5798SOL     OW27862   8.450   3.781   3.537
 5798SOL    HW127863   8.483   3.729   3.616
 5798SOL    HW227864   8.373   3.732   3.496
 5799SOL     OW27865   2.202   0.450   1.831
 5799SOL    HW127866   2.126   0.446   1.766
 5799SOL    HW227867   2.231   0.357   1.854
 5800SOL     OW27868   2.766   0.165   0.746
 5800SOL    HW127869   2.723   0.158   0.835
 5800SOL    HW227870   2.696   0.163   0.674
 5801SOL     OW27871   1.780   0.024   3.154
 5801SOL    HW127872   1.705   9.959   3.152
 5801SOL    HW227873   1.863   9.979   3.188
 5802SOL     OW27874   2.461   5.378   1.145
 5802SOL    HW127875   2.429   5.427   1.063
 5802SOL    HW227876   2.474   5.282   1.122
 5803SOL     OW27877   8.427   9.881   1.699
 5803SOL    HW127878   8.414   9.953   1.767
 5803SOL    HW227879   8.497   9.909   1.633
 5804SOL     OW27880   7.348   9.360   1.519
 5804SOL    HW127881   7.385   9.441   1.565
 5804SOL    HW227882   7.382   9.278   1.564
 5805SOL     OW27883   1.614   8.351   1.653
 5805SOL    HW127884   1.530   8.370   1.603
 5805SOL    HW227885   1.692   8.386   1.601
 5806SOL     OW27886   7.836   8.331   1.246
 5806SOL    HW127887   7.849   8.408   1.309
 5806SOL    HW227888   7.898   8.256   1.272
 5807SOL     OW27889   2.259   2.699   0.588
 5807SOL    HW127890   2.197   2.624   0.567
 5807SOL    HW227891   2.212   2.786   0.573
 5808SOL     OW27892   9.803   7.968   2.053
 5808SOL    HW127893   9.772   7.874   2.065
 5808SOL    HW227894   9.724   8.028   2.036
 5809SOL     OW27895   3.227   8.097   0.518
 5809SOL    HW127896   3.251   8.021   0.579
 5809SOL    HW227897   3.134   8.084   0.484
 5810SOL     OW27898   0.269   7.686   2.332
 5810SOL    HW127899   0.203   7.614   2.312
 5810SOL    HW227900   0.223   7.774   2.333
 5811SOL     OW27901   1.330   6.921   3.013
 5811SOL    HW127902   1.368   6.940   2.922
 5811SOL    HW227903   1.400   6.940   3.082
 5812SOL     OW27904   7.986   8.505   1.076
 5812SOL    HW127905   8.074   8.479   1.116
 5812SOL    HW227906   7.915   8.442   1.108
 5813SOL     OW27907   1.028   0.650   1.421
 5813SOL    HW127908   1.114   0.700   1.413
 5813SOL    HW227909   1.048   0.553   1.440
 5814SOL     OW27910   7.831   1.757   0.286
 5814SOL    HW127911   7.774   1.729   0.363
 5814SOL    HW227912   7.885   1.836   0.312
 5815SOL     OW27913   8.836   0.325   2.467
 5815SOL    HW127914   8.753   0.379   2.453
 5815SOL    HW227915   8.813   0.238   2.512
 5816SOL     OW27916   2.994   0.283   0.854
 5816SOL    HW127917   2.910   0.247   0.814
 5816SOL    HW227918   3.013   0.373   0.815
 5817SOL     OW27919   2.120   9.319   3.282
 5817SOL    HW127920   2.209   9.357   3.258
 5817SOL    HW227921   2.083   9.367   3.361
 5818SOL     OW27922   6.925   9.704   1.652
 5818SOL    HW127923   6.970   9.696   1.563
 5818SOL    HW227924   6.891   9.798   1.663
 5819SOL     OW27925   1.410   1.836   2.956
 5819SOL    HW127926   1.457   1.902   2.898
 5819SOL    HW227927   1.450   1.838   3.048
 5820SOL     OW27928   4.335   3.723   2.439
 5820SOL    HW127929   4.333   3.752   2.535
 5820SOL    HW227930   4.313   3.801   2.380
 5821SOL     OW27931   0.796   0.905   0.960
 5821SOL    HW127932   0.821   0.811   0.983
 5821SOL    HW227933   0.788   0.914   0.861
 5822SOL     OW27934   1.086   0.633   3.043
 5822SOL    HW127935   1.012   0.692   3.077
 5822SOL    HW227936   1.174   0.673   3.069
 5823SOL     OW27937   2.526   4.559   2.523
 5823SOL    HW127938   2.514   4.655   2.548
 5823SOL    HW227939   2.534   4.504   2.606
 5824SOL     OW27940   1.409   6.634   0.458
 5824SOL    HW127941   1.410   6.729   0.489
 5824SOL    HW227942   1.503   6.601   0.449
 5825SOL     OW27943   1.177   3.714   2.237
 5825SOL    HW127944   1.090   3.758   2.259
 5825SOL    HW227945   1.237   3.717   2.317
 5826SOL     OW27946   1.548   9.190   1.293
 5826SOL    HW127947   1.546   9.091   1.306
 5826SOL    HW227948   1.457   9.223   1.270
 5827SOL     OW27949   2.774   2.608   3.370
 5827SOL    HW127950   2.785   2.601   3.469
 5827SOL    HW227951   2.860   2.582   3.325
 5828SOL     OW27952   3.359   5.771   3.343
 5828SOL    HW127953   3.399   5.755   3.253
 5828SOL    HW227954   3.339   5.868   3.354
 5829SOL     OW27955   4.249   1.002   1.887
 5829SOL    HW127956   4.167   0.948   1.905
 5829SOL    HW227957   4.240   1.093   1.927
 5830SOL     OW27958   9.872   9.138   1.244
 5830SOL    HW127959   9.889   9.051   1.198
 5830SOL    HW227960   9.871   9.123   1.343
 5831SOL     OW27961   5.277   9.996   1.441
 5831SOL    HW127962   5.204   9.934   1.467
 5831SOL    HW227963   5.238   0.074   1.392
 5832SOL     OW27964   2.146   8.596   1.928
 5832SOL    HW127965   2.157   8.546   2.014
 5832SOL    HW227966   2.219   8.570   1.865
 5833SOL     OW27967   1.645   1.158   2.267
 5833SOL    HW127968   1.725   1.133   2.321
 5833SOL    HW227969   1.670   1.232   2.204
 5834SOL     OW27970   0.213   5.338   1.557
 5834SOL    HW127971   0.274   5.291   1.494
 5834SOL    HW227972   0.172   5.271   1.619
 5835SOL     OW27973   8.105   9.365   1.611
 5835SOL    HW127974   8.189   9.419   1.615
 5835SOL    HW227975   8.120   9.283   1.555
 5836SOL     OW27976   9.907   3.793   3.279
 5836SOL    HW127977   9.963   3.730   3.226
 5836SOL    HW227978   9.831   3.825   3.222
 5837SOL     OW27979   7.984   9.145   0.788
 5837SOL    HW127980   8.005   9.062   0.839
 5837SOL    HW227981   7.949   9.121   0.697
 5838SOL     OW27982   1.221   7.677   0.959
 5838SOL    HW127983   1.131   7.713   0.932
 5838SOL    HW227984   1.263   7.632   0.880
 5839SOL     OW27985   2.082   1.989   1.516
 5839SOL    HW127986   2.161   2.032   1.557
 5839SOL    HW227987   2.068   2.026   1.424
 5840SOL     OW27988   0.545   0.834   3.029
 5840SOL    HW127989   0.597   0.751   3.008
 5840SOL    HW227990   0.538   0.844   3.129
 5841SOL     OW27991   0.556   3.207   2.142
 5841SOL    HW127992   0.566   3.257   2.056
 5841SOL    HW227993   0.481   3.142   2.134
 5842SOL     OW27994   0.590   3.795   3.650
 5842SOL    HW127995   0.667   3.738   3.623
 5842SOL    HW227996   0.510   3.771   3.596
 5843SOL     OW27997   7.775   8.995   3.394
 5843SOL    HW127998   7.744   9.090   3.395
 5843SOL    HW227999   7.812   8.973   3.303
 5844SOL     OW28000   1.889   2.247   2.212
 5844SOL    HW128001   1.818   2.264   2.143
 5844SOL    HW228002   1.949   2.326   2.218
 5845SOL     OW28003   4.578   0.253   2.848
 5845SOL    HW128004   4.624   0.274   2.762
 5845SOL    HW228005   4.503   0.189   2.831
 5846SOL     OW28006   1.569   7.624   1.244
 5846SOL    HW128007   1.482   7.585   1.272
 5846SOL    HW228008   1.642   7.587   1.301
 5847SOL     OW28009   1.426   9.428   2.096
 5847SOL    HW128010   1.330   9.412   2.073
 5847SOL    HW228011   1.472   9.474   2.020
 5848SOL     OW28012   3.218   5.660   2.774
 5848SOL    HW128013   3.147   5.723   2.806
 5848SOL    HW228014   3.229   5.669   2.675
 5849SOL     OW28015   2.853   7.087   2.363
 5849SOL    HW128016   2.799   7.005   2.382
 5849SOL    HW228017   2.901   7.116   2.446
 5850SOL     OW28018   8.467   6.114   0.295
 5850SOL    HW128019   8.548   6.057   0.284
 5850SOL    HW228020   8.470   6.159   0.384
 5851SOL     OW28021   0.581   7.784   0.649
 5851SOL    HW128022   0.482   7.776   0.655
 5851SOL    HW228023   0.621   7.694   0.628
 5852SOL     OW28024   9.175   7.246   3.037
 5852SOL    HW128025   9.153   7.334   2.994
 5852SOL    HW228026   9.209   7.183   2.968
 5853SOL     OW28027   9.582   7.684   1.004
 5853SOL    HW128028   9.499   7.675   1.058
 5853SOL    HW228029   9.559   7.678   0.906
 5854SOL     OW28030   4.314   9.250   1.394
 5854SOL    HW128031   4.329   9.152   1.400
 5854SOL    HW228032   4.392   9.294   1.350
 5855SOL     OW28033   7.479   8.007   1.760
 5855SOL    HW128034   7.458   7.914   1.793
 5855SOL    HW228035   7.576   8.026   1.775
 5856SOL     OW28036   1.957   0.282   2.099
 5856SOL    HW128037   1.951   0.267   2.001
 5856SOL    HW228038   1.866   0.274   2.140
 5857SOL     OW28039   0.128   1.712   3.538
 5857SOL    HW128040   0.059   1.643   3.561
 5857SOL    HW228041   0.145   1.711   3.439
 5858SOL     OW28042   9.814   7.077   0.115
 5858SOL    HW128043   9.723   7.119   0.104
 5858SOL    HW228044   9.882   7.149   0.130
 5859SOL     OW28045   0.150   0.461   1.434
 5859SOL    HW128046   0.077   0.521   1.403
 5859SOL    HW228047   0.129   0.366   1.409
 5860SOL     OW28048   0.875   7.489   1.079
 5860SOL    HW128049   0.863   7.517   0.984
 5860SOL    HW228050   0.825   7.552   1.139
 5861SOL     OW28051   3.471   6.060   2.106
 5861SOL    HW128052   3.410   6.127   2.149
 5861SOL    HW228053   3.445   6.048   2.010
 5862SOL     OW28054   8.441   5.779   3.595
 5862SOL    HW128055   8.479   5.872   3.593
 5862SOL    HW228056   8.516   5.713   3.591
 5863SOL     OW28057   1.560   9.822   2.066
 5863SOL    HW128058   1.655   9.852   2.056
 5863SOL    HW228059   1.553   9.759   2.143
 5864SOL     OW28060   4.939   2.410   2.516
 5864SOL    HW128061   4.978   2.324   2.484
 5864SOL    HW228062   4.853   2.427   2.468
 5865SOL     OW28063   8.781   6.697   2.523
 5865SOL    HW128064   8.880   6.709   2.516
 5865SOL    HW228065   8.761   6.613   2.575
 5866SOL     OW28066   2.691   1.739   3.049
 5866SOL    HW128067   2.607   1.794   3.041
 5866SOL    HW228068   2.667   1.643   3.063
 5867SOL     OW28069   2.038   8.221   1.838
 5867SOL    HW128070   2.138   8.221   1.847
 5867SOL    HW228071   2.005   8.316   1.840
 5868SOL     OW28072   1.237   2.664   3.287
 5868SOL    HW128073   1.157   2.723   3.297
 5868SOL    HW228074   1.305   2.687   3.356
 5869SOL     OW28075   8.639   5.417   0.977
 5869SOL    HW128076   8.628   5.499   1.034
 5869SOL    HW228077   8.682   5.344   1.031
 5870SOL     OW28078   1.492   1.519   1.547
 5870SOL    HW128079   1.395   1.543   1.536
 5870SOL    HW228080   1.503   1.461   1.628
 5871SOL     OW28081   2.146   1.197   1.175
 5871SOL    HW128082   2.079   1.123   1.183
 5871SOL    HW228083   2.124   1.253   1.095
 5872SOL     OW28084   1.927   2.249   0.941
 5872SOL    HW128085   2.024   2.270   0.955
 5872SOL    HW228086   1.874   2.280   1.020
 5873SOL     OW28087   3.952   4.512   1.051
 5873SOL    HW128088   3.943   4.447   1.127
 5873SOL    HW228089   3.870   4.507   0.994
 5874SOL     OW28090   9.715   9.585   3.052
 5874SOL    HW128091   9.731   9.522   2.976
 5874SOL    HW228092   9.790   9.576   3.119
 5875SOL     OW28093   0.473   9.831   3.152
 5875SOL    HW128094   0.411   9.766   3.109
 5875SOL    HW228095   0.437   9.858   3.241
 5876SOL     OW28096   7.470   0.628   3.238
 5876SOL    HW128097   7.489   0.530   3.244
 5876SOL    HW228098   7.549   0.676   3.199
 5877SOL     OW28099   4.512   7.573   2.711
 5877SOL    HW128100   4.516   7.520   2.795
 5877SOL    HW228101   4.497   7.669   2.733
 5878SOL     OW28102   7.728   9.266   0.796
 5878SOL    HW128103   7.819   9.226   0.797
 5878SOL    HW228104   7.689   9.256   0.704
 5879SOL     OW28105   7.540   8.047   1.336
 5879SOL    HW128106   7.547   8.140   1.298
 5879SOL    HW228107   7.612   7.990   1.297
 5880SOL     OW28108   1.683   8.424   1.906
 5880SOL    HW128109   1.647   8.395   1.817
 5880SOL    HW228110   1.762   8.485   1.892
 5881SOL     OW28111   3.675   9.569   1.481
 5881SOL    HW128112   3.630   9.563   1.570
 5881SOL    HW228113   3.683   9.477   1.442
 5882SOL     OW28114   9.449   2.222   3.506
 5882SOL    HW128115   9.518   2.209   3.577
 5882SOL    HW228116   9.413   2.315   3.510
 5883SOL     OW28117   0.741   9.344   0.689
 5883SOL    HW128118   0.783   9.281   0.623
 5883SOL    HW228119   0.797   9.347   0.772
 5884SOL     OW28120   3.345   1.308   1.521
 5884SOL    HW128121   3.299   1.272   1.603
 5884SOL    HW228122   3.309   1.262   1.440
 5885SOL     OW28123   9.340   0.942   1.197
 5885SOL    HW128124   9.319   0.873   1.127
 5885SOL    HW228125   9.280   0.929   1.276
 5886SOL     OW28126   5.539   9.166   1.706
 5886SOL    HW128127   5.625   9.213   1.688
 5886SOL    HW228128   5.508   9.189   1.799
 5887SOL     OW28129   7.155   0.414   3.108
 5887SOL    HW128130   7.114   0.327   3.137
 5887SOL    HW228131   7.248   0.397   3.074
 5888SOL     OW28132   3.936   7.939   0.952
 5888SOL    HW128133   4.006   8.010   0.964
 5888SOL    HW228134   3.940   7.875   1.029
 5889SOL     OW28135   8.616   0.156   1.011
 5889SOL    HW128136   8.549   0.169   0.939
 5889SOL    HW228137   8.579   0.189   1.098
 5890SOL     OW28138   1.011   0.843   3.418
 5890SOL    HW128139   1.082   0.879   3.358
 5890SOL    HW228140   0.931   0.903   3.416
 5891SOL     OW28141   3.173   6.649   1.245
 5891SOL    HW128142   3.181   6.592   1.327
 5891SOL    HW228143   3.088   6.627   1.197
 5892SOL     OW28144   8.181   8.243   3.117
 5892SOL    HW128145   8.206   8.286   3.204
 5892SOL    HW228146   8.087   8.269   3.094
 5893SOL     OW28147   2.545   7.926   0.404
 5893SOL    HW128148   2.598   7.843   0.386
 5893SOL    HW228149   2.484   7.945   0.326
 5894SOL     OW28150   0.411   0.940   3.647
 5894SOL    HW128151   0.381   0.947   3.552
 5894SOL    HW228152   0.441   0.846   3.666
 5895SOL     OW28153   1.538   5.523   0.085
 5895SOL    HW128154   1.449   5.525   0.130
 5895SOL    HW228155   1.525   5.538   4.768
 5896SOL     OW28156   7.351   1.823   2.921
 5896SOL    HW128157   7.394   1.733   2.928
 5896SOL    HW228158   7.385   1.882   2.994
 5897SOL     OW28159   1.535   4.159   1.664
 5897SOL    HW128160   1.567   4.253   1.677
 5897SOL    HW228161   1.582   4.098   1.728
 5898SOL     OW28162   4.199   3.805   3.586
 5898SOL    HW128163   4.137   3.753   3.645
 5898SOL    HW228164   4.220   3.893   3.628
 5899SOL     OW28165   3.440   1.179   2.758
 5899SOL    HW128166   3.416   1.172   2.855
 5899SOL    HW228167   3.540   1.182   2.749
 5900SOL     OW28168   9.438   3.356   2.602
 5900SOL    HW128169   9.399   3.408   2.678
 5900SOL    HW228170   9.378   3.363   2.522
 5901SOL     OW28171   3.231   7.268   3.322
 5901SOL    HW128172   3.304   7.313   3.374
 5901SOL    HW228173   3.164   7.229   3.386
 5902SOL     OW28174   2.745   4.711   1.319
 5902SOL    HW128175   2.674   4.650   1.355
 5902SOL    HW228176   2.835   4.673   1.338
 5903SOL     OW28177   0.017   8.989   1.719
 5903SOL    HW128178   9.972   9.019   1.635
 5903SOL    HW228179   0.021   8.889   1.720
 5904SOL     OW28180   3.028   7.761   2.309
 5904SOL    HW128181   3.043   7.757   2.211
 5904SOL    HW228182   3.067   7.846   2.345
 5905SOL     OW28183   6.542   8.956   3.609
 5905SOL    HW128184   6.517   9.053   3.611
 5905SOL    HW228185   6.460   8.900   3.622
 5906SOL     OW28186   3.554   0.661   2.217
 5906SOL    HW128187   3.456   0.682   2.214
 5906SOL    HW228188   3.581   0.644   2.312
 5907SOL     OW28189   1.913   4.205   0.323
 5907SOL    HW128190   1.987   4.158   0.276
 5907SOL    HW228191   1.827   4.186   0.276
 5908SOL     OW28192   4.151   9.866   2.454
 5908SOL    HW128193   4.165   9.957   2.416
 5908SOL    HW228194   4.222   9.804   2.420
 5909SOL     OW28195   8.403   7.365   3.601
 5909SOL    HW128196   8.493   7.330   3.629
 5909SOL    HW228197   8.342   7.288   3.583
 5910SOL     OW28198   1.765   9.110   2.395
 5910SOL    HW128199   1.687   9.147   2.344
 5910SOL    HW228200   1.846   9.111   2.338
 5911SOL     OW28201   0.343   0.378   2.195
 5911SOL    HW128202   0.416   0.419   2.141
 5911SOL    HW228203   0.317   0.441   2.269
 5912SOL     OW28204   0.954   9.511   2.952
 5912SOL    HW128205   0.949   9.486   3.049
 5912SOL    HW228206   1.042   9.553   2.933
 5913SOL     OW28207   1.063   4.573   2.307
 5913SOL    HW128208   1.123   4.495   2.326
 5913SOL    HW228209   1.073   4.600   2.211
 5914SOL     OW28210   1.358   9.121   0.436
 5914SOL    HW128211   1.328   9.072   0.355
 5914SOL    HW228212   1.434   9.071   0.479
 5915SOL     OW28213   4.027   8.179   2.891
 5915SOL    HW128214   3.983   8.268   2.899
 5915SOL    HW228215   3.958   8.107   2.898
 5916SOL     OW28216   0.401   9.781   2.107
 5916SOL    HW128217   0.432   9.812   2.197
 5916SOL    HW228218   0.367   9.688   2.113
 5917SOL     OW28219   2.454   9.998   0.850
 5917SOL    HW128220   2.369   0.044   0.824
 5917SOL    HW228221   2.509   0.061   0.906
 5918SOL     OW28222   8.074   5.911   2.129
 5918SOL    HW128223   8.149   5.954   2.179
 5918SOL    HW228224   8.097   5.815   2.110
 5919SOL     OW28225   7.691   1.305   1.183
 5919SOL    HW128226   7.695   1.403   1.202
 5919SOL    HW228227   7.620   1.288   1.114
 5920SOL     OW28228   2.850   1.435   3.005
 5920SOL    HW128229   2.758   1.451   3.041
 5920SOL    HW228230   2.879   1.343   3.030
 5921SOL     OW28231   0.785   2.493   1.402
 5921SOL    HW128232   0.750   2.574   1.355
 5921SOL    HW228233   0.884   2.504   1.417
 5922SOL     OW28234   9.374   7.876   1.926
 5922SOL    HW128235   9.325   7.788   1.932
 5922SOL    HW228236   9.464   7.861   1.887
 5923SOL     OW28237   7.645   9.872   0.881
 5923SOL    HW128238   7.677   9.782   0.853
 5923SOL    HW228239   7.562   9.896   0.830
 5924SOL     OW28240   0.423   2.242   2.725
 5924SOL    HW128241   0.509   2.289   2.703
 5924SOL    HW228242   0.373   2.224   2.640
 5925SOL     OW28243   4.123   0.258   1.914
 5925SOL    HW128244   4.035   0.305   1.915
 5925SOL    HW228245   4.122   0.189   1.842
 5926SOL     OW28246   0.721   1.771   0.895
 5926SOL    HW128247   0.649   1.739   0.957
 5926SOL    HW228248   0.783   1.832   0.945
 5927SOL     OW28249   3.009   8.010   1.574
 5927SOL    HW128250   2.916   7.976   1.568
 5927SOL    HW228251   3.060   7.985   1.491
 5928SOL     OW28252   4.169   1.090   0.064
 5928SOL    HW128253   4.162   1.063   4.750
 5928SOL    HW228254   4.244   1.040   0.108
 5929SOL     OW28255   2.267   3.159   3.050
 5929SOL    HW128256   2.340   3.221   3.081
 5929SOL    HW228257   2.308   3.080   3.004
 5930SOL     OW28258   2.998   3.492   0.755
 5930SOL    HW128259   3.089   3.471   0.791
 5930SOL    HW228260   2.994   3.464   0.659
 5931SOL     OW28261   3.711   1.743   2.010
 5931SOL    HW128262   3.638   1.793   1.965
 5931SOL    HW228263   3.673   1.663   2.056
 5932SOL     OW28264   5.007   2.779   2.290
 5932SOL    HW128265   4.932   2.791   2.225
 5932SOL    HW228266   5.055   2.866   2.303
 5933SOL     OW28267   2.652   5.230   2.531
 5933SOL    HW128268   2.629   5.327   2.523
 5933SOL    HW228269   2.589   5.186   2.595
 5934SOL     OW28270   5.112   3.027   2.596
 5934SOL    HW128271   5.131   2.942   2.646
 5934SOL    HW228272   5.019   3.057   2.616
 5935SOL     OW28273   0.360   8.566   3.146
 5935SOL    HW128274   0.428   8.610   3.203
 5935SOL    HW228275   0.272   8.565   3.194
 5936SOL     OW28276   9.816   9.056   3.678
 5936SOL    HW128277   9.847   9.106   3.760
 5936SOL    HW228278   9.888   8.994   3.649
 5937SOL     OW28279   3.893   3.152   3.269
 5937SOL    HW128280   3.811   3.101   3.295
 5937SOL    HW228281   3.938   3.186   3.352
 5938SOL     OW28282   0.317   6.548   1.715
 5938SOL    HW128283   0.304   6.637   1.759
 5938SOL    HW228284   0.412   6.518   1.728
 5939SOL     OW28285   9.355   0.290   0.922
 5939SOL    HW128286   9.369   0.278   1.020
 5939SOL    HW228287   9.268   0.249   0.896
 5940SOL     OW28288   2.418   6.141   0.766
 5940SOL    HW128289   2.374   6.150   0.856
 5940SOL    HW228290   2.448   6.046   0.753
 5941SOL     OW28291   7.049   9.284   2.338
 5941SOL    HW128292   7.111   9.261   2.413
 5941SOL    HW228293   7.028   9.381   2.341
 5942SOL     OW28294   1.530   0.526   0.413
 5942SOL    HW128295   1.529   0.432   0.378
 5942SOL    HW228296   1.610   0.574   0.378
 5943SOL     OW28297   0.741   8.937   2.612
 5943SOL    HW128298   0.817   8.919   2.674
 5943SOL    HW228299   0.755   8.890   2.525
 5944SOL     OW28300   7.814   2.969   1.215
 5944SOL    HW128301   7.729   2.931   1.254
 5944SOL    HW228302   7.874   2.894   1.188
 5945SOL     OW28303   0.610   4.854   1.955
 5945SOL    HW128304   0.543   4.927   1.970
 5945SOL    HW228305   0.612   4.831   1.857
 5946SOL     OW28306   3.107   4.282   3.271
 5946SOL    HW128307   3.152   4.204   3.227
 5946SOL    HW228308   3.110   4.361   3.209
 5947SOL     OW28309   1.843   4.756   0.552
 5947SOL    HW128310   1.826   4.662   0.521
 5947SOL    HW228311   1.930   4.788   0.515
 5948SOL     OW28312   0.222   0.136   2.190
 5948SOL    HW128313   0.212   0.097   2.281
 5948SOL    HW228314   0.272   0.223   2.195
 5949SOL     OW28315   4.807   7.599   1.977
 5949SOL    HW128316   4.758   7.684   1.995
 5949SOL    HW228317   4.902   7.620   1.954
 5950SOL     OW28318   7.861   7.904   1.252
 5950SOL    HW128319   7.813   7.877   1.335
 5950SOL    HW228320   7.912   7.989   1.268
 5951SOL     OW28321   9.591   6.515   3.669
 5951SOL    HW128322   9.670   6.549   3.721
 5951SOL    HW228323   9.607   6.419   3.645
 5952SOL     OW28324   3.031   0.543   1.299
 5952SOL    HW128325   3.128   0.554   1.278
 5952SOL    HW228326   2.992   0.473   1.240
 5953SOL     OW28327   9.857   7.510   3.474
 5953SOL    HW128328   9.952   7.485   3.492
 5953SOL    HW228329   9.842   7.512   3.375
 5954SOL     OW28330   1.238   1.597   1.512
 5954SOL    HW128331   1.236   1.692   1.481
 5954SOL    HW228332   1.159   1.579   1.570
 5955SOL     OW28333   8.083   7.334   3.479
 5955SOL    HW128334   7.990   7.335   3.514
 5955SOL    HW228335   8.134   7.258   3.521
 5956SOL     OW28336   1.890   4.296   2.771
 5956SOL    HW128337   1.900   4.246   2.857
 5956SOL    HW228338   1.822   4.251   2.714
 5957SOL     OW28339   1.949   0.702   1.618
 5957SOL    HW128340   2.005   0.756   1.681
 5957SOL    HW228341   1.853   0.728   1.630
 5958SOL     OW28342   9.130   4.700   0.427
 5958SOL    HW128343   9.076   4.648   0.493
 5958SOL    HW228344   9.197   4.756   0.475
 5959SOL     OW28345   3.477   5.059   1.696
 5959SOL    HW128346   3.402   5.011   1.741
 5959SOL    HW228347   3.480   5.033   1.599
 5960SOL     OW28348   2.708   4.950   1.197
 5960SOL    HW128349   2.728   4.864   1.244
 5960SOL    HW228350   2.792   5.003   1.187
 5961SOL     OW28351   0.780   0.997   3.425
 5961SOL    HW128352   0.784   1.036   3.517
 5961SOL    HW228353   0.755   1.068   3.360
 5962SOL     OW28354   6.487   7.804   2.738
 5962SOL    HW128355   6.523   7.896   2.723
 5962SOL    HW228356   6.387   7.807   2.739
 5963SOL     OW28357   2.091   5.298   1.611
 5963SOL    HW128358   2.113   5.395   1.622
 5963SOL    HW228359   2.108   5.249   1.697
 5964SOL     OW28360   4.469   1.432   0.624
 5964SOL    HW128361   4.408   1.414   0.547
 5964SOL    HW228362   4.422   1.487   0.692
 5965SOL     OW28363   2.606   8.915   2.430
 5965SOL    HW128364   2.658   8.995   2.461
 5965SOL    HW228365   2.509   8.940   2.422
 5966SOL     OW28366   2.769   7.166   2.790
 5966SOL    HW128367   2.699   7.100   2.816
 5966SOL    HW228368   2.728   7.238   2.734
 5967SOL     OW28369   0.347   0.128   0.328
 5967SOL    HW128370   0.324   0.218   0.291
 5967SOL    HW228371   0.446   0.114   0.322
 5968SOL     OW28372   9.403   3.941   3.678
 5968SOL    HW128373   9.438   3.883   3.604
 5968SOL    HW228374   9.480   3.980   3.729
 5969SOL     OW28375   9.136   3.148   3.700
 5969SOL    HW128376   9.157   3.192   3.788
 5969SOL    HW228377   9.140   3.216   3.627
 5970SOL     OW28378   2.364   1.633   1.120
 5970SOL    HW128379   2.304   1.702   1.161
 5970SOL    HW228380   2.455   1.638   1.160
 5971SOL     OW28381   8.135   7.638   3.091
 5971SOL    HW128382   8.220   7.624   3.142
 5971SOL    HW228383   8.059   7.596   3.140
 5972SOL     OW28384   4.759   4.763   1.873
 5972SOL    HW128385   4.794   4.856   1.865
 5972SOL    HW228386   4.661   4.766   1.891
 5973SOL     OW28387   0.247   0.643   3.061
 5973SOL    HW128388   0.255   0.739   3.034
 5973SOL    HW228389   0.299   0.628   3.145
 5974SOL     OW28390   5.160   6.379   2.643
 5974SOL    HW128391   5.132   6.312   2.574
 5974SOL    HW228392   5.260   6.381   2.649
 5975SOL     OW28393   8.891   4.379   1.165
 5975SOL    HW128394   8.938   4.329   1.238
 5975SOL    HW228395   8.937   4.360   1.078
 5976SOL     OW28396   1.576   6.125   0.828
 5976SOL    HW128397   1.507   6.196   0.814
 5976SOL    HW228398   1.530   6.037   0.844
 5977SOL     OW28399   1.567   5.579   2.406
 5977SOL    HW128400   1.469   5.558   2.408
 5977SOL    HW228401   1.608   5.538   2.325
 5978SOL     OW28402   4.179   8.879   2.138
 5978SOL    HW128403   4.081   8.897   2.128
 5978SOL    HW228404   4.192   8.799   2.197
 5979SOL     OW28405   3.148   7.415   1.648
 5979SOL    HW128406   3.097   7.330   1.636
 5979SOL    HW228407   3.232   7.411   1.592
 5980SOL     OW28408   9.513   9.756   3.040
 5980SOL    HW128409   9.587   9.690   3.053
 5980SOL    HW228410   9.527   9.806   2.955
 5981SOL     OW28411   4.730   4.368   0.185
 5981SOL    HW128412   4.785   4.405   0.110
 5981SOL    HW228413   4.633   4.375   0.163
 5982SOL     OW28414   9.654   0.665   2.081
 5982SOL    HW128415   9.655   0.565   2.091
 5982SOL    HW228416   9.722   0.693   2.014
 5983SOL     OW28417   1.761   7.704   0.721
 5983SOL    HW128418   1.746   7.717   0.623
 5983SOL    HW228419   1.859   7.697   0.739
 5984SOL     OW28420   9.117   5.693   3.755
 5984SOL    HW128421   9.127   5.614   3.815
 5984SOL    HW228422   9.090   5.662   3.664
 5985SOL     OW28423   9.578   4.128   1.701
 5985SOL    HW128424   9.492   4.077   1.695
 5985SOL    HW228425   9.647   4.084   1.644
 5986SOL     OW28426   2.480   7.616   1.618
 5986SOL    HW128427   2.426   7.634   1.536
 5986SOL    HW228428   2.465   7.523   1.649
 5987SOL     OW28429   2.796   2.248   3.078
 5987SOL    HW128430   2.782   2.344   3.056
 5987SOL    HW228431   2.880   2.215   3.035
 5988SOL     OW28432   2.867   6.037   2.473
 5988SOL    HW128433   2.832   6.104   2.538
 5988SOL    HW228434   2.893   6.083   2.388
 5989SOL     OW28435   4.444   7.494   0.205
 5989SOL    HW128436   4.534   7.530   0.181
 5989SOL    HW228437   4.415   7.531   0.293
 5990SOL     OW28438   0.218   5.125   0.404
 5990SOL    HW128439   0.284   5.183   0.450
 5990SOL    HW228440   0.166   5.179   0.338
 5991SOL     OW28441   3.494   3.380   3.518
 5991SOL    HW128442   3.486   3.282   3.499
 5991SOL    HW228443   3.486   3.431   3.433
 5992SOL     OW28444   0.482   0.745   0.945
 5992SOL    HW128445   0.567   0.697   0.965
 5992SOL    HW228446   0.479   0.770   0.848
 5993SOL     OW28447   1.618   5.503   0.843
 5993SOL    HW128448   1.625   5.420   0.787
 5993SOL    HW228449   1.611   5.583   0.783
 5994SOL     OW28450   9.121   6.292   1.962
 5994SOL    HW128451   9.066   6.209   1.967
 5994SOL    HW228452   9.216   6.268   1.942
 5995SOL     OW28453   8.081   0.212   1.815
 5995SOL    HW128454   8.090   0.266   1.899
 5995SOL    HW228455   8.132   0.257   1.742
 5996SOL     OW28456   0.457   3.709   1.541
 5996SOL    HW128457   0.460   3.750   1.450
 5996SOL    HW228458   0.434   3.779   1.608
 5997SOL     OW28459   4.241   7.915   2.810
 5997SOL    HW128460   4.172   7.941   2.742
 5997SOL    HW228461   4.247   7.985   2.881
 5998SOL     OW28462   2.077   9.112   0.264
 5998SOL    HW128463   2.082   9.187   0.197
 5998SOL    HW228464   1.991   9.119   0.315
 5999SOL     OW28465   4.775   0.153   3.509
 5999SOL    HW128466   4.789   0.070   3.563
 5999SOL    HW228467   4.702   0.138   3.442
 6000SOL     OW28468   3.183   4.190   3.521
 6000SOL    HW128469   3.104   4.144   3.561
 6000SOL    HW228470   3.160   4.221   3.428
 6001SOL     OW28471   6.486   0.229   1.783
 6001SOL    HW128472   6.454   0.137   1.802
 6001SOL    HW228473   6.416   0.295   1.810
 6002SOL     OW28474   4.353   8.079   1.337
 6002SOL    HW128475   4.401   8.035   1.413
 6002SOL    HW228476   4.384   8.173   1.328
 6003SOL     OW28477   9.582   7.657   0.197
 6003SOL    HW128478   9.597   7.726   0.126
 6003SOL    HW228479   9.496   7.677   0.244
 6004SOL     OW28480   3.691   6.886   1.336
 6004SOL    HW128481   3.653   6.965   1.287
 6004SOL    HW228482   3.787   6.902   1.356
 6005SOL     OW28483   2.949   8.090   0.823
 6005SOL    HW128484   2.950   7.995   0.794
 6005SOL    HW228485   3.041   8.128   0.818
 6006SOL     OW28486   8.602   1.952   1.624
 6006SOL    HW128487   8.618   2.040   1.669
 6006SOL    HW228488   8.523   1.908   1.666
 6007SOL     OW28489   2.575   7.023   3.090
 6007SOL    HW128490   2.555   7.028   2.992
 6007SOL    HW228491   2.502   6.974   3.137
 6008SOL     OW28492   6.943   8.323   1.987
 6008SOL    HW128493   6.934   8.410   1.940
 6008SOL    HW228494   6.955   8.249   1.920
 6009SOL     OW28495   2.103   8.475   1.413
 6009SOL    HW128496   2.116   8.573   1.398
 6009SOL    HW228497   2.192   8.432   1.430
 6010SOL     OW28498   2.127   3.406   2.600
 6010SOL    HW128499   2.203   3.431   2.660
 6010SOL    HW228500   2.105   3.309   2.613
 6011SOL     OW28501   9.266   6.553   1.701
 6011SOL    HW128502   9.355   6.538   1.743
 6011SOL    HW228503   9.266   6.642   1.654
 6012SOL     OW28504   7.194   9.210   2.563
 6012SOL    HW128505   7.126   9.138   2.572
 6012SOL    HW228506   7.286   9.169   2.565
 6013SOL     OW28507   2.988   4.992   2.721
 6013SOL    HW128508   3.044   4.943   2.654
 6013SOL    HW228509   3.047   5.035   2.789
 6014SOL     OW28510   2.700   0.677   0.649
 6014SOL    HW128511   2.622   0.735   0.628
 6014SOL    HW228512   2.783   0.733   0.650
 6015SOL     OW28513   7.898   5.286   1.454
 6015SOL    HW128514   7.866   5.381   1.446
 6015SOL    HW228515   7.859   5.232   1.379
 6016SOL     OW28516   9.077   6.391   2.216
 6016SOL    HW128517   9.079   6.359   2.121
 6016SOL    HW228518   9.004   6.346   2.266
 6017SOL     OW28519   4.711   2.596   1.308
 6017SOL    HW128520   4.789   2.578   1.369
 6017SOL    HW228521   4.694   2.694   1.304
 6018SOL     OW28522   0.449   3.557   0.488
 6018SOL    HW128523   0.411   3.476   0.531
 6018SOL    HW228524   0.548   3.558   0.499
 6019SOL     OW28525   0.290   5.662   2.929
 6019SOL    HW128526   0.249   5.582   2.974
 6019SOL    HW228527   0.345   5.631   2.851
 6020SOL     OW28528   5.176   1.651   2.784
 6020SOL    HW128529   5.268   1.646   2.745
 6020SOL    HW228530   5.123   1.722   2.737
 6021SOL     OW28531   1.887   2.379   0.133
 6021SOL    HW128532   1.833   2.308   0.179
 6021SOL    HW228533   1.826   2.438   0.081
 6022SOL     OW28534   3.027   4.531   1.588
 6022SOL    HW128535   3.076   4.613   1.616
 6022SOL    HW228536   3.057   4.454   1.645
 6023SOL     OW28537   9.265   9.444   3.477
 6023SOL    HW128538   9.169   9.422   3.491
 6023SOL    HW228539   9.277   9.544   3.472
 6024SOL     OW28540   3.698   4.786   0.118
 6024SOL    HW128541   3.756   4.767   0.038
 6024SOL    HW228542   3.612   4.734   0.110
 6025SOL     OW28543   0.272   9.143   2.909
 6025SOL    HW128544   0.290   9.077   2.836
 6025SOL    HW228545   0.239   9.095   2.990
 6026SOL     OW28546   3.018   1.814   1.440
 6026SOL    HW128547   2.996   1.849   1.531
 6026SOL    HW228548   3.021   1.890   1.375
 6027SOL     OW28549   1.739   1.176   0.589
 6027SOL    HW128550   1.720   1.166   0.687
 6027SOL    HW228551   1.809   1.110   0.563
 6028SOL     OW28552   8.970   5.212   0.546
 6028SOL    HW128553   8.932   5.254   0.629
 6028SOL    HW228554   8.897   5.195   0.481
 6029SOL     OW28555   8.336   4.138   2.330
 6029SOL    HW128556   8.302   4.091   2.249
 6029SOL    HW228557   8.379   4.072   2.391
 6030SOL     OW28558   8.493   5.222   2.691
 6030SOL    HW128559   8.549   5.304   2.701
 6030SOL    HW228560   8.408   5.244   2.643
 6031SOL     OW28561   2.052   7.207   2.235
 6031SOL    HW128562   2.039   7.232   2.139
 6031SOL    HW228563   1.978   7.146   2.264
 6032SOL     OW28564   8.382   2.084   3.225
 6032SOL    HW128565   8.449   2.123   3.162
 6032SOL    HW228566   8.307   2.149   3.238
 6033SOL     OW28567   8.635   9.734   0.414
 6033SOL    HW128568   8.621   9.662   0.346
 6033SOL    HW228569   8.572   9.809   0.397
 6034SOL     OW28570   9.100   5.259   3.292
 6034SOL    HW128571   9.175   5.324   3.300
 6034SOL    HW228572   9.132   5.167   3.317
 6035SOL     OW28573   3.917   9.518   2.581
 6035SOL    HW128574   3.925   9.580   2.503
 6035SOL    HW228575   3.853   9.557   2.648
 6036SOL     OW28576   9.042   2.655   0.939
 6036SOL    HW128577   9.113   2.722   0.919
 6036SOL    HW228578   8.978   2.694   1.005
 6037SOL     OW28579   3.870   0.374   1.917
 6037SOL    HW128580   3.834   0.290   1.959
 6037SOL    HW228581   3.802   0.411   1.853
 6038SOL     OW28582   2.985   4.959   1.830
 6038SOL    HW128583   2.969   4.878   1.886
 6038SOL    HW228584   2.969   4.937   1.733
 6039SOL     OW28585   9.178   5.940   0.370
 6039SOL    HW128586   9.181   5.880   0.450
 6039SOL    HW228587   9.217   6.029   0.394
 6040SOL     OW28588   0.669   0.160   2.299
 6040SOL    HW128589   0.713   0.071   2.288
 6040SOL    HW228590   0.680   0.214   2.216
 6041SOL     OW28591   1.124   4.904   2.607
 6041SOL    HW128592   1.114   4.874   2.512
 6041SOL    HW228593   1.218   4.888   2.637
 6042SOL     OW28594   2.334   2.744   1.345
 6042SOL    HW128595   2.317   2.836   1.381
 6042SOL    HW228596   2.433   2.726   1.345
 6043SOL     OW28597   3.863   2.910   3.003
 6043SOL    HW128598   3.931   2.965   2.954
 6043SOL    HW228599   3.782   2.967   3.021
 6044SOL     OW28600   2.658   3.604   0.132
 6044SOL    HW128601   2.642   3.701   0.113
 6044SOL    HW228602   2.571   3.555   0.131
 6045SOL     OW28603   0.850   1.420   3.278
 6045SOL    HW128604   0.846   1.504   3.223
 6045SOL    HW228605   0.945   1.393   3.291
 6046SOL     OW28606   6.360   9.451   2.914
 6046SOL    HW128607   6.390   9.356   2.928
 6046SOL    HW228608   6.324   9.461   2.821
 6047SOL     OW28609   3.183   8.633   2.645
 6047SOL    HW128610   3.177   8.636   2.546
 6047SOL    HW228611   3.185   8.537   2.675
 6048SOL     OW28612   0.459   6.002   0.941
 6048SOL    HW128613   0.464   6.056   0.857
 6048SOL    HW228614   0.551   5.987   0.977
 6049SOL     OW28615   5.485   8.479   2.089
 6049SOL    HW128616   5.439   8.407   2.141
 6049SOL    HW228617   5.417   8.546   2.058
 6050SOL     OW28618   6.846   9.712   0.712
 6050SOL    HW128619   6.937   9.698   0.674
 6050SOL    HW228620   6.845   9.682   0.807
 6051SOL     OW28621   1.450   7.785   1.056
 6051SOL    HW128622   1.493   7.720   1.119
 6051SOL    HW228623   1.365   7.745   1.020
 6052SOL     OW28624   9.894   2.722   2.616
 6052SOL    HW128625   9.956   2.696   2.690
 6052SOL    HW228626   9.855   2.639   2.575
 6053SOL     OW28627   5.222   3.883   0.122
 6053SOL    HW128628   5.182   3.792   0.134
 6053SOL    HW228629   5.164   3.952   0.166
 6054SOL     OW28630   2.684   5.031   3.031
 6054SOL    HW128631   2.593   5.047   2.992
 6054SOL    HW228632   2.676   5.011   3.128
 6055SOL     OW28633   3.103   3.963   2.142
 6055SOL    HW128634   3.100   4.021   2.223
 6055SOL    HW228635   3.169   4.000   2.077
 6056SOL     OW28636   7.548   0.181   2.597
 6056SOL    HW128637   7.510   0.243   2.665
 6056SOL    HW228638   7.486   0.104   2.583
 6057SOL     OW28639   1.814   6.325   0.440
 6057SOL    HW128640   1.903   6.343   0.481
 6057SOL    HW228641   1.771   6.247   0.487
 6058SOL     OW28642   1.615   0.708   1.352
 6058SOL    HW128643   1.688   0.649   1.316
 6058SOL    HW228644   1.580   0.767   1.279
 6059SOL     OW28645   3.661   9.949   1.723
 6059SOL    HW128646   3.572   9.991   1.738
 6059SOL    HW228647   3.665   9.861   1.771
 6060SOL     OW28648   0.116   8.307   3.343
 6060SOL    HW128649   0.076   8.245   3.276
 6060SOL    HW228650   0.058   8.309   3.425
 6061SOL     OW28651   4.176   7.454   1.308
 6061SOL    HW128652   4.260   7.461   1.361
 6061SOL    HW228653   4.120   7.535   1.323
 6062SOL     OW28654   0.797   1.161   1.437
 6062SOL    HW128655   0.846   1.086   1.394
 6062SOL    HW228656   0.698   1.148   1.426
 6063SOL     OW28657   2.018   8.959   3.684
 6063SOL    HW128658   2.099   8.904   3.704
 6063SOL    HW228659   1.936   8.910   3.713
 6064SOL     OW28660   8.771   7.982   3.323
 6064SOL    HW128661   8.748   7.914   3.253
 6064SOL    HW228662   8.814   7.936   3.401
 6065SOL     OW28663   3.335   1.117   2.362
 6065SOL    HW128664   3.409   1.126   2.295
 6065SOL    HW228665   3.366   1.059   2.438
 6066SOL     OW28666   7.848   3.611   0.844
 6066SOL    HW128667   7.769   3.635   0.787
 6066SOL    HW228668   7.816   3.565   0.927
 6067SOL     OW28669   1.867   8.144   3.088
 6067SOL    HW128670   1.945   8.119   3.031
 6067SOL    HW228671   1.894   8.139   3.184
 6068SOL     OW28672   1.166   8.291   3.537
 6068SOL    HW128673   1.237   8.220   3.540
 6068SOL    HW228674   1.202   8.373   3.493
 6069SOL     OW28675   3.293   4.104   1.998
 6069SOL    HW128676   3.360   4.084   2.070
 6069SOL    HW228677   3.279   4.203   1.993
 6070SOL     OW28678   0.887   4.142   1.304
 6070SOL    HW128679   0.975   4.161   1.261
 6070SOL    HW228680   0.902   4.120   1.401
 6071SOL     OW28681   2.057   3.736   1.315
 6071SOL    HW128682   2.140   3.767   1.267
 6071SOL    HW228683   2.075   3.647   1.358
 6072SOL     OW28684   1.109   1.620   2.787
 6072SOL    HW128685   1.033   1.561   2.813
 6072SOL    HW228686   1.113   1.699   2.849
 6073SOL     OW28687   4.171   0.141   2.360
 6073SOL    HW128688   4.174   0.240   2.352
 6073SOL    HW228689   4.165   0.100   2.269
 6074SOL     OW28690   1.160   8.121   2.840
 6074SOL    HW128691   1.161   8.221   2.828
 6074SOL    HW228692   1.174   8.099   2.936
 6075SOL     OW28693   4.847   7.944   2.985
 6075SOL    HW128694   4.938   7.939   3.024
 6075SOL    HW228695   4.788   7.999   3.044
 6076SOL     OW28696   7.441   8.958   2.323
 6076SOL    HW128697   7.446   8.859   2.311
 6076SOL    HW228698   7.386   8.997   2.249
 6077SOL     OW28699   5.758   7.134   3.326
 6077SOL    HW128700   5.762   7.202   3.253
 6077SOL    HW228701   5.822   7.158   3.398
 6078SOL     OW28702   8.443   0.102   1.866
 6078SOL    HW128703   8.529   0.131   1.824
 6078SOL    HW228704   8.383   0.182   1.878
 6079SOL     OW28705   2.885   8.292   2.656
 6079SOL    HW128706   2.867   8.294   2.754
 6079SOL    HW228707   2.826   8.359   2.610
 6080SOL     OW28708   1.463   8.926   1.315
 6080SOL    HW128709   1.396   8.926   1.241
 6080SOL    HW228710   1.420   8.959   1.399
 6081SOL     OW28711   2.861   2.201   3.345
 6081SOL    HW128712   2.840   2.222   3.249
 6081SOL    HW228713   2.931   2.265   3.378
 6082SOL     OW28714   0.311   7.154   1.337
 6082SOL    HW128715   0.380   7.083   1.328
 6082SOL    HW228716   0.242   7.143   1.265
 6083SOL     OW28717   2.448   8.365   2.477
 6083SOL    HW128718   2.371   8.318   2.520
 6083SOL    HW228719   2.441   8.357   2.378
 6084SOL     OW28720   0.879   4.414   0.938
 6084SOL    HW128721   0.974   4.384   0.930
 6084SOL    HW228722   0.857   4.475   0.862
 6085SOL     OW28723   1.649   3.869   2.712
 6085SOL    HW128724   1.560   3.911   2.728
 6085SOL    HW228725   1.663   3.794   2.777
 6086SOL     OW28726   4.180   3.288   0.770
 6086SOL    HW128727   4.249   3.218   0.787
 6086SOL    HW228728   4.219   3.378   0.789
 6087SOL     OW28729   8.066   7.740   1.160
 6087SOL    HW128730   8.141   7.806   1.156
 6087SOL    HW228731   7.981   7.788   1.183
 6088SOL     OW28732   6.515   9.919   1.412
 6088SOL    HW128733   6.441   9.984   1.426
 6088SOL    HW228734   6.603   9.962   1.434
 6089SOL     OW28735   4.504   1.632   1.096
 6089SOL    HW128736   4.420   1.675   1.130
 6089SOL    HW228737   4.482   1.547   1.049
 6090SOL     OW28738   9.075   8.886   1.815
 6090SOL    HW128739   9.112   8.979   1.822
 6090SOL    HW228740   9.018   8.879   1.733
 6091SOL     OW28741   7.361   8.859   3.023
 6091SOL    HW128742   7.403   8.830   3.109
 6091SOL    HW228743   7.273   8.812   3.012
 6092SOL     OW28744   3.119   4.167   1.552
 6092SOL    HW128745   3.115   4.232   1.628
 6092SOL    HW228746   3.099   4.075   1.585
 6093SOL     OW28747   2.304   0.825   2.869
 6093SOL    HW128748   2.354   0.872   2.796
 6093SOL    HW228749   2.365   0.761   2.915
 6094SOL     OW28750   1.330   4.966   1.654
 6094SOL    HW128751   1.274   5.029   1.708
 6094SOL    HW228752   1.392   5.018   1.595
 6095SOL     OW28753   3.851   8.217   3.703
 6095SOL    HW128754   3.827   8.147   3.635
 6095SOL    HW228755   3.828   8.183   3.794
 6096SOL     OW28756   6.914   8.699   3.456
 6096SOL    HW128757   6.866   8.615   3.483
 6096SOL    HW228758   6.921   8.703   3.357
 6097SOL     OW28759   3.797   1.016   2.269
 6097SOL    HW128760   3.792   1.115   2.256
 6097SOL    HW228761   3.823   0.996   2.363
 6098SOL     OW28762   0.361   5.287   2.303
 6098SOL    HW128763   0.397   5.271   2.395
 6098SOL    HW228764   0.342   5.385   2.291
 6099SOL     OW28765   2.897   9.570   3.152
 6099SOL    HW128766   2.983   9.534   3.115
 6099SOL    HW228767   2.887   9.541   3.247
 6100SOL     OW28768   9.593   0.861   1.785
 6100SOL    HW128769   9.665   0.836   1.851
 6100SOL    HW228770   9.634   0.911   1.709
 6101SOL     OW28771   4.771   2.049   1.734
 6101SOL    HW128772   4.826   2.119   1.779
 6101SOL    HW228773   4.687   2.033   1.786
 6102SOL     OW28774   4.503   0.316   1.781
 6102SOL    HW128775   4.453   0.350   1.861
 6102SOL    HW228776   4.479   0.220   1.765
 6103SOL     OW28777   6.159   7.739   2.013
 6103SOL    HW128778   6.091   7.760   1.943
 6103SOL    HW228779   6.121   7.674   2.079
 6104SOL     OW28780   0.539   1.981   1.602
 6104SOL    HW128781   0.542   1.887   1.635
 6104SOL    HW228782   0.475   1.988   1.526
 6105SOL     OW28783   9.190   6.446   0.850
 6105SOL    HW128784   9.195   6.543   0.872
 6105SOL    HW228785   9.224   6.392   0.927
 6106SOL     OW28786   2.969   1.556   1.297
 6106SOL    HW128787   2.970   1.649   1.333
 6106SOL    HW228788   3.061   1.533   1.263
 6107SOL     OW28789   4.772   8.653   3.132
 6107SOL    HW128790   4.762   8.631   3.035
 6107SOL    HW228791   4.772   8.752   3.143
 6108SOL     OW28792   7.623   6.385   2.810
 6108SOL    HW128793   7.564   6.458   2.776
 6108SOL    HW228794   7.575   6.331   2.879
 6109SOL     OW28795   1.710   6.810   3.319
 6109SOL    HW128796   1.807   6.825   3.297
 6109SOL    HW228797   1.690   6.712   3.310
 6110SOL     OW28798   3.327   3.143   2.957
 6110SOL    HW128799   3.282   3.067   2.910
 6110SOL    HW228800   3.270   3.224   2.951
 6111SOL     OW28801   2.172   4.831   0.835
 6111SOL    HW128802   2.203   4.869   0.922
 6111SOL    HW228803   2.072   4.827   0.835
 6112SOL     OW28804   2.385   0.611   0.866
 6112SOL    HW128805   2.343   0.682   0.810
 6112SOL    HW228806   2.406   0.647   0.957
 6113SOL     OW28807   8.603   4.243   0.794
 6113SOL    HW128808   8.578   4.196   0.709
 6113SOL    HW228809   8.520   4.273   0.841
 6114SOL     OW28810   9.890   9.541   0.934
 6114SOL    HW128811   9.921   9.507   0.845
 6114SOL    HW228812   9.915   9.476   1.005
 6115SOL     OW28813   8.306   8.146   0.565
 6115SOL    HW128814   8.230   8.211   0.571
 6115SOL    HW228815   8.371   8.176   0.495
 6116SOL     OW28816   3.355   6.098   1.581
 6116SOL    HW128817   3.307   6.028   1.530
 6116SOL    HW228818   3.446   6.112   1.541
 6117SOL     OW28819   8.746   4.690   0.269
 6117SOL    HW128820   8.765   4.599   0.232
 6117SOL    HW228821   8.797   4.758   0.216
 6118SOL     OW28822   1.211   1.582   0.717
 6118SOL    HW128823   1.175   1.555   0.806
 6118SOL    HW228824   1.224   1.681   0.715
 6119SOL     OW28825   6.305   8.538   2.619
 6119SOL    HW128826   6.393   8.582   2.635
 6119SOL    HW228827   6.231   8.602   2.639
 6120SOL     OW28828   1.371   4.214   0.525
 6120SOL    HW128829   1.430   4.219   0.605
 6120SOL    HW228830   1.398   4.136   0.469
 6121SOL     OW28831   9.921   7.255   3.156
 6121SOL    HW128832   9.879   7.346   3.159
 6121SOL    HW228833   9.894   7.203   3.237
 6122SOL     OW28834   9.975   8.030   0.946
 6122SOL    HW128835   9.934   7.951   0.992
 6122SOL    HW228836   0.032   7.999   0.871
 6123SOL     OW28837   0.803   7.319   2.904
 6123SOL    HW128838   0.897   7.353   2.898
 6123SOL    HW228839   0.743   7.379   2.850
 6124SOL     OW28840   4.012   2.860   1.133
 6124SOL    HW128841   3.986   2.950   1.099
 6124SOL    HW228842   4.107   2.841   1.108
 6125SOL     OW28843   0.962   8.167   0.008
 6125SOL    HW128844   0.915   8.106   0.071
 6125SOL    HW228845   0.933   8.148   4.696
 6126SOL     OW28846   1.934   6.652   2.607
 6126SOL    HW128847   1.934   6.580   2.537
 6126SOL    HW228848   2.027   6.688   2.616
 6127SOL     OW28849   9.012   6.200   1.390
 6127SOL    HW128850   9.062   6.234   1.470
 6127SOL    HW228851   9.024   6.263   1.314
 6128SOL     OW28852   8.973   3.242   0.762
 6128SOL    HW128853   8.987   3.146   0.740
 6128SOL    HW228854   8.965   3.253   0.861
 6129SOL     OW28855   8.363   3.570   1.330
 6129SOL    HW128856   8.324   3.659   1.350
 6129SOL    HW228857   8.292   3.500   1.340
 6130SOL     OW28858   0.317   1.213   1.833
 6130SOL    HW128859   0.384   1.176   1.769
 6130SOL    HW228860   0.363   1.276   1.896
 6131SOL     OW28861   1.765   6.787   0.063
 6131SOL    HW128862   1.830   6.719   0.097
 6131SOL    HW228863   1.680   6.742   0.035
 6132SOL     OW28864   5.962   9.833   3.614
 6132SOL    HW128865   6.028   9.821   3.688
 6132SOL    HW228866   5.874   9.792   3.641
 6133SOL     OW28867   2.513   7.152   2.213
 6133SOL    HW128868   2.554   7.064   2.187
 6133SOL    HW228869   2.558   7.226   2.163
 6134SOL     OW28870   7.847   1.327   0.223
 6134SOL    HW128871   7.920   1.395   0.212
 6134SOL    HW228872   7.781   1.359   0.290
 6135SOL     OW28873   1.778   6.042   2.311
 6135SOL    HW128874   1.695   6.096   2.301
 6135SOL    HW228875   1.759   5.961   2.366
 6136SOL     OW28876   1.382   1.614   2.794
 6136SOL    HW128877   1.405   1.695   2.846
 6136SOL    HW228878   1.282   1.607   2.785
 6137SOL     OW28879   1.381   6.176   3.415
 6137SOL    HW128880   1.407   6.094   3.364
 6137SOL    HW228881   1.386   6.158   3.513
 6138SOL     OW28882   2.494   4.185   3.203
 6138SOL    HW128883   2.532   4.208   3.293
 6138SOL    HW228884   2.429   4.110   3.213
 6139SOL     OW28885   9.037   0.462   0.518
 6139SOL    HW128886   9.043   0.538   0.583
 6139SOL    HW228887   9.002   0.497   0.431
 6140SOL     OW28888   5.163   0.713   2.171
 6140SOL    HW128889   5.087   0.688   2.112
 6140SOL    HW228890   5.138   0.791   2.228
 6141SOL     OW28891   7.716   9.286   1.912
 6141SOL    HW128892   7.645   9.220   1.886
 6141SOL    HW228893   7.720   9.293   2.011
 6142SOL     OW28894   7.491   6.246   3.005
 6142SOL    HW128895   7.527   6.313   3.071
 6142SOL    HW228896   7.411   6.201   3.044
 6143SOL     OW28897   9.091   9.639   1.179
 6143SOL    HW128898   9.169   9.696   1.153
 6143SOL    HW228899   9.076   9.646   1.278
 6144SOL     OW28900   5.984   9.262   3.418
 6144SOL    HW128901   5.952   9.343   3.370
 6144SOL    HW228902   6.033   9.202   3.355
 6145SOL     OW28903   2.132   5.155   1.847
 6145SOL    HW128904   2.117   5.059   1.872
 6145SOL    HW228905   2.073   5.214   1.901
 6146SOL     OW28906   8.847   2.012   3.657
 6146SOL    HW128907   8.822   1.995   3.753
 6146SOL    HW228908   8.769   2.053   3.610
 6147SOL     OW28909   0.395   7.929   2.579
 6147SOL    HW128910   0.455   7.871   2.523
 6147SOL    HW228911   0.321   7.874   2.616
 6148SOL     OW28912   5.220   0.013   3.449
 6148SOL    HW128913   5.296   0.033   3.511
 6148SOL    HW228914   5.159   0.092   3.444
 6149SOL     OW28915   0.972   6.558   2.525
 6149SOL    HW128916   0.912   6.637   2.527
 6149SOL    HW228917   1.020   6.549   2.612
 6150SOL     OW28918   2.778   8.573   3.650
 6150SOL    HW128919   2.869   8.610   3.632
 6150SOL    HW228920   2.781   8.473   3.640
 6151SOL     OW28921   1.876   5.693   2.636
 6151SOL    HW128922   1.866   5.711   2.734
 6151SOL    HW228923   1.836   5.604   2.614
 6152SOL     OW28924   0.562   3.232   3.045
 6152SOL    HW128925   0.496   3.158   3.033
 6152SOL    HW228926   0.576   3.278   2.957
 6153SOL     OW28927   2.987   3.939   0.831
 6153SOL    HW128928   2.931   3.857   0.816
 6153SOL    HW228929   3.080   3.912   0.856
 6154SOL     OW28930   0.808   4.135   2.082
 6154SOL    HW128931   0.906   4.145   2.065
 6154SOL    HW228932   0.764   4.225   2.075
 6155SOL     OW28933   0.584   6.220   1.658
 6155SOL    HW128934   0.536   6.141   1.695
 6155SOL    HW228935   0.577   6.219   1.558
 6156SOL     OW28936   1.002   8.839   1.767
 6156SOL    HW128937   0.966   8.817   1.858
 6156SOL    HW228938   0.926   8.862   1.706
 6157SOL     OW28939   9.372   0.250   1.195
 6157SOL    HW128940   9.429   0.227   1.274
 6157SOL    HW228941   9.313   0.327   1.218
 6158SOL     OW28942   4.936   1.033   2.717
 6158SOL    HW128943   4.928   1.101   2.789
 6158SOL    HW228944   4.935   0.941   2.758
 6159SOL     OW28945   0.180   2.741   3.653
 6159SOL    HW128946   0.185   2.828   3.605
 6159SOL    HW228947   0.244   2.742   3.731
 6160SOL     OW28948   2.102   9.381   2.514
 6160SOL    HW128949   2.093   9.473   2.476
 6160SOL    HW228950   2.011   9.344   2.533
 6161SOL     OW28951   1.249   2.866   0.163
 6161SOL    HW128952   1.189   2.833   0.090
 6161SOL    HW228953   1.276   2.788   0.221
 6162SOL     OW28954   1.375   5.924   2.685
 6162SOL    HW128955   1.457   5.884   2.726
 6162SOL    HW228956   1.394   5.947   2.589
 6163SOL     OW28957   2.157   9.541   3.072
 6163SOL    HW128958   2.112   9.453   3.059
 6163SOL    HW228959   2.217   9.536   3.152
 6164SOL     OW28960   2.272   7.428   0.639
 6164SOL    HW128961   2.245   7.376   0.720
 6164SOL    HW228962   2.307   7.365   0.569
 6165SOL     OW28963   8.801   1.653   3.355
 6165SOL    HW128964   8.821   1.724   3.288
 6165SOL    HW228965   8.844   1.677   3.442
 6166SOL     OW28966   9.489   0.611   1.731
 6166SOL    HW128967   9.525   0.704   1.742
 6166SOL    HW228968   9.401   0.604   1.776
 6167SOL     OW28969   9.701   8.568   0.742
 6167SOL    HW128970   9.654   8.502   0.683
 6167SOL    HW228971   9.639   8.600   0.813
 6168SOL     OW28972   2.189   7.718   2.741
 6168SOL    HW128973   2.147   7.692   2.654
 6168SOL    HW228974   2.202   7.637   2.797
 6169SOL     OW28975   1.336   7.529   1.354
 6169SOL    HW128976   1.255   7.544   1.298
 6169SOL    HW228977   1.327   7.577   1.441
 6170SOL     OW28978   1.242   3.913   3.722
 6170SOL    HW128979   1.288   3.879   3.804
 6170SOL    HW228980   1.301   3.901   3.643
 6171SOL     OW28981   8.764   8.524   2.870
 6171SOL    HW128982   8.806   8.552   2.957
 6171SOL    HW228983   8.821   8.555   2.794
 6172SOL     OW28984   2.019   1.875   3.344
 6172SOL    HW128985   1.992   1.909   3.434
 6172SOL    HW228986   2.038   1.953   3.284
 6173SOL     OW28987   5.540   9.873   2.516
 6173SOL    HW128988   5.548   9.774   2.501
 6173SOL    HW228989   5.573   9.921   2.435
 6174SOL     OW28990   2.157   8.763   0.958
 6174SOL    HW128991   2.132   8.809   1.043
 6174SOL    HW228992   2.074   8.733   0.911
 6175SOL     OW28993   0.441   4.706   2.324
 6175SOL    HW128994   0.453   4.799   2.357
 6175SOL    HW228995   0.390   4.653   2.393
 6176SOL     OW28996   1.735   9.570   3.287
 6176SOL    HW128997   1.751   9.558   3.189
 6176SOL    HW228998   1.714   9.482   3.328
 6177SOL     OW28999   3.948   1.197   0.190
 6177SOL    HW129000   4.026   1.156   0.143
 6177SOL    HW229001   3.981   1.253   0.266
 6178SOL     OW29002   1.064   3.458   3.354
 6178SOL    HW129003   1.071   3.438   3.256
 6178SOL    HW229004   1.125   3.398   3.405
 6179SOL     OW29005   0.712   7.068   2.954
 6179SOL    HW129006   0.746   7.159   2.930
 6179SOL    HW229007   0.765   6.998   2.905
 6180SOL     OW29008   1.441   0.483   1.868
 6180SOL    HW129009   1.387   0.473   1.952
 6180SOL    HW229010   1.460   0.579   1.852
 6181SOL     OW29011   9.286   1.960   0.545
 6181SOL    HW129012   9.291   1.867   0.509
 6181SOL    HW229013   9.273   1.958   0.644
 6182SOL     OW29014   3.463   8.252   0.523
 6182SOL    HW129015   3.454   8.330   0.462
 6182SOL    HW229016   3.381   8.194   0.516
 6183SOL     OW29017   9.056   8.735   3.590
 6183SOL    HW129018   9.082   8.657   3.647
 6183SOL    HW229019   9.102   8.728   3.501
 6184SOL     OW29020   3.913   3.382   2.493
 6184SOL    HW129021   3.995   3.438   2.481
 6184SOL    HW229022   3.937   3.285   2.490
 6185SOL     OW29023   0.609   7.058   1.078
 6185SOL    HW129024   0.640   6.969   1.045
 6185SOL    HW229025   0.556   7.046   1.162
 6186SOL     OW29026   8.320   9.627   0.047
 6186SOL    HW129027   8.321   9.603   0.144
 6186SOL    HW229028   8.341   9.546   4.773
 6187SOL     OW29029   8.300   9.318   1.845
 6187SOL    HW129030   8.348   9.237   1.878
 6187SOL    HW229031   8.202   9.299   1.838
 6188SOL     OW29032   8.108   5.146   2.277
 6188SOL    HW129033   8.074   5.156   2.371
 6188SOL    HW229034   8.206   5.124   2.280
 6189SOL     OW29035   8.318   0.334   1.985
 6189SOL    HW129036   8.373   0.286   2.053
 6189SOL    HW229037   8.225   0.345   2.020
 6190SOL     OW29038   2.338   6.387   0.292
 6190SOL    HW129039   2.314   6.316   0.226
 6190SOL    HW229040   2.343   6.346   0.384
 6191SOL     OW29041   1.553   3.075   1.740
 6191SOL    HW129042   1.504   3.139   1.800
 6191SOL    HW229043   1.620   3.024   1.794
 6192SOL     OW29044   9.222   3.358   0.214
 6192SOL    HW129045   9.260   3.440   0.171
 6192SOL    HW229046   9.124   3.371   0.231
 6193SOL     OW29047   2.178   4.369   1.636
 6193SOL    HW129048   2.247   4.304   1.670
 6193SOL    HW229049   2.218   4.426   1.565
 6194SOL     OW29050   4.322   9.243   0.299
 6194SOL    HW129051   4.395   9.286   0.354
 6194SOL    HW229052   4.247   9.309   0.287
 6195SOL     OW29053   3.459   5.074   1.177
 6195SOL    HW129054   3.489   5.094   1.083
 6195SOL    HW229055   3.408   5.152   1.213
 6196SOL     OW29056   0.546   5.986   3.551
 6196SOL    HW129057   0.508   5.958   3.640
 6196SOL    HW229058   0.622   6.049   3.566
 6197SOL     OW29059   2.794   4.396   1.508
 6197SOL    HW129060   2.812   4.332   1.433
 6197SOL    HW229061   2.880   4.439   1.536
 6198SOL     OW29062   0.936   2.791   1.081
 6198SOL    HW129063   0.860   2.740   1.040
 6198SOL    HW229064   0.901   2.863   1.140
 6199SOL     OW29065   9.746   7.736   3.043
 6199SOL    HW129066   9.648   7.727   3.024
 6199SOL    HW229067   9.759   7.794   3.124
 6200SOL     OW29068   4.141   1.227   2.012
 6200SOL    HW129069   4.047   1.197   1.996
 6200SOL    HW229070   4.160   1.307   1.956
 6201SOL     OW29071   0.765   1.273   1.928
 6201SOL    HW129072   0.732   1.179   1.931
 6201SOL    HW229073   0.834   1.287   1.999
 6202SOL     OW29074   3.489   8.341   0.785
 6202SOL    HW129075   3.486   8.308   0.691
 6202SOL    HW229076   3.464   8.267   0.848
 6203SOL     OW29077   3.381   3.254   1.020
 6203SOL    HW129078   3.465   3.300   1.049
 6203SOL    HW229079   3.403   3.185   0.952
 6204SOL     OW29080   3.538   9.124   3.365
 6204SOL    HW129081   3.444   9.116   3.333
 6204SOL    HW229082   3.539   9.160   3.458
 6205SOL     OW29083   1.783   4.553   2.757
 6205SOL    HW129084   1.828   4.465   2.774
 6205SOL    HW229085   1.700   4.538   2.704
 6206SOL     OW29086   9.393   3.495   3.517
 6206SOL    HW129087   9.357   3.561   3.451
 6206SOL    HW229088   9.486   3.521   3.543
 6207SOL     OW29089   4.097   6.464   2.210
 6207SOL    HW129090   4.070   6.560   2.220
 6207SOL    HW229091   4.182   6.447   2.260
 6208SOL     OW29092   0.948   1.183   2.498
 6208SOL    HW129093   0.885   1.243   2.449
 6208SOL    HW229094   1.039   1.225   2.501
 6209SOL     OW29095   4.037   1.282   3.312
 6209SOL    HW129096   4.058   1.184   3.313
 6209SOL    HW229097   4.111   1.332   3.268
 6210SOL     OW29098   9.001   4.624   1.952
 6210SOL    HW129099   9.065   4.546   1.949
 6210SOL    HW229100   8.987   4.658   1.859
 6211SOL     OW29101   6.785   9.971   3.565
 6211SOL    HW129102   6.882   9.946   3.567
 6211SOL    HW229103   6.730   9.897   3.604
 6212SOL     OW29104   2.563   5.764   1.955
 6212SOL    HW129105   2.606   5.676   1.934
 6212SOL    HW229106   2.536   5.765   2.051
 6213SOL     OW29107   1.438   6.914   0.825
 6213SOL    HW129108   1.373   6.853   0.871
 6213SOL    HW229109   1.434   7.005   0.867
 6214SOL     OW29110   0.577   2.054   2.242
 6214SOL    HW129111   0.525   1.977   2.279
 6214SOL    HW229112   0.516   2.133   2.232
 6215SOL     OW29113   3.724   2.120   3.198
 6215SOL    HW129114   3.651   2.170   3.245
 6215SOL    HW229115   3.802   2.111   3.260
 6216SOL     OW29116   3.839   3.369   3.111
 6216SOL    HW129117   3.849   3.438   3.182
 6216SOL    HW229118   3.855   3.278   3.150
 6217SOL     OW29119   2.923   2.758   1.844
 6217SOL    HW129120   2.904   2.796   1.934
 6217SOL    HW229121   2.861   2.681   1.827
 6218SOL     OW29122   0.829   7.506   1.847
 6218SOL    HW129123   0.898   7.542   1.910
 6218SOL    HW229124   0.873   7.460   1.770
 6219SOL     OW29125   5.769   9.096   3.062
 6219SOL    HW129126   5.678   9.135   3.050
 6219SOL    HW229127   5.784   9.023   2.995
 6220SOL     OW29128   1.282   9.685   3.103
 6220SOL    HW129129   1.275   9.663   3.006
 6220SOL    HW229130   1.199   9.732   3.133
 6221SOL     OW29131   1.302   1.061   2.924
 6221SOL    HW129132   1.276   1.071   2.828
 6221SOL    HW229133   1.395   1.097   2.937
 6222SOL     OW29134   3.151   9.225   3.493
 6222SOL    HW129135   3.199   9.312   3.482
 6222SOL    HW229136   3.074   9.221   3.430
 6223SOL     OW29137   7.139   0.689   1.981
 6223SOL    HW129138   7.142   0.788   1.972
 6223SOL    HW229139   7.170   0.663   2.072
 6224SOL     OW29140   5.746   8.220   1.821
 6224SOL    HW129141   5.792   8.257   1.740
 6224SOL    HW229142   5.675   8.155   1.792
 6225SOL     OW29143   9.353   6.814   2.193
 6225SOL    HW129144   9.324   6.910   2.202
 6225SOL    HW229145   9.274   6.755   2.209
 6226SOL     OW29146   9.933   6.321   3.048
 6226SOL    HW129147   9.835   6.318   3.028
 6226SOL    HW229148   9.985   6.304   2.965
 6227SOL     OW29149   0.323   4.407   0.315
 6227SOL    HW129150   0.345   4.454   0.401
 6227SOL    HW229151   0.251   4.457   0.267
 6228SOL     OW29152   1.485   3.543   0.557
 6228SOL    HW129153   1.579   3.576   0.553
 6228SOL    HW229154   1.447   3.539   0.465
 6229SOL     OW29155   8.412   7.627   1.604
 6229SOL    HW129156   8.418   7.632   1.505
 6229SOL    HW229157   8.437   7.715   1.644
 6230SOL     OW29158   0.088   1.158   2.975
 6230SOL    HW129159   0.052   1.200   2.891
 6230SOL    HW229160   0.013   1.118   3.027
 6231SOL     OW29161   1.494   1.389   0.190
 6231SOL    HW129162   1.573   1.363   0.245
 6231SOL    HW229163   1.502   1.485   0.164
 6232SOL     OW29164   8.809   5.646   3.080
 6232SOL    HW129165   8.767   5.661   3.170
 6232SOL    HW229166   8.758   5.575   3.031
 6233SOL     OW29167   0.283   6.067   3.155
 6233SOL    HW129168   0.327   5.982   3.124
 6233SOL    HW229169   0.322   6.094   3.243
 6234SOL     OW29170   3.022   2.560   0.185
 6234SOL    HW129171   3.090   2.487   0.183
 6234SOL    HW229172   2.957   2.546   0.110
 6235SOL     OW29173   0.224   5.752   0.537
 6235SOL    HW129174   0.225   5.656   0.509
 6235SOL    HW229175   0.263   5.760   0.629
 6236SOL     OW29176   4.607   3.242   2.867
 6236SOL    HW129177   4.641   3.325   2.911
 6236SOL    HW229178   4.620   3.248   2.768
 6237SOL     OW29179   8.505   9.875   0.673
 6237SOL    HW129180   8.590   9.920   0.646
 6237SOL    HW229181   8.526   9.803   0.739
 6238SOL     OW29182   4.282   2.872   1.059
 6238SOL    HW129183   4.303   2.844   0.966
 6238SOL    HW229184   4.302   2.970   1.070
 6239SOL     OW29185   3.259   3.517   2.079
 6239SOL    HW129186   3.307   3.573   2.012
 6239SOL    HW229187   3.322   3.492   2.153
 6240SOL     OW29188   7.523   0.465   1.549
 6240SOL    HW129189   7.471   0.468   1.635
 6240SOL    HW229190   7.596   0.397   1.557
 6241SOL     OW29191   1.242   6.971   0.366
 6241SOL    HW129192   1.320   6.956   0.426
 6241SOL    HW229193   1.270   7.027   0.288
 6242SOL     OW29194   4.332   1.448   1.600
 6242SOL    HW129195   4.295   1.441   1.507
 6242SOL    HW229196   4.401   1.377   1.613
 6243SOL     OW29197   5.822   8.896   2.890
 6243SOL    HW129198   5.774   8.829   2.833
 6243SOL    HW229199   5.916   8.866   2.904
 6244SOL     OW29200   7.730   1.031   3.574
 6244SOL    HW129201   7.823   1.068   3.574
 6244SOL    HW229202   7.718   0.969   3.651
 6245SOL     OW29203   1.676   3.069   3.239
 6245SOL    HW129204   1.618   3.029   3.169
 6245SOL    HW229205   1.763   3.018   3.243
 6246SOL     OW29206   2.070   2.274   2.999
 6246SOL    HW129207   2.127   2.224   2.934
 6246SOL    HW229208   2.040   2.213   3.071
 6247SOL     OW29209   1.681   5.825   3.360
 6247SOL    HW129210   1.669   5.784   3.451
 6247SOL    HW229211   1.736   5.764   3.303
 6248SOL     OW29212   8.334   6.595   2.882
 6248SOL    HW129213   8.339   6.676   2.823
 6248SOL    HW229214   8.337   6.513   2.825
 6249SOL     OW29215   2.158   5.941   1.116
 6249SOL    HW129216   2.242   5.893   1.142
 6249SOL    HW229217   2.130   6.002   1.190
 6250SOL     OW29218   8.844   8.536   3.337
 6250SOL    HW129219   8.902   8.481   3.396
 6250SOL    HW229220   8.760   8.486   3.317
 6251SOL     OW29221   1.947   0.210   1.811
 6251SOL    HW129222   1.932   0.137   1.744
 6251SOL    HW229223   1.955   0.297   1.763
 6252SOL     OW29224   2.511   3.835   2.624
 6252SOL    HW129225   2.575   3.789   2.563
 6252SOL    HW229226   2.446   3.889   2.571
 6253SOL     OW29227   1.845   7.361   3.179
 6253SOL    HW129228   1.903   7.414   3.117
 6253SOL    HW229229   1.897   7.339   3.262
 6254SOL     OW29230   3.602   6.554   3.089
 6254SOL    HW129231   3.620   6.497   3.009
 6254SOL    HW229232   3.566   6.642   3.060
 6255SOL     OW29233   1.278   8.973   0.223
 6255SOL    HW129234   1.197   8.916   0.218
 6255SOL    HW229235   1.359   8.915   0.232
 6256SOL     OW29236   1.687   8.064   1.179
 6256SOL    HW129237   1.603   8.116   1.169
 6256SOL    HW229238   1.741   8.069   1.095
 6257SOL     OW29239   0.898   0.210   0.289
 6257SOL    HW129240   0.933   0.300   0.265
 6257SOL    HW229241   0.944   0.141   0.234
 6258SOL     OW29242   7.402   7.952   3.418
 6258SOL    HW129243   7.340   8.029   3.434
 6258SOL    HW229244   7.426   7.949   3.321
 6259SOL     OW29245   8.249   8.905   1.988
 6259SOL    HW129246   8.245   8.805   1.982
 6259SOL    HW229247   8.167   8.943   1.946
 6260SOL     OW29248   2.215   5.324   0.352
 6260SOL    HW129249   2.116   5.324   0.367
 6260SOL    HW229250   2.261   5.281   0.429
 6261SOL     OW29251   1.191   0.378   3.096
 6261SOL    HW129252   1.164   0.469   3.066
 6261SOL    HW229253   1.291   0.368   3.088
 6262SOL     OW29254   8.059   1.188   1.372
 6262SOL    HW129255   8.111   1.165   1.454
 6262SOL    HW229256   8.091   1.132   1.296
 6263SOL     OW29257   4.573   0.122   3.319
 6263SOL    HW129258   4.512   0.197   3.344
 6263SOL    HW229259   4.616   0.142   3.231
 6264SOL     OW29260   2.093   2.986   0.282
 6264SOL    HW129261   2.126   2.962   0.373
 6264SOL    HW229262   2.163   3.039   0.234
 6265SOL     OW29263   8.770   9.550   1.195
 6265SOL    HW129264   8.810   9.467   1.155
 6265SOL    HW229265   8.792   9.629   1.138
 6266SOL     OW29266   3.552   1.144   3.504
 6266SOL    HW129267   3.544   1.139   3.404
 6266SOL    HW229268   3.492   1.077   3.546
 6267SOL     OW29269   8.103   6.430   1.504
 6267SOL    HW129270   8.140   6.504   1.559
 6267SOL    HW229271   8.040   6.375   1.560
 6268SOL     OW29272   9.151   2.761   1.703
 6268SOL    HW129273   9.186   2.734   1.792
 6268SOL    HW229274   9.183   2.853   1.681
 6269SOL     OW29275   1.020   7.980   1.546
 6269SOL    HW129276   1.101   7.974   1.604
 6269SOL    HW229277   1.020   8.067   1.497
 6270SOL     OW29278   8.542   6.978   2.830
 6270SOL    HW129279   8.642   6.977   2.826
 6270SOL    HW229280   8.512   7.052   2.891
 6271SOL     OW29281   0.171   2.457   2.590
 6271SOL    HW129282   0.103   2.460   2.517
 6271SOL    HW229283   0.129   2.421   2.673
 6272SOL     OW29284   7.080   0.018   0.727
 6272SOL    HW129285   7.151   0.076   0.766
 6272SOL    HW229286   7.056   0.051   0.636
 6273SOL     OW29287   8.721   7.650   0.783
 6273SOL    HW129288   8.821   7.652   0.781
 6273SOL    HW229289   8.685   7.735   0.745
 6274SOL     OW29290   3.625   2.275   3.541
 6274SOL    HW129291   3.572   2.260   3.457
 6274SOL    HW229292   3.670   2.190   3.568
 6275SOL     OW29293   7.606   9.593   2.071
 6275SOL    HW129294   7.630   9.587   1.974
 6275SOL    HW229295   7.541   9.668   2.084
 6276SOL     OW29296   4.815   1.078   3.353
 6276SOL    HW129297   4.811   0.996   3.409
 6276SOL    HW229298   4.909   1.096   3.325
 6277SOL     OW29299   9.404   9.545   1.574
 6277SOL    HW129300   9.351   9.477   1.523
 6277SOL    HW229301   9.396   9.526   1.672
 6278SOL     OW29302   8.216   1.969   2.525
 6278SOL    HW129303   8.168   1.882   2.530
 6278SOL    HW229304   8.289   1.963   2.457
 6279SOL     OW29305   4.815   2.923   1.547
 6279SOL    HW129306   4.808   2.994   1.617
 6279SOL    HW229307   4.900   2.872   1.559
 6280SOL     OW29308   9.679   3.652   1.120
 6280SOL    HW129309   9.692   3.613   1.211
 6280SOL    HW229310   9.591   3.622   1.083
 6281SOL     OW29311   7.494   9.495   3.138
 6281SOL    HW129312   7.526   9.418   3.082
 6281SOL    HW229313   7.419   9.465   3.196
 6282SOL     OW29314   1.207   0.926   3.243
 6282SOL    HW129315   1.156   0.983   3.179
 6282SOL    HW229316   1.259   0.857   3.192
 6283SOL     OW29317   9.517   3.821   3.460
 6283SOL    HW129318   9.540   3.907   3.415
 6283SOL    HW229319   9.446   3.774   3.408
 6284SOL     OW29320   2.000   2.800   3.667
 6284SOL    HW129321   1.981   2.776   3.572
 6284SOL    HW229322   1.951   2.884   3.690
 6285SOL     OW29323   4.939   0.613   2.033
 6285SOL    HW129324   4.844   0.626   2.060
 6285SOL    HW229325   4.972   0.524   2.065
 6286SOL     OW29326   4.861   3.097   2.683
 6286SOL    HW129327   4.798   3.021   2.669
 6286SOL    HW229328   4.895   3.096   2.777
 6287SOL     OW29329   5.460   9.506   1.531
 6287SOL    HW129330   5.394   9.581   1.541
 6287SOL    HW229331   5.503   9.489   1.620
 6288SOL     OW29332   8.951   6.418   0.478
 6288SOL    HW129333   9.004   6.369   0.548
 6288SOL    HW229334   8.967   6.377   0.389
 6289SOL     OW29335   3.372   5.465   2.468
 6289SOL    HW129336   3.311   5.539   2.496
 6289SOL    HW229337   3.389   5.471   2.370
 6290SOL     OW29338   3.986   0.416   0.777
 6290SOL    HW129339   3.996   0.457   0.687
 6290SOL    HW229340   4.017   0.480   0.847
 6291SOL     OW29341   1.051   0.854   0.257
 6291SOL    HW129342   1.102   0.913   0.195
 6291SOL    HW229343   0.971   0.904   0.292
 6292SOL     OW29344   0.738   8.695   3.693
 6292SOL    HW129345   0.652   8.700   3.642
 6292SOL    HW229346   0.733   8.622   3.761
 6293SOL     OW29347   0.148   8.469   0.820
 6293SOL    HW129348   0.142   8.399   0.890
 6293SOL    HW229349   0.124   8.430   0.731
 6294SOL     OW29350   0.191   1.087   0.601
 6294SOL    HW129351   0.289   1.073   0.614
 6294SOL    HW229352   0.172   1.184   0.593
 6295SOL     OW29353   9.284   1.816   0.803
 6295SOL    HW129354   9.371   1.783   0.766
 6295SOL    HW229355   9.268   1.776   0.893
 6296SOL     OW29356   9.981   3.374   1.314
 6296SOL    HW129357   9.968   3.294   1.373
 6296SOL    HW229358   0.067   3.419   1.338
 6297SOL     OW29359   6.970   9.075   3.684
 6297SOL    HW129360   6.899   9.038   3.624
 6297SOL    HW229361   6.930   9.100   3.772
 6298SOL     OW29362   1.248   7.441   0.371
 6298SOL    HW129363   1.201   7.409   0.289
 6298SOL    HW229364   1.227   7.538   0.385
 6299SOL     OW29365   6.623   0.813   3.223
 6299SOL    HW129366   6.646   0.717   3.236
 6299SOL    HW229367   6.581   0.825   3.132
 6300SOL     OW29368   4.944   2.944   1.278
 6300SOL    HW129369   4.869   2.930   1.343
 6300SOL    HW229370   4.925   2.893   1.194
 6301SOL     OW29371   2.298   7.983   2.532
 6301SOL    HW129372   2.222   7.926   2.500
 6301SOL    HW229373   2.267   8.077   2.543
 6302SOL     OW29374   8.857   7.346   0.897
 6302SOL    HW129375   8.831   7.439   0.923
 6302SOL    HW229376   8.925   7.349   0.823
 6303SOL     OW29377   0.018   2.151   1.891
 6303SOL    HW129378   9.919   2.161   1.904
 6303SOL    HW229379   0.055   2.091   1.962
 6304SOL     OW29380   9.240   2.312   0.740
 6304SOL    HW129381   9.256   2.312   0.641
 6304SOL    HW229382   9.229   2.217   0.772
 6305SOL     OW29383   8.609   7.474   1.202
 6305SOL    HW129384   8.582   7.518   1.116
 6305SOL    HW229385   8.605   7.375   1.191
 6306SOL     OW29386   1.449   8.151   3.228
 6306SOL    HW129387   1.434   8.131   3.325
 6306SOL    HW229388   1.513   8.085   3.189
 6307SOL     OW29389   9.939   1.124   2.514
 6307SOL    HW129390   9.980   1.047   2.564
 6307SOL    HW229391   9.845   1.100   2.488
 6308SOL     OW29392   9.796   5.872   3.027
 6308SOL    HW129393   9.795   5.912   3.119
 6308SOL    HW229394   9.888   5.842   3.004
 6309SOL     OW29395   7.800   0.308   3.183
 6309SOL    HW129396   7.858   0.268   3.254
 6309SOL    HW229397   7.850   0.382   3.137
 6310SOL     OW29398   1.093   7.606   0.055
 6310SOL    HW129399   1.178   7.658   0.064
 6310SOL    HW229400   1.108   7.512   0.087
 6311SOL     OW29401   9.932   2.381   0.185
 6311SOL    HW129402   9.906   2.300   0.238
 6311SOL    HW229403   9.870   2.456   0.209
 6312SOL     OW29404   3.628   2.334   1.270
 6312SOL    HW129405   3.633   2.252   1.326
 6312SOL    HW229406   3.532   2.357   1.253
 6313SOL     OW29407   3.276   6.359   3.024
 6313SOL    HW129408   3.323   6.400   2.945
 6313SOL    HW229409   3.317   6.270   3.044
 6314SOL     OW29410   2.153   5.751   1.417
 6314SOL    HW129411   2.223   5.820   1.402
 6314SOL    HW229412   2.161   5.679   1.348
 6315SOL     OW29413   2.912   0.788   1.367
 6315SOL    HW129414   2.857   0.766   1.448
 6315SOL    HW229415   2.961   0.707   1.336
 6316SOL     OW29416   7.099   9.111   1.168
 6316SOL    HW129417   7.024   9.159   1.123
 6316SOL    HW229418   7.147   9.054   1.100
 6317SOL     OW29419   0.224   2.091   1.719
 6317SOL    HW129420   0.277   2.174   1.701
 6317SOL    HW229421   0.145   2.114   1.776
 6318SOL     OW29422   1.206   8.082   3.107
 6318SOL    HW129423   1.298   8.103   3.138
 6318SOL    HW229424   1.144   8.076   3.185
 6319SOL     OW29425   7.276   9.774   3.154
 6319SOL    HW129426   7.203   9.713   3.184
 6319SOL    HW229427   7.338   9.725   3.092
 6320SOL     OW29428   3.277   0.901   3.034
 6320SOL    HW129429   3.231   0.858   2.956
 6320SOL    HW229430   3.315   0.831   3.094
 6321SOL     OW29431   3.383   7.409   1.499
 6321SOL    HW129432   3.418   7.323   1.536
 6321SOL    HW229433   3.453   7.480   1.509
 6322SOL     OW29434   0.237   4.948   1.856
 6322SOL    HW129435   0.304   4.970   1.928
 6322SOL    HW229436   0.218   4.850   1.857
 6323SOL     OW29437   2.174   2.643   3.256
 6323SOL    HW129438   2.156   2.576   3.328
 6323SOL    HW229439   2.193   2.595   3.170
 6324SOL     OW29440   9.454   9.196   1.836
 6324SOL    HW129441   9.504   9.155   1.760
 6324SOL    HW229442   9.358   9.166   1.832
 6325SOL     OW29443   3.162   6.773   0.582
 6325SOL    HW129444   3.171   6.821   0.670
 6325SOL    HW229445   3.231   6.806   0.518
 6326SOL     OW29446   4.436   1.938   1.303
 6326SOL    HW129447   4.386   1.857   1.274
 6326SOL    HW229448   4.533   1.916   1.313
 6327SOL     OW29449   3.112   9.934   0.330
 6327SOL    HW129450   3.118   0.015   0.388
 6327SOL    HW229451   3.191   9.874   0.348
 6328SOL     OW29452   8.944   6.693   2.067
 6328SOL    HW129453   9.016   6.689   2.136
 6328SOL    HW229454   8.973   6.644   1.984
 6329SOL     OW29455   0.504   9.804   0.504
 6329SOL    HW129456   0.560   9.879   0.539
 6329SOL    HW229457   0.536   9.717   0.543
 6330SOL     OW29458   4.385   8.043   1.060
 6330SOL    HW129459   4.388   8.052   1.159
 6330SOL    HW229460   4.367   7.948   1.035
 6331SOL     OW29461   7.787   9.900   1.115
 6331SOL    HW129462   7.733   9.865   1.192
 6331SOL    HW229463   7.739   9.881   1.029
 6332SOL     OW29464   1.350   0.781   0.115
 6332SOL    HW129465   1.304   0.714   0.172
 6332SOL    HW229466   1.292   0.862   0.105
 6333SOL     OW29467   6.307   0.132   2.167
 6333SOL    HW129468   6.311   0.136   2.267
 6333SOL    HW229469   6.212   0.141   2.138
 6334SOL     OW29470   2.025   6.511   1.256
 6334SOL    HW129471   1.952   6.517   1.324
 6334SOL    HW229472   2.042   6.601   1.217
 6335SOL     OW29473   8.955   2.626   0.677
 6335SOL    HW129474   8.972   2.631   0.776
 6335SOL    HW229475   9.022   2.682   0.629
 6336SOL     OW29476   1.470   9.676   0.566
 6336SOL    HW129477   1.566   9.666   0.591
 6336SOL    HW229478   1.412   9.643   0.641
 6337SOL     OW29479   7.028   9.467   1.100
 6337SOL    HW129480   6.982   9.382   1.074
 6337SOL    HW229481   7.019   9.480   1.199
 6338SOL     OW29482   3.222   7.535   0.022
 6338SOL    HW129483   3.135   7.508   0.064
 6338SOL    HW229484   3.246   7.469   4.732
 6339SOL     OW29485   5.270   9.219   2.678
 6339SOL    HW129486   5.192   9.171   2.637
 6339SOL    HW229487   5.267   9.210   2.777
 6340SOL     OW29488   1.939   9.691   3.432
 6340SOL    HW129489   1.994   9.615   3.466
 6340SOL    HW229490   1.860   9.656   3.383
 6341SOL     OW29491   9.210   3.355   0.987
 6341SOL    HW129492   9.201   3.443   0.940
 6341SOL    HW229493   9.120   3.318   1.008
 6342SOL     OW29494   7.948   8.744   1.222
 6342SOL    HW129495   7.908   8.691   1.296
 6342SOL    HW229496   7.968   8.683   1.145
 6343SOL     OW29497   4.743   1.068   1.122
 6343SOL    HW129498   4.806   1.140   1.093
 6343SOL    HW229499   4.758   1.048   1.219
 6344SOL     OW29500   1.004   9.813   0.337
 6344SOL    HW129501   1.061   9.758   0.276
 6344SOL    HW229502   0.953   9.753   0.398
 6345SOL     OW29503   0.056   6.820   2.392
 6345SOL    HW129504   0.005   6.855   2.470
 6345SOL    HW229505   0.133   6.766   2.424
 6346SOL     OW29506   8.594   4.959   2.386
 6346SOL    HW129507   8.632   4.968   2.478
 6346SOL    HW229508   8.668   4.946   2.321
 6347SOL     OW29509   0.929   6.847   2.109
 6347SOL    HW129510   0.888   6.895   2.186
 6347SOL    HW229511   0.896   6.888   2.023
 6348SOL     OW29512   0.379   2.554   0.719
 6348SOL    HW129513   0.398   2.613   0.641
 6348SOL    HW229514   0.281   2.553   0.737
 6349SOL     OW29515   3.752   9.653   2.752
 6349SOL    HW129516   3.761   9.730   2.690
 6349SOL    HW229517   3.750   9.686   2.847
 6350SOL     OW29518   8.671   7.071   0.124
 6350SOL    HW129519   8.735   6.995   0.135
 6350SOL    HW229520   8.578   7.035   0.110
 6351SOL     OW29521   8.387   1.155   2.974
 6351SOL    HW129522   8.447   1.144   2.895
 6351SOL    HW229523   8.332   1.072   2.987
 6352SOL     OW29524   0.608   4.454   1.432
 6352SOL    HW129525   0.611   4.517   1.354
 6352SOL    HW229526   0.584   4.362   1.400
 6353SOL     OW29527   4.044   3.912   2.614
 6353SOL    HW129528   3.973   3.850   2.648
 6353SOL    HW229529   4.133   3.883   2.649
 6354SOL     OW29530   9.218   2.101   2.898
 6354SOL    HW129531   9.267   2.082   2.982
 6354SOL    HW229532   9.157   2.024   2.877
 6355SOL     OW29533   8.282   0.800   1.128
 6355SOL    HW129534   8.348   0.806   1.053
 6355SOL    HW229535   8.323   0.750   1.204
 6356SOL     OW29536   1.777   4.497   0.464
 6356SOL    HW129537   1.711   4.479   0.391
 6356SOL    HW229538   1.797   4.412   0.513
 6357SOL     OW29539   8.182   2.700   3.601
 6357SOL    HW129540   8.268   2.654   3.623
 6357SOL    HW229541   8.132   2.646   3.533
 6358SOL     OW29542   1.411   7.163   0.954
 6358SOL    HW129543   1.349   7.220   0.899
 6358SOL    HW229544   1.361   7.126   1.033
 6359SOL     OW29545   8.197   8.144   2.570
 6359SOL    HW129546   8.219   8.242   2.566
 6359SOL    HW229547   8.224   8.101   2.484
 6360SOL     OW29548   0.419   8.735   0.048
 6360SOL    HW129549   0.387   8.676   0.122
 6360SOL    HW229550   0.368   8.821   0.049
 6361SOL     OW29551   2.833   9.693   2.920
 6361SOL    HW129552   2.847   9.637   3.002
 6361SOL    HW229553   2.736   9.718   2.912
 6362SOL     OW29554   1.860   3.923   3.330
 6362SOL    HW129555   1.805   4.006   3.317
 6362SOL    HW229556   1.938   3.925   3.267
 6363SOL     OW29557   5.083   1.095   3.308
 6363SOL    HW129558   5.152   1.165   3.324
 6363SOL    HW229559   5.100   1.018   3.369
 6364SOL     OW29560   8.031   1.988   0.663
 6364SOL    HW129561   7.946   2.022   0.623
 6364SOL    HW229562   8.063   1.908   0.613
 6365SOL     OW29563   9.225   7.382   0.902
 6365SOL    HW129564   9.154   7.359   0.835
 6365SOL    HW229565   9.255   7.476   0.890
 6366SOL     OW29566   2.603   0.455   3.126
 6366SOL    HW129567   2.681   0.397   3.102
 6366SOL    HW229568   2.619   0.496   3.216
 6367SOL     OW29569   1.061   3.411   3.072
 6367SOL    HW129570   1.159   3.405   3.055
 6367SOL    HW229571   1.030   3.504   3.055
 6368SOL     OW29572   3.130   4.933   2.156
 6368SOL    HW129573   3.193   4.973   2.222
 6368SOL    HW229574   3.038   4.969   2.171
 6369SOL     OW29575   1.152   9.995   0.486
 6369SOL    HW129576   1.085   9.936   0.441
 6369SOL    HW229577   1.244   9.959   0.471
 6370SOL     OW29578   9.933   4.093   0.570
 6370SOL    HW129579   9.946   4.177   0.623
 6370SOL    HW229580   0.015   4.074   0.517
 6371SOL     OW29581   7.886   7.616   2.569
 6371SOL    HW129582   7.841   7.579   2.487
 6371SOL    HW229583   7.909   7.540   2.630
 6372SOL     OW29584   8.705   5.969   0.303
 6372SOL    HW129585   8.690   5.871   0.313
 6372SOL    HW229586   8.795   5.986   0.264
 6373SOL     OW29587   1.977   5.338   2.466
 6373SOL    HW129588   1.890   5.378   2.495
 6373SOL    HW229589   1.960   5.250   2.421
 6374SOL     OW29590   3.748   6.880   3.176
 6374SOL    HW129591   3.835   6.851   3.137
 6374SOL    HW229592   3.740   6.846   3.269
 6375SOL     OW29593   9.093   5.343   3.677
 6375SOL    HW129594   9.053   5.256   3.707
 6375SOL    HW229595   9.034   5.385   3.608
 6376SOL     OW29596   8.775   3.218   1.894
 6376SOL    HW129597   8.754   3.235   1.990
 6376SOL    HW229598   8.871   3.195   1.884
 6377SOL     OW29599   4.524   4.015   1.446
 6377SOL    HW129600   4.493   3.943   1.509
 6377SOL    HW229601   4.517   4.104   1.491
 6378SOL     OW29602   9.791   8.909   2.024
 6378SOL    HW129603   9.751   9.000   2.013
 6378SOL    HW229604   9.756   8.848   1.953
 6379SOL     OW29605   1.850   4.110   2.978
 6379SOL    HW129606   1.753   4.128   2.992
 6379SOL    HW229607   1.894   4.089   3.065
 6380SOL     OW29608   7.229   7.977   2.662
 6380SOL    HW129609   7.321   7.941   2.674
 6380SOL    HW229610   7.164   7.922   2.714
 6381SOL     OW29611   7.209   0.015   2.806
 6381SOL    HW129612   7.147   0.089   2.782
 6381SOL    HW229613   7.282   0.008   2.738
 6382SOL     OW29614   5.182   2.706   0.546
 6382SOL    HW129615   5.225   2.769   0.611
 6382SOL    HW229616   5.242   2.694   0.467
 6383SOL     OW29617   0.002   6.570   3.147
 6383SOL    HW129618   9.996   6.477   3.110
 6383SOL    HW229619   9.911   6.600   3.176
 6384SOL     OW29620   1.935   1.104   1.440
 6384SOL    HW129621   2.018   1.114   1.495
 6384SOL    HW229622   1.957   1.058   1.354
 6385SOL     OW29623   7.959   3.093   0.472
 6385SOL    HW129624   7.885   3.032   0.500
 6385SOL    HW229625   8.047   3.052   0.497
 6386SOL     OW29626   3.922   0.499   2.170
 6386SOL    HW129627   3.885   0.591   2.168
 6386SOL    HW229628   3.898   0.452   2.084
 6387SOL     OW29629   0.344   1.966   0.385
 6387SOL    HW129630   0.439   1.936   0.374
 6387SOL    HW229631   0.283   1.888   0.374
 6388SOL     OW29632   5.753   8.883   1.934
 6388SOL    HW129633   5.681   8.855   1.870
 6388SOL    HW229634   5.836   8.829   1.916
 6389SOL     OW29635   6.625   8.258   1.963
 6389SOL    HW129636   6.658   8.167   1.940
 6389SOL    HW229637   6.702   8.320   1.973
 6390SOL     OW29638   3.599   2.520   2.250
 6390SOL    HW129639   3.685   2.506   2.201
 6390SOL    HW229640   3.599   2.611   2.291
 6391SOL     OW29641   9.252   8.307   2.040
 6391SOL    HW129642   9.326   8.354   2.087
 6391SOL    HW229643   9.164   8.350   2.064
 6392SOL     OW29644   3.308   4.693   3.174
 6392SOL    HW129645   3.321   4.702   3.075
 6392SOL    HW229646   3.215   4.660   3.192
 6393SOL     OW29647   9.036   0.678   0.691
 6393SOL    HW129648   9.121   0.641   0.729
 6393SOL    HW229649   8.988   0.729   0.762
 6394SOL     OW29650   1.945   3.419   0.711
 6394SOL    HW129651   1.888   3.336   0.710
 6394SOL    HW229652   2.037   3.396   0.679
 6395SOL     OW29653   0.990   5.441   0.949
 6395SOL    HW129654   0.967   5.469   1.042
 6395SOL    HW229655   0.965   5.513   0.885
 6396SOL     OW29656   9.297   1.609   2.590
 6396SOL    HW129657   9.201   1.635   2.595
 6396SOL    HW229658   9.348   1.651   2.665
 6397SOL     OW29659   9.929   1.974   0.524
 6397SOL    HW129660   9.852   1.941   0.579
 6397SOL    HW229661   9.949   2.069   0.547
 6398SOL     OW29662   1.423   6.346   0.770
 6398SOL    HW129663   1.387   6.398   0.848
 6398SOL    HW229664   1.496   6.398   0.726
 6399SOL     OW29665   4.418   1.914   1.585
 6399SOL    HW129666   4.389   2.000   1.627
 6399SOL    HW229667   4.432   1.928   1.487
 6400SOL     OW29668   8.883   8.083   2.345
 6400SOL    HW129669   8.956   8.016   2.329
 6400SOL    HW229670   8.801   8.035   2.374
 6401SOL     OW29671   1.416   2.240   2.712
 6401SOL    HW129672   1.449   2.159   2.760
 6401SOL    HW229673   1.335   2.275   2.759
 6402SOL     OW29674   0.468   5.226   2.543
 6402SOL    HW129675   0.422   5.188   2.624
 6402SOL    HW229676   0.560   5.255   2.567
 6403SOL     OW29677   0.862   6.129   3.313
 6403SOL    HW129678   0.954   6.168   3.309
 6403SOL    HW229679   0.863   6.038   3.273
 6404SOL     OW29680   9.019   1.513   0.695
 6404SOL    HW129681   9.014   1.609   0.668
 6404SOL    HW229682   8.929   1.482   0.724
 6405SOL     OW29683   4.690   8.097   3.151
 6405SOL    HW129684   4.600   8.060   3.171
 6405SOL    HW229685   4.683   8.194   3.128
 6406SOL     OW29686   9.955   3.394   2.273
 6406SOL    HW129687   9.910   3.311   2.308
 6406SOL    HW229688   0.005   3.371   2.189
 6407SOL     OW29689   2.170   7.307   0.872
 6407SOL    HW129690   2.183   7.295   0.970
 6407SOL    HW229691   2.078   7.343   0.854
 6408SOL     OW29692   8.363   1.599   2.970
 6408SOL    HW129693   8.431   1.665   3.002
 6408SOL    HW229694   8.334   1.623   2.877
 6409SOL     OW29695   2.840   8.789   3.176
 6409SOL    HW129696   2.825   8.871   3.121
 6409SOL    HW229697   2.832   8.708   3.119
 6410SOL     OW29698   0.221   0.479   0.480
 6410SOL    HW129699   0.287   0.473   0.555
 6410SOL    HW229700   0.174   0.567   0.484
 6411SOL     OW29701   8.891   7.817   0.177
 6411SOL    HW129702   8.847   7.892   0.228
 6411SOL    HW229703   8.825   7.743   0.163
 6412SOL     OW29704   9.244   7.120   1.789
 6412SOL    HW129705   9.154   7.084   1.811
 6412SOL    HW229706   9.311   7.046   1.788
 6413SOL     OW29707   9.580   7.103   3.230
 6413SOL    HW129708   9.666   7.113   3.280
 6413SOL    HW229709   9.551   7.007   3.232
 6414SOL     OW29710   9.999   5.341   1.911
 6414SOL    HW129711   0.030   5.271   1.847
 6414SOL    HW229712   9.924   5.393   1.870
 6415SOL     OW29713   4.872   8.659   2.225
 6415SOL    HW129714   4.947   8.713   2.263
 6415SOL    HW229715   4.884   8.651   2.126
 6416SOL     OW29716   4.451   3.666   2.033
 6416SOL    HW129717   4.517   3.721   1.981
 6416SOL    HW229718   4.491   3.639   2.120
 6417SOL     OW29719   4.373   7.531   1.486
 6417SOL    HW129720   4.414   7.563   1.571
 6417SOL    HW229721   4.389   7.599   1.414
 6418SOL     OW29722   9.387   5.497   2.551
 6418SOL    HW129723   9.359   5.417   2.605
 6418SOL    HW229724   9.315   5.519   2.485
 6419SOL     OW29725   1.882   2.718   3.430
 6419SOL    HW129726   1.807   2.706   3.495
 6419SOL    HW229727   1.898   2.632   3.381
 6420SOL     OW29728   4.472   3.490   1.070
 6420SOL    HW129729   4.529   3.427   1.123
 6420SOL    HW229730   4.417   3.547   1.131
 6421SOL     OW29731   1.985   0.969   1.197
 6421SOL    HW129732   1.921   0.969   1.120
 6421SOL    HW229733   1.976   0.883   1.248
 6422SOL     OW29734   6.841   9.445   1.954
 6422SOL    HW129735   6.864   9.348   1.942
 6422SOL    HW229736   6.922   9.501   1.937
 6423SOL     OW29737   0.293   7.493   0.519
 6423SOL    HW129738   0.240   7.421   0.475
 6423SOL    HW229739   0.360   7.453   0.582
 6424SOL     OW29740   3.741   9.709   3.017
 6424SOL    HW129741   3.701   9.627   3.057
 6424SOL    HW229742   3.712   9.790   3.069
 6425SOL     OW29743   2.070   2.944   1.229
 6425SOL    HW129744   2.152   2.959   1.284
 6425SOL    HW229745   2.008   3.021   1.241
 6426SOL     OW29746   2.778   3.357   0.181
 6426SOL    HW129747   2.878   3.359   0.190
 6426SOL    HW229748   2.745   3.447   0.151
 6427SOL     OW29749   7.807   6.123   2.796
 6427SOL    HW129750   7.791   6.221   2.806
 6427SOL    HW229751   7.750   6.088   2.721
 6428SOL     OW29752   8.219   2.185   0.704
 6428SOL    HW129753   8.153   2.111   0.696
 6428SOL    HW229754   8.248   2.214   0.613
 6429SOL     OW29755   0.910   8.320   0.905
 6429SOL    HW129756   0.980   8.324   0.976
 6429SOL    HW229757   0.877   8.226   0.896
 6430SOL     OW29758   7.815   9.842   0.065
 6430SOL    HW129759   7.914   9.831   0.073
 6430SOL    HW229760   7.793   9.939   0.056
 6431SOL     OW29761   8.861   2.095   2.224
 6431SOL    HW129762   8.880   2.005   2.185
 6431SOL    HW229763   8.927   2.116   2.295
 6432SOL     OW29764   0.604   4.484   2.317
 6432SOL    HW129765   0.529   4.425   2.291
 6432SOL    HW229766   0.573   4.579   2.322
 6433SOL     OW29767   9.344   6.309   1.350
 6433SOL    HW129768   9.299   6.290   1.263
 6433SOL    HW229769   9.275   6.320   1.422
 6434SOL     OW29770   3.684   4.606   1.603
 6434SOL    HW129771   3.595   4.607   1.558
 6434SOL    HW229772   3.698   4.518   1.649
 6435SOL     OW29773   5.422   7.191   2.326
 6435SOL    HW129774   5.349   7.200   2.259
 6435SOL    HW229775   5.384   7.199   2.418
 6436SOL     OW29776   9.496   6.236   0.615
 6436SOL    HW129777   9.487   6.326   0.656
 6436SOL    HW229778   9.408   6.209   0.576
 6437SOL     OW29779   8.662   9.957   3.039
 6437SOL    HW129780   8.719   0.038   3.052
 6437SOL    HW229781   8.709   9.892   2.980
 6438SOL     OW29782   2.818   9.422   0.789
 6438SOL    HW129783   2.874   9.402   0.709
 6438SOL    HW229784   2.878   9.443   0.867
 6439SOL     OW29785   8.338   4.571   1.932
 6439SOL    HW129786   8.271   4.631   1.975
 6439SOL    HW229787   8.299   4.530   1.850
 6440SOL     OW29788   1.872   2.456   3.323
 6440SOL    HW129789   1.813   2.376   3.334
 6440SOL    HW229790   1.880   2.478   3.225
 6441SOL     OW29791   8.514   6.227   0.545
 6441SOL    HW129792   8.464   6.246   0.630
 6441SOL    HW229793   8.568   6.308   0.520
 6442SOL     OW29794   0.239   9.325   2.512
 6442SOL    HW129795   0.259   9.231   2.483
 6442SOL    HW229796   0.141   9.338   2.519
 6443SOL     OW29797   8.146   2.981   1.045
 6443SOL    HW129798   8.121   3.023   0.958
 6443SOL    HW229799   8.132   3.047   1.119
 6444SOL     OW29800   2.496   4.209   0.418
 6444SOL    HW129801   2.562   4.135   0.404
 6444SOL    HW229802   2.532   4.274   0.485
 6445SOL     OW29803   8.666   9.265   2.403
 6445SOL    HW129804   8.567   9.262   2.417
 6445SOL    HW229805   8.709   9.311   2.481
 6446SOL     OW29806   2.729   4.241   2.607
 6446SOL    HW129807   2.786   4.271   2.531
 6446SOL    HW229808   2.778   4.256   2.693
 6447SOL     OW29809   7.047   7.280   2.827
 6447SOL    HW129810   7.124   7.262   2.765
 6447SOL    HW229811   6.961   7.264   2.780
 6448SOL     OW29812   3.475   4.037   2.190
 6448SOL    HW129813   3.545   3.986   2.140
 6448SOL    HW229814   3.459   3.994   2.279
 6449SOL     OW29815   7.682   1.697   2.930
 6449SOL    HW129816   7.604   1.642   2.959
 6449SOL    HW229817   7.724   1.740   3.010
 6450SOL     OW29818   3.448   8.068   3.307
 6450SOL    HW129819   3.499   8.114   3.380
 6450SOL    HW229820   3.491   8.089   3.219
 6451SOL     OW29821   9.704   9.392   2.853
 6451SOL    HW129822   9.707   9.394   2.753
 6451SOL    HW229823   9.763   9.319   2.887
 6452SOL     OW29824   2.835   3.694   1.930
 6452SOL    HW129825   2.905   3.687   2.000
 6452SOL    HW229826   2.831   3.609   1.877
 6453SOL     OW29827   8.297   8.932   1.076
 6453SOL    HW129828   8.333   9.010   1.025
 6453SOL    HW229829   8.351   8.851   1.055
 6454SOL     OW29830   0.065   6.428   1.356
 6454SOL    HW129831   0.139   6.361   1.356
 6454SOL    HW229832   9.977   6.381   1.343
 6455SOL     OW29833   4.342   8.312   1.814
 6455SOL    HW129834   4.323   8.324   1.716
 6455SOL    HW229835   4.332   8.400   1.861
 6456SOL     OW29836   5.582   7.319   1.914
 6456SOL    HW129837   5.618   7.374   1.839
 6456SOL    HW229838   5.633   7.234   1.922
 6457SOL     OW29839   9.216   2.107   0.107
 6457SOL    HW129840   9.174   2.090   0.196
 6457SOL    HW229841   9.179   2.043   0.040
 6458SOL     OW29842   2.070   3.722   0.882
 6458SOL    HW129843   2.154   3.674   0.857
 6458SOL    HW229844   2.091   3.793   0.949
 6459SOL     OW29845   2.132   4.864   1.973
 6459SOL    HW129846   2.175   4.848   1.884
 6459SOL    HW229847   2.189   4.824   2.045
 6460SOL     OW29848   3.452   8.901   2.196
 6460SOL    HW129849   3.532   8.886   2.255
 6460SOL    HW229850   3.423   8.814   2.157
 6461SOL     OW29851   9.082   5.440   0.851
 6461SOL    HW129852   9.140   5.361   0.831
 6461SOL    HW229853   9.036   5.469   0.767
 6462SOL     OW29854   3.136   3.478   1.209
 6462SOL    HW129855   3.223   3.527   1.200
 6462SOL    HW229856   3.152   3.380   1.197
 6463SOL     OW29857   9.550   9.300   3.179
 6463SOL    HW129858   9.617   9.227   3.193
 6463SOL    HW229859   9.587   9.367   3.115
 6464SOL     OW29860   0.817   5.220   0.974
 6464SOL    HW129861   0.864   5.138   1.006
 6464SOL    HW229862   0.884   5.292   0.956
 6465SOL     OW29863   4.211   9.312   0.710
 6465SOL    HW129864   4.137   9.246   0.721
 6465SOL    HW229865   4.242   9.342   0.801
 6466SOL     OW29866   1.666   3.969   1.813
 6466SOL    HW129867   1.648   3.872   1.799
 6466SOL    HW229868   1.764   3.986   1.813
 6467SOL     OW29869   1.398   9.952   3.467
 6467SOL    HW129870   1.395   9.996   3.378
 6467SOL    HW229871   1.456   9.871   3.463
 6468SOL     OW29872   0.479   3.828   1.299
 6468SOL    HW129873   0.458   3.818   1.201
 6468SOL    HW229874   0.571   3.866   1.309
 6469SOL     OW29875   2.472   2.496   1.157
 6469SOL    HW129876   2.513   2.572   1.207
 6469SOL    HW229877   2.488   2.509   1.059
 6470SOL     OW29878   1.149   5.946   3.424
 6470SOL    HW129879   1.129   6.036   3.384
 6470SOL    HW229880   1.066   5.910   3.466
 6471SOL     OW29881   2.890   3.808   3.555
 6471SOL    HW129882   2.949   3.729   3.536
 6471SOL    HW229883   2.803   3.777   3.593
 6472SOL     OW29884   3.004   6.009   1.787
 6472SOL    HW129885   3.080   5.948   1.808
 6472SOL    HW229886   2.924   5.984   1.842
 6473SOL     OW29887   3.530   9.757   0.064
 6473SOL    HW129888   3.496   9.695   0.134
 6473SOL    HW229889   3.467   9.834   0.054
 6474SOL     OW29890   1.890   7.240   2.715
 6474SOL    HW129891   1.822   7.310   2.736
 6474SOL    HW229892   1.853   7.178   2.646
 6475SOL     OW29893   7.448   9.992   2.244
 6475SOL    HW129894   7.548   9.995   2.251
 6475SOL    HW229895   7.421   9.907   2.199
 6476SOL     OW29896   2.609   6.025   0.513
 6476SOL    HW129897   2.592   5.977   0.599
 6476SOL    HW229898   2.701   6.002   0.480
 6477SOL     OW29899   8.702   8.738   2.589
 6477SOL    HW129900   8.785   8.697   2.627
 6477SOL    HW229901   8.641   8.765   2.664
 6478SOL     OW29902   9.416   4.713   3.495
 6478SOL    HW129903   9.453   4.647   3.430
 6478SOL    HW229904   9.318   4.723   3.480
 6479SOL     OW29905   7.891   8.340   3.568
 6479SOL    HW129906   7.925   8.246   3.576
 6479SOL    HW229907   7.960   8.402   3.604
 6480SOL     OW29908   9.458   1.373   1.353
 6480SOL    HW129909   9.391   1.434   1.395
 6480SOL    HW229910   9.412   1.311   1.290
 6481SOL     OW29911   0.921   2.190   1.750
 6481SOL    HW129912   0.821   2.190   1.740
 6481SOL    HW229913   0.945   2.177   1.846
 6482SOL     OW29914   0.476   3.422   3.527
 6482SOL    HW129915   0.564   3.459   3.556
 6482SOL    HW229916   0.459   3.334   3.572
 6483SOL     OW29917   2.451   4.833   1.246
 6483SOL    HW129918   2.400   4.840   1.332
 6483SOL    HW229919   2.542   4.873   1.258
 6484SOL     OW29920   4.604   7.234   3.130
 6484SOL    HW129921   4.648   7.166   3.072
 6484SOL    HW229922   4.540   7.189   3.192
 6485SOL     OW29923   2.188   5.382   2.143
 6485SOL    HW129924   2.156   5.450   2.209
 6485SOL    HW229925   2.112   5.353   2.086
 6486SOL     OW29926   8.954   4.651   0.857
 6486SOL    HW129927   8.879   4.707   0.822
 6486SOL    HW229928   8.960   4.661   0.956
 6487SOL     OW29929   3.494   1.702   3.364
 6487SOL    HW129930   3.525   1.739   3.452
 6487SOL    HW229931   3.405   1.741   3.342
 6488SOL     OW29932   7.518   2.717   0.434
 6488SOL    HW129933   7.524   2.814   0.458
 6488SOL    HW229934   7.481   2.707   0.342
 6489SOL     OW29935   1.905   4.784   1.623
 6489SOL    HW129936   1.827   4.804   1.682
 6489SOL    HW229937   1.965   4.718   1.668
 6490SOL     OW29938   1.396   9.198   0.114
 6490SOL    HW129939   1.344   9.117   0.141
 6490SOL    HW229940   1.334   9.266   0.075
 6491SOL     OW29941   5.091   2.554   2.151
 6491SOL    HW129942   5.107   2.598   2.063
 6491SOL    HW229943   5.063   2.624   2.218
 6492SOL     OW29944   1.008   1.887   2.068
 6492SOL    HW129945   0.945   1.821   2.027
 6492SOL    HW229946   1.102   1.854   2.058
 6493SOL     OW29947   1.854   5.731   2.905
 6493SOL    HW129948   1.858   5.637   2.940
 6493SOL    HW229949   1.913   5.790   2.961
 6494SOL     OW29950   8.046   0.687   0.232
 6494SOL    HW129951   8.038   0.785   0.215
 6494SOL    HW229952   8.086   0.642   0.153
 6495SOL     OW29953   4.472   3.349   1.452
 6495SOL    HW129954   4.530   3.343   1.371
 6495SOL    HW229955   4.432   3.259   1.471
 6496SOL     OW29956   1.646   1.626   2.457
 6496SOL    HW129957   1.712   1.688   2.414
 6496SOL    HW229958   1.582   1.593   2.388
 6497SOL     OW29959   5.266   9.047   2.246
 6497SOL    HW129960   5.350   9.086   2.284
 6497SOL    HW229961   5.281   9.022   2.150
 6498SOL     OW29962   2.378   1.914   3.568
 6498SOL    HW129963   2.431   1.867   3.639
 6498SOL    HW229964   2.439   1.935   3.491
 6499SOL     OW29965   9.016   7.056   2.656
 6499SOL    HW129966   9.091   7.012   2.607
 6499SOL    HW229967   8.929   7.036   2.610
 6500SOL     OW29968   7.040   0.660   3.137
 6500SOL    HW129969   6.952   0.656   3.089
 6500SOL    HW229970   7.081   0.568   3.138
 6501SOL     OW29971   0.487   1.484   1.258
 6501SOL    HW129972   0.575   1.454   1.294
 6501SOL    HW229973   0.421   1.410   1.268
 6502SOL     OW29974   8.907   4.994   3.438
 6502SOL    HW129975   8.895   4.907   3.487
 6502SOL    HW229976   9.000   5.000   3.403
 6503SOL     OW29977   4.293   1.293   3.541
 6503SOL    HW129978   4.313   1.387   3.512
 6503SOL    HW229979   4.323   1.229   3.470
 6504SOL     OW29980   9.569   1.590   1.817
 6504SOL    HW129981   9.541   1.655   1.888
 6504SOL    HW229982   9.653   1.622   1.774
 6505SOL     OW29983   2.384   7.290   0.414
 6505SOL    HW129984   2.432   7.207   0.389
 6505SOL    HW229985   2.439   7.370   0.388
 6506SOL     OW29986   3.753   7.135   3.428
 6506SOL    HW129987   3.688   7.081   3.482
 6506SOL    HW229988   3.770   7.222   3.473
 6507SOL     OW29989   2.052   7.169   1.462
 6507SOL    HW129990   1.967   7.201   1.504
 6507SOL    HW229991   2.032   7.092   1.401
 6508SOL     OW29992   1.059   1.685   3.456
 6508SOL    HW129993   1.134   1.654   3.515
 6508SOL    HW229994   1.087   1.674   3.360
 6509SOL     OW29995   2.782   8.297   3.609
 6509SOL    HW129996   2.760   8.218   3.666
 6509SOL    HW229997   2.774   8.272   3.512
 6510SOL     OW29998   0.039   6.154   3.246
 6510SOL    HW129999   9.992   6.215   3.183
 6510SOL    HW230000   0.121   6.118   3.203
 6511SOL     OW30001   2.286   4.526   1.435
 6511SOL    HW130002   2.384   4.534   1.451
 6511SOL    HW230003   2.265   4.551   1.341
 6512SOL     OW30004   3.710   4.982   1.816
 6512SOL    HW130005   3.779   5.055   1.812
 6512SOL    HW230006   3.628   5.011   1.768
 6513SOL     OW30007   9.319   3.677   3.327
 6513SOL    HW130008   9.387   3.677   3.254
 6513SOL    HW230009   9.234   3.720   3.294
 6514SOL     OW30010   9.363   0.996   3.005
 6514SOL    HW130011   9.292   1.035   3.063
 6514SOL    HW230012   9.365   1.046   2.918
 6515SOL     OW30013   6.841   0.392   2.831
 6515SOL    HW130014   6.830   0.349   2.921
 6515SOL    HW230015   6.764   0.366   2.772
 6516SOL     OW30016   0.366   9.906   3.393
 6516SOL    HW130017   0.342   9.830   3.454
 6516SOL    HW230018   0.416   9.975   3.444
 6517SOL     OW30019   1.490   0.552   3.458
 6517SOL    HW130020   1.402   0.599   3.467
 6517SOL    HW230021   1.479   0.456   3.484
 6518SOL     OW30022   8.672   2.230   1.403
 6518SOL    HW130023   8.762   2.230   1.361
 6518SOL    HW230024   8.647   2.138   1.431
 6519SOL     OW30025   0.761   5.563   2.395
 6519SOL    HW130026   0.825   5.519   2.333
 6519SOL    HW230027   0.810   5.626   2.455
 6520SOL     OW30028   2.528   0.886   3.158
 6520SOL    HW130029   2.511   0.806   3.101
 6520SOL    HW230030   2.603   0.940   3.119
 6521SOL     OW30031   9.688   7.018   0.560
 6521SOL    HW130032   9.656   6.944   0.620
 6521SOL    HW230033   9.694   6.984   0.466
 6522SOL     OW30034   9.286   1.705   0.462
 6522SOL    HW130035   9.275   1.692   0.363
 6522SOL    HW230036   9.280   1.617   0.508
 6523SOL     OW30037   5.113   2.287   2.208
 6523SOL    HW130038   5.108   2.386   2.191
 6523SOL    HW230039   5.192   2.249   2.159
 6524SOL     OW30040   3.749   1.289   2.265
 6524SOL    HW130041   3.801   1.368   2.231
 6524SOL    HW230042   3.708   1.311   2.353
 6525SOL     OW30043   9.113   4.994   1.342
 6525SOL    HW130044   9.049   4.918   1.352
 6525SOL    HW230045   9.088   5.067   1.406
 6526SOL     OW30046   8.480   2.578   0.601
 6526SOL    HW130047   8.435   2.555   0.515
 6526SOL    HW230048   8.523   2.496   0.640
 6527SOL     OW30049   8.822   7.820   1.341
 6527SOL    HW130050   8.820   7.720   1.344
 6527SOL    HW230051   8.899   7.850   1.284
 6528SOL     OW30052   8.848   0.848   3.021
 6528SOL    HW130053   8.926   0.816   3.075
 6528SOL    HW230054   8.877   0.926   2.965
 6529SOL     OW30055   0.477   4.572   3.409
 6529SOL    HW130056   0.452   4.565   3.313
 6529SOL    HW230057   0.577   4.572   3.418
 6530SOL     OW30058   9.882   5.147   0.644
 6530SOL    HW130059   9.945   5.072   0.628
 6530SOL    HW230060   9.930   5.234   0.631
 6531SOL     OW30061   1.408   2.464   2.553
 6531SOL    HW130062   1.432   2.382   2.604
 6531SOL    HW230063   1.310   2.464   2.534
 6532SOL     OW30064   8.476   0.723   1.951
 6532SOL    HW130065   8.442   0.694   2.041
 6532SOL    HW230066   8.446   0.659   1.882
 6533SOL     OW30067   4.429   3.517   3.079
 6533SOL    HW130068   4.375   3.435   3.100
 6533SOL    HW230069   4.379   3.574   3.013
 6534SOL     OW30070   0.637   6.335   2.764
 6534SOL    HW130071   0.584   6.251   2.756
 6534SOL    HW230072   0.723   6.326   2.714
 6535SOL     OW30073   0.540   2.345   3.252
 6535SOL    HW130074   0.637   2.342   3.228
 6535SOL    HW230075   0.511   2.440   3.262
 6536SOL     OW30076   3.660   0.199   1.042
 6536SOL    HW130077   3.601   0.200   1.124
 6536SOL    HW230078   3.643   0.282   0.989
 6537SOL     OW30079   0.623   6.468   0.165
 6537SOL    HW130080   0.708   6.454   0.115
 6537SOL    HW230081   0.575   6.381   0.174
 6538SOL     OW30082   8.335   5.338   1.572
 6538SOL    HW130083   8.281   5.392   1.507
 6538SOL    HW230084   8.432   5.359   1.560
 6539SOL     OW30085   8.703   3.533   2.224
 6539SOL    HW130086   8.695   3.436   2.198
 6539SOL    HW230087   8.671   3.590   2.149
 6540SOL     OW30088   7.708   9.617   0.796
 6540SOL    HW130089   7.630   9.581   0.745
 6540SOL    HW230090   7.720   9.565   0.880
 6541SOL     OW30091   4.122   1.005   3.300
 6541SOL    HW130092   4.217   1.012   3.268
 6541SOL    HW230093   4.121   0.968   3.393
 6542SOL     OW30094   8.611   5.240   3.110
 6542SOL    HW130095   8.568   5.321   3.150
 6542SOL    HW230096   8.640   5.179   3.183
 6543SOL     OW30097   9.686   5.404   0.085
 6543SOL    HW130098   9.682   5.372   0.180
 6543SOL    HW230099   9.680   5.326   0.023
 6544SOL     OW30100   1.676   4.957   2.393
 6544SOL    HW130101   1.594   4.922   2.438
 6544SOL    HW230102   1.696   4.901   2.313
 6545SOL     OW30103   3.765   5.008   3.777
 6545SOL    HW130104   3.747   4.913   3.754
 6545SOL    HW230105   3.858   5.032   3.750
 6546SOL     OW30106   9.746   0.327   3.216
 6546SOL    HW130107   9.828   0.273   3.232
 6546SOL    HW230108   9.735   0.392   3.291
 6547SOL     OW30109   3.649   9.997   0.855
 6547SOL    HW130110   3.648   0.069   0.924
 6547SOL    HW230111   3.742   9.962   0.845
 6548SOL     OW30112   2.057   8.362   2.394
 6548SOL    HW130113   1.971   8.343   2.443
 6548SOL    HW230114   2.039   8.423   2.317
 6549SOL     OW30115   2.904   1.223   2.159
 6549SOL    HW130116   2.852   1.298   2.119
 6549SOL    HW230117   2.904   1.231   2.258
 6550SOL     OW30118   1.943   3.999   1.817
 6550SOL    HW130119   1.960   3.971   1.912
 6550SOL    HW230120   1.997   3.942   1.755
 6551SOL     OW30121   8.289   6.838   0.975
 6551SOL    HW130122   8.255   6.932   0.977
 6551SOL    HW230123   8.338   6.822   0.888
 6552SOL     OW30124   7.454   1.582   3.043
 6552SOL    HW130125   7.425   1.647   3.112
 6552SOL    HW230126   7.466   1.492   3.085
 6553SOL     OW30127   1.415   6.370   2.518
 6553SOL    HW130128   1.369   6.334   2.436
 6553SOL    HW230129   1.511   6.343   2.517
 6554SOL     OW30130   1.131   8.545   0.269
 6554SOL    HW130131   1.096   8.635   0.244
 6554SOL    HW230132   1.222   8.554   0.310
 6555SOL     OW30133   0.763   7.850   3.454
 6555SOL    HW130134   0.746   7.946   3.430
 6555SOL    HW230135   0.859   7.828   3.438
 6556SOL     OW30136   3.203   9.263   0.903
 6556SOL    HW130137   3.144   9.205   0.847
 6556SOL    HW230138   3.282   9.293   0.849
 6557SOL     OW30139   9.424   4.573   0.962
 6557SOL    HW130140   9.362   4.500   0.991
 6557SOL    HW230141   9.475   4.543   0.882
 6558SOL     OW30142   9.706   8.159   2.470
 6558SOL    HW130143   9.737   8.254   2.463
 6558SOL    HW230144   9.654   8.135   2.388
 6559SOL     OW30145   0.656   4.734   1.709
 6559SOL    HW130146   0.697   4.661   1.763
 6559SOL    HW230147   0.717   4.758   1.633
 6560SOL     OW30148   7.686   2.755   0.109
 6560SOL    HW130149   7.719   2.848   0.095
 6560SOL    HW230150   7.764   2.692   0.114
 6561SOL     OW30151   1.841   8.280   2.537
 6561SOL    HW130152   1.755   8.331   2.529
 6561SOL    HW230153   1.827   8.187   2.503
 6562SOL     OW30154   9.160   7.306   0.166
 6562SOL    HW130155   9.141   7.356   0.082
 6562SOL    HW230156   9.090   7.326   0.234
 6563SOL     OW30157   2.455   6.945   0.716
 6563SOL    HW130158   2.530   7.011   0.710
 6563SOL    HW230159   2.372   6.991   0.746
 6564SOL     OW30160   4.483   2.497   1.427
 6564SOL    HW130161   4.571   2.524   1.388
 6564SOL    HW230162   4.426   2.455   1.356
 6565SOL     OW30163   4.004   1.863   1.680
 6565SOL    HW130164   3.993   1.854   1.778
 6565SOL    HW230165   4.078   1.803   1.648
 6566SOL     OW30166   9.135   1.295   2.846
 6566SOL    HW130167   9.070   1.356   2.892
 6566SOL    HW230168   9.228   1.322   2.869
 6567SOL     OW30169   3.695   0.045   3.534
 6567SOL    HW130170   3.787   0.078   3.515
 6567SOL    HW230171   3.685   9.952   3.500
 6568SOL     OW30172   9.419   5.643   1.270
 6568SOL    HW130173   9.431   5.599   1.182
 6568SOL    HW230174   9.437   5.577   1.343
 6569SOL     OW30175   7.963   0.089   1.045
 6569SOL    HW130176   7.904   0.167   1.024
 6569SOL    HW230177   7.907   0.013   1.079
 6570SOL     OW30178   1.456   3.381   2.129
 6570SOL    HW130179   1.420   3.312   2.067
 6570SOL    HW230180   1.436   3.355   2.223
 6571SOL     OW30181   9.120   1.402   0.145
 6571SOL    HW130182   9.214   1.377   0.121
 6571SOL    HW230183   9.073   1.322   0.180
 6572SOL     OW30184   2.326   5.301   2.564
 6572SOL    HW130185   2.367   5.221   2.609
 6572SOL    HW230186   2.252   5.336   2.621
 6573SOL     OW30187   3.740   1.908   0.246
 6573SOL    HW130188   3.794   1.979   0.201
 6573SOL    HW230189   3.792   1.822   0.247
 6574SOL     OW30190   3.279   3.365   3.694
 6574SOL    HW130191   3.293   3.426   3.771
 6574SOL    HW230192   3.357   3.371   3.632
 6575SOL     OW30193   9.237   7.848   3.204
 6575SOL    HW130194   9.290   7.914   3.150
 6575SOL    HW230195   9.144   7.842   3.168
 6576SOL     OW30196   1.241   4.926   2.257
 6576SOL    HW130197   1.149   4.960   2.236
 6576SOL    HW230198   1.283   4.892   2.173
 6577SOL     OW30199   2.002   4.150   2.369
 6577SOL    HW130200   1.910   4.185   2.381
 6577SOL    HW230201   2.012   4.063   2.418
 6578SOL     OW30202   3.818   1.121   3.565
 6578SOL    HW130203   3.863   1.211   3.566
 6578SOL    HW230204   3.720   1.132   3.548
 6579SOL     OW30205   2.504   1.270   1.080
 6579SOL    HW130206   2.576   1.335   1.056
 6579SOL    HW230207   2.459   1.300   1.164
 6580SOL     OW30208   2.469   5.239   3.240
 6580SOL    HW130209   2.395   5.191   3.288
 6580SOL    HW230210   2.510   5.307   3.301
 6581SOL     OW30211   9.979   3.234   0.074
 6581SOL    HW130212   0.048   3.305   0.086
 6581SOL    HW230213   9.889   3.270   0.099
 6582SOL     OW30214   7.553   8.503   0.892
 6582SOL    HW130215   7.515   8.568   0.959
 6582SOL    HW230216   7.600   8.554   0.820
 6583SOL     OW30217   2.261   1.842   2.557
 6583SOL    HW130218   2.314   1.771   2.604
 6583SOL    HW230219   2.164   1.827   2.572
 6584SOL     OW30220   8.616   6.433   1.947
 6584SOL    HW130221   8.673   6.457   1.869
 6584SOL    HW230222   8.638   6.493   2.024
 6585SOL     OW30223   8.241   3.378   3.345
 6585SOL    HW130224   8.214   3.340   3.434
 6585SOL    HW230225   8.233   3.477   3.348
 6586SOL     OW30226   9.434   9.551   0.753
 6586SOL    HW130227   9.347   9.588   0.786
 6586SOL    HW230228   9.509   9.587   0.808
 6587SOL     OW30229   4.369   6.220   2.540
 6587SOL    HW130230   4.400   6.273   2.619
 6587SOL    HW230231   4.292   6.162   2.566
 6588SOL     OW30232   0.949   8.887   2.778
 6588SOL    HW130233   0.994   8.975   2.793
 6588SOL    HW230234   1.009   8.813   2.807
 6589SOL     OW30235   0.853   4.546   1.522
 6589SOL    HW130236   0.765   4.508   1.494
 6589SOL    HW230237   0.913   4.472   1.554
 6590SOL     OW30238   1.416   4.017   2.755
 6590SOL    HW130239   1.396   4.025   2.658
 6590SOL    HW230240   1.388   4.101   2.802
 6591SOL     OW30241   1.372   9.516   1.316
 6591SOL    HW130242   1.345   9.609   1.290
 6591SOL    HW230243   1.456   9.492   1.268
 6592SOL     OW30244   1.234   4.303   1.848
 6592SOL    HW130245   1.259   4.388   1.895
 6592SOL    HW230246   1.317   4.256   1.817
 6593SOL     OW30247   0.659   2.407   2.348
 6593SOL    HW130248   0.632   2.501   2.330
 6593SOL    HW230249   0.598   2.345   2.298
 6594SOL     OW30250   0.845   2.143   3.574
 6594SOL    HW130251   0.754   2.184   3.584
 6594SOL    HW230252   0.834   2.047   3.549
 6595SOL     OW30253   5.842   0.079   2.476
 6595SOL    HW130254   5.826   0.105   2.571
 6595SOL    HW230255   5.916   0.135   2.438
 6596SOL     OW30256   4.987   8.744   1.972
 6596SOL    HW130257   4.969   8.837   2.004
 6596SOL    HW230258   4.953   8.732   1.879
 6597SOL     OW30259   7.818   7.352   3.561
 6597SOL    HW130260   7.826   7.449   3.583
 6597SOL    HW230261   7.727   7.333   3.525
 6598SOL     OW30262   0.581   2.997   0.456
 6598SOL    HW130263   0.580   2.931   0.381
 6598SOL    HW230264   0.552   3.086   0.422
 6599SOL     OW30265   0.890   3.580   0.229
 6599SOL    HW130266   0.850   3.645   0.165
 6599SOL    HW230267   0.820   3.515   0.259
 6600SOL     OW30268   9.993   6.729   3.519
 6600SOL    HW130269   0.063   6.763   3.456
 6600SOL    HW230270   9.998   6.779   3.606
 6601SOL     OW30271   3.425   4.445   3.281
 6601SOL    HW130272   3.380   4.440   3.370
 6601SOL    HW230273   3.412   4.537   3.242
 6602SOL     OW30274   5.746   7.629   2.745
 6602SOL    HW130275   5.731   7.573   2.663
 6602SOL    HW230276   5.819   7.588   2.800
 6603SOL     OW30277   3.205   0.555   3.383
 6603SOL    HW130278   3.169   0.542   3.475
 6603SOL    HW230279   3.289   0.501   3.372
 6604SOL     OW30280   1.138   9.132   0.599
 6604SOL    HW130281   1.128   9.048   0.653
 6604SOL    HW230282   1.219   9.126   0.541
 6605SOL     OW30283   2.415   1.509   2.251
 6605SOL    HW130284   2.514   1.516   2.261
 6605SOL    HW230285   2.372   1.595   2.281
 6606SOL     OW30286   2.142   8.388   0.777
 6606SOL    HW130287   2.228   8.418   0.819
 6606SOL    HW230288   2.163   8.325   0.702
 6607SOL     OW30289   9.289   0.074   1.694
 6607SOL    HW130290   9.265   9.990   1.646
 6607SOL    HW230291   9.344   0.052   1.775
 6608SOL     OW30292   0.778   4.284   1.726
 6608SOL    HW130293   0.756   4.373   1.766
 6608SOL    HW230294   0.873   4.284   1.696
 6609SOL     OW30295   8.714   4.488   2.628
 6609SOL    HW130296   8.626   4.453   2.662
 6609SOL    HW230297   8.722   4.585   2.650
 6610SOL     OW30298   3.854   7.309   0.637
 6610SOL    HW130299   3.941   7.280   0.597
 6610SOL    HW230300   3.835   7.403   0.610
 6611SOL     OW30301   8.390   5.381   1.850
 6611SOL    HW130302   8.354   5.359   1.760
 6611SOL    HW230303   8.434   5.470   1.848
 6612SOL     OW30304   8.925   7.823   2.565
 6612SOL    HW130305   8.946   7.726   2.554
 6612SOL    HW230306   8.989   7.877   2.510
 6613SOL     OW30307   8.797   7.294   0.553
 6613SOL    HW130308   8.734   7.344   0.612
 6613SOL    HW230309   8.746   7.240   0.486
 6614SOL     OW30310   2.908   8.437   0.338
 6614SOL    HW130311   2.918   8.533   0.311
 6614SOL    HW230312   2.995   8.389   0.326
 6615SOL     OW30313   3.362   1.476   2.545
 6615SOL    HW130314   3.376   1.568   2.581
 6615SOL    HW230315   3.378   1.477   2.446
 6616SOL     OW30316   3.056   1.804   2.081
 6616SOL    HW130317   3.104   1.757   2.155
 6616SOL    HW230318   3.080   1.760   1.994
 6617SOL     OW30319   3.399   2.977   1.766
 6617SOL    HW130320   3.401   3.009   1.861
 6617SOL    HW230321   3.393   3.055   1.704
 6618SOL     OW30322   1.431   9.096   0.930
 6618SOL    HW130323   1.386   9.169   0.879
 6618SOL    HW230324   1.527   9.121   0.944
 6619SOL     OW30325   1.732   3.196   0.174
 6619SOL    HW130326   1.784   3.174   0.257
 6619SOL    HW230327   1.695   3.112   0.134
 6620SOL     OW30328   3.928   2.111   3.388
 6620SOL    HW130329   4.014   2.063   3.373
 6620SOL    HW230330   3.941   2.209   3.375
 6621SOL     OW30331   8.563   9.741   0.123
 6621SOL    HW130332   8.481   9.710   0.076
 6621SOL    HW230333   8.541   9.821   0.180
 6622SOL     OW30334   4.621   8.859   2.908
 6622SOL    HW130335   4.680   8.897   2.980
 6622SOL    HW230336   4.645   8.900   2.820
 6623SOL     OW30337   0.207   8.980   3.122
 6623SOL    HW130338   0.219   8.894   3.072
 6623SOL    HW230339   0.114   8.985   3.159
 6624SOL     OW30340   2.260   4.872   3.069
 6624SOL    HW130341   2.203   4.950   3.095
 6624SOL    HW230342   2.207   4.810   3.012
 6625SOL     OW30343   8.966   6.001   0.211
 6625SOL    HW130344   9.040   5.976   0.273
 6625SOL    HW230345   8.971   5.945   0.128
 6626SOL     OW30346   8.375   3.666   2.309
 6626SOL    HW130347   8.362   3.694   2.214
 6626SOL    HW230348   8.310   3.594   2.332
 6627SOL     OW30349   2.129   6.853   2.182
 6627SOL    HW130350   2.199   6.909   2.138
 6627SOL    HW230351   2.084   6.905   2.255
 6628SOL     OW30352   1.989   4.323   1.108
 6628SOL    HW130353   1.925   4.300   1.181
 6628SOL    HW230354   2.083   4.321   1.144
 6629SOL     OW30355   0.473   6.114   2.776
 6629SOL    HW130356   0.428   6.107   2.686
 6629SOL    HW230357   0.412   6.159   2.840
 6630SOL     OW30358   3.697   0.424   1.297
 6630SOL    HW130359   3.668   0.509   1.252
 6630SOL    HW230360   3.625   0.355   1.286
 6631SOL     OW30361   9.226   4.313   3.576
 6631SOL    HW130362   9.325   4.326   3.567
 6631SOL    HW230363   9.204   4.215   3.570
 6632SOL     OW30364   2.135   0.670   1.997
 6632SOL    HW130365   2.170   0.585   1.957
 6632SOL    HW230366   2.124   0.738   1.925
 6633SOL     OW30367   2.757   1.419   2.017
 6633SOL    HW130368   2.688   1.355   1.984
 6633SOL    HW230369   2.828   1.430   1.947
 6634SOL     OW30370   2.426   3.326   1.935
 6634SOL    HW130371   2.339   3.370   1.957
 6634SOL    HW230372   2.416   3.227   1.945
 6635SOL     OW30373   0.783   2.765   3.012
 6635SOL    HW130374   0.862   2.822   2.990
 6635SOL    HW230375   0.701   2.807   2.972
 6636SOL     OW30376   9.646   9.673   0.894
 6636SOL    HW130377   9.672   9.758   0.846
 6636SOL    HW230378   9.728   9.617   0.907
 6637SOL     OW30379   8.019   4.847   3.599
 6637SOL    HW130380   8.114   4.826   3.623
 6637SOL    HW230381   7.962   4.766   3.610
 6638SOL     OW30382   1.385   6.404   1.541
 6638SOL    HW130383   1.303   6.356   1.572
 6638SOL    HW230384   1.396   6.489   1.594
 6639SOL     OW30385   0.711   0.614   3.024
 6639SOL    HW130386   0.710   0.529   3.077
 6639SOL    HW230387   0.787   0.672   3.055
 6640SOL     OW30388   0.504   0.297   0.719
 6640SOL    HW130389   0.470   0.391   0.718
 6640SOL    HW230390   0.434   0.235   0.684
 6641SOL     OW30391   8.082   0.475   3.629
 6641SOL    HW130392   8.016   0.541   3.593
 6641SOL    HW230393   8.169   0.520   3.645
 6642SOL     OW30394   7.726   5.762   3.574
 6642SOL    HW130395   7.689   5.700   3.643
 6642SOL    HW230396   7.815   5.729   3.543
 6643SOL     OW30397   9.734   8.711   0.507
 6643SOL    HW130398   9.669   8.787   0.512
 6643SOL    HW230399   9.731   8.659   0.593
 6644SOL     OW30400   8.244   7.669   2.157
 6644SOL    HW130401   8.169   7.729   2.130
 6644SOL    HW230402   8.318   7.676   2.090
 6645SOL     OW30403   0.797   9.795   0.714
 6645SOL    HW130404   0.730   9.753   0.776
 6645SOL    HW230405   0.757   9.876   0.671
 6646SOL     OW30406   2.113   0.857   1.791
 6646SOL    HW130407   2.083   0.947   1.823
 6646SOL    HW230408   2.201   0.865   1.745
 6647SOL     OW30409   0.801   8.973   3.692
 6647SOL    HW130410   0.775   8.876   3.691
 6647SOL    HW230411   0.772   9.017   3.608
 6648SOL     OW30412   1.904   7.870   1.447
 6648SOL    HW130413   1.808   7.860   1.422
 6648SOL    HW230414   1.912   7.942   1.517
 6649SOL     OW30415   8.643   7.178   1.568
 6649SOL    HW130416   8.729   7.186   1.518
 6649SOL    HW230417   8.610   7.269   1.592
 6650SOL     OW30418   2.734   8.155   3.371
 6650SOL    HW130419   2.711   8.095   3.448
 6650SOL    HW230420   2.657   8.158   3.308
 6651SOL     OW30421   0.137   4.817   0.196
 6651SOL    HW130422   0.081   4.898   0.180
 6651SOL    HW230423   0.225   4.845   0.236
 6652SOL     OW30424   9.710   2.413   0.840
 6652SOL    HW130425   9.738   2.409   0.936
 6652SOL    HW230426   9.730   2.504   0.803
 6653SOL     OW30427   1.116   4.661   0.870
 6653SOL    HW130428   1.076   4.589   0.925
 6653SOL    HW230429   1.166   4.621   0.793
 6654SOL     OW30430   5.602   7.763   3.239
 6654SOL    HW130431   5.596   7.675   3.191
 6654SOL    HW230432   5.698   7.784   3.257
 6655SOL     OW30433   2.662   7.536   3.559
 6655SOL    HW130434   2.616   7.586   3.632
 6655SOL    HW230435   2.596   7.480   3.510
 6656SOL     OW30436   2.731   1.850   1.245
 6656SOL    HW130437   2.830   1.851   1.230
 6656SOL    HW230438   2.705   1.928   1.302
 6657SOL     OW30439   9.746   2.575   0.248
 6657SOL    HW130440   9.660   2.619   0.226
 6657SOL    HW230441   9.785   2.618   0.330
 6658SOL     OW30442   2.497   6.937   2.559
 6658SOL    HW130443   2.472   7.027   2.524
 6658SOL    HW230444   2.580   6.906   2.513
 6659SOL     OW30445   7.850   7.066   3.572
 6659SOL    HW130446   7.848   7.165   3.581
 6659SOL    HW230447   7.800   7.025   3.649
 6660SOL     OW30448   0.089   6.976   0.067
 6660SOL    HW130449   9.993   6.979   0.093
 6660SOL    HW230450   0.100   7.010   4.755
 6661SOL     OW30451   9.330   8.764   2.568
 6661SOL    HW130452   9.419   8.788   2.529
 6661SOL    HW230453   9.260   8.771   2.497
 6662SOL     OW30454   1.203   9.358   0.371
 6662SOL    HW130455   1.105   9.355   0.352
 6662SOL    HW230456   1.238   9.264   0.381
 6663SOL     OW30457   3.761   8.581   1.604
 6663SOL    HW130458   3.710   8.496   1.620
 6663SOL    HW230459   3.731   8.622   1.518
 6664SOL     OW30460   0.676   7.523   2.488
 6664SOL    HW130461   0.676   7.490   2.393
 6664SOL    HW230462   0.768   7.550   2.514
 6665SOL     OW30463   1.466   8.849   3.616
 6665SOL    HW130464   1.406   8.774   3.591
 6665SOL    HW230465   1.431   8.935   3.578
 6666SOL     OW30466   4.049   9.093   0.766
 6666SOL    HW130467   3.970   9.047   0.807
 6666SOL    HW230468   4.082   9.041   0.688
 6667SOL     OW30469   6.050   1.052   2.996
 6667SOL    HW130470   6.116   1.110   2.948
 6667SOL    HW230471   5.965   1.049   2.944
 6668SOL     OW30472   0.640   1.985   1.986
 6668SOL    HW130473   0.693   1.900   1.988
 6668SOL    HW230474   0.626   2.018   2.079
 6669SOL     OW30475   3.914   3.817   2.386
 6669SOL    HW130476   3.960   3.792   2.301
 6669SOL    HW230477   3.981   3.851   2.451
 6670SOL     OW30478   0.556   7.943   2.215
 6670SOL    HW130479   0.481   8.003   2.242
 6670SOL    HW230480   0.564   7.869   2.282
 6671SOL     OW30481   5.197   0.286   1.575
 6671SOL    HW130482   5.203   0.272   1.477
 6671SOL    HW230483   5.261   0.225   1.622
 6672SOL     OW30484   8.951   3.499   3.473
 6672SOL    HW130485   9.029   3.438   3.489
 6672SOL    HW230486   8.983   3.594   3.470
 6673SOL     OW30487   1.975   3.903   2.071
 6673SOL    HW130488   1.895   3.874   2.124
 6673SOL    HW230489   2.056   3.901   2.129
 6674SOL     OW30490   4.252   9.387   1.623
 6674SOL    HW130491   4.289   9.480   1.622
 6674SOL    HW230492   4.277   9.340   1.539
 6675SOL     OW30493   5.054   3.439   0.870
 6675SOL    HW130494   5.055   3.343   0.898
 6675SOL    HW230495   5.133   3.459   0.812
 6676SOL     OW30496   2.395   2.333   3.155
 6676SOL    HW130497   2.345   2.396   3.096
 6676SOL    HW230498   2.452   2.385   3.218
 6677SOL     OW30499   7.767   3.018   0.076
 6677SOL    HW130500   7.760   3.044   4.761
 6677SOL    HW230501   7.830   3.080   0.122
 6678SOL     OW30502   9.964   7.293   0.166
 6678SOL    HW130503   9.897   7.365   0.185
 6678SOL    HW230504   0.031   7.290   0.240
 6679SOL     OW30505   0.618   2.534   2.843
 6679SOL    HW130506   0.633   2.465   2.771
 6679SOL    HW230507   0.672   2.615   2.822
 6680SOL     OW30508   8.317   6.576   1.073
 6680SOL    HW130509   8.235   6.536   1.114
 6680SOL    HW230510   8.299   6.671   1.049
 6681SOL     OW30511   1.080   2.071   0.370
 6681SOL    HW130512   1.022   2.011   0.314
 6681SOL    HW230513   1.081   2.037   0.464
 6682SOL     OW30514   8.568   8.130   1.528
 6682SOL    HW130515   8.635   8.058   1.544
 6682SOL    HW230516   8.583   8.205   1.593
 6683SOL     OW30517   4.147   7.663   2.868
 6683SOL    HW130518   4.191   7.626   2.950
 6683SOL    HW230519   4.189   7.751   2.844
 6684SOL     OW30520   1.862   2.274   1.401
 6684SOL    HW130521   1.942   2.238   1.352
 6684SOL    HW230522   1.801   2.198   1.425
 6685SOL     OW30523   9.902   1.645   0.902
 6685SOL    HW130524   9.910   1.605   0.993
 6685SOL    HW230525   9.891   1.744   0.910
 6686SOL     OW30526   3.770   8.932   0.598
 6686SOL    HW130527   3.690   8.929   0.538
 6686SOL    HW230528   3.789   8.840   0.632
 6687SOL     OW30529   4.039   3.987   1.504
 6687SOL    HW130530   3.960   4.037   1.540
 6687SOL    HW230531   4.110   4.052   1.478
 6688SOL     OW30532   8.051   2.752   3.095
 6688SOL    HW130533   8.110   2.682   3.055
 6688SOL    HW230534   8.107   2.825   3.135
 6689SOL     OW30535   0.579   2.936   0.872
 6689SOL    HW130536   0.632   2.862   0.831
 6689SOL    HW230537   0.521   2.899   0.944
 6690SOL     OW30538   7.860   9.886   3.058
 6690SOL    HW130539   7.870   9.883   3.158
 6690SOL    HW230540   7.942   9.850   3.015
 6691SOL     OW30541   3.292   7.853   3.083
 6691SOL    HW130542   3.363   7.871   3.015
 6691SOL    HW230543   3.228   7.929   3.086
 6692SOL     OW30544   5.397   1.002   3.095
 6692SOL    HW130545   5.335   1.078   3.076
 6692SOL    HW230546   5.461   0.991   3.019
 6693SOL     OW30547   0.211   0.156   3.584
 6693SOL    HW130548   0.160   0.091   3.527
 6693SOL    HW230549   0.309   0.146   3.566
 6694SOL     OW30550   9.201   8.410   0.239
 6694SOL    HW130551   9.196   8.448   0.331
 6694SOL    HW230552   9.285   8.441   0.195
 6695SOL     OW30553   7.335   6.859   3.531
 6695SOL    HW130554   7.408   6.853   3.462
 6695SOL    HW230555   7.349   6.789   3.601
 6696SOL     OW30556   3.011   0.505   0.081
 6696SOL    HW130557   2.945   0.580   0.072
 6696SOL    HW230558   3.053   0.487   4.774
 6697SOL     OW30559   1.316   8.159   0.358
 6697SOL    HW130560   1.292   8.195   0.268
 6697SOL    HW230561   1.279   8.219   0.429
 6698SOL     OW30562   9.669   0.235   0.301
 6698SOL    HW130563   9.748   0.246   0.242
 6698SOL    HW230564   9.699   0.226   0.396
 6699SOL     OW30565   8.056   0.390   0.573
 6699SOL    HW130566   8.139   0.373   0.520
 6699SOL    HW230567   8.005   0.465   0.531
 6700SOL     OW30568   0.894   9.808   3.648
 6700SOL    HW130569   0.869   9.785   3.742
 6700SOL    HW230570   0.992   9.828   3.644
 6701SOL     OW30571   0.485   2.363   0.360
 6701SOL    HW130572   0.533   2.421   0.294
 6701SOL    HW230573   0.390   2.395   0.370
 6702SOL     OW30574   2.130   6.661   3.379
 6702SOL    HW130575   2.102   6.582   3.432
 6702SOL    HW230576   2.189   6.631   3.304
 6703SOL     OW30577   1.979   1.460   1.997
 6703SOL    HW130578   2.063   1.444   2.049
 6703SOL    HW230579   1.968   1.558   1.981
 6704SOL     OW30580   7.762   8.237   2.347
 6704SOL    HW130581   7.835   8.254   2.413
 6704SOL    HW230582   7.695   8.173   2.386
 6705SOL     OW30583   9.571   7.194   2.968
 6705SOL    HW130584   9.555   7.119   2.904
 6705SOL    HW230585   9.588   7.158   3.059
 6706SOL     OW30586   7.243   0.032   3.076
 6706SOL    HW130587   7.225   0.025   2.978
 6706SOL    HW230588   7.250   9.941   3.116
 6707SOL     OW30589   0.537   7.064   0.455
 6707SOL    HW130590   0.514   7.127   0.381
 6707SOL    HW230591   0.479   7.083   0.534
 6708SOL     OW30592   0.593   4.182   0.305
 6708SOL    HW130593   0.494   4.185   0.289
 6708SOL    HW230594   0.640   4.177   0.217
 6709SOL     OW30595   3.475   5.483   0.470
 6709SOL    HW130596   3.506   5.394   0.435
 6709SOL    HW230597   3.460   5.476   0.569
 6710SOL     OW30598   3.395   2.502   2.072
 6710SOL    HW130599   3.321   2.569   2.080
 6710SOL    HW230600   3.460   2.514   2.148
 6711SOL     OW30601   8.873   5.620   1.547
 6711SOL    HW130602   8.816   5.701   1.534
 6711SOL    HW230603   8.912   5.592   1.460
 6712SOL     OW30604   8.087   3.675   3.601
 6712SOL    HW130605   8.012   3.697   3.665
 6712SOL    HW230606   8.165   3.639   3.653
 6713SOL     OW30607   2.966   9.218   3.287
 6713SOL    HW130608   2.916   9.137   3.317
 6713SOL    HW230609   2.985   9.211   3.189
 6714SOL     OW30610   0.392   9.013   2.218
 6714SOL    HW130611   0.360   8.950   2.148
 6714SOL    HW230612   0.490   8.998   2.234
 6715SOL     OW30613   0.193   3.516   1.420
 6715SOL    HW130614   0.137   3.520   1.502
 6715SOL    HW230615   0.285   3.484   1.443
 6716SOL     OW30616   6.266   0.482   3.098
 6716SOL    HW130617   6.231   0.557   3.154
 6716SOL    HW230618   6.208   0.471   3.017
 6717SOL     OW30619   4.018   9.109   0.183
 6717SOL    HW130620   3.992   9.095   0.279
 6717SOL    HW230621   4.117   9.112   0.175
 6718SOL     OW30622   1.302   9.820   1.947
 6718SOL    HW130623   1.390   9.834   1.992
 6718SOL    HW230624   1.238   9.778   2.011
 6719SOL     OW30625   2.803   0.344   2.603
 6719SOL    HW130626   2.727   0.408   2.599
 6719SOL    HW230627   2.846   0.350   2.693
 6720SOL     OW30628   0.387   7.314   1.965
 6720SOL    HW130629   0.457   7.385   1.975
 6720SOL    HW230630   0.333   7.308   2.049
 6721SOL     OW30631   6.487   9.141   2.675
 6721SOL    HW130632   6.469   9.157   2.772
 6721SOL    HW230633   6.545   9.214   2.640
 6722SOL     OW30634   0.278   3.091   3.410
 6722SOL    HW130635   0.332   3.160   3.361
 6722SOL    HW230636   0.185   3.090   3.374
 6723SOL     OW30637   2.840   2.869   2.083
 6723SOL    HW130638   2.788   2.815   2.150
 6723SOL    HW230639   2.788   2.950   2.058
 6724SOL     OW30640   9.962   9.311   2.535
 6724SOL    HW130641   9.865   9.336   2.542
 6724SOL    HW230642   9.998   9.290   2.626
 6725SOL     OW30643   3.137   7.649   1.434
 6725SOL    HW130644   3.150   7.747   1.416
 6725SOL    HW230645   3.224   7.608   1.459
 6726SOL     OW30646   1.298   9.140   2.675
 6726SOL    HW130647   1.221   9.131   2.739
 6726SOL    HW230648   1.308   9.236   2.649
 6727SOL     OW30649   9.153   0.716   2.110
 6727SOL    HW130650   9.246   0.705   2.144
 6727SOL    HW230651   9.111   0.797   2.150
 6728SOL     OW30652   0.729   9.216   1.451
 6728SOL    HW130653   0.645   9.235   1.503
 6728SOL    HW230654   0.805   9.204   1.514
 6729SOL     OW30655   3.827   2.882   0.129
 6729SOL    HW130656   3.818   2.884   0.228
 6729SOL    HW230657   3.749   2.832   0.090
 6730SOL     OW30658   1.832   8.580   2.979
 6730SOL    HW130659   1.801   8.637   3.054
 6730SOL    HW230660   1.890   8.634   2.917
 6731SOL     OW30661   0.899   9.650   2.458
 6731SOL    HW130662   0.828   9.663   2.389
 6731SOL    HW230663   0.865   9.679   2.548
 6732SOL     OW30664   3.889   9.265   2.488
 6732SOL    HW130665   3.803   9.266   2.436
 6732SOL    HW230666   3.901   9.353   2.534
 6733SOL     OW30667   4.947   9.481   2.630
 6733SOL    HW130668   4.950   9.415   2.704
 6733SOL    HW230669   5.039   9.493   2.592
 6734SOL     OW30670   6.506   7.566   2.597
 6734SOL    HW130671   6.515   7.648   2.653
 6734SOL    HW230672   6.442   7.583   2.522
 6735SOL     OW30673   2.226   2.694   0.084
 6735SOL    HW130674   2.181   2.777   0.052
 6735SOL    HW230675   2.165   2.647   0.149
 6736SOL     OW30676   2.347   8.554   1.752
 6736SOL    HW130677   2.364   8.596   1.663
 6736SOL    HW230678   2.423   8.572   1.814
 6737SOL     OW30679   1.711   0.732   3.458
 6737SOL    HW130680   1.710   0.764   3.363
 6737SOL    HW230681   1.642   0.662   3.471
 6738SOL     OW30682   3.939   9.932   1.356
 6738SOL    HW130683   3.869   9.860   1.348
 6738SOL    HW230684   3.923   9.985   1.438
 6739SOL     OW30685   7.238   6.918   3.050
 6739SOL    HW130686   7.168   6.988   3.039
 6739SOL    HW230687   7.212   6.836   3.000
 6740SOL     OW30688   3.448   7.848   2.125
 6740SOL    HW130689   3.366   7.903   2.113
 6740SOL    HW230690   3.479   7.815   2.035
 6741SOL     OW30691   1.201   1.166   1.163
 6741SOL    HW130692   1.211   1.257   1.204
 6741SOL    HW230693   1.106   1.152   1.136
 6742SOL     OW30694   1.930   6.105   3.119
 6742SOL    HW130695   1.938   6.146   3.029
 6742SOL    HW230696   1.962   6.011   3.116
 6743SOL     OW30697   4.622   4.512   0.569
 6743SOL    HW130698   4.719   4.487   0.564
 6743SOL    HW230699   4.595   4.521   0.664
 6744SOL     OW30700   0.585   2.074   3.220
 6744SOL    HW130701   0.566   2.172   3.224
 6744SOL    HW230702   0.561   2.032   3.308
 6745SOL     OW30703   1.775   4.487   1.902
 6745SOL    HW130704   1.844   4.417   1.884
 6745SOL    HW230705   1.820   4.573   1.927
 6746SOL     OW30706   4.344   7.133   3.568
 6746SOL    HW130707   4.423   7.098   3.619
 6746SOL    HW230708   4.369   7.145   3.472
 6747SOL     OW30709   2.749   0.166   1.235
 6747SOL    HW130710   2.688   0.207   1.304
 6747SOL    HW230711   2.777   0.075   1.265
 6748SOL     OW30712   4.328   9.308   3.446
 6748SOL    HW130713   4.383   9.391   3.455
 6748SOL    HW230714   4.320   9.263   3.535
 6749SOL     OW30715   3.405   1.743   2.609
 6749SOL    HW130716   3.497   1.757   2.574
 6749SOL    HW230717   3.339   1.788   2.548
 6750SOL     OW30718   1.443   2.301   3.307
 6750SOL    HW130719   1.402   2.217   3.271
 6750SOL    HW230720   1.424   2.377   3.246
 6751SOL     OW30721   4.161   9.264   2.430
 6751SOL    HW130722   4.062   9.266   2.446
 6751SOL    HW230723   4.180   9.226   2.339
 6752SOL     OW30724   4.607   3.596   0.856
 6752SOL    HW130725   4.705   3.611   0.866
 6752SOL    HW230726   4.571   3.552   0.938
 6753SOL     OW30727   0.922   5.958   1.162
 6753SOL    HW130728   0.898   5.881   1.221
 6753SOL    HW230729   0.923   5.928   1.067
 6754SOL     OW30730   9.385   1.426   2.978
 6754SOL    HW130731   9.439   1.507   3.003
 6754SOL    HW230732   9.313   1.413   3.046
 6755SOL     OW30733   0.263   7.228   3.108
 6755SOL    HW130734   0.320   7.175   3.046
 6755SOL    HW230735   0.168   7.224   3.077
 6756SOL     OW30736   9.172   4.996   3.370
 6756SOL    HW130737   9.164   4.897   3.376
 6756SOL    HW230738   9.267   5.023   3.389
 6757SOL     OW30739   0.655   5.434   2.872
 6757SOL    HW130740   0.687   5.528   2.882
 6757SOL    HW230741   0.689   5.379   2.948
 6758SOL     OW30742   9.548   6.214   1.514
 6758SOL    HW130743   9.601   6.296   1.538
 6758SOL    HW230744   9.469   6.241   1.459
 6759SOL     OW30745   7.205   8.355   2.317
 6759SOL    HW130746   7.151   8.438   2.331
 6759SOL    HW230747   7.174   8.283   2.379
 6760SOL     OW30748   7.759   1.622   1.894
 6760SOL    HW130749   7.852   1.657   1.887
 6760SOL    HW230750   7.761   1.529   1.932
 6761SOL     OW30751   9.926   7.129   2.779
 6761SOL    HW130752   9.910   7.090   2.870
 6761SOL    HW230753   0.020   7.160   2.773
 6762SOL     OW30754   9.049   0.184   1.758
 6762SOL    HW130755   9.141   0.152   1.739
 6762SOL    HW230756   9.043   0.215   1.853
 6763SOL     OW30757   3.416   5.128   2.803
 6763SOL    HW130758   3.426   5.190   2.881
 6763SOL    HW230759   3.371   5.178   2.728
 6764SOL     OW30760   2.754   2.154   2.664
 6764SOL    HW130761   2.674   2.182   2.717
 6764SOL    HW230762   2.833   2.147   2.725
 6765SOL     OW30763   0.736   4.193   0.064
 6765SOL    HW130764   0.690   4.233   4.766
 6765SOL    HW230765   0.819   4.245   0.085
 6766SOL     OW30766   1.587   1.085   0.200
 6766SOL    HW130767   1.516   1.066   0.268
 6766SOL    HW230768   1.550   1.147   0.130
 6767SOL     OW30769   9.194   0.943   0.845
 6767SOL    HW130770   9.155   1.020   0.895
 6767SOL    HW230771   9.216   0.870   0.909
 6768SOL     OW30772   0.231   7.701   1.141
 6768SOL    HW130773   0.303   7.631   1.141
 6768SOL    HW230774   0.142   7.656   1.136
 6769SOL     OW30775   9.490   2.874   1.692
 6769SOL    HW130776   9.516   2.778   1.689
 6769SOL    HW230777   9.553   2.924   1.751
 6770SOL     OW30778   5.282   7.753   2.680
 6770SOL    HW130779   5.334   7.668   2.693
 6770SOL    HW230780   5.345   7.829   2.666
 6771SOL     OW30781   7.709   7.667   3.333
 6771SOL    HW130782   7.707   7.718   3.247
 6771SOL    HW230783   7.616   7.662   3.371
 6772SOL     OW30784   0.728   3.081   2.344
 6772SOL    HW130785   0.685   3.119   2.262
 6772SOL    HW230786   0.669   3.100   2.423
 6773SOL     OW30787   2.089   3.711   2.883
 6773SOL    HW130788   2.047   3.797   2.854
 6773SOL    HW230789   2.180   3.703   2.842
 6774SOL     OW30790   2.359   1.230   0.194
 6774SOL    HW130791   2.321   1.201   0.282
 6774SOL    HW230792   2.307   1.308   0.159
 6775SOL     OW30793   2.712   7.904   2.627
 6775SOL    HW130794   2.669   7.836   2.568
 6775SOL    HW230795   2.749   7.860   2.708
 6776SOL     OW30796   8.519   3.298   2.981
 6776SOL    HW130797   8.449   3.321   2.914
 6776SOL    HW230798   8.477   3.252   3.059
 6777SOL     OW30799   9.573   1.614   3.083
 6777SOL    HW130800   9.581   1.708   3.114
 6777SOL    HW230801   9.663   1.570   3.085
 6778SOL     OW30802   8.200   3.164   0.213
 6778SOL    HW130803   8.113   3.116   0.212
 6778SOL    HW230804   8.185   3.263   0.204
 6779SOL     OW30805   1.001   9.248   3.408
 6779SOL    HW130806   1.033   9.154   3.398
 6779SOL    HW230807   1.066   9.300   3.465
 6780SOL     OW30808   8.679   4.510   0.792
 6780SOL    HW130809   8.701   4.549   0.702
 6780SOL    HW230810   8.666   4.411   0.783
 6781SOL     OW30811   2.160   3.134   2.734
 6781SOL    HW130812   2.135   3.070   2.661
 6781SOL    HW230813   2.223   3.090   2.797
 6782SOL     OW30814   2.118   5.013   1.287
 6782SOL    HW130815   2.027   4.987   1.318
 6782SOL    HW230816   2.133   5.110   1.308
 6783SOL     OW30817   9.005   0.985   0.153
 6783SOL    HW130818   9.067   1.012   0.226
 6783SOL    HW230819   9.031   0.895   0.118
 6784SOL     OW30820   5.139   2.501   1.071
 6784SOL    HW130821   5.099   2.436   1.007
 6784SOL    HW230822   5.139   2.592   1.029
 6785SOL     OW30823   8.359   6.812   2.717
 6785SOL    HW130824   8.421   6.876   2.760
 6785SOL    HW230825   8.401   6.774   2.634
 6786SOL     OW30826   4.196   1.746   2.643
 6786SOL    HW130827   4.133   1.824   2.646
 6786SOL    HW230828   4.257   1.749   2.722
 6787SOL     OW30829   1.719   3.902   0.196
 6787SOL    HW130830   1.709   4.000   0.184
 6787SOL    HW230831   1.736   3.882   0.293
 6788SOL     OW30832   1.070   4.659   2.040
 6788SOL    HW130833   1.059   4.623   1.948
 6788SOL    HW230834   1.015   4.742   2.049
 6789SOL     OW30835   3.585   0.787   2.692
 6789SOL    HW130836   3.526   0.733   2.752
 6789SOL    HW230837   3.659   0.828   2.746
 6790SOL     OW30838   0.601   5.209   2.187
 6790SOL    HW130839   0.610   5.254   2.098
 6790SOL    HW230840   0.519   5.242   2.233
 6791SOL     OW30841   6.423   9.184   2.940
 6791SOL    HW130842   6.464   9.171   3.030
 6791SOL    HW230843   6.342   9.126   2.931
 6792SOL     OW30844   3.151   5.094   2.924
 6792SOL    HW130845   3.247   5.095   2.896
 6792SOL    HW230846   3.128   5.183   2.965
 6793SOL     OW30847   4.459   0.391   1.268
 6793SOL    HW130848   4.514   0.342   1.336
 6793SOL    HW230849   4.509   0.470   1.234
 6794SOL     OW30850   0.294   8.694   1.803
 6794SOL    HW130851   0.202   8.696   1.763
 6794SOL    HW230852   0.360   8.670   1.732
 6795SOL     OW30853   2.041   0.379   0.943
 6795SOL    HW130854   1.952   0.352   0.907
 6795SOL    HW230855   2.040   0.478   0.961
 6796SOL     OW30856   0.800   3.596   2.701
 6796SOL    HW130857   0.782   3.582   2.603
 6796SOL    HW230858   0.848   3.516   2.737
 6797SOL     OW30859   9.398   7.340   0.303
 6797SOL    HW130860   9.314   7.332   0.249
 6797SOL    HW230861   9.475   7.305   0.250
 6798SOL     OW30862   1.508   1.328   1.754
 6798SOL    HW130863   1.523   1.261   1.682
 6798SOL    HW230864   1.590   1.337   1.810
 6799SOL     OW30865   9.353   1.319   0.911
 6799SOL    HW130866   9.447   1.347   0.930
 6799SOL    HW230867   9.350   1.274   0.821
 6800SOL     OW30868   3.722   5.790   2.561
 6800SOL    HW130869   3.820   5.812   2.564
 6800SOL    HW230870   3.702   5.718   2.628
 6801SOL     OW30871   8.415   7.031   1.616
 6801SOL    HW130872   8.363   7.036   1.530
 6801SOL    HW230873   8.501   7.081   1.606
 6802SOL     OW30874   5.356   8.138   3.323
 6802SOL    HW130875   5.262   8.172   3.311
 6802SOL    HW230876   5.371   8.118   3.419
 6803SOL     OW30877   8.302   9.256   2.945
 6803SOL    HW130878   8.349   9.194   3.008
 6803SOL    HW230879   8.336   9.349   2.958
 6804SOL     OW30880   1.479   0.295   3.070
 6804SOL    HW130881   1.556   0.255   3.019
 6804SOL    HW230882   1.514   0.359   3.137
 6805SOL     OW30883   9.179   9.452   1.997
 6805SOL    HW130884   9.223   9.404   2.073
 6805SOL    HW230885   9.248   9.473   1.928
 6806SOL     OW30886   5.119   6.454   2.302
 6806SOL    HW130887   5.081   6.362   2.315
 6806SOL    HW230888   5.061   6.505   2.239
 6807SOL     OW30889   5.368   8.268   2.220
 6807SOL    HW130890   5.363   8.215   2.304
 6807SOL    HW230891   5.420   8.217   2.151
 6808SOL     OW30892   1.182   7.998   3.596
 6808SOL    HW130893   1.115   8.045   3.654
 6808SOL    HW230894   1.208   7.912   3.639
 6809SOL     OW30895   9.357   3.818   2.532
 6809SOL    HW130896   9.428   3.879   2.497
 6809SOL    HW230897   9.269   3.842   2.492
 6810SOL     OW30898   8.585   7.425   1.669
 6810SOL    HW130899   8.680   7.454   1.657
 6810SOL    HW230900   8.523   7.500   1.644
 6811SOL     OW30901   4.996   0.909   1.774
 6811SOL    HW130902   4.955   0.818   1.764
 6811SOL    HW230903   4.938   0.964   1.834
 6812SOL     OW30904   2.852   1.364   0.186
 6812SOL    HW130905   2.766   1.325   0.221
 6812SOL    HW230906   2.838   1.461   0.166
 6813SOL     OW30907   7.823   1.374   0.676
 6813SOL    HW130908   7.836   1.276   0.695
 6813SOL    HW230909   7.776   1.416   0.754
 6814SOL     OW30910   0.798   1.620   2.395
 6814SOL    HW130911   0.795   1.642   2.492
 6814SOL    HW230912   0.893   1.623   2.363
 6815SOL     OW30913   3.414   1.059   1.932
 6815SOL    HW130914   3.453   1.094   2.018
 6815SOL    HW230915   3.349   0.986   1.952
 6816SOL     OW30916   9.531   9.047   0.941
 6816SOL    HW130917   9.603   9.092   0.888
 6816SOL    HW230918   9.573   8.980   1.002
 6817SOL     OW30919   0.468   3.450   1.456
 6817SOL    HW130920   0.475   3.545   1.487
 6817SOL    HW230921   0.494   3.444   1.360
 6818SOL     OW30922   0.397   7.463   3.048
 6818SOL    HW130923   0.351   7.377   3.072
 6818SOL    HW230924   0.393   7.476   2.949
 6819SOL     OW30925   7.076   8.596   2.373
 6819SOL    HW130926   6.976   8.591   2.377
 6819SOL    HW230927   7.114   8.595   2.465
 6820SOL     OW30928   0.783   6.959   0.389
 6820SOL    HW130929   0.791   6.864   0.419
 6820SOL    HW230930   0.701   7.000   0.429
 6821SOL     OW30931   2.126   4.066   0.211
 6821SOL    HW130932   2.196   4.086   0.142
 6821SOL    HW230933   2.113   3.967   0.216
 6822SOL     OW30934   2.515   5.887   0.740
 6822SOL    HW130935   2.531   5.855   0.833
 6822SOL    HW230936   2.474   5.814   0.686
 6823SOL     OW30937   9.415   2.934   1.434
 6823SOL    HW130938   9.444   2.908   1.526
 6823SOL    HW230939   9.495   2.940   1.374
 6824SOL     OW30940   2.534   6.271   1.125
 6824SOL    HW130941   2.507   6.342   1.189
 6824SOL    HW230942   2.453   6.230   1.083
 6825SOL     OW30943   3.648   4.556   2.589
 6825SOL    HW130944   3.576   4.492   2.617
 6825SOL    HW230945   3.713   4.567   2.664
 6826SOL     OW30946   7.748   7.107   1.915
 6826SOL    HW130947   7.821   7.044   1.886
 6826SOL    HW230948   7.776   7.201   1.896
 6827SOL     OW30949   9.062   1.884   2.843
 6827SOL    HW130950   9.004   1.816   2.889
 6827SOL    HW230951   9.022   1.907   2.754
 6828SOL     OW30952   0.522   5.955   2.191
 6828SOL    HW130953   0.454   5.900   2.239
 6828SOL    HW230954   0.477   6.010   2.120
 6829SOL     OW30955   8.755   0.466   0.803
 6829SOL    HW130956   8.732   0.543   0.744
 6829SOL    HW230957   8.804   0.397   0.751
 6830SOL     OW30958   9.247   9.734   1.799
 6830SOL    HW130959   9.226   9.778   1.712
 6830SOL    HW230960   9.347   9.732   1.812
 6831SOL     OW30961   0.481   2.312   0.630
 6831SOL    HW130962   0.495   2.331   0.533
 6831SOL    HW230963   0.451   2.395   0.676
 6832SOL     OW30964   9.901   2.998   0.963
 6832SOL    HW130965   9.873   2.903   0.974
 6832SOL    HW230966   9.843   3.042   0.894
 6833SOL     OW30967   3.922   3.737   0.247
 6833SOL    HW130968   3.962   3.775   0.331
 6833SOL    HW230969   3.851   3.671   0.271
 6834SOL     OW30970   8.625   2.357   3.364
 6834SOL    HW130971   8.674   2.357   3.277
 6834SOL    HW230972   8.551   2.425   3.359
 6835SOL     OW30973   1.034   0.594   0.695
 6835SOL    HW130974   0.972   0.571   0.620
 6835SOL    HW230975   1.044   0.693   0.702
 6836SOL     OW30976   5.278   2.866   0.746
 6836SOL    HW130977   5.262   2.964   0.737
 6836SOL    HW230978   5.367   2.850   0.790
 6837SOL     OW30979   8.031   8.063   2.206
 6837SOL    HW130980   7.978   8.022   2.280
 6837SOL    HW230981   8.064   8.153   2.235
 6838SOL     OW30982   2.247   5.755   2.385
 6838SOL    HW130983   2.335   5.736   2.342
 6838SOL    HW230984   2.182   5.682   2.363
 6839SOL     OW30985   7.861   2.409   0.725
 6839SOL    HW130986   7.804   2.473   0.673
 6839SOL    HW230987   7.827   2.316   0.711
 6840SOL     OW30988   2.783   0.528   0.428
 6840SOL    HW130989   2.728   0.456   0.387
 6840SOL    HW230990   2.739   0.562   0.511
 6841SOL     OW30991   9.310   7.185   3.272
 6841SOL    HW130992   9.409   7.172   3.260
 6841SOL    HW230993   9.270   7.214   3.185
 6842SOL     OW30994   8.606   0.168   2.635
 6842SOL    HW130995   8.526   0.139   2.582
 6842SOL    HW230996   8.576   0.220   2.715
 6843SOL     OW30997   0.196   8.917   1.018
 6843SOL    HW130998   0.236   8.915   0.926
 6843SOL    HW230999   0.236   8.993   1.070
 6844SOL     OW31000   0.558   2.073   1.178
 6844SOL    HW131001   0.492   2.130   1.128
 6844SOL    HW231002   0.631   2.132   1.214
 6845SOL     OW31003   6.500   9.145   3.204
 6845SOL    HW131004   6.491   9.216   3.274
 6845SOL    HW231005   6.447   9.065   3.231
 6846SOL     OW31006   1.652   4.170   0.231
 6846SOL    HW131007   1.634   4.269   0.235
 6846SOL    HW231008   1.582   4.121   0.283
 6847SOL     OW31009   1.973   1.767   0.992
 6847SOL    HW131010   1.977   1.762   1.092
 6847SOL    HW231011   2.060   1.801   0.957
 6848SOL     OW31012   2.130   4.512   3.357
 6848SOL    HW131013   2.098   4.502   3.451
 6848SOL    HW231014   2.113   4.428   3.307
 6849SOL     OW31015   3.580   4.736   2.878
 6849SOL    HW131016   3.488   4.700   2.891
 6849SOL    HW231017   3.643   4.660   2.859
 6850SOL     OW31018   9.789   1.471   2.765
 6850SOL    HW131019   9.792   1.570   2.783
 6850SOL    HW231020   9.730   1.427   2.832
 6851SOL     OW31021   2.000   8.474   1.002
 6851SOL    HW131022   2.048   8.446   0.919
 6851SOL    HW231023   2.017   8.408   1.074
 6852SOL     OW31024   7.906   2.593   0.145
 6852SOL    HW131025   7.997   2.624   0.116
 6852SOL    HW231026   7.905   2.493   0.149
 6853SOL     OW31027   8.352   2.819   2.494
 6853SOL    HW131028   8.281   2.775   2.440
 6853SOL    HW231029   8.313   2.899   2.541
 6854SOL     OW31030   1.267   2.263   0.821
 6854SOL    HW131031   1.187   2.208   0.802
 6854SOL    HW231032   1.239   2.354   0.851
 6855SOL     OW31033   3.258   1.784   3.727
 6855SOL    HW131034   3.268   1.706   3.665
 6855SOL    HW231035   3.200   1.758   3.804
 6856SOL     OW31036   1.003   7.461   3.339
 6856SOL    HW131037   0.936   7.411   3.284
 6856SOL    HW231038   1.092   7.417   3.331
 6857SOL     OW31039   4.178   8.667   2.311
 6857SOL    HW131040   4.242   8.603   2.354
 6857SOL    HW231041   4.156   8.740   2.375
 6858SOL     OW31042   8.513   0.211   0.302
 6858SOL    HW131043   8.576   0.235   0.376
 6858SOL    HW231044   8.536   0.263   0.220
 6859SOL     OW31045   2.784   2.367   3.673
 6859SOL    HW131046   2.744   2.457   3.658
 6859SOL    HW231047   2.884   2.374   3.668
 6860SOL     OW31048   7.755   9.372   0.175
 6860SOL    HW131049   7.811   9.449   0.144
 6860SOL    HW231050   7.690   9.403   0.244
 6861SOL     OW31051   7.693   1.886   1.642
 6861SOL    HW131052   7.700   1.788   1.625
 6861SOL    HW231053   7.782   1.921   1.672
 6862SOL     OW31054   0.014   5.905   1.827
 6862SOL    HW131055   0.060   5.824   1.790
 6862SOL    HW231056   9.916   5.887   1.833
 6863SOL     OW31057   0.266   0.939   1.249
 6863SOL    HW131058   0.244   0.871   1.179
 6863SOL    HW231059   0.357   0.922   1.285
 6864SOL     OW31060   1.636   4.609   3.521
 6864SOL    HW131061   1.652   4.610   3.422
 6864SOL    HW231062   1.719   4.637   3.569
 6865SOL     OW31063   2.237   2.483   1.972
 6865SOL    HW131064   2.260   2.388   1.993
 6865SOL    HW231065   2.295   2.516   1.898
 6866SOL     OW31066   9.966   1.029   1.787
 6866SOL    HW131067   0.014   1.055   1.871
 6866SOL    HW231068   0.033   1.001   1.718
 6867SOL     OW31069   3.655   1.800   2.513
 6867SOL    HW131070   3.659   1.886   2.463
 6867SOL    HW231071   3.711   1.806   2.596
 6868SOL     OW31072   8.795   4.436   0.175
 6868SOL    HW131073   8.732   4.360   0.157
 6868SOL    HW231074   8.889   4.403   0.171
 6869SOL     OW31075   2.532   4.874   1.795
 6869SOL    HW131076   2.439   4.850   1.769
 6869SOL    HW231077   2.538   4.888   1.893
 6870SOL     OW31078   3.477   2.252   3.305
 6870SOL    HW131079   3.469   2.350   3.289
 6870SOL    HW231080   3.390   2.216   3.341
 6871SOL     OW31081   8.359   4.398   0.805
 6871SOL    HW131082   8.282   4.340   0.778
 6871SOL    HW231083   8.414   4.421   0.725
 6872SOL     OW31084   8.717   4.558   0.518
 6872SOL    HW131085   8.632   4.505   0.523
 6872SOL    HW231086   8.723   4.603   0.429
 6873SOL     OW31087   5.418   9.820   1.074
 6873SOL    HW131088   5.436   9.887   1.146
 6873SOL    HW231089   5.497   9.760   1.064
 6874SOL     OW31090   1.211   7.271   3.277
 6874SOL    HW131091   1.135   7.224   3.233
 6874SOL    HW231092   1.275   7.303   3.207
 6875SOL     OW31093   4.162   8.106   1.839
 6875SOL    HW131094   4.229   8.181   1.849
 6875SOL    HW231095   4.144   8.091   1.742
 6876SOL     OW31096   3.908   0.694   2.604
 6876SOL    HW131097   3.912   0.654   2.696
 6876SOL    HW231098   3.902   0.620   2.536
 6877SOL     OW31099   3.485   4.248   3.099
 6877SOL    HW131100   3.466   4.317   3.169
 6877SOL    HW231101   3.583   4.250   3.077
 6878SOL     OW31102   9.251   0.512   0.775
 6878SOL    HW131103   9.299   0.551   0.696
 6878SOL    HW231104   9.306   0.440   0.816
 6879SOL     OW31105   1.003   1.350   0.226
 6879SOL    HW131106   0.949   1.416   0.173
 6879SOL    HW231107   0.947   1.313   0.300
 6880SOL     OW31108   3.662   9.061   2.853
 6880SOL    HW131109   3.655   9.068   2.952
 6880SOL    HW231110   3.759   9.064   2.826
 6881SOL     OW31111   8.444   6.932   2.338
 6881SOL    HW131112   8.352   6.953   2.306
 6881SOL    HW231113   8.483   7.012   2.382
 6882SOL     OW31114   4.276   3.306   3.161
 6882SOL    HW131115   4.227   3.218   3.158
 6882SOL    HW231116   4.219   3.374   3.206
 6883SOL     OW31117   8.877   7.102   3.684
 6883SOL    HW131118   8.892   7.086   3.586
 6883SOL    HW231119   8.960   7.078   3.735
 6884SOL     OW31120   9.961   0.156   3.262
 6884SOL    HW131121   9.900   0.096   3.211
 6884SOL    HW231122   0.021   0.101   3.320
 6885SOL     OW31123   9.548   2.302   1.223
 6885SOL    HW131124   9.493   2.383   1.204
 6885SOL    HW231125   9.490   2.221   1.218
 6886SOL     OW31126   2.801   5.909   1.940
 6886SOL    HW131127   2.829   5.880   2.031
 6886SOL    HW231128   2.707   5.878   1.922
 6887SOL     OW31129   8.096   0.630   2.122
 6887SOL    HW131130   8.194   0.636   2.139
 6887SOL    HW231131   8.052   0.715   2.153
 6888SOL     OW31132   1.583   4.639   0.064
 6888SOL    HW131133   1.520   4.637   4.768
 6888SOL    HW231134   1.545   4.696   0.137
 6889SOL     OW31135   3.308   7.859   0.657
 6889SOL    HW131136   3.381   7.850   0.725
 6889SOL    HW231137   3.336   7.815   0.572
 6890SOL     OW31138   3.733   4.744   3.692
 6890SOL    HW131139   3.803   4.716   3.627
 6890SOL    HW231140   3.665   4.672   3.701
 6891SOL     OW31141   3.763   6.161   2.786
 6891SOL    HW131142   3.861   6.165   2.767
 6891SOL    HW231143   3.714   6.133   2.704
 6892SOL     OW31144   6.425   8.042   3.462
 6892SOL    HW131145   6.395   8.049   3.557
 6892SOL    HW231146   6.493   8.112   3.443
 6893SOL     OW31147   1.770   5.483   1.167
 6893SOL    HW131148   1.740   5.564   1.217
 6893SOL    HW231149   1.811   5.510   1.080
 6894SOL     OW31150   0.685   8.590   2.829
 6894SOL    HW131151   0.653   8.499   2.802
 6894SOL    HW231152   0.626   8.660   2.788
 6895SOL     OW31153   9.092   0.144   2.525
 6895SOL    HW131154   9.004   0.112   2.559
 6895SOL    HW231155   9.078   0.217   2.457
 6896SOL     OW31156   4.190   4.412   0.961
 6896SOL    HW131157   4.104   4.449   0.996
 6896SOL    HW231158   4.244   4.485   0.920
 6897SOL     OW31159   1.161   8.833   1.433
 6897SOL    HW131160   1.100   8.878   1.368
 6897SOL    HW231161   1.221   8.902   1.475
 6898SOL     OW31162   8.674   5.065   3.305
 6898SOL    HW131163   8.628   4.988   3.261
 6898SOL    HW231164   8.757   5.032   3.351
 6899SOL     OW31165   2.803   1.645   0.220
 6899SOL    HW131166   2.706   1.662   0.234
 6899SOL    HW231167   2.846   1.616   0.306
 6900SOL     OW31168   2.097   7.670   0.359
 6900SOL    HW131169   2.103   7.727   0.441
 6900SOL    HW231170   2.190   7.652   0.325
 6901SOL     OW31171   3.804   0.968   0.286
 6901SOL    HW131172   3.849   0.892   0.238
 6901SOL    HW231173   3.838   1.055   0.250
 6902SOL     OW31174   8.957   1.077   2.893
 6902SOL    HW131175   9.039   1.134   2.882
 6902SOL    HW231176   8.879   1.135   2.917
 6903SOL     OW31177   9.492   1.932   2.597
 6903SOL    HW131178   9.456   1.889   2.514
 6903SOL    HW231179   9.490   1.866   2.672
 6904SOL     OW31180   7.935   1.761   1.125
 6904SOL    HW131181   8.017   1.752   1.182
 6904SOL    HW231182   7.961   1.773   1.030
 6905SOL     OW31183   8.882   1.815   1.145
 6905SOL    HW131184   8.879   1.776   1.053
 6905SOL    HW231185   8.795   1.862   1.164
 6906SOL     OW31186   4.435   8.562   1.665
 6906SOL    HW131187   4.373   8.507   1.609
 6906SOL    HW231188   4.398   8.572   1.757
 6907SOL     OW31189   9.132   6.657   2.260
 6907SOL    HW131190   9.105   6.682   2.352
 6907SOL    HW231191   9.122   6.558   2.248
 6908SOL     OW31192   1.631   9.808   1.112
 6908SOL    HW131193   1.596   9.716   1.093
 6908SOL    HW231194   1.563   9.876   1.088
 6909SOL     OW31195   8.639   9.881   1.058
 6909SOL    HW131196   8.641   9.976   1.027
 6909SOL    HW231197   8.728   9.839   1.043
 6910SOL     OW31198   0.898   3.495   1.900
 6910SOL    HW131199   0.989   3.513   1.938
 6910SOL    HW231200   0.888   3.397   1.883
 6911SOL     OW31201   3.855   7.659   0.355
 6911SOL    HW131202   3.936   7.608   0.324
 6911SOL    HW231203   3.826   7.624   0.444
 6912SOL     OW31204   4.059   6.199   2.822
 6912SOL    HW131205   4.089   6.147   2.742
 6912SOL    HW231206   4.132   6.200   2.890
 6913SOL     OW31207   8.904   8.475   0.778
 6913SOL    HW131208   8.882   8.529   0.858
 6913SOL    HW231209   9.003   8.476   0.763
 6914SOL     OW31210   8.447   9.472   2.138
 6914SOL    HW131211   8.544   9.467   2.113
 6914SOL    HW231212   8.406   9.554   2.099
 6915SOL     OW31213   1.126   9.716   2.119
 6915SOL    HW131214   1.114   9.753   2.211
 6915SOL    HW231215   1.057   9.646   2.102
 6916SOL     OW31216   0.785   3.436   3.361
 6916SOL    HW131217   0.884   3.450   3.358
 6916SOL    HW231218   0.763   3.345   3.326
 6917SOL     OW31219   3.103   5.344   0.057
 6917SOL    HW131220   3.201   5.355   0.071
 6917SOL    HW231221   3.083   5.248   0.036
 6918SOL     OW31222   1.852   2.655   0.584
 6918SOL    HW131223   1.892   2.588   0.647
 6918SOL    HW231224   1.781   2.611   0.528
 6919SOL     OW31225   9.887   6.154   0.467
 6919SOL    HW131226   9.933   6.202   0.393
 6919SOL    HW231227   9.936   6.068   0.486
 6920SOL     OW31228   9.965   0.553   3.756
 6920SOL    HW131229   0.007   0.485   3.696
 6920SOL    HW231230   9.957   0.640   3.709
 6921SOL     OW31231   8.149   1.906   3.244
 6921SOL    HW131232   8.235   1.955   3.238
 6921SOL    HW231233   8.137   1.869   3.336
 6922SOL     OW31234   4.153   2.438   3.109
 6922SOL    HW131235   4.160   2.515   3.046
 6922SOL    HW231236   4.220   2.368   3.083
 6923SOL     OW31237   0.356   2.311   3.452
 6923SOL    HW131238   0.293   2.389   3.448
 6923SOL    HW231239   0.418   2.315   3.374
 6924SOL     OW31240   4.562   2.759   3.022
 6924SOL    HW131241   4.542   2.828   2.953
 6924SOL    HW231242   4.586   2.803   3.109
 6925SOL     OW31243   5.279   9.881   2.605
 6925SOL    HW131244   5.371   9.879   2.565
 6925SOL    HW231245   5.286   9.900   2.703
 6926SOL     OW31246   2.603   5.544   1.544
 6926SOL    HW131247   2.663   5.620   1.569
 6926SOL    HW231248   2.537   5.528   1.617
 6927SOL     OW31249   1.019   9.534   1.042
 6927SOL    HW131250   1.049   9.504   1.133
 6927SOL    HW231251   1.086   9.597   1.004
 6928SOL     OW31252   4.206   9.553   2.114
 6928SOL    HW131253   4.190   9.464   2.070
 6928SOL    HW231254   4.120   9.604   2.119
 6929SOL     OW31255   8.993   3.041   0.028
 6929SOL    HW131256   8.913   3.047   0.087
 6929SOL    HW231257   8.963   3.040   4.713
 6930SOL     OW31258   6.928   9.836   1.231
 6930SOL    HW131259   6.838   9.794   1.230
 6930SOL    HW231260   6.953   9.864   1.138
 6931SOL     OW31261   5.305   2.153   2.065
 6931SOL    HW131262   5.287   2.055   2.075
 6931SOL    HW231263   5.387   2.166   2.008
 6932SOL     OW31264   0.583   7.473   3.244
 6932SOL    HW131265   0.515   7.477   3.171
 6932SOL    HW231266   0.638   7.557   3.242
 6933SOL     OW31267   2.974   5.800   2.577
 6933SOL    HW131268   2.977   5.817   2.675
 6933SOL    HW231269   2.935   5.880   2.530
 6934SOL     OW31270   9.620   4.834   1.602
 6934SOL    HW131271   9.602   4.763   1.670
 6934SOL    HW231272   9.616   4.924   1.645
 6935SOL     OW31273   8.375   6.626   1.867
 6935SOL    HW131274   8.438   6.686   1.816
 6935SOL    HW231275   8.423   6.542   1.892
 6936SOL     OW31276   1.718   0.050   1.422
 6936SOL    HW131277   1.704   9.953   1.406
 6936SOL    HW231278   1.630   0.097   1.431
 6937SOL     OW31279   8.989   3.875   2.717
 6937SOL    HW131280   8.968   3.787   2.762
 6937SOL    HW231281   8.982   3.949   2.784
 6938SOL     OW31282   8.479   2.600   3.360
 6938SOL    HW131283   8.548   2.672   3.347
 6938SOL    HW231284   8.452   2.597   3.456
 6939SOL     OW31285   4.470   4.361   0.073
 6939SOL    HW131286   4.453   4.359   4.756
 6939SOL    HW231287   4.477   4.268   0.108
 6940SOL     OW31288   8.272   7.920   1.149
 6940SOL    HW131289   8.345   7.935   1.214
 6940SOL    HW231290   8.234   8.008   1.120
 6941SOL     OW31291   6.827   8.942   2.264
 6941SOL    HW131292   6.841   8.892   2.349
 6941SOL    HW231293   6.915   8.960   2.221
 6942SOL     OW31294   3.875   5.411   2.567
 6942SOL    HW131295   3.903   5.319   2.592
 6942SOL    HW231296   3.790   5.407   2.516
 6943SOL     OW31297   9.659   8.677   3.170
 6943SOL    HW131298   9.613   8.764   3.154
 6943SOL    HW231299   9.594   8.602   3.156
 6944SOL     OW31300   1.817   9.918   2.185
 6944SOL    HW131301   1.801   9.995   2.123
 6944SOL    HW231302   1.878   9.852   2.141
 6945SOL     OW31303   2.091   0.617   0.599
 6945SOL    HW131304   2.099   0.613   0.499
 6945SOL    HW231305   2.132   0.535   0.638
 6946SOL     OW31306   7.048   8.973   1.417
 6946SOL    HW131307   7.112   8.896   1.418
 6946SOL    HW231308   7.060   9.026   1.333
 6947SOL     OW31309   5.154   0.448   2.924
 6947SOL    HW131310   5.188   0.368   2.973
 6947SOL    HW231311   5.070   0.424   2.876
 6948SOL     OW31312   0.036   3.118   3.280
 6948SOL    HW131313   0.031   3.089   3.185
 6948SOL    HW231314   0.033   3.218   3.285
 6949SOL     OW31315   0.899   2.530   2.072
 6949SOL    HW131316   0.913   2.447   2.126
 6949SOL    HW231317   0.933   2.609   2.123
 6950SOL     OW31318   4.498   8.450   3.305
 6950SOL    HW131319   4.538   8.534   3.344
 6950SOL    HW231320   4.481   8.385   3.379
 6951SOL     OW31321   9.815   3.992   3.465
 6951SOL    HW131322   9.851   3.924   3.401
 6951SOL    HW231323   9.889   4.055   3.491
 6952SOL     OW31324   8.755   1.014   2.601
 6952SOL    HW131325   8.786   0.920   2.587
 6952SOL    HW231326   8.800   1.074   2.534
 6953SOL     OW31327   9.432   9.766   1.411
 6953SOL    HW131328   9.466   9.742   1.320
 6953SOL    HW231329   9.426   9.684   1.467
 6954SOL     OW31330   6.693   7.272   2.244
 6954SOL    HW131331   6.710   7.342   2.175
 6954SOL    HW231332   6.695   7.313   2.335
 6955SOL     OW31333   2.081   0.332   1.380
 6955SOL    HW131334   2.153   0.399   1.397
 6955SOL    HW231335   2.106   0.275   1.302
 6956SOL     OW31336   0.067   1.424   3.191
 6956SOL    HW131337   0.147   1.390   3.141
 6956SOL    HW231338   0.086   1.516   3.225
 6957SOL     OW31339   0.233   6.694   0.871
 6957SOL    HW131340   0.319   6.739   0.847
 6957SOL    HW231341   0.235   6.667   0.968
 6958SOL     OW31342   3.553   9.560   0.882
 6958SOL    HW131343   3.500   9.565   0.967
 6958SOL    HW231344   3.528   9.637   0.823
 6959SOL     OW31345   1.129   6.214   3.321
 6959SOL    HW131346   1.126   6.281   3.246
 6959SOL    HW231347   1.224   6.206   3.354
 6960SOL     OW31348   9.260   9.353   1.446
 6960SOL    HW131349   9.228   9.358   1.352
 6960SOL    HW231350   9.184   9.326   1.506
 6961SOL     OW31351   9.944   7.142   2.223
 6961SOL    HW131352   9.902   7.149   2.313
 6961SOL    HW231353   0.038   7.110   2.232
 6962SOL     OW31354   2.104   8.602   2.601
 6962SOL    HW131355   2.172   8.575   2.669
 6962SOL    HW231356   2.104   8.536   2.526
 6963SOL     OW31357   8.987   7.556   2.533
 6963SOL    HW131358   9.060   7.497   2.567
 6963SOL    HW231359   8.899   7.510   2.545
 6964SOL     OW31360   2.562   8.599   2.952
 6964SOL    HW131361   2.520   8.522   2.904
 6964SOL    HW231362   2.501   8.678   2.949
 6965SOL     OW31363   4.494   0.631   1.536
 6965SOL    HW131364   4.444   0.545   1.535
 6965SOL    HW231365   4.471   0.684   1.454
 6966SOL     OW31366   4.898   9.699   1.369
 6966SOL    HW131367   4.930   9.656   1.285
 6966SOL    HW231368   4.798   9.708   1.366
 6967SOL     OW31369   9.501   5.073   1.979
 6967SOL    HW131370   9.543   5.075   1.889
 6967SOL    HW231371   9.521   4.985   2.023
 6968SOL     OW31372   6.154   8.972   2.566
 6968SOL    HW131373   6.243   8.929   2.547
 6968SOL    HW231374   6.168   9.068   2.589
 6969SOL     OW31375   2.103   5.316   2.956
 6969SOL    HW131376   2.199   5.325   2.984
 6969SOL    HW231377   2.095   5.339   2.859
 6970SOL     OW31378   2.495   4.649   1.044
 6970SOL    HW131379   2.541   4.715   0.985
 6970SOL    HW231380   2.479   4.689   1.134
 6971SOL     OW31381   8.007   0.773   1.444
 6971SOL    HW131382   7.918   0.809   1.471
 6971SOL    HW231383   8.077   0.804   1.508
 6972SOL     OW31384   8.410   2.301   1.926
 6972SOL    HW131385   8.428   2.342   2.015
 6972SOL    HW231386   8.403   2.372   1.856
 6973SOL     OW31387   9.098   2.952   0.334
 6973SOL    HW131388   9.027   3.018   0.359
 6973SOL    HW231389   9.161   2.994   0.269
 6974SOL     OW31390   9.548   4.640   2.257
 6974SOL    HW131391   9.592   4.666   2.343
 6974SOL    HW231392   9.451   4.666   2.260
 6975SOL     OW31393   5.033   6.547   2.821
 6975SOL    HW131394   5.076   6.486   2.754
 6975SOL    HW231395   5.044   6.642   2.791
 6976SOL     OW31396   1.496   5.873   1.154
 6976SOL    HW131397   1.475   5.967   1.180
 6976SOL    HW231398   1.439   5.810   1.206
 6977SOL     OW31399   2.383   3.128   1.117
 6977SOL    HW131400   2.417   3.034   1.113
 6977SOL    HW231401   2.310   3.140   1.050
 6978SOL     OW31402   8.115   9.803   3.001
 6978SOL    HW131403   8.148   9.779   2.910
 6978SOL    HW231404   8.161   9.886   3.033
 6979SOL     OW31405   3.582   3.574   2.706
 6979SOL    HW131406   3.540   3.663   2.689
 6979SOL    HW231407   3.600   3.563   2.804
 6980SOL     OW31408   9.100   7.070   0.498
 6980SOL    HW131409   9.095   7.046   0.401
 6980SOL    HW231410   9.143   7.160   0.507
 6981SOL     OW31411   9.974   4.780   2.005
 6981SOL    HW131412   9.906   4.708   2.020
 6981SOL    HW231413   0.055   4.741   1.961
 6982SOL     OW31414   9.605   9.787   2.550
 6982SOL    HW131415   9.619   9.840   2.466
 6982SOL    HW231416   9.520   9.734   2.542
 6983SOL     OW31417   7.132   9.757   2.730
 6983SOL    HW131418   7.164   9.772   2.637
 6983SOL    HW231419   7.143   9.841   2.784
 6984SOL     OW31420   2.250   1.485   2.834
 6984SOL    HW131421   2.160   1.466   2.793
 6984SOL    HW231422   2.299   1.398   2.846
 6985SOL     OW31423   9.020   0.277   2.016
 6985SOL    HW131424   9.104   0.258   2.067
 6985SOL    HW231425   8.986   0.368   2.041
 6986SOL     OW31426   5.002   7.525   3.550
 6986SOL    HW131427   5.071   7.597   3.545
 6986SOL    HW231428   4.928   7.546   3.485
 6987SOL     OW31429   9.375   0.613   3.355
 6987SOL    HW131430   9.381   0.702   3.309
 6987SOL    HW231431   9.465   0.587   3.389
 6988SOL     OW31432   2.463   5.089   2.672
 6988SOL    HW131433   2.454   5.079   2.771
 6988SOL    HW231434   2.464   4.998   2.630
 6989SOL     OW31435   1.662   3.521   1.072
 6989SOL    HW131436   1.619   3.445   1.022
 6989SOL    HW231437   1.757   3.530   1.044
 6990SOL     OW31438   1.050   2.331   0.562
 6990SOL    HW131439   1.058   2.233   0.545
 6990SOL    HW231440   0.957   2.351   0.593
 6991SOL     OW31441   0.831   2.144   2.678
 6991SOL    HW131442   0.865   2.058   2.716
 6991SOL    HW231443   0.813   2.133   2.581
 6992SOL     OW31444   3.706   6.760   3.434
 6992SOL    HW131445   3.643   6.687   3.409
 6992SOL    HW231446   3.788   6.721   3.475
 6993SOL     OW31447   3.970   0.740   1.332
 6993SOL    HW131448   3.937   0.803   1.262
 6993SOL    HW231449   3.968   0.647   1.296
 6994SOL     OW31450   7.751   9.919   2.224
 6994SOL    HW131451   7.755   9.964   2.313
 6994SOL    HW231452   7.778   9.823   2.234
 6995SOL     OW31453   9.494   3.624   1.437
 6995SOL    HW131454   9.493   3.724   1.435
 6995SOL    HW231455   9.586   3.591   1.418
 6996SOL     OW31456   8.186   9.096   1.496
 6996SOL    HW131457   8.188   9.022   1.429
 6996SOL    HW231458   8.267   9.092   1.554
 6997SOL     OW31459   2.085   9.469   3.519
 6997SOL    HW131460   2.051   9.392   3.572
 6997SOL    HW231461   2.183   9.480   3.535
 6998SOL     OW31462   2.162   3.393   0.087
 6998SOL    HW131463   2.091   3.373   0.019
 6998SOL    HW231464   2.121   3.439   0.166
 6999SOL     OW31465   9.600   0.604   1.295
 6999SOL    HW131466   9.639   0.689   1.330
 6999SOL    HW231467   9.566   0.549   1.371
 7000SOL     OW31468   9.435   9.590   0.270
 7000SOL    HW131469   9.491   9.662   0.230
 7000SOL    HW231470   9.477   9.560   0.356
 7001SOL     OW31471   0.741   8.926   0.877
 7001SOL    HW131472   0.791   8.840   0.869
 7001SOL    HW231473   0.695   8.946   0.791
 7002SOL     OW31474   5.318   9.582   1.197
 7002SOL    HW131475   5.408   9.547   1.223
 7002SOL    HW231476   5.328   9.668   1.147
 7003SOL     OW31477   9.941   0.981   0.639
 7003SOL    HW131478   0.034   1.016   0.625
 7003SOL    HW231479   9.914   0.995   0.734
 7004SOL     OW31480   3.780   9.845   2.560
 7004SOL    HW131481   3.682   9.841   2.540
 7004SOL    HW231482   3.830   9.803   2.484
 7005SOL     OW31483   2.851   4.127   0.683
 7005SOL    HW131484   2.860   4.226   0.693
 7005SOL    HW231485   2.912   4.081   0.747
 7006SOL     OW31486   0.307   3.641   0.267
 7006SOL    HW131487   0.363   3.606   0.342
 7006SOL    HW231488   0.342   3.730   0.237
 7007SOL     OW31489   2.704   2.636   3.652
 7007SOL    HW131490   2.622   2.676   3.611
 7007SOL    HW231491   2.694   2.633   3.752
 7008SOL     OW31492   2.026   6.070   3.486
 7008SOL    HW131493   1.935   6.079   3.444
 7008SOL    HW231494   2.096   6.102   3.422
 7009SOL     OW31495   8.046   2.847   2.829
 7009SOL    HW131496   8.027   2.834   2.926
 7009SOL    HW231497   8.144   2.867   2.817
 7010SOL     OW31498   1.465   3.793   3.098
 7010SOL    HW131499   1.526   3.787   3.177
 7010SOL    HW231500   1.443   3.889   3.081
 7011SOL     OW31501   4.753   3.918   1.319
 7011SOL    HW131502   4.780   3.977   1.242
 7011SOL    HW231503   4.679   3.962   1.370
 7012SOL     OW31504   2.120   6.429   2.996
 7012SOL    HW131505   2.188   6.368   3.037
 7012SOL    HW231506   2.166   6.501   2.944
 7013SOL     OW31507   0.858   6.083   2.987
 7013SOL    HW131508   0.874   6.014   3.058
 7013SOL    HW231509   0.946   6.120   2.957
 7014SOL     OW31510   7.809   2.240   3.639
 7014SOL    HW131511   7.765   2.225   3.727
 7014SOL    HW231512   7.839   2.336   3.633
 7015SOL     OW31513   0.955   8.490   1.276
 7015SOL    HW131514   0.864   8.451   1.286
 7015SOL    HW231515   0.948   8.582   1.239
 7016SOL     OW31516   9.134   6.311   2.530
 7016SOL    HW131517   9.041   6.307   2.494
 7016SOL    HW231518   9.198   6.284   2.458
 7017SOL     OW31519   9.797   5.797   2.092
 7017SOL    HW131520   9.716   5.754   2.133
 7017SOL    HW231521   9.775   5.825   1.999
 7018SOL     OW31522   2.651   7.977   0.881
 7018SOL    HW131523   2.586   7.905   0.855
 7018SOL    HW231524   2.737   7.963   0.832
 7019SOL     OW31525   3.145   2.267   1.569
 7019SOL    HW131526   3.186   2.240   1.481
 7019SOL    HW231527   3.074   2.336   1.553
 7020SOL     OW31528   9.548   5.442   0.633
 7020SOL    HW131529   9.527   5.353   0.592
 7020SOL    HW231530   9.517   5.515   0.573
 7021SOL     OW31531   2.347   3.376   1.234
 7021SOL    HW131532   2.373   3.287   1.195
 7021SOL    HW231533   2.248   3.387   1.227
 7022SOL     OW31534   4.039   9.027   1.631
 7022SOL    HW131535   3.997   8.986   1.712
 7022SOL    HW231536   4.010   9.122   1.622
 7023SOL     OW31537   8.348   2.041   1.942
 7023SOL    HW131538   8.372   2.138   1.933
 7023SOL    HW231539   8.414   1.996   2.002
 7024SOL     OW31540   1.179   5.272   0.835
 7024SOL    HW131541   1.125   5.193   0.808
 7024SOL    HW231542   1.119   5.341   0.876
 7025SOL     OW31543   0.370   7.433   1.348
 7025SOL    HW131544   0.414   7.465   1.264
 7025SOL    HW231545   0.356   7.334   1.342
 7026SOL     OW31546   6.578   9.284   1.703
 7026SOL    HW131547   6.646   9.356   1.690
 7026SOL    HW231548   6.526   9.302   1.787
 7027SOL     OW31549   3.893   9.512   0.624
 7027SOL    HW131550   3.865   9.478   0.714
 7027SOL    HW231551   3.989   9.539   0.626
 7028SOL     OW31552   8.926   8.590   3.083
 7028SOL    HW131553   8.977   8.511   3.048
 7028SOL    HW231554   8.903   8.575   3.179
 7029SOL     OW31555   8.674   0.183   1.744
 7029SOL    HW131556   8.656   0.274   1.707
 7029SOL    HW231557   8.735   0.133   1.681
 7030SOL     OW31558   9.368   6.894   3.635
 7030SOL    HW131559   9.371   6.912   3.733
 7030SOL    HW231560   9.455   6.919   3.594
 7031SOL     OW31561   9.175   9.141   1.808
 7031SOL    HW131562   9.141   9.197   1.733
 7031SOL    HW231563   9.127   9.167   1.893
 7032SOL     OW31564   0.491   0.747   0.410
 7032SOL    HW131565   0.457   0.819   0.349
 7032SOL    HW231566   0.483   0.658   0.366
 7033SOL     OW31567   3.225   1.474   1.239
 7033SOL    HW131568   3.289   1.528   1.292
 7033SOL    HW231569   3.241   1.377   1.256
 7034SOL     OW31570   9.621   1.809   2.248
 7034SOL    HW131571   9.545   1.792   2.311
 7034SOL    HW231572   9.696   1.746   2.268
 7035SOL     OW31573   3.674   1.050   0.778
 7035SOL    HW131574   3.624   0.978   0.825
 7035SOL    HW231575   3.731   1.009   0.706
 7036SOL     OW31576   2.952   8.276   1.642
 7036SOL    HW131577   3.007   8.314   1.716
 7036SOL    HW231578   2.984   8.185   1.619
 7037SOL     OW31579   2.374   6.597   3.620
 7037SOL    HW131580   2.310   6.572   3.694
 7037SOL    HW231581   2.357   6.692   3.593
 7038SOL     OW31582   2.944   4.663   1.055
 7038SOL    HW131583   2.953   4.660   1.155
 7038SOL    HW231584   3.020   4.613   1.014
 7039SOL     OW31585   7.287   8.238   2.730
 7039SOL    HW131586   7.196   8.279   2.739
 7039SOL    HW231587   7.277   8.142   2.703
 7040SOL     OW31588   9.403   4.781   2.507
 7040SOL    HW131589   9.363   4.767   2.417
 7040SOL    HW231590   9.390   4.876   2.535
 7041SOL     OW31591   1.462   6.681   2.208
 7041SOL    HW131592   1.365   6.700   2.196
 7041SOL    HW231593   1.479   6.658   2.304
 7042SOL     OW31594   8.924   0.389   1.626
 7042SOL    HW131595   8.970   0.315   1.676
 7042SOL    HW231596   8.889   0.456   1.691
 7043SOL     OW31597   9.333   7.667   2.594
 7043SOL    HW131598   9.349   7.663   2.495
 7043SOL    HW231599   9.394   7.602   2.640
 7044SOL     OW31600   3.024   9.096   1.285
 7044SOL    HW131601   2.954   9.055   1.343
 7044SOL    HW231602   3.014   9.063   1.191
 7045SOL     OW31603   9.121   8.157   3.081
 7045SOL    HW131604   9.081   8.143   3.171
 7045SOL    HW231605   9.083   8.090   3.017
 7046SOL     OW31606   5.923   0.871   2.055
 7046SOL    HW131607   5.823   0.868   2.062
 7046SOL    HW231608   5.951   0.951   2.003
 7047SOL     OW31609   3.555   4.020   1.643
 7047SOL    HW131610   3.488   3.985   1.708
 7047SOL    HW231611   3.508   4.075   1.574
 7048SOL     OW31612   4.016   7.037   3.410
 7048SOL    HW131613   3.920   7.062   3.406
 7048SOL    HW231614   4.044   7.029   3.506
 7049SOL     OW31615   9.213   9.849   1.552
 7049SOL    HW131616   9.133   9.805   1.511
 7049SOL    HW231617   9.294   9.830   1.496
 7050SOL     OW31618   7.451   0.411   1.821
 7050SOL    HW131619   7.445   0.320   1.862
 7050SOL    HW231620   7.538   0.453   1.846
 7051SOL     OW31621   0.073   9.309   2.017
 7051SOL    HW131622   0.136   9.354   1.955
 7051SOL    HW231623   9.996   9.271   1.966
 7052SOL     OW31624   9.673   3.507   2.579
 7052SOL    HW131625   9.628   3.583   2.626
 7052SOL    HW231626   9.611   3.429   2.575
 7053SOL     OW31627   5.842   8.255   2.272
 7053SOL    HW131628   5.923   8.202   2.247
 7053SOL    HW231629   5.806   8.302   2.191
 7054SOL     OW31630   4.649   0.930   0.257
 7054SOL    HW131631   4.688   1.016   0.224
 7054SOL    HW231632   4.660   0.924   0.357
 7055SOL     OW31633   4.315   9.664   2.347
 7055SOL    HW131634   4.411   9.686   2.328
 7055SOL    HW231635   4.273   9.623   2.266
 7056SOL     OW31636   2.832   3.476   1.772
 7056SOL    HW131637   2.812   3.481   1.674
 7056SOL    HW231638   2.867   3.385   1.794
 7057SOL     OW31639   2.499   5.119   1.096
 7057SOL    HW131640   2.420   5.058   1.089
 7057SOL    HW231641   2.575   5.069   1.138
 7058SOL     OW31642   0.288   6.351   2.105
 7058SOL    HW131643   0.211   6.408   2.077
 7058SOL    HW231644   0.318   6.379   2.196
 7059SOL     OW31645   2.898   3.344   2.649
 7059SOL    HW131646   2.828   3.413   2.669
 7059SOL    HW231647   2.989   3.382   2.670
 7060SOL     OW31648   9.341   3.878   0.110
 7060SOL    HW131649   9.437   3.905   0.111
 7060SOL    HW231650   9.311   3.860   0.203
 7061SOL     OW31651   2.950   7.234   2.996
 7061SOL    HW131652   2.893   7.191   2.927
 7061SOL    HW231653   3.010   7.166   3.038
 7062SOL     OW31654   1.793   8.202   1.399
 7062SOL    HW131655   1.764   8.143   1.323
 7062SOL    HW231656   1.766   8.296   1.381
 7063SOL     OW31657   6.029   0.189   2.862
 7063SOL    HW131658   5.962   0.177   2.788
 7063SOL    HW231659   5.984   0.175   2.950
 7064SOL     OW31660   1.501   3.785   0.081
 7064SOL    HW131661   1.493   3.693   0.120
 7064SOL    HW231662   1.585   3.828   0.113
 7065SOL     OW31663   0.547   9.235   3.297
 7065SOL    HW131664   0.532   9.320   3.347
 7065SOL    HW231665   0.530   9.250   3.200
 7066SOL     OW31666   0.555   2.479   1.557
 7066SOL    HW131667   0.511   2.562   1.523
 7066SOL    HW231668   0.637   2.460   1.502
 7067SOL     OW31669   8.077   0.864   3.590
 7067SOL    HW131670   8.168   0.872   3.631
 7067SOL    HW231671   8.042   0.956   3.571
 7068SOL     OW31672   8.146   1.364   3.578
 7068SOL    HW131673   8.085   1.439   3.603
 7068SOL    HW231674   8.201   1.391   3.499
 7069SOL     OW31675   1.123   6.404   3.117
 7069SOL    HW131676   1.027   6.430   3.126
 7069SOL    HW231677   1.178   6.485   3.099
 7070SOL     OW31678   9.253   1.451   0.564
 7070SOL    HW131679   9.163   1.470   0.602
 7070SOL    HW231680   9.289   1.366   0.602
 7071SOL     OW31681   1.101   0.312   2.739
 7071SOL    HW131682   1.196   0.297   2.766
 7071SOL    HW231683   1.096   0.320   2.639
 7072SOL     OW31684   2.933   8.133   1.094
 7072SOL    HW131685   2.947   8.044   1.138
 7072SOL    HW231686   2.931   8.121   0.995
 7073SOL     OW31687   1.446   6.646   1.673
 7073SOL    HW131688   1.464   6.633   1.771
 7073SOL    HW231689   1.520   6.701   1.633
 7074SOL     OW31690   0.849   5.741   1.327
 7074SOL    HW131691   0.851   5.659   1.271
 7074SOL    HW231692   0.881   5.720   1.419
 7075SOL     OW31693   8.197   9.183   0.141
 7075SOL    HW131694   8.159   9.094   0.166
 7075SOL    HW231695   8.264   9.171   0.067
 7076SOL     OW31696   7.962   6.941   1.857
 7076SOL    HW131697   7.959   6.846   1.825
 7076SOL    HW231698   8.054   6.978   1.840
 7077SOL     OW31699   4.678   3.667   1.261
 7077SOL    HW131700   4.746   3.594   1.267
 7077SOL    HW231701   4.719   3.753   1.290
 7078SOL     OW31702   3.883   8.458   2.393
 7078SOL    HW131703   3.950   8.481   2.463
 7078SOL    HW231704   3.913   8.496   2.305
 7079SOL     OW31705   5.130   8.696   2.525
 7079SOL    HW131706   5.190   8.742   2.591
 7079SOL    HW231707   5.146   8.598   2.528
 7080SOL     OW31708   3.769   7.099   2.799
 7080SOL    HW131709   3.716   7.118   2.717
 7080SOL    HW231710   3.830   7.021   2.783
 7081SOL     OW31711   9.854   9.108   1.523
 7081SOL    HW131712   9.765   9.078   1.557
 7081SOL    HW231713   9.868   9.204   1.546
 7082SOL     OW31714   9.227   5.626   2.962
 7082SOL    HW131715   9.280   5.541   2.958
 7082SOL    HW231716   9.228   5.661   3.056
 7083SOL     OW31717   4.493   3.621   1.459
 7083SOL    HW131718   4.480   3.524   1.477
 7083SOL    HW231719   4.567   3.633   1.393
 7084SOL     OW31720   9.723   7.709   2.058
 7084SOL    HW131721   9.753   7.648   2.132
 7084SOL    HW231722   9.670   7.657   1.991
 7085SOL     OW31723   8.898   1.823   1.879
 7085SOL    HW131724   8.988   1.800   1.841
 7085SOL    HW231725   8.846   1.875   1.811
 7086SOL     OW31726   6.775   0.586   2.057
 7086SOL    HW131727   6.806   0.680   2.042
 7086SOL    HW231728   6.781   0.565   2.155
 7087SOL     OW31729   3.004   3.134   0.499
 7087SOL    HW131730   3.043   3.084   0.421
 7087SOL    HW231731   2.909   3.105   0.513
 7088SOL     OW31732   7.721   1.611   1.622
 7088SOL    HW131733   7.715   1.610   1.722
 7088SOL    HW231734   7.806   1.566   1.593
 7089SOL     OW31735   4.385   1.007   2.634
 7089SOL    HW131736   4.297   1.015   2.588
 7089SOL    HW231737   4.433   1.095   2.630
 7090SOL     OW31738   8.327   1.433   2.054
 7090SOL    HW131739   8.240   1.401   2.092
 7090SOL    HW231740   8.395   1.359   2.059
 7091SOL     OW31741   9.467   7.949   0.450
 7091SOL    HW131742   9.543   7.987   0.398
 7091SOL    HW231743   9.425   7.875   0.398
 7092SOL     OW31744   7.647   2.238   0.966
 7092SOL    HW131745   7.664   2.155   0.913
 7092SOL    HW231746   7.571   2.222   1.029
 7093SOL     OW31747   0.848   1.244   0.435
 7093SOL    HW131748   0.748   1.250   0.447
 7093SOL    HW231749   0.893   1.278   0.518
 7094SOL     OW31750   4.411   3.244   2.507
 7094SOL    HW131751   4.344   3.296   2.559
 7094SOL    HW231752   4.501   3.255   2.550
 7095SOL     OW31753   5.533   9.273   2.653
 7095SOL    HW131754   5.436   9.248   2.659
 7095SOL    HW231755   5.583   9.199   2.608
 7096SOL     OW31756   1.138   1.834   2.949
 7096SOL    HW131757   1.094   1.911   2.994
 7096SOL    HW231758   1.237   1.849   2.947
 7097SOL     OW31759   4.120   9.016   3.563
 7097SOL    HW131760   4.152   8.927   3.594
 7097SOL    HW231761   4.075   9.007   3.474
 7098SOL     OW31762   8.089   6.889   1.356
 7098SOL    HW131763   8.018   6.908   1.423
 7098SOL    HW231764   8.061   6.812   1.298
 7099SOL     OW31765   0.570   6.890   3.667
 7099SOL    HW131766   0.479   6.865   3.636
 7099SOL    HW231767   0.611   6.814   3.717
 7100SOL     OW31768   1.804   1.740   0.302
 7100SOL    HW131769   1.842   1.821   0.258
 7100SOL    HW231770   1.776   1.763   0.396
 7101SOL     OW31771   5.810   8.266   2.542
 7101SOL    HW131772   5.811   8.265   2.442
 7101SOL    HW231773   5.846   8.180   2.577
 7102SOL     OW31774   2.492   5.251   3.593
 7102SOL    HW131775   2.536   5.307   3.523
 7102SOL    HW231776   2.488   5.156   3.562
 7103SOL     OW31777   8.831   1.060   0.548
 7103SOL    HW131778   8.840   0.969   0.509
 7103SOL    HW231779   8.793   1.122   0.479
 7104SOL     OW31780   6.183   0.069   1.716
 7104SOL    HW131781   6.260   0.030   1.766
 7104SOL    HW231782   6.144   0.145   1.768
 7105SOL     OW31783   7.848   0.011   3.640
 7105SOL    HW131784   7.876   0.103   3.666
 7105SOL    HW231785   7.797   0.015   3.554
 7106SOL     OW31786   8.381   6.024   1.571
 7106SOL    HW131787   8.369   6.087   1.494
 7106SOL    HW231788   8.303   6.034   1.634
 7107SOL     OW31789   8.967   8.360   3.502
 7107SOL    HW131790   8.984   8.281   3.443
 7107SOL    HW231791   8.882   8.346   3.553
 7108SOL     OW31792   0.079   2.752   1.681
 7108SOL    HW131793   0.002   2.689   1.691
 7108SOL    HW231794   0.156   2.719   1.736
 7109SOL     OW31795   4.029   3.406   0.044
 7109SOL    HW131796   3.993   3.314   0.059
 7109SOL    HW231797   3.966   3.458   4.768
 7110SOL     OW31798   8.925   0.576   0.284
 7110SOL    HW131799   8.966   0.509   0.223
 7110SOL    HW231800   8.827   0.558   0.292
 7111SOL     OW31801   4.160   1.433   1.819
 7111SOL    HW131802   4.076   1.446   1.767
 7111SOL    HW231803   4.239   1.440   1.758
 7112SOL     OW31804   6.253   0.611   3.486
 7112SOL    HW131805   6.213   0.643   3.400
 7112SOL    HW231806   6.348   0.643   3.492
 7113SOL     OW31807   0.285   6.693   2.487
 7113SOL    HW131808   0.279   6.686   2.586
 7113SOL    HW231809   0.374   6.731   2.461
 7114SOL     OW31810   4.435   8.002   3.195
 7114SOL    HW131811   4.438   7.903   3.185
 7114SOL    HW231812   4.369   8.040   3.129
 7115SOL     OW31813   3.730   9.818   0.330
 7115SOL    HW131814   3.730   9.720   0.313
 7115SOL    HW231815   3.741   9.835   0.428
 7116SOL     OW31816   1.141   4.110   0.235
 7116SOL    HW131817   1.122   4.057   0.317
 7116SOL    HW231818   1.190   4.054   0.169
 7117SOL     OW31819   3.321   9.738   3.196
 7117SOL    HW131820   3.400   9.688   3.233
 7117SOL    HW231821   3.311   9.716   3.099
 7118SOL     OW31822   7.634   8.466   2.593
 7118SOL    HW131823   7.556   8.478   2.531
 7118SOL    HW231824   7.718   8.489   2.544
 7119SOL     OW31825   9.601   3.828   0.352
 7119SOL    HW131826   9.531   3.814   0.422
 7119SOL    HW231827   9.642   3.918   0.363
 7120SOL     OW31828   7.886   7.001   2.568
 7120SOL    HW131829   7.966   6.962   2.614
 7120SOL    HW231830   7.815   6.931   2.559
 7121SOL     OW31831   4.858   3.462   1.294
 7121SOL    HW131832   4.935   3.482   1.235
 7121SOL    HW231833   4.890   3.453   1.389
 7122SOL     OW31834   4.473   3.778   3.660
 7122SOL    HW131835   4.537   3.770   3.584
 7122SOL    HW231836   4.379   3.771   3.625
 7123SOL     OW31837   7.566   1.242   2.482
 7123SOL    HW131838   7.494   1.236   2.551
 7123SOL    HW231839   7.618   1.327   2.495
 7124SOL     OW31840   3.059   6.913   1.525
 7124SOL    HW131841   3.138   6.902   1.466
 7124SOL    HW231842   2.980   6.865   1.486
 7125SOL     OW31843   0.750   3.546   2.432
 7125SOL    HW131844   0.677   3.483   2.406
 7125SOL    HW231845   0.835   3.517   2.389
 7126SOL     OW31846   3.330   4.796   0.348
 7126SOL    HW131847   3.278   4.713   0.324
 7126SOL    HW231848   3.421   4.770   0.379
 7127SOL     OW31849   3.478   7.266   0.601
 7127SOL    HW131850   3.422   7.237   0.523
 7127SOL    HW231851   3.554   7.202   0.613
 7128SOL     OW31852   2.103   7.106   0.540
 7128SOL    HW131853   2.030   7.172   0.560
 7128SOL    HW231854   2.184   7.155   0.506
 7129SOL     OW31855   4.350   1.366   2.422
 7129SOL    HW131856   4.303   1.292   2.374
 7129SOL    HW231857   4.412   1.328   2.491
 7130SOL     OW31858   5.601   6.444   2.879
 7130SOL    HW131859   5.626   6.406   2.968
 7130SOL    HW231860   5.684   6.461   2.825
 7131SOL     OW31861   8.482   1.071   1.086
 7131SOL    HW131862   8.500   1.132   1.008
 7131SOL    HW231863   8.489   0.976   1.055
 7132SOL     OW31864   5.500   0.741   1.865
 7132SOL    HW131865   5.424   0.764   1.804
 7132SOL    HW231866   5.557   0.671   1.822
 7133SOL     OW31867   9.929   4.520   1.726
 7133SOL    HW131868   0.026   4.507   1.709
 7133SOL    HW231869   9.903   4.474   1.811
 7134SOL     OW31870   8.481   2.793   1.824
 7134SOL    HW131871   8.496   2.706   1.776
 7134SOL    HW231872   8.558   2.854   1.807
 7135SOL     OW31873   1.682   1.984   1.731
 7135SOL    HW131874   1.614   2.040   1.778
 7135SOL    HW231875   1.640   1.900   1.699
 7136SOL     OW31876   1.846   3.030   3.724
 7136SOL    HW131877   1.756   3.049   3.686
 7136SOL    HW231878   1.841   3.033   3.824
 7137SOL     OW31879   8.693   8.390   0.434
 7137SOL    HW131880   8.775   8.430   0.393
 7137SOL    HW231881   8.681   8.427   0.526
 7138SOL     OW31882   1.485   5.143   3.330
 7138SOL    HW131883   1.535   5.211   3.383
 7138SOL    HW231884   1.467   5.179   3.238
 7139SOL     OW31885   2.136   9.555   0.267
 7139SOL    HW131886   2.133   9.644   0.222
 7139SOL    HW231887   2.208   9.555   0.337
 7140SOL     OW31888   1.703   8.468   1.341
 7140SOL    HW131889   1.767   8.488   1.416
 7140SOL    HW231890   1.628   8.533   1.342
 7141SOL     OW31891   2.808   9.669   2.397
 7141SOL    HW131892   2.835   9.761   2.370
 7141SOL    HW231893   2.719   9.673   2.442
 7142SOL     OW31894   3.082   5.924   3.291
 7142SOL    HW131895   3.052   6.016   3.318
 7142SOL    HW231896   3.029   5.856   3.342
 7143SOL     OW31897   1.014   0.567   2.785
 7143SOL    HW131898   1.040   0.596   2.877
 7143SOL    HW231899   1.046   0.473   2.770
 7144SOL     OW31900   3.499   1.884   1.914
 7144SOL    HW131901   3.448   1.945   1.975
 7144SOL    HW231902   3.504   1.925   1.823
 7145SOL     OW31903   2.461   8.347   2.861
 7145SOL    HW131904   2.453   8.287   2.941
 7145SOL    HW231905   2.495   8.294   2.783
 7146SOL     OW31906   9.537   6.783   0.134
 7146SOL    HW131907   9.554   6.815   0.041
 7146SOL    HW231908   9.442   6.804   0.159
 7147SOL     OW31909   0.307   7.569   2.582
 7147SOL    HW131910   0.303   7.587   2.483
 7147SOL    HW231911   0.268   7.647   2.631
 7148SOL     OW31912   2.763   5.764   1.597
 7148SOL    HW131913   2.815   5.794   1.517
 7148SOL    HW231914   2.814   5.786   1.680
 7149SOL     OW31915   8.929   2.259   1.296
 7149SOL    HW131916   8.961   2.205   1.218
 7149SOL    HW231917   8.911   2.353   1.267
 7150SOL     OW31918   4.197   9.814   1.282
 7150SOL    HW131919   4.114   9.860   1.312
 7150SOL    HW231920   4.264   9.883   1.251
 7151SOL     OW31921   3.375   2.841   0.478
 7151SOL    HW131922   3.421   2.896   0.409
 7151SOL    HW231923   3.290   2.804   0.440
 7152SOL     OW31924   3.718   8.703   3.521
 7152SOL    HW131925   3.720   8.630   3.589
 7152SOL    HW231926   3.782   8.681   3.447
 7153SOL     OW31927   4.840   1.662   2.740
 7153SOL    HW131928   4.904   1.736   2.722
 7153SOL    HW231929   4.886   1.590   2.794
 7154SOL     OW31930   5.293   0.901   3.705
 7154SOL    HW131931   5.380   0.889   3.659
 7154SOL    HW231932   5.291   0.990   3.751
 7155SOL     OW31933   0.964   0.362   3.244
 7155SOL    HW131934   0.949   0.458   3.269
 7155SOL    HW231935   1.047   0.354   3.189
 7156SOL     OW31936   3.349   6.511   2.174
 7156SOL    HW131937   3.308   6.589   2.125
 7156SOL    HW231938   3.444   6.532   2.196
 7157SOL     OW31939   9.852   9.558   3.652
 7157SOL    HW131940   9.792   9.585   3.577
 7157SOL    HW231941   9.801   9.503   3.718
 7158SOL     OW31942   1.464   5.967   3.269
 7158SOL    HW131943   1.538   5.909   3.303
 7158SOL    HW231944   1.434   5.933   3.180
 7159SOL     OW31945   9.654   9.316   1.224
 7159SOL    HW131946   9.731   9.252   1.221
 7159SOL    HW231947   9.687   9.408   1.243
 7160SOL     OW31948   4.234   2.041   0.654
 7160SOL    HW131949   4.237   2.087   0.565
 7160SOL    HW231950   4.140   2.015   0.675
 7161SOL     OW31951   3.460   3.437   2.263
 7161SOL    HW131952   3.556   3.466   2.272
 7161SOL    HW231953   3.458   3.339   2.241
 7162SOL     OW31954   7.582   2.340   1.391
 7162SOL    HW131955   7.622   2.429   1.369
 7162SOL    HW231956   7.649   2.268   1.372
 7163SOL     OW31957   2.659   1.968   2.494
 7163SOL    HW131958   2.715   1.939   2.416
 7163SOL    HW231959   2.706   2.041   2.543
 7164SOL     OW31960   3.897   1.503   2.142
 7164SOL    HW131961   3.865   1.470   2.053
 7164SOL    HW231962   3.988   1.543   2.132
 7165SOL     OW31963   9.512   1.656   1.053
 7165SOL    HW131964   9.555   1.727   1.109
 7165SOL    HW231965   9.413   1.666   1.058
 7166SOL     OW31966   9.221   6.144   2.726
 7166SOL    HW131967   9.163   6.062   2.728
 7166SOL    HW231968   9.188   6.207   2.656
 7167SOL     OW31969   1.914   6.734   2.060
 7167SOL    HW131970   1.929   6.748   1.962
 7167SOL    HW231971   1.989   6.776   2.111
 7168SOL     OW31972   8.133   5.012   2.032
 7168SOL    HW131973   8.120   5.055   2.122
 7168SOL    HW231974   8.075   5.057   1.965
 7169SOL     OW31975   3.961   0.495   1.207
 7169SOL    HW131976   3.874   0.451   1.231
 7169SOL    HW231977   4.037   0.434   1.230
 7170SOL     OW31978   9.174   3.337   3.503
 7170SOL    HW131979   9.255   3.393   3.517
 7170SOL    HW231980   9.187   3.278   3.423
 7171SOL     OW31981   0.064   0.935   2.686
 7171SOL    HW131982   0.073   0.839   2.658
 7171SOL    HW231983   0.151   0.982   2.675
 7172SOL     OW31984   7.530   8.330   1.666
 7172SOL    HW131985   7.479   8.254   1.625
 7172SOL    HW231986   7.475   8.372   1.738
 7173SOL     OW31987   9.962   8.554   1.507
 7173SOL    HW131988   0.017   8.540   1.425
 7173SOL    HW231989   9.901   8.476   1.520
 7174SOL     OW31990   0.112   7.091   1.530
 7174SOL    HW131991   0.192   7.120   1.478
 7174SOL    HW231992   0.030   7.134   1.492
 7175SOL     OW31993   8.852   0.062   2.639
 7175SOL    HW131994   8.853   9.962   2.642
 7175SOL    HW231995   8.757   0.094   2.640
 7176SOL     OW31996   0.036   3.603   1.857
 7176SOL    HW131997   0.120   3.582   1.908
 7176SOL    HW231998   9.957   3.575   1.911
 7177SOL     OW31999   8.293   5.374   2.576
 7177SOL    HW132000   8.351   5.383   2.495
 7177SOL    HW232001   8.302   5.456   2.633
 7178SOL     OW32002   1.308   4.086   1.537
 7178SOL    HW132003   1.279   3.998   1.575
 7178SOL    HW232004   1.390   4.117   1.586
 7179SOL     OW32005   6.150   9.433   1.946
 7179SOL    HW132006   6.233   9.382   1.926
 7179SOL    HW232007   6.072   9.370   1.948
 7180SOL     OW32008   9.667   6.510   1.547
 7180SOL    HW132009   9.710   6.599   1.559
 7180SOL    HW232010   9.631   6.501   1.455
 7181SOL     OW32011   1.736   9.849   1.772
 7181SOL    HW132012   1.647   9.895   1.775
 7181SOL    HW232013   1.724   9.757   1.734
 7182SOL     OW32014   0.679   9.816   0.021
 7182SOL    HW132015   0.614   9.823   0.096
 7182SOL    HW232016   0.641   9.861   4.721
 7183SOL     OW32017   2.428   0.246   3.130
 7183SOL    HW132018   2.487   0.327   3.129
 7183SOL    HW232019   2.372   0.247   3.213
 7184SOL     OW32020   8.704   2.967   1.778
 7184SOL    HW132021   8.751   2.988   1.692
 7184SOL    HW232022   8.701   3.049   1.835
 7185SOL     OW32023   2.814   5.022   0.668
 7185SOL    HW132024   2.848   4.982   0.753
 7185SOL    HW232025   2.861   5.107   0.649
 7186SOL     OW32026   1.467   1.217   0.576
 7186SOL    HW132027   1.567   1.204   0.580
 7186SOL    HW232028   1.429   1.162   0.502
 7187SOL     OW32029   1.817   3.413   1.415
 7187SOL    HW132030   1.760   3.488   1.380
 7187SOL    HW232031   1.770   3.369   1.492
 7188SOL     OW32032   2.462   7.787   0.836
 7188SOL    HW132033   2.434   7.757   0.745
 7188SOL    HW232034   2.384   7.830   0.882
 7189SOL     OW32035   5.058   7.631   1.851
 7189SOL    HW132036   5.116   7.551   1.837
 7189SOL    HW232037   5.017   7.658   1.764
 7190SOL     OW32038   7.809   2.877   0.554
 7190SOL    HW132039   7.817   2.795   0.497
 7190SOL    HW232040   7.712   2.900   0.565
 7191SOL     OW32041   1.807   0.544   1.234
 7191SOL    HW132042   1.754   0.561   1.150
 7191SOL    HW232043   1.809   0.446   1.253
 7192SOL     OW32044   1.798   3.281   2.691
 7192SOL    HW132045   1.866   3.313   2.757
 7192SOL    HW232046   1.811   3.183   2.675
 7193SOL     OW32047   1.493   4.588   0.687
 7193SOL    HW132048   1.541   4.506   0.656
 7193SOL    HW232049   1.395   4.576   0.672
 7194SOL     OW32050   0.894   0.004   2.679
 7194SOL    HW132051   0.919   0.025   2.584
 7194SOL    HW232052   0.839   0.079   2.716
 7195SOL     OW32053   0.632   3.826   0.271
 7195SOL    HW132054   0.535   3.847   0.260
 7195SOL    HW232055   0.682   3.854   0.189
 7196SOL     OW32056   7.543   4.757   0.821
 7196SOL    HW132057   7.507   4.770   0.913
 7196SOL    HW232058   7.642   4.747   0.825
 7197SOL     OW32059   8.811   8.568   1.363
 7197SOL    HW132060   8.874   8.529   1.296
 7197SOL    HW232061   8.735   8.612   1.316
 7198SOL     OW32062   2.419   0.272   2.124
 7198SOL    HW132063   2.420   0.368   2.097
 7198SOL    HW232064   2.492   0.223   2.077
 7199SOL     OW32065   0.676   1.703   2.158
 7199SOL    HW132066   0.713   1.674   2.247
 7199SOL    HW232067   0.743   1.684   2.086
 7200SOL     OW32068   3.076   1.003   3.193
 7200SOL    HW132069   3.053   0.928   3.254
 7200SOL    HW232070   3.150   0.976   3.132
 7201SOL     OW32071   9.690   4.059   2.152
 7201SOL    HW132072   9.695   4.143   2.206
 7201SOL    HW232073   9.720   3.981   2.207
 7202SOL     OW32074   3.752   7.611   2.690
 7202SOL    HW132075   3.769   7.514   2.709
 7202SOL    HW232076   3.799   7.667   2.758
 7203SOL     OW32077   3.299   4.706   2.901
 7203SOL    HW132078   3.204   4.675   2.892
 7203SOL    HW232079   3.320   4.772   2.828
 7204SOL     OW32080   9.915   6.710   1.815
 7204SOL    HW132081   9.972   6.792   1.819
 7204SOL    HW232082   9.973   6.629   1.812
 7205SOL     OW32083   0.552   1.676   3.364
 7205SOL    HW132084   0.541   1.773   3.384
 7205SOL    HW232085   0.566   1.664   3.266
 7206SOL     OW32086   4.079   6.147   2.345
 7206SOL    HW132087   4.002   6.084   2.340
 7206SOL    HW232088   4.101   6.181   2.254
 7207SOL     OW32089   9.001   5.413   3.082
 7207SOL    HW132090   8.986   5.506   3.115
 7207SOL    HW232091   9.033   5.356   3.157
 7208SOL     OW32092   8.531   0.224   1.269
 7208SOL    HW132093   8.458   0.180   1.322
 7208SOL    HW232094   8.549   0.315   1.306
 7209SOL     OW32095   8.855   0.065   0.366
 7209SOL    HW132096   8.936   0.121   0.354
 7209SOL    HW232097   8.882   9.970   0.381
 7210SOL     OW32098   2.200   6.655   0.775
 7210SOL    HW132099   2.125   6.696   0.723
 7210SOL    HW232100   2.283   6.654   0.719
 7211SOL     OW32101   7.743   7.010   3.084
 7211SOL    HW132102   7.724   7.043   3.176
 7211SOL    HW232103   7.658   6.980   3.041
 7212SOL     OW32104   3.964   8.569   2.157
 7212SOL    HW132105   4.043   8.611   2.202
 7212SOL    HW232106   3.995   8.512   2.081
 7213SOL     OW32107   5.059   7.913   2.612
 7213SOL    HW132108   5.025   7.850   2.543
 7213SOL    HW232109   5.136   7.870   2.661
 7214SOL     OW32110   1.161   4.805   1.098
 7214SOL    HW132111   1.144   4.757   1.011
 7214SOL    HW232112   1.236   4.760   1.146
 7215SOL     OW32113   1.743   1.789   2.094
 7215SOL    HW132114   1.827   1.784   2.039
 7215SOL    HW232115   1.682   1.715   2.068
 7216SOL     OW32116   8.727   0.921   3.641
 7216SOL    HW132117   8.740   0.900   3.738
 7216SOL    HW232118   8.814   0.952   3.602
 7217SOL     OW32119   1.530   7.625   0.085
 7217SOL    HW132120   1.527   7.573   4.781
 7217SOL    HW232121   1.449   7.685   0.090
 7218SOL     OW32122   1.318   4.547   1.961
 7218SOL    HW132123   1.351   4.611   1.892
 7218SOL    HW232124   1.242   4.588   2.011
 7219SOL     OW32125   1.138   1.429   3.053
 7219SOL    HW132126   1.058   1.422   2.993
 7219SOL    HW232127   1.122   1.376   3.136
 7220SOL     OW32128   8.969   5.088   3.695
 7220SOL    HW132129   8.944   5.072   3.599
 7220SOL    HW232130   9.035   5.019   3.725
 7221SOL     OW32131   8.444   1.865   0.883
 7221SOL    HW132132   8.535   1.870   0.842
 7221SOL    HW232133   8.411   1.957   0.903
 7222SOL     OW32134   9.020   5.864   2.158
 7222SOL    HW132135   9.094   5.893   2.218
 7222SOL    HW232136   9.056   5.807   2.085
 7223SOL     OW32137   8.129   0.295   3.105
 7223SOL    HW132138   8.165   0.318   3.195
 7223SOL    HW232139   8.069   0.369   3.073
 7224SOL     OW32140   4.699   9.557   2.554
 7224SOL    HW132141   4.791   9.526   2.579
 7224SOL    HW232142   4.633   9.522   2.621
 7225SOL     OW32143   2.347   2.210   0.114
 7225SOL    HW132144   2.248   2.196   0.100
 7225SOL    HW232145   2.366   2.308   0.120
 7226SOL     OW32146   9.523   6.501   1.791
 7226SOL    HW132147   9.570   6.499   1.704
 7226SOL    HW232148   9.566   6.567   1.852
 7227SOL     OW32149   8.941   9.706   2.693
 7227SOL    HW132150   8.949   9.608   2.710
 7227SOL    HW232151   8.952   9.724   2.595
 7228SOL     OW32152   7.694   7.058   3.346
 7228SOL    HW132153   7.642   7.141   3.365
 7228SOL    HW232154   7.762   7.044   3.418
 7229SOL     OW32155   2.621   0.510   1.545
 7229SOL    HW132156   2.535   0.527   1.594
 7229SOL    HW232157   2.679   0.591   1.550
 7230SOL     OW32158   8.515   0.729   0.388
 7230SOL    HW132159   8.450   0.735   0.312
 7230SOL    HW232160   8.465   0.716   0.473
 7231SOL     OW32161   2.000   2.675   1.228
 7231SOL    HW132162   2.020   2.772   1.236
 7231SOL    HW232163   2.036   2.626   1.308
 7232SOL     OW32164   8.101   2.196   2.431
 7232SOL    HW132165   8.012   2.206   2.475
 7232SOL    HW232166   8.145   2.112   2.464
 7233SOL     OW32167   3.349   7.971   1.188
 7233SOL    HW132168   3.384   7.880   1.211
 7233SOL    HW232169   3.398   8.040   1.240
 7234SOL     OW32170   2.832   4.414   0.718
 7234SOL    HW132171   2.798   4.443   0.807
 7234SOL    HW232172   2.889   4.486   0.678
 7235SOL     OW32173   4.389   8.553   0.387
 7235SOL    HW132174   4.317   8.537   0.320
 7235SOL    HW232175   4.353   8.607   0.463
 7236SOL     OW32176   0.256   4.068   2.853
 7236SOL    HW132177   0.175   4.040   2.903
 7236SOL    HW232178   0.338   4.031   2.898
 7237SOL     OW32179   3.574   0.607   0.442
 7237SOL    HW132180   3.568   0.696   0.396
 7237SOL    HW232181   3.560   0.620   0.540
 7238SOL     OW32182   4.401   9.121   0.644
 7238SOL    HW132183   4.424   9.087   0.735
 7238SOL    HW232184   4.341   9.201   0.652
 7239SOL     OW32185   8.318   5.830   3.350
 7239SOL    HW132186   8.299   5.925   3.370
 7239SOL    HW232187   8.373   5.790   3.424
 7240SOL     OW32188   0.538   8.018   0.940
 7240SOL    HW132189   0.508   8.083   0.870
 7240SOL    HW232190   0.544   8.063   1.029
 7241SOL     OW32191   1.277   8.884   1.754
 7241SOL    HW132192   1.177   8.877   1.754
 7241SOL    HW232193   1.312   8.851   1.842
 7242SOL     OW32194   2.504   4.660   0.588
 7242SOL    HW132195   2.529   4.750   0.624
 7242SOL    HW232196   2.408   4.641   0.608
 7243SOL     OW32197   2.417   1.736   0.822
 7243SOL    HW132198   2.381   1.646   0.848
 7243SOL    HW232199   2.475   1.771   0.895
 7244SOL     OW32200   9.289   7.085   2.217
 7244SOL    HW132201   9.195   7.114   2.204
 7244SOL    HW232202   9.322   7.119   2.306
 7245SOL     OW32203   0.978   0.053   2.425
 7245SOL    HW132204   1.013   0.145   2.404
 7245SOL    HW232205   0.918   0.023   2.351
 7246SOL     OW32206   3.091   7.587   2.510
 7246SOL    HW132207   3.021   7.585   2.582
 7246SOL    HW232208   3.063   7.651   2.439
 7247SOL     OW32209   8.435   1.188   2.565
 7247SOL    HW132210   8.496   1.185   2.645
 7247SOL    HW232211   8.366   1.259   2.578
 7248SOL     OW32212   7.665   1.151   1.880
 7248SOL    HW132213   7.709   1.067   1.847
 7248SOL    HW232214   7.601   1.185   1.810
 7249SOL     OW32215   0.021   2.490   0.533
 7249SOL    HW132216   9.953   2.556   0.502
 7249SOL    HW232217   0.053   2.515   0.624
 7250SOL     OW32218   3.849   1.623   1.435
 7250SOL    HW132219   3.807   1.602   1.346
 7250SOL    HW232220   3.800   1.699   1.478
 7251SOL     OW32221   7.807   2.671   0.975
 7251SOL    HW132222   7.792   2.575   1.000
 7251SOL    HW232223   7.873   2.711   1.038
 7252SOL     OW32224   9.182   3.580   0.833
 7252SOL    HW132225   9.174   3.528   0.748
 7252SOL    HW232226   9.107   3.645   0.841
 7253SOL     OW32227   1.255   5.116   3.497
 7253SOL    HW132228   1.230   5.208   3.467
 7253SOL    HW232229   1.345   5.092   3.459
 7254SOL     OW32230   1.297   0.220   1.134
 7254SOL    HW132231   1.207   0.263   1.144
 7254SOL    HW232232   1.367   0.292   1.130
 7255SOL     OW32233   0.674   7.245   1.692
 7255SOL    HW132234   0.575   7.240   1.685
 7255SOL    HW232235   0.701   7.250   1.788
 7256SOL     OW32236   9.111   8.496   2.527
 7256SOL    HW132237   9.195   8.481   2.580
 7256SOL    HW232238   9.093   8.416   2.470
 7257SOL     OW32239   8.280   0.337   0.096
 7257SOL    HW132240   8.271   0.238   0.094
 7257SOL    HW232241   8.377   0.362   0.101
 7258SOL     OW32242   1.233   0.811   1.668
 7258SOL    HW132243   1.164   0.749   1.705
 7258SOL    HW232244   1.245   0.793   1.570
 7259SOL     OW32245   8.836   8.854   2.379
 7259SOL    HW132246   8.772   8.819   2.447
 7259SOL    HW232247   8.884   8.934   2.416
 7260SOL     OW32248   2.971   1.936   1.680
 7260SOL    HW132249   3.057   1.978   1.711
 7260SOL    HW232250   2.894   1.980   1.727
 7261SOL     OW32251   9.044   5.191   1.774
 7261SOL    HW132252   9.015   5.287   1.773
 7261SOL    HW232253   9.119   5.179   1.839
 7262SOL     OW32254   9.646   8.407   1.978
 7262SOL    HW132255   9.728   8.464   1.986
 7262SOL    HW232256   9.581   8.433   2.048
 7263SOL     OW32257   3.046   3.217   3.311
 7263SOL    HW132258   2.953   3.195   3.281
 7263SOL    HW232259   3.044   3.247   3.406
 7264SOL     OW32260   3.589   8.209   3.495
 7264SOL    HW132261   3.551   8.247   3.579
 7264SOL    HW232262   3.648   8.277   3.451
 7265SOL     OW32263   9.146   8.911   0.901
 7265SOL    HW132264   9.065   8.958   0.865
 7265SOL    HW232265   9.152   8.927   1.000
 7266SOL     OW32266   0.449   1.971   2.787
 7266SOL    HW132267   0.456   2.068   2.764
 7266SOL    HW232268   0.354   1.941   2.779
 7267SOL     OW32269   1.775   8.891   2.113
 7267SOL    HW132270   1.713   8.825   2.155
 7267SOL    HW232271   1.865   8.883   2.156
 7268SOL     OW32272   2.261   8.827   2.192
 7268SOL    HW132273   2.328   8.752   2.188
 7268SOL    HW232274   2.244   8.860   2.099
 7269SOL     OW32275   9.822   0.118   0.900
 7269SOL    HW132276   9.775   0.040   0.859
 7269SOL    HW232277   9.911   0.130   0.855
 7270SOL     OW32278   0.686   9.496   1.951
 7270SOL    HW132279   0.616   9.518   1.883
 7270SOL    HW232280   0.644   9.487   2.041
 7271SOL     OW32281   9.522   0.610   1.026
 7271SOL    HW132282   9.554   0.525   0.985
 7271SOL    HW232283   9.539   0.608   1.125
 7272SOL     OW32284   9.800   5.506   0.526
 7272SOL    HW132285   9.721   5.492   0.585
 7272SOL    HW232286   9.881   5.468   0.569
 7273SOL     OW32287   3.339   9.618   2.575
 7273SOL    HW132288   3.274   9.685   2.540
 7273SOL    HW232289   3.349   9.544   2.508
 7274SOL     OW32290   3.614   9.706   1.837
 7274SOL    HW132291   3.584   9.619   1.797
 7274SOL    HW232292   3.584   9.711   1.932
 7275SOL     OW32293   0.187   0.903   2.967
 7275SOL    HW132294   0.169   1.002   2.968
 7275SOL    HW232295   0.150   0.864   2.883
 7276SOL     OW32296   0.445   2.288   2.202
 7276SOL    HW132297   0.397   2.354   2.260
 7276SOL    HW232298   0.427   2.308   2.106
 7277SOL     OW32299   7.405   0.316   0.235
 7277SOL    HW132300   7.403   0.236   0.175
 7277SOL    HW232301   7.499   0.335   0.262
 7278SOL     OW32302   1.079   0.786   1.118
 7278SOL    HW132303   1.150   0.721   1.145
 7278SOL    HW232304   1.001   0.736   1.080
 7279SOL     OW32305   2.767   0.548   0.882
 7279SOL    HW132306   2.697   0.496   0.930
 7279SOL    HW232307   2.728   0.588   0.799
 7280SOL     OW32308   2.472   6.485   1.812
 7280SOL    HW132309   2.415   6.406   1.837
 7280SOL    HW232310   2.535   6.458   1.740
 7281SOL     OW32311   1.116   2.165   2.372
 7281SOL    HW132312   1.206   2.149   2.331
 7281SOL    HW232313   1.066   2.079   2.375
 7282SOL     OW32314   8.271   8.448   1.612
 7282SOL    HW132315   8.328   8.502   1.674
 7282SOL    HW232316   8.203   8.398   1.665
 7283SOL     OW32317   8.415   8.216   1.860
 7283SOL    HW132318   8.408   8.263   1.948
 7283SOL    HW232319   8.494   8.251   1.810
 7284SOL     OW32320   8.708   1.774   1.444
 7284SOL    HW132321   8.671   1.841   1.509
 7284SOL    HW232322   8.783   1.725   1.487
 7285SOL     OW32323   4.698   1.489   0.169
 7285SOL    HW132324   4.741   1.529   0.250
 7285SOL    HW232325   4.692   1.389   0.181
 7286SOL     OW32326   2.258   8.229   0.583
 7286SOL    HW132327   2.306   8.237   0.496
 7286SOL    HW232328   2.321   8.196   0.653
 7287SOL     OW32329   3.450   9.573   0.289
 7287SOL    HW132330   3.414   9.481   0.274
 7287SOL    HW232331   3.549   9.569   0.302
 7288SOL     OW32332   1.627   0.449   3.242
 7288SOL    HW132333   1.683   0.374   3.278
 7288SOL    HW232334   1.577   0.492   3.317
 7289SOL     OW32335   4.680   8.432   1.688
 7289SOL    HW132336   4.592   8.476   1.672
 7289SOL    HW232337   4.708   8.448   1.783
 7290SOL     OW32338   2.027   0.344   3.614
 7290SOL    HW132339   2.038   0.336   3.515
 7290SOL    HW232340   2.075   0.426   3.646
 7291SOL     OW32341   8.203   6.642   1.651
 7291SOL    HW132342   8.259   6.633   1.734
 7291SOL    HW232343   8.262   6.665   1.574
 7292SOL     OW32344   8.216   0.681   3.430
 7292SOL    HW132345   8.283   0.631   3.485
 7292SOL    HW232346   8.166   0.744   3.489
 7293SOL     OW32347   3.741   1.105   1.170
 7293SOL    HW132348   3.760   1.151   1.257
 7293SOL    HW232349   3.745   1.173   1.096
 7294SOL     OW32350   3.239   5.282   1.992
 7294SOL    HW132351   3.299   5.296   1.913
 7294SOL    HW232352   3.292   5.249   2.069
 7295SOL     OW32353   0.531   8.837   1.409
 7295SOL    HW132354   0.614   8.880   1.373
 7295SOL    HW232355   0.478   8.798   1.333
 7296SOL     OW32356   8.045   3.087   1.315
 7296SOL    HW132357   8.067   3.034   1.397
 7296SOL    HW232358   7.955   3.059   1.281
 7297SOL     OW32359   0.963   0.583   2.371
 7297SOL    HW132360   0.984   0.650   2.442
 7297SOL    HW232361   0.864   0.580   2.356
 7298SOL     OW32362   2.702   7.616   1.077
 7298SOL    HW132363   2.684   7.520   1.102
 7298SOL    HW232364   2.709   7.623   0.978
 7299SOL     OW32365   8.426   9.060   1.638
 7299SOL    HW132366   8.461   8.967   1.626
 7299SOL    HW232367   8.437   9.087   1.734
 7300SOL     OW32368   0.390   6.394   1.079
 7300SOL    HW132369   0.328   6.469   1.100
 7300SOL    HW232370   0.340   6.308   1.079
 7301SOL     OW32371   9.632   7.323   1.886
 7301SOL    HW132372   9.547   7.284   1.922
 7301SOL    HW232373   9.699   7.329   1.960
 7302SOL     OW32374   6.069   0.292   1.863
 7302SOL    HW132375   5.997   0.356   1.889
 7302SOL    HW232376   6.158   0.339   1.863
 7303SOL     OW32377   1.999   0.759   3.502
 7303SOL    HW132378   2.013   0.856   3.524
 7303SOL    HW232379   1.901   0.742   3.491
 7304SOL     OW32380   1.166   1.590   0.440
 7304SOL    HW132381   1.172   1.574   0.538
 7304SOL    HW232382   1.257   1.613   0.404
 7305SOL     OW32383   7.829   7.087   2.308
 7305SOL    HW132384   7.850   7.071   2.404
 7305SOL    HW232385   7.842   7.184   2.287
 7306SOL     OW32386   4.253   8.254   0.193
 7306SOL    HW132387   4.241   8.352   0.185
 7306SOL    HW232388   4.166   8.211   0.218
 7307SOL     OW32389   1.802   8.509   0.268
 7307SOL    HW132390   1.827   8.601   0.300
 7307SOL    HW232391   1.867   8.443   0.305
 7308SOL     OW32392   7.369   8.456   1.856
 7308SOL    HW132393   7.382   8.552   1.881
 7308SOL    HW232394   7.325   8.408   1.931
 7309SOL     OW32395   4.305   8.278   2.141
 7309SOL    HW132396   4.371   8.226   2.087
 7309SOL    HW232397   4.244   8.328   2.080
 7310SOL     OW32398   3.026   2.588   2.427
 7310SOL    HW132399   2.983   2.565   2.340
 7310SOL    HW232400   3.116   2.546   2.432
 7311SOL     OW32401   4.612   0.772   1.734
 7311SOL    HW132402   4.567   0.712   1.668
 7311SOL    HW232403   4.705   0.740   1.751
 7312SOL     OW32404   9.732   7.743   2.586
 7312SOL    HW132405   9.730   7.800   2.668
 7312SOL    HW232406   9.668   7.779   2.518
 7313SOL     OW32407   9.937   2.318   3.239
 7313SOL    HW132408   9.936   2.327   3.338
 7313SOL    HW232409   0.002   2.247   3.212
 7314SOL     OW32410   7.005   0.760   2.299
 7314SOL    HW132411   7.086   0.705   2.281
 7314SOL    HW232412   6.989   0.764   2.398
 7315SOL     OW32413   2.890   1.065   1.935
 7315SOL    HW132414   2.903   1.135   1.864
 7315SOL    HW232415   2.890   1.109   2.025
 7316SOL     OW32416   6.775   7.523   2.130
 7316SOL    HW132417   6.828   7.579   2.066
 7316SOL    HW232418   6.719   7.582   2.188
 7317SOL     OW32419   1.003   4.318   3.633
 7317SOL    HW132420   1.099   4.343   3.626
 7317SOL    HW232421   0.994   4.218   3.629
 7318SOL     OW32422   3.897   4.097   3.198
 7318SOL    HW132423   3.847   4.160   3.138
 7318SOL    HW232424   3.852   4.092   3.287
 7319SOL     OW32425   3.687   1.608   2.303
 7319SOL    HW132426   3.698   1.671   2.380
 7319SOL    HW232427   3.776   1.586   2.264
 7320SOL     OW32428   5.439   1.041   3.364
 7320SOL    HW132429   5.432   1.017   3.267
 7320SOL    HW232430   5.395   1.130   3.379
 7321SOL     OW32431   8.900   4.287   2.595
 7321SOL    HW132432   8.828   4.356   2.593
 7321SOL    HW232433   8.886   4.223   2.519
 7322SOL     OW32434   1.154   9.669   0.162
 7322SOL    HW132435   1.188   9.648   0.071
 7322SOL    HW232436   1.219   9.637   0.231
 7323SOL     OW32437   1.972   8.027   2.028
 7323SOL    HW132438   2.002   8.056   2.119
 7323SOL    HW232439   1.994   8.098   1.962
 7324SOL     OW32440   1.095   2.388   1.674
 7324SOL    HW132441   1.055   2.465   1.725
 7324SOL    HW232442   1.034   2.309   1.681
 7325SOL     OW32443   2.745   2.915   1.380
 7325SOL    HW132444   2.760   2.915   1.479
 7325SOL    HW232445   2.732   3.009   1.348
 7326SOL     OW32446   0.303   3.266   1.109
 7326SOL    HW132447   0.340   3.186   1.157
 7326SOL    HW232448   0.215   3.243   1.069
 7327SOL     OW32449   2.314   2.677   2.800
 7327SOL    HW132450   2.300   2.611   2.874
 7327SOL    HW232451   2.240   2.669   2.734
 7328SOL     OW32452   5.086   3.651   0.195
 7328SOL    HW132453   5.004   3.704   0.216
 7328SOL    HW232454   5.059   3.561   0.160
 7329SOL     OW32455   3.523   4.786   2.511
 7329SOL    HW132456   3.564   4.701   2.542
 7329SOL    HW232457   3.505   4.781   2.413
 7330SOL     OW32458   0.700   7.757   0.908
 7330SOL    HW132459   0.645   7.789   0.985
 7330SOL    HW232460   0.653   7.776   0.823
 7331SOL     OW32461   5.017   7.259   3.475
 7331SOL    HW132462   5.006   7.354   3.504
 7331SOL    HW232463   5.110   7.245   3.442
 7332SOL     OW32464   4.690   0.159   3.081
 7332SOL    HW132465   4.650   0.196   2.997
 7332SOL    HW232466   4.775   0.111   3.058
 7333SOL     OW32467   0.603   8.985   0.648
 7333SOL    HW132468   0.586   9.064   0.589
 7333SOL    HW232469   0.629   8.907   0.591
 7334SOL     OW32470   7.762   4.922   3.687
 7334SOL    HW132471   7.735   5.014   3.713
 7334SOL    HW232472   7.859   4.922   3.660
 7335SOL     OW32473   6.584   7.353   2.758
 7335SOL    HW132474   6.523   7.323   2.832
 7335SOL    HW232475   6.537   7.421   2.702
 7336SOL     OW32476   9.217   8.027   2.099
 7336SOL    HW132477   9.227   8.124   2.079
 7336SOL    HW232478   9.283   7.974   2.046
 7337SOL     OW32479   1.165   9.868   3.594
 7337SOL    HW132480   1.164   9.770   3.572
 7337SOL    HW232481   1.250   9.909   3.562
 7338SOL     OW32482   1.961   5.032   2.679
 7338SOL    HW132483   2.037   5.020   2.615
 7338SOL    HW232484   1.941   4.944   2.723
 7339SOL     OW32485   4.970   4.319   0.641
 7339SOL    HW132486   4.908   4.320   0.562
 7339SOL    HW232487   4.926   4.270   0.717
 7340SOL     OW32488   8.091   2.704   0.513
 7340SOL    HW132489   8.008   2.677   0.466
 7340SOL    HW232490   8.081   2.686   0.611
 7341SOL     OW32491   9.753   4.430   1.536
 7341SOL    HW132492   9.658   4.460   1.550
 7341SOL    HW232493   9.809   4.458   1.614
 7342SOL     OW32494   0.757   9.840   3.219
 7342SOL    HW132495   0.783   9.913   3.155
 7342SOL    HW232496   0.666   9.806   3.195
 7343SOL     OW32497   8.744   4.482   3.663
 7343SOL    HW132498   8.837   4.451   3.681
 7343SOL    HW232499   8.740   4.525   3.573
 7344SOL     OW32500   3.532   8.147   3.045
 7344SOL    HW132501   3.519   8.063   2.993
 7344SOL    HW232502   3.450   8.204   3.038
 7345SOL     OW32503   3.749   5.144   1.475
 7345SOL    HW132504   3.832   5.127   1.421
 7345SOL    HW232505   3.715   5.236   1.456
 7346SOL     OW32506   1.002   4.036   3.673
 7346SOL    HW132507   1.092   3.998   3.695
 7346SOL    HW232508   0.951   4.052   3.757
 7347SOL     OW32509   1.375   1.062   0.374
 7347SOL    HW132510   1.316   1.123   0.320
 7347SOL    HW232511   1.319   0.987   0.411
 7348SOL     OW32512   0.192   3.748   1.026
 7348SOL    HW132513   0.093   3.763   1.020
 7348SOL    HW232514   0.213   3.655   0.993
 7349SOL     OW32515   8.477   3.695   1.692
 7349SOL    HW132516   8.441   3.605   1.716
 7349SOL    HW232517   8.576   3.688   1.677
 7350SOL     OW32518   1.050   4.360   2.704
 7350SOL    HW132519   0.984   4.431   2.727
 7350SOL    HW232520   1.013   4.302   2.632
 7351SOL     OW32521   1.205   7.584   2.252
 7351SOL    HW132522   1.162   7.532   2.326
 7351SOL    HW232523   1.151   7.666   2.233
 7352SOL     OW32524   2.831   5.603   3.201
 7352SOL    HW132525   2.848   5.669   3.275
 7352SOL    HW232526   2.834   5.510   3.238
 7353SOL     OW32527   8.201   3.730   0.774
 7353SOL    HW132528   8.202   3.756   0.870
 7353SOL    HW232529   8.166   3.637   0.764
 7354SOL     OW32530   9.349   7.212   2.482
 7354SOL    HW132531   9.400   7.263   2.413
 7354SOL    HW232532   9.388   7.231   2.572
 7355SOL     OW32533   1.398   6.273   1.963
 7355SOL    HW132534   1.489   6.291   1.999
 7355SOL    HW232535   1.351   6.206   2.020
 7356SOL     OW32536   1.533   0.098   1.829
 7356SOL    HW132537   1.546   0.171   1.761
 7356SOL    HW232538   1.448   0.115   1.879
 7357SOL     OW32539   9.278   4.360   1.059
 7357SOL    HW132540   9.337   4.281   1.046
 7357SOL    HW232541   9.267   4.378   1.157
 7358SOL     OW32542   8.740   3.879   2.967
 7358SOL    HW132543   8.810   3.950   2.964
 7358SOL    HW232544   8.704   3.871   3.060
 7359SOL     OW32545   4.760   1.229   1.717
 7359SOL    HW132546   4.796   1.317   1.747
 7359SOL    HW232547   4.778   1.159   1.787
 7360SOL     OW32548   4.820   7.292   1.603
 7360SOL    HW132549   4.741   7.234   1.581
 7360SOL    HW232550   4.789   7.378   1.643
 7361SOL     OW32551   4.865   0.660   1.773
 7361SOL    HW132552   4.828   0.574   1.738
 7361SOL    HW232553   4.903   0.645   1.864
 7362SOL     OW32554   9.365   8.007   3.658
 7362SOL    HW132555   9.404   7.948   3.729
 7362SOL    HW232556   9.385   7.968   3.568
 7363SOL     OW32557   1.375   4.015   2.493
 7363SOL    HW132558   1.362   3.919   2.466
 7363SOL    HW232559   1.374   4.073   2.411
 7364SOL     OW32560   6.536   0.496   3.696
 7364SOL    HW132561   6.633   0.479   3.712
 7364SOL    HW232562   6.526   0.561   3.620
 7365SOL     OW32563   8.105   8.736   2.865
 7365SOL    HW132564   8.145   8.740   2.774
 7365SOL    HW232565   8.171   8.698   2.929
 7366SOL     OW32566   9.051   9.033   2.430
 7366SOL    HW132567   9.095   8.944   2.416
 7366SOL    HW232568   9.107   9.089   2.490
 7367SOL     OW32569   2.659   7.874   1.137
 7367SOL    HW132570   2.654   7.925   1.052
 7367SOL    HW232571   2.669   7.776   1.118
 7368SOL     OW32572   3.903   6.992   1.815
 7368SOL    HW132573   3.897   6.913   1.754
 7368SOL    HW232574   3.962   7.061   1.774
 7369SOL     OW32575   2.190   5.148   3.689
 7369SOL    HW132576   2.269   5.158   3.750
 7369SOL    HW232577   2.194   5.218   3.618
 7370SOL     OW32578   2.587   1.450   2.558
 7370SOL    HW132579   2.659   1.425   2.623
 7370SOL    HW232580   2.628   1.469   2.469
 7371SOL     OW32581   1.878   6.956   0.790
 7371SOL    HW132582   1.908   7.007   0.871
 7371SOL    HW232583   1.805   6.893   0.816
 7372SOL     OW32584   9.497   3.673   2.716
 7372SOL    HW132585   9.434   3.608   2.758
 7372SOL    HW232586   9.449   3.728   2.648
 7373SOL     OW32587   2.170   9.810   0.156
 7373SOL    HW132588   2.242   9.858   0.205
 7373SOL    HW232589   2.173   9.833   0.059
 7374SOL     OW32590   2.552   4.903   2.076
 7374SOL    HW132591   2.544   5.001   2.058
 7374SOL    HW232592   2.599   4.889   2.163
 7375SOL     OW32593   3.896   1.679   0.273
 7375SOL    HW132594   3.991   1.709   0.262
 7375SOL    HW232595   3.881   1.597   0.218
 7376SOL     OW32596   4.926   9.707   2.378
 7376SOL    HW132597   4.925   9.608   2.394
 7376SOL    HW232598   4.874   9.753   2.450
 7377SOL     OW32599   8.416   5.663   1.334
 7377SOL    HW132600   8.445   5.698   1.423
 7377SOL    HW232601   8.342   5.597   1.347
 7378SOL     OW32602   9.662   4.157   2.683
 7378SOL    HW132603   9.730   4.105   2.734
 7378SOL    HW232604   9.705   4.239   2.644
 7379SOL     OW32605   9.683   1.778   0.425
 7379SOL    HW132606   9.639   1.835   0.356
 7379SOL    HW232607   9.689   1.828   0.511
 7380SOL     OW32608   9.109   1.580   3.495
 7380SOL    HW132609   9.129   1.600   3.400
 7380SOL    HW232610   9.049   1.651   3.532
 7381SOL     OW32611   9.085   1.316   1.957
 7381SOL    HW132612   9.026   1.374   1.901
 7381SOL    HW232613   9.105   1.231   1.909
 7382SOL     OW32614   2.659   8.499   3.181
 7382SOL    HW132615   2.631   8.543   3.095
 7382SOL    HW232616   2.624   8.552   3.258
 7383SOL     OW32617   3.754   2.943   2.177
 7383SOL    HW132618   3.705   3.031   2.176
 7383SOL    HW232619   3.751   2.902   2.086
 7384SOL     OW32620   8.859   7.105   1.218
 7384SOL    HW132621   8.891   7.021   1.262
 7384SOL    HW232622   8.876   7.101   1.120
 7385SOL     OW32623   4.129   6.294   3.247
 7385SOL    HW132624   4.124   6.388   3.281
 7385SOL    HW232625   4.047   6.273   3.194
 7386SOL     OW32626   1.220   6.385   3.726
 7386SOL    HW132627   1.146   6.333   3.683
 7386SOL    HW232628   1.191   6.480   3.738
 7387SOL     OW32629   1.800   6.095   0.984
 7387SOL    HW132630   1.765   6.119   1.074
 7387SOL    HW232631   1.728   6.102   0.916
 7388SOL     OW32632   6.087   8.560   1.649
 7388SOL    HW132633   5.993   8.562   1.617
 7388SOL    HW232634   6.144   8.510   1.584
 7389SOL     OW32635   9.797   2.340   1.118
 7389SOL    HW132636   9.701   2.328   1.143
 7389SOL    HW232637   9.852   2.268   1.160
 7390SOL     OW32638   9.847   0.713   1.590
 7390SOL    HW132639   9.817   0.805   1.567
 7390SOL    HW232640   9.889   0.671   1.509
 7391SOL     OW32641   2.150   5.689   2.648
 7391SOL    HW132642   2.196   5.709   2.561
 7391SOL    HW232643   2.051   5.700   2.636
 7392SOL     OW32644   3.626   1.313   2.511
 7392SOL    HW132645   3.537   1.351   2.536
 7392SOL    HW232646   3.664   1.262   2.588
 7393SOL     OW32647   2.711   7.712   0.339
 7393SOL    HW132648   2.776   7.731   0.265
 7393SOL    HW232649   2.761   7.694   0.424
 7394SOL     OW32650   8.918   9.880   3.465
 7394SOL    HW132651   8.993   9.855   3.526
 7394SOL    HW232652   8.902   9.806   3.400
 7395SOL     OW32653   8.279   4.446   1.698
 7395SOL    HW132654   8.257   4.503   1.619
 7395SOL    HW232655   8.336   4.370   1.670
 7396SOL     OW32656   1.199   1.289   2.480
 7396SOL    HW132657   1.262   1.349   2.530
 7396SOL    HW232658   1.210   1.304   2.382
 7397SOL     OW32659   6.323   0.541   2.238
 7397SOL    HW132660   6.392   0.530   2.166
 7397SOL    HW232661   6.237   0.571   2.197
 7398SOL     OW32662   1.476   1.742   1.901
 7398SOL    HW132663   1.533   1.665   1.929
 7398SOL    HW232664   1.493   1.763   1.805
 7399SOL     OW32665   9.129   2.707   3.638
 7399SOL    HW132666   9.176   2.705   3.727
 7399SOL    HW232667   9.100   2.614   3.614
 7400SOL     OW32668   2.175   0.720   3.288
 7400SOL    HW132669   2.161   0.792   3.220
 7400SOL    HW232670   2.109   0.730   3.362
 7401SOL     OW32671   2.151   7.257   1.142
 7401SOL    HW132672   2.103   7.340   1.171
 7401SOL    HW232673   2.223   7.236   1.208
 7402SOL     OW32674   4.483   3.053   3.417
 7402SOL    HW132675   4.396   3.005   3.407
 7402SOL    HW232676   4.547   3.018   3.349
 7403SOL     OW32677   0.271   9.749   2.915
 7403SOL    HW132678   0.203   9.820   2.937
 7403SOL    HW232679   0.344   9.788   2.861
 7404SOL     OW32680   6.490   9.625   1.883
 7404SOL    HW132681   6.500   9.698   1.951
 7404SOL    HW232682   6.491   9.665   1.792
 7405SOL     OW32683   6.000   9.856   1.783
 7405SOL    HW132684   6.049   9.771   1.767
 7405SOL    HW232685   6.046   9.931   1.737
 7406SOL     OW32686   6.351   7.638   2.381
 7406SOL    HW132687   6.313   7.720   2.338
 7406SOL    HW232688   6.279   7.569   2.390
 7407SOL     OW32689   7.946   5.719   3.247
 7407SOL    HW132690   7.927   5.689   3.340
 7407SOL    HW232691   8.038   5.690   3.220
 7408SOL     OW32692   8.116   1.758   0.552
 7408SOL    HW132693   8.213   1.739   0.565
 7408SOL    HW232694   8.066   1.672   0.541
 7409SOL     OW32695   4.611   1.628   1.353
 7409SOL    HW132696   4.649   1.720   1.365
 7409SOL    HW232697   4.574   1.619   1.261
 7410SOL     OW32698   9.687   9.243   2.261
 7410SOL    HW132699   9.671   9.338   2.286
 7410SOL    HW232700   9.785   9.223   2.266
 7411SOL     OW32701   3.729   2.105   1.423
 7411SOL    HW132702   3.795   2.079   1.353
 7411SOL    HW232703   3.773   2.166   1.489
 7412SOL     OW32704   4.245   2.182   1.939
 7412SOL    HW132705   4.185   2.262   1.948
 7412SOL    HW232706   4.206   2.106   1.990
 7413SOL     OW32707   1.220   7.058   3.451
 7413SOL    HW132708   1.281   6.985   3.417
 7413SOL    HW232709   1.223   7.136   3.388
 7414SOL     OW32710   8.383   2.465   0.358
 7414SOL    HW132711   8.457   2.425   0.304
 7414SOL    HW232712   8.320   2.393   0.388
 7415SOL     OW32713   1.109   4.207   1.154
 7415SOL    HW132714   1.122   4.273   1.080
 7415SOL    HW232715   1.146   4.245   1.239
 7416SOL     OW32716   3.341   8.662   0.079
 7416SOL    HW132717   3.246   8.633   0.061
 7416SOL    HW232718   3.401   8.622   0.009
 7417SOL     OW32719   8.661   0.327   0.515
 7417SOL    HW132720   8.743   0.286   0.556
 7417SOL    HW232721   8.586   0.325   0.581
 7418SOL     OW32722   0.229   1.275   0.890
 7418SOL    HW132723   0.162   1.266   0.964
 7418SOL    HW232724   0.310   1.221   0.911
 7419SOL     OW32725   2.966   9.355   0.289
 7419SOL    HW132726   2.988   9.378   0.195
 7419SOL    HW232727   2.910   9.427   0.329
 7420SOL     OW32728   2.038   0.649   1.000
 7420SOL    HW132729   2.013   0.641   1.096
 7420SOL    HW232730   2.100   0.726   0.987
 7421SOL     OW32731   0.612   6.410   3.532
 7421SOL    HW132732   0.600   6.366   3.443
 7421SOL    HW232733   0.526   6.454   3.559
 7422SOL     OW32734   9.107   4.424   2.464
 7422SOL    HW132735   9.038   4.456   2.399
 7422SOL    HW232736   9.064   4.361   2.529
 7423SOL     OW32737   0.588   3.965   2.173
 7423SOL    HW132738   0.513   4.016   2.217
 7423SOL    HW232739   0.660   4.029   2.146
 7424SOL     OW32740   9.407   2.531   1.159
 7424SOL    HW132741   9.317   2.530   1.203
 7424SOL    HW232742   9.398   2.501   1.064
 7425SOL     OW32743   9.298   9.592   2.989
 7425SOL    HW132744   9.338   9.507   2.956
 7425SOL    HW232745   9.371   9.655   3.017
 7426SOL     OW32746   1.170   8.281   0.157
 7426SOL    HW132747   1.098   8.247   0.096
 7426SOL    HW232748   1.154   8.378   0.175
 7427SOL     OW32749   2.617   7.333   2.630
 7427SOL    HW132750   2.664   7.401   2.573
 7427SOL    HW232751   2.550   7.285   2.575
 7428SOL     OW32752   8.253   0.383   2.534
 7428SOL    HW132753   8.304   0.441   2.596
 7428SOL    HW232754   8.157   0.382   2.561
 7429SOL     OW32755   7.414   0.372   1.311
 7429SOL    HW132756   7.323   0.333   1.323
 7429SOL    HW232757   7.442   0.418   1.395
 7430SOL     OW32758   8.026   1.496   0.531
 7430SOL    HW132759   7.951   1.456   0.583
 7430SOL    HW232760   8.111   1.449   0.554
 7431SOL     OW32761   0.188   1.742   0.357
 7431SOL    HW132762   0.229   1.655   0.388
 7431SOL    HW232763   0.093   1.727   0.333
 7432SOL     OW32764   0.155   9.959   0.994
 7432SOL    HW132765   0.166   0.022   1.071
 7432SOL    HW232766   0.077   9.899   1.010
 7433SOL     OW32767   0.733   4.244   1.102
 7433SOL    HW132768   0.780   4.312   1.044
 7433SOL    HW232769   0.794   4.213   1.174
 7434SOL     OW32770   0.496   5.572   2.462
 7434SOL    HW132771   0.592   5.568   2.437
 7434SOL    HW232772   0.439   5.564   2.380
 7435SOL     OW32773   3.923   6.879   2.725
 7435SOL    HW132774   3.937   6.879   2.626
 7435SOL    HW232775   4.011   6.864   2.771
 7436SOL     OW32776   1.475   1.841   2.523
 7436SOL    HW132777   1.432   1.833   2.433
 7436SOL    HW232778   1.537   1.764   2.537
 7437SOL     OW32779   3.626   9.565   0.551
 7437SOL    HW132780   3.722   9.574   0.578
 7437SOL    HW232781   3.573   9.639   0.591
 7438SOL     OW32782   8.936   7.206   3.174
 7438SOL    HW132783   8.862   7.213   3.108
 7438SOL    HW232784   9.024   7.222   3.128
 7439SOL     OW32785   4.426   6.851   3.364
 7439SOL    HW132786   4.511   6.811   3.328
 7439SOL    HW232787   4.417   6.827   3.461
 7440SOL     OW32788   0.406   5.283   0.517
 7440SOL    HW132789   0.490   5.230   0.506
 7440SOL    HW232790   0.405   5.324   0.608
 7441SOL     OW32791   0.920   4.403   3.342
 7441SOL    HW132792   0.883   4.322   3.387
 7441SOL    HW232793   0.984   4.449   3.404
 7442SOL     OW32794   1.371   2.130   2.260
 7442SOL    HW132795   1.423   2.077   2.193
 7442SOL    HW232796   1.423   2.134   2.346
 7443SOL     OW32797   2.935   0.822   0.645
 7443SOL    HW132798   2.936   0.906   0.698
 7443SOL    HW232799   2.976   0.838   0.555
 7444SOL     OW32800   3.178   3.992   2.818
 7444SOL    HW132801   3.266   4.006   2.864
 7444SOL    HW232802   3.137   4.081   2.798
 7445SOL     OW32803   2.278   6.842   2.713
 7445SOL    HW132804   2.353   6.847   2.647
 7445SOL    HW232805   2.258   6.933   2.748
 7446SOL     OW32806   3.660   4.214   0.282
 7446SOL    HW132807   3.655   4.313   0.294
 7446SOL    HW232808   3.571   4.174   0.302
 7447SOL     OW32809   8.194   5.580   2.953
 7447SOL    HW132810   8.210   5.591   3.051
 7447SOL    HW232811   8.096   5.575   2.936
 7448SOL     OW32812   1.157   7.136   2.979
 7448SOL    HW132813   1.083   7.133   3.046
 7448SOL    HW232814   1.217   7.057   2.992
 7449SOL     OW32815   9.858   0.719   0.635
 7449SOL    HW132816   9.866   0.684   0.728
 7449SOL    HW232817   9.874   0.818   0.635
 7450SOL     OW32818   7.313   1.005   2.772
 7450SOL    HW132819   7.273   0.971   2.687
 7450SOL    HW232820   7.377   0.938   2.809
 7451SOL     OW32821   8.995   2.196   3.515
 7451SOL    HW132822   9.081   2.164   3.474
 7451SOL    HW232823   8.956   2.123   3.571
 7452SOL     OW32824   1.292   8.247   1.782
 7452SOL    HW132825   1.318   8.294   1.698
 7452SOL    HW232826   1.253   8.312   1.846
 7453SOL     OW32827   2.974   8.181   3.247
 7453SOL    HW132828   2.885   8.174   3.290
 7453SOL    HW232829   3.042   8.131   3.301
 7454SOL     OW32830   0.003   4.925   1.113
 7454SOL    HW132831   9.993   4.830   1.140
 7454SOL    HW232832   0.001   4.984   1.194
 7455SOL     OW32833   4.766   9.926   2.830
 7455SOL    HW132834   4.705   9.862   2.878
 7455SOL    HW232835   4.838   9.957   2.892
 7456SOL     OW32836   0.428   3.777   0.646
 7456SOL    HW132837   0.428   3.698   0.584
 7456SOL    HW232838   0.521   3.794   0.677
 7457SOL     OW32839   1.138   9.902   2.777
 7457SOL    HW132840   1.059   9.932   2.723
 7457SOL    HW232841   1.221   9.941   2.738
 7458SOL     OW32842   5.525   0.259   2.899
 7458SOL    HW132843   5.600   0.325   2.908
 7458SOL    HW232844   5.497   0.253   2.804
 7459SOL     OW32845   4.238   2.926   3.387
 7459SOL    HW132846   4.214   2.966   3.475
 7459SOL    HW232847   4.207   2.831   3.384
 7460SOL     OW32848   8.136   5.651   2.053
 7460SOL    HW132849   8.123   5.569   2.108
 7460SOL    HW232850   8.080   5.645   1.970
 7461SOL     OW32851   8.743   1.058   0.133
 7461SOL    HW132852   8.708   1.036   0.042
 7461SOL    HW232853   8.840   1.034   0.138
 7462SOL     OW32854   6.947   7.982   3.169
 7462SOL    HW132855   7.038   7.954   3.140
 7462SOL    HW232856   6.882   7.908   3.149
 7463SOL     OW32857   3.965   3.120   1.062
 7463SOL    HW132858   4.031   3.169   1.119
 7463SOL    HW232859   3.948   3.172   0.979
 7464SOL     OW32860   9.199   8.929   1.179
 7464SOL    HW132861   9.298   8.941   1.182
 7464SOL    HW232862   9.171   8.864   1.250
 7465SOL     OW32863   0.144   2.360   2.014
 7465SOL    HW132864   0.100   2.288   1.961
 7465SOL    HW232865   0.242   2.363   1.992
 7466SOL     OW32866   1.781   0.241   3.325
 7466SOL    HW132867   1.774   0.160   3.266
 7466SOL    HW232868   1.781   0.212   3.421
 7467SOL     OW32869   9.659   1.733   1.444
 7467SOL    HW132870   9.727   1.795   1.484
 7467SOL    HW232871   9.573   1.740   1.494
 7468SOL     OW32872   3.031   0.903   0.400
 7468SOL    HW132873   3.121   0.870   0.372
 7468SOL    HW232874   3.020   0.999   0.372
 7469SOL     OW32875   5.053   2.655   2.527
 7469SOL    HW132876   5.025   2.559   2.518
 7469SOL    HW232877   5.041   2.702   2.440
 7470SOL     OW32878   7.739   2.553   1.320
 7470SOL    HW132879   7.826   2.574   1.366
 7470SOL    HW232880   7.758   2.510   1.232
 7471SOL     OW32881   3.042   7.298   2.017
 7471SOL    HW132882   3.035   7.360   2.095
 7471SOL    HW232883   3.011   7.207   2.044
 7472SOL     OW32884   7.920   2.326   0.176
 7472SOL    HW132885   7.899   2.241   0.129
 7472SOL    HW232886   7.932   2.309   0.274
 7473SOL     OW32887   0.708   9.634   2.932
 7473SOL    HW132888   0.798   9.591   2.928
 7473SOL    HW232889   0.662   9.608   3.017
 7474SOL     OW32890   5.132   9.586   3.068
 7474SOL    HW132891   5.107   9.516   3.134
 7474SOL    HW232892   5.209   9.555   3.013
 7475SOL     OW32893   7.804   0.212   0.308
 7475SOL    HW132894   7.752   0.297   0.321
 7475SOL    HW232895   7.776   0.145   0.378
 7476SOL     OW32896   8.325   3.658   2.976
 7476SOL    HW132897   8.418   3.668   2.942
 7476SOL    HW232898   8.265   3.630   2.902
 7477SOL     OW32899   0.798   1.663   2.675
 7477SOL    HW132900   0.704   1.686   2.700
 7477SOL    HW232901   0.835   1.597   2.741
 7478SOL     OW32902   1.240   7.990   1.708
 7478SOL    HW132903   1.316   7.959   1.650
 7478SOL    HW232904   1.254   8.085   1.735
 7479SOL     OW32905   0.207   3.923   3.574
 7479SOL    HW132906   0.290   3.876   3.543
 7479SOL    HW232907   0.129   3.861   3.568
 7480SOL     OW32908   4.265   3.831   1.051
 7480SOL    HW132909   4.286   3.751   1.109
 7480SOL    HW232910   4.315   3.911   1.085
 7481SOL     OW32911   0.597   4.574   2.793
 7481SOL    HW132912   0.582   4.514   2.714
 7481SOL    HW232913   0.560   4.664   2.774
 7482SOL     OW32914   2.140   8.650   3.468
 7482SOL    HW132915   2.104   8.576   3.526
 7482SOL    HW232916   2.067   8.715   3.447
 7483SOL     OW32917   4.363   0.080   2.816
 7483SOL    HW132918   4.311   0.141   2.876
 7483SOL    HW232919   4.367   9.989   2.857
 7484SOL     OW32920   8.513   4.904   3.121
 7484SOL    HW132921   8.552   4.826   3.071
 7484SOL    HW232922   8.491   4.977   3.057
 7485SOL     OW32923   2.805   7.593   2.363
 7485SOL    HW132924   2.877   7.657   2.336
 7485SOL    HW232925   2.824   7.503   2.324
 7486SOL     OW32926   3.607   8.358   1.675
 7486SOL    HW132927   3.522   8.401   1.702
 7486SOL    HW232928   3.662   8.338   1.756
 7487SOL     OW32929   7.049   8.990   2.600
 7487SOL    HW132930   7.114   8.940   2.656
 7487SOL    HW232931   6.976   8.929   2.569
 7488SOL     OW32932   8.226   7.036   1.824
 7488SOL    HW132933   8.255   7.109   1.886
 7488SOL    HW232934   8.288   7.034   1.746
 7489SOL     OW32935   9.187   5.769   0.578
 7489SOL    HW132936   9.247   5.785   0.657
 7489SOL    HW232937   9.122   5.697   0.600
 7490SOL     OW32938   0.069   9.022   0.375
 7490SOL    HW132939   0.169   9.012   0.380
 7490SOL    HW232940   0.042   9.040   0.281
 7491SOL     OW32941   0.696   0.368   3.173
 7491SOL    HW132942   0.793   0.350   3.188
 7491SOL    HW232943   0.661   0.426   3.246
 7492SOL     OW32944   3.069   9.848   2.149
 7492SOL    HW132945   2.986   9.870   2.201
 7492SOL    HW232946   3.089   9.751   2.160
 7493SOL     OW32947   0.110   1.107   0.196
 7493SOL    HW132948   0.024   1.151   0.222
 7493SOL    HW232949   0.110   1.012   0.227
 7494SOL     OW32950   1.642   1.637   0.769
 7494SOL    HW132951   1.582   1.573   0.721
 7494SOL    HW232952   1.587   1.700   0.823
 7495SOL     OW32953   4.023   3.230   3.495
 7495SOL    HW132954   4.006   3.316   3.544
 7495SOL    HW232955   4.100   3.183   3.536
 7496SOL     OW32956   1.011   0.470   0.264
 7496SOL    HW132957   1.106   0.501   0.272
 7496SOL    HW232958   0.964   0.527   0.196
 7497SOL     OW32959   7.177   8.921   1.800
 7497SOL    HW132960   7.137   9.003   1.760
 7497SOL    HW232961   7.112   8.881   1.865
 7498SOL     OW32962   8.687   4.089   2.050
 7498SOL    HW132963   8.624   4.137   2.111
 7498SOL    HW232964   8.735   4.156   1.993
 7499SOL     OW32965   9.019   0.722   3.594
 7499SOL    HW132966   9.000   0.819   3.580
 7499SOL    HW232967   8.994   0.671   3.511
 7500SOL     OW32968   0.089   7.475   2.324
 7500SOL    HW132969   0.000   7.500   2.286
 7500SOL    HW232970   0.076   7.437   2.416
 7501SOL     OW32971   7.488   7.680   2.922
 7501SOL    HW132972   7.432   7.634   2.853
 7501SOL    HW232973   7.478   7.634   3.010
 7502SOL     OW32974   0.831   5.365   1.540
 7502SOL    HW132975   0.800   5.293   1.601
 7502SOL    HW232976   0.858   5.326   1.452
 7503SOL     OW32977   3.172   8.390   0.241
 7503SOL    HW132978   3.258   8.420   0.284
 7503SOL    HW232979   3.147   8.454   0.169
 7504SOL     OW32980   9.041   0.934   2.255
 7504SOL    HW132981   9.076   0.934   2.348
 7504SOL    HW232982   9.039   1.028   2.220
 7505SOL     OW32983   9.021   3.857   0.552
 7505SOL    HW132984   9.020   3.774   0.496
 7505SOL    HW232985   8.998   3.936   0.495
 7506SOL     OW32986   3.788   9.673   1.248
 7506SOL    HW132987   3.716   9.703   1.186
 7506SOL    HW232988   3.748   9.633   1.331
 7507SOL     OW32989   3.925   8.763   0.237
 7507SOL    HW132990   4.006   8.789   0.185
 7507SOL    HW232991   3.951   8.707   0.315
 7508SOL     OW32992   1.729   1.290   0.321
 7508SOL    HW132993   1.741   1.273   0.419
 7508SOL    HW232994   1.700   1.206   0.276
 7509SOL     OW32995   2.431   6.274   1.442
 7509SOL    HW132996   2.384   6.337   1.381
 7509SOL    HW232997   2.366   6.234   1.507
 7510SOL     OW32998   8.038   2.877   2.143
 7510SOL    HW132999   8.072   2.815   2.214
 7510SOL    HW233000   8.075   2.968   2.158
 7511SOL     OW33001   9.195   9.011   0.108
 7511SOL    HW133002   9.158   9.102   0.087
 7511SOL    HW233003   9.124   8.942   0.093
 7512SOL     OW33004   4.420   4.239   1.826
 7512SOL    HW133005   4.440   4.246   1.728
 7512SOL    HW233006   4.415   4.331   1.865
 7513SOL     OW33007   4.969   8.355   2.717
 7513SOL    HW133008   4.885   8.403   2.692
 7513SOL    HW233009   4.949   8.259   2.737
 7514SOL     OW33010   2.218   8.241   2.574
 7514SOL    HW133011   2.166   8.287   2.501
 7514SOL    HW233012   2.163   8.239   2.657
 7515SOL     OW33013   1.626   6.824   1.549
 7515SOL    HW133014   1.708   6.873   1.580
 7515SOL    HW233015   1.567   6.887   1.498
 7516SOL     OW33016   8.989   5.469   2.233
 7516SOL    HW133017   8.907   5.474   2.291
 7516SOL    HW233018   8.963   5.477   2.137
 7517SOL     OW33019   1.444   0.017   0.761
 7517SOL    HW133020   1.371   9.952   0.738
 7517SOL    HW233021   1.421   0.107   0.725
 7518SOL     OW33022   9.305   5.262   0.804
 7518SOL    HW133023   9.356   5.252   0.890
 7518SOL    HW233024   9.357   5.320   0.741
 7519SOL     OW33025   1.157   8.503   3.322
 7519SOL    HW133026   1.226   8.467   3.259
 7519SOL    HW233027   1.066   8.494   3.280
 7520SOL     OW33028   8.734   2.688   1.535
 7520SOL    HW133029   8.751   2.689   1.634
 7520SOL    HW233030   8.801   2.745   1.489
 7521SOL     OW33031   8.027   4.689   0.694
 7521SOL    HW133032   8.025   4.592   0.718
 7521SOL    HW233033   8.120   4.715   0.667
 7522SOL     OW33034   0.606   0.881   1.756
 7522SOL    HW133035   0.625   0.934   1.839
 7522SOL    HW233036   0.660   0.797   1.757
 7523SOL     OW33037   8.854   4.989   1.740
 7523SOL    HW133038   8.802   5.005   1.655
 7523SOL    HW233039   8.921   5.062   1.752
 7524SOL     OW33040   3.359   5.378   0.149
 7524SOL    HW133041   3.413   5.327   0.216
 7524SOL    HW233042   3.347   5.472   0.181
 7525SOL     OW33043   3.238   0.287   1.113
 7525SOL    HW133044   3.244   0.210   1.050
 7525SOL    HW233045   3.143   0.298   1.143
 7526SOL     OW33046   6.169   8.387   2.175
 7526SOL    HW133047   6.240   8.370   2.106
 7526SOL    HW233048   6.097   8.442   2.135
 7527SOL     OW33049   3.567   4.534   1.983
 7527SOL    HW133050   3.533   4.534   2.076
 7527SOL    HW233051   3.623   4.615   1.967
 7528SOL     OW33052   8.723   4.757   2.718
 7528SOL    HW133053   8.687   4.741   2.811
 7528SOL    HW233054   8.697   4.849   2.688
 7529SOL     OW33055   4.461   8.980   1.394
 7529SOL    HW133056   4.467   9.025   1.305
 7529SOL    HW233057   4.553   8.953   1.423
 7530SOL     OW33058   0.486   9.753   1.381
 7530SOL    HW133059   0.444   9.804   1.456
 7530SOL    HW233060   0.538   9.816   1.323
 7531SOL     OW33061   3.537   4.776   2.234
 7531SOL    HW133062   3.636   4.766   2.245
 7531SOL    HW233063   3.517   4.826   2.150
 7532SOL     OW33064   8.094   3.422   0.196
 7532SOL    HW133065   8.168   3.478   0.158
 7532SOL    HW233066   8.026   3.482   0.238
 7533SOL     OW33067   1.244   8.151   0.975
 7533SOL    HW133068   1.203   8.236   1.008
 7533SOL    HW233069   1.181   8.075   0.988
 7534SOL     OW33070   4.032   3.383   1.562
 7534SOL    HW133071   4.052   3.390   1.660
 7534SOL    HW233072   4.060   3.294   1.528
 7535SOL     OW33073   4.353   7.819   1.729
 7535SOL    HW133074   4.355   7.855   1.822
 7535SOL    HW233075   4.405   7.734   1.725
 7536SOL     OW33076   5.290   9.654   1.876
 7536SOL    HW133077   5.200   9.620   1.849
 7536SOL    HW233078   5.283   9.751   1.901
 7537SOL     OW33079   0.618   1.897   0.382
 7537SOL    HW133080   0.639   1.994   0.364
 7537SOL    HW233081   0.621   1.880   0.480
 7538SOL     OW33082   9.176   5.242   2.940
 7538SOL    HW133083   9.124   5.322   2.968
 7538SOL    HW233084   9.221   5.259   2.853
 7539SOL     OW33085   3.704   2.606   0.372
 7539SOL    HW133086   3.737   2.700   0.377
 7539SOL    HW233087   3.713   2.563   0.462
 7540SOL     OW33088   7.452   0.097   3.763
 7540SOL    HW133089   7.508   0.180   3.758
 7540SOL    HW233090   7.512   0.018   3.779
 7541SOL     OW33091   9.292   3.143   1.158
 7541SOL    HW133092   9.210   3.085   1.158
 7541SOL    HW233093   9.270   3.230   1.115
 7542SOL     OW33094   9.925   6.377   2.509
 7542SOL    HW133095   9.835   6.356   2.546
 7542SOL    HW233096   9.975   6.435   2.574
 7543SOL     OW33097   7.756   8.688   3.126
 7543SOL    HW133098   7.835   8.630   3.140
 7543SOL    HW233099   7.679   8.634   3.091
 7544SOL     OW33100   1.156   3.564   1.998
 7544SOL    HW133101   1.170   3.621   2.080
 7544SOL    HW233102   1.226   3.586   1.930
 7545SOL     OW33103   4.440   8.050   0.194
 7545SOL    HW133104   4.492   8.061   0.279
 7545SOL    HW233105   4.375   8.125   0.184
 7546SOL     OW33106   8.226   5.934   3.112
 7546SOL    HW133107   8.273   5.889   3.187
 7546SOL    HW233108   8.141   5.976   3.145
 7547SOL     OW33109   0.747   0.250   2.046
 7547SOL    HW133110   0.674   0.247   1.978
 7547SOL    HW233111   0.812   0.176   2.028
 7548SOL     OW33112   7.630   9.801   1.316
 7548SOL    HW133113   7.562   9.739   1.277
 7548SOL    HW233114   7.686   9.752   1.383
 7549SOL     OW33115   0.420   3.179   3.631
 7549SOL    HW133116   0.478   3.105   3.666
 7549SOL    HW233117   0.359   3.142   3.561
 7550SOL     OW33118   5.573   9.090   3.415
 7550SOL    HW133119   5.538   9.001   3.386
 7550SOL    HW233120   5.541   9.161   3.353
 7551SOL     OW33121   8.794   8.356   2.551
 7551SOL    HW133122   8.804   8.363   2.452
 7551SOL    HW233123   8.697   8.343   2.574
 7552SOL     OW33124   4.808   1.571   2.475
 7552SOL    HW133125   4.813   1.603   2.570
 7552SOL    HW233126   4.884   1.609   2.422
 7553SOL     OW33127   0.745   0.499   2.776
 7553SOL    HW133128   0.841   0.523   2.761
 7553SOL    HW233129   0.713   0.540   2.862
 7554SOL     OW33130   3.435   9.557   2.161
 7554SOL    HW133131   3.478   9.647   2.150
 7554SOL    HW233132   3.497   9.487   2.125
 7555SOL     OW33133   2.152   0.684   2.453
 7555SOL    HW133134   2.100   0.599   2.443
 7555SOL    HW233135   2.129   0.728   2.540
 7556SOL     OW33136   5.114   2.727   1.928
 7556SOL    HW133137   5.134   2.824   1.933
 7556SOL    HW233138   5.164   2.686   1.852
 7557SOL     OW33139   2.170   9.446   1.981
 7557SOL    HW133140   2.241   9.406   2.038
 7557SOL    HW233141   2.089   9.388   1.983
 7558SOL     OW33142   1.533   1.989   2.770
 7558SOL    HW133143   1.630   2.004   2.787
 7558SOL    HW233144   1.522   1.932   2.688
 7559SOL     OW33145   2.893   6.355   1.515
 7559SOL    HW133146   2.910   6.257   1.524
 7559SOL    HW233147   2.912   6.401   1.601
 7560SOL     OW33148   3.372   8.654   2.103
 7560SOL    HW133149   3.286   8.644   2.053
 7560SOL    HW233150   3.380   8.580   2.170
 7561SOL     OW33151   2.304   4.912   1.470
 7561SOL    HW133152   2.228   4.933   1.409
 7561SOL    HW233153   2.346   4.998   1.501
 7562SOL     OW33154   9.428   4.129   1.033
 7562SOL    HW133155   9.439   4.125   0.934
 7562SOL    HW233156   9.459   4.043   1.074
 7563SOL     OW33157   2.204   8.291   3.142
 7563SOL    HW133158   2.141   8.329   3.074
 7563SOL    HW233159   2.241   8.366   3.197
 7564SOL     OW33160   9.228   8.574   1.170
 7564SOL    HW133161   9.284   8.531   1.241
 7564SOL    HW233162   9.135   8.538   1.174
 7565SOL     OW33163   8.466   2.418   2.167
 7565SOL    HW133164   8.412   2.401   2.250
 7565SOL    HW233165   8.561   2.390   2.184
 7566SOL     OW33166   1.607   9.348   1.666
 7566SOL    HW133167   1.695   9.302   1.659
 7566SOL    HW233168   1.621   9.447   1.670
 7567SOL     OW33169   5.126   2.373   1.668
 7567SOL    HW133170   5.027   2.392   1.668
 7567SOL    HW233171   5.145   2.294   1.726
 7568SOL     OW33172   3.238   4.325   2.997
 7568SOL    HW133173   3.331   4.299   3.025
 7568SOL    HW233174   3.215   4.414   3.036
 7569SOL     OW33175   6.023   8.928   3.642
 7569SOL    HW133176   5.946   8.985   3.613
 7569SOL    HW233177   5.991   8.836   3.662
 7570SOL     OW33178   1.966   9.671   0.793
 7570SOL    HW133179   1.937   9.737   0.862
 7570SOL    HW233180   1.991   9.585   0.838
 7571SOL     OW33181   1.334   9.665   1.721
 7571SOL    HW133182   1.310   9.726   1.796
 7571SOL    HW233183   1.266   9.592   1.713
 7572SOL     OW33184   8.145   9.852   2.529
 7572SOL    HW133185   8.188   9.821   2.613
 7572SOL    HW233186   8.195   9.815   2.450
 7573SOL     OW33187   0.811   5.619   1.831
 7573SOL    HW133188   0.848   5.706   1.864
 7573SOL    HW233189   0.712   5.619   1.842
 7574SOL     OW33190   0.999   3.786   2.766
 7574SOL    HW133191   0.931   3.722   2.730
 7574SOL    HW233192   0.974   3.879   2.740
 7575SOL     OW33193   7.436   7.674   3.402
 7575SOL    HW133194   7.420   7.770   3.424
 7575SOL    HW233195   7.350   7.624   3.405
 7576SOL     OW33196   2.604   1.366   1.658
 7576SOL    HW133197   2.658   1.449   1.668
 7576SOL    HW233198   2.511   1.389   1.627
 7577SOL     OW33199   3.493   9.441   3.077
 7577SOL    HW133200   3.421   9.372   3.072
 7577SOL    HW233201   3.556   9.429   3.000
 7578SOL     OW33202   9.113   3.511   3.170
 7578SOL    HW133203   9.194   3.499   3.227
 7578SOL    HW233204   9.081   3.605   3.176
 7579SOL     OW33205   9.235   4.363   2.919
 7579SOL    HW133206   9.292   4.353   2.837
 7579SOL    HW233207   9.139   4.348   2.894
 7580SOL     OW33208   2.803   2.505   2.978
 7580SOL    HW133209   2.871   2.469   2.915
 7580SOL    HW233210   2.779   2.598   2.951
 7581SOL     OW33211   7.885   1.328   2.584
 7581SOL    HW133212   7.943   1.372   2.651
 7581SOL    HW233213   7.817   1.393   2.550
 7582SOL     OW33214   7.698   0.035   3.412
 7582SOL    HW133215   7.653   9.994   3.332
 7582SOL    HW233216   7.642   0.110   3.446
 7583SOL     OW33217   4.197   8.852   1.060
 7583SOL    HW133218   4.187   8.950   1.050
 7583SOL    HW233219   4.236   8.831   1.150
 7584SOL     OW33220   1.268   0.497   1.658
 7584SOL    HW133221   1.323   0.479   1.739
 7584SOL    HW233222   1.328   0.509   1.579
 7585SOL     OW33223   8.071   9.587   3.193
 7585SOL    HW133224   8.099   9.672   3.147
 7585SOL    HW233225   8.027   9.609   3.280
 7586SOL     OW33226   0.310   6.243   2.951
 7586SOL    HW133227   0.339   6.332   2.986
 7586SOL    HW233228   0.297   6.179   3.027
 7587SOL     OW33229   2.169   3.434   3.706
 7587SOL    HW133230   2.125   3.356   3.661
 7587SOL    HW233231   2.162   3.424   3.805
 7588SOL     OW33232   3.466   4.379   2.673
 7588SOL    HW133233   3.368   4.391   2.658
 7588SOL    HW233234   3.485   4.283   2.692
 7589SOL     OW33235   7.940   9.384   0.480
 7589SOL    HW133236   7.928   9.473   0.525
 7589SOL    HW233237   7.991   9.397   0.395
 7590SOL     OW33238   8.072   0.192   0.238
 7590SOL    HW133239   7.977   0.203   0.266
 7590SOL    HW233240   8.111   0.281   0.215
 7591SOL     OW33241   2.428   6.603   1.113
 7591SOL    HW133242   2.397   6.698   1.101
 7591SOL    HW233243   2.457   6.566   1.025
 7592SOL     OW33244   9.886   1.033   3.120
 7592SOL    HW133245   9.799   1.044   3.073
 7592SOL    HW233246   9.888   0.945   3.168
 7593SOL     OW33247   6.249   9.769   2.150
 7593SOL    HW133248   6.263   9.807   2.241
 7593SOL    HW233249   6.232   9.671   2.157
 7594SOL     OW33250   6.020   9.217   3.031
 7594SOL    HW133251   5.924   9.188   3.040
 7594SOL    HW233252   6.022   9.314   3.008
 7595SOL     OW33253   0.622   6.764   1.785
 7595SOL    HW133254   0.600   6.694   1.852
 7595SOL    HW233255   0.672   6.839   1.829
 7596SOL     OW33256   3.582   6.962   3.576
 7596SOL    HW133257   3.492   6.929   3.604
 7596SOL    HW233258   3.628   6.891   3.522
 7597SOL     OW33259   5.089   1.425   1.354
 7597SOL    HW133260   4.999   1.392   1.385
 7597SOL    HW233261   5.076   1.498   1.287
 7598SOL     OW33262   3.634   2.539   1.908
 7598SOL    HW133263   3.545   2.537   1.953
 7598SOL    HW233264   3.706   2.519   1.975
 7599SOL     OW33265   0.053   2.651   2.823
 7599SOL    HW133266   0.038   2.687   2.915
 7599SOL    HW233267   0.150   2.657   2.800
 7600SOL     OW33268   9.793   0.199   2.273
 7600SOL    HW133269   9.867   0.211   2.207
 7600SOL    HW233270   9.801   0.269   2.344
 7601SOL     OW33271   2.272   6.189   0.121
 7601SOL    HW133272   2.175   6.164   0.118
 7601SOL    HW233273   2.327   6.111   0.091
 7602SOL     OW33274   8.661   7.547   3.282
 7602SOL    HW133275   8.605   7.573   3.360
 7602SOL    HW233276   8.746   7.506   3.314
 7603SOL     OW33277   2.120   2.452   3.444
 7603SOL    HW133278   2.022   2.456   3.423
 7603SOL    HW233279   2.157   2.365   3.413
 7604SOL     OW33280   2.222   1.712   3.457
 7604SOL    HW133281   2.276   1.777   3.509
 7604SOL    HW233282   2.145   1.759   3.414
 7605SOL     OW33283   7.000   0.996   3.110
 7605SOL    HW133284   7.043   0.929   3.170
 7605SOL    HW233285   6.951   1.063   3.166
 7606SOL     OW33286   7.350   9.133   2.108
 7606SOL    HW133287   7.407   9.111   2.029
 7606SOL    HW233288   7.357   9.231   2.128
 7607SOL     OW33289   1.655   1.979   1.090
 7607SOL    HW133290   1.602   2.063   1.092
 7607SOL    HW233291   1.714   1.978   1.009
 7608SOL     OW33292   2.002   4.535   1.399
 7608SOL    HW133293   2.097   4.538   1.428
 7608SOL    HW233294   1.990   4.592   1.318
 7609SOL     OW33295   8.672   0.659   2.917
 7609SOL    HW133296   8.608   0.624   2.986
 7609SOL    HW233297   8.741   0.716   2.962
 7610SOL     OW33298   3.654   0.461   1.754
 7610SOL    HW133299   3.565   0.467   1.708
 7610SOL    HW233300   3.659   0.532   1.824
 7611SOL     OW33301   8.203   3.306   1.295
 7611SOL    HW133302   8.206   3.341   1.201
 7611SOL    HW233303   8.139   3.229   1.300
 7612SOL     OW33304   1.890   2.140   1.838
 7612SOL    HW133305   1.825   2.077   1.795
 7612SOL    HW233306   1.943   2.187   1.767
 7613SOL     OW33307   4.930   1.268   2.886
 7613SOL    HW133308   5.015   1.295   2.840
 7613SOL    HW233309   4.927   1.307   2.978
 7614SOL     OW33310   1.797   2.538   1.486
 7614SOL    HW133311   1.820   2.446   1.455
 7614SOL    HW233312   1.809   2.544   1.586
 7615SOL     OW33313   1.198   6.169   0.793
 7615SOL    HW133314   1.269   6.232   0.761
 7615SOL    HW233315   1.142   6.215   0.862
 7616SOL     OW33316   0.429   2.677   0.449
 7616SOL    HW133317   0.464   2.731   0.373
 7616SOL    HW233318   0.357   2.616   0.416
 7617SOL     OW33319   6.277   8.578   2.344
 7617SOL    HW133320   6.248   8.500   2.288
 7617SOL    HW233321   6.293   8.548   2.438
 7618SOL     OW33322   3.396   9.541   1.116
 7618SOL    HW133323   3.458   9.465   1.136
 7618SOL    HW233324   3.305   9.519   1.151
 7619SOL     OW33325   9.277   5.269   2.680
 7619SOL    HW133326   9.180   5.277   2.659
 7619SOL    HW233327   9.314   5.185   2.640
 7620SOL     OW33328   8.837   8.835   0.600
 7620SOL    HW133329   8.764   8.799   0.657
 7620SOL    HW233330   8.875   8.918   0.642
 7621SOL     OW33331   1.209   7.314   0.813
 7621SOL    HW133332   1.161   7.310   0.725
 7621SOL    HW233333   1.143   7.297   0.886
 7622SOL     OW33334   6.620   0.289   2.700
 7622SOL    HW133335   6.587   0.211   2.753
 7622SOL    HW233336   6.545   0.354   2.687
 7623SOL     OW33337   3.002   5.374   3.587
 7623SOL    HW133338   3.083   5.428   3.609
 7623SOL    HW233339   3.023   5.276   3.599
 7624SOL     OW33340   9.828   9.924   2.822
 7624SOL    HW133341   9.729   9.908   2.825
 7624SOL    HW233342   9.846   0.012   2.779
 7625SOL     OW33343   9.849   9.694   1.921
 7625SOL    HW133344   9.766   9.641   1.941
 7625SOL    HW233345   9.833   9.791   1.942
 7626SOL     OW33346   0.366   7.814   0.363
 7626SOL    HW133347   0.370   7.776   0.456
 7626SOL    HW233348   0.275   7.801   0.325
 7627SOL     OW33349   1.092   9.493   1.307
 7627SOL    HW133350   1.192   9.496   1.314
 7627SOL    HW233351   1.055   9.585   1.319
 7628SOL     OW33352   3.906   3.158   0.131
 7628SOL    HW133353   3.885   3.063   0.107
 7628SOL    HW233354   3.836   3.192   0.194
 7629SOL     OW33355   7.769   5.396   2.875
 7629SOL    HW133356   7.677   5.407   2.914
 7629SOL    HW233357   7.825   5.476   2.901
 7630SOL     OW33358   8.849   6.870   0.193
 7630SOL    HW133359   8.896   6.791   0.153
 7630SOL    HW233360   8.799   6.841   0.275
 7631SOL     OW33361   8.383   9.826   3.549
 7631SOL    HW133362   8.435   9.744   3.527
 7631SOL    HW233363   8.303   9.832   3.490
 7632SOL     OW33364   5.202   8.463   3.462
 7632SOL    HW133365   5.166   8.377   3.426
 7632SOL    HW233366   5.237   8.519   3.387
 7633SOL     OW33367   0.550   4.761   0.172
 7633SOL    HW133368   0.491   4.822   0.225
 7633SOL    HW233369   0.505   4.738   0.086
 7634SOL     OW33370   3.642   8.676   1.363
 7634SOL    HW133371   3.622   8.772   1.343
 7634SOL    HW233372   3.562   8.634   1.407
 7635SOL     OW33373   8.793   2.885   0.865
 7635SOL    HW133374   8.842   2.919   0.785
 7635SOL    HW233375   8.714   2.831   0.835
 7636SOL     OW33376   4.490   9.108   1.158
 7636SOL    HW133377   4.494   9.091   1.059
 7636SOL    HW233378   4.512   9.204   1.176
 7637SOL     OW33379   6.779   9.419   3.449
 7637SOL    HW133380   6.798   9.428   3.351
 7637SOL    HW233381   6.858   9.379   3.495
 7638SOL     OW33382   4.788   0.795   3.126
 7638SOL    HW133383   4.876   0.759   3.098
 7638SOL    HW233384   4.735   0.821   3.045
 7639SOL     OW33385   2.810   1.180   1.157
 7639SOL    HW133386   2.775   1.149   1.068
 7639SOL    HW233387   2.779   1.274   1.173
 7640SOL     OW33388   2.121   8.853   0.351
 7640SOL    HW133389   2.103   8.940   0.306
 7640SOL    HW233390   2.126   8.868   0.450
 7641SOL     OW33391   9.610   1.137   3.557
 7641SOL    HW133392   9.677   1.082   3.607
 7641SOL    HW233393   9.657   1.211   3.509
 7642SOL     OW33394   1.185   3.801   3.166
 7642SOL    HW133395   1.148   3.893   3.182
 7642SOL    HW233396   1.278   3.809   3.131
 7643SOL     OW33397   7.360   9.303   0.583
 7643SOL    HW133398   7.439   9.252   0.549
 7643SOL    HW233399   7.311   9.345   0.507
 7644SOL     OW33400   7.993   4.888   0.319
 7644SOL    HW133401   8.012   4.935   0.405
 7644SOL    HW233402   8.026   4.943   0.242
 7645SOL     OW33403   5.323   3.135   0.794
 7645SOL    HW133404   5.390   3.155   0.865
 7645SOL    HW233405   5.365   3.149   0.704
 7646SOL     OW33406   8.263   4.635   1.494
 7646SOL    HW133407   8.258   4.715   1.554
 7646SOL    HW233408   8.358   4.613   1.474
 7647SOL     OW33409   0.564   7.239   3.393
 7647SOL    HW133410   0.595   7.170   3.328
 7647SOL    HW233411   0.556   7.327   3.346
 7648SOL     OW33412   4.272   3.849   0.382
 7648SOL    HW133413   4.253   3.817   0.289
 7648SOL    HW233414   4.186   3.860   0.432
 7649SOL     OW33415   1.484   4.005   0.386
 7649SOL    HW133416   1.567   3.964   0.426
 7649SOL    HW233417   1.421   3.932   0.359
 7650SOL     OW33418   8.858   9.197   3.666
 7650SOL    HW133419   8.863   9.206   3.766
 7650SOL    HW233420   8.923   9.127   3.636
 7651SOL     OW33421   8.912   4.094   0.145
 7651SOL    HW133422   8.972   4.035   0.092
 7651SOL    HW233423   8.829   4.114   0.092
 7652SOL     OW33424   8.189   9.459   1.117
 7652SOL    HW133425   8.124   9.533   1.101
 7652SOL    HW233426   8.142   9.371   1.105
 7653SOL     OW33427   0.243   2.490   0.372
 7653SOL    HW133428   0.159   2.488   0.427
 7653SOL    HW233429   0.222   2.462   0.279
 7654SOL     OW33430   2.741   0.641   2.091
 7654SOL    HW133431   2.650   0.673   2.064
 7654SOL    HW233432   2.764   0.559   2.040
 7655SOL     OW33433   2.338   8.584   1.069
 7655SOL    HW133434   2.266   8.648   1.041
 7655SOL    HW233435   2.363   8.525   0.992
 7656SOL     OW33436   8.300   0.886   3.024
 7656SOL    HW133437   8.385   0.882   2.972
 7656SOL    HW233438   8.320   0.881   3.122
 7657SOL     OW33439   1.060   0.627   1.811
 7657SOL    HW133440   1.066   0.610   1.909
 7657SOL    HW233441   1.118   0.562   1.762
 7658SOL     OW33442   9.877   1.925   0.917
 7658SOL    HW133443   9.886   1.917   1.016
 7658SOL    HW233444   9.898   2.019   0.890
 7659SOL     OW33445   8.822   3.562   1.077
 7659SOL    HW133446   8.812   3.469   1.113
 7659SOL    HW233447   8.892   3.610   1.130
 7660SOL     OW33448   9.080   0.726   0.105
 7660SOL    HW133449   9.161   0.668   0.096
 7660SOL    HW233450   9.016   0.684   0.170
 7661SOL     OW33451   5.323   7.933   1.793
 7661SOL    HW133452   5.298   7.883   1.875
 7661SOL    HW233453   5.320   8.031   1.812
 7662SOL     OW33454   9.772   6.818   3.374
 7662SOL    HW133455   9.747   6.754   3.301
 7662SOL    HW233456   9.845   6.778   3.430
 7663SOL     OW33457   3.436   7.018   1.835
 7663SOL    HW133458   3.525   7.052   1.864
 7663SOL    HW233459   3.434   6.918   1.846
 7664SOL     OW33460   7.703   1.438   0.434
 7664SOL    HW133461   7.745   1.407   0.520
 7664SOL    HW233462   7.677   1.534   0.442
 7665SOL     OW33463   4.497   7.315   0.550
 7665SOL    HW133464   4.409   7.333   0.506
 7665SOL    HW233465   4.498   7.357   0.641
 7666SOL     OW33466   1.492   2.226   1.402
 7666SOL    HW133467   1.565   2.168   1.437
 7666SOL    HW233468   1.452   2.278   1.477
 7667SOL     OW33469   3.330   5.620   0.281
 7667SOL    HW133470   3.285   5.704   0.312
 7667SOL    HW233471   3.387   5.583   0.355
 7668SOL     OW33472   3.792   1.360   3.195
 7668SOL    HW133473   3.879   1.328   3.232
 7668SOL    HW233474   3.774   1.453   3.229
 7669SOL     OW33475   8.702   1.233   0.349
 7669SOL    HW133476   8.660   1.318   0.318
 7669SOL    HW233477   8.723   1.175   0.270
 7670SOL     OW33478   1.909   8.698   0.840
 7670SOL    HW133479   1.907   8.618   0.900
 7670SOL    HW233480   1.849   8.683   0.761
 7671SOL     OW33481   1.603   2.593   3.323
 7671SOL    HW133482   1.685   2.564   3.373
 7671SOL    HW233483   1.547   2.651   3.381
 7672SOL     OW33484   6.937   9.880   2.015
 7672SOL    HW133485   6.866   9.868   2.083
 7672SOL    HW233486   6.982   9.969   2.028
 7673SOL     OW33487   1.953   0.215   0.397
 7673SOL    HW133488   1.940   0.199   0.495
 7673SOL    HW233489   1.968   0.127   0.351
 7674SOL     OW33490   5.124   9.100   1.594
 7674SOL    HW133491   5.139   9.087   1.692
 7674SOL    HW233492   5.209   9.131   1.552
 7675SOL     OW33493   8.793   8.743   3.507
 7675SOL    HW133494   8.879   8.746   3.558
 7675SOL    HW233495   8.797   8.670   3.439
 7676SOL     OW33496   9.011   3.714   2.107
 7676SOL    HW133497   8.946   3.783   2.140
 7676SOL    HW233498   8.991   3.691   2.012
 7677SOL     OW33499   0.524   9.782   2.779
 7677SOL    HW133500   0.560   9.770   2.686
 7677SOL    HW233501   0.575   9.724   2.843
 7678SOL     OW33502   3.404   5.416   0.737
 7678SOL    HW133503   3.403   5.408   0.837
 7678SOL    HW233504   3.311   5.432   0.704
 7679SOL     OW33505   4.664   8.188   2.608
 7679SOL    HW133506   4.743   8.157   2.662
 7679SOL    HW233507   4.622   8.109   2.564
 7680SOL     OW33508   4.379   2.856   1.326
 7680SOL    HW133509   4.317   2.802   1.382
 7680SOL    HW233510   4.351   2.851   1.230
 7681SOL     OW33511   4.124   3.292   1.221
 7681SOL    HW133512   4.116   3.235   1.303
 7681SOL    HW233513   4.130   3.388   1.248
 7682SOL     OW33514   2.209   6.424   0.920
 7682SOL    HW133515   2.123   6.399   0.965
 7682SOL    HW233516   2.197   6.507   0.867
 7683SOL     OW33517   8.077   3.082   0.799
 7683SOL    HW133518   7.978   3.095   0.797
 7683SOL    HW233519   8.105   3.025   0.722
 7684SOL     OW33520   7.474   7.554   3.156
 7684SOL    HW133521   7.495   7.458   3.173
 7684SOL    HW233522   7.455   7.600   3.244
 7685SOL     OW33523   0.168   4.145   0.852
 7685SOL    HW133524   0.225   4.099   0.783
 7685SOL    HW233525   0.204   4.124   0.943
 7686SOL     OW33526   2.407   8.448   0.839
 7686SOL    HW133527   2.491   8.423   0.886
 7686SOL    HW233528   2.425   8.465   0.743
 7687SOL     OW33529   0.362   9.603   1.186
 7687SOL    HW133530   0.409   9.652   1.260
 7687SOL    HW233531   0.412   9.520   1.164
 7688SOL     OW33532   0.939   9.514   2.076
 7688SOL    HW133533   0.918   9.458   2.156
 7688SOL    HW233534   0.857   9.524   2.019
 7689SOL     OW33535   8.578   2.307   0.953
 7689SOL    HW133536   8.582   2.322   0.854
 7689SOL    HW233537   8.596   2.394   1.000
 7690SOL     OW33538   0.591   4.594   0.925
 7690SOL    HW133539   0.649   4.676   0.919
 7690SOL    HW233540   0.603   4.552   1.015
 7691SOL     OW33541   6.289   6.909   2.251
 7691SOL    HW133542   6.352   6.976   2.210
 7691SOL    HW233543   6.312   6.897   2.348
 7692SOL     OW33544   0.440   4.797   0.561
 7692SOL    HW133545   0.389   4.844   0.634
 7692SOL    HW233546   0.406   4.704   0.551
 7693SOL     OW33547   4.624   1.190   2.123
 7693SOL    HW133548   4.723   1.203   2.132
 7693SOL    HW233549   4.577   1.276   2.142
 7694SOL     OW33550   8.208   8.534   0.757
 7694SOL    HW133551   8.244   8.502   0.845
 7694SOL    HW233552   8.282   8.573   0.703
 7695SOL     OW33553   7.989   0.371   2.635
 7695SOL    HW133554   7.907   0.379   2.579
 7695SOL    HW233555   7.989   0.283   2.683
 7696SOL     OW33556   1.788   9.518   3.015
 7696SOL    HW133557   1.839   9.604   3.017
 7696SOL    HW233558   1.830   9.455   2.949
 7697SOL     OW33559   5.300   8.474   2.883
 7697SOL    HW133560   5.261   8.387   2.912
 7697SOL    HW233561   5.330   8.467   2.788
 7698SOL     OW33562   3.763   9.996   2.785
 7698SOL    HW133563   3.665   9.999   2.803
 7698SOL    HW233564   3.780   9.945   2.701
 7699SOL     OW33565   1.477   2.048   3.656
 7699SOL    HW133566   1.446   2.037   3.751
 7699SOL    HW233567   1.453   2.139   3.624
 7700SOL     OW33568   1.941   4.537   0.934
 7700SOL    HW133569   1.948   4.462   1.000
 7700SOL    HW233570   1.977   4.506   0.846
 7701SOL     OW33571   9.101   9.269   0.054
 7701SOL    HW133572   9.177   9.332   0.070
 7701SOL    HW233573   9.024   9.293   0.114
 7702SOL     OW33574   1.541   9.870   3.118
 7702SOL    HW133575   1.495   9.781   3.123
 7702SOL    HW233576   1.483   9.941   3.156
 7703SOL     OW33577   3.989   4.260   3.518
 7703SOL    HW133578   4.075   4.223   3.482
 7703SOL    HW233579   4.006   4.300   3.608
 7704SOL     OW33580   0.887   5.638   0.782
 7704SOL    HW133581   0.801   5.589   0.772
 7704SOL    HW233582   0.926   5.655   0.691
 7705SOL     OW33583   1.558   8.959   0.541
 7705SOL    HW133584   1.506   8.916   0.614
 7705SOL    HW233585   1.555   8.902   0.459
 7706SOL     OW33586   9.027   2.462   3.562
 7706SOL    HW133587   9.021   2.362   3.554
 7706SOL    HW233588   8.942   2.503   3.532
 7707SOL     OW33589   4.924   9.335   1.237
 7707SOL    HW133590   4.858   9.333   1.313
 7707SOL    HW233591   5.015   9.311   1.271
 7708SOL     OW33592   9.428   9.369   2.883
 7708SOL    HW133593   9.420   9.274   2.914
 7708SOL    HW233594   9.524   9.391   2.867
 7709SOL     OW33595   0.310   0.567   2.676
 7709SOL    HW133596   0.305   0.485   2.733
 7709SOL    HW233597   0.219   0.606   2.666
 7710SOL     OW33598   0.032   3.403   3.304
 7710SOL    HW133599   0.095   3.426   3.378
 7710SOL    HW233600   9.938   3.407   3.338
 7711SOL     OW33601   4.427   7.700   1.286
 7711SOL    HW133602   4.456   7.640   1.211
 7711SOL    HW233603   4.499   7.767   1.304
 7712SOL     OW33604   2.899   7.664   0.535
 7712SOL    HW133605   2.983   7.659   0.481
 7712SOL    HW233606   2.910   7.732   0.608
 7713SOL     OW33607   4.337   0.680   3.590
 7713SOL    HW133608   4.324   0.677   3.491
 7713SOL    HW233609   4.386   0.598   3.619
 7714SOL     OW33610   1.028   6.289   0.959
 7714SOL    HW133611   0.977   6.279   1.045
 7714SOL    HW233612   0.986   6.361   0.904
 7715SOL     OW33613   1.319   9.593   0.781
 7715SOL    HW133614   1.351   9.512   0.830
 7715SOL    HW233615   1.274   9.655   0.845
 7716SOL     OW33616   5.990   9.862   3.073
 7716SOL    HW133617   6.017   9.817   3.158
 7716SOL    HW233618   6.071   9.877   3.015
 7717SOL     OW33619   4.842   2.677   2.706
 7717SOL    HW133620   4.889   2.655   2.791
 7717SOL    HW233621   4.908   2.678   2.631
 7718SOL     OW33622   2.354   5.206   0.553
 7718SOL    HW133623   2.325   5.112   0.571
 7718SOL    HW233624   2.443   5.205   0.508
 7719SOL     OW33625   0.029   7.979   3.135
 7719SOL    HW133626   0.023   8.070   3.093
 7719SOL    HW233627   9.942   7.957   3.179
 7720SOL     OW33628   9.597   9.598   1.998
 7720SOL    HW133629   9.564   9.676   1.944
 7720SOL    HW233630   9.540   9.589   2.080
 7721SOL     OW33631   3.245   3.408   0.840
 7721SOL    HW133632   3.238   3.345   0.762
 7721SOL    HW233633   3.282   3.360   0.919
 7722SOL     OW33634   9.482   4.755   2.877
 7722SOL    HW133635   9.387   4.730   2.897
 7722SOL    HW233636   9.531   4.675   2.841
 7723SOL     OW33637   0.382   1.130   0.151
 7723SOL    HW133638   0.285   1.153   0.152
 7723SOL    HW233639   0.393   1.031   0.162
 7724SOL     OW33640   1.443   3.395   1.697
 7724SOL    HW133641   1.402   3.470   1.749
 7724SOL    HW233642   1.383   3.371   1.621
 7725SOL     OW33643   3.093   9.952   1.392
 7725SOL    HW133644   3.113   9.935   1.295
 7725SOL    HW233645   3.171   9.997   1.435
 7726SOL     OW33646   9.648   3.593   3.549
 7726SOL    HW133647   9.719   3.605   3.618
 7726SOL    HW233648   9.613   3.683   3.522
 7727SOL     OW33649   3.011   7.175   1.587
 7727SOL    HW133650   2.912   7.178   1.602
 7727SOL    HW233651   3.040   7.081   1.571
 7728SOL     OW33652   1.334   0.745   2.204
 7728SOL    HW133653   1.351   0.661   2.256
 7728SOL    HW233654   1.411   0.762   2.142
 7729SOL     OW33655   0.514   9.333   0.846
 7729SOL    HW133656   0.438   9.291   0.796
 7729SOL    HW233657   0.594   9.336   0.786
 7730SOL     OW33658   8.750   0.050   1.266
 7730SOL    HW133659   8.677   0.118   1.276
 7730SOL    HW233660   8.718   9.973   1.211
 7731SOL     OW33661   2.282   7.177   1.599
 7731SOL    HW133662   2.190   7.179   1.560
 7731SOL    HW233663   2.298   7.087   1.641
 7732SOL     OW33664   7.755   5.200   2.402
 7732SOL    HW133665   7.748   5.110   2.446
 7732SOL    HW233666   7.794   5.265   2.467
 7733SOL     OW33667   3.656   9.422   2.856
 7733SOL    HW133668   3.736   9.364   2.874
 7733SOL    HW233669   3.686   9.505   2.809
 7734SOL     OW33670   0.065   0.054   1.798
 7734SOL    HW133671   0.081   9.995   1.877
 7734SOL    HW233672   0.132   0.129   1.797
 7735SOL     OW33673   2.447   0.705   1.109
 7735SOL    HW133674   2.532   0.737   1.151
 7735SOL    HW233675   2.372   0.716   1.175
 7736SOL     OW33676   8.697   2.162   0.347
 7736SOL    HW133677   8.788   2.191   0.377
 7736SOL    HW233678   8.655   2.234   0.292
 7737SOL     OW33679   6.185   9.493   2.210
 7737SOL    HW133680   6.167   9.488   2.112
 7737SOL    HW233681   6.197   9.401   2.247
 7738SOL     OW33682   7.694   6.682   3.743
 7738SOL    HW133683   7.706   6.781   3.746
 7738SOL    HW233684   7.694   6.646   3.837
 7739SOL     OW33685   0.975   6.352   1.426
 7739SOL    HW133686   0.955   6.299   1.343
 7739SOL    HW233687   1.050   6.309   1.476
 7740SOL     OW33688   3.171   4.594   0.272
 7740SOL    HW133689   3.074   4.616   0.259
 7740SOL    HW233690   3.183   4.495   0.269
 7741SOL     OW33691   4.680   2.217   2.730
 7741SOL    HW133692   4.631   2.170   2.802
 7741SOL    HW233693   4.649   2.312   2.724
 7742SOL     OW33694   8.291   9.416   3.275
 7742SOL    HW133695   8.206   9.466   3.256
 7742SOL    HW233696   8.282   9.369   3.363
 7743SOL     OW33697   2.114   5.989   1.734
 7743SOL    HW133698   2.192   5.933   1.762
 7743SOL    HW233699   2.057   6.010   1.814
 7744SOL     OW33700   8.372   0.252   3.661
 7744SOL    HW133701   8.386   0.238   3.759
 7744SOL    HW233702   8.429   0.188   3.610
 7745SOL     OW33703   7.684   6.795   2.249
 7745SOL    HW133704   7.772   6.820   2.210
 7745SOL    HW233705   7.613   6.856   2.213
 7746SOL     OW33706   3.725   3.495   2.307
 7746SOL    HW133707   3.792   3.471   2.377
 7746SOL    HW233708   3.716   3.595   2.302
 7747SOL     OW33709   8.761   9.873   2.318
 7747SOL    HW133710   8.689   9.942   2.320
 7747SOL    HW233711   8.722   9.782   2.331
 7748SOL     OW33712   6.202   8.900   2.055
 7748SOL    HW133713   6.268   8.868   2.123
 7748SOL    HW233714   6.134   8.958   2.100
 7749SOL     OW33715   0.588   7.503   1.986
 7749SOL    HW133716   0.615   7.495   2.082
 7749SOL    HW233717   0.669   7.505   1.928
 7750SOL     OW33718   8.923   7.065   3.412
 7750SOL    HW133719   8.922   7.113   3.324
 7750SOL    HW233720   9.015   7.030   3.429
 7751SOL     OW33721   9.159   4.009   3.106
 7751SOL    HW133722   9.191   4.051   3.191
 7751SOL    HW233723   9.229   4.020   3.035
 7752SOL     OW33724   0.943   8.148   0.378
 7752SOL    HW133725   0.904   8.086   0.310
 7752SOL    HW233726   0.890   8.233   0.379
 7753SOL     OW33727   5.957   9.131   1.699
 7753SOL    HW133728   5.893   9.180   1.757
 7753SOL    HW233729   5.941   9.154   1.603
 7754SOL     OW33730   2.381   2.560   1.759
 7754SOL    HW133731   2.400   2.497   1.684
 7754SOL    HW233732   2.438   2.641   1.750
 7755SOL     OW33733   2.367   4.004   2.440
 7755SOL    HW133734   2.465   4.017   2.424
 7755SOL    HW233735   2.320   4.092   2.437
 7756SOL     OW33736   3.737   9.896   0.591
 7756SOL    HW133737   3.650   9.901   0.640
 7756SOL    HW233738   3.812   9.897   0.657
 7757SOL     OW33739   8.009   6.148   3.472
 7757SOL    HW133740   8.028   6.238   3.511
 7757SOL    HW233741   7.923   6.112   3.510
 7758SOL     OW33742   9.739   4.403   2.571
 7758SOL    HW133743   9.820   4.453   2.542
 7758SOL    HW233744   9.690   4.456   2.641
 7759SOL     OW33745   7.733   3.919   0.445
 7759SOL    HW133746   7.662   3.913   0.375
 7759SOL    HW233747   7.767   4.013   0.451
 7760SOL     OW33748   8.797   2.671   3.038
 7760SOL    HW133749   8.736   2.742   3.071
 7760SOL    HW233750   8.889   2.709   3.025
 7761SOL     OW33751   0.211   1.400   3.587
 7761SOL    HW133752   0.284   1.398   3.656
 7761SOL    HW233753   0.249   1.431   3.500
 7762SOL     OW33754   1.621   4.072   1.416
 7762SOL    HW133755   1.592   4.109   1.505
 7762SOL    HW233756   1.600   3.974   1.413
 7763SOL     OW33757   0.972   7.771   0.891
 7763SOL    HW133758   0.993   7.751   0.796
 7763SOL    HW233759   0.873   7.764   0.906
 7764SOL     OW33760   0.758   0.521   2.073
 7764SOL    HW133761   0.723   0.549   2.162
 7764SOL    HW233762   0.754   0.421   2.066
 7765SOL     OW33763   8.443   9.097   1.923
 7765SOL    HW133764   8.500   9.125   2.001
 7765SOL    HW233765   8.388   9.018   1.949
 7766SOL     OW33766   1.515   6.893   1.962
 7766SOL    HW133767   1.512   6.796   1.938
 7766SOL    HW233768   1.586   6.907   2.031
 7767SOL     OW33769   0.648   5.683   0.200
 7767SOL    HW133770   0.685   5.732   0.279
 7767SOL    HW233771   0.686   5.590   0.198
 7768SOL     OW33772   3.878   9.356   0.395
 7768SOL    HW133773   3.893   9.259   0.413
 7768SOL    HW233774   3.875   9.407   0.481
 7769SOL     OW33775   1.767   9.383   2.177
 7769SOL    HW133776   1.784   9.438   2.259
 7769SOL    HW233777   1.694   9.317   2.196
 7770SOL     OW33778   3.037   0.792   3.370
 7770SOL    HW133779   3.096   0.711   3.379
 7770SOL    HW233780   3.045   0.848   3.452
 7771SOL     OW33781   0.324   4.029   0.652
 7771SOL    HW133782   0.361   3.936   0.654
 7771SOL    HW233783   0.262   4.038   0.574
 7772SOL     OW33784   0.562   6.561   0.417
 7772SOL    HW133785   0.527   6.653   0.398
 7772SOL    HW233786   0.584   6.515   0.331
 7773SOL     OW33787   6.846   0.641   3.595
 7773SOL    HW133788   6.786   0.719   3.610
 7773SOL    HW233789   6.918   0.667   3.530
 7774SOL     OW33790   8.527   9.489   1.534
 7774SOL    HW133791   8.524   9.451   1.442
 7774SOL    HW233792   8.446   9.545   1.549
 7775SOL     OW33793   8.091   2.372   1.118
 7775SOL    HW133794   8.141   2.441   1.170
 7775SOL    HW233795   8.108   2.385   1.020
 7776SOL     OW33796   3.594   2.800   1.681
 7776SOL    HW133797   3.520   2.861   1.709
 7776SOL    HW233798   3.557   2.708   1.666
 7777SOL     OW33799   8.792   2.973   2.715
 7777SOL    HW133800   8.748   3.062   2.715
 7777SOL    HW233801   8.887   2.982   2.744
 7778SOL     OW33802   8.841   7.547   1.339
 7778SOL    HW133803   8.760   7.515   1.291
 7778SOL    HW233804   8.837   7.518   1.435
 7779SOL     OW33805   1.153   4.352   0.912
 7779SOL    HW133806   1.141   4.324   0.818
 7779SOL    HW233807   1.250   4.348   0.936
 7780SOL     OW33808   7.351   1.740   3.244
 7780SOL    HW133809   7.257   1.749   3.210
 7780SOL    HW233810   7.351   1.677   3.322
 7781SOL     OW33811   8.197   9.757   0.913
 7781SOL    HW133812   8.131   9.727   0.982
 7781SOL    HW233813   8.172   9.849   0.881
 7782SOL     OW33814   8.236   2.006   0.293
 7782SOL    HW133815   8.212   2.009   0.196
 7782SOL    HW233816   8.291   1.925   0.311
 7783SOL     OW33817   2.078   4.030   3.155
 7783SOL    HW133818   2.105   4.037   3.059
 7783SOL    HW233819   2.157   4.004   3.210
 7784SOL     OW33820   4.038   1.364   0.385
 7784SOL    HW133821   4.040   1.464   0.387
 7784SOL    HW233822   4.012   1.329   0.475
 7785SOL     OW33823   9.029   9.369   0.424
 7785SOL    HW133824   9.085   9.446   0.393
 7785SOL    HW233825   8.970   9.339   0.349
 7786SOL     OW33826   2.605   0.536   2.663
 7786SOL    HW133827   2.520   0.493   2.694
 7786SOL    HW233828   2.643   0.592   2.737
 7787SOL     OW33829   0.239   2.170   1.309
 7787SOL    HW133830   0.300   2.095   1.335
 7787SOL    HW233831   0.274   2.214   1.227
 7788SOL     OW33832   9.045   2.373   0.923
 7788SOL    HW133833   9.040   2.470   0.944
 7788SOL    HW233834   9.120   2.356   0.860
 7789SOL     OW33835   0.395   2.845   1.058
 7789SOL    HW133836   0.308   2.861   1.012
 7789SOL    HW233837   0.403   2.908   1.136
 7790SOL     OW33838   8.487   1.212   0.530
 7790SOL    HW133839   8.422   1.136   0.523
 7790SOL    HW233840   8.557   1.203   0.459
 7791SOL     OW33841   9.349   0.377   1.918
 7791SOL    HW133842   9.303   0.463   1.899
 7791SOL    HW233843   9.315   0.339   2.004
 7792SOL     OW33844   5.069   7.327   2.389
 7792SOL    HW133845   5.103   7.408   2.435
 7792SOL    HW233846   5.117   7.314   2.302
 7793SOL     OW33847   2.910   7.242   0.409
 7793SOL    HW133848   2.836   7.256   0.343
 7793SOL    HW233849   2.870   7.231   0.501
 7794SOL     OW33850   1.466   9.852   0.156
 7794SOL    HW133851   1.429   9.776   0.102
 7794SOL    HW233852   1.406   9.869   0.234
 7795SOL     OW33853   2.451   8.623   2.203
 7795SOL    HW133854   2.435   8.525   2.203
 7795SOL    HW233855   2.512   8.647   2.279
 7796SOL     OW33856   4.581   9.141   3.705
 7796SOL    HW133857   4.482   9.150   3.695
 7796SOL    HW233858   4.624   9.229   3.689
 7797SOL     OW33859   1.560   9.546   1.075
 7797SOL    HW133860   1.641   9.494   1.050
 7797SOL    HW233861   1.478   9.495   1.049
 7798SOL     OW33862   8.668   3.752   0.555
 7798SOL    HW133863   8.703   3.830   0.606
 7798SOL    HW233864   8.569   3.744   0.569
 7799SOL     OW33865   1.081   1.274   0.879
 7799SOL    HW133866   1.101   1.363   0.919
 7799SOL    HW233867   1.027   1.219   0.944
 7800SOL     OW33868   4.698   8.414   0.112
 7800SOL    HW133869   4.634   8.337   0.115
 7800SOL    HW233870   4.652   8.498   0.140
 7801SOL     OW33871   8.986   9.446   2.752
 7801SOL    HW133872   9.077   9.434   2.713
 7801SOL    HW233873   8.990   9.436   2.851
 7802SOL     OW33874   7.809   0.211   1.827
 7802SOL    HW133875   7.908   0.211   1.817
 7802SOL    HW233876   7.780   0.129   1.876
 7803SOL     OW33877   7.593   8.064   2.488
 7803SOL    HW133878   7.578   8.118   2.571
 7803SOL    HW233879   7.627   7.974   2.513
 7804SOL     OW33880   4.340   1.593   0.803
 7804SOL    HW133881   4.361   1.536   0.881
 7804SOL    HW233882   4.245   1.578   0.775
 7805SOL     OW33883   5.880   9.488   3.288
 7805SOL    HW133884   5.919   9.579   3.305
 7805SOL    HW233885   5.856   9.480   3.192
 7806SOL     OW33886   2.739   7.102   1.205
 7806SOL    HW133887   2.826   7.129   1.246
 7806SOL    HW233888   2.755   7.065   1.114
 7807SOL     OW33889   3.057   6.891   3.424
 7807SOL    HW133890   3.136   6.883   3.363
 7807SOL    HW233891   3.077   6.845   3.511
 7808SOL     OW33892   0.682   4.382   2.067
 7808SOL    HW133893   0.594   4.381   2.020
 7808SOL    HW233894   0.670   4.421   2.159
 7809SOL     OW33895   6.059   0.638   2.035
 7809SOL    HW133896   6.002   0.719   2.045
 7809SOL    HW233897   6.001   0.560   2.010
 7810SOL     OW33898   8.208   7.995   1.466
 7810SOL    HW133899   8.219   8.034   1.557
 7810SOL    HW233900   8.298   7.976   1.427
 7811SOL     OW33901   0.812   0.283   1.155
 7811SOL    HW133902   0.778   0.371   1.190
 7811SOL    HW233903   0.776   0.268   1.063
 7812SOL     OW33904   1.939   5.023   0.302
 7812SOL    HW133905   1.852   4.982   0.273
 7812SOL    HW233906   1.990   4.957   0.357
 7813SOL     OW33907   0.003   2.601   3.499
 7813SOL    HW133908   9.963   2.674   3.445
 7813SOL    HW233909   0.069   2.639   3.563
 7814SOL     OW33910   5.420   6.356   2.278
 7814SOL    HW133911   5.333   6.326   2.318
 7814SOL    HW233912   5.496   6.326   2.336
 7815SOL     OW33913   2.737   4.506   0.966
 7815SOL    HW133914   2.647   4.540   0.992
 7815SOL    HW233915   2.807   4.570   0.999
 7816SOL     OW33916   9.789   1.815   3.546
 7816SOL    HW133917   9.800   1.746   3.474
 7816SOL    HW233918   9.829   1.901   3.515
 7817SOL     OW33919   4.843   0.283   0.042
 7817SOL    HW133920   4.940   0.287   0.020
 7817SOL    HW233921   4.823   0.196   0.088
 7818SOL     OW33922   3.954   0.102   3.427
 7818SOL    HW133923   3.942   0.179   3.365
 7818SOL    HW233924   3.988   0.023   3.376
 7819SOL     OW33925   0.988   7.136   3.194
 7819SOL    HW133926   0.964   7.067   3.263
 7819SOL    HW233927   0.913   7.202   3.186
 7820SOL     OW33928   1.168   7.936   0.270
 7820SOL    HW133929   1.223   8.012   0.305
 7820SOL    HW233930   1.074   7.967   0.254
 7821SOL     OW33931   7.618   6.255   3.624
 7821SOL    HW133932   7.692   6.321   3.634
 7821SOL    HW233933   7.533   6.303   3.605
 7822SOL     OW33934   7.753   1.729   0.760
 7822SOL    HW133935   7.848   1.745   0.787
 7822SOL    HW233936   7.719   1.645   0.802
 7823SOL     OW33937   0.565   4.156   0.695
 7823SOL    HW133938   0.473   4.120   0.678
 7823SOL    HW233939   0.628   4.117   0.628
 7824SOL     OW33940   8.197   7.889   3.501
 7824SOL    HW133941   8.228   7.890   3.406
 7824SOL    HW233942   8.171   7.796   3.527
 7825SOL     OW33943   0.833   7.411   0.418
 7825SOL    HW133944   0.838   7.374   0.325
 7825SOL    HW233945   0.917   7.388   0.468
 7826SOL     OW33946   6.857   9.609   0.358
 7826SOL    HW133947   6.912   9.570   0.431
 7826SOL    HW233948   6.791   9.673   0.397
 7827SOL     OW33949   2.837   7.339   2.255
 7827SOL    HW133950   2.834   7.248   2.297
 7827SOL    HW233951   2.766   7.345   2.184
 7828SOL     OW33952   8.106   6.214   2.716
 7828SOL    HW133953   8.016   6.254   2.734
 7828SOL    HW233954   8.117   6.130   2.771
 7829SOL     OW33955   2.430   2.855   1.072
 7829SOL    HW133956   2.403   2.812   0.986
 7829SOL    HW233957   2.386   2.808   1.148
 7830SOL     OW33958   5.809   8.697   3.157
 7830SOL    HW133959   5.727   8.726   3.108
 7830SOL    HW233960   5.845   8.774   3.211
 7831SOL     OW33961   3.615   5.028   3.150
 7831SOL    HW133962   3.620   5.017   3.051
 7831SOL    HW233963   3.520   5.021   3.179
 7832SOL     OW33964   4.804   7.586   3.369
 7832SOL    HW133965   4.815   7.521   3.294
 7832SOL    HW233966   4.707   7.594   3.392
 7833SOL     OW33967   7.886   6.936   1.540
 7833SOL    HW133968   7.844   6.854   1.502
 7833SOL    HW233969   7.898   6.924   1.639
 7834SOL     OW33970   1.277   3.323   1.492
 7834SOL    HW133971   1.280   3.359   1.398
 7834SOL    HW233972   1.182   3.312   1.520
 7835SOL     OW33973   8.912   7.874   3.525
 7835SOL    HW133974   8.991   7.931   3.550
 7835SOL    HW233975   8.913   7.790   3.580
 7836SOL     OW33976   8.048   1.443   2.772
 7836SOL    HW133977   8.011   1.536   2.782
 7836SOL    HW233978   8.047   1.398   2.861
 7837SOL     OW33979   5.398   8.764   2.220
 7837SOL    HW133980   5.432   8.838   2.162
 7837SOL    HW233981   5.323   8.717   2.174
 7838SOL     OW33982   8.323   6.466   3.703
 7838SOL    HW133983   8.303   6.474   3.801
 7838SOL    HW233984   8.389   6.537   3.676
 7839SOL     OW33985   5.197   7.931   3.738
 7839SOL    HW133986   5.104   7.895   3.748
 7839SOL    HW233987   5.241   7.935   3.828
 7840SOL     OW33988   1.671   4.501   2.340
 7840SOL    HW133989   1.768   4.513   2.319
 7840SOL    HW233990   1.617   4.513   2.256
 7841SOL     OW33991   2.542   1.784   3.740
 7841SOL    HW133992   2.632   1.828   3.736
 7841SOL    HW233993   2.553   1.687   3.761
 7842SOL     OW33994   2.050   6.434   3.518
 7842SOL    HW133995   2.115   6.374   3.564
 7842SOL    HW233996   2.010   6.386   3.440
 7843SOL     OW33997   3.394   1.569   1.445
 7843SOL    HW133998   3.377   1.475   1.475
 7843SOL    HW233999   3.452   1.615   1.511
 7844SOL     OW34000   6.436   9.206   3.597
 7844SOL    HW134001   6.337   9.198   3.611
 7844SOL    HW234002   6.453   9.268   3.520
 7845SOL     OW34003   1.500   2.623   2.342
 7845SOL    HW134004   1.481   2.589   2.250
 7845SOL    HW234005   1.461   2.560   2.409
 7846SOL     OW34006   9.053   3.002   2.786
 7846SOL    HW134007   9.082   3.098   2.788
 7846SOL    HW234008   9.123   2.947   2.740
 7847SOL     OW34009   7.777   3.473   1.065
 7847SOL    HW134010   7.849   3.502   1.128
 7847SOL    HW234011   7.772   3.373   1.065
 7848SOL     OW34012   9.841   1.638   2.282
 7848SOL    HW134013   9.823   1.583   2.363
 7848SOL    HW234014   9.859   1.578   2.204
 7849SOL     OW34015   9.506   2.333   3.064
 7849SOL    HW134016   9.581   2.392   3.094
 7849SOL    HW234017   9.540   2.240   3.051
 7850SOL     OW34018   9.311   9.042   2.109
 7850SOL    HW134019   9.233   8.981   2.116
 7850SOL    HW234020   9.384   8.997   2.058
 7851SOL     OW34021   2.161   3.314   1.635
 7851SOL    HW134022   2.124   3.244   1.574
 7851SOL    HW234023   2.133   3.294   1.729
 7852SOL     OW34024   8.678   9.510   3.041
 7852SOL    HW134025   8.644   9.504   3.135
 7852SOL    HW234026   8.716   9.422   3.013
 7853SOL     OW34027   0.752   9.140   3.464
 7853SOL    HW134028   0.836   9.192   3.450
 7853SOL    HW234029   0.680   9.175   3.403
 7854SOL     OW34030   1.307   5.612   1.886
 7854SOL    HW134031   1.405   5.623   1.876
 7854SOL    HW234032   1.275   5.537   1.827
 7855SOL     OW34033   2.083   2.175   1.284
 7855SOL    HW134034   2.105   2.116   1.205
 7855SOL    HW234035   2.152   2.247   1.292
 7856SOL     OW34036   8.864   6.157   3.555
 7856SOL    HW134037   8.866   6.103   3.640
 7856SOL    HW234038   8.940   6.131   3.497
 7857SOL     OW34039   3.415   0.153   0.512
 7857SOL    HW134040   3.480   0.229   0.512
 7857SOL    HW234041   3.441   0.087   0.441
 7858SOL     OW34042   4.377   5.223   1.637
 7858SOL    HW134043   4.455   5.232   1.699
 7858SOL    HW234044   4.375   5.130   1.601
 7859SOL     OW34045   0.661   9.006   2.282
 7859SOL    HW134046   0.726   9.048   2.219
 7859SOL    HW234047   0.701   8.924   2.322
 7860SOL     OW34048   4.336   1.536   3.413
 7860SOL    HW134049   4.296   1.498   3.329
 7860SOL    HW234050   4.294   1.624   3.434
 7861SOL     OW34051   7.519   9.085   1.893
 7861SOL    HW134052   7.557   8.993   1.899
 7861SOL    HW234053   7.486   9.102   1.800
 7862SOL     OW34054   9.543   9.794   3.625
 7862SOL    HW134055   9.544   9.764   3.720
 7862SOL    HW234056   9.585   9.884   3.618
 7863SOL     OW34057   4.611   3.819   1.863
 7863SOL    HW134058   4.699   3.791   1.823
 7863SOL    HW234059   4.617   3.915   1.891
 7864SOL     OW34060   0.944   2.364   3.445
 7864SOL    HW134061   1.035   2.340   3.411
 7864SOL    HW234062   0.904   2.285   3.492
 7865SOL     OW34063   1.239   6.669   3.094
 7865SOL    HW134064   1.289   6.652   3.178
 7865SOL    HW234065   1.263   6.759   3.058
 7866SOL     OW34066   1.258   7.870   1.961
 7866SOL    HW134067   1.229   7.909   1.874
 7866SOL    HW234068   1.297   7.779   1.946
 7867SOL     OW34069   3.160   4.529   0.966
 7867SOL    HW134070   3.200   4.503   1.054
 7867SOL    HW234071   3.232   4.565   0.906
 7868SOL     OW34072   8.229   0.624   0.442
 7868SOL    HW134073   8.257   0.530   0.425
 7868SOL    HW234074   8.172   0.656   0.367
 7869SOL     OW34075   7.161   6.949   3.328
 7869SOL    HW134076   7.218   6.913   3.402
 7869SOL    HW234077   7.207   6.933   3.240
 7870SOL     OW34078   9.349   8.257   2.372
 7870SOL    HW134079   9.249   8.259   2.364
 7870SOL    HW234080   9.387   8.337   2.327
 7871SOL     OW34081   2.542   0.876   3.604
 7871SOL    HW134082   2.502   0.832   3.524
 7871SOL    HW234083   2.591   0.958   3.576
 7872SOL     OW34084   3.131   4.936   0.473
 7872SOL    HW134085   3.201   4.885   0.422
 7872SOL    HW234086   3.041   4.904   0.445
 7873SOL     OW34087   9.758   7.904   2.813
 7873SOL    HW134088   9.843   7.955   2.804
 7873SOL    HW234089   9.762   7.845   2.894
 7874SOL     OW34090   1.765   9.103   0.649
 7874SOL    HW134091   1.692   9.043   0.617
 7874SOL    HW234092   1.834   9.049   0.698
 7875SOL     OW34093   6.370   7.296   3.068
 7875SOL    HW134094   6.466   7.271   3.074
 7875SOL    HW234095   6.361   7.392   3.043
 7876SOL     OW34096   9.179   1.671   3.229
 7876SOL    HW134097   9.180   1.749   3.291
 7876SOL    HW234098   9.214   1.699   3.139
 7877SOL     OW34099   1.676   8.990   3.032
 7877SOL    HW134100   1.763   9.033   3.008
 7877SOL    HW234101   1.604   9.025   2.972
 7878SOL     OW34102   0.067   9.774   2.478
 7878SOL    HW134103   0.140   9.706   2.465
 7878SOL    HW234104   0.010   9.746   2.555
 7879SOL     OW34105   0.462   3.699   2.145
 7879SOL    HW134106   0.551   3.664   2.117
 7879SOL    HW234107   0.462   3.799   2.137
 7880SOL     OW34108   1.959   1.742   1.273
 7880SOL    HW134109   1.869   1.783   1.284
 7880SOL    HW234110   1.979   1.682   1.350
 7881SOL     OW34111   4.521   7.601   3.383
 7881SOL    HW134112   4.462   7.520   3.379
 7881SOL    HW234113   4.504   7.660   3.304
 7882SOL     OW34114   3.421   5.290   3.017
 7882SOL    HW134115   3.446   5.369   2.962
 7882SOL    HW234116   3.393   5.320   3.108
 7883SOL     OW34117   7.874   9.145   0.091
 7883SOL    HW134118   7.818   9.221   0.123
 7883SOL    HW234119   7.963   9.180   0.060
 7884SOL     OW34120   2.236   4.629   0.372
 7884SOL    HW134121   2.147   4.596   0.339
 7884SOL    HW234122   2.242   4.615   0.471
 7885SOL     OW34123   8.700   8.739   1.986
 7885SOL    HW134124   8.614   8.727   2.037
 7885SOL    HW234125   8.737   8.830   2.006
 7886SOL     OW34126   0.102   2.564   1.295
 7886SOL    HW134127   0.124   2.489   1.357
 7886SOL    HW234128   0.143   2.648   1.328
 7887SOL     OW34129   9.619   0.637   3.111
 7887SOL    HW134130   9.572   0.550   3.103
 7887SOL    HW234131   9.678   0.651   3.031
 7888SOL     OW34132   3.885   5.365   1.241
 7888SOL    HW134133   3.978   5.335   1.222
 7888SOL    HW234134   3.879   5.403   1.333
 7889SOL     OW34135   2.463   2.337   0.472
 7889SOL    HW134136   2.563   2.334   0.472
 7889SOL    HW234137   2.426   2.253   0.432
 7890SOL     OW34138   9.092   0.184   0.917
 7890SOL    HW134139   9.120   0.115   0.984
 7890SOL    HW234140   9.015   0.237   0.953
 7891SOL     OW34141   1.755   0.852   2.453
 7891SOL    HW134142   1.777   0.785   2.382
 7891SOL    HW234143   1.808   0.936   2.437
 7892SOL     OW34144   3.283   4.925   1.833
 7892SOL    HW134145   3.246   4.853   1.774
 7892SOL    HW234146   3.209   4.963   1.889
 7893SOL     OW34147   3.798   2.682   1.156
 7893SOL    HW134148   3.794   2.605   1.093
 7893SOL    HW234149   3.880   2.736   1.136
 7894SOL     OW34150   8.731   7.676   1.890
 7894SOL    HW134151   8.757   7.580   1.904
 7894SOL    HW234152   8.794   7.718   1.825
 7895SOL     OW34153   1.919   5.084   2.360
 7895SOL    HW134154   1.995   5.041   2.408
 7895SOL    HW234155   1.833   5.040   2.388
 7896SOL     OW34156   8.617   8.402   3.275
 7896SOL    HW134157   8.630   8.355   3.188
 7896SOL    HW234158   8.591   8.337   3.346
 7897SOL     OW34159   9.230   3.920   0.717
 7897SOL    HW134160   9.162   3.899   0.647
 7897SOL    HW234161   9.185   3.942   0.803
 7898SOL     OW34162   7.625   0.718   1.114
 7898SOL    HW134163   7.684   0.799   1.109
 7898SOL    HW234164   7.612   0.693   1.209
 7899SOL     OW34165   4.514   9.305   3.230
 7899SOL    HW134166   4.550   9.378   3.287
 7899SOL    HW234167   4.427   9.273   3.267
 7900SOL     OW34168   0.288   4.161   0.219
 7900SOL    HW134169   0.225   4.170   0.142
 7900SOL    HW234170   0.304   4.251   0.260
 7901SOL     OW34171   2.613   3.928   1.271
 7901SOL    HW134172   2.698   3.920   1.322
 7901SOL    HW234173   2.632   3.960   1.178
 7902SOL     OW34174   3.028   2.969   1.086
 7902SOL    HW134175   2.944   3.019   1.065
 7902SOL    HW234176   3.008   2.899   1.154
 7903SOL     OW34177   2.772   9.110   2.519
 7903SOL    HW134178   2.747   9.157   2.604
 7903SOL    HW234179   2.861   9.065   2.532
 7904SOL     OW34180   3.004   8.960   2.523
 7904SOL    HW134181   3.024   8.930   2.616
 7904SOL    HW234182   3.087   8.955   2.467
 7905SOL     OW34183   3.895   0.860   3.561
 7905SOL    HW134184   3.995   0.863   3.564
 7905SOL    HW234185   3.859   0.953   3.563
 7906SOL     OW34186   9.585   4.530   0.732
 7906SOL    HW134187   9.517   4.506   0.662
 7906SOL    HW234188   9.591   4.629   0.740
 7907SOL     OW34189   2.534   2.670   2.631
 7907SOL    HW134190   2.461   2.672   2.699
 7907SOL    HW234191   2.622   2.656   2.676
 7908SOL     OW34192   0.775   4.919   3.574
 7908SOL    HW134193   0.863   4.961   3.595
 7908SOL    HW234194   0.781   4.820   3.588
 7909SOL     OW34195   2.005   6.135   2.175
 7909SOL    HW134196   1.931   6.121   2.241
 7909SOL    HW234197   2.043   6.226   2.186
 7910SOL     OW34198   0.382   1.702   3.668
 7910SOL    HW134199   0.294   1.702   3.620
 7910SOL    HW234200   0.416   1.608   3.673
 7911SOL     OW34201   8.492   8.710   2.152
 7911SOL    HW134202   8.504   8.768   2.232
 7911SOL    HW234203   8.409   8.654   2.164
 7912SOL     OW34204   2.642   1.839   1.740
 7912SOL    HW134205   2.700   1.914   1.771
 7912SOL    HW234206   2.572   1.875   1.678
 7913SOL     OW34207   7.485   9.559   3.675
 7913SOL    HW134208   7.519   9.577   3.768
 7913SOL    HW234209   7.463   9.646   3.630
 7914SOL     OW34210   3.578   9.168   0.305
 7914SOL    HW134211   3.500   9.220   0.270
 7914SOL    HW234212   3.649   9.163   0.235
 7915SOL     OW34213   1.408   1.430   2.590
 7915SOL    HW134214   1.461   1.350   2.619
 7915SOL    HW234215   1.407   1.498   2.663
 7916SOL     OW34216   4.151   7.915   1.235
 7916SOL    HW134217   4.065   7.964   1.250
 7916SOL    HW234218   4.227   7.969   1.270
 7917SOL     OW34219   0.626   2.537   2.021
 7917SOL    HW134220   0.724   2.525   2.039
 7917SOL    HW234221   0.584   2.585   2.097
 7918SOL     OW34222   1.640   2.559   0.438
 7918SOL    HW134223   1.650   2.610   0.353
 7918SOL    HW234224   1.564   2.595   0.491
 7919SOL     OW34225   1.398   5.865   3.023
 7919SOL    HW134226   1.467   5.862   2.951
 7919SOL    HW234227   1.309   5.888   2.982
 7920SOL     OW34228   8.019   1.218   3.287
 7920SOL    HW134229   8.013   1.255   3.195
 7920SOL    HW234230   8.111   1.184   3.304
 7921SOL     OW34231   3.367   1.850   2.868
 7921SOL    HW134232   3.384   1.795   2.786
 7921SOL    HW234233   3.454   1.864   2.917
 7922SOL     OW34234   7.297   9.583   1.913
 7922SOL    HW134235   7.316   9.507   1.975
 7922SOL    HW234236   7.198   9.597   1.908
 7923SOL     OW34237   1.432   4.812   2.421
 7923SOL    HW134238   1.361   4.854   2.364
 7923SOL    HW234239   1.465   4.728   2.376
 7924SOL     OW34240   6.034   7.853   2.289
 7924SOL    HW134241   5.951   7.896   2.255
 7924SOL    HW234242   6.034   7.756   2.265
 7925SOL     OW34243   8.910   0.272   0.674
 7925SOL    HW134244   8.975   0.222   0.731
 7925SOL    HW234245   8.959   0.331   0.610
 7926SOL     OW34246   7.714   0.458   1.907
 7926SOL    HW134247   7.787   0.526   1.915
 7926SOL    HW234248   7.752   0.372   1.874
 7927SOL     OW34249   9.159   4.041   1.145
 7927SOL    HW134250   9.227   4.112   1.130
 7927SOL    HW234251   9.108   4.024   1.061
 7928SOL     OW34252   9.803   5.679   1.610
 7928SOL    HW134253   9.887   5.636   1.579
 7928SOL    HW234254   9.748   5.705   1.531
 7929SOL     OW34255   5.593   7.267   2.736
 7929SOL    HW134256   5.630   7.249   2.645
 7929SOL    HW234257   5.658   7.235   2.805
 7930SOL     OW34258   9.804   8.055   1.555
 7930SOL    HW134259   9.839   8.011   1.638
 7930SOL    HW234260   9.830   8.002   1.475
 7931SOL     OW34261   5.091   5.278   1.792
 7931SOL    HW134262   5.171   5.221   1.779
 7931SOL    HW234263   5.037   5.282   1.708
 7932SOL     OW34264   9.780   5.776   0.470
 7932SOL    HW134265   9.791   5.678   0.485
 7932SOL    HW234266   9.692   5.806   0.505
 7933SOL     OW34267   3.363   7.803   3.559
 7933SOL    HW134268   3.299   7.729   3.580
 7933SOL    HW234269   3.395   7.793   3.465
 7934SOL     OW34270   1.637   7.267   0.574
 7934SOL    HW134271   1.618   7.336   0.644
 7934SOL    HW234272   1.585   7.289   0.491
 7935SOL     OW34273   9.310   3.560   1.630
 7935SOL    HW134274   9.326   3.468   1.664
 7935SOL    HW234275   9.380   3.584   1.563
 7936SOL     OW34276   2.406   5.504   1.748
 7936SOL    HW134277   2.401   5.405   1.759
 7936SOL    HW234278   2.404   5.548   1.838
 7937SOL     OW34279   5.378   0.159   2.242
 7937SOL    HW134280   5.461   0.176   2.294
 7937SOL    HW234281   5.375   0.063   2.214
 7938SOL     OW34282   9.832   3.391   0.808
 7938SOL    HW134283   9.916   3.436   0.777
 7938SOL    HW234284   9.833   3.384   0.908
 7939SOL     OW34285   0.968   9.133   3.087
 7939SOL    HW134286   0.947   9.065   3.157
 7939SOL    HW234287   0.882   9.166   3.047
 7940SOL     OW34288   3.005   9.469   3.386
 7940SOL    HW134289   2.983   9.380   3.346
 7940SOL    HW234290   3.102   9.487   3.375
 7941SOL     OW34291   1.851   9.866   0.954
 7941SOL    HW134292   1.804   9.906   0.874
 7941SOL    HW234293   1.784   9.843   1.024
 7942SOL     OW34294   4.008   8.537   1.739
 7942SOL    HW134295   3.929   8.555   1.679
 7942SOL    HW234296   4.069   8.616   1.737
 7943SOL     OW34297   8.253   8.005   3.004
 7943SOL    HW134298   8.228   8.092   3.047
 7943SOL    HW234299   8.197   7.992   2.922
 7944SOL     OW34300   9.984   4.814   2.788
 7944SOL    HW134301   9.931   4.860   2.716
 7944SOL    HW234302   9.931   4.812   2.873
 7945SOL     OW34303   9.519   0.630   2.699
 7945SOL    HW134304   9.528   0.578   2.614
 7945SOL    HW234305   9.457   0.582   2.761
 7946SOL     OW34306   2.500   3.492   1.453
 7946SOL    HW134307   2.448   3.465   1.372
 7946SOL    HW234308   2.482   3.427   1.528
 7947SOL     OW34309   3.909   2.039   1.222
 7947SOL    HW134310   3.964   1.964   1.260
 7947SOL    HW234311   3.928   2.049   1.124
 7948SOL     OW34312   0.448   5.804   3.355
 7948SOL    HW134313   0.495   5.872   3.411
 7948SOL    HW234314   0.451   5.831   3.259
 7949SOL     OW34315   2.002   7.342   3.408
 7949SOL    HW134316   2.047   7.416   3.458
 7949SOL    HW234317   1.942   7.292   3.470
 7950SOL     OW34318   3.299   6.482   3.416
 7950SOL    HW134319   3.397   6.501   3.415
 7950SOL    HW234320   3.257   6.516   3.332
 7951SOL     OW34321   8.414   8.369   2.098
 7951SOL    HW134322   8.345   8.435   2.125
 7951SOL    HW234323   8.450   8.323   2.180
 7952SOL     OW34324   9.646   1.325   2.951
 7952SOL    HW134325   9.653   1.225   2.958
 7952SOL    HW234326   9.549   1.351   2.957
 7953SOL     OW34327   1.255   1.242   0.206
 7953SOL    HW134328   1.331   1.307   0.199
 7953SOL    HW234329   1.169   1.292   0.215
 7954SOL     OW34330   8.884   9.758   1.037
 7954SOL    HW134331   8.958   9.714   1.089
 7954SOL    HW234332   8.918   9.784   0.946
 7955SOL     OW34333   4.224   1.715   1.609
 7955SOL    HW134334   4.296   1.784   1.600
 7955SOL    HW234335   4.266   1.625   1.617
 7956SOL     OW34336   1.600   5.186   0.224
 7956SOL    HW134337   1.654   5.105   0.199
 7956SOL    HW234338   1.618   5.259   0.158
 7957SOL     OW34339   8.880   2.741   2.581
 7957SOL    HW134340   8.850   2.673   2.648
 7957SOL    HW234341   8.846   2.831   2.606
 7958SOL     OW34342   0.797   2.384   0.661
 7958SOL    HW134343   0.742   2.301   0.664
 7958SOL    HW234344   0.745   2.457   0.616
 7959SOL     OW34345   3.387   0.475   1.699
 7959SOL    HW134346   3.346   0.538   1.765
 7959SOL    HW234347   3.319   0.407   1.672
 7960SOL     OW34348   1.663   4.746   1.321
 7960SOL    HW134349   1.725   4.812   1.362
 7960SOL    HW234350   1.659   4.760   1.223
 7961SOL     OW34351   8.682   0.689   0.664
 7961SOL    HW134352   8.584   0.686   0.646
 7961SOL    HW234353   8.730   0.726   0.585
 7962SOL     OW34354   4.449   3.910   3.340
 7962SOL    HW134355   4.532   3.867   3.377
 7962SOL    HW234356   4.378   3.841   3.327
 7963SOL     OW34357   2.497   2.774   0.052
 7963SOL    HW134358   2.555   2.693   0.049
 7963SOL    HW234359   2.401   2.746   0.058
 7964SOL     OW34360   2.436   3.052   1.962
 7964SOL    HW134361   2.358   3.005   2.004
 7964SOL    HW234362   2.473   2.995   1.889
 7965SOL     OW34363   4.641   7.751   2.955
 7965SOL    HW134364   4.722   7.807   2.975
 7965SOL    HW234365   4.592   7.789   2.877
 7966SOL     OW34366   8.469   1.930   3.432
 7966SOL    HW134367   8.437   1.977   3.350
 7966SOL    HW234368   8.490   1.835   3.410
 7967SOL     OW34369   6.421   8.898   2.536
 7967SOL    HW134370   6.450   8.982   2.583
 7967SOL    HW234371   6.466   8.819   2.578
 7968SOL     OW34372   0.394   1.956   1.369
 7968SOL    HW134373   0.370   1.859   1.363
 7968SOL    HW234374   0.458   1.979   1.296
 7969SOL     OW34375   2.900   4.630   0.215
 7969SOL    HW134376   2.819   4.642   0.272
 7969SOL    HW234377   2.902   4.700   0.144
 7970SOL     OW34378   4.057   7.151   2.481
 7970SOL    HW134379   4.119   7.136   2.558
 7970SOL    HW234380   4.081   7.237   2.435
 7971SOL     OW34381   8.530   1.659   3.402
 7971SOL    HW134382   8.626   1.653   3.375
 7971SOL    HW234383   8.519   1.623   3.495
 7972SOL     OW34384   2.153   9.476   1.698
 7972SOL    HW134385   2.203   9.557   1.670
 7972SOL    HW234386   2.161   9.464   1.797
 7973SOL     OW34387   3.916   3.272   0.845
 7973SOL    HW134388   3.865   3.227   0.772
 7973SOL    HW234389   4.010   3.287   0.816
 7974SOL     OW34390   9.578   6.915   2.074
 7974SOL    HW134391   9.497   6.865   2.103
 7974SOL    HW234392   9.602   6.984   2.143
 7975SOL     OW34393   8.370   5.784   2.010
 7975SOL    HW134394   8.420   5.799   2.095
 7975SOL    HW234395   8.286   5.733   2.029
 7976SOL     OW34396   8.976   8.476   1.172
 7976SOL    HW134397   8.925   8.517   1.096
 7976SOL    HW234398   8.987   8.378   1.155
 7977SOL     OW34399   0.384   5.578   1.590
 7977SOL    HW134400   0.369   5.652   1.525
 7977SOL    HW234401   0.321   5.502   1.569
 7978SOL     OW34402   0.290   2.188   2.489
 7978SOL    HW134403   0.280   2.110   2.428
 7978SOL    HW234404   0.302   2.271   2.435
 7979SOL     OW34405   0.506   8.678   3.554
 7979SOL    HW134406   0.411   8.696   3.579
 7979SOL    HW234407   0.516   8.686   3.455
 7980SOL     OW34408   3.698   8.590   2.047
 7980SOL    HW134409   3.632   8.627   2.112
 7980SOL    HW234410   3.789   8.588   2.089
 7981SOL     OW34411   4.873   1.303   1.471
 7981SOL    HW134412   4.847   1.265   1.559
 7981SOL    HW234413   4.791   1.323   1.417
 7982SOL     OW34414   6.305   0.100   1.466
 7982SOL    HW134415   6.384   0.160   1.481
 7982SOL    HW234416   6.257   0.086   1.552
 7983SOL     OW34417   5.047   3.387   0.137
 7983SOL    HW134418   5.007   3.347   0.219
 7983SOL    HW234419   5.138   3.348   0.122
 7984SOL     OW34420   9.976   1.561   1.558
 7984SOL    HW134421   9.910   1.602   1.622
 7984SOL    HW234422   0.037   1.500   1.609
 7985SOL     OW34423   0.909   2.515   2.999
 7985SOL    HW134424   0.997   2.555   2.974
 7985SOL    HW234425   0.839   2.587   3.004
 7986SOL     OW34426   9.027   1.792   0.696
 7986SOL    HW134427   9.124   1.800   0.720
 7986SOL    HW234428   8.974   1.775   0.779
 7987SOL     OW34429   6.925   0.429   3.326
 7987SOL    HW134430   6.929   0.415   3.425
 7987SOL    HW234431   6.991   0.369   3.282
 7988SOL     OW34432   9.829   3.679   0.403
 7988SOL    HW134433   9.846   3.723   0.491
 7988SOL    HW234434   9.745   3.715   0.363
 7989SOL     OW34435   5.425   7.622   1.777
 7989SOL    HW134436   5.385   7.712   1.759
 7989SOL    HW234437   5.353   7.553   1.776
 7990SOL     OW34438   8.989   7.029   1.832
 7990SOL    HW134439   8.917   7.094   1.809
 7990SOL    HW234440   8.972   6.992   1.924
 7991SOL     OW34441   2.044   4.664   3.136
 7991SOL    HW134442   2.072   4.603   3.210
 7991SOL    HW234443   2.084   4.632   3.049
 7992SOL     OW34444   1.278   5.804   0.307
 7992SOL    HW134445   1.360   5.857   0.287
 7992SOL    HW234446   1.243   5.830   0.397
 7993SOL     OW34447   0.277   3.488   0.940
 7993SOL    HW134448   0.274   3.419   1.013
 7993SOL    HW234449   0.360   3.475   0.886
 7994SOL     OW34450   1.690   5.248   1.595
 7994SOL    HW134451   1.773   5.234   1.540
 7994SOL    HW234452   1.687   5.343   1.627
 7995SOL     OW34453   5.074   9.835   1.527
 7995SOL    HW134454   5.027   9.898   1.589
 7995SOL    HW234455   5.007   9.788   1.470
 7996SOL     OW34456   4.454   8.336   1.351
 7996SOL    HW134457   4.393   8.349   1.429
 7996SOL    HW234458   4.456   8.421   1.297
 7997SOL     OW34459   9.479   5.427   1.438
 7997SOL    HW134460   9.550   5.420   1.368
 7997SOL    HW234461   9.514   5.391   1.525
 7998SOL     OW34462   3.772   7.987   2.631
 7998SOL    HW134463   3.775   8.056   2.558
 7998SOL    HW234464   3.689   7.932   2.620
 7999SOL     OW34465   8.414   2.405   2.669
 7999SOL    HW134466   8.473   2.335   2.708
 7999SOL    HW234467   8.324   2.401   2.711
 8000SOL     OW34468   2.248   5.116   3.347
 8000SOL    HW134469   2.216   5.194   3.400
 8000SOL    HW234470   2.187   5.103   3.268
 8001SOL     OW34471   2.191   9.045   3.296
 8001SOL    HW134472   2.118   8.987   3.332
 8001SOL    HW234473   2.154   9.135   3.273
 8002SOL     OW34474   7.209   1.352   2.438
 8002SOL    HW134475   7.260   1.315   2.516
 8002SOL    HW234476   7.124   1.394   2.471
 8003SOL     OW34477   8.036   5.368   3.555
 8003SOL    HW134478   8.028   5.313   3.638
 8003SOL    HW234479   8.015   5.311   3.475
 8004SOL     OW34480   4.933   7.698   2.844
 8004SOL    HW134481   4.879   7.653   2.772
 8004SOL    HW234482   4.898   7.790   2.858
 8005SOL     OW34483   8.621   8.890   1.367
 8005SOL    HW134484   8.610   8.989   1.373
 8005SOL    HW234485   8.586   8.847   1.450
 8006SOL     OW34486   8.348   0.121   2.544
 8006SOL    HW134487   8.310   0.085   2.629
 8006SOL    HW234488   8.312   0.213   2.528
 8007SOL     OW34489   1.998   8.800   2.261
 8007SOL    HW134490   1.989   8.832   2.355
 8007SOL    HW234491   2.092   8.815   2.230
 8008SOL     OW34492   2.552   9.854   1.679
 8008SOL    HW134493   2.571   9.947   1.708
 8008SOL    HW234494   2.597   9.790   1.741
 8009SOL     OW34495   4.940   7.357   2.715
 8009SOL    HW134496   4.874   7.432   2.711
 8009SOL    HW234497   5.024   7.386   2.669
 8010SOL     OW34498   0.020   0.505   2.231
 8010SOL    HW134499   0.106   0.503   2.282
 8010SOL    HW234500   0.009   0.420   2.181
 8011SOL     OW34501   1.128   2.664   2.912
 8011SOL    HW134502   1.079   2.750   2.925
 8011SOL    HW234503   1.227   2.681   2.910
 8012SOL     OW34504   8.259   6.086   2.252
 8012SOL    HW134505   8.192   6.109   2.322
 8012SOL    HW234506   8.351   6.111   2.284
 8013SOL     OW34507   4.258   2.941   2.194
 8013SOL    HW134508   4.312   2.956   2.277
 8013SOL    HW234509   4.160   2.950   2.215
 8014SOL     OW34510   8.124   0.013   0.841
 8014SOL    HW134511   8.080   0.050   0.760
 8014SOL    HW234512   8.071   0.038   0.922
 8015SOL     OW34513   1.899   4.237   2.086
 8015SOL    HW134514   1.929   4.252   1.992
 8015SOL    HW234515   1.943   4.155   2.122
 8016SOL     OW34516   3.955   6.897   2.449
 8016SOL    HW134517   3.856   6.906   2.436
 8016SOL    HW234518   3.996   6.988   2.449
 8017SOL     OW34519   0.163   2.899   0.923
 8017SOL    HW134520   0.162   2.874   0.827
 8017SOL    HW234521   0.073   2.934   0.950
 8018SOL     OW34522   8.374   1.848   1.750
 8018SOL    HW134523   8.361   1.916   1.822
 8018SOL    HW234524   8.344   1.758   1.783
 8019SOL     OW34525   0.097   2.114   2.672
 8019SOL    HW134526   0.164   2.141   2.604
 8019SOL    HW234527   0.064   2.195   2.721
 8020SOL     OW34528   7.607   9.205   0.475
 8020SOL    HW134529   7.609   9.296   0.433
 8020SOL    HW234530   7.701   9.172   0.484
 8021SOL     OW34531   4.451   4.244   0.809
 8021SOL    HW134532   4.380   4.202   0.753
 8021SOL    HW234533   4.532   4.186   0.810
 8022SOL     OW34534   9.164   7.256   1.566
 8022SOL    HW134535   9.239   7.271   1.502
 8022SOL    HW234536   9.196   7.203   1.645
 8023SOL     OW34537   9.564   9.526   0.509
 8023SOL    HW134538   9.618   9.441   0.510
 8023SOL    HW234539   9.510   9.532   0.592
 8024SOL     OW34540   9.360   1.240   3.619
 8024SOL    HW134541   9.301   1.167   3.654
 8024SOL    HW234542   9.453   1.206   3.609
 8025SOL     OW34543   1.485   4.797   0.263
 8025SOL    HW134544   1.387   4.808   0.250
 8025SOL    HW234545   1.505   4.790   0.360
 8026SOL     OW34546   4.119   9.685   0.205
 8026SOL    HW134547   4.098   9.734   0.290
 8026SOL    HW234548   4.182   9.740   0.150
 8027SOL     OW34549   4.138   8.876   2.477
 8027SOL    HW134550   4.047   8.915   2.493
 8027SOL    HW234551   4.208   8.938   2.511
 8028SOL     OW34552   1.663   6.334   2.054
 8028SOL    HW134553   1.729   6.388   2.105
 8028SOL    HW234554   1.702   6.309   1.965
 8029SOL     OW34555   1.086   4.377   0.250
 8029SOL    HW134556   1.104   4.280   0.235
 8029SOL    HW234557   1.033   4.388   0.334
 8030SOL     OW34558   5.509   1.347   2.487
 8030SOL    HW134559   5.600   1.307   2.497
 8030SOL    HW234560   5.446   1.302   2.550
 8031SOL     OW34561   1.786   7.888   2.706
 8031SOL    HW134562   1.761   7.792   2.716
 8031SOL    HW234563   1.873   7.904   2.752
 8032SOL     OW34564   6.686   9.718   3.330
 8032SOL    HW134565   6.608   9.665   3.295
 8032SOL    HW234566   6.701   9.695   3.426
 8033SOL     OW34567   9.051   1.829   0.180
 8033SOL    HW134568   9.060   1.905   0.244
 8033SOL    HW234569   9.133   1.772   0.183
 8034SOL     OW34570   6.820   7.227   2.691
 8034SOL    HW134571   6.826   7.199   2.595
 8034SOL    HW234572   6.729   7.262   2.710
 8035SOL     OW34573   0.582   9.317   3.620
 8035SOL    HW134574   0.503   9.264   3.650
 8035SOL    HW234575   0.659   9.256   3.603
 8036SOL     OW34576   2.086   1.028   3.552
 8036SOL    HW134577   2.127   1.055   3.639
 8036SOL    HW234578   2.148   1.051   3.477
 8037SOL     OW34579   2.468   9.963   2.458
 8037SOL    HW134580   2.556   0.010   2.452
 8037SOL    HW234581   2.396   0.029   2.481
 8038SOL     OW34582   8.772   8.964   2.120
 8038SOL    HW134583   8.790   8.938   2.215
 8038SOL    HW234584   8.726   9.052   2.117
 8039SOL     OW34585   7.301   9.388   3.303
 8039SOL    HW134586   7.337   9.296   3.283
 8039SOL    HW234587   7.289   9.399   3.401
 8040SOL     OW34588   3.923   0.292   3.233
 8040SOL    HW134589   3.849   0.357   3.253
 8040SOL    HW234590   3.897   0.236   3.154
 8041SOL     OW34591   0.638   0.107   3.309
 8041SOL    HW134592   0.666   0.180   3.246
 8041SOL    HW234593   0.691   0.024   3.289
 8042SOL     OW34594   7.986   9.276   1.843
 8042SOL    HW134595   7.887   9.282   1.854
 8042SOL    HW234596   8.012   9.309   1.753
 8043SOL     OW34597   4.475   8.298   2.353
 8043SOL    HW134598   4.538   8.374   2.339
 8043SOL    HW234599   4.410   8.295   2.277
 8044SOL     OW34600   4.133   9.313   1.997
 8044SOL    HW134601   4.139   9.254   2.077
 8044SOL    HW234602   4.187   9.273   1.923
 8045SOL     OW34603   5.584   8.029   1.709
 8045SOL    HW134604   5.640   7.956   1.669
 8045SOL    HW234605   5.494   7.991   1.733
 8046SOL     OW34606   3.094   7.447   2.901
 8046SOL    HW134607   3.046   7.372   2.947
 8046SOL    HW234608   3.155   7.493   2.965
 8047SOL     OW34609   1.413   5.358   0.979
 8047SOL    HW134610   1.334   5.332   0.923
 8047SOL    HW234611   1.468   5.425   0.929
 8048SOL     OW34612   2.571   2.704   2.006
 8048SOL    HW134613   2.473   2.721   2.014
 8048SOL    HW234614   2.613   2.709   2.097
 8049SOL     OW34615   6.163   9.176   3.615
 8049SOL    HW134616   6.101   9.220   3.550
 8049SOL    HW234617   6.127   9.085   3.638
 8050SOL     OW34618   4.209   4.614   1.355
 8050SOL    HW134619   4.165   4.550   1.292
 8050SOL    HW234620   4.191   4.585   1.449
 8051SOL     OW34621   8.879   6.029   2.518
 8051SOL    HW134622   8.945   6.001   2.587
 8051SOL    HW234623   8.813   5.956   2.503
 8052SOL     OW34624   1.039   7.251   1.995
 8052SOL    HW134625   1.114   7.317   1.993
 8052SOL    HW234626   1.068   7.167   1.948
 8053SOL     OW34627   9.319   3.484   2.822
 8053SOL    HW134628   9.238   3.425   2.811
 8053SOL    HW234629   9.327   3.512   2.917
 8054SOL     OW34630   9.886   9.202   1.849
 8054SOL    HW134631   9.925   9.118   1.811
 8054SOL    HW234632   9.802   9.180   1.899
 8055SOL     OW34633   2.009   7.532   3.045
 8055SOL    HW134634   1.944   7.578   2.985
 8055SOL    HW234635   2.093   7.512   2.995
 8056SOL     OW34636   9.953   4.660   1.190
 8056SOL    HW134637   9.965   4.599   1.269
 8056SOL    HW234638   9.868   4.638   1.144
 8057SOL     OW34639   2.462   5.594   1.312
 8057SOL    HW134640   2.508   5.585   1.400
 8057SOL    HW234641   2.480   5.513   1.256
 8058SOL     OW34642   7.287   9.106   0.083
 8058SOL    HW134643   7.353   9.090   0.157
 8058SOL    HW234644   7.312   9.050   0.004
 8059SOL     OW34645   2.508   9.231   1.844
 8059SOL    HW134646   2.605   9.207   1.846
 8059SOL    HW234647   2.496   9.323   1.883
 8060SOL     OW34648   2.671   1.134   1.528
 8060SOL    HW134649   2.763   1.118   1.492
 8060SOL    HW234650   2.670   1.218   1.582
 8061SOL     OW34651   7.909   5.249   3.068
 8061SOL    HW134652   7.862   5.287   2.988
 8061SOL    HW234653   8.001   5.221   3.042
 8062SOL     OW34654   2.680   9.006   0.099
 8062SOL    HW134655   2.714   9.008   0.005
 8062SOL    HW234656   2.585   8.974   0.098
 8063SOL     OW34657   8.559   8.313   0.900
 8063SOL    HW134658   8.611   8.290   0.983
 8063SOL    HW234659   8.501   8.235   0.875
 8064SOL     OW34660   3.331   1.903   2.318
 8064SOL    HW134661   3.260   1.921   2.387
 8064SOL    HW234662   3.317   1.812   2.278
 8065SOL     OW34663   9.131   8.831   2.755
 8065SOL    HW134664   9.203   8.799   2.692
 8065SOL    HW234665   9.152   8.924   2.785
 8066SOL     OW34666   0.023   8.150   0.338
 8066SOL    HW134667   9.978   8.086   0.275
 8066SOL    HW234668   0.121   8.130   0.341
 8067SOL     OW34669   2.729   2.322   0.454
 8067SOL    HW134670   2.767   2.243   0.405
 8067SOL    HW234671   2.754   2.406   0.406
 8068SOL     OW34672   1.968   7.753   2.061
 8068SOL    HW134673   1.880   7.723   2.098
 8068SOL    HW234674   1.972   7.853   2.060
 8069SOL     OW34675   0.581   2.958   3.675
 8069SOL    HW134676   0.613   2.972   3.581
 8069SOL    HW234677   0.598   2.863   3.702
 8070SOL     OW34678   9.089   7.027   0.227
 8070SOL    HW134679   9.101   7.119   0.189
 8070SOL    HW234680   8.998   6.993   0.203
 8071SOL     OW34681   2.702   4.142   2.187
 8071SOL    HW134682   2.749   4.074   2.131
 8071SOL    HW234683   2.663   4.098   2.267
 8072SOL     OW34684   9.682   9.520   2.337
 8072SOL    HW134685   9.592   9.541   2.298
 8072SOL    HW234686   9.744   9.596   2.317
 8073SOL     OW34687   0.389   7.648   1.848
 8073SOL    HW134688   0.374   7.604   1.759
 8073SOL    HW234689   0.453   7.594   1.902
 8074SOL     OW34690   9.526   1.659   0.151
 8074SOL    HW134691   9.608   1.608   0.176
 8074SOL    HW234692   9.543   1.757   0.164
 8075SOL     OW34693   9.215   2.829   2.178
 8075SOL    HW134694   9.158   2.788   2.250
 8075SOL    HW234695   9.296   2.869   2.219
 8076SOL     OW34696   8.211   5.997   0.267
 8076SOL    HW134697   8.153   6.049   0.329
 8076SOL    HW234698   8.301   6.041   0.261
 8077SOL     OW34699   8.893   6.334   3.046
 8077SOL    HW134700   8.810   6.384   3.070
 8077SOL    HW234701   8.952   6.392   2.988
 8078SOL     OW34702   7.193   9.834   2.466
 8078SOL    HW134703   7.221   9.756   2.409
 8078SOL    HW234704   7.121   9.884   2.419
 8079SOL     OW34705   9.826   0.855   1.310
 8079SOL    HW134706   9.897   0.920   1.336
 8079SOL    HW234707   9.751   0.903   1.265
 8080SOL     OW34708   3.923   0.740   0.180
 8080SOL    HW134709   3.843   0.681   0.191
 8080SOL    HW234710   3.998   0.689   0.139
 8081SOL     OW34711   9.541   6.670   2.347
 8081SOL    HW134712   9.480   6.715   2.282
 8081SOL    HW234713   9.636   6.686   2.319
 8082SOL     OW34714   9.410   0.017   2.201
 8082SOL    HW134715   9.344   9.947   2.227
 8082SOL    HW234716   9.499   9.995   2.240
 8083SOL     OW34717   4.205   3.779   1.974
 8083SOL    HW134718   4.294   3.739   1.997
 8083SOL    HW234719   4.208   3.816   1.881
 8084SOL     OW34720   0.436   7.847   3.065
 8084SOL    HW134721   0.426   7.817   3.159
 8084SOL    HW234722   0.349   7.835   3.016
 8085SOL     OW34723   3.872   0.953   2.524
 8085SOL    HW134724   3.883   0.857   2.550
 8085SOL    HW234725   3.811   0.998   2.588
 8086SOL     OW34726   2.000   3.299   2.883
 8086SOL    HW134727   1.989   3.253   2.972
 8086SOL    HW234728   2.059   3.243   2.825
 8087SOL     OW34729   3.343   2.662   1.311
 8087SOL    HW134730   3.303   2.754   1.308
 8087SOL    HW234731   3.442   2.670   1.324
 8088SOL     OW34732   3.691   7.093   0.651
 8088SOL    HW134733   3.757   7.168   0.644
 8088SOL    HW234734   3.725   7.014   0.598
 8089SOL     OW34735   5.609   6.731   2.883
 8089SOL    HW134736   5.532   6.777   2.839
 8089SOL    HW234737   5.595   6.632   2.879
 8090SOL     OW34738   0.050   6.954   1.795
 8090SOL    HW134739   0.060   7.019   1.720
 8090SOL    HW234740   9.988   6.991   1.863
 8091SOL     OW34741   2.643   5.078   1.640
 8091SOL    HW134742   2.563   5.114   1.591
 8091SOL    HW234743   2.614   5.003   1.699
 8092SOL     OW34744   9.780   4.107   1.894
 8092SOL    HW134745   9.754   4.081   1.987
 8092SOL    HW234746   9.699   4.108   1.835
 8093SOL     OW34747   1.129   8.593   1.736
 8093SOL    HW134748   1.085   8.682   1.746
 8093SOL    HW234749   1.133   8.568   1.639
 8094SOL     OW34750   9.836   4.495   0.595
 8094SOL    HW134751   9.748   4.496   0.643
 8094SOL    HW234752   9.894   4.424   0.635
 8095SOL     OW34753   7.383   0.268   3.006
 8095SOL    HW134754   7.341   0.182   3.036
 8095SOL    HW234755   7.356   0.287   2.912
 8096SOL     OW34756   8.304   1.011   0.543
 8096SOL    HW134757   8.279   0.981   0.635
 8096SOL    HW234758   8.276   0.942   0.477
 8097SOL     OW34759   9.269   8.534   2.928
 8097SOL    HW134760   9.304   8.525   2.835
 8097SOL    HW234761   9.184   8.482   2.937
 8098SOL     OW34762   6.300   8.081   2.865
 8098SOL    HW134763   6.263   8.174   2.855
 8098SOL    HW234764   6.386   8.074   2.813
 8099SOL     OW34765   8.725   3.077   1.333
 8099SOL    HW134766   8.649   3.017   1.358
 8099SOL    HW234767   8.804   3.057   1.391
 8100SOL     OW34768   9.041   3.038   2.111
 8100SOL    HW134769   8.989   3.033   2.196
 8100SOL    HW234770   9.113   2.969   2.112
 8101SOL     OW34771   3.984   7.728   3.581
 8101SOL    HW134772   4.011   7.633   3.591
 8101SOL    HW234773   3.893   7.741   3.620
 8102SOL     OW34774   0.371   6.113   2.012
 8102SOL    HW134775   0.337   6.200   2.047
 8102SOL    HW234776   0.302   6.043   2.022
 8103SOL     OW34777   8.019   1.550   0.264
 8103SOL    HW134778   7.953   1.624   0.250
 8103SOL    HW234779   8.022   1.525   0.361
 8104SOL     OW34780   8.344   6.058   1.991
 8104SOL    HW134781   8.365   5.960   1.984
 8104SOL    HW234782   8.307   6.077   2.081
 8105SOL     OW34783   1.125   8.330   0.472
 8105SOL    HW134784   1.138   8.404   0.406
 8105SOL    HW234785   1.070   8.258   0.431
 8106SOL     OW34786   4.353   3.048   1.735
 8106SOL    HW134787   4.311   3.120   1.791
 8106SOL    HW234788   4.381   2.972   1.794
 8107SOL     OW34789   6.127   0.027   0.850
 8107SOL    HW134790   6.037   0.052   0.816
 8107SOL    HW234791   6.122   0.013   0.949
 8108SOL     OW34792   4.782   1.008   1.387
 8108SOL    HW134793   4.866   1.031   1.435
 8108SOL    HW234794   4.705   1.013   1.451
 8109SOL     OW34795   3.181   8.052   3.373
 8109SOL    HW134796   3.278   8.038   3.353
 8109SOL    HW234797   3.145   7.971   3.420
 8110SOL     OW34798   3.679   8.024   0.910
 8110SOL    HW134799   3.773   7.992   0.923
 8110SOL    HW234800   3.661   8.033   0.812
 8111SOL     OW34801   2.411   3.790   3.034
 8111SOL    HW134802   2.510   3.798   3.041
 8111SOL    HW234803   2.386   3.761   2.941
 8112SOL     OW34804   2.414   1.639   2.674
 8112SOL    HW134805   2.476   1.576   2.628
 8112SOL    HW234806   2.352   1.587   2.734
 8113SOL     OW34807   0.396   3.131   1.837
 8113SOL    HW134808   0.345   3.143   1.752
 8113SOL    HW234809   0.455   3.210   1.852
 8114SOL     OW34810   4.967   7.613   0.735
 8114SOL    HW134811   4.938   7.684   0.671
 8114SOL    HW234812   5.058   7.636   0.772
 8115SOL     OW34813   5.379   6.713   2.057
 8115SOL    HW134814   5.359   6.622   2.021
 8115SOL    HW234815   5.414   6.704   2.150
 8116SOL     OW34816   5.594   6.771   2.476
 8116SOL    HW134817   5.549   6.756   2.564
 8116SOL    HW234818   5.545   6.721   2.405
 8117SOL     OW34819   9.782   2.684   2.210
 8117SOL    HW134820   9.862   2.697   2.268
 8117SOL    HW234821   9.802   2.715   2.117
 8118SOL     OW34822   8.207   0.346   3.362
 8118SOL    HW134823   8.173   0.276   3.423
 8118SOL    HW234824   8.187   0.437   3.399
 8119SOL     OW34825   1.461   5.966   2.417
 8119SOL    HW134826   1.486   6.046   2.363
 8119SOL    HW234827   1.543   5.912   2.436
 8120SOL     OW34828   0.360   8.118   2.302
 8120SOL    HW134829   0.371   8.194   2.237
 8120SOL    HW234830   0.399   8.144   2.390
 8121SOL     OW34831   3.743   1.730   0.510
 8121SOL    HW134832   3.804   1.706   0.434
 8121SOL    HW234833   3.753   1.827   0.532
 8122SOL     OW34834   0.991   8.752   3.354
 8122SOL    HW134835   1.050   8.711   3.285
 8122SOL    HW234836   0.938   8.826   3.314
 8123SOL     OW34837   9.911   6.919   2.602
 8123SOL    HW134838   9.882   6.833   2.642
 8123SOL    HW234839   9.920   6.988   2.674
 8124SOL     OW34840   1.402   2.702   2.913
 8124SOL    HW134841   1.469   2.679   2.843
 8124SOL    HW234842   1.414   2.642   2.992
 8125SOL     OW34843   0.726   3.924   1.316
 8125SOL    HW134844   0.783   4.005   1.304
 8125SOL    HW234845   0.775   3.857   1.372
 8126SOL     OW34846   4.025   3.597   0.657
 8126SOL    HW134847   4.113   3.552   0.639
 8126SOL    HW234848   4.003   3.588   0.754
 8127SOL     OW34849   3.418   8.104   0.946
 8127SOL    HW134850   3.510   8.068   0.929
 8127SOL    HW234851   3.379   8.059   1.026
 8128SOL     OW34852   0.170   1.669   3.270
 8128SOL    HW134853   0.192   1.713   3.182
 8128SOL    HW234854   0.245   1.609   3.296
 8129SOL     OW34855   8.914   1.593   0.144
 8129SOL    HW134856   8.953   1.685   0.150
 8129SOL    HW234857   8.988   1.526   0.139
 8130SOL     OW34858   2.607   1.708   3.384
 8130SOL    HW134859   2.592   1.807   3.372
 8130SOL    HW234860   2.528   1.658   3.347
 8131SOL     OW34861   2.147   4.988   2.474
 8131SOL    HW134862   2.182   4.896   2.459
 8131SOL    HW234863   2.199   5.053   2.419
 8132SOL     OW34864   3.868   0.594   3.470
 8132SOL    HW134865   3.873   0.691   3.495
 8132SOL    HW234866   3.948   0.546   3.505
 8133SOL     OW34867   4.162   3.504   2.455
 8133SOL    HW134868   4.131   3.481   2.362
 8133SOL    HW234869   4.228   3.579   2.450
 8134SOL     OW34870   2.339   1.081   3.194
 8134SOL    HW134871   2.413   1.014   3.198
 8134SOL    HW234872   2.256   1.036   3.162
 8135SOL     OW34873   8.113   6.335   1.999
 8135SOL    HW134874   8.201   6.333   1.952
 8135SOL    HW234875   8.127   6.362   2.095
 8136SOL     OW34876   6.093   9.704   2.785
 8136SOL    HW134877   6.000   9.710   2.750
 8136SOL    HW234878   6.127   9.796   2.807
 8137SOL     OW34879   8.311   4.881   0.220
 8137SOL    HW134880   8.336   4.906   0.313
 8137SOL    HW234881   8.244   4.946   0.184
 8138SOL     OW34882   2.665   7.313   1.798
 8138SOL    HW134883   2.699   7.256   1.723
 8138SOL    HW234884   2.571   7.341   1.777
 8139SOL     OW34885   3.045   9.541   1.231
 8139SOL    HW134886   2.983   9.464   1.247
 8139SOL    HW234887   2.993   9.622   1.206
 8140SOL     OW34888   0.672   5.480   0.731
 8140SOL    HW134889   0.713   5.448   0.645
 8140SOL    HW234890   0.575   5.455   0.733
 8141SOL     OW34891   5.922   8.058   1.949
 8141SOL    HW134892   5.859   8.122   1.906
 8141SOL    HW234893   6.016   8.081   1.922
 8142SOL     OW34894   0.643   5.148   0.513
 8142SOL    HW134895   0.679   5.082   0.579
 8142SOL    HW234896   0.703   5.228   0.510
 8143SOL     OW34897   3.390   6.114   3.053
 8143SOL    HW134898   3.428   6.098   2.962
 8143SOL    HW234899   3.462   6.106   3.121
 8144SOL     OW34900   1.675   7.319   0.972
 8144SOL    HW134901   1.597   7.256   0.968
 8144SOL    HW234902   1.706   7.328   1.066
 8145SOL     OW34903   0.757   5.434   0.209
 8145SOL    HW134904   0.845   5.415   0.165
 8145SOL    HW234905   0.699   5.353   0.203
 8146SOL     OW34906   4.296   8.932   3.227
 8146SOL    HW134907   4.260   9.024   3.213
 8146SOL    HW234908   4.322   8.892   3.138
 8147SOL     OW34909   0.637   9.533   3.176
 8147SOL    HW134910   0.585   9.527   3.262
 8147SOL    HW234911   0.729   9.498   3.191
 8148SOL     OW34912   2.736   3.043   0.488
 8148SOL    HW134913   2.721   2.944   0.485
 8148SOL    HW234914   2.696   3.085   0.406
 8149SOL     OW34915   0.981   2.992   1.486
 8149SOL    HW134916   1.055   3.011   1.422
 8149SOL    HW234917   1.007   2.913   1.543
 8150SOL     OW34918   9.847   1.470   0.213
 8150SOL    HW134919   9.869   1.414   0.293
 8150SOL    HW234920   9.882   1.563   0.227
 8151SOL     OW34921   3.732   4.946   2.444
 8151SOL    HW134922   3.777   4.884   2.379
 8151SOL    HW234923   3.651   4.902   2.482
 8152SOL     OW34924   8.737   4.620   3.421
 8152SOL    HW134925   8.799   4.604   3.344
 8152SOL    HW234926   8.643   4.625   3.389
 8153SOL     OW34927   4.494   0.920   3.540
 8153SOL    HW134928   4.554   0.882   3.470
 8153SOL    HW234929   4.448   0.845   3.589
 8154SOL     OW34930   4.271   7.834   0.217
 8154SOL    HW134931   4.330   7.912   0.198
 8154SOL    HW234932   4.205   7.858   0.288
 8155SOL     OW34933   7.894   0.656   3.535
 8155SOL    HW134934   7.936   0.741   3.565
 8155SOL    HW234935   7.800   0.651   3.570
 8156SOL     OW34936   6.085   9.600   1.364
 8156SOL    HW134937   6.144   9.603   1.283
 8156SOL    HW234938   6.014   9.670   1.355
 8157SOL     OW34939   3.994   1.439   2.802
 8157SOL    HW134940   3.991   1.477   2.709
 8157SOL    HW234941   3.900   1.429   2.836
 8158SOL     OW34942   8.861   2.794   1.107
 8158SOL    HW134943   8.778   2.795   1.163
 8158SOL    HW234944   8.841   2.831   1.017
 8159SOL     OW34945   2.571   1.035   0.713
 8159SOL    HW134946   2.488   1.091   0.713
 8159SOL    HW234947   2.551   0.946   0.673
 8160SOL     OW34948   4.668   7.472   2.175
 8160SOL    HW134949   4.730   7.506   2.103
 8160SOL    HW234950   4.575   7.502   2.155
 8161SOL     OW34951   4.219   3.755   3.315
 8161SOL    HW134952   4.162   3.814   3.257
 8161SOL    HW234953   4.202   3.777   3.411
 8162SOL     OW34954   5.628   0.008   0.974
 8162SOL    HW134955   5.558   9.937   0.973
 8162SOL    HW234956   5.611   0.072   1.049
 8163SOL     OW34957   3.238   1.193   1.756
 8163SOL    HW134958   3.301   1.150   1.821
 8163SOL    HW234959   3.196   1.122   1.699
 8164SOL     OW34960   9.802   7.340   2.095
 8164SOL    HW134961   9.810   7.421   2.153
 8164SOL    HW234962   9.860   7.267   2.132
 8165SOL     OW34963   3.346   5.368   3.284
 8165SOL    HW134964   3.438   5.394   3.313
 8165SOL    HW234965   3.282   5.442   3.305
 8166SOL     OW34966   1.786   2.081   2.409
 8166SOL    HW134967   1.822   2.144   2.340
 8166SOL    HW234968   1.690   2.103   2.427
 8167SOL     OW34969   1.412   1.011   3.420
 8167SOL    HW134970   1.342   0.991   3.351
 8167SOL    HW234971   1.392   0.959   3.503
 8168SOL     OW34972   2.484   5.988   0.135
 8168SOL    HW134973   2.529   6.076   0.122
 8168SOL    HW234974   2.552   5.919   0.161
 8169SOL     OW34975   2.062   1.186   0.706
 8169SOL    HW134976   2.027   1.273   0.672
 8169SOL    HW234977   2.016   1.111   0.660
 8170SOL     OW34978   1.695   7.742   0.456
 8170SOL    HW134979   1.598   7.744   0.482
 8170SOL    HW234980   1.722   7.832   0.422
 8171SOL     OW34981   3.946   1.449   1.639
 8171SOL    HW134982   3.984   1.372   1.590
 8171SOL    HW234983   3.912   1.517   1.574
 8172SOL     OW34984   6.918   6.840   3.263
 8172SOL    HW134985   7.004   6.879   3.296
 8172SOL    HW234986   6.869   6.909   3.210
 8173SOL     OW34987   4.747   8.930   1.371
 8173SOL    HW134988   4.773   8.993   1.298
 8173SOL    HW234989   4.795   8.954   1.456
 8174SOL     OW34990   8.198   5.613   3.225
 8174SOL    HW134991   8.250   5.683   3.275
 8174SOL    HW234992   8.214   5.523   3.266
 8175SOL     OW34993   9.421   9.177   0.159
 8175SOL    HW134994   9.389   9.266   0.126
 8175SOL    HW234995   9.353   9.108   0.139
 8176SOL     OW34996   5.265   0.806   1.713
 8176SOL    HW134997   5.241   0.780   1.620
 8176SOL    HW234998   5.184   0.843   1.759
 8177SOL     OW34999   3.235   8.607   0.536
 8177SOL    HW135000   3.294   8.625   0.616
 8177SOL    HW235001   3.185   8.521   0.550
 8178SOL     OW35002   1.113   6.190   2.934
 8178SOL    HW135003   1.173   6.220   2.859
 8178SOL    HW235004   1.114   6.258   3.006
 8179SOL     OW35005   9.043   8.380   2.950
 8179SOL    HW135006   9.077   8.300   3.001
 8179SOL    HW235007   8.985   8.350   2.875
 8180SOL     OW35008   8.684   2.899   0.555
 8180SOL    HW135009   8.706   2.810   0.515
 8180SOL    HW235010   8.767   2.940   0.592
 8181SOL     OW35011   8.268   3.583   0.037
 8181SOL    HW135012   8.262   3.530   4.733
 8181SOL    HW235013   8.208   3.663   0.030
 8182SOL     OW35014   0.086   3.781   0.351
 8182SOL    HW135015   0.150   3.720   0.306
 8182SOL    HW235016   9.993   3.743   0.345
 8183SOL     OW35017   3.523   5.217   0.385
 8183SOL    HW135018   3.571   5.152   0.326
 8183SOL    HW235019   3.426   5.193   0.390
 8184SOL     OW35020   9.861   5.878   2.370
 8184SOL    HW135021   9.843   5.842   2.279
 8184SOL    HW235022   9.774   5.901   2.414
 8185SOL     OW35023   6.448   7.138   2.193
 8185SOL    HW135024   6.428   7.169   2.100
 8185SOL    HW235025   6.537   7.174   2.222
 8186SOL     OW35026   8.910   6.884   0.589
 8186SOL    HW135027   8.853   6.907   0.668
 8186SOL    HW235028   8.966   6.962   0.564
 8187SOL     OW35029   0.183   7.788   2.687
 8187SOL    HW135030   0.191   7.819   2.782
 8187SOL    HW235031   0.100   7.735   2.676
 8188SOL     OW35032   9.403   7.347   2.728
 8188SOL    HW135033   9.422   7.379   2.821
 8188SOL    HW235034   9.304   7.348   2.712
 8189SOL     OW35035   3.694   7.055   0.124
 8189SOL    HW135036   3.618   6.993   0.108
 8189SOL    HW235037   3.753   7.058   0.043
 8190SOL     OW35038   1.745   1.385   2.545
 8190SOL    HW135039   1.695   1.466   2.513
 8190SOL    HW235040   1.680   1.319   2.583
 8191SOL     OW35041   1.199   5.873   1.899
 8191SOL    HW135042   1.232   5.778   1.898
 8191SOL    HW235043   1.263   5.931   1.849
 8192SOL     OW35044   3.159   7.596   3.481
 8192SOL    HW135045   3.122   7.689   3.488
 8192SOL    HW235046   3.121   7.551   3.401
 8193SOL     OW35047   5.496   0.831   3.525
 8193SOL    HW135048   5.564   0.775   3.479
 8193SOL    HW235049   5.479   0.914   3.472
 8194SOL     OW35050   1.965   2.466   0.751
 8194SOL    HW135051   1.936   2.377   0.785
 8194SOL    HW235052   2.000   2.521   0.827
 8195SOL     OW35053   9.376   2.015   3.108
 8195SOL    HW135054   9.466   2.036   3.068
 8195SOL    HW235055   9.385   2.006   3.207
 8196SOL     OW35056   3.244   7.577   3.092
 8196SOL    HW135057   3.256   7.676   3.085
 8196SOL    HW235058   3.174   7.555   3.160
 8197SOL     OW35059   1.659   1.552   1.958
 8197SOL    HW135060   1.683   1.468   2.008
 8197SOL    HW235061   1.711   1.556   1.873
 8198SOL     OW35062   1.665   5.107   1.826
 8198SOL    HW135063   1.680   5.009   1.811
 8198SOL    HW235064   1.672   5.155   1.738
 8199SOL     OW35065   8.529   2.121   0.561
 8199SOL    HW135066   8.587   2.128   0.480
 8199SOL    HW235067   8.486   2.031   0.564
 8200SOL     OW35068   2.046   0.321   3.337
 8200SOL    HW135069   2.062   0.387   3.263
 8200SOL    HW235070   1.952   0.288   3.333
 8201SOL     OW35071   0.835   0.235   0.554
 8201SOL    HW135072   0.832   0.334   0.568
 8201SOL    HW235073   0.859   0.216   0.459
 8202SOL     OW35074   2.338   8.327   1.440
 8202SOL    HW135075   2.334   8.261   1.515
 8202SOL    HW235076   2.380   8.284   1.360
 8203SOL     OW35077   9.343   7.750   0.307
 8203SOL    HW135078   9.271   7.803   0.261
 8203SOL    HW235079   9.301   7.690   0.375
 8204SOL     OW35080   8.327   7.204   0.730
 8204SOL    HW135081   8.418   7.188   0.768
 8204SOL    HW235082   8.326   7.178   0.634
 8205SOL     OW35083   4.652   2.864   1.334
 8205SOL    HW135084   4.553   2.858   1.341
 8205SOL    HW235085   4.690   2.885   1.425
 8206SOL     OW35086   6.315   9.979   2.634
 8206SOL    HW135087   6.257   9.978   2.716
 8206SOL    HW235088   6.399   9.928   2.653
 8207SOL     OW35089   2.212   4.082   2.912
 8207SOL    HW135090   2.205   4.181   2.927
 8207SOL    HW235091   2.304   4.059   2.881
 8208SOL     OW35092   8.894   6.270   2.387
 8208SOL    HW135093   8.889   6.179   2.428
 8208SOL    HW235094   8.802   6.306   2.373
 8209SOL     OW35095   4.896   9.265   3.417
 8209SOL    HW135096   4.839   9.196   3.372
 8209SOL    HW235097   4.953   9.220   3.486
 8210SOL     OW35098   9.929   0.132   1.575
 8210SOL    HW135099   9.838   0.171   1.587
 8210SOL    HW235100   9.970   0.115   1.664
 8211SOL     OW35101   0.933   1.117   1.078
 8211SOL    HW135102   0.926   1.081   1.171
 8211SOL    HW235103   0.893   1.053   1.013
 8212SOL     OW35104   8.673   9.626   2.357
 8212SOL    HW135105   8.738   9.551   2.348
 8212SOL    HW235106   8.588   9.591   2.397
 8213SOL     OW35107   8.747   2.404   3.123
 8213SOL    HW135108   8.837   2.361   3.114
 8213SOL    HW235109   8.754   2.500   3.094
 8214SOL     OW35110   1.705   7.001   0.575
 8214SOL    HW135111   1.674   7.096   0.570
 8214SOL    HW235112   1.771   6.991   0.649
 8215SOL     OW35113   9.537   7.475   3.345
 8215SOL    HW135114   9.447   7.517   3.333
 8215SOL    HW235115   9.529   7.394   3.403
 8216SOL     OW35116   1.049   9.809   3.168
 8216SOL    HW135117   1.073   9.904   3.183
 8216SOL    HW235118   0.951   9.796   3.184
 8217SOL     OW35119   9.001   6.277   0.241
 8217SOL    HW135120   9.092   6.294   0.204
 8217SOL    HW235121   8.980   6.180   0.234
 8218SOL     OW35122   9.107   8.061   3.587
 8218SOL    HW135123   9.072   8.128   3.652
 8218SOL    HW235124   9.201   8.038   3.610
 8219SOL     OW35125   4.652   3.131   0.781
 8219SOL    HW135126   4.725   3.116   0.848
 8219SOL    HW235127   4.656   3.226   0.749
 8220SOL     OW35128   3.381   3.072   2.026
 8220SOL    HW135129   3.300   3.131   2.023
 8220SOL    HW235130   3.366   2.997   2.090
 8221SOL     OW35131   3.514   2.003   1.013
 8221SOL    HW135132   3.422   1.985   1.048
 8221SOL    HW235133   3.581   1.959   1.072
 8222SOL     OW35134   0.341   5.127   2.765
 8222SOL    HW135135   0.286   5.210   2.771
 8222SOL    HW235136   0.366   5.096   2.857
 8223SOL     OW35137   9.444   2.968   1.004
 8223SOL    HW135138   9.501   3.017   0.938
 8223SOL    HW235139   9.400   3.034   1.066
 8224SOL     OW35140   1.677   4.646   3.250
 8224SOL    HW135141   1.643   4.614   3.161
 8224SOL    HW235142   1.637   4.735   3.270
 8225SOL     OW35143   0.156   8.378   2.662
 8225SOL    HW135144   0.150   8.395   2.563
 8225SOL    HW235145   0.196   8.288   2.678
 8226SOL     OW35146   9.341   5.420   3.576
 8226SOL    HW135147   9.257   5.396   3.625
 8226SOL    HW235148   9.321   5.422   3.477
 8227SOL     OW35149   9.011   5.054   3.045
 8227SOL    HW135150   9.083   5.111   3.005
 8227SOL    HW235151   9.003   5.074   3.142
 8228SOL     OW35152   1.697   3.276   2.044
 8228SOL    HW135153   1.676   3.180   2.027
 8228SOL    HW235154   1.614   3.323   2.073
 8229SOL     OW35155   0.388   6.710   2.069
 8229SOL    HW135156   0.466   6.655   2.039
 8229SOL    HW235157   0.320   6.652   2.114
 8230SOL     OW35158   1.550   4.204   0.735
 8230SOL    HW135159   1.647   4.209   0.709
 8230SOL    HW235160   1.526   4.109   0.755
 8231SOL     OW35161   1.435   1.656   0.428
 8231SOL    HW135162   1.445   1.748   0.466
 8231SOL    HW235163   1.455   1.588   0.498
 8232SOL     OW35164   7.928   8.520   2.833
 8232SOL    HW135165   7.877   8.527   2.748
 8232SOL    HW235166   7.982   8.604   2.846
 8233SOL     OW35167   4.488   8.149   1.981
 8233SOL    HW135168   4.459   8.209   1.907
 8233SOL    HW235169   4.585   8.129   1.972
 8234SOL     OW35170   0.761   4.639   0.296
 8234SOL    HW135171   0.727   4.555   0.336
 8234SOL    HW235172   0.687   4.684   0.245
 8235SOL     OW35173   2.378   4.199   1.708
 8235SOL    HW135174   2.467   4.208   1.665
 8235SOL    HW235175   2.382   4.128   1.779
 8236SOL     OW35176   1.269   2.352   2.141
 8236SOL    HW135177   1.246   2.323   2.048
 8236SOL    HW235178   1.305   2.274   2.192
 8237SOL     OW35179   4.652   9.752   3.011
 8237SOL    HW135180   4.709   9.670   3.012
 8237SOL    HW235181   4.639   9.786   3.104
 8238SOL     OW35182   9.708   9.171   0.778
 8238SOL    HW135183   9.700   9.221   0.691
 8238SOL    HW235184   9.803   9.142   0.791
 8239SOL     OW35185   3.375   2.869   2.218
 8239SOL    HW135186   3.313   2.795   2.191
 8239SOL    HW235187   3.457   2.830   2.259
 8240SOL     OW35188   0.026   4.910   2.249
 8240SOL    HW135189   0.034   4.865   2.160
 8240SOL    HW235190   9.931   4.938   2.264
 8241SOL     OW35191   4.709   8.955   2.667
 8241SOL    HW135192   4.777   8.887   2.639
 8241SOL    HW235193   4.642   8.968   2.593
 8242SOL     OW35194   0.773   7.633   1.293
 8242SOL    HW135195   0.758   7.563   1.363
 8242SOL    HW235196   0.845   7.695   1.323
 8243SOL     OW35197   2.516   6.990   1.332
 8243SOL    HW135198   2.593   7.017   1.275
 8243SOL    HW235199   2.550   6.960   1.421
 8244SOL     OW35200   3.376   3.959   1.290
 8244SOL    HW135201   3.456   3.961   1.231
 8244SOL    HW235202   3.381   4.036   1.355
 8245SOL     OW35203   4.159   8.722   3.356
 8245SOL    HW135204   4.190   8.637   3.314
 8245SOL    HW235205   4.194   8.800   3.304
 8246SOL     OW35206   1.424   4.316   0.959
 8246SOL    HW135207   1.468   4.279   0.877
 8246SOL    HW235208   1.458   4.268   1.040
 8247SOL     OW35209   1.643   7.978   3.134
 8247SOL    HW135210   1.703   7.937   3.203
 8247SOL    HW235211   1.695   8.044   3.080
 8248SOL     OW35212   7.452   1.975   3.125
 8248SOL    HW135213   7.509   2.047   3.166
 8248SOL    HW235214   7.433   1.905   3.194
 8249SOL     OW35215   0.175   0.359   1.040
 8249SOL    HW135216   0.165   0.416   0.958
 8249SOL    HW235217   0.087   0.319   1.064
 8250SOL     OW35218   3.170   3.370   2.944
 8250SOL    HW135219   3.163   3.398   2.848
 8250SOL    HW235220   3.107   3.424   2.999
 8251SOL     OW35221   4.094   3.543   1.344
 8251SOL    HW135222   4.077   3.495   1.430
 8251SOL    HW235223   4.039   3.626   1.340
 8252SOL     OW35224   1.214   8.767   2.841
 8252SOL    HW135225   1.230   8.815   2.755
 8252SOL    HW235226   1.258   8.677   2.838
 8253SOL     OW35227   9.361   9.027   3.707
 8253SOL    HW135228   9.312   9.090   3.767
 8253SOL    HW235229   9.325   9.034   3.614
 8254SOL     OW35230   0.802   5.949   2.133
 8254SOL    HW135231   0.811   6.040   2.093
 8254SOL    HW235232   0.706   5.932   2.155
 8255SOL     OW35233   2.473   2.768   3.574
 8255SOL    HW135234   2.491   2.855   3.620
 8255SOL    HW235235   2.415   2.784   3.494
 8256SOL     OW35236   8.227   2.592   2.961
 8256SOL    HW135237   8.270   2.676   2.927
 8256SOL    HW235238   8.202   2.534   2.884
 8257SOL     OW35239   4.674   0.935   0.528
 8257SOL    HW135240   4.671   1.028   0.564
 8257SOL    HW235241   4.650   0.871   0.601
 8258SOL     OW35242   1.472   5.615   1.544
 8258SOL    HW135243   1.452   5.667   1.461
 8258SOL    HW235244   1.440   5.520   1.533
 8259SOL     OW35245   4.937   0.633   2.412
 8259SOL    HW135246   4.899   0.714   2.367
 8259SOL    HW235247   4.894   0.551   2.373
 8260SOL     OW35248   5.765   8.210   3.284
 8260SOL    HW135249   5.698   8.142   3.257
 8260SOL    HW235250   5.756   8.291   3.226
 8261SOL     OW35251   3.515   8.389   1.960
 8261SOL    HW135252   3.508   8.319   2.031
 8261SOL    HW235253   3.580   8.459   1.988
 8262SOL     OW35254   6.770   9.178   3.155
 8262SOL    HW135255   6.791   9.276   3.164
 8262SOL    HW235256   6.673   9.164   3.172
 8263SOL     OW35257   8.085   1.061   2.228
 8263SOL    HW135258   8.013   1.004   2.190
 8263SOL    HW235259   8.063   1.085   2.323
 8264SOL     OW35260   0.435   7.055   2.669
 8264SOL    HW135261   0.478   7.130   2.619
 8264SOL    HW235262   0.496   6.976   2.671
 8265SOL     OW35263   2.380   8.114   1.621
 8265SOL    HW135264   2.467   8.073   1.647
 8265SOL    HW235265   2.342   8.066   1.542
 8266SOL     OW35266   8.373   0.503   0.883
 8266SOL    HW135267   8.451   0.546   0.929
 8266SOL    HW235268   8.345   0.422   0.934
 8267SOL     OW35269   0.551   9.998   2.949
 8267SOL    HW135270   0.523   9.951   3.032
 8267SOL    HW235271   0.554   9.932   2.873
 8268SOL     OW35272   4.060   1.964   3.085
 8268SOL    HW135273   4.033   1.868   3.081
 8268SOL    HW235274   4.117   1.986   3.006
 8269SOL     OW35275   3.030   1.605   2.848
 8269SOL    HW135276   2.974   1.539   2.899
 8269SOL    HW235277   3.125   1.573   2.844
 8270SOL     OW35278   5.101   7.931   3.087
 8270SOL    HW135279   5.109   7.832   3.074
 8270SOL    HW235280   5.154   7.959   3.167
 8271SOL     OW35281   8.413   6.713   0.209
 8271SOL    HW135282   8.420   6.805   0.169
 8271SOL    HW235283   8.360   6.655   0.148
 8272SOL     OW35284   2.041   8.078   0.480
 8272SOL    HW135285   2.116   8.134   0.517
 8272SOL    HW235286   2.052   7.983   0.510
 8273SOL     OW35287   4.647   9.247   1.668
 8273SOL    HW135288   4.674   9.297   1.750
 8273SOL    HW235289   4.622   9.154   1.693
 8274SOL     OW35290   9.132   4.463   3.365
 8274SOL    HW135291   9.195   4.442   3.290
 8274SOL    HW235292   9.163   4.418   3.448
 8275SOL     OW35293   5.008   9.493   1.518
 8275SOL    HW135294   4.978   9.575   1.470
 8275SOL    HW235295   5.076   9.445   1.463
 8276SOL     OW35296   3.772   8.480   0.506
 8276SOL    HW135297   3.702   8.547   0.528
 8276SOL    HW235298   3.810   8.442   0.591
 8277SOL     OW35299   5.755   9.424   2.737
 8277SOL    HW135300   5.818   9.397   2.664
 8277SOL    HW235301   5.668   9.376   2.727
 8278SOL     OW35302   1.832   1.991   0.884
 8278SOL    HW135303   1.882   2.077   0.894
 8278SOL    HW235304   1.890   1.915   0.913
 8279SOL     OW35305   8.731   4.157   0.406
 8279SOL    HW135306   8.712   4.172   0.309
 8279SOL    HW235307   8.826   4.127   0.417
 8280SOL     OW35308   2.418   3.254   2.321
 8280SOL    HW135309   2.455   3.165   2.295
 8280SOL    HW235310   2.460   3.325   2.265
 8281SOL     OW35311   1.556   2.975   0.245
 8281SOL    HW135312   1.566   2.954   0.342
 8281SOL    HW235313   1.499   3.056   0.234
 8282SOL     OW35314   5.289   1.275   3.320
 8282SOL    HW135315   5.273   1.370   3.347
 8282SOL    HW235316   5.285   1.267   3.221
 8283SOL     OW35317   4.727   8.271   1.328
 8283SOL    HW135318   4.781   8.342   1.374
 8283SOL    HW235319   4.630   8.292   1.338
 8284SOL     OW35320   2.148   2.962   2.132
 8284SOL    HW135321   2.050   2.970   2.112
 8284SOL    HW235322   2.171   3.022   2.209
 8285SOL     OW35323   1.026   4.458   3.099
 8285SOL    HW135324   0.985   4.445   3.190
 8285SOL    HW235325   1.120   4.425   3.101
 8286SOL     OW35326   2.553   1.924   0.666
 8286SOL    HW135327   2.580   1.917   0.570
 8286SOL    HW235328   2.516   1.836   0.697
 8287SOL     OW35329   7.392   8.509   2.458
 8287SOL    HW135330   7.328   8.530   2.532
 8287SOL    HW235331   7.350   8.444   2.394
 8288SOL     OW35332   0.035   1.203   2.255
 8288SOL    HW135333   9.999   1.184   2.346
 8288SOL    HW235334   9.981   1.275   2.212
 8289SOL     OW35335   2.901   9.827   0.855
 8289SOL    HW135336   2.807   9.821   0.822
 8289SOL    HW235337   2.956   9.878   0.788
 8290SOL     OW35338   0.294   0.331   2.817
 8290SOL    HW135339   0.376   0.318   2.872
 8290SOL    HW235340   0.214   0.299   2.869
 8291SOL     OW35341   0.106   5.355   0.910
 8291SOL    HW135342   0.075   5.341   1.004
 8291SOL    HW235343   0.158   5.440   0.904
 8292SOL     OW35344   4.828   7.065   3.407
 8292SOL    HW135345   4.841   7.022   3.317
 8292SOL    HW235346   4.886   7.146   3.414
 8293SOL     OW35347   7.076   9.388   1.519
 8293SOL    HW135348   7.176   9.380   1.519
 8293SOL    HW235349   7.050   9.480   1.490
 8294SOL     OW35350   1.138   8.461   2.945
 8294SOL    HW135351   1.193   8.430   3.022
 8294SOL    HW235352   1.197   8.481   2.867
 8295SOL     OW35353   0.244   6.627   1.140
 8295SOL    HW135354   0.147   6.642   1.159
 8295SOL    HW235355   0.299   6.664   1.215
 8296SOL     OW35356   9.191   2.070   0.848
 8296SOL    HW135357   9.230   1.978   0.843
 8296SOL    HW235358   9.129   2.076   0.926
 8297SOL     OW35359   0.035   9.341   0.173
 8297SOL    HW135360   0.104   9.403   0.210
 8297SOL    HW235361   9.944   9.371   0.200
 8298SOL     OW35362   4.665   2.264   0.656
 8298SOL    HW135363   4.665   2.239   0.753
 8298SOL    HW235364   4.639   2.360   0.646
 8299SOL     OW35365   2.038   8.010   1.244
 8299SOL    HW135366   2.023   7.963   1.157
 8299SOL    HW235367   1.986   7.963   1.316
 8300SOL     OW35368   8.086   6.410   3.555
 8300SOL    HW135369   8.109   6.422   3.458
 8300SOL    HW235370   8.171   6.402   3.607
 8301SOL     OW35371   2.931   3.631   2.367
 8301SOL    HW135372   2.967   3.661   2.279
 8301SOL    HW235373   2.938   3.532   2.374
 8302SOL     OW35374   4.026   0.783   3.143
 8302SOL    HW135375   4.066   0.848   3.207
 8302SOL    HW235376   4.087   0.771   3.065
 8303SOL     OW35377   7.227   9.428   0.383
 8303SOL    HW135378   7.273   9.504   0.336
 8303SOL    HW235379   7.180   9.371   0.315
 8304SOL     OW35380   0.080   9.937   2.052
 8304SOL    HW135381   0.128   0.006   2.106
 8304SOL    HW235382   9.982   9.957   2.052
 8305SOL     OW35383   0.270   6.564   3.238
 8305SOL    HW135384   0.178   6.575   3.201
 8305SOL    HW235385   0.269   6.494   3.310
 8306SOL     OW35386   0.750   5.652   3.190
 8306SOL    HW135387   0.667   5.615   3.232
 8306SOL    HW235388   0.736   5.659   3.091
 8307SOL     OW35389   7.296   4.888   0.536
 8307SOL    HW135390   7.378   4.930   0.574
 8307SOL    HW235391   7.226   4.958   0.521
 8308SOL     OW35392   2.100   3.446   3.300
 8308SOL    HW135393   2.142   3.502   3.228
 8308SOL    HW235394   2.001   3.450   3.292
 8309SOL     OW35395   0.843   7.205   0.803
 8309SOL    HW135396   0.744   7.193   0.801
 8309SOL    HW235397   0.887   7.124   0.764
 8310SOL     OW35398   7.526   5.437   3.017
 8310SOL    HW135399   7.511   5.528   3.055
 8310SOL    HW235400   7.440   5.402   2.978
 8311SOL     OW35401   1.414   8.096   1.989
 8311SOL    HW135402   1.392   8.146   1.905
 8311SOL    HW235403   1.369   8.007   1.988
 8312SOL     OW35404   0.535   2.673   2.256
 8312SOL    HW135405   0.619   2.716   2.290
 8312SOL    HW235406   0.467   2.743   2.236
 8313SOL     OW35407   4.529   1.245   2.600
 8313SOL    HW135408   4.559   1.288   2.685
 8313SOL    HW235409   4.606   1.199   2.556
 8314SOL     OW35410   1.148   3.012   0.784
 8314SOL    HW135411   1.218   3.047   0.723
 8314SOL    HW235412   1.184   2.934   0.835
 8315SOL     OW35413   6.538   0.223   1.516
 8315SOL    HW135414   6.527   0.242   1.614
 8315SOL    HW235415   6.623   0.172   1.502
 8316SOL     OW35416   8.791   5.923   1.846
 8316SOL    HW135417   8.733   5.976   1.785
 8316SOL    HW235418   8.852   5.985   1.897
 8317SOL     OW35419   7.987   6.006   3.236
 8317SOL    HW135420   7.998   6.058   3.320
 8317SOL    HW235421   7.971   5.910   3.258
 8318SOL     OW35422   2.445   6.687   0.643
 8318SOL    HW135423   2.461   6.783   0.668
 8318SOL    HW235424   2.478   6.628   0.716
 8319SOL     OW35425   8.452   0.163   2.155
 8319SOL    HW135426   8.476   0.122   2.067
 8319SOL    HW235427   8.449   0.092   2.225
 8320SOL     OW35428   3.874   2.275   1.593
 8320SOL    HW135429   3.859   2.372   1.573
 8320SOL    HW235430   3.885   2.262   1.691
 8321SOL     OW35431   8.978   4.549   0.604
 8321SOL    HW135432   8.885   4.547   0.568
 8321SOL    HW235433   8.978   4.586   0.697
 8322SOL     OW35434   6.172   7.730   3.122
 8322SOL    HW135435   6.097   7.782   3.080
 8322SOL    HW235436   6.239   7.793   3.160
 8323SOL     OW35437   7.421   1.290   2.256
 8323SOL    HW135438   7.330   1.314   2.289
 8323SOL    HW235439   7.482   1.272   2.334
 8324SOL     OW35440   0.483   8.357   3.010
 8324SOL    HW135441   0.431   8.431   3.053
 8324SOL    HW235442   0.574   8.353   3.051
 8325SOL     OW35443   7.194   6.996   2.489
 8325SOL    HW135444   7.261   7.006   2.415
 8325SOL    HW235445   7.103   7.017   2.454
 8326SOL     OW35446   0.746   1.414   1.334
 8326SOL    HW135447   0.823   1.475   1.350
 8326SOL    HW235448   0.761   1.328   1.382
 8327SOL     OW35449   3.346   7.057   2.906
 8327SOL    HW135450   3.278   7.077   2.977
 8327SOL    HW235451   3.438   7.064   2.945
 8328SOL     OW35452   8.989   6.890   1.332
 8328SOL    HW135453   8.995   6.893   1.431
 8328SOL    HW235454   8.987   6.794   1.301
 8329SOL     OW35455   8.038   1.344   3.037
 8329SOL    HW135456   7.993   1.431   3.059
 8329SOL    HW235457   8.134   1.349   3.063
 8330SOL     OW35458   7.344   8.473   3.711
 8330SOL    HW135459   7.249   8.504   3.714
 8330SOL    HW235460   7.368   8.429   3.798
 8331SOL     OW35461   0.513   7.200   2.260
 8331SOL    HW135462   0.504   7.102   2.241
 8331SOL    HW235463   0.425   7.245   2.242
 8332SOL     OW35464   9.042   4.777   3.071
 8332SOL    HW135465   9.032   4.874   3.053
 8332SOL    HW235466   9.111   4.739   3.009
 8333SOL     OW35467   2.432   4.653   2.822
 8333SOL    HW135468   2.452   4.663   2.920
 8333SOL    HW235469   2.466   4.565   2.790
 8334SOL     OW35470   9.423   3.779   0.570
 8334SOL    HW135471   9.506   3.774   0.626
 8334SOL    HW235472   9.350   3.822   0.623
 8335SOL     OW35473   2.630   0.109   1.768
 8335SOL    HW135474   2.627   0.116   1.868
 8335SOL    HW235475   2.706   0.164   1.733
 8336SOL     OW35476   1.784   6.078   3.348
 8336SOL    HW135477   1.740   5.989   3.357
 8336SOL    HW235478   1.826   6.085   3.257
 8337SOL     OW35479   1.527   7.554   3.452
 8337SOL    HW135480   1.495   7.475   3.504
 8337SOL    HW235481   1.454   7.622   3.446
 8338SOL     OW35482   8.468   7.788   2.650
 8338SOL    HW135483   8.421   7.772   2.564
 8338SOL    HW235484   8.418   7.743   2.724
 8339SOL     OW35485   3.433   4.805   1.188
 8339SOL    HW135486   3.518   4.776   1.232
 8339SOL    HW235487   3.436   4.903   1.171
 8340SOL     OW35488   5.338   1.207   2.651
 8340SOL    HW135489   5.266   1.157   2.603
 8340SOL    HW235490   5.401   1.141   2.694
 8341SOL     OW35491   1.388   6.630   3.319
 8341SOL    HW135492   1.386   6.674   3.408
 8341SOL    HW235493   1.480   6.595   3.301
 8342SOL     OW35494   2.697   8.793   0.289
 8342SOL    HW135495   2.680   8.875   0.236
 8342SOL    HW235496   2.638   8.792   0.370
 8343SOL     OW35497   3.675   4.519   0.618
 8343SOL    HW135498   3.737   4.478   0.551
 8343SOL    HW235499   3.637   4.604   0.580
 8344SOL     OW35500   0.168   3.178   2.829
 8344SOL    HW135501   0.214   3.265   2.810
 8344SOL    HW235502   0.105   3.156   2.754
 8345SOL     OW35503   8.287   3.311   1.556
 8345SOL    HW135504   8.350   3.235   1.568
 8345SOL    HW235505   8.251   3.311   1.462
 8346SOL     OW35506   0.832   5.992   0.195
 8346SOL    HW135507   0.793   5.966   0.107
 8346SOL    HW235508   0.932   5.993   0.187
 8347SOL     OW35509   2.235   3.978   1.486
 8347SOL    HW135510   2.324   4.003   1.523
 8347SOL    HW235511   2.182   4.062   1.468
 8348SOL     OW35512   1.328   9.039   1.530
 8348SOL    HW135513   1.332   9.139   1.535
 8348SOL    HW235514   1.321   9.001   1.622
 8349SOL     OW35515   9.517   0.294   3.414
 8349SOL    HW135516   9.554   0.386   3.413
 8349SOL    HW235517   9.482   0.273   3.506
 8350SOL     OW35518   9.007   5.603   2.616
 8350SOL    HW135519   8.995   5.639   2.708
 8350SOL    HW235520   8.933   5.539   2.595
 8351SOL     OW35521   5.267   7.222   2.555
 8351SOL    HW135522   5.184   7.250   2.507
 8351SOL    HW235523   5.296   7.296   2.616
 8352SOL     OW35524   3.556   7.254   3.654
 8352SOL    HW135525   3.489   7.312   3.608
 8352SOL    HW235526   3.534   7.158   3.636
 8353SOL     OW35527   9.577   7.566   1.768
 8353SOL    HW135528   9.529   7.548   1.682
 8353SOL    HW235529   9.600   7.480   1.812
 8354SOL     OW35530   8.025   9.079   2.616
 8354SOL    HW135531   7.943   9.039   2.655
 8354SOL    HW235532   8.059   9.020   2.542
 8355SOL     OW35533   8.872   7.226   2.410
 8355SOL    HW135534   8.841   7.295   2.475
 8355SOL    HW235535   8.843   7.135   2.443
 8356SOL     OW35536   0.046   3.969   3.004
 8356SOL    HW135537   0.020   4.045   3.063
 8356SOL    HW235538   0.046   3.884   3.056
 8357SOL     OW35539   3.912   0.091   1.120
 8357SOL    HW135540   3.821   0.125   1.096
 8357SOL    HW235541   3.906   0.033   1.201
 8358SOL     OW35542   3.199   8.993   1.644
 8358SOL    HW135543   3.128   8.971   1.712
 8358SOL    HW235544   3.190   8.931   1.566
 8359SOL     OW35545   5.297   3.545   0.336
 8359SOL    HW135546   5.219   3.590   0.292
 8359SOL    HW235547   5.263   3.476   0.400
 8360SOL     OW35548   9.589   9.789   0.156
 8360SOL    HW135549   9.562   9.870   0.209
 8360SOL    HW235550   9.609   9.816   0.062
 8361SOL     OW35551   3.468   1.071   1.160
 8361SOL    HW135552   3.567   1.076   1.170
 8361SOL    HW235553   3.438   0.976   1.167
 8362SOL     OW35554   8.327   1.305   0.077
 8362SOL    HW135555   8.399   1.330   0.012
 8362SOL    HW235556   8.302   1.386   0.131
 8363SOL     OW35557   6.474   8.576   1.421
 8363SOL    HW135558   6.444   8.670   1.431
 8363SOL    HW235559   6.572   8.574   1.400
 8364SOL     OW35560   4.626   4.379   1.374
 8364SOL    HW135561   4.584   4.462   1.337
 8364SOL    HW235562   4.673   4.330   1.300
 8365SOL     OW35563   0.125   6.947   3.706
 8365SOL    HW135564   0.152   6.984   3.795
 8365SOL    HW235565   0.199   6.890   3.670
 8366SOL     OW35566   8.998   2.547   1.916
 8366SOL    HW135567   9.084   2.597   1.926
 8366SOL    HW235568   9.009   2.472   1.852
 8367SOL     OW35569   3.544   0.690   0.702
 8367SOL    HW135570   3.511   0.749   0.776
 8367SOL    HW235571   3.643   0.681   0.709
 8368SOL     OW35572   3.878   3.423   1.147
 8368SOL    HW135573   3.961   3.368   1.143
 8368SOL    HW235574   3.851   3.436   1.243
 8369SOL     OW35575   0.945   9.174   1.624
 8369SOL    HW135576   0.890   9.216   1.697
 8369SOL    HW235577   0.983   9.088   1.656
 8370SOL     OW35578   0.568   9.473   2.195
 8370SOL    HW135579   0.469   9.487   2.185
 8370SOL    HW235580   0.584   9.396   2.257
 8371SOL     OW35581   9.000   9.236   2.008
 8371SOL    HW135582   8.967   9.223   2.101
 8371SOL    HW235583   9.044   9.325   2.000
 8372SOL     OW35584   2.428   5.998   3.002
 8372SOL    HW135585   2.388   6.081   3.040
 8372SOL    HW235586   2.360   5.949   2.949
 8373SOL     OW35587   2.408   9.772   2.256
 8373SOL    HW135588   2.409   9.848   2.322
 8373SOL    HW235589   2.314   9.752   2.230
 8374SOL     OW35590   9.915   2.188   0.831
 8374SOL    HW135591   9.836   2.248   0.845
 8374SOL    HW235592   9.950   2.200   0.738
 8375SOL     OW35593   2.212   3.895   2.231
 8375SOL    HW135594   2.207   3.795   2.224
 8375SOL    HW235595   2.272   3.921   2.306
 8376SOL     OW35596   3.246   1.782   3.295
 8376SOL    HW135597   3.171   1.744   3.349
 8376SOL    HW235598   3.211   1.818   3.209
 8377SOL     OW35599   8.350   0.763   0.177
 8377SOL    HW135600   8.294   0.702   0.120
 8377SOL    HW235601   8.327   0.858   0.156
 8378SOL     OW35602   8.221   7.397   2.773
 8378SOL    HW135603   8.125   7.413   2.750
 8378SOL    HW235604   8.226   7.331   2.848
 8379SOL     OW35605   6.378   7.257   1.958
 8379SOL    HW135606   6.281   7.250   1.979
 8379SOL    HW235607   6.401   7.352   1.939
 8380SOL     OW35608   3.836   1.401   1.888
 8380SOL    HW135609   3.873   1.423   1.798
 8380SOL    HW235610   3.851   1.304   1.907
 8381SOL     OW35611   4.826   2.575   0.471
 8381SOL    HW135612   4.871   2.644   0.413
 8381SOL    HW235613   4.822   2.488   0.422
 8382SOL     OW35614   9.692   5.416   1.266
 8382SOL    HW135615   9.711   5.361   1.185
 8382SOL    HW235616   9.727   5.509   1.252
 8383SOL     OW35617   9.590   6.812   0.706
 8383SOL    HW135618   9.500   6.768   0.708
 8383SOL    HW235619   9.660   6.742   0.695
 8384SOL     OW35620   3.881   7.357   2.807
 8384SOL    HW135621   3.943   7.359   2.886
 8384SOL    HW235622   3.836   7.268   2.803
 8385SOL     OW35623   7.753   0.047   2.460
 8385SOL    HW135624   7.684   0.101   2.508
 8385SOL    HW235625   7.806   9.994   2.526
 8386SOL     OW35626   1.611   7.474   0.758
 8386SOL    HW135627   1.636   7.424   0.841
 8386SOL    HW235628   1.669   7.555   0.749
 8387SOL     OW35629   8.435   5.197   1.091
 8387SOL    HW135630   8.534   5.209   1.091
 8387SOL    HW235631   8.407   5.152   1.176
 8388SOL     OW35632   8.074   5.073   0.516
 8388SOL    HW135633   8.001   5.140   0.499
 8388SOL    HW235634   8.163   5.118   0.507
 8389SOL     OW35635   3.507   1.996   0.354
 8389SOL    HW135636   3.579   1.946   0.305
 8389SOL    HW235637   3.470   1.938   0.427
 8390SOL     OW35638   8.332   6.372   2.708
 8390SOL    HW135639   8.413   6.313   2.718
 8390SOL    HW235640   8.250   6.316   2.713
 8391SOL     OW35641   6.264   1.110   2.230
 8391SOL    HW135642   6.294   1.136   2.138
 8391SOL    HW235643   6.315   1.029   2.259
 8392SOL     OW35644   8.304   9.565   0.312
 8392SOL    HW135645   8.212   9.524   0.308
 8392SOL    HW235646   8.309   9.628   0.389
 8393SOL     OW35647   7.764   1.329   3.349
 8393SOL    HW135648   7.721   1.246   3.314
 8393SOL    HW235649   7.863   1.320   3.343
 8394SOL     OW35650   9.832   1.918   1.561
 8394SOL    HW135651   9.788   1.998   1.600
 8394SOL    HW235652   9.924   1.943   1.528
 8395SOL     OW35653   2.419   8.709   1.534
 8395SOL    HW135654   2.367   8.792   1.516
 8395SOL    HW235655   2.449   8.670   1.446
 8396SOL     OW35656   8.081   1.836   2.981
 8396SOL    HW135657   8.108   1.860   3.075
 8396SOL    HW235658   8.109   1.908   2.918
 8397SOL     OW35659   4.075   7.507   0.292
 8397SOL    HW135660   4.138   7.448   0.343
 8397SOL    HW235661   4.121   7.544   0.211
 8398SOL     OW35662   3.017   2.552   3.239
 8398SOL    HW135663   3.007   2.488   3.163
 8398SOL    HW235664   3.095   2.613   3.221
 8399SOL     OW35665   2.186   3.687   3.598
 8399SOL    HW135666   2.096   3.730   3.589
 8399SOL    HW235667   2.173   3.593   3.632
 8400SOL     OW35668   2.361   2.941   2.892
 8400SOL    HW135669   2.329   2.851   2.862
 8400SOL    HW235670   2.450   2.960   2.850
 8401SOL     OW35671   7.579   6.474   2.511
 8401SOL    HW135672   7.509   6.493   2.579
 8401SOL    HW235673   7.583   6.376   2.494
 8402SOL     OW35674   0.562   0.504   2.571
 8402SOL    HW135675   0.474   0.535   2.608
 8402SOL    HW235676   0.631   0.505   2.642
 8403SOL     OW35677   4.364   8.514   3.669
 8403SOL    HW135678   4.374   8.484   3.764
 8403SOL    HW235679   4.399   8.443   3.608
 8404SOL     OW35680   5.979   8.402   2.845
 8404SOL    HW135681   5.940   8.449   2.766
 8404SOL    HW235682   5.982   8.464   2.923
 8405SOL     OW35683   9.460   1.735   2.789
 8405SOL    HW135684   9.552   1.709   2.819
 8405SOL    HW235685   9.400   1.742   2.869
 8406SOL     OW35686   7.182   7.245   3.400
 8406SOL    HW135687   7.130   7.162   3.377
 8406SOL    HW235688   7.246   7.225   3.474
 8407SOL     OW35689   1.636   2.733   2.034
 8407SOL    HW135690   1.724   2.686   2.044
 8407SOL    HW235691   1.562   2.669   2.057
 8408SOL     OW35692   9.665   7.904   0.638
 8408SOL    HW135693   9.691   7.983   0.694
 8408SOL    HW235694   9.588   7.929   0.579
 8409SOL     OW35695   7.826   6.772   3.194
 8409SOL    HW135696   7.792   6.858   3.155
 8409SOL    HW235697   7.860   6.789   3.286
 8410SOL     OW35698   7.277   1.023   3.322
 8410SOL    HW135699   7.282   1.115   3.361
 8410SOL    HW235700   7.346   1.013   3.250
 8411SOL     OW35701   9.602   5.686   2.980
 8411SOL    HW135702   9.640   5.594   2.970
 8411SOL    HW235703   9.676   5.751   2.993
 8412SOL     OW35704   7.702   0.502   0.615
 8412SOL    HW135705   7.779   0.542   0.565
 8412SOL    HW235706   7.698   0.543   0.706
 8413SOL     OW35707   8.988   9.822   0.785
 8413SOL    HW135708   8.914   9.778   0.735
 8413SOL    HW235709   9.024   9.898   0.731
 8414SOL     OW35710   8.475   4.392   2.733
 8414SOL    HW135711   8.500   4.310   2.784
 8414SOL    HW235712   8.416   4.367   2.656
 8415SOL     OW35713   4.496   7.843   2.744
 8415SOL    HW135714   4.528   7.890   2.662
 8415SOL    HW235715   4.403   7.874   2.766
 8416SOL     OW35716   5.661   0.685   2.271
 8416SOL    HW135717   5.659   0.755   2.199
 8416SOL    HW235718   5.625   0.600   2.235
 8417SOL     OW35719   8.421   2.565   3.627
 8417SOL    HW135720   8.412   2.468   3.647
 8417SOL    HW235721   8.504   2.601   3.670
 8418SOL     OW35722   0.816   7.347   3.175
 8418SOL    HW135723   0.727   7.378   3.209
 8418SOL    HW235724   0.812   7.338   3.076
 8419SOL     OW35725   5.043   9.197   3.080
 8419SOL    HW135726   5.047   9.270   3.148
 8419SOL    HW235727   5.043   9.108   3.126
 8420SOL     OW35728   9.468   8.869   1.929
 8420SOL    HW135729   9.554   8.824   1.906
 8420SOL    HW235730   9.426   8.905   1.846
 8421SOL     OW35731   4.465   6.552   2.104
 8421SOL    HW135732   4.424   6.508   2.183
 8421SOL    HW235733   4.393   6.578   2.039
 8422SOL     OW35734   3.319   3.723   2.894
 8422SOL    HW135735   3.220   3.730   2.878
 8422SOL    HW235736   3.367   3.773   2.822
 8423SOL     OW35737   8.738   2.345   2.208
 8423SOL    HW135738   8.772   2.252   2.195
 8423SOL    HW235739   8.734   2.365   2.306
 8424SOL     OW35740   3.547   9.469   1.709
 8424SOL    HW135741   3.472   9.427   1.658
 8424SOL    HW235742   3.617   9.400   1.727
 8425SOL     OW35743   2.983   8.070   0.406
 8425SOL    HW135744   2.982   8.057   0.307
 8425SOL    HW235745   2.891   8.092   0.437
 8426SOL     OW35746   3.010   6.316   3.052
 8426SOL    HW135747   2.973   6.407   3.068
 8426SOL    HW235748   3.109   6.321   3.042
 8427SOL     OW35749   9.420   3.083   2.053
 8427SOL    HW135750   9.409   3.178   2.081
 8427SOL    HW235751   9.434   3.026   2.134
 8428SOL     OW35752   9.495   4.320   3.506
 8428SOL    HW135753   9.509   4.400   3.447
 8428SOL    HW235754   9.527   4.238   3.458
 8429SOL     OW35755   3.283   5.843   3.649
 8429SOL    HW135756   3.205   5.890   3.691
 8429SOL    HW235757   3.318   5.896   3.572
 8430SOL     OW35758   1.409   6.162   3.688
 8430SOL    HW135759   1.500   6.202   3.703
 8430SOL    HW235760   1.339   6.226   3.720
 8431SOL     OW35761   2.364   9.436   3.537
 8431SOL    HW135762   2.450   9.439   3.587
 8431SOL    HW235763   2.332   9.341   3.531
 8432SOL     OW35764   8.623   0.492   2.453
 8432SOL    HW135765   8.595   0.581   2.490
 8432SOL    HW235766   8.550   0.455   2.396
 8433SOL     OW35767   4.228   2.313   0.733
 8433SOL    HW135768   4.220   2.328   0.832
 8433SOL    HW235769   4.243   2.216   0.715
 8434SOL     OW35770   8.229   1.093   1.563
 8434SOL    HW135771   8.205   1.001   1.593
 8434SOL    HW235772   8.295   1.087   1.488
 8435SOL     OW35773   8.615   4.215   0.154
 8435SOL    HW135774   8.569   4.131   0.126
 8435SOL    HW235775   8.548   4.280   0.189
 8436SOL     OW35776   0.489   1.897   3.043
 8436SOL    HW135777   0.488   1.934   2.950
 8436SOL    HW235778   0.525   1.966   3.106
 8437SOL     OW35779   9.481   5.610   0.422
 8437SOL    HW135780   9.482   5.701   0.464
 8437SOL    HW235781   9.516   5.616   0.329
 8438SOL     OW35782   2.066   6.757   1.136
 8438SOL    HW135783   2.148   6.791   1.088
 8438SOL    HW235784   1.996   6.732   1.069
 8439SOL     OW35785   8.065   4.230   0.414
 8439SOL    HW135786   8.075   4.307   0.352
 8439SOL    HW235787   7.968   4.206   0.421
 8440SOL     OW35788   3.811   0.351   1.543
 8440SOL    HW135789   3.773   0.378   1.455
 8440SOL    HW235790   3.759   0.394   1.617
 8441SOL     OW35791   4.073   3.076   2.911
 8441SOL    HW135792   4.102   3.078   3.006
 8441SOL    HW235793   4.044   3.167   2.882
 8442SOL     OW35794   2.385   9.554   2.882
 8442SOL    HW135795   2.354   9.559   2.977
 8442SOL    HW235796   2.322   9.498   2.829
 8443SOL     OW35797   2.783   9.173   1.858
 8443SOL    HW135798   2.792   9.111   1.781
 8443SOL    HW235799   2.816   9.129   1.941
 8444SOL     OW35800   8.278   5.774   2.368
 8444SOL    HW135801   8.279   5.815   2.459
 8444SOL    HW235802   8.362   5.799   2.320
 8445SOL     OW35803   3.230   8.001   2.042
 8445SOL    HW135804   3.283   8.032   1.963
 8445SOL    HW235805   3.163   8.070   2.067
 8446SOL     OW35806   7.842   5.369   2.602
 8446SOL    HW135807   7.814   5.369   2.698
 8446SOL    HW235808   7.803   5.448   2.556
 8447SOL     OW35809   9.576   8.525   2.407
 8447SOL    HW135810   9.665   8.484   2.429
 8447SOL    HW235811   9.578   8.622   2.429
 8448SOL     OW35812   1.162   6.248   1.606
 8448SOL    HW135813   1.162   6.151   1.582
 8448SOL    HW235814   1.115   6.261   1.693
 8449SOL     OW35815   9.901   0.408   2.915
 8449SOL    HW135816   9.970   0.337   2.926
 8449SOL    HW235817   9.812   0.366   2.901
 8450SOL     OW35818   9.313   4.372   3.183
 8450SOL    HW135819   9.313   4.279   3.220
 8450SOL    HW235820   9.287   4.370   3.086
 8451SOL     OW35821   8.766   5.386   2.947
 8451SOL    HW135822   8.707   5.333   3.008
 8451SOL    HW235823   8.856   5.396   2.988
 8452SOL     OW35824   2.223   5.190   0.889
 8452SOL    HW135825   2.233   5.112   0.951
 8452SOL    HW235826   2.307   5.202   0.836
 8453SOL     OW35827   1.444   1.790   0.906
 8453SOL    HW135828   1.381   1.810   0.831
 8453SOL    HW235829   1.442   1.864   0.972
 8454SOL     OW35830   9.250   0.284   3.148
 8454SOL    HW135831   9.213   0.336   3.224
 8454SOL    HW235832   9.203   0.310   3.063
 8455SOL     OW35833   9.587   4.384   1.878
 8455SOL    HW135834   9.566   4.301   1.828
 8455SOL    HW235835   9.684   4.386   1.902
 8456SOL     OW35836   0.723   6.627   2.300
 8456SOL    HW135837   0.774   6.618   2.214
 8456SOL    HW235838   0.673   6.542   2.317
 8457SOL     OW35839   2.092   1.339   1.773
 8457SOL    HW135840   2.045   1.386   1.847
 8457SOL    HW235841   2.151   1.404   1.724
 8458SOL     OW35842   3.705   9.166   0.749
 8458SOL    HW135843   3.748   9.084   0.711
 8458SOL    HW235844   3.660   9.217   0.675
 8459SOL     OW35845   5.339   8.911   2.934
 8459SOL    HW135846   5.330   8.910   2.835
 8459SOL    HW235847   5.289   8.833   2.973
 8460SOL     OW35848   4.140   1.012   2.496
 8460SOL    HW135849   4.041   0.998   2.493
 8460SOL    HW235850   4.169   1.066   2.417
 8461SOL     OW35851   1.976   3.879   3.577
 8461SOL    HW135852   1.939   3.899   3.486
 8461SOL    HW235853   2.055   3.937   3.594
 8462SOL     OW35854   3.584   5.220   0.657
 8462SOL    HW135855   3.576   5.211   0.558
 8462SOL    HW235856   3.530   5.298   0.688
 8463SOL     OW35857   0.898   2.917   3.573
 8463SOL    HW135858   0.821   2.928   3.510
 8463SOL    HW235859   0.876   2.964   3.659
 8464SOL     OW35860   2.089   4.855   0.455
 8464SOL    HW135861   2.154   4.903   0.513
 8464SOL    HW235862   2.136   4.780   0.408
 8465SOL     OW35863   4.102   9.837   2.729
 8465SOL    HW135864   4.124   9.741   2.746
 8465SOL    HW235865   4.113   9.856   2.631
 8466SOL     OW35866   6.605   9.558   1.455
 8466SOL    HW135867   6.655   9.536   1.539
 8466SOL    HW235868   6.507   9.565   1.475
 8467SOL     OW35869   9.018   1.904   1.554
 8467SOL    HW135870   9.024   1.845   1.474
 8467SOL    HW235871   9.058   1.858   1.634
 8468SOL     OW35872   1.711   4.927   0.177
 8468SOL    HW135873   1.628   4.887   0.215
 8468SOL    HW235874   1.752   4.863   0.112
 8469SOL     OW35875   0.844   1.861   3.502
 8469SOL    HW135876   0.767   1.834   3.560
 8469SOL    HW235877   0.910   1.786   3.498
 8470SOL     OW35878   0.393   5.012   3.010
 8470SOL    HW135879   0.305   4.999   3.057
 8470SOL    HW235880   0.445   4.927   3.013
 8471SOL     OW35881   5.313   9.722   1.607
 8471SOL    HW135882   5.226   9.761   1.575
 8471SOL    HW235883   5.306   9.701   1.704
 8472SOL     OW35884   0.877   1.653   3.131
 8472SOL    HW135885   0.825   1.736   3.149
 8472SOL    HW235886   0.973   1.668   3.155
 8473SOL     OW35887   1.879   9.205   3.215
 8473SOL    HW135888   1.966   9.249   3.237
 8473SOL    HW235889   1.884   9.166   3.123
 8474SOL     OW35890   5.343   2.714   1.471
 8474SOL    HW135891   5.349   2.806   1.432
 8474SOL    HW235892   5.284   2.657   1.414
 8475SOL     OW35893   7.904   8.794   2.062
 8475SOL    HW135894   7.952   8.863   2.008
 8475SOL    HW235895   7.808   8.791   2.034
 8476SOL     OW35896   9.162   9.578   0.310
 8476SOL    HW135897   9.261   9.584   0.300
 8476SOL    HW235898   9.117   9.639   0.244
 8477SOL     OW35899   8.154   4.675   2.646
 8477SOL    HW135900   8.127   4.771   2.633
 8477SOL    HW235901   8.173   4.633   2.558
 8478SOL     OW35902   8.384   0.082   0.805
 8478SOL    HW135903   8.435   0.012   0.755
 8478SOL    HW235904   8.289   0.053   0.815
 8479SOL     OW35905   9.941   8.352   0.181
 8479SOL    HW135906   9.972   8.288   0.251
 8479SOL    HW235907   9.842   8.364   0.188
 8480SOL     OW35908   2.930   2.053   2.059
 8480SOL    HW135909   2.910   2.080   2.153
 8480SOL    HW235910   2.983   1.968   2.059
 8481SOL     OW35911   2.921   4.675   1.887
 8481SOL    HW135912   2.888   4.687   1.793
 8481SOL    HW235913   2.844   4.678   1.950
 8482SOL     OW35914   9.416   5.204   2.323
 8482SOL    HW135915   9.486   5.241   2.263
 8482SOL    HW235916   9.325   5.228   2.288
 8483SOL     OW35917   3.280   0.804   0.328
 8483SOL    HW135918   3.379   0.812   0.317
 8483SOL    HW235919   3.252   0.710   0.308
 8484SOL     OW35920   5.160   9.871   3.033
 8484SOL    HW135921   5.157   9.771   3.025
 8484SOL    HW235922   5.218   9.908   2.961
 8485SOL     OW35923   4.821   6.954   2.494
 8485SOL    HW135924   4.916   6.943   2.462
 8485SOL    HW235925   4.760   6.901   2.436
 8486SOL     OW35926   1.894   5.350   3.496
 8486SOL    HW135927   1.918   5.257   3.526
 8486SOL    HW235928   1.796   5.355   3.478
 8487SOL     OW35929   8.575   8.865   3.064
 8487SOL    HW135930   8.666   8.905   3.053
 8487SOL    HW235931   8.509   8.937   3.085
 8488SOL     OW35932   9.265   8.051   0.602
 8488SOL    HW135933   9.338   8.012   0.546
 8488SOL    HW235934   9.258   8.000   0.688
 8489SOL     OW35935   0.917   8.346   2.330
 8489SOL    HW135936   0.892   8.367   2.425
 8489SOL    HW235937   0.853   8.281   2.292
 8490SOL     OW35938   4.598   1.838   2.116
 8490SOL    HW135939   4.675   1.806   2.060
 8490SOL    HW235940   4.595   1.787   2.201
 8491SOL     OW35941   1.024   3.830   4.777
 8491SOL    HW135942   1.035   3.743   4.729
 8491SOL    HW235943   1.114   3.866   0.021
 8492SOL     OW35944   8.630   0.453   3.720
 8492SOL    HW135945   8.545   0.485   3.679
 8492SOL    HW235946   8.655   0.513   3.796
 8493SOL     OW35947   3.433   1.474   3.218
 8493SOL    HW135948   3.461   1.391   3.265
 8493SOL    HW235949   3.451   1.553   3.276
 8494SOL     OW35950   0.018   3.032   3.020
 8494SOL    HW135951   0.042   2.934   3.015
 8494SOL    HW235952   0.074   3.083   2.955
 8495SOL     OW35953   9.812   4.896   3.273
 8495SOL    HW135954   9.815   4.840   3.356
 8495SOL    HW235955   9.825   4.992   3.298
 8496SOL     OW35956   2.786   5.019   0.137
 8496SOL    HW135957   2.820   4.934   0.096
 8496SOL    HW235958   2.686   5.021   0.129
 8497SOL     OW35959   2.204   2.512   3.008
 8497SOL    HW135960   2.140   2.582   2.977
 8497SOL    HW235961   2.161   2.422   3.004
 8498SOL     OW35962   9.928   3.457   2.679
 8498SOL    HW135963   9.839   3.478   2.641
 8498SOL    HW235964  10.000   3.481   2.614
 8499SOL     OW35965   4.375   9.843   0.375
 8499SOL    HW135966   4.379   9.848   0.275
 8499SOL    HW235967   4.282   9.823   0.404
 8500SOL     OW35968   5.567   9.509   3.117
 8500SOL    HW135969   5.551   9.588   3.176
 8500SOL    HW235970   5.660   9.513   3.080
 8501SOL     OW35971   2.969   7.167   2.593
 8501SOL    HW135972   2.906   7.161   2.670
 8501SOL    HW235973   3.043   7.230   2.615
 8502SOL     OW35974   5.099   9.069   1.871
 8502SOL    HW135975   5.002   9.043   1.869
 8502SOL    HW235976   5.106   9.166   1.898
 8503SOL     OW35977   4.429   0.813   1.334
 8503SOL    HW135978   4.447   0.801   1.237
 8503SOL    HW235979   4.336   0.847   1.347
 8504SOL     OW35980   0.342   8.990   0.370
 8504SOL    HW135981   0.418   9.051   0.391
 8504SOL    HW235982   0.364   8.897   0.399
 8505SOL     OW35983   1.579   6.193   0.126
 8505SOL    HW135984   1.674   6.222   0.118
 8505SOL    HW235985   1.526   6.265   0.171
 8506SOL     OW35986   8.639   9.785   3.252
 8506SOL    HW135987   8.732   9.748   3.259
 8506SOL    HW235988   8.636   9.856   3.181
 8507SOL     OW35989   1.652   8.381   1.076
 8507SOL    HW135990   1.570   8.330   1.101
 8507SOL    HW235991   1.690   8.424   1.158
 8508SOL     OW35992   9.453   4.082   0.760
 8508SOL    HW135993   9.471   4.125   0.672
 8508SOL    HW235994   9.374   4.021   0.753
 8509SOL     OW35995   1.704   2.062   1.468
 8509SOL    HW135996   1.706   1.980   1.411
 8509SOL    HW235997   1.697   2.036   1.564
 8510SOL     OW35998   2.491   9.381   0.957
 8510SOL    HW135999   2.523   9.301   0.905
 8510SOL    HW236000   2.514   9.464   0.907
 8511SOL     OW36001   8.780   2.556   3.483
 8511SOL    HW136002   8.755   2.630   3.422
 8511SOL    HW236003   8.738   2.471   3.451
 8512SOL     OW36004   9.504   3.896   1.433
 8512SOL    HW136005   9.494   3.935   1.342
 8512SOL    HW236006   9.438   3.938   1.495
 8513SOL     OW36007   7.455   9.801   3.545
 8513SOL    HW136008   7.389   9.874   3.530
 8513SOL    HW236009   7.489   9.768   3.456
 8514SOL     OW36010   9.685   8.308   0.318
 8514SOL    HW136011   9.634   8.341   0.398
 8514SOL    HW236012   9.701   8.210   0.327
 8515SOL     OW36013   9.268   7.299   0.539
 8515SOL    HW136014   9.337   7.257   0.597
 8515SOL    HW236015   9.306   7.316   0.448
 8516SOL     OW36016   8.485   8.653   3.228
 8516SOL    HW136017   8.545   8.573   3.239
 8516SOL    HW236018   8.532   8.722   3.173
 8517SOL     OW36019   0.580   4.922   3.366
 8517SOL    HW136020   0.497   4.888   3.412
 8517SOL    HW236021   0.658   4.912   3.428
 8518SOL     OW36022   9.686   3.467   3.116
 8518SOL    HW136023   9.755   3.494   3.050
 8518SOL    HW236024   9.631   3.392   3.079
 8519SOL     OW36025   3.990   8.675   1.035
 8519SOL    HW136026   3.954   8.653   1.126
 8519SOL    HW236027   4.065   8.740   1.045
 8520SOL     OW36028   0.285   4.902   0.771
 8520SOL    HW136029   0.258   4.975   0.834
 8520SOL    HW236030   0.300   4.818   0.822
 8521SOL     OW36031   1.961   5.253   0.447
 8521SOL    HW136032   1.958   5.168   0.394
 8521SOL    HW236033   1.984   5.230   0.542
 8522SOL     OW36034   0.441   1.690   1.999
 8522SOL    HW136035   0.415   1.785   1.982
 8522SOL    HW236036   0.522   1.688   2.058
 8523SOL     OW36037   4.176   8.762   1.793
 8523SOL    HW136038   4.096   8.812   1.827
 8523SOL    HW236039   4.236   8.825   1.744
 8524SOL     OW36040   9.030   5.621   3.511
 8524SOL    HW136041   8.982   5.702   3.480
 8524SOL    HW236042   8.980   5.539   3.482
 8525SOL     OW36043   2.243   9.345   1.072
 8525SOL    HW136044   2.333   9.358   1.029
 8525SOL    HW236045   2.240   9.395   1.158
 8526SOL     OW36046   4.297   8.716   0.588
 8526SOL    HW136047   4.376   8.773   0.567
 8526SOL    HW236048   4.293   8.700   0.686
 8527SOL     OW36049   2.274   8.007   1.396
 8527SOL    HW136050   2.186   8.023   1.350
 8527SOL    HW236051   2.332   7.950   1.339
 8528SOL     OW36052   4.136   3.074   3.175
 8528SOL    HW136053   4.043   3.094   3.206
 8528SOL    HW236054   4.181   3.012   3.241
 8529SOL     OW36055   2.615   6.827   3.355
 8529SOL    HW136056   2.648   6.908   3.404
 8529SOL    HW236057   2.532   6.850   3.304
 8530SOL     OW36058   1.702   0.832   3.199
 8530SOL    HW136059   1.698   0.926   3.235
 8530SOL    HW236060   1.663   0.830   3.107
 8531SOL     OW36061   8.779   8.003   0.346
 8531SOL    HW136062   8.718   7.962   0.413
 8531SOL    HW236063   8.866   8.027   0.389
 8532SOL     OW36064   6.242   7.992   2.101
 8532SOL    HW136065   6.198   7.903   2.090
 8532SOL    HW236066   6.196   8.043   2.173
 8533SOL     OW36067   8.578   0.463   1.397
 8533SOL    HW136068   8.664   0.495   1.356
 8533SOL    HW236069   8.590   0.453   1.495
 8534SOL     OW36070   2.445   3.486   3.585
 8534SOL    HW136071   2.369   3.509   3.645
 8534SOL    HW236072   2.414   3.421   3.516
 8535SOL     OW36073   7.111   8.856   3.586
 8535SOL    HW136074   7.049   8.789   3.545
 8535SOL    HW236075   7.058   8.926   3.633
 8536SOL     OW36076   6.163   7.283   3.251
 8536SOL    HW136077   6.243   7.285   3.191
 8536SOL    HW236078   6.100   7.357   3.225
 8537SOL     OW36079   8.473   8.863   2.387
 8537SOL    HW136080   8.497   8.911   2.471
 8537SOL    HW236081   8.413   8.921   2.332
 8538SOL     OW36082   1.242   1.747   2.035
 8538SOL    HW136083   1.329   1.760   1.987
 8538SOL    HW236084   1.192   1.671   1.994
 8539SOL     OW36085   0.644   4.062   3.649
 8539SOL    HW136086   0.638   3.962   3.651
 8539SOL    HW236087   0.558   4.100   3.616
 8540SOL     OW36088   1.933   6.083   1.916
 8540SOL    HW136089   1.963   6.107   2.009
 8540SOL    HW236090   1.883   6.160   1.877
 8541SOL     OW36091   2.558   9.552   0.284
 8541SOL    HW136092   2.481   9.598   0.328
 8541SOL    HW236093   2.543   9.453   0.286
 8542SOL     OW36094   3.688   9.798   3.413
 8542SOL    HW136095   3.778   9.755   3.417
 8542SOL    HW236096   3.619   9.729   3.394
 8543SOL     OW36097   0.646   4.177   3.025
 8543SOL    HW136098   0.745   4.195   3.020
 8543SOL    HW236099   0.596   4.260   3.002
 8544SOL     OW36100   4.674   7.778   2.305
 8544SOL    HW136101   4.617   7.710   2.349
 8544SOL    HW236102   4.654   7.780   2.207
 8545SOL     OW36103   1.472   3.950   0.787
 8545SOL    HW136104   1.456   3.873   0.726
 8545SOL    HW236105   1.440   3.927   0.879
 8546SOL     OW36106   2.380   1.581   3.269
 8546SOL    HW136107   2.327   1.615   3.347
 8546SOL    HW236108   2.337   1.610   3.184
 8547SOL     OW36109   4.938   0.768   2.802
 8547SOL    HW136110   4.862   0.712   2.768
 8547SOL    HW236111   4.967   0.734   2.891
 8548SOL     OW36112   9.632   2.345   0.108
 8548SOL    HW136113   9.675   2.428   0.145
 8548SOL    HW236114   9.703   2.287   0.067
 8549SOL     OW36115   5.363   9.892   2.177
 8549SOL    HW136116   5.295   9.849   2.236
 8549SOL    HW236117   5.452   9.847   2.189
 8550SOL     OW36118   0.550   8.343   2.324
 8550SOL    HW136119   0.535   8.300   2.413
 8550SOL    HW236120   0.621   8.293   2.274
 8551SOL     OW36121   0.372   4.912   0.321
 8551SOL    HW136122   0.317   4.993   0.341
 8551SOL    HW236123   0.401   4.870   0.408
 8552SOL     OW36124   3.757   2.010   0.542
 8552SOL    HW136125   3.718   2.003   0.450
 8552SOL    HW236126   3.725   2.095   0.585
 8553SOL     OW36127   1.040   0.116   2.933
 8553SOL    HW136128   1.048   0.193   2.870
 8553SOL    HW236129   1.073   0.033   2.887
 8554SOL     OW36130   9.399   5.762   2.790
 8554SOL    HW136131   9.484   5.750   2.841
 8554SOL    HW236132   9.323   5.723   2.843
 8555SOL     OW36133   3.704   7.809   3.350
 8555SOL    HW136134   3.607   7.818   3.331
 8555SOL    HW236135   3.736   7.887   3.404
 8556SOL     OW36136   9.992   8.765   0.450
 8556SOL    HW136137   9.894   8.751   0.458
 8556SOL    HW236138   0.010   8.857   0.417
 8557SOL     OW36139   4.373   7.294   1.619
 8557SOL    HW136140   4.378   7.321   1.715
 8557SOL    HW236141   4.367   7.376   1.562
 8558SOL     OW36142   3.611   7.049   3.017
 8558SOL    HW136143   3.665   6.995   3.082
 8558SOL    HW236144   3.668   7.074   2.939
 8559SOL     OW36145   4.058   9.907   3.252
 8559SOL    HW136146   4.145   9.955   3.241
 8559SOL    HW236147   4.024   9.879   3.162
 8560SOL     OW36148   3.098   3.904   1.637
 8560SOL    HW136149   3.122   3.881   1.542
 8560SOL    HW236150   3.012   3.858   1.661
 8561SOL     OW36151   1.441   7.035   1.739
 8561SOL    HW136152   1.374   6.979   1.692
 8561SOL    HW236153   1.472   6.988   1.822
 8562SOL     OW36154   8.087   5.216   1.631
 8562SOL    HW136155   8.017   5.250   1.568
 8562SOL    HW236156   8.174   5.263   1.614
 8563SOL     OW36157   7.490   7.618   2.522
 8563SOL    HW136158   7.429   7.596   2.446
 8563SOL    HW236159   7.444   7.596   2.608
 8564SOL     OW36160   3.193   2.929   2.832
 8564SOL    HW136161   3.168   2.917   2.736
 8564SOL    HW236162   3.243   2.848   2.863
 8565SOL     OW36163   6.906   9.245   1.001
 8565SOL    HW136164   6.811   9.217   1.015
 8565SOL    HW236165   6.919   9.275   0.907
 8566SOL     OW36166   2.075   2.174   0.130
 8566SOL    HW136167   2.012   2.249   0.111
 8566SOL    HW236168   2.023   2.090   0.142
 8567SOL     OW36169   5.491   3.169   0.572
 8567SOL    HW136170   5.467   3.254   0.524
 8567SOL    HW236171   5.502   3.095   0.505
 8568SOL     OW36172   0.421   8.098   2.932
 8568SOL    HW136173   0.433   8.023   2.997
 8568SOL    HW236174   0.439   8.185   2.978
 8569SOL     OW36175   7.817   8.887   0.130
 8569SOL    HW136176   7.830   8.986   0.124
 8569SOL    HW236177   7.755   8.857   0.058
 8570SOL     OW36178   2.314   2.847   3.363
 8570SOL    HW136179   2.251   2.776   3.331
 8570SOL    HW236180   2.368   2.880   3.285
 8571SOL     OW36181   3.173   7.086   3.120
 8571SOL    HW136182   3.196   7.157   3.186
 8571SOL    HW236183   3.189   6.996   3.160
 8572SOL     OW36184   0.392   9.090   1.401
 8572SOL    HW136185   0.427   9.000   1.425
 8572SOL    HW236186   0.419   9.157   1.470
 8573SOL     OW36187   3.112   8.605   1.998
 8573SOL    HW136188   3.053   8.609   2.079
 8573SOL    HW236189   3.083   8.675   1.932
 8574SOL     OW36190   8.692   3.459   0.208
 8574SOL    HW136191   8.641   3.373   0.198
 8574SOL    HW236192   8.637   3.533   0.170
 8575SOL     OW36193   9.721   1.499   0.757
 8575SOL    HW136194   9.795   1.551   0.798
 8575SOL    HW236195   9.677   1.442   0.827
 8576SOL     OW36196   0.064   6.513   2.707
 8576SOL    HW136197   0.146   6.566   2.729
 8576SOL    HW236198   0.070   6.424   2.752
 8577SOL     OW36199   4.878   8.999   1.599
 8577SOL    HW136200   4.969   9.038   1.582
 8577SOL    HW236201   4.844   9.032   1.687
 8578SOL     OW36202   8.172   2.959   0.569
 8578SOL    HW136203   8.270   2.961   0.550
 8578SOL    HW236204   8.136   2.867   0.553
 8579SOL     OW36205   9.119   9.807   3.636
 8579SOL    HW136206   9.192   9.774   3.575
 8579SOL    HW236207   9.100   9.737   3.705
 8580SOL     OW36208   7.256   7.926   2.136
 8580SOL    HW136209   7.251   7.963   2.044
 8580SOL    HW236210   7.338   7.962   2.182
 8581SOL     OW36211   0.776   5.389   0.491
 8581SOL    HW136212   0.732   5.416   0.405
 8581SOL    HW236213   0.875   5.399   0.482
 8582SOL     OW36214   4.386   0.131   2.542
 8582SOL    HW136215   4.301   0.127   2.490
 8582SOL    HW236216   4.368   0.109   2.638
 8583SOL     OW36217   8.798   3.892   2.212
 8583SOL    HW136218   8.733   3.817   2.225
 8583SOL    HW236219   8.759   3.960   2.150
 8584SOL     OW36220   9.075   1.159   0.959
 8584SOL    HW136221   9.102   1.255   0.951
 8584SOL    HW236222   8.983   1.155   0.998
 8585SOL     OW36223   3.309   8.197   2.345
 8585SOL    HW136224   3.227   8.254   2.339
 8585SOL    HW236225   3.283   8.103   2.366
 8586SOL     OW36226   3.421   6.065   2.777
 8586SOL    HW136227   3.484   6.079   2.701
 8586SOL    HW236228   3.326   6.072   2.745
 8587SOL     OW36229   3.181   6.738   2.001
 8587SOL    HW136230   3.148   6.786   1.919
 8587SOL    HW236231   3.192   6.804   2.075
 8588SOL     OW36232   9.926   9.891   0.297
 8588SOL    HW136233   9.897   9.801   0.264
 8588SOL    HW236234   0.005   9.922   0.243
 8589SOL     OW36235   0.159   4.970   3.151
 8589SOL    HW136236   0.148   4.871   3.143
 8589SOL    HW236237   0.140   4.999   3.245
 8590SOL     OW36238   2.830   0.984   2.754
 8590SOL    HW136239   2.891   1.062   2.768
 8590SOL    HW236240   2.874   0.918   2.693
 8591SOL     OW36241   0.191   0.022   2.440
 8591SOL    HW136242   0.278   0.010   2.489
 8591SOL    HW236243   0.136   9.939   2.448
 8592SOL     OW36244   8.495   6.957   3.635
 8592SOL    HW136245   8.540   6.986   3.551
 8592SOL    HW236246   8.544   6.995   3.714
 8593SOL     OW36247   0.291   5.661   1.985
 8593SOL    HW136248   0.272   5.754   2.018
 8593SOL    HW236249   0.228   5.638   1.911
 8594SOL     OW36250   1.258   0.581   1.189
 8594SOL    HW136251   1.344   0.538   1.160
 8594SOL    HW236252   1.185   0.513   1.187
 8595SOL     OW36253   4.393   0.703   2.971
 8595SOL    HW136254   4.300   0.709   2.935
 8595SOL    HW236255   4.417   0.607   2.986
 8596SOL     OW36256   5.451   0.288   2.619
 8596SOL    HW136257   5.433   0.383   2.594
 8596SOL    HW236258   5.365   0.243   2.645
 8597SOL     OW36259   2.340   4.473   2.129
 8597SOL    HW136260   2.420   4.431   2.088
 8597SOL    HW236261   2.299   4.410   2.195
 8598SOL     OW36262   1.553   8.061   2.313
 8598SOL    HW136263   1.460   8.097   2.306
 8598SOL    HW236264   1.609   8.099   2.239
 8599SOL     OW36265   7.925   9.656   2.767
 8599SOL    HW136266   7.930   9.600   2.850
 8599SOL    HW236267   7.988   9.619   2.699
 8600SOL     OW36268   4.664   6.811   2.323
 8600SOL    HW136269   4.694   6.763   2.240
 8600SOL    HW236270   4.611   6.892   2.298
 8601SOL     OW36271   9.988   8.063   2.790
 8601SOL    HW136272   9.971   8.122   2.868
 8601SOL    HW236273   0.085   8.068   2.765
 8602SOL     OW36274   3.739   4.829   1.000
 8602SOL    HW136275   3.659   4.773   0.981
 8602SOL    HW236276   3.794   4.837   0.917
 8603SOL     OW36277   3.551   8.920   0.435
 8603SOL    HW136278   3.566   9.009   0.393
 8603SOL    HW236279   3.482   8.870   0.382
 8604SOL     OW36280   1.584   4.173   3.028
 8604SOL    HW136281   1.559   4.261   2.988
 8604SOL    HW236282   1.502   4.115   3.034
 8605SOL     OW36283   2.566   9.772   2.935
 8605SOL    HW136284   2.495   9.707   2.905
 8605SOL    HW236285   2.523   9.844   2.990
 8606SOL     OW36286   4.157   1.486   1.212
 8606SOL    HW136287   4.080   1.463   1.153
 8606SOL    HW236288   4.193   1.403   1.254
 8607SOL     OW36289   8.339   3.917   1.636
 8607SOL    HW136290   8.392   3.836   1.660
 8607SOL    HW236291   8.291   3.952   1.717
 8608SOL     OW36292   1.599   0.811   2.950
 8608SOL    HW136293   1.515   0.776   2.909
 8608SOL    HW236294   1.665   0.833   2.877
 8609SOL     OW36295   1.278   8.956   1.104
 8609SOL    HW136296   1.331   9.010   1.038
 8609SOL    HW236297   1.270   8.862   1.070
 8610SOL     OW36298   3.504   4.973   3.502
 8610SOL    HW136299   3.445   4.973   3.420
 8610SOL    HW236300   3.598   4.995   3.475
 8611SOL     OW36301   5.307   3.097   0.261
 8611SOL    HW136302   5.392   3.051   0.285
 8611SOL    HW236303   5.326   3.169   0.193
 8612SOL     OW36304   4.299   9.878   0.107
 8612SOL    HW136305   4.239   9.946   0.148
 8612SOL    HW236306   4.328   9.910   0.016
 8613SOL     OW36307   7.901   6.307   1.656
 8613SOL    HW136308   7.891   6.364   1.737
 8613SOL    HW236309   7.913   6.212   1.683
 8614SOL     OW36310   3.022   8.703   3.589
 8614SOL    HW136311   3.113   8.733   3.618
 8614SOL    HW236312   3.023   8.688   3.490
 8615SOL     OW36313   7.734   5.782   2.483
 8615SOL    HW136314   7.788   5.837   2.420
 8615SOL    HW236315   7.708   5.696   2.437
 8616SOL     OW36316   8.750   2.591   2.777
 8616SOL    HW136317   8.659   2.618   2.746
 8616SOL    HW236318   8.763   2.619   2.872
 8617SOL     OW36319   3.719   7.756   3.697
 8617SOL    HW136320   3.732   7.708   3.783
 8617SOL    HW236321   3.673   7.695   3.631
 8618SOL     OW36322   4.382   2.704   2.128
 8618SOL    HW136323   4.324   2.625   2.149
 8618SOL    HW236324   4.332   2.788   2.149
 8619SOL     OW36325   3.307   6.265   3.585
 8619SOL    HW136326   3.301   6.304   3.677
 8619SOL    HW236327   3.304   6.339   3.518
 8620SOL     OW36328   8.085   8.927   0.464
 8620SOL    HW136329   8.054   8.836   0.492
 8620SOL    HW236330   8.182   8.937   0.485
 8621SOL     OW36331   0.367   2.270   1.079
 8621SOL    HW136332   0.397   2.364   1.065
 8621SOL    HW236333   0.307   2.242   1.004
 8622SOL     OW36334   2.258   9.477   1.305
 8622SOL    HW136335   2.180   9.536   1.327
 8622SOL    HW236336   2.342   9.517   1.342
 8623SOL     OW36337   3.423   1.549   2.282
 8623SOL    HW136338   3.408   1.576   2.187
 8623SOL    HW236339   3.520   1.559   2.305
 8624SOL     OW36340   4.152   1.979   2.097
 8624SOL    HW136341   4.169   1.936   2.185
 8624SOL    HW236342   4.077   1.932   2.050
 8625SOL     OW36343   9.445   7.428   2.992
 8625SOL    HW136344   9.501   7.345   2.990
 8625SOL    HW236345   9.401   7.437   3.081
 8626SOL     OW36346   8.957   0.105   3.310
 8626SOL    HW136347   8.937   0.017   3.351
 8626SOL    HW236348   9.011   0.161   3.373
 8627SOL     OW36349   0.563   1.642   3.098
 8627SOL    HW136350   0.548   1.738   3.073
 8627SOL    HW236351   0.514   1.583   3.034
 8628SOL     OW36352   3.967   4.427   2.476
 8628SOL    HW136353   3.971   4.332   2.507
 8628SOL    HW236354   3.891   4.439   2.413
 8629SOL     OW36355   4.746   3.487   0.450
 8629SOL    HW136356   4.718   3.468   0.356
 8629SOL    HW236357   4.730   3.583   0.471
 8630SOL     OW36358   0.143   2.627   2.056
 8630SOL    HW136359   0.202   2.662   1.984
 8630SOL    HW236360   0.139   2.527   2.050
 8631SOL     OW36361   3.820   0.136   3.033
 8631SOL    HW136362   3.749   0.197   2.997
 8631SOL    HW236363   3.843   0.068   2.964
 8632SOL     OW36364   3.684   4.391   1.780
 8632SOL    HW136365   3.757   4.328   1.807
 8632SOL    HW236366   3.644   4.433   1.861
 8633SOL     OW36367   1.878   1.413   3.491
 8633SOL    HW136368   1.971   1.432   3.520
 8633SOL    HW236369   1.855   1.318   3.511
 8634SOL     OW36370   9.091   8.768   1.390
 8634SOL    HW136371   9.033   8.717   1.326
 8634SOL    HW236372   9.034   8.817   1.456
 8635SOL     OW36373   2.020   6.790   1.800
 8635SOL    HW136374   2.044   6.881   1.834
 8635SOL    HW236375   2.104   6.735   1.791
 8636SOL     OW36376   7.915   2.268   3.210
 8636SOL    HW136377   7.851   2.302   3.279
 8636SOL    HW236378   7.878   2.283   3.119
 8637SOL     OW36379   2.490   8.043   2.720
 8637SOL    HW136380   2.420   8.021   2.653
 8637SOL    HW236381   2.578   8.005   2.690
 8638SOL     OW36382   7.459   4.265   0.086
 8638SOL    HW136383   7.490   4.359   0.074
 8638SOL    HW236384   7.372   4.265   0.137
 8639SOL     OW36385   3.112   8.371   1.850
 8639SOL    HW136386   3.102   8.453   1.907
 8639SOL    HW236387   3.197   8.376   1.798
 8640SOL     OW36388   3.160   5.961   3.038
 8640SOL    HW136389   3.243   6.017   3.038
 8640SOL    HW236390   3.135   5.938   3.132
 8641SOL     OW36391   0.009   5.824   0.945
 8641SOL    HW136392   0.100   5.827   0.903
 8641SOL    HW236393   9.971   5.732   0.936
 8642SOL     OW36394   7.468   4.719   0.248
 8642SOL    HW136395   7.371   4.736   0.268
 8642SOL    HW236396   7.525   4.771   0.311
 8643SOL     OW36397   8.180   3.732   1.051
 8643SOL    HW136398   8.218   3.640   1.062
 8643SOL    HW236399   8.085   3.733   1.082
 8644SOL     OW36400   8.485   3.385   1.067
 8644SOL    HW136401   8.538   3.432   1.137
 8644SOL    HW236402   8.519   3.291   1.057
 8645SOL     OW36403   8.507   0.063   3.527
 8645SOL    HW136404   8.462   9.974   3.536
 8645SOL    HW236405   8.604   0.054   3.552
 8646SOL     OW36406   9.317   2.684   2.471
 8646SOL    HW136407   9.224   2.674   2.434
 8646SOL    HW236408   9.383   2.676   2.396
 8647SOL     OW36409   0.089   0.403   3.294
 8647SOL    HW136410   0.057   0.311   3.272
 8647SOL    HW236411   0.047   0.469   3.231
 8648SOL     OW36412   3.409   3.309   0.459
 8648SOL    HW136413   3.366   3.274   0.376
 8648SOL    HW236414   3.373   3.400   0.480
 8649SOL     OW36415   8.244   0.941   0.800
 8649SOL    HW136416   8.192   1.004   0.858
 8649SOL    HW236417   8.316   0.898   0.854
 8650SOL     OW36418   9.366   4.116   2.958
 8650SOL    HW136419   9.354   4.070   2.870
 8650SOL    HW236420   9.325   4.207   2.954
 8651SOL     OW36421   8.818   4.955   1.132
 8651SOL    HW136422   8.746   4.896   1.097
 8651SOL    HW236423   8.861   4.912   1.211
 8652SOL     OW36424   9.592   2.062   2.144
 8652SOL    HW136425   9.608   1.971   2.182
 8652SOL    HW236426   9.619   2.132   2.210
 8653SOL     OW36427   9.856   1.423   2.092
 8653SOL    HW136428   9.761   1.425   2.123
 8653SOL    HW236429   9.864   1.363   2.012
 8654SOL     OW36430   0.664   2.357   2.628
 8654SOL    HW136431   0.660   2.363   2.528
 8654SOL    HW236432   0.727   2.284   2.654
 8655SOL     OW36433   7.528   7.283   3.184
 8655SOL    HW136434   7.435   7.252   3.164
 8655SOL    HW236435   7.585   7.272   3.103
 8656SOL     OW36436   6.348   6.635   2.545
 8656SOL    HW136437   6.341   6.600   2.452
 8656SOL    HW236438   6.345   6.735   2.544
 8657SOL     OW36439   0.307   9.204   0.714
 8657SOL    HW136440   0.280   9.218   0.619
 8657SOL    HW236441   0.320   9.106   0.731
 8658SOL     OW36442   4.733   0.601   2.708
 8658SOL    HW136443   4.653   0.661   2.699
 8658SOL    HW236444   4.729   0.529   2.640
 8659SOL     OW36445   1.346   4.271   2.862
 8659SOL    HW136446   1.336   4.339   2.789
 8659SOL    HW236447   1.325   4.313   2.950
 8660SOL     OW36448   8.964   4.082   1.588
 8660SOL    HW136449   8.869   4.051   1.587
 8660SOL    HW236450   9.010   4.048   1.671
 8661SOL     OW36451   4.004   2.971   2.287
 8661SOL    HW136452   3.995   3.035   2.363
 8661SOL    HW236453   3.915   2.959   2.242
 8662SOL     OW36454   3.162   5.310   1.603
 8662SOL    HW136455   3.102   5.291   1.680
 8662SOL    HW236456   3.159   5.234   1.538
 8663SOL     OW36457   5.155   8.418   2.531
 8663SOL    HW136458   5.247   8.418   2.568
 8663SOL    HW236459   5.089   8.398   2.604
 8664SOL     OW36460   4.132   7.930   3.473
 8664SOL    HW136461   4.104   8.017   3.514
 8664SOL    HW236462   4.083   7.855   3.516
 8665SOL     OW36463   7.675   8.993   2.187
 8665SOL    HW136464   7.668   8.933   2.108
 8665SOL    HW236465   7.598   8.979   2.248
 8666SOL     OW36466   4.569   0.391   2.149
 8666SOL    HW136467   4.539   0.374   2.242
 8666SOL    HW236468   4.490   0.391   2.088
 8667SOL     OW36469   2.386   2.102   0.357
 8667SOL    HW136470   2.378   2.130   0.261
 8667SOL    HW236471   2.330   2.021   0.373
 8668SOL     OW36472   6.799   8.942   3.523
 8668SOL    HW136473   6.703   8.948   3.550
 8668SOL    HW236474   6.823   8.847   3.504
 8669SOL     OW36475   2.319   4.100   2.089
 8669SOL    HW136476   2.389   4.070   2.024
 8669SOL    HW236477   2.274   4.021   2.129
 8670SOL     OW36478   8.961   2.511   2.187
 8670SOL    HW136479   8.973   2.533   2.091
 8670SOL    HW236480   8.877   2.457   2.200
 8671SOL     OW36481   9.093   0.189   0.304
 8671SOL    HW136482   9.139   0.109   0.265
 8671SOL    HW236483   9.152   0.232   0.372
 8672SOL     OW36484   8.162   6.440   2.258
 8672SOL    HW136485   8.239   6.445   2.323
 8672SOL    HW236486   8.138   6.533   2.228
 8673SOL     OW36487   1.719   7.031   2.575
 8673SOL    HW136488   1.637   6.984   2.544
 8673SOL    HW236489   1.732   7.016   2.673
 8674SOL     OW36490   5.001   7.723   2.414
 8674SOL    HW136491   4.964   7.797   2.358
 8674SOL    HW236492   4.942   7.643   2.408
 8675SOL     OW36493   8.710   5.210   1.142
 8675SOL    HW136494   8.749   5.119   1.127
 8675SOL    HW236495   8.730   5.240   1.235
 8676SOL     OW36496   7.029   0.726   3.410
 8676SOL    HW136497   7.016   0.694   3.316
 8676SOL    HW236498   7.126   0.742   3.426
 8677SOL     OW36499   4.030   2.678   2.314
 8677SOL    HW136500   4.006   2.697   2.219
 8677SOL    HW236501   4.038   2.764   2.364
 8678SOL     OW36502   7.274   0.055   3.559
 8678SOL    HW136503   7.330   0.059   3.641
 8678SOL    HW236504   7.226   0.142   3.547
 8679SOL     OW36505   8.400   9.114   0.895
 8679SOL    HW136506   8.340   9.177   0.846
 8679SOL    HW236507   8.485   9.160   0.920
 8680SOL     OW36508   7.691   0.604   2.871
 8680SOL    HW136509   7.784   0.608   2.837
 8680SOL    HW236510   7.659   0.509   2.872
 8681SOL     OW36511   6.814   0.885   2.931
 8681SOL    HW136512   6.881   0.930   2.991
 8681SOL    HW236513   6.809   0.788   2.955
 8682SOL     OW36514   8.300   2.729   0.337
 8682SOL    HW136515   8.341   2.638   0.327
 8682SOL    HW236516   8.221   2.723   0.397
 8683SOL     OW36517   2.645   9.787   3.428
 8683SOL    HW136518   2.658   9.724   3.505
 8683SOL    HW236519   2.732   9.800   3.380
 8684SOL     OW36520   8.058   0.358   2.072
 8684SOL    HW136521   7.992   0.314   2.133
 8684SOL    HW236522   8.066   0.455   2.097
 8685SOL     OW36523   1.895   1.965   0.169
 8685SOL    HW136524   1.873   1.927   0.079
 8685SOL    HW236525   1.828   2.036   0.192
 8686SOL     OW36526   3.138   8.088   3.042
 8686SOL    HW136527   3.203   8.163   3.030
 8686SOL    HW236528   3.070   8.114   3.110
 8687SOL     OW36529   8.556   8.394   1.211
 8687SOL    HW136530   8.569   8.493   1.213
 8687SOL    HW236531   8.494   8.368   1.285
 8688SOL     OW36532   3.352   6.868   3.684
 8688SOL    HW136533   3.361   6.882   3.782
 8688SOL    HW236534   3.265   6.823   3.665
 8689SOL     OW36535   4.829   2.026   0.854
 8689SOL    HW136536   4.771   1.947   0.876
 8689SOL    HW236537   4.781   2.110   0.878
 8690SOL     OW36538   8.733   6.759   0.422
 8690SOL    HW136539   8.728   6.661   0.441
 8690SOL    HW236540   8.797   6.802   0.486
 8691SOL     OW36541   2.242   0.755   1.292
 8691SOL    HW136542   2.144   0.749   1.311
 8691SOL    HW236543   2.270   0.850   1.288
 8692SOL     OW36544   5.572   0.964   2.889
 8692SOL    HW136545   5.513   0.949   2.810
 8692SOL    HW236546   5.667   0.948   2.863
 8693SOL     OW36547   9.957   9.208   2.273
 8693SOL    HW136548   0.005   9.258   2.201
 8693SOL    HW236549   9.974   9.253   2.361
 8694SOL     OW36550   4.466   0.313   0.448
 8694SOL    HW136551   4.411   0.307   0.365
 8694SOL    HW236552   4.448   0.233   0.506
 8695SOL     OW36553   1.587   3.605   2.441
 8695SOL    HW136554   1.617   3.510   2.434
 8695SOL    HW236555   1.666   3.664   2.459
 8696SOL     OW36556   2.746   4.561   2.970
 8696SOL    HW136557   2.720   4.604   3.057
 8696SOL    HW236558   2.761   4.632   2.901
 8697SOL     OW36559   5.460   8.822   3.358
 8697SOL    HW136560   5.419   8.846   3.447
 8697SOL    HW236561   5.413   8.743   3.320
 8698SOL     OW36562   0.016   4.170   1.757
 8698SOL    HW136563   0.084   4.164   1.830
 8698SOL    HW236564   9.927   4.140   1.792
 8699SOL     OW36565   1.021   7.720   3.455
 8699SOL    HW136566   1.017   7.640   3.394
 8699SOL    HW236567   0.989   7.693   3.546
 8700SOL     OW36568   2.562   8.835   1.734
 8700SOL    HW136569   2.530   8.775   1.661
 8700SOL    HW236570   2.495   8.907   1.752
 8701SOL     OW36571   3.422   4.108   0.374
 8701SOL    HW136572   3.348   4.173   0.355
 8701SOL    HW236573   3.411   4.072   0.467
 8702SOL     OW36574   2.715   0.044   3.535
 8702SOL    HW136575   2.812   0.035   3.558
 8702SOL    HW236576   2.680   9.954   3.507
 8703SOL     OW36577   1.902   0.336   2.800
 8703SOL    HW136578   1.995   0.338   2.836
 8703SOL    HW236579   1.902   0.294   2.710
 8704SOL     OW36580   3.629   8.165   0.013
 8704SOL    HW136581   3.602   8.256   0.045
 8704SOL    HW236582   3.700   8.175   4.724
 8705SOL     OW36583   8.166   2.028   2.792
 8705SOL    HW136584   8.253   2.027   2.841
 8705SOL    HW236585   8.181   2.010   2.695
 8706SOL     OW36586   0.597   7.801   1.175
 8706SOL    HW136587   0.624   7.896   1.186
 8706SOL    HW236588   0.662   7.742   1.223
 8707SOL     OW36589   0.116   4.543   0.208
 8707SOL    HW136590   0.025   4.517   0.242
 8707SOL    HW236591   0.120   4.642   0.196
 8708SOL     OW36592   5.432   6.630   2.313
 8708SOL    HW136593   5.349   6.649   2.365
 8708SOL    HW236594   5.440   6.532   2.297
 8709SOL     OW36595   7.604   2.198   3.184
 8709SOL    HW136596   7.632   2.250   3.264
 8709SOL    HW236597   7.665   2.220   3.107
 8710SOL     OW36598   2.972   5.701   0.781
 8710SOL    HW136599   2.948   5.679   0.875
 8710SOL    HW236600   2.902   5.665   0.719
 8711SOL     OW36601   8.051   2.094   3.603
 8711SOL    HW136602   7.972   2.154   3.619
 8711SOL    HW236603   8.133   2.150   3.591
 8712SOL     OW36604   6.858   9.657   0.979
 8712SOL    HW136605   6.930   9.592   1.001
 8712SOL    HW236606   6.792   9.660   1.055
 8713SOL     OW36607   3.049   3.391   0.210
 8713SOL    HW136608   3.076   3.483   0.182
 8713SOL    HW236609   3.130   3.333   0.218
 8714SOL     OW36610   2.812   2.531   0.845
 8714SOL    HW136611   2.902   2.540   0.888
 8714SOL    HW236612   2.806   2.443   0.799
 8715SOL     OW36613   7.056   9.667   1.414
 8715SOL    HW136614   7.015   9.728   1.345
 8715SOL    HW236615   7.152   9.691   1.426
 8716SOL     OW36616   8.098   7.762   1.581
 8716SOL    HW136617   8.116   7.685   1.521
 8716SOL    HW236618   8.125   7.847   1.536
 8717SOL     OW36619   0.114   1.624   0.734
 8717SOL    HW136620   0.132   1.716   0.699
 8717SOL    HW236621   0.035   1.627   0.795
 8718SOL     OW36622   3.842   6.172   1.976
 8718SOL    HW136623   3.805   6.080   1.992
 8718SOL    HW236624   3.799   6.212   1.895
 8719SOL     OW36625   2.262   8.548   3.247
 8719SOL    HW136626   2.227   8.602   3.171
 8719SOL    HW236627   2.217   8.576   3.332
 8720SOL     OW36628   9.702   6.206   1.875
 8720SOL    HW136629   9.753   6.256   1.805
 8720SOL    HW236630   9.604   6.220   1.861
 8721SOL     OW36631   0.668   8.779   0.485
 8721SOL    HW136632   0.701   8.705   0.543
 8721SOL    HW236633   0.573   8.761   0.458
 8722SOL     OW36634   2.467   3.706   1.642
 8722SOL    HW136635   2.486   3.640   1.570
 8722SOL    HW236636   2.484   3.799   1.607
 8723SOL     OW36637   1.347   5.695   1.304
 8723SOL    HW136638   1.274   5.719   1.368
 8723SOL    HW236639   1.329   5.605   1.264
 8724SOL     OW36640   8.899   0.009   0.089
 8724SOL    HW136641   8.861   0.033   0.178
 8724SOL    HW236642   8.915   0.093   0.036
 8725SOL     OW36643   8.687   6.011   0.571
 8725SOL    HW136644   8.612   6.076   0.582
 8725SOL    HW236645   8.702   5.993   0.474
 8726SOL     OW36646   8.003   4.427   0.755
 8726SOL    HW136647   7.918   4.385   0.785
 8726SOL    HW236648   8.067   4.355   0.726
 8727SOL     OW36649   0.149   2.366   1.482
 8727SOL    HW136650   0.056   2.356   1.515
 8727SOL    HW236651   0.172   2.290   1.422
 8728SOL     OW36652   3.545   2.250   2.053
 8728SOL    HW136653   3.493   2.334   2.067
 8728SOL    HW236654   3.484   2.171   2.067
 8729SOL     OW36655   4.632   5.330   1.293
 8729SOL    HW136656   4.587   5.274   1.363
 8729SOL    HW236657   4.667   5.414   1.336
 8730SOL     OW36658   0.991   1.245   1.623
 8730SOL    HW136659   0.914   1.214   1.568
 8730SOL    HW236660   1.018   1.172   1.687
 8731SOL     OW36661   0.926   5.719   2.554
 8731SOL    HW136662   0.952   5.763   2.640
 8731SOL    HW236663   0.946   5.781   2.478
 8732SOL     OW36664   3.437   7.751   3.300
 8732SOL    HW136665   3.384   7.801   3.231
 8732SOL    HW236666   3.464   7.662   3.264
 8733SOL     OW36667   9.336   5.990   3.345
 8733SOL    HW136668   9.371   6.041   3.424
 8733SOL    HW236669   9.407   5.927   3.313
 8734SOL     OW36670   1.946   6.579   0.131
 8734SOL    HW136671   2.001   6.577   0.214
 8734SOL    HW236672   2.005   6.589   0.051
 8735SOL     OW36673   1.054   2.867   3.353
 8735SOL    HW136674   1.003   2.882   3.438
 8735SOL    HW236675   1.116   2.944   3.338
 8736SOL     OW36676   2.922   2.497   2.187
 8736SOL    HW136677   2.829   2.473   2.214
 8736SOL    HW236678   2.950   2.437   2.111
 8737SOL     OW36679   3.769   2.982   1.570
 8737SOL    HW136680   3.839   2.987   1.641
 8737SOL    HW236681   3.699   2.916   1.598
 8738SOL     OW36682   3.968   1.732   0.833
 8738SOL    HW136683   4.015   1.660   0.782
 8738SOL    HW236684   3.876   1.701   0.856
 8739SOL     OW36685   5.038   1.628   1.155
 8739SOL    HW136686   5.123   1.662   1.117
 8739SOL    HW236687   4.972   1.703   1.163
 8740SOL     OW36688   9.830   4.809   3.537
 8740SOL    HW136689   9.929   4.823   3.543
 8740SOL    HW236690   9.784   4.895   3.556
 8741SOL     OW36691   1.369   0.366   0.092
 8741SOL    HW136692   1.431   0.319   0.155
 8741SOL    HW236693   1.389   0.338   4.779
 8742SOL     OW36694   3.140   9.472   3.087
 8742SOL    HW136695   3.184   9.545   3.034
 8742SOL    HW236696   3.196   9.390   3.082
 8743SOL     OW36697   6.565   8.174   3.084
 8743SOL    HW136698   6.629   8.160   3.009
 8743SOL    HW236699   6.503   8.096   3.091
 8744SOL     OW36700   3.484   7.497   0.123
 8744SOL    HW136701   3.392   7.523   0.094
 8744SOL    HW236702   3.530   7.576   0.164
 8745SOL     OW36703   0.832   0.993   0.330
 8745SOL    HW136704   0.847   1.081   0.374
 8745SOL    HW236705   0.768   1.004   0.254
 8746SOL     OW36706   7.054   0.201   2.458
 8746SOL    HW136707   6.975   0.154   2.418
 8746SOL    HW236708   7.132   0.195   2.396
 8747SOL     OW36709   1.161   7.507   3.730
 8747SOL    HW136710   1.067   7.509   3.697
 8747SOL    HW236711   1.197   7.415   3.723
 8748SOL     OW36712   9.296   6.328   3.606
 8748SOL    HW136713   9.306   6.323   3.506
 8748SOL    HW236714   9.302   6.424   3.634
 8749SOL     OW36715   4.128   2.668   3.356
 8749SOL    HW136716   4.053   2.704   3.300
 8749SOL    HW236717   4.179   2.600   3.304
 8750SOL     OW36718   1.615   0.385   0.651
 8750SOL    HW136719   1.600   0.453   0.579
 8750SOL    HW236720   1.534   0.328   0.660
 8751SOL     OW36721   1.825   0.155   3.577
 8751SOL    HW136722   1.893   0.219   3.614
 8751SOL    HW236723   1.851   0.062   3.600
 8752SOL     OW36724   2.373   6.867   0.223
 8752SOL    HW136725   2.400   6.783   0.176
 8752SOL    HW236726   2.322   6.846   0.306
 8753SOL     OW36727   1.446   6.896   0.546
 8753SOL    HW136728   1.539   6.931   0.535
 8753SOL    HW236729   1.420   6.901   0.643
 8754SOL     OW36730   2.945   6.584   3.087
 8754SOL    HW136731   2.910   6.640   3.162
 8754SOL    HW236732   2.983   6.643   3.016
 8755SOL     OW36733   0.840   4.548   2.458
 8755SOL    HW136734   0.763   4.523   2.399
 8755SOL    HW236735   0.922   4.563   2.402
 8756SOL     OW36736   1.856   3.434   0.113
 8756SOL    HW136737   1.792   3.492   0.062
 8756SOL    HW236738   1.813   3.346   0.134
 8757SOL     OW36739   3.674   9.076   3.131
 8757SOL    HW136740   3.735   8.999   3.149
 8757SOL    HW236741   3.618   9.095   3.211
 8758SOL     OW36742   9.044   8.003   0.440
 8758SOL    HW136743   9.113   8.037   0.504
 8758SOL    HW236744   9.087   7.979   0.354
 8759SOL     OW36745   3.644   6.792   2.090
 8759SOL    HW136746   3.643   6.886   2.126
 8759SOL    HW236747   3.572   6.783   2.021
 8760SOL     OW36748   3.649   4.745   3.219
 8760SOL    HW136749   3.629   4.839   3.190
 8760SOL    HW236750   3.592   4.721   3.298
 8761SOL     OW36751   7.813   8.256   1.671
 8761SOL    HW136752   7.725   8.301   1.653
 8761SOL    HW236753   7.797   8.168   1.716
 8762SOL     OW36754   3.922   8.048   1.312
 8762SOL    HW136755   3.846   8.072   1.251
 8762SOL    HW236756   3.899   8.075   1.405
 8763SOL     OW36757   0.823   8.554   3.459
 8763SOL    HW136758   0.885   8.619   3.416
 8763SOL    HW236759   0.796   8.589   3.549
 8764SOL     OW36760   8.625   3.678   1.996
 8764SOL    HW136761   8.680   3.750   1.954
 8764SOL    HW236762   8.632   3.595   1.941
 8765SOL     OW36763   7.858   0.260   2.263
 8765SOL    HW136764   7.833   0.310   2.347
 8765SOL    HW236765   7.862   0.162   2.283
 8766SOL     OW36766   0.698   6.158   0.364
 8766SOL    HW136767   0.748   6.107   0.294
 8766SOL    HW236768   0.674   6.098   0.440
 8767SOL     OW36769   9.747   3.979   1.528
 8767SOL    HW136770   9.666   3.935   1.490
 8767SOL    HW236771   9.823   3.914   1.527
 8768SOL     OW36772   2.337   9.947   0.561
 8768SOL    HW136773   2.307   9.854   0.583
 8768SOL    HW236774   2.286   0.012   0.616
 8769SOL     OW36775   9.987   9.825   0.682
 8769SOL    HW136776   0.065   9.788   0.733
 8769SOL    HW236777   9.963   9.762   0.608
 8770SOL     OW36778   0.886   9.185   0.510
 8770SOL    HW136779   0.898   9.261   0.447
 8770SOL    HW236780   0.973   9.164   0.555
 8771SOL     OW36781   0.291   9.533   2.161
 8771SOL    HW136782   0.287   9.433   2.163
 8771SOL    HW236783   0.203   9.569   2.131
 8772SOL     OW36784   8.215   3.444   1.052
 8772SOL    HW136785   8.313   3.426   1.048
 8772SOL    HW236786   8.177   3.444   0.960
 8773SOL     OW36787   2.114   4.453   2.715
 8773SOL    HW136788   2.159   4.453   2.626
 8773SOL    HW236789   2.032   4.395   2.712
 8774SOL     OW36790   5.397   0.596   2.076
 8774SOL    HW136791   5.436   0.648   2.001
 8774SOL    HW236792   5.315   0.643   2.111
 8775SOL     OW36793   3.355   5.681   1.678
 8775SOL    HW136794   3.351   5.582   1.660
 8775SOL    HW236795   3.352   5.731   1.592
 8776SOL     OW36796   8.011   1.719   1.852
 8776SOL    HW136797   8.103   1.684   1.837
 8776SOL    HW236798   7.996   1.799   1.793
 8777SOL     OW36799   8.943   6.088   2.015
 8777SOL    HW136800   8.968   6.010   2.073
 8777SOL    HW236801   8.859   6.130   2.050
 8778SOL     OW36802   8.137   6.157   1.198
 8778SOL    HW136803   8.155   6.089   1.127
 8778SOL    HW236804   8.048   6.138   1.240
 8779SOL     OW36805   2.453   4.392   3.020
 8779SOL    HW136806   2.472   4.322   3.089
 8779SOL    HW236807   2.459   4.483   3.061
 8780SOL     OW36808   8.553   9.397   1.277
 8780SOL    HW136809   8.494   9.401   1.197
 8780SOL    HW236810   8.638   9.447   1.259
 8781SOL     OW36811   8.379   3.335   3.661
 8781SOL    HW136812   8.471   3.310   3.631
 8781SOL    HW236813   8.314   3.263   3.634
 8782SOL     OW36814   3.965   8.436   0.710
 8782SOL    HW136815   4.009   8.421   0.799
 8782SOL    HW236816   4.006   8.376   0.642
 8783SOL     OW36817   4.341   6.450   2.350
 8783SOL    HW136818   4.381   6.533   2.390
 8783SOL    HW236819   4.355   6.373   2.412
 8784SOL     OW36820   9.123   7.905   1.531
 8784SOL    HW136821   9.169   7.954   1.605
 8784SOL    HW236822   9.129   7.959   1.447
 8785SOL     OW36823   6.449   9.771   1.639
 8785SOL    HW136824   6.491   9.819   1.561
 8785SOL    HW236825   6.388   9.699   1.605
 8786SOL     OW36826   4.885   8.086   2.749
 8786SOL    HW136827   4.864   8.042   2.836
 8786SOL    HW236828   4.947   8.028   2.696
 8787SOL     OW36829   3.709   8.144   1.158
 8787SOL    HW136830   3.755   8.231   1.139
 8787SOL    HW236831   3.690   8.097   1.072
 8788SOL     OW36832   9.596   2.750   1.974
 8788SOL    HW136833   9.552   2.764   2.063
 8788SOL    HW236834   9.627   2.838   1.938
 8789SOL     OW36835   8.543   0.412   0.098
 8789SOL    HW136836   8.555   0.466   0.015
 8789SOL    HW236837   8.593   0.455   0.174
 8790SOL     OW36838   9.030   7.165   2.197
 8790SOL    HW136839   8.980   7.192   2.279
 8790SOL    HW236840   8.979   7.095   2.148
 8791SOL     OW36841   2.225   1.387   2.101
 8791SOL    HW136842   2.217   1.288   2.112
 8791SOL    HW236843   2.296   1.423   2.161
 8792SOL     OW36844   0.365   9.486   2.891
 8792SOL    HW136845   0.277   9.439   2.894
 8792SOL    HW236846   0.351   9.585   2.900
 8793SOL     OW36847   2.711   9.513   1.113
 8793SOL    HW136848   2.768   9.446   1.161
 8793SOL    HW236849   2.631   9.467   1.075
 8794SOL     OW36850   1.509   2.477   1.812
 8794SOL    HW136851   1.462   2.428   1.738
 8794SOL    HW236852   1.533   2.569   1.782
 8795SOL     OW36853   8.296   8.396   3.319
 8795SOL    HW136854   8.334   8.477   3.275
 8795SOL    HW236855   8.334   8.388   3.411
 8796SOL     OW36856   3.316   2.661   0.154
 8796SOL    HW136857   3.272   2.685   0.240
 8796SOL    HW236858   3.250   2.668   0.079
 8797SOL     OW36859   1.595   6.953   3.523
 8797SOL    HW136860   1.594   7.043   3.478
 8797SOL    HW236861   1.643   6.887   3.465
 8798SOL     OW36862   7.349   6.666   3.240
 8798SOL    HW136863   7.414   6.731   3.279
 8798SOL    HW236864   7.380   6.638   3.149
 8799SOL     OW36865   7.887   3.133   3.536
 8799SOL    HW136866   7.898   3.190   3.454
 8799SOL    HW236867   7.879   3.037   3.509
 8800SOL     OW36868   4.796   9.677   3.369
 8800SOL    HW136869   4.886   9.698   3.333
 8800SOL    HW236870   4.730   9.746   3.337
 8801SOL     OW36871   8.050   2.279   2.174
 8801SOL    HW136872   8.052   2.211   2.101
 8801SOL    HW236873   8.078   2.235   2.260
 8802SOL     OW36874   3.382   0.475   3.035
 8802SOL    HW136875   3.390   0.520   2.946
 8802SOL    HW236876   3.326   0.393   3.026
 8803SOL     OW36877   0.998   2.155   2.009
 8803SOL    HW136878   0.997   2.058   2.034
 8803SOL    HW236879   0.961   2.209   2.085
 8804SOL     OW36880   7.590   3.090   0.276
 8804SOL    HW136881   7.614   3.185   0.295
 8804SOL    HW236882   7.650   3.054   0.205
 8805SOL     OW36883   8.076   1.840   3.506
 8805SOL    HW136884   7.992   1.788   3.518
 8805SOL    HW236885   8.065   1.931   3.546
 8806SOL     OW36886   9.253   2.849   2.684
 8806SOL    HW136887   9.311   2.823   2.761
 8806SOL    HW236888   9.265   2.783   2.609
 8807SOL     OW36889   7.560   1.252   3.527
 8807SOL    HW136890   7.627   1.307   3.477
 8807SOL    HW236891   7.604   1.167   3.557
 8808SOL     OW36892   1.737   2.177   0.239
 8808SOL    HW136893   1.708   2.201   0.331
 8808SOL    HW236894   1.658   2.178   0.178
 8809SOL     OW36895   0.100   9.969   3.409
 8809SOL    HW136896   0.046   9.886   3.426
 8809SOL    HW236897   0.194   9.945   3.387
 8810SOL     OW36898   0.098   6.542   0.686
 8810SOL    HW136899   0.008   6.583   0.667
 8810SOL    HW236900   0.148   6.602   0.749
 8811SOL     OW36901   8.274   8.565   2.244
 8811SOL    HW136902   8.180   8.599   2.251
 8811SOL    HW236903   8.318   8.567   2.333
 8812SOL     OW36904   0.929   9.774   1.577
 8812SOL    HW136905   0.853   9.829   1.612
 8812SOL    HW236906   0.920   9.680   1.609
 8813SOL     OW36907   1.879   6.662   0.962
 8813SOL    HW136908   1.904   6.586   0.902
 8813SOL    HW236909   1.803   6.714   0.921
 8814SOL     OW36910   4.544   1.191   3.635
 8814SOL    HW136911   4.539   1.092   3.619
 8814SOL    HW236912   4.452   1.230   3.628
 8815SOL     OW36913   7.654   0.266   1.241
 8815SOL    HW136914   7.656   0.179   1.291
 8815SOL    HW236915   7.568   0.313   1.260
 8816SOL     OW36916   4.093   1.207   2.915
 8816SOL    HW136917   4.027   1.175   2.983
 8816SOL    HW236918   4.059   1.291   2.873
 8817SOL     OW36919   7.851   8.428   0.634
 8817SOL    HW136920   7.813   8.351   0.685
 8817SOL    HW236921   7.801   8.512   0.658
 8818SOL     OW36922   4.877   2.171   2.149
 8818SOL    HW136923   4.959   2.221   2.174
 8818SOL    HW236924   4.894   2.072   2.155
 8819SOL     OW36925   2.574   6.402   2.533
 8819SOL    HW136926   2.500   6.343   2.501
 8819SOL    HW236927   2.595   6.470   2.462
 8820SOL     OW36928   9.963   5.167   3.622
 8820SOL    HW136929   9.924   5.128   3.706
 8820SOL    HW236930   9.904   5.241   3.590
 8821SOL     OW36931   8.268   8.609   3.055
 8821SOL    HW136932   8.334   8.653   3.116
 8821SOL    HW236933   8.304   8.521   3.025
 8822SOL     OW36934   8.297   7.060   3.285
 8822SOL    HW136935   8.279   7.153   3.253
 8822SOL    HW236936   8.230   6.998   3.244
 8823SOL     OW36937   9.487   0.820   0.192
 8823SOL    HW136938   9.584   0.837   0.209
 8823SOL    HW236939   9.454   0.884   0.122
 8824SOL     OW36940   1.303   1.616   3.582
 8824SOL    HW136941   1.372   1.573   3.640
 8824SOL    HW236942   1.336   1.707   3.554
 8825SOL     OW36943   9.294   5.494   1.919
 8825SOL    HW136944   9.284   5.395   1.935
 8825SOL    HW236945   9.288   5.512   1.821
 8826SOL     OW36946   1.080   7.331   0.562
 8826SOL    HW136947   1.149   7.373   0.503
 8826SOL    HW236948   1.055   7.241   0.526
 8827SOL     OW36949   0.566   8.437   3.674
 8827SOL    HW136950   0.541   8.522   3.627
 8827SOL    HW236951   0.513   8.361   3.636
 8828SOL     OW36952   0.429   5.362   3.140
 8828SOL    HW136953   0.488   5.282   3.146
 8828SOL    HW236954   0.472   5.439   3.189
 8829SOL     OW36955   5.632   7.009   2.338
 8829SOL    HW136956   5.547   7.061   2.328
 8829SOL    HW236957   5.615   6.927   2.394
 8830SOL     OW36958   8.831   9.747   1.700
 8830SOL    HW136959   8.798   9.711   1.612
 8830SOL    HW236960   8.757   9.745   1.767
 8831SOL     OW36961   3.091   8.775   1.118
 8831SOL    HW136962   3.035   8.737   1.192
 8831SOL    HW236963   3.184   8.789   1.151
 8832SOL     OW36964   2.445   1.429   0.678
 8832SOL    HW136965   2.403   1.456   0.765
 8832SOL    HW236966   2.378   1.440   0.604
 8833SOL     OW36967   0.184   7.839   2.953
 8833SOL    HW136968   0.128   7.756   2.957
 8833SOL    HW236969   0.144   7.909   3.011
 8834SOL     OW36970   6.143   7.460   2.411
 8834SOL    HW136971   6.167   7.368   2.378
 8834SOL    HW236972   6.103   7.453   2.502
 8835SOL     OW36973   3.834   8.376   1.089
 8835SOL    HW136974   3.771   8.420   1.025
 8835SOL    HW236975   3.924   8.366   1.046
 8836SOL     OW36976   1.859   8.762   0.363
 8836SOL    HW136977   1.824   8.821   0.290
 8836SOL    HW236978   1.958   8.776   0.372
 8837SOL     OW36979   0.160   4.031   0.430
 8837SOL    HW136980   0.202   4.085   0.357
 8837SOL    HW236981   0.132   3.942   0.395
 8838SOL     OW36982   8.987   5.116   0.978
 8838SOL    HW136983   8.993   5.076   0.887
 8838SOL    HW236984   8.930   5.058   1.037
 8839SOL     OW36985   8.190   6.058   1.763
 8839SOL    HW136986   8.256   6.059   1.838
 8839SOL    HW236987   8.097   6.057   1.800
 8840SOL     OW36988   5.753   0.425   2.777
 8840SOL    HW136989   5.817   0.446   2.703
 8840SOL    HW236990   5.723   0.510   2.820
 8841SOL     OW36991   3.578   8.933   1.284
 8841SOL    HW136992   3.623   8.988   1.214
 8841SOL    HW236993   3.565   8.989   1.366
 8842SOL     OW36994   9.417   2.053   1.259
 8842SOL    HW136995   9.328   2.016   1.231
 8842SOL    HW236996   9.489   1.987   1.237
 8843SOL     OW36997   2.527   4.292   1.254
 8843SOL    HW136998   2.614   4.247   1.275
 8843SOL    HW236999   2.518   4.305   1.156
 8844SOL     OW37000   7.046   9.137   1.651
 8844SOL    HW137001   7.049   9.231   1.618
 8844SOL    HW237002   7.045   9.075   1.572
 8845SOL     OW37003   4.799   4.013   1.048
 8845SOL    HW137004   4.815   4.064   0.963
 8845SOL    HW237005   4.725   3.947   1.034
 8846SOL     OW37006   7.240   9.825   0.351
 8846SOL    HW137007   7.189   9.888   0.293
 8846SOL    HW237008   7.268   9.745   0.299
 8847SOL     OW37009   8.698   1.916   0.793
 8847SOL    HW137010   8.715   1.989   0.859
 8847SOL    HW237011   8.739   1.940   0.705
 8848SOL     OW37012   0.376   5.675   0.199
 8848SOL    HW137013   0.475   5.684   0.192
 8848SOL    HW237014   0.337   5.762   0.230
 8849SOL     OW37015   9.042   9.563   1.708
 8849SOL    HW137016   9.121   9.602   1.756
 8849SOL    HW237017   8.963   9.622   1.720
 8850SOL     OW37018   7.995   8.893   3.524
 8850SOL    HW137019   7.919   8.942   3.480
 8850SOL    HW237020   8.077   8.950   3.522
 8851SOL     OW37021   4.470   4.165   0.443
 8851SOL    HW137022   4.443   4.261   0.452
 8851SOL    HW237023   4.479   4.141   0.347
 8852SOL     OW37024   2.269   6.659   1.768
 8852SOL    HW137025   2.349   6.605   1.796
 8852SOL    HW237026   2.245   6.637   1.674
 8853SOL     OW37027   8.083   2.111   1.935
 8853SOL    HW137028   8.069   2.203   1.898
 8853SOL    HW237029   8.180   2.088   1.930
 8854SOL     OW37030   0.490   8.641   1.605
 8854SOL    HW137031   0.509   8.716   1.541
 8854SOL    HW237032   0.574   8.619   1.655
 8855SOL     OW37033   7.633   3.354   0.341
 8855SOL    HW137034   7.691   3.369   0.421
 8855SOL    HW237035   7.635   3.435   0.283
 8856SOL     OW37036   4.841   7.494   2.394
 8856SOL    HW137037   4.904   7.416   2.390
 8856SOL    HW237038   4.774   7.487   2.320
 8857SOL     OW37039   4.072   6.560   3.313
 8857SOL    HW137040   3.997   6.544   3.248
 8857SOL    HW237041   4.111   6.651   3.298
 8858SOL     OW37042   3.174   1.258   2.538
 8858SOL    HW137043   3.229   1.340   2.554
 8858SOL    HW237044   3.224   1.196   2.477
 8859SOL     OW37045   1.258   3.804   1.586
 8859SOL    HW137046   1.199   3.797   1.505
 8859SOL    HW237047   1.353   3.785   1.560
 8860SOL     OW37048   3.042   8.672   3.315
 8860SOL    HW137049   3.043   8.581   3.274
 8860SOL    HW237050   2.967   8.726   3.276
 8861SOL     OW37051   8.319   4.350   2.511
 8861SOL    HW137052   8.284   4.432   2.466
 8861SOL    HW237053   8.314   4.273   2.448
 8862SOL     OW37054   1.641   7.865   1.358
 8862SOL    HW137055   1.652   7.940   1.293
 8862SOL    HW237056   1.608   7.784   1.310
 8863SOL     OW37057   9.821   8.291   0.606
 8863SOL    HW137058   9.800   8.224   0.677
 8863SOL    HW237059   9.737   8.338   0.579
 8864SOL     OW37060   1.828   2.493   2.632
 8864SOL    HW137061   1.918   2.533   2.642
 8864SOL    HW237062   1.835   2.393   2.638
 8865SOL     OW37063   3.906   4.904   2.983
 8865SOL    HW137064   3.820   4.943   2.949
 8865SOL    HW237065   3.949   4.851   2.909
 8866SOL     OW37066   9.647   1.863   3.185
 8866SOL    HW137067   9.592   1.901   3.259
 8866SOL    HW237068   9.743   1.859   3.212
 8867SOL     OW37069   5.484   7.059   3.321
 8867SOL    HW137070   5.468   6.992   3.249
 8867SOL    HW237071   5.580   7.085   3.323
 8868SOL     OW37072   3.000   9.438   0.034
 8868SOL    HW137073   2.928   9.506   0.046
 8868SOL    HW237074   3.039   9.448   4.724
 8869SOL     OW37075   6.918   0.378   3.595
 8869SOL    HW137076   6.892   0.473   3.612
 8869SOL    HW237077   6.835   0.322   3.587
 8870SOL     OW37078   1.745   8.759   3.164
 8870SOL    HW137079   1.719   8.840   3.112
 8870SOL    HW237080   1.753   8.783   3.261
 8871SOL     OW37081   8.441   9.554   2.492
 8871SOL    HW137082   8.424   9.456   2.482
 8871SOL    HW237083   8.478   9.572   2.583
 8872SOL     OW37084   3.762   5.995   3.408
 8872SOL    HW137085   3.860   6.006   3.424
 8872SOL    HW237086   3.717   5.964   3.492
 8873SOL     OW37087   2.660   5.503   1.926
 8873SOL    HW137088   2.688   5.423   1.874
 8873SOL    HW237089   2.570   5.486   1.967
 8874SOL     OW37090   2.642   4.196   1.630
 8874SOL    HW137091   2.692   4.177   1.715
 8874SOL    HW237092   2.690   4.267   1.578
 8875SOL     OW37093   0.152   5.682   1.737
 8875SOL    HW137094   0.095   5.631   1.673
 8875SOL    HW237095   0.245   5.688   1.701
 8876SOL     OW37096   7.704   6.961   3.791
 8876SOL    HW137097   7.758   6.996   3.867
 8876SOL    HW237098   7.610   6.995   3.798
 8877SOL     OW37099   1.486   2.198   1.137
 8877SOL    HW137100   1.428   2.121   1.109
 8877SOL    HW237101   1.482   2.208   1.237
 8878SOL     OW37102   9.578   4.086   3.361
 8878SOL    HW137103   9.592   4.107   3.264
 8878SOL    HW237104   9.666   4.063   3.403
 8879SOL     OW37105   4.293   6.985   2.014
 8879SOL    HW137106   4.384   6.959   1.983
 8879SOL    HW237107   4.268   6.932   2.096
 8880SOL     OW37108   0.982   7.808   1.331
 8880SOL    HW137109   0.992   7.864   1.414
 8880SOL    HW237110   1.055   7.740   1.328
 8881SOL     OW37111   3.491   6.788   2.989
 8881SOL    HW137112   3.395   6.817   2.989
 8881SOL    HW237113   3.550   6.868   3.004
 8882SOL     OW37114   0.379   8.325   3.465
 8882SOL    HW137115   0.459   8.359   3.415
 8882SOL    HW237116   0.303   8.313   3.401
 8883SOL     OW37117   6.776   7.804   2.506
 8883SOL    HW137118   6.833   7.724   2.524
 8883SOL    HW237119   6.710   7.782   2.433
 8884SOL     OW37120   9.116   5.717   1.947
 8884SOL    HW137121   9.092   5.743   1.854
 8884SOL    HW237122   9.175   5.636   1.945
 8885SOL     OW37123   9.490   2.134   0.486
 8885SOL    HW137124   9.422   2.065   0.511
 8885SOL    HW237125   9.484   2.152   0.388
 8886SOL     OW37126   3.022   5.227   1.830
 8886SOL    HW137127   3.008   5.128   1.834
 8886SOL    HW237128   3.091   5.253   1.898
 8887SOL     OW37129   4.102   4.855   1.441
 8887SOL    HW137130   4.010   4.832   1.471
 8887SOL    HW237131   4.144   4.775   1.397
 8888SOL     OW37132   1.617   5.350   3.465
 8888SOL    HW137133   1.569   5.402   3.536
 8888SOL    HW237134   1.613   5.400   3.378
 8889SOL     OW37135   5.867   0.451   1.955
 8889SOL    HW137136   5.795   0.488   1.897
 8889SOL    HW237137   5.826   0.407   2.035
 8890SOL     OW37138   9.800   8.085   3.585
 8890SOL    HW137139   9.761   8.080   3.677
 8890SOL    HW237140   9.826   7.993   3.555
 8891SOL     OW37141   9.839   7.780   1.010
 8891SOL    HW137142   9.861   7.774   0.912
 8891SOL    HW237143   9.743   7.755   1.024
 8892SOL     OW37144   4.513   1.229   1.589
 8892SOL    HW137145   4.591   1.246   1.649
 8892SOL    HW237146   4.507   1.132   1.568
 8893SOL     OW37147   0.818   8.391   0.394
 8893SOL    HW137148   0.861   8.455   0.457
 8893SOL    HW237149   0.796   8.437   0.309
 8894SOL     OW37150   4.082   4.747   0.994
 8894SOL    HW137151   4.030   4.667   1.024
 8894SOL    HW237152   4.054   4.827   1.046
 8895SOL     OW37153   8.655   7.254   3.629
 8895SOL    HW137154   8.639   7.204   3.544
 8895SOL    HW237155   8.735   7.215   3.675
 8896SOL     OW37156   2.034   1.359   2.709
 8896SOL    HW137157   2.022   1.264   2.738
 8896SOL    HW237158   2.030   1.364   2.609
 8897SOL     OW37159   8.967   3.240   1.038
 8897SOL    HW137160   8.895   3.270   1.101
 8897SOL    HW237161   8.995   3.147   1.061
 8898SOL     OW37162   6.410   9.935   3.041
 8898SOL    HW137163   6.452   9.953   3.130
 8898SOL    HW237164   6.435   9.844   3.010
 8899SOL     OW37165   3.318   4.434   3.541
 8899SOL    HW137166   3.260   4.515   3.537
 8899SOL    HW237167   3.262   4.352   3.552
 8900SOL     OW37168   9.637   2.959   1.260
 8900SOL    HW137169   9.631   3.046   1.211
 8900SOL    HW237170   9.617   2.884   1.198
 8901SOL     OW37171   0.931   4.048   2.698
 8901SOL    HW137172   0.835   4.076   2.707
 8901SOL    HW237173   0.970   4.089   2.615
 8902SOL     OW37174   3.290   1.804   1.350
 8902SOL    HW137175   3.204   1.814   1.400
 8902SOL    HW237176   3.337   1.721   1.380
 8903SOL     OW37177   1.429   2.751   3.463
 8903SOL    HW137178   1.422   2.741   3.562
 8903SOL    HW237179   1.445   2.847   3.440
 8904SOL     OW37180   1.233   1.083   2.665
 8904SOL    HW137181   1.246   0.997   2.616
 8904SOL    HW237182   1.217   1.156   2.599
 8905SOL     OW37183   8.896   2.110   3.265
 8905SOL    HW137184   8.932   2.174   3.196
 8905SOL    HW237185   8.915   2.146   3.356
 8906SOL     OW37186   0.428   2.877   3.321
 8906SOL    HW137187   0.379   2.950   3.367
 8906SOL    HW237188   0.386   2.859   3.232
 8907SOL     OW37189   2.924   7.571   2.722
 8907SOL    HW137190   2.867   7.641   2.765
 8907SOL    HW237191   2.981   7.528   2.792
 8908SOL     OW37192   3.529   2.721   0.674
 8908SOL    HW137193   3.477   2.751   0.754
 8908SOL    HW237194   3.481   2.749   0.590
 8909SOL     OW37195   7.889   8.536   2.496
 8909SOL    HW137196   7.913   8.440   2.512
 8909SOL    HW237197   7.936   8.569   2.414
 8910SOL     OW37198   7.482   7.881   2.736
 8910SOL    HW137199   7.476   7.818   2.814
 8910SOL    HW237200   7.553   7.850   2.673
 8911SOL     OW37201   3.993   3.830   1.071
 8911SOL    HW137202   4.093   3.832   1.060
 8911SOL    HW237203   3.970   3.804   1.165
 8912SOL     OW37204   8.081   7.993   2.776
 8912SOL    HW137205   7.999   8.048   2.793
 8912SOL    HW237206   8.137   8.039   2.707
 8913SOL     OW37207   2.904   8.900   3.741
 8913SOL    HW137208   2.895   8.860   3.832
 8913SOL    HW237209   2.946   8.834   3.679
 8914SOL     OW37210   2.518   0.925   1.452
 8914SOL    HW137211   2.446   0.957   1.392
 8914SOL    HW237212   2.574   1.003   1.481
 8915SOL     OW37213   4.681   3.338   3.312
 8915SOL    HW137214   4.631   3.424   3.320
 8915SOL    HW237215   4.635   3.278   3.247
 8916SOL     OW37216   0.886   1.825   0.573
 8916SOL    HW137217   0.898   1.731   0.540
 8916SOL    HW237218   0.791   1.838   0.602
 8917SOL     OW37219   9.778   5.577   3.347
 8917SOL    HW137220   9.789   5.663   3.397
 8917SOL    HW237221   9.839   5.577   3.267
 8918SOL     OW37222   4.297   7.785   1.014
 8918SOL    HW137223   4.279   7.689   0.996
 8918SOL    HW237224   4.244   7.815   1.093
 8919SOL     OW37225   9.675   9.945   2.288
 8919SOL    HW137226   9.718   0.035   2.297
 8919SOL    HW237227   9.746   9.875   2.288
 8920SOL     OW37228   2.365   0.392   2.725
 8920SOL    HW137229   2.291   0.401   2.792
 8920SOL    HW237230   2.329   0.358   2.639
 8921SOL     OW37231   9.915   8.529   2.996
 8921SOL    HW137232   9.881   8.486   3.079
 8921SOL    HW237233   9.931   8.627   3.013
 8922SOL     OW37234   2.263   4.749   3.376
 8922SOL    HW137235   2.220   4.659   3.368
 8922SOL    HW237236   2.277   4.788   3.285
 8923SOL     OW37237   7.360   7.056   2.277
 8923SOL    HW137238   7.447   7.043   2.229
 8923SOL    HW237239   7.296   7.104   2.218
 8924SOL     OW37240   2.814   1.672   3.561
 8924SOL    HW137241   2.807   1.754   3.617
 8924SOL    HW237242   2.739   1.671   3.494
 8925SOL     OW37243   3.454   8.733   3.454
 8925SOL    HW137244   3.440   8.642   3.416
 8925SOL    HW237245   3.548   8.742   3.487
 8926SOL     OW37246   8.249   8.995   3.474
 8926SOL    HW137247   8.311   8.917   3.482
 8926SOL    HW237248   8.220   9.005   3.378
 8927SOL     OW37249   8.576   1.821   0.070
 8927SOL    HW137250   8.606   1.850   0.161
 8927SOL    HW237251   8.605   1.726   0.054
 8928SOL     OW37252   3.667   9.313   1.395
 8928SOL    HW137253   3.623   9.322   1.306
 8928SOL    HW237254   3.632   9.232   1.442
 8929SOL     OW37255   2.810   7.712   1.979
 8929SOL    HW137256   2.828   7.634   1.919
 8929SOL    HW237257   2.897   7.750   2.011
 8930SOL     OW37258   5.265   0.764   3.144
 8930SOL    HW137259   5.276   0.735   3.239
 8930SOL    HW237260   5.307   0.855   3.132
 8931SOL     OW37261   0.240   0.731   1.069
 8931SOL    HW137262   0.235   0.643   1.115
 8931SOL    HW237263   0.329   0.740   1.024
 8932SOL     OW37264   9.964   6.413   3.472
 8932SOL    HW137265   9.946   6.359   3.554
 8932SOL    HW237266   9.961   6.510   3.495
 8933SOL     OW37267   7.079   7.825   2.844
 8933SOL    HW137268   7.072   7.725   2.850
 8933SOL    HW237269   7.124   7.860   2.926
 8934SOL     OW37270   6.665   0.288   2.332
 8934SOL    HW137271   6.594   0.322   2.393
 8934SOL    HW237272   6.624   0.258   2.245
 8935SOL     OW37273   3.671   6.667   1.649
 8935SOL    HW137274   3.623   6.604   1.709
 8935SOL    HW237275   3.616   6.683   1.567
 8936SOL     OW37276   6.993   8.303   3.472
 8936SOL    HW137277   6.925   8.364   3.513
 8936SOL    HW237278   6.950   8.215   3.450
 8937SOL     OW37279   9.342   6.613   3.626
 8937SOL    HW137280   9.345   6.713   3.626
 8937SOL    HW237281   9.434   6.577   3.641
 8938SOL     OW37282   6.542   9.839   2.700
 8938SOL    HW137283   6.566   9.925   2.746
 8938SOL    HW237284   6.604   9.823   2.624
 8939SOL     OW37285   2.759   6.230   2.647
 8939SOL    HW137286   2.711   6.173   2.713
 8939SOL    HW237287   2.695   6.294   2.605
 8940SOL     OW37288   0.900   9.456   3.234
 8940SOL    HW137289   0.939   9.376   3.279
 8940SOL    HW237290   0.899   9.533   3.299
 8941SOL     OW37291   2.645   0.129   2.044
 8941SOL    HW137292   2.628   0.031   2.059
 8941SOL    HW237293   2.724   0.158   2.098
 8942SOL     OW37294   2.798   7.777   2.854
 8942SOL    HW137295   2.742   7.781   2.937
 8942SOL    HW237296   2.883   7.826   2.869
 8943SOL     OW37297   5.371   9.458   2.066
 8943SOL    HW137298   5.346   9.534   2.005
 8943SOL    HW237299   5.300   9.445   2.134
 8944SOL     OW37300   4.175   2.005   3.322
 8944SOL    HW137301   4.252   2.068   3.313
 8944SOL    HW237302   4.132   1.991   3.233
 8945SOL     OW37303   9.028   3.925   1.361
 8945SOL    HW137304   9.072   3.980   1.290
 8945SOL    HW237305   9.007   3.984   1.440
 8946SOL     OW37306   7.889   0.918   3.138
 8946SOL    HW137307   7.948   0.847   3.175
 8946SOL    HW237308   7.938   0.970   3.068
 8947SOL     OW37309   5.194   8.687   3.016
 8947SOL    HW137310   5.111   8.719   2.972
 8947SOL    HW237311   5.234   8.612   2.962
 8948SOL     OW37312   2.443   4.620   0.195
 8948SOL    HW137313   2.370   4.624   0.264
 8948SOL    HW237314   2.404   4.636   0.105
 8949SOL     OW37315   8.298   3.991   0.733
 8949SOL    HW137316   8.246   3.905   0.732
 8949SOL    HW237317   8.385   3.977   0.779
 8950SOL     OW37318   0.640   7.497   2.773
 8950SOL    HW137319   0.640   7.578   2.831
 8950SOL    HW237320   0.645   7.524   2.677
 8951SOL     OW37321   5.887   1.073   2.686
 8951SOL    HW137322   5.864   0.987   2.730
 8951SOL    HW237323   5.933   1.054   2.599
 8952SOL     OW37324   2.041   9.423   0.893
 8952SOL    HW137325   2.105   9.406   0.968
 8952SOL    HW237326   2.078   9.386   0.808
 8953SOL     OW37327   4.136   6.067   2.596
 8953SOL    HW137328   4.102   5.973   2.596
 8953SOL    HW237329   4.118   6.109   2.507
 8954SOL     OW37330   2.873   9.322   1.234
 8954SOL    HW137331   2.788   9.270   1.222
 8954SOL    HW237332   2.947   9.259   1.258
 8955SOL     OW37333   4.115   9.723   0.811
 8955SOL    HW137334   4.215   9.728   0.815
 8955SOL    HW237335   4.083   9.645   0.864
 8956SOL     OW37336   1.155   2.538   2.310
 8956SOL    HW137337   1.139   2.491   2.397
 8956SOL    HW237338   1.192   2.472   2.244
 8957SOL     OW37339   2.249   9.785   1.137
 8957SOL    HW137340   2.293   9.750   1.054
 8957SOL    HW237341   2.318   9.823   1.198
 8958SOL     OW37342   9.294   0.536   0.110
 8958SOL    HW137343   9.349   0.547   0.193
 8958SOL    HW237344   9.354   0.542   0.030
 8959SOL     OW37345   9.236   7.597   0.509
 8959SOL    HW137346   9.236   7.638   0.600
 8959SOL    HW237347   9.240   7.498   0.517
 8960SOL     OW37348   9.602   6.035   2.928
 8960SOL    HW137349   9.525   6.047   2.991
 8960SOL    HW237350   9.667   5.970   2.968
 8961SOL     OW37351   9.802   9.648   0.258
 8961SOL    HW137352   9.791   9.550   0.245
 8961SOL    HW237353   9.724   9.696   0.218
 8962SOL     OW37354   6.028   9.563   2.437
 8962SOL    HW137355   6.071   9.555   2.347
 8962SOL    HW237356   5.990   9.655   2.447
 8963SOL     OW37357   3.205   0.816   2.492
 8963SOL    HW137358   3.277   0.874   2.531
 8963SOL    HW237359   3.236   0.776   2.406
 8964SOL     OW37360   2.695   9.249   2.747
 8964SOL    HW137361   2.652   9.336   2.723
 8964SOL    HW237362   2.636   9.199   2.811
 8965SOL     OW37363   4.036   9.503   0.960
 8965SOL    HW137364   4.031   9.535   1.055
 8965SOL    HW237365   3.947   9.466   0.933
 8966SOL     OW37366   9.098   3.191   2.493
 8966SOL    HW137367   9.155   3.262   2.450
 8966SOL    HW237368   9.026   3.234   2.547
 8967SOL     OW37369   4.338   7.391   3.309
 8967SOL    HW137370   4.246   7.375   3.345
 8967SOL    HW237371   4.385   7.303   3.297
 8968SOL     OW37372   2.781   4.640   2.444
 8968SOL    HW137373   2.760   4.728   2.401
 8968SOL    HW237374   2.697   4.594   2.471
 8969SOL     OW37375   3.873   0.081   1.598
 8969SOL    HW137376   3.843   0.174   1.575
 8969SOL    HW237377   3.799   0.033   1.646
 8970SOL     OW37378   3.042   3.288   3.577
 8970SOL    HW137379   3.129   3.310   3.621
 8970SOL    HW237380   2.992   3.223   3.635
 8971SOL     OW37381   9.165   0.445   3.357
 8971SOL    HW137382   9.085   0.505   3.359
 8971SOL    HW237383   9.248   0.500   3.362
 8972SOL     OW37384   9.544   2.857   0.708
 8972SOL    HW137385   9.471   2.803   0.666
 8972SOL    HW237386   9.549   2.946   0.663
 8973SOL     OW37387   3.292   6.350   1.678
 8973SOL    HW137388   3.314   6.261   1.640
 8973SOL    HW237389   3.223   6.339   1.750
 8974SOL     OW37390   2.604   2.942   0.235
 8974SOL    HW137391   2.619   2.881   0.313
 8974SOL    HW237392   2.562   2.889   0.160
 8975SOL     OW37393   9.244   0.009   3.115
 8975SOL    HW137394   9.237   0.107   3.136
 8975SOL    HW237395   9.302   9.965   3.184
 8976SOL     OW37396   8.621   2.195   1.754
 8976SOL    HW137397   8.661   2.276   1.710
 8976SOL    HW237398   8.559   2.225   1.827
 8977SOL     OW37399   9.323   9.717   3.480
 8977SOL    HW137400   9.334   9.765   3.392
 8977SOL    HW237401   9.401   9.739   3.539
 8978SOL     OW37402   0.118   8.273   1.021
 8978SOL    HW137403   0.071   8.187   1.002
 8978SOL    HW237404   0.217   8.257   1.025
 8979SOL     OW37405   3.086   0.548   3.630
 8979SOL    HW137406   3.118   0.605   3.705
 8979SOL    HW237407   2.992   0.571   3.608
 8980SOL     OW37408   8.801   3.151   3.093
 8980SOL    HW137409   8.895   3.170   3.065
 8980SOL    HW237410   8.769   3.223   3.153
 8981SOL     OW37411   7.494   5.682   3.136
 8981SOL    HW137412   7.576   5.732   3.111
 8981SOL    HW237413   7.494   5.665   3.235
 8982SOL     OW37414   3.041   3.691   2.117
 8982SOL    HW137415   3.076   3.784   2.129
 8982SOL    HW237416   3.118   3.628   2.105
 8983SOL     OW37417   8.235   3.668   3.374
 8983SOL    HW137418   8.226   3.743   3.309
 8983SOL    HW237419   8.168   3.679   3.448
 8984SOL     OW37420   1.246   5.402   1.722
 8984SOL    HW137421   1.293   5.392   1.634
 8984SOL    HW237422   1.207   5.313   1.749
 8985SOL     OW37423   7.903   2.753   3.699
 8985SOL    HW137424   8.002   2.757   3.716
 8985SOL    HW237425   7.857   2.820   3.757
 8986SOL     OW37426   0.198   5.417   3.010
 8986SOL    HW137427   0.132   5.344   3.028
 8986SOL    HW237428   0.285   5.395   3.054
 8987SOL     OW37429   5.122   3.122   1.375
 8987SOL    HW137430   5.052   3.063   1.336
 8987SOL    HW237431   5.087   3.164   1.459
 8988SOL     OW37432   9.364   8.857   0.282
 8988SOL    HW137433   9.314   8.899   0.206
 8988SOL    HW237434   9.321   8.883   0.368
 8989SOL     OW37435   8.559   2.211   3.029
 8989SOL    HW137436   8.575   2.216   2.931
 8989SOL    HW237437   8.618   2.276   3.076
 8990SOL     OW37438   8.603   9.960   1.513
 8990SOL    HW137439   8.580   9.907   1.432
 8990SOL    HW237440   8.702   9.978   1.514
 8991SOL     OW37441   3.390   9.574   3.686
 8991SOL    HW137442   3.393   9.581   3.786
 8991SOL    HW237443   3.474   9.532   3.653
 8992SOL     OW37444   3.449   4.393   1.639
 8992SOL    HW137445   3.387   4.444   1.699
 8992SOL    HW237446   3.536   4.379   1.686
 8993SOL     OW37447   1.578   1.589   1.290
 8993SOL    HW137448   1.557   1.554   1.381
 8993SOL    HW237449   1.644   1.529   1.245
 8994SOL     OW37450   2.469   2.924   3.154
 8994SOL    HW137451   2.437   2.917   3.059
 8994SOL    HW237452   2.557   2.877   3.162
 8995SOL     OW37453   2.087   8.104   2.270
 8995SOL    HW137454   2.186   8.096   2.260
 8995SOL    HW237455   2.065   8.193   2.310
 8996SOL     OW37456   8.737   6.189   1.351
 8996SOL    HW137457   8.836   6.184   1.368
 8996SOL    HW237458   8.693   6.239   1.425
 8997SOL     OW37459   3.304   0.536   1.237
 8997SOL    HW137460   3.297   0.451   1.184
 8997SOL    HW237461   3.366   0.522   1.314
 8998SOL     OW37462   3.031   8.568   0.947
 8998SOL    HW137463   3.053   8.646   1.005
 8998SOL    HW237464   2.970   8.598   0.873
 8999SOL     OW37465   4.437   7.772   3.593
 8999SOL    HW137466   4.470   7.707   3.525
 8999SOL    HW237467   4.432   7.863   3.551
 9000SOL     OW37468   1.190   1.699   2.534
 9000SOL    HW137469   1.152   1.667   2.621
 9000SOL    HW237470   1.274   1.750   2.550
 9001SOL     OW37471   2.465   4.038   2.821
 9001SOL    HW137472   2.494   3.969   2.754
 9001SOL    HW237473   2.544   4.067   2.876
 9002SOL     OW37474   2.455   7.627   0.606
 9002SOL    HW137475   2.380   7.561   0.615
 9002SOL    HW237476   2.539   7.578   0.582
 9003SOL     OW37477   2.338   7.640   3.125
 9003SOL    HW137478   2.416   7.690   3.086
 9003SOL    HW237479   2.303   7.576   3.056
 9004SOL     OW37480   2.524   5.058   2.351
 9004SOL    HW137481   2.434   5.096   2.328
 9004SOL    HW237482   2.576   5.127   2.401
 9005SOL     OW37483   7.997   5.606   0.350
 9005SOL    HW137484   7.914   5.660   0.355
 9005SOL    HW237485   8.005   5.550   0.433
 9006SOL     OW37486   3.508   8.584   1.131
 9006SOL    HW137487   3.569   8.610   1.206
 9006SOL    HW237488   3.563   8.558   1.051
 9007SOL     OW37489   1.926   2.143   0.549
 9007SOL    HW137490   1.997   2.182   0.491
 9007SOL    HW237491   1.839   2.190   0.532
 9008SOL     OW37492   1.351   7.547   0.755
 9008SOL    HW137493   1.295   7.465   0.768
 9008SOL    HW237494   1.447   7.521   0.753
 9009SOL     OW37495   4.111   3.148   1.450
 9009SOL    HW137496   4.209   3.131   1.465
 9009SOL    HW237497   4.064   3.060   1.441
 9010SOL     OW37498   0.261   5.851   2.601
 9010SOL    HW137499   0.294   5.944   2.589
 9010SOL    HW237500   0.324   5.800   2.661
 9011SOL     OW37501   3.681   3.763   2.268
 9011SOL    HW137502   3.764   3.788   2.318
 9011SOL    HW237503   3.674   3.818   2.185
 9012SOL     OW37504   2.396   5.847   1.231
 9012SOL    HW137505   2.424   5.760   1.270
 9012SOL    HW237506   2.450   5.921   1.272
 9013SOL     OW37507   2.120   8.914   0.613
 9013SOL    HW137508   2.040   8.914   0.674
 9013SOL    HW237509   2.192   8.970   0.653
 9014SOL     OW37510   2.565   3.770   1.917
 9014SOL    HW137511   2.523   3.733   1.834
 9014SOL    HW237512   2.658   3.735   1.926
 9015SOL     OW37513   1.485   5.505   3.648
 9015SOL    HW137514   1.398   5.539   3.612
 9015SOL    HW237515   1.469   5.457   3.734
 9016SOL     OW37516   9.882   8.700   3.327
 9016SOL    HW137517   9.801   8.682   3.270
 9016SOL    HW237518   9.854   8.706   3.423
 9017SOL     OW37519   9.148   7.915   0.198
 9017SOL    HW137520   9.153   8.005   0.156
 9017SOL    HW237521   9.060   7.872   0.175
 9018SOL     OW37522   1.041   4.344   1.649
 9018SOL    HW137523   1.074   4.316   1.559
 9018SOL    HW237524   1.106   4.315   1.720
 9019SOL     OW37525   2.693   7.789   1.581
 9019SOL    HW137526   2.613   7.731   1.595
 9019SOL    HW237527   2.775   7.732   1.580
 9020SOL     OW37528   2.627   8.712   0.904
 9020SOL    HW137529   2.617   8.616   0.929
 9020SOL    HW237530   2.538   8.750   0.879
 9021SOL     OW37531   5.759   9.934   3.300
 9021SOL    HW137532   5.692   9.982   3.244
 9021SOL    HW237533   5.808  10.000   3.357
 9022SOL     OW37534   0.148   4.568   0.733
 9022SOL    HW137535   0.211   4.600   0.804
 9022SOL    HW237536   0.073   4.633   0.723
 9023SOL     OW37537   2.435   8.339   2.198
 9023SOL    HW137538   2.481   8.341   2.109
 9023SOL    HW237539   2.404   8.246   2.218
 9024SOL     OW37540   0.757   5.010   1.388
 9024SOL    HW137541   0.814   4.934   1.419
 9024SOL    HW237542   0.693   4.977   1.318
 9025SOL     OW37543   1.278   6.185   0.124
 9025SOL    HW137544   1.356   6.150   0.071
 9025SOL    HW237545   1.307   6.263   0.178
 9026SOL     OW37546   7.663   1.708   0.496
 9026SOL    HW137547   7.584   1.767   0.476
 9026SOL    HW237548   7.691   1.721   0.591
 9027SOL     OW37549   4.633   3.384   0.677
 9027SOL    HW137550   4.680   3.414   0.594
 9027SOL    HW237551   4.618   3.462   0.738
 9028SOL     OW37552   5.211   8.449   1.838
 9028SOL    HW137553   5.183   8.494   1.753
 9028SOL    HW237554   5.225   8.517   1.909
 9029SOL     OW37555   0.934   0.675   0.087
 9029SOL    HW137556   0.973   0.738   0.154
 9029SOL    HW237557   0.997   0.665   0.010
 9030SOL     OW37558   5.367   0.546   2.552
 9030SOL    HW137559   5.283   0.588   2.584
 9030SOL    HW237560   5.440   0.615   2.550
 9031SOL     OW37561   9.191   5.182   1.155
 9031SOL    HW137562   9.170   5.109   1.220
 9031SOL    HW237563   9.124   5.179   1.080
 9032SOL     OW37564   1.760   7.067   1.246
 9032SOL    HW137565   1.669   7.035   1.269
 9032SOL    HW237566   1.762   7.167   1.248
 9033SOL     OW37567   9.896   7.624   1.419
 9033SOL    HW137568   9.835   7.550   1.448
 9033SOL    HW237569   9.971   7.632   1.484
 9034SOL     OW37570   3.216   9.681   1.775
 9034SOL    HW137571   3.160   9.752   1.731
 9034SOL    HW237572   3.253   9.619   1.706
 9035SOL     OW37573   1.853   3.013   2.661
 9035SOL    HW137574   1.924   2.988   2.596
 9035SOL    HW237575   1.771   2.960   2.643
 9036SOL     OW37576   1.919   2.787   0.205
 9036SOL    HW137577   1.975   2.867   0.228
 9036SOL    HW237578   1.968   2.703   0.230
 9037SOL     OW37579   2.733   5.427   1.115
 9037SOL    HW137580   2.771   5.376   1.038
 9037SOL    HW237581   2.635   5.410   1.121
 9038SOL     OW37582   9.724   9.571   1.310
 9038SOL    HW137583   9.808   9.624   1.301
 9038SOL    HW237584   9.706   9.554   1.407
 9039SOL     OW37585   9.162   2.531   1.291
 9039SOL    HW137586   9.085   2.499   1.235
 9039SOL    HW237587   9.134   2.532   1.387
 9040SOL     OW37588   0.395   7.243   1.706
 9040SOL    HW137589   0.332   7.170   1.680
 9040SOL    HW237590   0.387   7.261   1.804
 9041SOL     OW37591   4.937   7.704   1.609
 9041SOL    HW137592   4.944   7.672   1.515
 9041SOL    HW237593   4.981   7.793   1.617
 9042SOL     OW37594   4.361   0.737   0.437
 9042SOL    HW137595   4.319   0.704   0.522
 9042SOL    HW237596   4.442   0.682   0.417
 9043SOL     OW37597   7.944   7.784   2.951
 9043SOL    HW137598   7.981   7.855   2.891
 9043SOL    HW237599   8.019   7.743   3.003
 9044SOL     OW37600   8.231   1.082   1.996
 9044SOL    HW137601   8.162   1.080   2.068
 9044SOL    HW237602   8.314   1.035   2.027
 9045SOL     OW37603   9.867   9.738   2.288
 9045SOL    HW137604   9.918   9.706   2.209
 9045SOL    HW237605   9.931   9.759   2.362
 9046SOL     OW37606   4.028   0.615   1.833
 9046SOL    HW137607   4.115   0.617   1.883
 9046SOL    HW237608   3.976   0.534   1.860
 9047SOL     OW37609   0.225   5.452   1.253
 9047SOL    HW137610   0.140   5.410   1.221
 9047SOL    HW237611   0.281   5.383   1.298
 9048SOL     OW37612   0.397   0.687   2.010
 9048SOL    HW137613   0.409   0.730   2.099
 9048SOL    HW237614   0.356   0.753   1.947
 9049SOL     OW37615   9.172   4.151   1.959
 9049SOL    HW137616   9.125   4.077   1.911
 9049SOL    HW237617   9.264   4.121   1.984
 9050SOL     OW37618   8.421   6.496   0.366
 9050SOL    HW137619   8.426   6.581   0.314
 9050SOL    HW237620   8.512   6.473   0.402
 9051SOL     OW37621   9.396   7.491   2.093
 9051SOL    HW137622   9.395   7.400   2.052
 9051SOL    HW237623   9.334   7.551   2.041
 9052SOL     OW37624   3.103   3.654   0.155
 9052SOL    HW137625   3.088   3.702   0.241
 9052SOL    HW237626   3.068   3.709   0.080
 9053SOL     OW37627   2.592   7.698   2.493
 9053SOL    HW137628   2.673   7.656   2.453
 9053SOL    HW237629   2.524   7.716   2.422
 9054SOL     OW37630   9.341   0.908   1.885
 9054SOL    HW137631   9.434   0.906   1.848
 9054SOL    HW237632   9.301   0.817   1.879
 9055SOL     OW37633   8.524   0.890   2.881
 9055SOL    HW137634   8.570   0.966   2.835
 9055SOL    HW237635   8.582   0.808   2.876
 9056SOL     OW37636   3.282   3.113   3.238
 9056SOL    HW137637   3.302   3.127   3.141
 9056SOL    HW237638   3.198   3.161   3.262
 9057SOL     OW37639   1.656   2.718   0.212
 9057SOL    HW137640   1.604   2.803   0.209
 9057SOL    HW237641   1.754   2.739   0.204
 9058SOL     OW37642   9.230   2.282   1.961
 9058SOL    HW137643   9.165   2.292   1.885
 9058SOL    HW237644   9.302   2.351   1.952
 9059SOL     OW37645   8.206   2.583   1.855
 9059SOL    HW137646   8.184   2.677   1.830
 9059SOL    HW237647   8.291   2.556   1.810
 9060SOL     OW37648   1.369   0.257   0.650
 9060SOL    HW137649   1.341   0.345   0.688
 9060SOL    HW237650   1.327   0.246   0.559
 9061SOL     OW37651   2.763   5.861   1.123
 9061SOL    HW137652   2.681   5.829   1.074
 9061SOL    HW237653   2.771   5.960   1.112
 9062SOL     OW37654   2.827   0.593   3.587
 9062SOL    HW137655   2.786   0.652   3.657
 9062SOL    HW237656   2.760   0.578   3.514
 9063SOL     OW37657   4.123   9.429   0.293
 9063SOL    HW137658   4.121   9.517   0.245
 9063SOL    HW237659   4.029   9.399   0.310
 9064SOL     OW37660   2.686   3.523   2.663
 9064SOL    HW137661   2.695   3.595   2.594
 9064SOL    HW237662   2.621   3.454   2.631
 9065SOL     OW37663   2.273   2.993   1.432
 9065SOL    HW137664   2.188   3.029   1.470
 9065SOL    HW237665   2.350   3.047   1.467
 9066SOL     OW37666   1.088   2.546   1.445
 9066SOL    HW137667   1.182   2.556   1.412
 9066SOL    HW237668   1.086   2.477   1.518
 9067SOL     OW37669   5.336   8.994   1.985
 9067SOL    HW137670   5.247   9.007   1.940
 9067SOL    HW237671   5.389   9.078   1.980
 9068SOL     OW37672   2.713   8.135   0.472
 9068SOL    HW137673   2.653   8.056   0.457
 9068SOL    HW237674   2.685   8.210   0.411
 9069SOL     OW37675   3.168   8.787   1.453
 9069SOL    HW137676   3.238   8.787   1.381
 9069SOL    HW237677   3.083   8.749   1.417
 9070SOL     OW37678   2.547   9.648   3.198
 9070SOL    HW137679   2.584   9.686   3.113
 9070SOL    HW237680   2.582   9.701   3.276
 9071SOL     OW37681   8.600   0.445   1.674
 9071SOL    HW137682   8.675   0.485   1.726
 9071SOL    HW237683   8.513   0.476   1.712
 9072SOL     OW37684   2.008   2.683   2.917
 9072SOL    HW137685   1.947   2.623   2.968
 9072SOL    HW237686   1.977   2.777   2.926
 9073SOL     OW37687   5.554   0.483   3.186
 9073SOL    HW137688   5.642   0.447   3.153
 9073SOL    HW237689   5.500   0.516   3.109
 9074SOL     OW37690   9.729   5.980   3.273
 9074SOL    HW137691   9.737   6.078   3.294
 9074SOL    HW237692   9.760   5.926   3.351
 9075SOL     OW37693   4.942   4.681   1.669
 9075SOL    HW137694   4.885   4.721   1.740
 9075SOL    HW237695   4.900   4.596   1.637
 9076SOL     OW37696   5.667   0.066   1.447
 9076SOL    HW137697   5.622   9.993   1.498
 9076SOL    HW237698   5.765   0.052   1.447
 9077SOL     OW37699   2.164   9.330   0.660
 9077SOL    HW137700   2.256   9.351   0.628
 9077SOL    HW237701   2.098   9.355   0.590
 9078SOL     OW37702   1.985   4.574   0.295
 9078SOL    HW137703   1.917   4.535   0.357
 9078SOL    HW237704   1.945   4.583   0.203
 9079SOL     OW37705   0.560   4.280   3.284
 9079SOL    HW137706   0.593   4.251   3.194
 9079SOL    HW237707   0.631   4.263   3.353
 9080SOL     OW37708   8.885   7.852   0.969
 9080SOL    HW137709   8.926   7.795   0.898
 9080SOL    HW237710   8.945   7.854   1.049
 9081SOL     OW37711   3.704   0.737   3.723
 9081SOL    HW137712   3.683   0.802   3.796
 9081SOL    HW237713   3.776   0.774   3.664
 9082SOL     OW37714   0.246   1.966   2.335
 9082SOL    HW137715   0.323   1.902   2.327
 9082SOL    HW237716   0.162   1.914   2.352
 9083SOL     OW37717   1.411   8.000   0.566
 9083SOL    HW137718   1.379   8.057   0.490
 9083SOL    HW237719   1.433   8.059   0.644
 9084SOL     OW37720   5.345   1.269   2.277
 9084SOL    HW137721   5.417   1.300   2.339
 9084SOL    HW237722   5.262   1.322   2.292
 9085SOL     OW37723   8.441   7.658   1.336
 9085SOL    HW137724   8.503   7.596   1.289
 9085SOL    HW237725   8.469   7.753   1.321
 9086SOL     OW37726   8.698   2.785   3.353
 9086SOL    HW137727   8.678   2.849   3.427
 9086SOL    HW237728   8.690   2.832   3.265
 9087SOL     OW37729   0.019   5.387   0.645
 9087SOL    HW137730   0.092   5.422   0.586
 9087SOL    HW237731   0.054   5.374   0.738
 9088SOL     OW37732   7.545   8.694   2.324
 9088SOL    HW137733   7.597   8.639   2.259
 9088SOL    HW237734   7.482   8.635   2.375
 9089SOL     OW37735   7.615   0.051   1.431
 9089SOL    HW137736   7.528   0.065   1.478
 9089SOL    HW237737   7.614   9.963   1.384
 9090SOL     OW37738   2.804   9.018   3.034
 9090SOL    HW137739   2.740   9.076   3.085
 9090SOL    HW237740   2.890   9.066   3.022
 9091SOL     OW37741   0.075   7.132   3.508
 9091SOL    HW137742   0.155   7.134   3.447
 9091SOL    HW237743   0.089   7.064   3.580
 9092SOL     OW37744   9.377   2.414   1.638
 9092SOL    HW137745   9.281   2.426   1.661
 9092SOL    HW237746   9.388   2.330   1.584
 9093SOL     OW37747   8.300   7.427   0.901
 9093SOL    HW137748   8.301   7.382   0.990
 9093SOL    HW237749   8.302   7.357   0.829
 9094SOL     OW37750   5.706   7.480   2.522
 9094SOL    HW137751   5.636   7.510   2.458
 9094SOL    HW237752   5.728   7.384   2.504
 9095SOL     OW37753   2.105   7.029   1.896
 9095SOL    HW137754   2.071   7.122   1.909
 9095SOL    HW237755   2.192   7.019   1.943
 9096SOL     OW37756   9.502   0.012   0.283
 9096SOL    HW137757   9.563   0.091   0.274
 9096SOL    HW237758   9.452   0.018   0.369
 9097SOL     OW37759   9.695   9.381   2.574
 9097SOL    HW137760   9.692   9.445   2.498
 9097SOL    HW237761   9.621   9.314   2.564
 9098SOL     OW37762   5.121   0.658   2.610
 9098SOL    HW137763   5.059   0.652   2.532
 9098SOL    HW237764   5.077   0.707   2.685
 9099SOL     OW37765   0.860   3.884   0.916
 9099SOL    HW137766   0.785   3.946   0.937
 9099SOL    HW237767   0.947   3.928   0.941
 9100SOL     OW37768   4.517   2.500   2.922
 9100SOL    HW137769   4.554   2.504   2.829
 9100SOL    HW237770   4.528   2.589   2.966
 9101SOL     OW37771   2.615   0.905   0.156
 9101SOL    HW137772   2.680   0.870   0.223
 9101SOL    HW237773   2.623   1.005   0.151
 9102SOL     OW37774   3.539   9.167   3.638
 9102SOL    HW137775   3.604   9.105   3.681
 9102SOL    HW237776   3.446   9.141   3.662
 9103SOL     OW37777   4.677   9.614   2.000
 9103SOL    HW137778   4.652   9.660   1.915
 9103SOL    HW237779   4.738   9.673   2.054
 9104SOL     OW37780   9.468   7.157   0.666
 9104SOL    HW137781   9.483   7.170   0.764
 9104SOL    HW237782   9.552   7.122   0.624
 9105SOL     OW37783   3.496   3.552   1.694
 9105SOL    HW137784   3.571   3.615   1.675
 9105SOL    HW237785   3.446   3.583   1.775
 9106SOL     OW37786   3.191   9.754   3.619
 9106SOL    HW137787   3.212   9.846   3.653
 9106SOL    HW237788   3.267   9.693   3.639
 9107SOL     OW37789   9.920   7.171   0.555
 9107SOL    HW137790   9.842   7.108   0.558
 9107SOL    HW237791   9.986   7.146   0.626
 9108SOL     OW37792   2.466   5.000   3.473
 9108SOL    HW137793   2.457   4.909   3.513
 9108SOL    HW237794   2.379   5.028   3.431
 9109SOL     OW37795   8.895   8.678   2.174
 9109SOL    HW137796   8.864   8.731   2.253
 9109SOL    HW237797   8.829   8.688   2.100
 9110SOL     OW37798   8.094   7.795   2.572
 9110SOL    HW137799   8.093   7.847   2.657
 9110SOL    HW237800   8.026   7.722   2.578
 9111SOL     OW37801   9.391   0.907   2.391
 9111SOL    HW137802   9.301   0.928   2.428
 9111SOL    HW237803   9.458   0.902   2.465
 9112SOL     OW37804   4.497   4.107   0.170
 9112SOL    HW137805   4.407   4.075   0.140
 9112SOL    HW237806   4.562   4.031   0.170
 9113SOL     OW37807   3.640   7.730   1.077
 9113SOL    HW137808   3.737   7.747   1.093
 9113SOL    HW237809   3.614   7.762   0.986
 9114SOL     OW37810   2.769   8.485   0.574
 9114SOL    HW137811   2.824   8.470   0.492
 9114SOL    HW237812   2.773   8.404   0.633
 9115SOL     OW37813   0.862   4.564   2.724
 9115SOL    HW137814   0.853   4.555   2.624
 9115SOL    HW237815   0.771   4.559   2.765
 9116SOL     OW37816   4.597   1.670   2.327
 9116SOL    HW137817   4.669   1.633   2.386
 9116SOL    HW237818   4.510   1.669   2.376
 9117SOL     OW37819   3.660   5.164   2.292
 9117SOL    HW137820   3.674   5.084   2.351
 9117SOL    HW237821   3.741   5.178   2.235
 9118SOL     OW37822   9.052   3.945   1.816
 9118SOL    HW137823   8.966   3.903   1.846
 9118SOL    HW237824   9.124   3.875   1.813
 9119SOL     OW37825   1.662   5.727   0.229
 9119SOL    HW137826   1.688   5.687   0.317
 9119SOL    HW237827   1.627   5.655   0.169
 9120SOL     OW37828   1.240   7.442   2.026
 9120SOL    HW137829   1.222   7.494   2.109
 9120SOL    HW237830   1.289   7.501   1.961
 9121SOL     OW37831   3.892   7.556   0.913
 9121SOL    HW137832   3.817   7.492   0.893
 9121SOL    HW237833   3.896   7.625   0.841
 9122SOL     OW37834   2.958   7.237   1.324
 9122SOL    HW137835   2.989   7.216   1.416
 9122SOL    HW237836   2.902   7.321   1.326
 9123SOL     OW37837   9.652   6.983   1.632
 9123SOL    HW137838   9.712   6.905   1.615
 9123SOL    HW237839   9.707   7.064   1.650
 9124SOL     OW37840   1.702   1.619   3.577
 9124SOL    HW137841   1.772   1.556   3.543
 9124SOL    HW237842   1.628   1.567   3.619
 9125SOL     OW37843   3.690   5.929   2.929
 9125SOL    HW137844   3.705   6.014   2.878
 9125SOL    HW237845   3.603   5.888   2.900
 9126SOL     OW37846   4.577   6.944   2.010
 9126SOL    HW137847   4.600   7.020   1.949
 9126SOL    HW237848   4.559   6.979   2.102
 9127SOL     OW37849   9.882   0.491   0.277
 9127SOL    HW137850   9.934   0.422   0.328
 9127SOL    HW237851   9.813   0.532   0.336
 9128SOL     OW37852   3.328   3.809   0.491
 9128SOL    HW137853   3.324   3.889   0.551
 9128SOL    HW237854   3.423   3.794   0.462
 9129SOL     OW37855   3.607   9.434   3.605
 9129SOL    HW137856   3.679   9.442   3.537
 9129SOL    HW237857   3.586   9.337   3.620
 9130SOL     OW37858   0.095   6.292   0.805
 9130SOL    HW137859   0.056   6.302   0.896
 9130SOL    HW237860   0.097   6.381   0.760
 9131SOL     OW37861   4.909   2.229   1.881
 9131SOL    HW137862   4.884   2.216   1.977
 9131SOL    HW237863   5.003   2.199   1.866
 9132SOL     OW37864   3.707   3.980   2.526
 9132SOL    HW137865   3.763   3.899   2.513
 9132SOL    HW237866   3.762   4.062   2.511
 9133SOL     OW37867   4.605   0.895   2.423
 9133SOL    HW137868   4.563   0.838   2.493
 9133SOL    HW237869   4.535   0.923   2.357
 9134SOL     OW37870   2.384   6.235   2.426
 9134SOL    HW137871   2.420   6.229   2.333
 9134SOL    HW237872   2.363   6.143   2.460
 9135SOL     OW37873   5.027   1.015   1.522
 9135SOL    HW137874   5.018   0.990   1.618
 9135SOL    HW237875   5.081   1.098   1.513
 9136SOL     OW37876   2.944   8.673   1.330
 9136SOL    HW137877   2.928   8.580   1.363
 9136SOL    HW237878   2.856   8.718   1.314
 9137SOL     OW37879   0.821   2.733   3.284
 9137SOL    HW137880   0.908   2.778   3.300
 9137SOL    HW237881   0.796   2.741   3.188
 9138SOL     OW37882   3.284   3.023   2.425
 9138SOL    HW137883   3.224   2.969   2.484
 9138SOL    HW237884   3.309   2.969   2.344
 9139SOL     OW37885   2.850   3.961   2.033
 9139SOL    HW137886   2.940   3.963   2.076
 9139SOL    HW237887   2.831   3.869   1.997
 9140SOL     OW37888   0.400   4.133   3.558
 9140SOL    HW137889   0.321   4.076   3.584
 9140SOL    HW237890   0.372   4.229   3.554
 9141SOL     OW37891   1.003   9.762   1.311
 9141SOL    HW137892   0.974   9.838   1.253
 9141SOL    HW237893   0.964   9.773   1.402
 9142SOL     OW37894   8.200   7.221   2.987
 9142SOL    HW137895   8.128   7.152   2.980
 9142SOL    HW237896   8.195   7.266   3.076
 9143SOL     OW37897   5.710   8.436   3.140
 9143SOL    HW137898   5.665   8.453   3.053
 9143SOL    HW237899   5.751   8.521   3.173
 9144SOL     OW37900   2.232   5.786   0.423
 9144SOL    HW137901   2.263   5.880   0.412
 9144SOL    HW237902   2.290   5.739   0.490
 9145SOL     OW37903   0.866   1.120   2.852
 9145SOL    HW137904   0.869   1.059   2.773
 9145SOL    HW237905   0.836   1.211   2.823
 9146SOL     OW37906   8.362   0.528   1.797
 9146SOL    HW137907   8.272   0.548   1.758
 9146SOL    HW237908   8.353   0.455   1.865
 9147SOL     OW37909   1.157   9.455   1.699
 9147SOL    HW137910   1.212   9.398   1.638
 9147SOL    HW237911   1.064   9.464   1.662
 9148SOL     OW37912   0.340   7.499   1.611
 9148SOL    HW137913   0.356   7.410   1.654
 9148SOL    HW237914   0.355   7.492   1.512
 9149SOL     OW37915   8.458   5.612   0.207
 9149SOL    HW137916   8.378   5.662   0.241
 9149SOL    HW237917   8.431   5.518   0.187
 9150SOL     OW37918   8.954   3.892   3.457
 9150SOL    HW137919   8.899   3.857   3.532
 9150SOL    HW237920   8.901   3.958   3.403
 9151SOL     OW37921   2.343   1.309   3.350
 9151SOL    HW137922   2.350   1.394   3.298
 9151SOL    HW237923   2.337   1.232   3.286
 9152SOL     OW37924   2.554   2.117   3.105
 9152SOL    HW137925   2.489   2.191   3.124
 9152SOL    HW237926   2.647   2.155   3.103
 9153SOL     OW37927   0.248   9.104   1.831
 9153SOL    HW137928   0.169   9.064   1.784
 9153SOL    HW237929   0.243   9.204   1.825
 9154SOL     OW37930   8.597   7.190   1.158
 9154SOL    HW137931   8.545   7.104   1.166
 9154SOL    HW237932   8.692   7.174   1.185
 9155SOL     OW37933   0.340   1.526   0.863
 9155SOL    HW137934   0.273   1.581   0.815
 9155SOL    HW237935   0.302   1.436   0.884
 9156SOL     OW37936   1.415   9.641   2.635
 9156SOL    HW137937   1.513   9.652   2.646
 9156SOL    HW237938   1.383   9.700   2.560
 9157SOL     OW37939   3.345   4.585   2.200
 9157SOL    HW137940   3.409   4.659   2.221
 9157SOL    HW237941   3.274   4.619   2.138
 9158SOL     OW37942   8.627   6.001   1.176
 9158SOL    HW137943   8.655   6.066   1.247
 9158SOL    HW237944   8.693   5.927   1.170
 9159SOL     OW37945   0.920   0.950   1.297
 9159SOL    HW137946   0.859   0.883   1.339
 9159SOL    HW237947   0.993   0.902   1.247
 9160SOL     OW37948   9.144   1.096   1.817
 9160SOL    HW137949   9.219   1.033   1.837
 9160SOL    HW237950   9.061   1.044   1.801
 9161SOL     OW37951   1.525   4.985   0.895
 9161SOL    HW137952   1.532   5.079   0.860
 9161SOL    HW237953   1.436   4.947   0.870
 9162SOL     OW37954   2.399   1.211   1.506
 9162SOL    HW137955   2.494   1.183   1.518
 9162SOL    HW237956   2.392   1.274   1.429
 9163SOL     OW37957   6.293   8.385   3.643
 9163SOL    HW137958   6.217   8.407   3.582
 9163SOL    HW237959   6.379   8.395   3.593
 9164SOL     OW37960   2.082   4.206   1.432
 9164SOL    HW137961   1.988   4.219   1.399
 9164SOL    HW237962   2.100   4.268   1.508
 9165SOL     OW37963   9.393   6.594   3.243
 9165SOL    HW137964   9.323   6.576   3.313
 9165SOL    HW237965   9.453   6.515   3.234
 9166SOL     OW37966   3.009   9.898   2.998
 9166SOL    HW137967   3.105   9.871   3.009
 9166SOL    HW237968   2.956   9.821   2.964
 9167SOL     OW37969   9.457   0.191   3.661
 9167SOL    HW137970   9.525   0.118   3.673
 9167SOL    HW237971   9.365   0.153   3.674
 9168SOL     OW37972   2.786   1.909   3.702
 9168SOL    HW137973   2.868   1.936   3.752
 9168SOL    HW237974   2.755   1.985   3.645
 9169SOL     OW37975   2.313   8.214   1.864
 9169SOL    HW137976   2.383   8.279   1.893
 9169SOL    HW237977   2.333   8.183   1.771
 9170SOL     OW37978   2.419   6.605   0.132
 9170SOL    HW137979   2.402   6.536   0.202
 9170SOL    HW237980   2.413   6.563   0.042
 9171SOL     OW37981   9.878   7.914   1.786
 9171SOL    HW137982   9.963   7.862   1.783
 9171SOL    HW237983   9.861   7.944   1.880
 9172SOL     OW37984   3.363   8.485   1.746
 9172SOL    HW137985   3.402   8.471   1.837
 9172SOL    HW237986   3.303   8.565   1.747
 9173SOL     OW37987   2.207   8.046   3.381
 9173SOL    HW137988   2.202   7.957   3.336
 9173SOL    HW237989   2.120   8.094   3.370
 9174SOL     OW37990   8.774   7.331   0.118
 9174SOL    HW137991   8.695   7.386   0.145
 9174SOL    HW237992   8.744   7.238   0.098
 9175SOL     OW37993   2.777   5.310   3.021
 9175SOL    HW137994   2.752   5.214   3.022
 9175SOL    HW237995   2.877   5.319   3.029
 9176SOL     OW37996   1.807   7.973   0.346
 9176SOL    HW137997   1.876   8.025   0.397
 9176SOL    HW237998   1.851   7.924   0.271
 9177SOL     OW37999   7.061   0.233   2.730
 9177SOL    HW138000   7.048   0.219   2.632
 9177SOL    HW238001   6.983   0.285   2.766
 9178SOL     OW38002   9.370   8.446   1.379
 9178SOL    HW138003   9.444   8.510   1.359
 9178SOL    HW238004   9.403   8.352   1.365
 9179SOL     OW38005   3.543   9.090   1.501
 9179SOL    HW138006   3.444   9.103   1.501
 9179SOL    HW238007   3.573   9.065   1.593
 9180SOL     OW38008   4.873   5.181   1.284
 9180SOL    HW138009   4.832   5.095   1.314
 9180SOL    HW238010   4.801   5.246   1.261
 9181SOL     OW38011   4.508   3.383   3.696
 9181SOL    HW138012   4.444   3.369   3.620
 9181SOL    HW238013   4.601   3.387   3.661
 9182SOL     OW38014   6.577   9.443   2.327
 9182SOL    HW138015   6.651   9.493   2.281
 9182SOL    HW238016   6.545   9.368   2.269
 9183SOL     OW38017   8.927   1.403   3.622
 9183SOL    HW138018   9.010   1.453   3.596
 9183SOL    HW238019   8.878   1.373   3.540
 9184SOL     OW38020   0.735   8.691   3.079
 9184SOL    HW138021   0.713   8.647   2.992
 9184SOL    HW238022   0.715   8.789   3.072
 9185SOL     OW38023   8.270   8.766   0.062
 9185SOL    HW138024   8.206   8.826   0.110
 9185SOL    HW238025   8.233   8.741   4.754
 9186SOL     OW38026   3.558   7.266   0.247
 9186SOL    HW138027   3.548   7.351   0.194
 9186SOL    HW238028   3.622   7.205   0.200
 9187SOL     OW38029   2.648   2.543   0.089
 9187SOL    HW138030   2.695   2.541   0.178
 9187SOL    HW238031   2.560   2.496   0.098
 9188SOL     OW38032   7.975   6.081   1.942
 9188SOL    HW138033   8.010   6.021   2.013
 9188SOL    HW238034   7.998   6.176   1.963
 9189SOL     OW38035   9.569   8.412   0.550
 9189SOL    HW138036   9.500   8.360   0.600
 9189SOL    HW238037   9.527   8.491   0.506
 9190SOL     OW38038   4.787   6.883   2.753
 9190SOL    HW138039   4.874   6.845   2.782
 9190SOL    HW238040   4.794   6.914   2.658
 9191SOL     OW38041   4.741   8.043   1.924
 9191SOL    HW138042   4.726   8.078   1.831
 9191SOL    HW238043   4.839   8.032   1.940
 9192SOL     OW38044   6.873   0.106   0.142
 9192SOL    HW138045   6.800   0.161   0.101
 9192SOL    HW238046   6.841   0.070   0.230
 9193SOL     OW38047   1.021   8.988   1.242
 9193SOL    HW138048   1.023   9.078   1.287
 9193SOL    HW238049   1.090   8.986   1.170
 9194SOL     OW38050   3.372   0.623   2.799
 9194SOL    HW138051   3.287   0.674   2.811
 9194SOL    HW238052   3.371   0.576   2.711
 9195SOL     OW38053   0.488   6.724   3.179
 9195SOL    HW138054   0.540   6.759   3.257
 9195SOL    HW238055   0.414   6.665   3.211
 9196SOL     OW38056   0.930   5.885   0.895
 9196SOL    HW138057   0.927   5.950   0.819
 9196SOL    HW238058   0.907   5.794   0.861
 9197SOL     OW38059   9.360   7.667   1.172
 9197SOL    HW138060   9.403   7.711   1.250
 9197SOL    HW238061   9.278   7.618   1.201
 9198SOL     OW38062   0.426   9.991   2.579
 9198SOL    HW138063   0.470   0.079   2.565
 9198SOL    HW238064   0.445   9.958   2.671
 9199SOL     OW38065   9.525   3.684   3.159
 9199SOL    HW138066   9.584   3.763   3.143
 9199SOL    HW238067   9.578   3.600   3.145
 9200SOL     OW38068   2.786   7.452   1.375
 9200SOL    HW138069   2.815   7.507   1.454
 9200SOL    HW238070   2.687   7.458   1.365
 9201SOL     OW38071   8.091   9.777   0.100
 9201SOL    HW138072   8.172   9.733   0.061
 9201SOL    HW238073   8.119   9.842   0.170
 9202SOL     OW38074   9.247   6.305   0.116
 9202SOL    HW138075   9.345   6.301   0.135
 9202SOL    HW238076   9.231   6.284   0.019
 9203SOL     OW38077   4.067   2.516   0.271
 9203SOL    HW138078   4.081   2.508   0.370
 9203SOL    HW238079   4.133   2.459   0.223
 9204SOL     OW38080   9.716   6.908   0.307
 9204SOL    HW138081   9.761   6.970   0.243
 9204SOL    HW238082   9.645   6.856   0.258
 9205SOL     OW38083   3.901   2.471   2.452
 9205SOL    HW138084   3.909   2.401   2.382
 9205SOL    HW238085   3.942   2.556   2.420
 9206SOL     OW38086   9.520   6.904   2.501
 9206SOL    HW138087   9.549   6.968   2.430
 9206SOL    HW238088   9.536   6.810   2.469
 9207SOL     OW38089   9.265   6.270   1.055
 9207SOL    HW138090   9.225   6.186   1.019
 9207SOL    HW238091   9.365   6.266   1.047
 9208SOL     OW38092   1.128   9.607   3.513
 9208SOL    HW138093   1.043   9.622   3.464
 9208SOL    HW238094   1.200   9.579   3.449
 9209SOL     OW38095   0.331   0.556   3.325
 9209SOL    HW138096   0.293   0.611   3.400
 9209SOL    HW238097   0.266   0.484   3.301
 9210SOL     OW38098   2.813   5.606   0.575
 9210SOL    HW138099   2.741   5.632   0.512
 9210SOL    HW238100   2.899   5.596   0.525
 9211SOL     OW38101   3.607   2.425   3.043
 9211SOL    HW138102   3.585   2.350   2.980
 9211SOL    HW238103   3.705   2.442   3.042
 9212SOL     OW38104   0.784   0.928   0.690
 9212SOL    HW138105   0.779   0.861   0.616
 9212SOL    HW238106   0.705   0.989   0.685
 9213SOL     OW38107   2.543   4.316   2.024
 9213SOL    HW138108   2.611   4.280   2.087
 9213SOL    HW238109   2.487   4.241   1.988
 9214SOL     OW38110   0.704   3.181   0.906
 9214SOL    HW138111   0.800   3.179   0.882
 9214SOL    HW238112   0.662   3.093   0.886
 9215SOL     OW38113   9.196   6.539   2.670
 9215SOL    HW138114   9.178   6.456   2.616
 9215SOL    HW238115   9.289   6.534   2.708
 9216SOL     OW38116   3.160   1.466   3.174
 9216SOL    HW138117   3.259   1.473   3.190
 9216SOL    HW238118   3.120   1.557   3.172
 9217SOL     OW38119   9.771   5.263   1.059
 9217SOL    HW138120   9.761   5.295   0.965
 9217SOL    HW238121   9.729   5.173   1.068
 9218SOL     OW38122   9.253   0.707   3.732
 9218SOL    HW138123   9.255   0.627   3.792
 9218SOL    HW238124   9.170   0.706   3.677
 9219SOL     OW38125   1.139   1.523   0.982
 9219SOL    HW138126   1.227   1.537   1.027
 9219SOL    HW238127   1.069   1.578   1.028
 9220SOL     OW38128   6.329   9.872   0.745
 9220SOL    HW138129   6.392   9.853   0.821
 9220SOL    HW238130   6.258   9.935   0.777
 9221SOL     OW38131   9.333   6.304   3.338
 9221SOL    HW138132   9.406   6.314   3.270
 9221SOL    HW238133   9.244   6.310   3.292
 9222SOL     OW38134   9.222   8.926   0.509
 9222SOL    HW138135   9.184   9.017   0.521
 9222SOL    HW238136   9.282   8.904   0.586
 9223SOL     OW38137   8.553   3.402   3.377
 9223SOL    HW138138   8.489   3.326   3.384
 9223SOL    HW238139   8.515   3.473   3.319
 9224SOL     OW38140   9.167   5.585   2.403
 9224SOL    HW138141   9.114   5.597   2.487
 9224SOL    HW238142   9.109   5.544   2.333
 9225SOL     OW38143   9.138   4.729   3.449
 9225SOL    HW138144   9.059   4.740   3.509
 9225SOL    HW238145   9.139   4.637   3.410
 9226SOL     OW38146   8.768   3.322   1.216
 9226SOL    HW138147   8.724   3.393   1.271
 9226SOL    HW238148   8.749   3.233   1.257
 9227SOL     OW38149   1.877   3.047   2.134
 9227SOL    HW138150   1.890   3.141   2.165
 9227SOL    HW238151   1.830   2.995   2.205
 9228SOL     OW38152   0.490   3.967   3.350
 9228SOL    HW138153   0.459   4.043   3.408
 9228SOL    HW238154   0.450   3.881   3.383
 9229SOL     OW38155   4.536   9.360   1.283
 9229SOL    HW138156   4.503   9.453   1.264
 9229SOL    HW238157   4.619   9.365   1.339
 9230SOL     OW38158   9.550   0.494   2.459
 9230SOL    HW138159   9.507   0.485   2.369
 9230SOL    HW238160   9.545   0.407   2.508
 9231SOL     OW38161   3.780   1.906   2.217
 9231SOL    HW138162   3.849   1.864   2.276
 9231SOL    HW238163   3.757   1.842   2.144
 9232SOL     OW38164   4.188   7.714   2.167
 9232SOL    HW138165   4.148   7.798   2.131
 9232SOL    HW238166   4.132   7.636   2.140
 9233SOL     OW38167   0.351   1.490   3.366
 9233SOL    HW138168   0.386   1.397   3.352
 9233SOL    HW238169   0.428   1.554   3.374
 9234SOL     OW38170   7.220   8.322   2.046
 9234SOL    HW138171   7.124   8.336   2.021
 9234SOL    HW238172   7.231   8.335   2.144
 9235SOL     OW38173   8.283   9.273   2.214
 9235SOL    HW138174   8.349   9.343   2.186
 9235SOL    HW238175   8.195   9.292   2.172
 9236SOL     OW38176   4.692   3.128   2.195
 9236SOL    HW138177   4.676   3.116   2.097
 9236SOL    HW238178   4.628   3.196   2.231
 9237SOL     OW38179   4.212   2.497   2.200
 9237SOL    HW138180   4.223   2.404   2.235
 9237SOL    HW238181   4.150   2.548   2.259
 9238SOL     OW38182   6.526   8.076   2.718
 9238SOL    HW138183   6.511   8.108   2.624
 9238SOL    HW238184   6.609   8.118   2.754
 9239SOL     OW38185   7.095   8.150   2.473
 9239SOL    HW138186   7.140   8.088   2.536
 9239SOL    HW238187   7.061   8.098   2.394
 9240SOL     OW38188   0.293   9.265   2.173
 9240SOL    HW138189   0.212   9.255   2.115
 9240SOL    HW238190   0.333   9.175   2.191
 9241SOL     OW38191   9.283   3.748   2.165
 9241SOL    HW138192   9.189   3.724   2.140
 9241SOL    HW238193   9.285   3.842   2.199
 9242SOL     OW38194   3.362   7.401   2.182
 9242SOL    HW138195   3.279   7.403   2.237
 9242SOL    HW238196   3.375   7.310   2.143
 9243SOL     OW38197   1.749   3.529   3.210
 9243SOL    HW138198   1.800   3.533   3.124
 9243SOL    HW238199   1.709   3.619   3.228
 9244SOL     OW38200   2.903   0.271   0.184
 9244SOL    HW138201   2.938   0.359   0.152
 9244SOL    HW238202   2.816   0.285   0.230
 9245SOL     OW38203   7.963   1.598   3.091
 9245SOL    HW138204   8.026   1.667   3.056
 9245SOL    HW238205   7.886   1.643   3.136
 9246SOL     OW38206   9.763   9.380   0.241
 9246SOL    HW138207   9.708   9.320   0.183
 9246SOL    HW238208   9.750   9.355   0.337
 9247SOL     OW38209   7.931   0.749   0.769
 9247SOL    HW138210   8.005   0.685   0.788
 9247SOL    HW238211   7.846   0.715   0.808
 9248SOL     OW38212   4.122   9.799   0.464
 9248SOL    HW138213   4.084   9.875   0.517
 9248SOL    HW238214   4.121   9.716   0.519
 9249SOL     OW38215   3.588   1.950   3.028
 9249SOL    HW138216   3.656   1.990   3.090
 9249SOL    HW238217   3.514   2.015   3.014
 9250SOL     OW38218   0.498   0.263   3.000
 9250SOL    HW138219   0.527   0.173   2.967
 9250SOL    HW238220   0.572   0.306   3.051
 9251SOL     OW38221   0.967   5.548   3.507
 9251SOL    HW138222   0.944   5.471   3.567
 9251SOL    HW238223   0.948   5.522   3.412
 9252SOL     OW38224   0.075   4.342   3.380
 9252SOL    HW138225   0.155   4.312   3.328
 9252SOL    HW238226   0.047   4.270   3.444
 9253SOL     OW38227   0.443   0.809   2.761
 9253SOL    HW138228   0.459   0.820   2.860
 9253SOL    HW238229   0.399   0.721   2.744
 9254SOL     OW38230   6.773   7.766   3.150
 9254SOL    HW138231   6.725   7.730   3.070
 9254SOL    HW238232   6.706   7.801   3.216
 9255SOL     OW38233   3.685   8.374   3.072
 9255SOL    HW138234   3.638   8.287   3.060
 9255SOL    HW238235   3.618   8.449   3.068
 9256SOL     OW38236   9.545   8.088   2.851
 9256SOL    HW138237   9.501   8.101   2.762
 9256SOL    HW238238   9.617   8.018   2.843
 9257SOL     OW38239   1.346   2.573   1.362
 9257SOL    HW138240   1.368   2.533   1.273
 9257SOL    HW238241   1.389   2.663   1.369
 9258SOL     OW38242   8.777   5.229   1.413
 9258SOL    HW138243   8.737   5.142   1.444
 9258SOL    HW238244   8.874   5.231   1.437
 9259SOL     OW38245   9.700   0.638   0.424
 9259SOL    HW138246   9.746   0.656   0.511
 9259SOL    HW238247   9.701   0.720   0.368
 9260SOL     OW38248   8.783   8.323   2.270
 9260SOL    HW138249   8.837   8.366   2.197
 9260SOL    HW238250   8.816   8.230   2.286
 9261SOL     OW38251   1.287   0.847   2.536
 9261SOL    HW138252   1.369   0.894   2.504
 9261SOL    HW238253   1.292   0.750   2.511
 9262SOL     OW38254   2.092   4.535   2.018
 9262SOL    HW138255   2.027   4.526   2.093
 9262SOL    HW238256   2.184   4.514   2.050
 9263SOL     OW38257   7.107   3.598   0.153
 9263SOL    HW138258   7.057   3.672   0.109
 9263SOL    HW238259   7.193   3.633   0.191
 9264SOL     OW38260   1.479   0.741   1.786
 9264SOL    HW138261   1.553   0.754   1.721
 9264SOL    HW238262   1.393   0.774   1.746
 9265SOL     OW38263   2.019   1.623   1.512
 9265SOL    HW138264   2.100   1.582   1.553
 9265SOL    HW238265   1.987   1.698   1.569
 9266SOL     OW38266   9.563   6.460   1.292
 9266SOL    HW138267   9.480   6.410   1.316
 9266SOL    HW238268   9.540   6.540   1.237
 9267SOL     OW38269   1.547   9.230   2.249
 9267SOL    HW138270   1.478   9.189   2.309
 9267SOL    HW238271   1.503   9.297   2.189
 9268SOL     OW38272   1.332   5.867   3.609
 9268SOL    HW138273   1.271   5.897   3.535
 9268SOL    HW238274   1.364   5.946   3.660
 9269SOL     OW38275   0.886   4.036   1.562
 9269SOL    HW138276   0.790   4.041   1.589
 9269SOL    HW238277   0.938   3.985   1.630
 9270SOL     OW38278   2.784   7.222   0.651
 9270SOL    HW138279   2.778   7.123   0.659
 9270SOL    HW238280   2.798   7.262   0.741
 9271SOL     OW38281   8.113   8.351   0.580
 9271SOL    HW138282   8.151   8.411   0.651
 9271SOL    HW238283   8.013   8.358   0.581
 9272SOL     OW38284   0.282   6.142   1.104
 9272SOL    HW138285   0.345   6.086   1.049
 9272SOL    HW238286   0.192   6.098   1.105
 9273SOL     OW38287   1.275   5.002   1.248
 9273SOL    HW138288   1.373   5.011   1.234
 9273SOL    HW238289   1.237   4.942   1.178
 9274SOL     OW38290   8.558   8.078   0.199
 9274SOL    HW138291   8.647   8.061   0.241
 9274SOL    HW238292   8.510   8.149   0.250
 9275SOL     OW38293   0.871   5.388   1.976
 9275SOL    HW138294   0.781   5.345   1.967
 9275SOL    HW238295   0.874   5.470   1.919
 9276SOL     OW38296   6.548   9.951   3.280
 9276SOL    HW138297   6.608   9.871   3.287
 9276SOL    HW238298   6.491   9.958   3.361
 9277SOL     OW38299   1.961   4.277   1.820
 9277SOL    HW138300   1.950   4.179   1.805
 9277SOL    HW238301   2.035   4.312   1.762
 9278SOL     OW38302   8.403   0.158   3.287
 9278SOL    HW138303   8.445   0.119   3.368
 9278SOL    HW238304   8.337   0.228   3.315
 9279SOL     OW38305   9.974   0.759   2.142
 9279SOL    HW138306   9.945   0.772   2.048
 9279SOL    HW238307   9.988   0.662   2.160
 9280SOL     OW38308   4.430   9.631   0.549
 9280SOL    HW138309   4.336   9.595   0.548
 9280SOL    HW238310   4.437   9.707   0.484
 9281SOL     OW38311   2.833   0.709   0.068
 9281SOL    HW138312   2.760   0.753   0.015
 9281SOL    HW238313   2.826   0.738   0.163
 9282SOL     OW38314   5.156   8.013   2.219
 9282SOL    HW138315   5.066   7.982   2.249
 9282SOL    HW238316   5.146   8.082   2.147
 9283SOL     OW38317   9.940   5.986   1.381
 9283SOL    HW138318   9.963   6.025   1.470
 9283SOL    HW238319   9.849   6.017   1.354
 9284SOL     OW38320   8.346   6.217   1.374
 9284SOL    HW138321   8.404   6.282   1.325
 9284SOL    HW238322   8.270   6.189   1.315
 9285SOL     OW38323   5.703   0.786   3.139
 9285SOL    HW138324   5.683   0.755   3.232
 9285SOL    HW238325   5.661   0.876   3.124
 9286SOL     OW38326   1.361   8.769   1.991
 9286SOL    HW138327   1.406   8.841   2.043
 9286SOL    HW238328   1.409   8.682   2.007
 9287SOL     OW38329   3.695   5.536   3.107
 9287SOL    HW138330   3.757   5.594   3.053
 9287SOL    HW238331   3.721   5.440   3.094
 9288SOL     OW38332   3.580   1.188   3.224
 9288SOL    HW138333   3.649   1.259   3.210
 9288SOL    HW238334   3.623   1.098   3.224
 9289SOL     OW38335   3.379   7.188   2.663
 9289SOL    HW138336   3.369   7.144   2.753
 9289SOL    HW238337   3.302   7.251   2.648
 9290SOL     OW38338   3.620   7.704   3.016
 9290SOL    HW138339   3.589   7.629   3.074
 9290SOL    HW238340   3.712   7.685   2.982
 9291SOL     OW38341   2.678   2.325   2.260
 9291SOL    HW138342   2.633   2.395   2.315
 9291SOL    HW238343   2.610   2.260   2.225
 9292SOL     OW38344   9.968   8.804   2.947
 9292SOL    HW138345   0.066   8.785   2.952
 9292SOL    HW238346   9.935   8.787   2.854
 9293SOL     OW38347   5.110   3.183   0.963
 9293SOL    HW138348   5.159   3.186   1.050
 9293SOL    HW238349   5.175   3.159   0.890
 9294SOL     OW38350   0.904   8.701   0.895
 9294SOL    HW138351   0.984   8.659   0.852
 9294SOL    HW238352   0.832   8.632   0.905
 9295SOL     OW38353   3.156   2.793   3.588
 9295SOL    HW138354   3.152   2.820   3.491
 9295SOL    HW238355   3.236   2.836   3.630
 9296SOL     OW38356   7.418   9.660   1.195
 9296SOL    HW138357   7.358   9.722   1.145
 9296SOL    HW238358   7.420   9.571   1.150
 9297SOL     OW38359   2.603   3.876   0.116
 9297SOL    HW138360   2.645   3.952   0.065
 9297SOL    HW238361   2.504   3.875   0.099
 9298SOL     OW38362   0.028   0.293   0.401
 9298SOL    HW138363   0.018   0.207   0.451
 9298SOL    HW238364   0.099   0.348   0.444
 9299SOL     OW38365   1.288   4.373   3.114
 9299SOL    HW138366   1.315   4.458   3.161
 9299SOL    HW238367   1.284   4.299   3.181
 9300SOL     OW38368   1.177   4.291   1.410
 9300SOL    HW138369   1.231   4.220   1.455
 9300SOL    HW238370   1.219   4.380   1.428
 9301SOL     OW38371   9.188   7.028   3.468
 9301SOL    HW138372   9.243   7.071   3.396
 9301SOL    HW238373   9.247   6.968   3.522
 9302SOL     OW38374   9.252   4.395   1.333
 9302SOL    HW138375   9.159   4.366   1.359
 9302SOL    HW238376   9.316   4.368   1.405
 9303SOL     OW38377   3.181   7.628   1.823
 9303SOL    HW138378   3.157   7.557   1.756
 9303SOL    HW238379   3.189   7.716   1.776
 9304SOL     OW38380   0.371   1.948   1.917
 9304SOL    HW138381   0.331   1.987   1.835
 9304SOL    HW238382   0.466   1.978   1.926
 9305SOL     OW38383   0.962   5.454   2.232
 9305SOL    HW138384   1.053   5.488   2.206
 9305SOL    HW238385   0.913   5.425   2.150
 9306SOL     OW38386   9.677   9.556   1.581
 9306SOL    HW138387   9.693   9.651   1.605
 9306SOL    HW238388   9.579   9.537   1.581
 9307SOL     OW38389   1.758   3.619   0.529
 9307SOL    HW138390   1.763   3.521   0.507
 9307SOL    HW238391   1.838   3.646   0.582
 9308SOL     OW38392   2.059   2.666   2.651
 9308SOL    HW138393   2.044   2.754   2.607
 9308SOL    HW238394   2.037   2.672   2.748
 9309SOL     OW38395   7.566   8.301   1.223
 9309SOL    HW138396   7.545   8.283   1.127
 9309SOL    HW238397   7.664   8.314   1.234
 9310SOL     OW38398   3.550   9.314   1.146
 9310SOL    HW138399   3.468   9.259   1.132
 9310SOL    HW238400   3.631   9.258   1.126
 9311SOL     OW38401   1.963   1.740   1.935
 9311SOL    HW138402   2.049   1.774   1.973
 9311SOL    HW238403   1.957   1.766   1.839
 9312SOL     OW38404   0.106   5.096   3.406
 9312SOL    HW138405   0.170   5.169   3.382
 9312SOL    HW238406   0.062   5.117   3.492
 9313SOL     OW38407   1.703   9.136   0.933
 9313SOL    HW138408   1.732   9.122   0.838
 9313SOL    HW238409   1.738   9.061   0.990
 9314SOL     OW38410   9.110   7.461   2.878
 9314SOL    HW138411   9.151   7.551   2.889
 9314SOL    HW238412   9.120   7.431   2.783
 9315SOL     OW38413   6.021   0.170   2.113
 9315SOL    HW138414   6.014   0.071   2.100
 9315SOL    HW238415   6.036   0.215   2.025
 9316SOL     OW38416   1.325   8.514   2.757
 9316SOL    HW138417   1.388   8.442   2.784
 9316SOL    HW238418   1.346   8.544   2.664
 9317SOL     OW38419   7.917   5.608   2.966
 9317SOL    HW138420   7.904   5.695   2.917
 9317SOL    HW238421   7.906   5.623   3.064
 9318SOL     OW38422   2.715   3.139   2.601
 9318SOL    HW138423   2.637   3.200   2.585
 9318SOL    HW238424   2.796   3.193   2.621
 9319SOL     OW38425   2.686   8.961   3.588
 9319SOL    HW138426   2.630   8.878   3.595
 9319SOL    HW238427   2.763   8.954   3.651
 9320SOL     OW38428   1.789   6.307   1.812
 9320SOL    HW138429   1.722   6.278   1.745
 9320SOL    HW238430   1.826   6.397   1.786
 9321SOL     OW38431   2.667   4.099   3.005
 9321SOL    HW138432   2.608   4.134   3.079
 9321SOL    HW238433   2.688   4.003   3.024
 9322SOL     OW38434   4.148   8.249   3.326
 9322SOL    HW138435   4.129   8.229   3.422
 9322SOL    HW238436   4.168   8.163   3.278
 9323SOL     OW38437   8.367   4.087   3.071
 9323SOL    HW138438   8.423   4.102   2.989
 9323SOL    HW238439   8.381   4.163   3.135
 9324SOL     OW38440   0.452   5.168   1.747
 9324SOL    HW138441   0.407   5.108   1.681
 9324SOL    HW238442   0.386   5.200   1.815
 9325SOL     OW38443   2.755   6.765   2.809
 9325SOL    HW138444   2.820   6.769   2.734
 9325SOL    HW238445   2.780   6.832   2.879
 9326SOL     OW38446   0.391   3.051   1.260
 9326SOL    HW138447   0.452   3.089   1.329
 9326SOL    HW238448   0.300   3.038   1.299
 9327SOL     OW38449   3.901   2.593   2.788
 9327SOL    HW138450   3.826   2.546   2.742
 9327SOL    HW238451   3.926   2.675   2.737
 9328SOL     OW38452   3.379   9.142   1.778
 9328SOL    HW138453   3.314   9.080   1.736
 9328SOL    HW238454   3.369   9.233   1.737
 9329SOL     OW38455   2.860   4.290   2.358
 9329SOL    HW138456   2.866   4.380   2.316
 9329SOL    HW238457   2.804   4.230   2.301
 9330SOL     OW38458   2.963   1.268   1.761
 9330SOL    HW138459   3.061   1.256   1.775
 9330SOL    HW238460   2.946   1.304   1.669
 9331SOL     OW38461   1.639   4.803   1.057
 9331SOL    HW138462   1.603   4.715   1.028
 9331SOL    HW238463   1.610   4.875   0.994
 9332SOL     OW38464   1.597   8.095   2.685
 9332SOL    HW138465   1.662   8.022   2.708
 9332SOL    HW238466   1.624   8.138   2.599
 9333SOL     OW38467   9.236   0.980   3.644
 9333SOL    HW138468   9.240   0.898   3.700
 9333SOL    HW238469   9.299   0.972   3.567
 9334SOL     OW38470   5.176   3.083   0.497
 9334SOL    HW138471   5.081   3.056   0.486
 9334SOL    HW238472   5.222   3.081   0.409
 9335SOL     OW38473   2.129   6.561   0.338
 9335SOL    HW138474   2.169   6.646   0.371
 9335SOL    HW238475   2.202   6.498   0.313
 9336SOL     OW38476   9.447   0.030   1.924
 9336SOL    HW138477   9.500   0.113   1.909
 9336SOL    HW238478   9.419   0.025   2.020
 9337SOL     OW38479   2.600   6.905   2.112
 9337SOL    HW138480   2.671   6.921   2.043
 9337SOL    HW238481   2.625   6.826   2.167
 9338SOL     OW38482   1.263   6.963   2.343
 9338SOL    HW138483   1.183   7.003   2.388
 9338SOL    HW238484   1.274   7.002   2.252
 9339SOL     OW38485   5.554   7.405   2.175
 9339SOL    HW138486   5.528   7.323   2.227
 9339SOL    HW238487   5.566   7.381   2.079
 9340SOL     OW38488   2.116   6.286   2.484
 9340SOL    HW138489   2.211   6.288   2.452
 9340SOL    HW238490   2.107   6.226   2.563
 9341SOL     OW38491   0.007   1.588   1.916
 9341SOL    HW138492   9.959   1.531   1.982
 9341SOL    HW238493   9.941   1.629   1.853
 9342SOL     OW38494   3.747   2.028   3.576
 9342SOL    HW138495   3.712   1.935   3.569
 9342SOL    HW238496   3.811   2.045   3.502
 9343SOL     OW38497   7.130   8.716   3.009
 9343SOL    HW138498   7.062   8.719   3.082
 9343SOL    HW238499   7.167   8.624   3.001
 9344SOL     OW38500   2.424   0.542   2.109
 9344SOL    HW138501   2.431   0.624   2.053
 9344SOL    HW238502   2.414   0.567   2.205
 9345SOL     OW38503   8.293   1.544   0.223
 9345SOL    HW138504   8.327   1.635   0.248
 9345SOL    HW238505   8.194   1.541   0.230
 9346SOL     OW38506   1.230   0.199   2.297
 9346SOL    HW138507   1.244   0.185   2.199
 9346SOL    HW238508   1.295   0.144   2.349
 9347SOL     OW38509   2.092   5.082   3.121
 9347SOL    HW138510   2.007   5.029   3.126
 9347SOL    HW238511   2.079   5.160   3.061
 9348SOL     OW38512   9.621   5.693   0.866
 9348SOL    HW138513   9.672   5.779   0.869
 9348SOL    HW238514   9.534   5.707   0.818
 9349SOL     OW38515   2.619   8.008   1.733
 9349SOL    HW138516   2.650   7.928   1.682
 9349SOL    HW238517   2.638   7.996   1.830
 9350SOL     OW38518   0.306   7.112   3.356
 9350SOL    HW138519   0.391   7.149   3.394
 9350SOL    HW238520   0.291   7.149   3.265
 9351SOL     OW38521   9.363   9.282   0.707
 9351SOL    HW138522   9.418   9.224   0.767
 9351SOL    HW238523   9.385   9.378   0.724
 9352SOL     OW38524   8.926   1.450   1.138
 9352SOL    HW138525   8.967   1.381   1.198
 9352SOL    HW238526   8.988   1.470   1.063
 9353SOL     OW38527   1.042   7.942   1.096
 9353SOL    HW138528   1.014   7.891   1.015
 9353SOL    HW238529   1.010   7.895   1.178
 9354SOL     OW38530   3.252   2.266   0.580
 9354SOL    HW138531   3.263   2.309   0.669
 9354SOL    HW238532   3.337   2.273   0.528
 9355SOL     OW38533   2.137   0.397   0.293
 9355SOL    HW138534   2.070   0.332   0.329
 9355SOL    HW238535   2.221   0.349   0.268
 9356SOL     OW38536   3.806   7.231   2.359
 9356SOL    HW138537   3.830   7.320   2.320
 9356SOL    HW238538   3.884   7.194   2.409
 9357SOL     OW38539   3.230   4.689   3.478
 9357SOL    HW138540   3.324   4.700   3.445
 9357SOL    HW238541   3.166   4.723   3.409
 9358SOL     OW38542   2.082   0.504   3.136
 9358SOL    HW138543   2.134   0.575   3.185
 9358SOL    HW238544   1.988   0.536   3.120
 9359SOL     OW38545   0.064   9.667   2.090
 9359SOL    HW138546   9.995   9.645   2.022
 9359SOL    HW238547   0.090   9.763   2.081
 9360SOL     OW38548   2.535   7.500   0.295
 9360SOL    HW138549   2.454   7.538   0.251
 9360SOL    HW238550   2.598   7.574   0.319
 9361SOL     OW38551   1.683   5.142   3.650
 9361SOL    HW138552   1.778   5.117   3.633
 9361SOL    HW238553   1.654   5.210   3.583
 9362SOL     OW38554   1.515   0.992   2.463
 9362SOL    HW138555   1.535   1.060   2.392
 9362SOL    HW238556   1.593   0.929   2.472
 9363SOL     OW38557   8.637   2.127   3.529
 9363SOL    HW138558   8.579   2.053   3.493
 9363SOL    HW238559   8.634   2.205   3.466
 9364SOL     OW38560   9.420   0.884   0.448
 9364SOL    HW138561   9.463   0.974   0.457
 9364SOL    HW238562   9.440   0.846   0.358
 9365SOL     OW38563   0.026   5.736   1.316
 9365SOL    HW138564   9.998   5.827   1.348
 9365SOL    HW238565   0.111   5.743   1.263
 9366SOL     OW38566   7.899   3.590   0.289
 9366SOL    HW138567   7.804   3.577   0.262
 9366SOL    HW238568   7.902   3.629   0.381
 9367SOL     OW38569   1.814   5.878   2.084
 9367SOL    HW138570   1.806   5.942   2.160
 9367SOL    HW238571   1.849   5.925   2.003
  10.00000  10.00000   4.78122
